 Entering Gaussian System, Link 0=g16
 Initial command:
 /ssoft/spack/external/gaussian/g16-C.01/avx2/g16/l1.exe "/scratch/lcmd/2316124/Gau-2742309.inp" -scrdir="/scratch/lcmd/2316124/"
 Entering Link 1 = /ssoft/spack/external/gaussian/g16-C.01/avx2/g16/l1.exe PID=   2742310.
  
 Copyright (c) 1988-2019, Gaussian, Inc.  All Rights Reserved.
  
 This is part of the Gaussian(R) 16 program.  It is based on
 the Gaussian(R) 09 system (copyright 2009, Gaussian, Inc.),
 the Gaussian(R) 03 system (copyright 2003, Gaussian, Inc.),
 the Gaussian(R) 98 system (copyright 1998, Gaussian, Inc.),
 the Gaussian(R) 94 system (copyright 1995, Gaussian, Inc.),
 the Gaussian 92(TM) system (copyright 1992, Gaussian, Inc.),
 the Gaussian 90(TM) system (copyright 1990, Gaussian, Inc.),
 the Gaussian 88(TM) system (copyright 1988, Gaussian, Inc.),
 the Gaussian 86(TM) system (copyright 1986, Carnegie Mellon
 University), and the Gaussian 82(TM) system (copyright 1983,
 Carnegie Mellon University). Gaussian is a federally registered
 trademark of Gaussian, Inc.
  
 This software contains proprietary and confidential information,
 including trade secrets, belonging to Gaussian, Inc.
  
 This software is provided under written license and may be
 used, copied, transmitted, or stored only in accord with that
 written license.
  
 The following legend is applicable only to US Government
 contracts under FAR:
  
                    RESTRICTED RIGHTS LEGEND
  
 Use, reproduction and disclosure by the US Government is
 subject to restrictions as set forth in subparagraphs (a)
 and (c) of the Commercial Computer Software - Restricted
 Rights clause in FAR 52.227-19.
  
 Gaussian, Inc.
 340 Quinnipiac St., Bldg. 40, Wallingford CT 06492
  
  
 ---------------------------------------------------------------
 Warning -- This program may not be used in any manner that
 competes with the business of Gaussian, Inc. or will provide
 assistance to any competitor of Gaussian, Inc.  The licensee
 of this program is prohibited from giving any competitor of
 Gaussian, Inc. access to this program.  By using this program,
 the user acknowledges that Gaussian, Inc. is engaged in the
 business of creating and licensing software in the field of
 computational chemistry and represents and warrants to the
 licensee that it is not a competitor of Gaussian, Inc. and that
 it will not use this program in any manner prohibited above.
 ---------------------------------------------------------------
  

 Cite this work as:
 Gaussian 16, Revision C.01,
 M. J. Frisch, G. W. Trucks, H. B. Schlegel, G. E. Scuseria, 
 M. A. Robb, J. R. Cheeseman, G. Scalmani, V. Barone, 
 G. A. Petersson, H. Nakatsuji, X. Li, M. Caricato, A. V. Marenich, 
 J. Bloino, B. G. Janesko, R. Gomperts, B. Mennucci, H. P. Hratchian, 
 J. V. Ortiz, A. F. Izmaylov, J. L. Sonnenberg, D. Williams-Young, 
 F. Ding, F. Lipparini, F. Egidi, J. Goings, B. Peng, A. Petrone, 
 T. Henderson, D. Ranasinghe, V. G. Zakrzewski, J. Gao, N. Rega, 
 G. Zheng, W. Liang, M. Hada, M. Ehara, K. Toyota, R. Fukuda, 
 J. Hasegawa, M. Ishida, T. Nakajima, Y. Honda, O. Kitao, H. Nakai, 
 T. Vreven, K. Throssell, J. A. Montgomery, Jr., J. E. Peralta, 
 F. Ogliaro, M. J. Bearpark, J. J. Heyd, E. N. Brothers, K. N. Kudin, 
 V. N. Staroverov, T. A. Keith, R. Kobayashi, J. Normand, 
 K. Raghavachari, A. P. Rendell, J. C. Burant, S. S. Iyengar, 
 J. Tomasi, M. Cossi, J. M. Millam, M. Klene, C. Adamo, R. Cammi, 
 J. W. Ochterski, R. L. Martin, K. Morokuma, O. Farkas, 
 J. B. Foresman, and D. J. Fox, Gaussian, Inc., Wallingford CT, 2019.
 
 ******************************************
 Gaussian 16:  ES64L-G16RevC.01  3-Jul-2019
                 4-Mar-2023 
 ******************************************
 %nprocshared=1
 Will use up to    1 processors via shared memory.
 %mem=8000MB
 %chk=SENBES_Complex_1_Ligand_0_NN_Cu_oriented.chk
 ----------------------------------------------------------------------
 #p pop=(regular,nbo,savenbos) freq=noraman def2svp empiricaldispersion
 =gd3bj output=wfx pbe1pbe
 ----------------------------------------------------------------------
 1/10=4,30=1,38=1/1,3;
 2/12=2,17=6,18=5,40=1/2;
 3/5=43,7=101,11=2,25=1,30=1,71=2,74=-13,124=41,140=1/1,2,3;
 4//1;
 5/5=2,38=5,98=1/2;
 8/6=4,10=90,11=11/1;
 11/6=1,8=1,9=11,15=111,16=1/1,2,10;
 10/6=1/2;
 6/28=1,40=1,73=1/1,7;
 7/8=1,10=1,25=1/1,2,3,16;
 1/10=4,30=1/3;
 99/6=200/99;
 Leave Link    1 at Sat Mar  4 11:34:08 2023, MaxMem=  1048576000 cpu:               0.0 elap:               0.1
 (Enter /ssoft/spack/external/gaussian/g16-C.01/avx2/g16/l101.exe)
 ----------------------------------------
 SENBES_Complex_1_Ligand_0_NN_Cu_oriented
 ----------------------------------------
 Symbolic Z-matrix:
 Charge =  0 Multiplicity = 1
 S                    -1.69604  -4.11872   0.52979 
 N                    -0.36616  -1.95663   0. 
 N                    -2.33362  -0.1851    0. 
 C                    -1.5385   -2.40524   0.3017 
 C                     0.60598  -3.02512  -0.27807 
 C                    -2.66792  -1.44893   0.34202 
 C                    -4.61345   0.43682   0.13159 
 C                    -3.28259   0.74909  -0.10161 
 H                    -5.30018   1.12485   0.01817 
 H                    -3.03261   1.64562  -0.35766 
 C                     0.66866  -3.20483  -1.80302 
 H                    -0.19372  -3.4614   -2.13696 
 H                     1.29805  -3.874    -2.0335 
 H                     0.91763  -2.38337  -2.22104 
 O                    -4.25902  -3.06056   1.02305 
 C                    -3.99664  -1.80928   0.63986 
 C                    -4.97488  -0.82878   0.50597 
 H                    -5.23321  -3.19883   1.53112 
 H                    -5.89264  -1.05      0.69342 
 C                     0.10878  -4.29209   0.41158 
 H                     0.50001  -4.3613    1.28951 
 O                     2.77824  -3.61139   0.38108 
 O                     2.2809   -1.43949   0.39104 
 C                     1.97654  -2.58088   0.21129 
 H                     3.59617  -3.41988   0.76635 
 H                     0.35007  -5.06339  -0.08411 
 
 ITRead=  0  0  0  0  0  0  0  0  0  0  0  0  0  0  0  0  0  0  0  0
 ITRead=  0  0  0  0  0  0
 MicOpt= -1 -1 -1 -1 -1 -1 -1 -1 -1 -1 -1 -1 -1 -1 -1 -1 -1 -1 -1 -1
 MicOpt= -1 -1 -1 -1 -1 -1
 NAtoms=     26 NQM=       26 NQMF=       0 NMMI=      0 NMMIF=      0
                NMic=       0 NMicF=      0.
                    Isotopes and Nuclear Properties:
 (Nuclear quadrupole moments (NQMom) in fm**2, nuclear magnetic moments (NMagM)
  in nuclear magnetons)

  Atom         1           2           3           4           5           6           7           8           9          10
 IAtWgt=          32          14          14          12          12          12          12          12           1           1
 AtmWgt=  31.9720718  14.0030740  14.0030740  12.0000000  12.0000000  12.0000000  12.0000000  12.0000000   1.0078250   1.0078250
 NucSpn=           0           2           2           0           0           0           0           0           1           1
 AtZEff=  -0.0000000  -0.0000000  -0.0000000  -0.0000000  -0.0000000  -0.0000000  -0.0000000  -0.0000000  -0.0000000  -0.0000000
 NQMom=    0.0000000   2.0440000   2.0440000   0.0000000   0.0000000   0.0000000   0.0000000   0.0000000   0.0000000   0.0000000
 NMagM=    0.0000000   0.4037610   0.4037610   0.0000000   0.0000000   0.0000000   0.0000000   0.0000000   2.7928460   2.7928460
 AtZNuc=  16.0000000   7.0000000   7.0000000   6.0000000   6.0000000   6.0000000   6.0000000   6.0000000   1.0000000   1.0000000

  Atom        11          12          13          14          15          16          17          18          19          20
 IAtWgt=          12           1           1           1          16          12          12           1           1          12
 AtmWgt=  12.0000000   1.0078250   1.0078250   1.0078250  15.9949146  12.0000000  12.0000000   1.0078250   1.0078250  12.0000000
 NucSpn=           0           1           1           1           0           0           0           1           1           0
 AtZEff=  -0.0000000  -0.0000000  -0.0000000  -0.0000000  -0.0000000  -0.0000000  -0.0000000  -0.0000000  -0.0000000  -0.0000000
 NQMom=    0.0000000   0.0000000   0.0000000   0.0000000   0.0000000   0.0000000   0.0000000   0.0000000   0.0000000   0.0000000
 NMagM=    0.0000000   2.7928460   2.7928460   2.7928460   0.0000000   0.0000000   0.0000000   2.7928460   2.7928460   0.0000000
 AtZNuc=   6.0000000   1.0000000   1.0000000   1.0000000   8.0000000   6.0000000   6.0000000   1.0000000   1.0000000   6.0000000

  Atom        21          22          23          24          25          26
 IAtWgt=           1          16          16          12           1           1
 AtmWgt=   1.0078250  15.9949146  15.9949146  12.0000000   1.0078250   1.0078250
 NucSpn=           1           0           0           0           1           1
 AtZEff=  -0.0000000  -0.0000000  -0.0000000  -0.0000000  -0.0000000  -0.0000000
 NQMom=    0.0000000   0.0000000   0.0000000   0.0000000   0.0000000   0.0000000
 NMagM=    2.7928460   0.0000000   0.0000000   0.0000000   2.7928460   2.7928460
 AtZNuc=   1.0000000   8.0000000   8.0000000   6.0000000   1.0000000   1.0000000
 Leave Link  101 at Sat Mar  4 11:34:08 2023, MaxMem=  1048576000 cpu:               0.1 elap:               0.1
 (Enter /ssoft/spack/external/gaussian/g16-C.01/avx2/g16/l103.exe)

 GradGradGradGradGradGradGradGradGradGradGradGradGradGradGradGradGradGrad
 Berny optimization.
 Initialization pass.
 Trust Radius=3.00D-01 FncErr=1.00D-07 GrdErr=1.00D-07 EigMax=2.50D+02 EigMin=1.00D-04
 Number of steps in this run=      2 maximum allowed number of steps=      2.
 GradGradGradGradGradGradGradGradGradGradGradGradGradGradGradGradGradGrad

 Leave Link  103 at Sat Mar  4 11:34:08 2023, MaxMem=  1048576000 cpu:               0.0 elap:               0.0
 (Enter /ssoft/spack/external/gaussian/g16-C.01/avx2/g16/l202.exe)
                          Input orientation:                          
 ---------------------------------------------------------------------
 Center     Atomic      Atomic             Coordinates (Angstroms)
 Number     Number       Type             X           Y           Z
 ---------------------------------------------------------------------
      1         16           0       -1.696041   -4.118717    0.529793
      2          7           0       -0.366160   -1.956626    0.000000
      3          7           0       -2.333624   -0.185095    0.000000
      4          6           0       -1.538504   -2.405240    0.301700
      5          6           0        0.605981   -3.025119   -0.278072
      6          6           0       -2.667919   -1.448925    0.342024
      7          6           0       -4.613445    0.436819    0.131592
      8          6           0       -3.282588    0.749089   -0.101610
      9          1           0       -5.300176    1.124851    0.018172
     10          1           0       -3.032607    1.645623   -0.357661
     11          6           0        0.668659   -3.204835   -1.803017
     12          1           0       -0.193722   -3.461401   -2.136965
     13          1           0        1.298053   -3.874003   -2.033505
     14          1           0        0.917627   -2.383367   -2.221040
     15          8           0       -4.259017   -3.060555    1.023050
     16          6           0       -3.996641   -1.809276    0.639865
     17          6           0       -4.974878   -0.828775    0.505967
     18          1           0       -5.233208   -3.198834    1.531116
     19          1           0       -5.892643   -1.049995    0.693419
     20          6           0        0.108780   -4.292090    0.411580
     21          1           0        0.500012   -4.361296    1.289512
     22          8           0        2.778244   -3.611386    0.381082
     23          8           0        2.280898   -1.439489    0.391043
     24          6           0        1.976545   -2.580881    0.211287
     25          1           0        3.596165   -3.419882    0.766352
     26          1           0        0.350071   -5.063390   -0.084113
 ---------------------------------------------------------------------
                    Distance matrix (angstroms):
                    1          2          3          4          5
     1  S    0.000000
     2  N    2.593048   0.000000
     3  N    4.020021   2.647496   0.000000
     4  C    1.735756   1.290995   2.377453   0.000000
     5  C    2.673557   1.471074   4.096869   2.306339   0.000000
     6  C    2.847383   2.381772   1.351296   1.480454   3.686099
     7  C    5.424271   4.877020   2.366787   4.190644   6.276563
     8  C    5.158617   3.979544   1.335498   3.626882   5.421877
     9  H    6.383301   5.817245   3.242949   5.166440   7.224451
    10  H    5.983443   4.496005   1.991991   4.367675   5.921274
    11  C    3.445141   2.424819   4.624219   3.152897   1.536778
    12  H    3.130595   2.619294   4.458697   2.978423   2.070108
    13  H    3.949048   3.252857   5.561678   3.956830   2.069085
    14  H    4.172503   2.600622   4.509551   3.520976   2.069806
    15  O    2.816355   4.173683   3.608607   2.889806   5.036108
    16  C    3.261655   3.689381   2.411020   2.551856   4.848197
    17  C    4.644895   4.771617   2.765240   3.786243   6.048523
    18  H    3.789509   5.251243   4.453597   3.973927   6.115510
    19  H    5.201470   5.643122   3.727666   4.576970   6.861269
    20  C    1.816979   2.418544   4.796054   2.507154   1.525792
    21  H    2.336379   2.862784   5.208933   2.992904   2.062503
    22  O    4.505411   3.573616   6.165702   4.482789   2.344551
    23  O    4.797245   2.725300   4.797940   3.940620   2.401517
    24  C    3.994280   2.433639   4.935786   3.520595   1.521600
    25  H    5.343386   4.292835   6.798054   5.254543   3.191843
    26  H    2.335779   3.189364   5.568398   3.283494   2.063409
                    6          7          8          9         10
     6  C    0.000000
     7  C    2.717606   0.000000
     8  C    2.325058   1.386751   0.000000
     9  H    3.695670   0.978698   2.055774   0.000000
    10  H    3.193553   2.049299   0.965311   2.356761   0.000000
    11  C    4.337877   6.701118   5.843000   7.595387   6.270197
    12  H    4.039443   6.314778   5.604640   7.194038   6.107936
    13  H    5.220448   7.629983   6.788775   8.528454   7.213136
    14  H    4.505399   6.639359   5.652085   7.482161   5.942162
    15  O    2.364898   3.626561   4.090435   4.428477   5.055547
    16  C    1.408568   2.384058   2.757696   3.270291   3.723002
    17  C    2.394478   1.368400   2.392206   2.039710   3.262042
    18  H    3.325181   3.944711   4.696468   4.581237   5.646139
    19  H    3.268251   2.040248   3.268204   2.353068   4.068283
    20  C    3.974730   6.688825   6.097394   7.665169   6.761396
    21  H    4.406294   7.107048   6.508403   8.084323   7.160701
    22  O    5.859902   8.431327   7.482006   9.371473   7.870697
    23  O    4.949069   7.149812   5.998746   8.011713   6.189653
    24  C    4.782202   7.248505   6.232582   8.168255   6.578650
    25  H    6.580537   9.092566   8.090174  10.017946   8.418038
    26  H    4.728024   7.411837   6.854300   8.380338   7.518523
                   11         12         13         14         15
    11  C    0.000000
    12  H    0.959712   0.000000
    13  H    0.947125   1.551237   0.000000
    14  H    0.954745   1.550588   1.549803   0.000000
    15  O    5.682382   5.164591   6.394158   6.146572   0.000000
    16  C    5.447962   4.990240   6.280429   5.715277   1.334680
    17  C    6.544202   6.064261   7.421050   6.676446   2.400140
    18  H    6.778534   6.238604   7.471262   7.250961   1.107384
    19  H    7.343447   6.804679   8.192511   7.526734   2.611463
    20  C    2.529828   2.697523   2.750928   3.350842   4.579108
    21  H    3.305992   3.609961   3.452067   4.050998   4.940778
    22  O    3.063645   3.898158   2.844321   3.426510   7.087918
    23  O    3.244944   4.074640   3.573692   3.093929   6.767406
    24  C    2.481392   3.316573   2.677985   2.660176   6.306447
    25  H    3.901050   4.774328   3.650581   4.144085   7.867585
    26  H    2.551540   2.660128   2.472538   3.474349   5.145955
                   16         17         18         19         20
    16  C    0.000000
    17  C    1.391495   0.000000
    18  H    2.062595   2.595158   0.000000
    19  H    2.043085   0.962480   2.398770   0.000000
    20  C    4.803224   6.151994   5.566454   6.826982   0.000000
    21  H    5.211021   6.562550   5.854870   7.223993   0.963648
    22  O    7.015243   8.238290   8.104082   9.046687   2.755054
    23  O    6.293342   7.282339   7.801080   8.188401   3.585505
    24  C    6.038046   7.174886   7.355566   8.031200   2.541042
    25  H    7.762780   8.957925   8.865188   9.780550   3.612266
    26  H    5.477893   6.829000   6.103978   7.462129   0.948070
                   21         22         23         24         25
    21  H    0.000000
    22  O    2.564751   0.000000
    23  O    3.537761   2.228136   0.000000
    24  C    2.551979   1.316622   1.194872   0.000000
    25  H    3.278127   0.924176   2.406811   1.906617   0.000000
    26  H    1.549924   2.867184   4.133585   2.982537   3.736514
                   26
    26  H    0.000000
 Stoichiometry    C10H10N2O3S
 Framework group  C1[X(C10H10N2O3S)]
 Deg. of freedom    72
 Full point group                 C1      NOp   1
 Largest Abelian subgroup         C1      NOp   1
 Largest concise Abelian subgroup C1      NOp   1
                         Standard orientation:                         
 ---------------------------------------------------------------------
 Center     Atomic      Atomic             Coordinates (Angstroms)
 Number     Number       Type             X           Y           Z
 ---------------------------------------------------------------------
      1         16           0        0.283642    1.914745   -0.015928
      2          7           0        0.746811   -0.636429    0.013759
      3          7           0       -1.733438   -1.562495    0.011639
      4          6           0       -0.192202    0.246163   -0.063392
      5          6           0        2.063017   -0.052928    0.315728
      6          6           0       -1.596171   -0.222448   -0.095286
      7          6           0       -4.084305   -1.299700    0.089377
      8          6           0       -2.952485   -2.100935    0.098596
      9          1           0       -4.968240   -1.707685    0.189664
     10          1           0       -3.037062   -3.058559    0.185935
     11          6           0        2.291327   -0.190912    1.829175
     12          1           0        1.610988    0.288760    2.306775
     13          1           0        3.138495    0.156860    2.070849
     14          1           0        2.244713   -1.109157    2.086451
     15          8           0       -2.516128    1.944596   -0.319652
     16          6           0       -2.712519    0.633995   -0.161138
     17          6           0       -3.973700    0.057540   -0.045469
     18          1           0       -3.401089    2.510375   -0.670420
     19          1           0       -4.753829    0.620362   -0.077086
     20          6           0        2.027050    1.411726   -0.110345
     21          1           0        2.355431    1.497876   -1.012210
     22          8           0        4.247406   -0.164797   -0.528577
     23          8           0        2.978650   -1.977525   -0.790990
     24          6           0        3.133505   -0.856315   -0.408074
     25          1           0        4.907295   -0.559616   -1.041184
     26          1           0        2.570880    1.942010    0.457004
 ---------------------------------------------------------------------
 Rotational constants (GHZ):           1.0168476           0.3010098           0.2499636
 Leave Link  202 at Sat Mar  4 11:34:08 2023, MaxMem=  1048576000 cpu:               0.0 elap:               0.0
 (Enter /ssoft/spack/external/gaussian/g16-C.01/avx2/g16/l301.exe)
 Standard basis: def2SVP (5D, 7F)
 Ernie: Thresh=  0.10000D-02 Tol=  0.10000D-05 Strict=F.
 There are   294 symmetry adapted cartesian basis functions of A   symmetry.
 There are   278 symmetry adapted basis functions of A   symmetry.
   278 basis functions,   482 primitive gaussians,   294 cartesian basis functions
    62 alpha electrons       62 beta electrons
       nuclear repulsion energy      1217.6513463908 Hartrees.
 IExCor= 1009 DFT=T Ex+Corr=PBE1PBE ExCW=0 ScaHFX=  0.250000
 ScaDFX=  0.750000  0.750000  1.000000  1.000000 ScalE2=  1.000000  1.000000
 IRadAn=      5 IRanWt=     -1 IRanGd=            0 ICorTp=0 IEmpDi=141
 NAtoms=   26 NActive=   26 NUniq=   26 SFac= 1.00D+00 NAtFMM=   60 NAOKFM=F Big=F
 Integral buffers will be    131072 words long.
 Raffenetti 2 integral format.
 Two-electron integral symmetry is turned on.
 R6Disp:  Grimme-D3(BJ) Dispersion energy=       -0.0301826276 Hartrees.
 Nuclear repulsion after empirical dispersion term =     1217.6211637632 Hartrees.
 Leave Link  301 at Sat Mar  4 11:34:08 2023, MaxMem=  1048576000 cpu:               0.1 elap:               0.0
 (Enter /ssoft/spack/external/gaussian/g16-C.01/avx2/g16/l302.exe)
 NPDir=0 NMtPBC=     1 NCelOv=     1 NCel=       1 NClECP=     1 NCelD=      1
         NCelK=      1 NCelE2=     1 NClLst=     1 CellRange=     0.0.
 One-electron integrals computed using PRISM.
 One-electron integral symmetry used in STVInt
   1 Symmetry operations used in ECPInt.
 ECPInt:  NShTT=    8256 NPrTT=   31124 LenC2=    7623 LenP2D=   20405.
 LDataN:  DoStor=T MaxTD1= 4 Len=   56
 NBasis=   278 RedAO= T EigKep=  4.83D-04  NBF=   278
 NBsUse=   278 1.00D-06 EigRej= -1.00D+00 NBFU=   278
 Precomputing XC quadrature grid using
 IXCGrd= 4 IRadAn=           5 IRanWt=          -1 IRanGd=           0 AccXCQ= 0.00D+00.
 Generated NRdTot=       0 NPtTot=           0 NUsed=           0 NTot=          32
 NSgBfM=   292   292   292   292   292 MxSgAt=    26 MxSgA2=    26.
 Leave Link  302 at Sat Mar  4 11:34:09 2023, MaxMem=  1048576000 cpu:               0.7 elap:               0.7
 (Enter /ssoft/spack/external/gaussian/g16-C.01/avx2/g16/l303.exe)
 DipDrv:  MaxL=1.
 Leave Link  303 at Sat Mar  4 11:34:09 2023, MaxMem=  1048576000 cpu:               0.1 elap:               0.0
 (Enter /ssoft/spack/external/gaussian/g16-C.01/avx2/g16/l401.exe)
 ExpMin= 1.22D-01 ExpMax= 9.18D+03 ExpMxC= 1.38D+03 IAcc=3 IRadAn=         5 AccDes= 0.00D+00
 Harris functional with IExCor= 1009 and IRadAn=       5 diagonalized for initial guess.
 HarFok:  IExCor= 1009 AccDes= 0.00D+00 IRadAn=         5 IDoV= 1 UseB2=F ITyADJ=14
 ICtDFT=  3500011 ScaDFX=  1.000000  1.000000  1.000000  1.000000
 FoFCou: FMM=F IPFlag=           0 FMFlag=      100000 FMFlg1=           0
         NFxFlg=           0 DoJE=T BraDBF=F KetDBF=T FulRan=T
         wScrn=  0.000000 ICntrl=       500 IOpCl=  0 I1Cent=   200000004 NGrid=           0
         NMat0=    1 NMatS0=      1 NMatT0=    0 NMatD0=    1 NMtDS0=    0 NMtDT0=    0
 Petite list used in FoFCou.
 Harris En= -1118.89726073766    
 JPrj=0 DoOrth=F DoCkMO=F.
 Leave Link  401 at Sat Mar  4 11:34:14 2023, MaxMem=  1048576000 cpu:               5.2 elap:               5.2
 (Enter /ssoft/spack/external/gaussian/g16-C.01/avx2/g16/l502.exe)
 Keep R1 ints in memory in canonical form, NReq=764840858.
 FoFCou: FMM=F IPFlag=           0 FMFlag=           0 FMFlg1=           0
         NFxFlg=           0 DoJE=F BraDBF=F KetDBF=F FulRan=T
         wScrn=  0.000000 ICntrl=       600 IOpCl=  0 I1Cent=           0 NGrid=           0
         NMat0=    1 NMatS0=  38781 NMatT0=    0 NMatD0=    1 NMtDS0=    0 NMtDT0=    0
 Symmetry not used in FoFCou.
 Two-electron integral symmetry not used.
 Closed shell SCF:
 Using DIIS extrapolation, IDIIS=  1040.
 NGot=  1048576000 LenX=   296395253 LenY=   296308376
 Requested convergence on RMS density matrix=1.00D-08 within 128 cycles.
 Requested convergence on MAX density matrix=1.00D-06.
 Requested convergence on             energy=1.00D-06.
 No special actions if energy rises.
 Integral accuracy reduced to 1.0D-05 until final iterations.

 Cycle   1  Pass 0  IDiag  1:
 E= -1118.31001360229    
 DIIS: error= 2.79D-02 at cycle   1 NSaved=   1.
 NSaved= 1 IEnMin= 1 EnMin= -1118.31001360229     IErMin= 1 ErrMin= 2.79D-02
 ErrMax= 2.79D-02  0.00D+00 EMaxC= 1.00D-01 BMatC= 4.31D-01 BMatP= 4.31D-01
 IDIUse=3 WtCom= 7.21D-01 WtEn= 2.79D-01
 Coeff-Com:  0.100D+01
 Coeff-En:   0.100D+01
 Coeff:      0.100D+01
 Gap=     0.281 Goal=   None    Shift=    0.000
 GapD=    0.281 DampG=1.000 DampE=0.500 DampFc=0.5000 IDamp=-1.
 Damping current iteration by 5.00D-01
 RMSDP=7.99D-03 MaxDP=3.41D-01              OVMax= 3.21D-01

 Cycle   2  Pass 0  IDiag  1:
 E= -1118.43227828635     Delta-E=       -0.122264684055 Rises=F Damp=T
 DIIS: error= 6.86D-03 at cycle   2 NSaved=   2.
 NSaved= 2 IEnMin= 2 EnMin= -1118.43227828635     IErMin= 2 ErrMin= 6.86D-03
 ErrMax= 6.86D-03  0.00D+00 EMaxC= 1.00D-01 BMatC= 6.36D-02 BMatP= 4.31D-01
 IDIUse=3 WtCom= 9.31D-01 WtEn= 6.86D-02
 Coeff-Com:  0.191D+00 0.809D+00
 Coeff-En:   0.325D+00 0.675D+00
 Coeff:      0.200D+00 0.800D+00
 Gap=     0.279 Goal=   None    Shift=    0.000
 RMSDP=3.18D-03 MaxDP=8.43D-02 DE=-1.22D-01 OVMax= 3.17D-01

 Cycle   3  Pass 0  IDiag  1:
 E= -1118.65596953381     Delta-E=       -0.223691247465 Rises=F Damp=F
 DIIS: error= 9.36D-03 at cycle   3 NSaved=   3.
 NSaved= 3 IEnMin= 3 EnMin= -1118.65596953381     IErMin= 2 ErrMin= 6.86D-03
 ErrMax= 9.36D-03  0.00D+00 EMaxC= 1.00D-01 BMatC= 8.33D-02 BMatP= 6.36D-02
 IDIUse=3 WtCom= 9.37D-02 WtEn= 9.06D-01
 Coeff-Com:  0.523D-01 0.525D+00 0.423D+00
 Coeff-En:   0.000D+00 0.000D+00 0.100D+01
 Coeff:      0.490D-02 0.491D-01 0.946D+00
 Gap=     0.171 Goal=   None    Shift=    0.000
 RMSDP=4.42D-03 MaxDP=1.71D-01 DE=-2.24D-01 OVMax= 3.15D-01

 Cycle   4  Pass 0  IDiag  1:
 E= -1118.39671949761     Delta-E=        0.259250036201 Rises=F Damp=F
 DIIS: error= 2.14D-02 at cycle   4 NSaved=   4.
 NSaved= 4 IEnMin= 3 EnMin= -1118.65596953381     IErMin= 2 ErrMin= 6.86D-03
 ErrMax= 2.14D-02  0.00D+00 EMaxC= 1.00D-01 BMatC= 3.56D-01 BMatP= 6.36D-02
 IDIUse=2 WtCom= 0.00D+00 WtEn= 1.00D+00
 Coeff-En:   0.000D+00 0.000D+00 0.756D+00 0.244D+00
 Coeff:      0.000D+00 0.000D+00 0.756D+00 0.244D+00
 Gap=     0.179 Goal=   None    Shift=    0.000
 RMSDP=2.65D-03 MaxDP=8.15D-02 DE= 2.59D-01 OVMax= 1.67D-01

 Cycle   5  Pass 0  IDiag  1:
 E= -1118.71353426241     Delta-E=       -0.316814764796 Rises=F Damp=F
 DIIS: error= 4.97D-03 at cycle   5 NSaved=   5.
 NSaved= 5 IEnMin= 5 EnMin= -1118.71353426241     IErMin= 5 ErrMin= 4.97D-03
 ErrMax= 4.97D-03  0.00D+00 EMaxC= 1.00D-01 BMatC= 2.26D-02 BMatP= 6.36D-02
 IDIUse=3 WtCom= 9.50D-01 WtEn= 4.97D-02
 Coeff-Com: -0.393D-02 0.144D-01 0.292D+00-0.553D-01 0.753D+00
 Coeff-En:   0.000D+00 0.000D+00 0.257D+00 0.000D+00 0.743D+00
 Coeff:     -0.374D-02 0.136D-01 0.290D+00-0.526D-01 0.753D+00
 Gap=     0.178 Goal=   None    Shift=    0.000
 RMSDP=6.53D-04 MaxDP=2.56D-02 DE=-3.17D-01 OVMax= 4.37D-02

 Cycle   6  Pass 0  IDiag  1:
 E= -1118.73351856203     Delta-E=       -0.019984299621 Rises=F Damp=F
 DIIS: error= 1.14D-03 at cycle   6 NSaved=   6.
 NSaved= 6 IEnMin= 6 EnMin= -1118.73351856203     IErMin= 6 ErrMin= 1.14D-03
 ErrMax= 1.14D-03  0.00D+00 EMaxC= 1.00D-01 BMatC= 4.04D-04 BMatP= 2.26D-02
 IDIUse=3 WtCom= 9.89D-01 WtEn= 1.14D-02
 Coeff-Com: -0.611D-02 0.144D-01 0.145D+00-0.639D-01 0.504D+00 0.407D+00
 Coeff-En:   0.000D+00 0.000D+00 0.000D+00 0.000D+00 0.000D+00 0.100D+01
 Coeff:     -0.604D-02 0.142D-01 0.144D+00-0.632D-01 0.498D+00 0.413D+00
 Gap=     0.176 Goal=   None    Shift=    0.000
 RMSDP=7.88D-05 MaxDP=3.64D-03 DE=-2.00D-02 OVMax= 6.70D-03

 Cycle   7  Pass 0  IDiag  1:
 E= -1118.73385470710     Delta-E=       -0.000336145069 Rises=F Damp=F
 DIIS: error= 1.90D-04 at cycle   7 NSaved=   7.
 NSaved= 7 IEnMin= 7 EnMin= -1118.73385470710     IErMin= 7 ErrMin= 1.90D-04
 ErrMax= 1.90D-04  0.00D+00 EMaxC= 1.00D-01 BMatC= 1.21D-05 BMatP= 4.04D-04
 IDIUse=3 WtCom= 9.98D-01 WtEn= 1.90D-03
 Coeff-Com: -0.179D-02 0.380D-02 0.397D-01-0.228D-01 0.147D+00 0.155D+00
 Coeff-Com:  0.678D+00
 Coeff-En:   0.000D+00 0.000D+00 0.000D+00 0.000D+00 0.000D+00 0.000D+00
 Coeff-En:   0.100D+01
 Coeff:     -0.178D-02 0.380D-02 0.397D-01-0.227D-01 0.147D+00 0.155D+00
 Coeff:      0.679D+00
 Gap=     0.176 Goal=   None    Shift=    0.000
 RMSDP=1.68D-05 MaxDP=4.96D-04 DE=-3.36D-04 OVMax= 9.37D-04

 Cycle   8  Pass 0  IDiag  1:
 E= -1118.73386346305     Delta-E=       -0.000008755951 Rises=F Damp=F
 DIIS: error= 5.20D-05 at cycle   8 NSaved=   8.
 NSaved= 8 IEnMin= 8 EnMin= -1118.73386346305     IErMin= 8 ErrMin= 5.20D-05
 ErrMax= 5.20D-05  0.00D+00 EMaxC= 1.00D-01 BMatC= 2.16D-06 BMatP= 1.21D-05
 IDIUse=1 WtCom= 1.00D+00 WtEn= 0.00D+00
 Coeff-Com:  0.573D-04-0.831D-03 0.524D-02-0.349D-02 0.157D-01 0.225D-01
 Coeff-Com:  0.352D+00 0.609D+00
 Coeff:      0.573D-04-0.831D-03 0.524D-02-0.349D-02 0.157D-01 0.225D-01
 Coeff:      0.352D+00 0.609D+00
 Gap=     0.176 Goal=   None    Shift=    0.000
 RMSDP=7.17D-06 MaxDP=1.93D-04 DE=-8.76D-06 OVMax= 3.90D-04

 Initial convergence to 1.0D-05 achieved.  Increase integral accuracy.
 Cycle   9  Pass 1  IDiag  1:
 E= -1118.73384667093     Delta-E=        0.000016792119 Rises=F Damp=F
 DIIS: error= 1.84D-05 at cycle   1 NSaved=   1.
 NSaved= 1 IEnMin= 1 EnMin= -1118.73384667093     IErMin= 1 ErrMin= 1.84D-05
 ErrMax= 1.84D-05  0.00D+00 EMaxC= 1.00D-01 BMatC= 2.40D-07 BMatP= 2.40D-07
 IDIUse=1 WtCom= 1.00D+00 WtEn= 0.00D+00
 Coeff-Com:  0.100D+01
 Coeff:      0.100D+01
 Gap=     0.176 Goal=   None    Shift=    0.000
 RMSDP=7.17D-06 MaxDP=1.93D-04 DE= 1.68D-05 OVMax= 4.62D-04

 Cycle  10  Pass 1  IDiag  1:
 E= -1118.73384603470     Delta-E=        0.000000636231 Rises=F Damp=F
 DIIS: error= 3.80D-05 at cycle   2 NSaved=   2.
 NSaved= 2 IEnMin= 1 EnMin= -1118.73384667093     IErMin= 1 ErrMin= 1.84D-05
 ErrMax= 3.80D-05  0.00D+00 EMaxC= 1.00D-01 BMatC= 8.82D-07 BMatP= 2.40D-07
 IDIUse=1 WtCom= 1.00D+00 WtEn= 0.00D+00
 Coeff-Com:  0.660D+00 0.340D+00
 Coeff:      0.660D+00 0.340D+00
 Gap=     0.176 Goal=   None    Shift=    0.000
 RMSDP=4.48D-06 MaxDP=1.33D-04 DE= 6.36D-07 OVMax= 2.96D-04

 Cycle  11  Pass 1  IDiag  1:
 E= -1118.73384691681     Delta-E=       -0.000000882111 Rises=F Damp=F
 DIIS: error= 3.14D-06 at cycle   3 NSaved=   3.
 NSaved= 3 IEnMin= 3 EnMin= -1118.73384691681     IErMin= 3 ErrMin= 3.14D-06
 ErrMax= 3.14D-06  0.00D+00 EMaxC= 1.00D-01 BMatC= 7.22D-09 BMatP= 2.40D-07
 IDIUse=1 WtCom= 1.00D+00 WtEn= 0.00D+00
 Coeff-Com:  0.282D+00 0.167D+00 0.551D+00
 Coeff:      0.282D+00 0.167D+00 0.551D+00
 Gap=     0.176 Goal=   None    Shift=    0.000
 RMSDP=6.39D-07 MaxDP=1.70D-05 DE=-8.82D-07 OVMax= 2.95D-05

 Cycle  12  Pass 1  IDiag  1:
 E= -1118.73384692255     Delta-E=       -0.000000005745 Rises=F Damp=F
 DIIS: error= 1.36D-06 at cycle   4 NSaved=   4.
 NSaved= 4 IEnMin= 4 EnMin= -1118.73384692255     IErMin= 4 ErrMin= 1.36D-06
 ErrMax= 1.36D-06  0.00D+00 EMaxC= 1.00D-01 BMatC= 1.48D-09 BMatP= 7.22D-09
 IDIUse=1 WtCom= 1.00D+00 WtEn= 0.00D+00
 Coeff-Com:  0.407D-01 0.369D-01 0.319D+00 0.603D+00
 Coeff:      0.407D-01 0.369D-01 0.319D+00 0.603D+00
 Gap=     0.176 Goal=   None    Shift=    0.000
 RMSDP=2.52D-07 MaxDP=1.12D-05 DE=-5.75D-09 OVMax= 2.44D-05

 Cycle  13  Pass 1  IDiag  1:
 E= -1118.73384692377     Delta-E=       -0.000000001214 Rises=F Damp=F
 DIIS: error= 6.55D-07 at cycle   5 NSaved=   5.
 NSaved= 5 IEnMin= 5 EnMin= -1118.73384692377     IErMin= 5 ErrMin= 6.55D-07
 ErrMax= 6.55D-07  0.00D+00 EMaxC= 1.00D-01 BMatC= 4.11D-10 BMatP= 1.48D-09
 IDIUse=1 WtCom= 1.00D+00 WtEn= 0.00D+00
 Coeff-Com: -0.205D-01-0.286D-02 0.111D+00 0.406D+00 0.506D+00
 Coeff:     -0.205D-01-0.286D-02 0.111D+00 0.406D+00 0.506D+00
 Gap=     0.176 Goal=   None    Shift=    0.000
 RMSDP=1.22D-07 MaxDP=3.31D-06 DE=-1.21D-09 OVMax= 5.54D-06

 Cycle  14  Pass 1  IDiag  1:
 E= -1118.73384692417     Delta-E=       -0.000000000398 Rises=F Damp=F
 DIIS: error= 1.55D-07 at cycle   6 NSaved=   6.
 NSaved= 6 IEnMin= 6 EnMin= -1118.73384692417     IErMin= 6 ErrMin= 1.55D-07
 ErrMax= 1.55D-07  0.00D+00 EMaxC= 1.00D-01 BMatC= 2.57D-11 BMatP= 4.11D-10
 IDIUse=1 WtCom= 1.00D+00 WtEn= 0.00D+00
 Coeff-Com: -0.148D-01-0.463D-02 0.294D-01 0.175D+00 0.272D+00 0.544D+00
 Coeff:     -0.148D-01-0.463D-02 0.294D-01 0.175D+00 0.272D+00 0.544D+00
 Gap=     0.176 Goal=   None    Shift=    0.000
 RMSDP=2.74D-08 MaxDP=9.84D-07 DE=-3.98D-10 OVMax= 2.00D-06

 Cycle  15  Pass 1  IDiag  1:
 E= -1118.73384692419     Delta-E=       -0.000000000024 Rises=F Damp=F
 DIIS: error= 6.34D-08 at cycle   7 NSaved=   7.
 NSaved= 7 IEnMin= 7 EnMin= -1118.73384692419     IErMin= 7 ErrMin= 6.34D-08
 ErrMax= 6.34D-08  0.00D+00 EMaxC= 1.00D-01 BMatC= 2.67D-12 BMatP= 2.57D-11
 IDIUse=1 WtCom= 1.00D+00 WtEn= 0.00D+00
 Coeff-Com: -0.477D-02-0.177D-02-0.324D-03 0.394D-01 0.605D-01 0.265D+00
 Coeff-Com:  0.642D+00
 Coeff:     -0.477D-02-0.177D-02-0.324D-03 0.394D-01 0.605D-01 0.265D+00
 Coeff:      0.642D+00
 Gap=     0.176 Goal=   None    Shift=    0.000
 RMSDP=8.95D-09 MaxDP=2.76D-07 DE=-2.36D-11 OVMax= 5.36D-07

 SCF Done:  E(RPBE1PBE) =  -1118.73384692     A.U. after   15 cycles
            NFock= 15  Conv=0.89D-08     -V/T= 2.0046
 KE= 1.113559380314D+03 PE=-5.065378165731D+03 EE= 1.615463774730D+03
 Leave Link  502 at Sat Mar  4 11:35:53 2023, MaxMem=  1048576000 cpu:              98.9 elap:              99.3
 (Enter /ssoft/spack/external/gaussian/g16-C.01/avx2/g16/l801.exe)
 DoSCS=F DFT=T ScalE2(SS,OS)=  1.000000  1.000000
 Range of M.O.s used for correlation:     1   278
 NBasis=   278 NAE=    62 NBE=    62 NFC=     0 NFV=     0
 NROrb=    278 NOA=    62 NOB=    62 NVA=   216 NVB=   216
 Leave Link  801 at Sat Mar  4 11:35:54 2023, MaxMem=  1048576000 cpu:               0.0 elap:               0.0
 (Enter /ssoft/spack/external/gaussian/g16-C.01/avx2/g16/l1101.exe)
 Using compressed storage, NAtomX=    26.
 Will process     27 centers per pass.
   1 Symmetry operations used in ECPInt.
 ECPInt:  NShTT=    8256 NPrTT=   31124 LenC2=    7623 LenP2D=   20405.
 LDataN:  DoStor=T MaxTD1= 5 Len=  102
 R6Disp: Adding Grimme-D3(BJ) dispersion energy 1st derivatives to the gradient.
 Leave Link 1101 at Sat Mar  4 11:35:54 2023, MaxMem=  1048576000 cpu:               0.3 elap:               0.4
 (Enter /ssoft/spack/external/gaussian/g16-C.01/avx2/g16/l1102.exe)
 Symmetrizing basis deriv contribution to polar:
 IMax=3 JMax=2 DiffMx= 0.00D+00
 Leave Link 1102 at Sat Mar  4 11:35:54 2023, MaxMem=  1048576000 cpu:               0.0 elap:               0.0
 (Enter /ssoft/spack/external/gaussian/g16-C.01/avx2/g16/l1110.exe)
 Forming Gx(P) for the SCF density, NAtomX=    26.
 Integral derivatives from FoFJK, PRISM(SPDF).
 Do as many integral derivatives as possible in FoFJK.
 G2DrvN: MDV=    1048573186.
 G2DrvN: will do    27 centers at a time, making    1 passes.
 Calling FoFCou, ICntrl=  3107 FMM=F I1Cent=   0 AccDes= 0.00D+00.
 FoFJK:  IHMeth= 1 ICntrl=    3107 DoSepK=F KAlg= 0 I1Cent=           0 FoldK=F
 IRaf=         0 NMat=       1 IRICut=       1 DoRegI=T DoRafI=F ISym2E= 0 IDoP0=0 IntGTp=1.
 FoFCou: FMM=F IPFlag=           0 FMFlag=      100000 FMFlg1=           0
         NFxFlg=           0 DoJE=F BraDBF=F KetDBF=F FulRan=T
         wScrn=  0.000000 ICntrl=      3107 IOpCl=  0 I1Cent=           0 NGrid=           0
         NMat0=    1 NMatS0=      1 NMatT0=    0 NMatD0=    1 NMtDS0=    0 NMtDT0=    0
 Symmetry not used in FoFCou.
 End of G2Drv F.D. properties file   721 does not exist.
 End of G2Drv F.D. properties file   722 does not exist.
 End of G2Drv F.D. properties file   788 does not exist.
 Leave Link 1110 at Sat Mar  4 11:41:37 2023, MaxMem=  1048576000 cpu:             341.5 elap:             342.7
 (Enter /ssoft/spack/external/gaussian/g16-C.01/avx2/g16/l1002.exe)
 Minotr:  Closed shell wavefunction.
          IDoAtm=11111111111111111111111111
          Direct CPHF calculation.
          Differentiating once with respect to electric field.
                with respect to dipole field.
          Differentiating once with respect to nuclear coordinates.
          Requested convergence is 1.0D-08 RMS, and 1.0D-07 maximum.
          Secondary convergence is 1.0D-12 RMS, and 1.0D-12 maximum.
          NewPWx=T KeepS1=F KeepF1=F KeepIn=T MapXYZ=F SortEE=F KeepMc=T.
         7840 words used for storage of precomputed grid.
 Keep R1 ints in memory in canonical form, NReq=764851920.
 FoFCou: FMM=F IPFlag=           0 FMFlag=           0 FMFlg1=           0
         NFxFlg=           0 DoJE=F BraDBF=F KetDBF=F FulRan=T
         wScrn=  0.000000 ICntrl=       600 IOpCl=  0 I1Cent=           0 NGrid=           0
         NMat0=    1 NMatS0=  38781 NMatT0=    0 NMatD0=    1 NMtDS0=    0 NMtDT0=    0
 Symmetry not used in FoFCou.
 Two-electron integral symmetry not used.
          MDV=    1048576000 using IRadAn=       1.
          Solving linear equations simultaneously, MaxMat=       0.
          There are    81 degrees of freedom in the 1st order CPHF.  IDoFFX=6 NUNeed=     3.
     78 vectors produced by pass  0 Test12= 1.65D-14 1.23D-09 XBig12= 1.88D+02 7.45D+00.
 AX will form    78 AO Fock derivatives at one time.
     78 vectors produced by pass  1 Test12= 1.65D-14 1.23D-09 XBig12= 4.67D+01 1.20D+00.
     78 vectors produced by pass  2 Test12= 1.65D-14 1.23D-09 XBig12= 4.98D-01 8.60D-02.
     78 vectors produced by pass  3 Test12= 1.65D-14 1.23D-09 XBig12= 3.42D-03 4.82D-03.
     78 vectors produced by pass  4 Test12= 1.65D-14 1.23D-09 XBig12= 8.68D-06 2.52D-04.
     77 vectors produced by pass  5 Test12= 1.65D-14 1.23D-09 XBig12= 1.32D-08 1.13D-05.
     27 vectors produced by pass  6 Test12= 1.65D-14 1.23D-09 XBig12= 1.84D-11 4.24D-07.
      3 vectors produced by pass  7 Test12= 1.65D-14 1.23D-09 XBig12= 2.17D-14 1.61D-08.
 InvSVY:  IOpt=1 It=  1 EMax= 7.11D-15
 Solved reduced A of dimension   497 with    81 vectors.
 FullF1:  Do perturbations      1 to       3.
 Isotropic polarizability for W=    0.000000      135.97 Bohr**3.
 End of Minotr F.D. properties file   721 does not exist.
 End of Minotr F.D. properties file   722 does not exist.
 End of Minotr F.D. properties file   788 does not exist.
 Leave Link 1002 at Sat Mar  4 11:47:28 2023, MaxMem=  1048576000 cpu:             349.6 elap:             351.4
 (Enter /ssoft/spack/external/gaussian/g16-C.01/avx2/g16/l601.exe)
 Copying SCF densities to generalized density rwf, IOpCl= 0 IROHF=0.

 **********************************************************************

            Population analysis using the SCF Density.

 **********************************************************************

 Orbital symmetries:
       Occupied  (A) (A) (A) (A) (A) (A) (A) (A) (A) (A) (A) (A)
                 (A) (A) (A) (A) (A) (A) (A) (A) (A) (A) (A) (A)
                 (A) (A) (A) (A) (A) (A) (A) (A) (A) (A) (A) (A)
                 (A) (A) (A) (A) (A) (A) (A) (A) (A) (A) (A) (A)
                 (A) (A) (A) (A) (A) (A) (A) (A) (A) (A) (A) (A)
                 (A) (A)
       Virtual   (A) (A) (A) (A) (A) (A) (A) (A) (A) (A) (A) (A)
                 (A) (A) (A) (A) (A) (A) (A) (A) (A) (A) (A) (A)
                 (A) (A) (A) (A) (A) (A) (A) (A) (A) (A) (A) (A)
                 (A) (A) (A) (A) (A) (A) (A) (A) (A) (A) (A) (A)
                 (A) (A) (A) (A) (A) (A) (A) (A) (A) (A) (A) (A)
                 (A) (A) (A) (A) (A) (A) (A) (A) (A) (A) (A) (A)
                 (A) (A) (A) (A) (A) (A) (A) (A) (A) (A) (A) (A)
                 (A) (A) (A) (A) (A) (A) (A) (A) (A) (A) (A) (A)
                 (A) (A) (A) (A) (A) (A) (A) (A) (A) (A) (A) (A)
                 (A) (A) (A) (A) (A) (A) (A) (A) (A) (A) (A) (A)
                 (A) (A) (A) (A) (A) (A) (A) (A) (A) (A) (A) (A)
                 (A) (A) (A) (A) (A) (A) (A) (A) (A) (A) (A) (A)
                 (A) (A) (A) (A) (A) (A) (A) (A) (A) (A) (A) (A)
                 (A) (A) (A) (A) (A) (A) (A) (A) (A) (A) (A) (A)
                 (A) (A) (A) (A) (A) (A) (A) (A) (A) (A) (A) (A)
                 (A) (A) (A) (A) (A) (A) (A) (A) (A) (A) (A) (A)
                 (A) (A) (A) (A) (A) (A) (A) (A) (A) (A) (A) (A)
                 (A) (A) (A) (A) (A) (A) (A) (A) (A) (A) (A) (A)
 The electronic state is 1-A.
 Alpha  occ. eigenvalues --  -89.00474 -19.27098 -19.25927 -19.18699 -14.38820
 Alpha  occ. eigenvalues --  -14.36583 -10.35313 -10.31630 -10.29208 -10.28107
 Alpha  occ. eigenvalues --  -10.27792 -10.25329 -10.24519 -10.23988 -10.23473
 Alpha  occ. eigenvalues --  -10.18788  -8.00686  -5.94903  -5.94503  -5.93947
 Alpha  occ. eigenvalues --   -1.13895  -1.09038  -1.03537  -0.97339  -0.95041
 Alpha  occ. eigenvalues --   -0.83736  -0.82223  -0.80167  -0.78313  -0.72977
 Alpha  occ. eigenvalues --   -0.69818  -0.67299  -0.66692  -0.62345  -0.58714
 Alpha  occ. eigenvalues --   -0.57352  -0.53242  -0.52431  -0.51541  -0.50392
 Alpha  occ. eigenvalues --   -0.48793  -0.47546  -0.46464  -0.46008  -0.45769
 Alpha  occ. eigenvalues --   -0.44216  -0.43325  -0.42011  -0.41372  -0.40610
 Alpha  occ. eigenvalues --   -0.39749  -0.38653  -0.37766  -0.35580  -0.34743
 Alpha  occ. eigenvalues --   -0.33310  -0.29687  -0.27847  -0.26951  -0.25550
 Alpha  occ. eigenvalues --   -0.24891  -0.22700
 Alpha virt. eigenvalues --   -0.05098  -0.01407   0.00525   0.02754   0.04664
 Alpha virt. eigenvalues --    0.05648   0.07481   0.09673   0.10538   0.12780
 Alpha virt. eigenvalues --    0.14121   0.14497   0.15577   0.16744   0.17231
 Alpha virt. eigenvalues --    0.18267   0.19067   0.19656   0.21070   0.22619
 Alpha virt. eigenvalues --    0.24421   0.25629   0.26828   0.28804   0.29236
 Alpha virt. eigenvalues --    0.29889   0.32722   0.33720   0.35741   0.36634
 Alpha virt. eigenvalues --    0.40372   0.41111   0.43178   0.43888   0.44914
 Alpha virt. eigenvalues --    0.45643   0.46613   0.47079   0.47530   0.48959
 Alpha virt. eigenvalues --    0.50227   0.51690   0.51924   0.53311   0.55161
 Alpha virt. eigenvalues --    0.55270   0.56079   0.56924   0.58960   0.59728
 Alpha virt. eigenvalues --    0.60890   0.61629   0.62634   0.63677   0.64981
 Alpha virt. eigenvalues --    0.65928   0.67281   0.67918   0.68480   0.69829
 Alpha virt. eigenvalues --    0.70500   0.71276   0.71660   0.72199   0.73500
 Alpha virt. eigenvalues --    0.74031   0.74631   0.75345   0.75777   0.76222
 Alpha virt. eigenvalues --    0.77507   0.78187   0.79496   0.80091   0.81342
 Alpha virt. eigenvalues --    0.82143   0.83271   0.83975   0.85199   0.89035
 Alpha virt. eigenvalues --    0.89501   0.90554   0.91106   0.93465   0.95688
 Alpha virt. eigenvalues --    0.97799   0.98990   0.99579   1.02176   1.02869
 Alpha virt. eigenvalues --    1.03968   1.06575   1.07396   1.10676   1.12719
 Alpha virt. eigenvalues --    1.14255   1.15137   1.17284   1.18856   1.20571
 Alpha virt. eigenvalues --    1.21056   1.22041   1.24814   1.26363   1.27325
 Alpha virt. eigenvalues --    1.28742   1.31737   1.33336   1.34373   1.35174
 Alpha virt. eigenvalues --    1.39068   1.40253   1.42999   1.46458   1.46663
 Alpha virt. eigenvalues --    1.48898   1.49033   1.52137   1.54035   1.56662
 Alpha virt. eigenvalues --    1.58997   1.61033   1.64760   1.66669   1.67218
 Alpha virt. eigenvalues --    1.68215   1.69640   1.72337   1.73777   1.75226
 Alpha virt. eigenvalues --    1.76232   1.76419   1.79955   1.81126   1.81567
 Alpha virt. eigenvalues --    1.82868   1.84322   1.85549   1.87304   1.88280
 Alpha virt. eigenvalues --    1.89447   1.92625   1.92738   1.93387   1.95568
 Alpha virt. eigenvalues --    1.97185   1.99161   2.00140   2.01711   2.03796
 Alpha virt. eigenvalues --    2.05001   2.06335   2.08981   2.11222   2.14836
 Alpha virt. eigenvalues --    2.16370   2.17802   2.18636   2.20251   2.22831
 Alpha virt. eigenvalues --    2.23817   2.25721   2.27509   2.28927   2.30805
 Alpha virt. eigenvalues --    2.33183   2.34852   2.39364   2.41858   2.42595
 Alpha virt. eigenvalues --    2.46060   2.47203   2.52011   2.54156   2.55379
 Alpha virt. eigenvalues --    2.56811   2.61390   2.62570   2.63935   2.65565
 Alpha virt. eigenvalues --    2.69094   2.70780   2.72218   2.74884   2.77402
 Alpha virt. eigenvalues --    2.78477   2.80949   2.83823   2.84760   2.86773
 Alpha virt. eigenvalues --    2.91435   2.94493   2.98011   2.99377   3.06933
 Alpha virt. eigenvalues --    3.08385   3.09478   3.14007   3.18622   3.18760
 Alpha virt. eigenvalues --    3.22795   3.23198   3.24757   3.26680   3.28138
 Alpha virt. eigenvalues --    3.29265   3.29985   3.33963   3.36592   3.42881
 Alpha virt. eigenvalues --    3.49502   3.60271   3.61936   3.72607   3.82113
 Alpha virt. eigenvalues --    3.84895
     Molecular Orbital Coefficients:
                          58        59        60        61        62
                           O         O         O         O         O
     Eigenvalues --    -0.27847  -0.26951  -0.25550  -0.24891  -0.22700
   1 1   S  1S          0.00314  -0.00041   0.00016   0.00057   0.00115
   2        2S          0.02053  -0.00223   0.00111   0.00307   0.00780
   3        3S         -0.03385  -0.00529  -0.00330   0.00544  -0.01551
   4        4S         -0.02399   0.01760   0.00740   0.01467  -0.02746
   5        5PX         0.04174  -0.00957   0.00462   0.01414   0.00235
   6        5PY         0.00785   0.07404  -0.00419  -0.08433   0.01215
   7        5PZ         0.01864  -0.00829   0.11028   0.05019   0.18104
   8        6PX         0.07517  -0.01690   0.00880   0.02646   0.00430
   9        6PY         0.01466   0.13329  -0.00759  -0.15280   0.02273
  10        6PZ         0.03270  -0.01425   0.19442   0.08855   0.32014
  11        7PX         0.09592  -0.02016   0.00818   0.02233  -0.00499
  12        7PY         0.01555   0.17555  -0.01139  -0.23560   0.04201
  13        7PZ         0.04618  -0.02107   0.27909   0.12641   0.48755
  14        8D 0       -0.00454   0.00667  -0.00036  -0.00849   0.00366
  15        8D+1       -0.00069   0.00051   0.00060   0.00057   0.00169
  16        8D-1       -0.00340  -0.00021  -0.01101  -0.00325  -0.00400
  17        8D+2        0.00719   0.00559  -0.00138   0.00354   0.00021
  18        8D-2        0.00273   0.00036  -0.00100  -0.00119   0.00166
  19 2   N  1S         -0.02705  -0.04142  -0.00840   0.07924  -0.01588
  20        2S         -0.04830  -0.08387  -0.01488   0.16590  -0.03129
  21        3S         -0.12989  -0.12749  -0.06492   0.22589  -0.08260
  22        4PX        -0.04537  -0.05334  -0.00362   0.06923  -0.06561
  23        4PY        -0.13595  -0.21367  -0.02737   0.41053  -0.08394
  24        4PZ        -0.00069  -0.02979  -0.02943   0.05420   0.33397
  25        5PX        -0.00117   0.04163  -0.00660  -0.01501   0.03179
  26        5PY         0.11073   0.15659   0.00859  -0.25877   0.05009
  27        5PZ         0.00513   0.01275   0.01202  -0.03682  -0.26638
  28        6D 0       -0.00450  -0.00572  -0.00057   0.01103  -0.00125
  29        6D+1       -0.00098   0.00113   0.00058  -0.00053   0.00526
  30        6D-1       -0.00057   0.00250   0.00212  -0.00364  -0.01496
  31        6D+2       -0.00118  -0.00532  -0.00100   0.01363  -0.00305
  32        6D-2        0.00035   0.00086  -0.00013  -0.00518   0.00233
  33 3   N  1S         -0.01802  -0.07797   0.00770  -0.05998   0.00886
  34        2S         -0.03760  -0.16535   0.01625  -0.12984   0.02059
  35        3S         -0.03517  -0.16240   0.01179  -0.12819   0.02118
  36        4PX         0.08333   0.33416  -0.04381   0.24498  -0.02850
  37        4PY        -0.04715  -0.21483   0.03601  -0.17464   0.01145
  38        4PZ         0.03684   0.00845  -0.05572   0.01550  -0.04415
  39        5PX        -0.06800  -0.25116   0.03272  -0.14997   0.00892
  40        5PY         0.03804   0.15764  -0.02255   0.11383  -0.00860
  41        5PZ        -0.02635  -0.00494   0.04332  -0.01151   0.02114
  42        6D 0       -0.00273  -0.01086   0.00369  -0.00829   0.00020
  43        6D+1        0.00188  -0.00069  -0.01098   0.00045  -0.00008
  44        6D-1       -0.00047  -0.00226  -0.01138  -0.00100   0.00504
  45        6D+2        0.00031   0.00263   0.00029   0.00435  -0.00137
  46        6D-2       -0.00134  -0.00859   0.00080  -0.00929   0.00134
  47 4   C  1S         -0.02609  -0.03534  -0.00167   0.01225  -0.00423
  48        2S          0.06423   0.09474   0.00744  -0.03507   0.01045
  49        3S          0.00638   0.08393  -0.00191   0.22101  -0.04655
  50        4PX        -0.00156  -0.06374   0.01104  -0.09891   0.01713
  51        4PY        -0.02772  -0.10549  -0.00123   0.07495  -0.01284
  52        4PZ         0.02689  -0.00606   0.00696  -0.00293  -0.13097
  53        5PX        -0.00358  -0.08590   0.01493  -0.18765   0.06270
  54        5PY         0.01086  -0.02068  -0.00927  -0.11535   0.02786
  55        5PZ         0.02048  -0.00791   0.03427   0.00096  -0.10224
  56        6D 0        0.00085   0.00191   0.00115  -0.00075  -0.00093
  57        6D+1        0.00022   0.00326   0.01338  -0.00343  -0.01498
  58        6D-1        0.00178  -0.00142   0.00981   0.00618   0.02649
  59        6D+2        0.01046   0.01791   0.00155  -0.02600   0.00882
  60        6D-2        0.00284   0.00069   0.00094   0.00483  -0.00169
  61 5   C  1S         -0.03300  -0.01091   0.00205   0.02564   0.00200
  62        2S          0.07305   0.02348  -0.00535  -0.06471  -0.00203
  63        3S          0.28895  -0.01438  -0.00115  -0.09525  -0.06604
  64        4PX         0.06575  -0.11665  -0.00451   0.12217  -0.03497
  65        4PY        -0.17576   0.01001  -0.03302   0.05565  -0.03996
  66        4PZ        -0.11464   0.00865  -0.00322   0.02542   0.09328
  67        5PX         0.06565  -0.12017  -0.04857   0.11215  -0.06750
  68        5PY        -0.09878   0.04923  -0.02017  -0.06007  -0.05278
  69        5PZ        -0.11960   0.04649   0.00868  -0.00662   0.00790
  70        6D 0       -0.00085  -0.00074  -0.00000   0.00173   0.01221
  71        6D+1       -0.00213   0.00321  -0.00138  -0.00307   0.01541
  72        6D-1        0.00467  -0.00092  -0.00099  -0.00044   0.00222
  73        6D+2        0.01216   0.00637   0.00303  -0.01665   0.00153
  74        6D-2       -0.00528  -0.00059  -0.00124   0.00558  -0.00258
  75 6   C  1S         -0.01204  -0.03826  -0.00381   0.00155  -0.00217
  76        2S          0.03118   0.10062   0.00993  -0.00093   0.00409
  77        3S          0.01596  -0.01656   0.03361  -0.19107   0.05644
  78        4PX         0.04612   0.09595   0.00108  -0.04085   0.02439
  79        4PY        -0.02651  -0.10888   0.00803  -0.09740   0.01386
  80        4PZ         0.00726  -0.01985  -0.26863   0.00139   0.09984
  81        5PX         0.02983  -0.01837  -0.00432  -0.23121   0.07316
  82        5PY         0.01102   0.00265  -0.00266  -0.04670   0.02309
  83        5PZ        -0.00042  -0.02311  -0.20360  -0.00621   0.09083
  84        6D 0       -0.00018  -0.00029   0.00119  -0.00110  -0.00007
  85        6D+1        0.00016  -0.00079   0.00913  -0.00095  -0.00928
  86        6D-1        0.00233  -0.00123  -0.00737   0.00026   0.00069
  87        6D+2        0.00254   0.00763   0.00173   0.00186  -0.00073
  88        6D-2        0.00678   0.02459  -0.00233   0.01721  -0.00167
  89 7   C  1S          0.00717   0.02689  -0.00413   0.02306  -0.00222
  90        2S         -0.01941  -0.07214   0.01092  -0.05945   0.00493
  91        3S         -0.00958  -0.03812   0.01269  -0.11096   0.01686
  92        4PX        -0.03117  -0.11987   0.02724  -0.08494   0.00178
  93        4PY         0.01183   0.06434   0.00856   0.04060  -0.01448
  94        4PZ         0.01600   0.03012   0.15880   0.01691  -0.08770
  95        5PX         0.00037  -0.01969   0.01118  -0.04298   0.00931
  96        5PY         0.01721   0.09850   0.00125   0.06339  -0.01912
  97        5PZ         0.00971   0.01387   0.12200   0.00963  -0.07014
  98        6D 0       -0.00064  -0.00152   0.00132  -0.00116  -0.00011
  99        6D+1       -0.00090   0.00006   0.00848  -0.00037  -0.00211
 100        6D-1        0.00196  -0.00100  -0.01235   0.00002   0.00284
 101        6D+2        0.00080   0.00347   0.00101   0.00258  -0.00059
 102        6D-2        0.00171   0.00462  -0.00055   0.00247   0.00011
 103 8   C  1S         -0.00625  -0.02567   0.00286  -0.01817   0.00241
 104        2S          0.01337   0.05904  -0.00685   0.04714  -0.00742
 105        3S         -0.00764  -0.00689   0.00312   0.02884  -0.01666
 106        4PX         0.03685   0.14578  -0.00191   0.09255  -0.01271
 107        4PY        -0.00915  -0.02886   0.02913  -0.02167  -0.00493
 108        4PZ        -0.02580   0.02208   0.27681   0.00121  -0.07050
 109        5PX        -0.00128  -0.01978   0.01635  -0.03585   0.00399
 110        5PY        -0.00803  -0.01489   0.01766   0.01028  -0.00909
 111        5PZ        -0.01860   0.01839   0.19589   0.00250  -0.04514
 112        6D 0       -0.00016  -0.00149  -0.00009  -0.00119  -0.00018
 113        6D+1       -0.00243  -0.00214  -0.00249  -0.00180   0.00564
 114        6D-1       -0.00099  -0.00163   0.00570  -0.00180  -0.00060
 115        6D+2       -0.00333  -0.01596   0.00191  -0.01390   0.00203
 116        6D-2        0.00419   0.01816  -0.00295   0.01446  -0.00101
 117 9   H  1S          0.02051   0.06697  -0.00934   0.04429  -0.00213
 118        2S          0.02210   0.07546  -0.01176   0.05432  -0.00204
 119        3PX        -0.00029  -0.00129   0.00065  -0.00093  -0.00023
 120        3PY         0.00065   0.00250   0.00025   0.00162  -0.00044
 121        3PZ         0.00048   0.00084   0.00610   0.00043  -0.00355
 122 10  H  1S          0.01920   0.08617  -0.01329   0.06887  -0.00748
 123        2S          0.00886   0.04558  -0.00912   0.04610  -0.00523
 124        3PX         0.00109   0.00484  -0.00010   0.00360  -0.00056
 125        3PY         0.00002   0.00008   0.00104  -0.00079  -0.00011
 126        3PZ        -0.00087   0.00078   0.01040   0.00004  -0.00315
 127 11  C  1S          0.00608  -0.00249   0.00168   0.00175  -0.02474
 128        2S         -0.01338   0.00938  -0.00019  -0.00923   0.06086
 129        3S         -0.01006  -0.01299  -0.02736   0.01550   0.11214
 130        4PX        -0.02062   0.02021   0.01590  -0.00880  -0.02438
 131        4PY         0.02289  -0.00822   0.00134   0.00386  -0.00201
 132        4PZ         0.05623  -0.00532  -0.00180  -0.01184  -0.12600
 133        5PX         0.00096   0.03243   0.02073  -0.03437   0.03788
 134        5PY        -0.00464  -0.01033  -0.00431   0.01764   0.00595
 135        5PZ         0.04421   0.01489  -0.00216  -0.02868  -0.10375
 136        6D 0        0.00094  -0.00062  -0.00024  -0.00002   0.00409
 137        6D+1       -0.00468   0.00357   0.00033  -0.00257  -0.00017
 138        6D-1        0.00661  -0.00068   0.00115  -0.00190  -0.00127
 139        6D+2        0.00234   0.00065   0.00114  -0.00180  -0.00208
 140        6D-2       -0.00183   0.00097   0.00016  -0.00019  -0.00220
 141 12  H  1S          0.05695  -0.02178  -0.00513   0.00349  -0.00690
 142        2S          0.04928  -0.01201   0.02565  -0.00445   0.03328
 143        3PX         0.00073  -0.00041  -0.00112  -0.00019  -0.00130
 144        3PY         0.00032   0.00004   0.00162   0.00058   0.00192
 145        3PZ         0.00009  -0.00006  -0.00072  -0.00023  -0.00463
 146 13  H  1S         -0.00403   0.01907   0.01336  -0.01514  -0.03444
 147        2S         -0.00493   0.00067   0.00338   0.00276  -0.06766
 148        3PX        -0.00065  -0.00003   0.00016   0.00008  -0.00038
 149        3PY         0.00153  -0.00035  -0.00012  -0.00034   0.00025
 150        3PZ         0.00156  -0.00043  -0.00020  -0.00041  -0.00388
 151 14  H  1S         -0.02599   0.00752  -0.00676  -0.00059  -0.00284
 152        2S         -0.05721  -0.01059  -0.00678   0.02920  -0.02966
 153        3PX        -0.00083   0.00070   0.00043  -0.00049  -0.00025
 154        3PY         0.00004  -0.00002  -0.00037  -0.00078  -0.00045
 155        3PZ         0.00277  -0.00049   0.00005  -0.00040  -0.00232
 156 15  O  1S          0.01020   0.01263   0.00643   0.01416  -0.00046
 157        2S          0.02091   0.02501   0.01368   0.03274  -0.00078
 158        3S          0.04040   0.06587   0.01355   0.03377   0.00050
 159        4PX         0.04079   0.02039  -0.03035   0.02206   0.02809
 160        4PY        -0.00265  -0.02549   0.06384  -0.01925  -0.01583
 161        4PZ        -0.03456   0.01908   0.26173  -0.00417  -0.11494
 162        5PX         0.03163   0.01847  -0.02791   0.01588   0.02253
 163        5PY        -0.00223  -0.01499   0.05676  -0.00785  -0.01688
 164        5PZ        -0.02828   0.01378   0.22176  -0.00502  -0.09418
 165        6D 0        0.00102   0.00015  -0.00175   0.00077   0.00128
 166        6D+1        0.00031  -0.00107  -0.00473  -0.00008   0.00322
 167        6D-1        0.00045   0.00105   0.00162   0.00085  -0.00039
 168        6D+2       -0.00115   0.00024   0.00068  -0.00035  -0.00102
 169        6D-2        0.00037   0.00383  -0.00055   0.00147  -0.00037
 170 16  C  1S          0.00875   0.02882  -0.00103   0.01633  -0.00037
 171        2S         -0.02305  -0.07879   0.00340  -0.04671   0.00021
 172        3S          0.01522   0.00549  -0.01481  -0.08285   0.03937
 173        4PX        -0.04389  -0.12903   0.00670  -0.05922  -0.00105
 174        4PY         0.01227   0.05066  -0.04446   0.01511   0.01307
 175        4PZ         0.01296  -0.03836  -0.25370  -0.01675   0.09584
 176        5PX        -0.04029  -0.12282   0.00040  -0.04181  -0.00568
 177        5PY        -0.01545  -0.01826   0.00156   0.05232  -0.01545
 178        5PZ         0.00914  -0.01946  -0.14345  -0.01242   0.07277
 179        6D 0        0.00031  -0.00194  -0.00404  -0.00125   0.00187
 180        6D+1       -0.00180  -0.00122  -0.00126  -0.00036   0.00209
 181        6D-1       -0.00240   0.00072   0.02188  -0.00101  -0.00872
 182        6D+2        0.00033  -0.00397  -0.00125  -0.00566   0.00250
 183        6D-2        0.00254   0.00233  -0.00200   0.00124   0.00225
 184 17  C  1S         -0.00442  -0.00448   0.00131   0.00076  -0.00279
 185        2S          0.01045   0.01066  -0.00323  -0.00068   0.00694
 186        3S         -0.03106  -0.13158   0.00827  -0.01315  -0.00911
 187        4PX         0.02274   0.03978  -0.01239   0.00633   0.00938
 188        4PY         0.01063  -0.00289  -0.01667   0.00043   0.00697
 189        4PZ         0.03362  -0.00610  -0.13642   0.00381   0.01947
 190        5PX        -0.01043  -0.03279   0.00454   0.00135  -0.01171
 191        5PY         0.00286   0.01427  -0.01375  -0.00595  -0.00260
 192        5PZ         0.02633  -0.00252  -0.11634   0.00191   0.01670
 193        6D 0        0.00028   0.00097   0.00254   0.00016  -0.00092
 194        6D+1        0.00034  -0.00227  -0.01129  -0.00115   0.00464
 195        6D-1       -0.00056  -0.00204  -0.00973  -0.00099   0.00483
 196        6D+2       -0.00007  -0.00071   0.00078   0.00128  -0.00068
 197        6D-2        0.00213   0.00703  -0.00292   0.00305   0.00084
 198 18  H  1S         -0.02427  -0.05109  -0.02604  -0.03265   0.01039
 199        2S         -0.01773  -0.03869  -0.01869  -0.03654   0.00720
 200        3PX         0.00048  -0.00217  -0.00346  -0.00044   0.00222
 201        3PY         0.00099   0.00043   0.00321   0.00048  -0.00095
 202        3PZ        -0.00208  -0.00047   0.01038  -0.00101  -0.00534
 203 19  H  1S         -0.01252  -0.04412   0.00573  -0.01246  -0.00156
 204        2S         -0.01552  -0.03863   0.01467  -0.01080  -0.00852
 205        3PX         0.00053   0.00073  -0.00024  -0.00022   0.00042
 206        3PY         0.00034  -0.00008  -0.00059  -0.00026   0.00041
 207        3PZ         0.00134  -0.00013  -0.00475   0.00035   0.00068
 208 20  C  1S          0.02139   0.00668   0.00184  -0.02653   0.01123
 209        2S         -0.04721  -0.01839  -0.00577   0.05883  -0.03517
 210        3S         -0.12872  -0.02677  -0.00044   0.17578   0.00926
 211        4PX        -0.03142   0.02620   0.00285  -0.06876   0.01043
 212        4PY         0.13044   0.01278   0.01116  -0.08194   0.04355
 213        4PZ        -0.00710  -0.01023  -0.05471   0.00272  -0.09237
 214        5PX        -0.02424   0.00388   0.01040  -0.02865  -0.01042
 215        5PY         0.10751   0.01437   0.01017  -0.09105   0.00946
 216        5PZ        -0.00639  -0.02159  -0.01508   0.03646  -0.02115
 217        6D 0       -0.00398   0.00107   0.00303   0.00031   0.00826
 218        6D+1       -0.00008   0.00018  -0.00966  -0.00464  -0.01421
 219        6D-1        0.00680  -0.00037   0.00124  -0.00245   0.00062
 220        6D+2        0.00212  -0.00510   0.00066   0.00543   0.00010
 221        6D-2       -0.00344   0.00191  -0.00063  -0.00478   0.00129
 222 21  H  1S         -0.02216   0.00983   0.06102   0.00752   0.10422
 223        2S         -0.00037   0.00216   0.02613  -0.00438   0.07769
 224        3PX         0.00054   0.00045   0.00026  -0.00157   0.00098
 225        3PY         0.00275   0.00075  -0.00048  -0.00255   0.00046
 226        3PZ        -0.00122   0.00085   0.00056  -0.00065   0.00084
 227 22  O  1S         -0.02056   0.00979  -0.00229  -0.00267   0.00923
 228        2S         -0.04152   0.02174  -0.00350  -0.00759   0.02181
 229        3S         -0.14143   0.04609  -0.02661  -0.00280   0.02386
 230        4PX         0.11091  -0.04305   0.00928   0.01177  -0.03016
 231        4PY         0.15751  -0.05808  -0.00097   0.02830  -0.00369
 232        4PZ         0.01758  -0.00284   0.00640   0.00107  -0.00096
 233        5PX         0.08136  -0.02722   0.01020   0.00355  -0.01372
 234        5PY         0.13092  -0.04820   0.00082   0.02317   0.00076
 235        5PZ         0.01776  -0.00758   0.00351   0.00611  -0.00344
 236        6D 0        0.00058  -0.00018  -0.00008   0.00003   0.00049
 237        6D+1       -0.00242   0.00109  -0.00006  -0.00018   0.00129
 238        6D-1       -0.00208   0.00053  -0.00030  -0.00021  -0.00039
 239        6D+2        0.00500  -0.00166  -0.00000   0.00021  -0.00161
 240        6D-2       -0.00186   0.00077  -0.00025   0.00003   0.00111
 241 23  O  1S         -0.00425   0.00537  -0.00004  -0.00626  -0.00010
 242        2S         -0.01368   0.01262  -0.00193  -0.01400   0.00029
 243        3S          0.01074   0.01874   0.01658  -0.02656   0.00265
 244        4PX         0.47755  -0.18214   0.01396   0.08546  -0.03949
 245        4PY        -0.03777  -0.00218  -0.00401   0.01510   0.00767
 246        4PZ        -0.17374   0.06628  -0.01572  -0.02026   0.01328
 247        5PX         0.33646  -0.12192   0.01218   0.04970  -0.03425
 248        5PY        -0.02171   0.00213   0.00049   0.00441   0.00557
 249        5PZ        -0.12288   0.04600  -0.01077  -0.01197   0.00874
 250        6D 0       -0.00277   0.00140  -0.00013  -0.00095  -0.00001
 251        6D+1        0.00344  -0.00108   0.00001   0.00038   0.00025
 252        6D-1       -0.00545   0.00218  -0.00039  -0.00088   0.00047
 253        6D+2        0.00406  -0.00210  -0.00006   0.00185  -0.00004
 254        6D-2        0.01356  -0.00534   0.00029   0.00284  -0.00049
 255 24  C  1S         -0.02696   0.00592  -0.00327   0.00823   0.01808
 256        2S          0.07466  -0.01553   0.00532  -0.02528  -0.05001
 257        3S         -0.02710   0.04614   0.04005  -0.05293  -0.00332
 258        4PX        -0.05801   0.00513  -0.00895   0.02886   0.04401
 259        4PY         0.06309  -0.01046   0.00849  -0.01883  -0.03967
 260        4PZ         0.04790  -0.01214   0.00613  -0.00864  -0.01324
 261        5PX         0.12391  -0.05125   0.00364   0.03157   0.02323
 262        5PY         0.01958   0.02657   0.03652  -0.03973   0.00357
 263        5PZ        -0.02560   0.03273   0.01315  -0.03734  -0.00557
 264        6D 0        0.01167  -0.00504   0.00105   0.00145   0.00090
 265        6D+1       -0.01068   0.00343  -0.00053  -0.00073   0.00074
 266        6D-1        0.01477  -0.00717   0.00065   0.00370  -0.00207
 267        6D+2       -0.00887   0.00598   0.00095  -0.00497   0.00367
 268        6D-2       -0.04463   0.01627  -0.00173  -0.00612   0.00742
 269 25  H  1S          0.01923  -0.00972   0.00360  -0.00201  -0.02170
 270        2S          0.06254  -0.02549   0.00460   0.00758  -0.02436
 271        3PX         0.00238  -0.00095  -0.00011   0.00047  -0.00074
 272        3PY         0.00453  -0.00192  -0.00013   0.00089  -0.00081
 273        3PZ         0.00131  -0.00023   0.00074  -0.00031  -0.00109
 274 26  H  1S          0.02798   0.00900  -0.03390  -0.05992  -0.04881
 275        2S          0.03766   0.02046  -0.02085  -0.06915  -0.01474
 276        3PX        -0.00141   0.00009  -0.00006  -0.00066  -0.00004
 277        3PY         0.00354   0.00061   0.00119  -0.00168   0.00251
 278        3PZ        -0.00111  -0.00096  -0.00135   0.00179  -0.00308
                          63        64        65        66        67
                           V         V         V         V         V
     Eigenvalues --    -0.05098  -0.01407   0.00525   0.02754   0.04664
   1 1   S  1S          0.00177   0.00177   0.00440  -0.00028   0.00192
   2        2S          0.01173   0.01188   0.02937  -0.00193   0.01244
   3        3S         -0.01244  -0.02352  -0.04650   0.00274  -0.00312
   4        4S         -0.07810  -0.01497  -0.10645   0.03409  -0.09656
   5        5PX        -0.00283  -0.01097  -0.03347   0.02439  -0.04751
   6        5PY         0.00573  -0.00722  -0.01377  -0.00388  -0.00946
   7        5PZ        -0.04931   0.01383  -0.00115  -0.00362  -0.05049
   8        6PX        -0.00296  -0.01670  -0.05226   0.03997  -0.08058
   9        6PY         0.00996  -0.01087  -0.02248  -0.01094  -0.01482
  10        6PZ        -0.08970   0.02426  -0.00202  -0.00577  -0.08765
  11        7PX        -0.03897  -0.07107  -0.22634   0.14224  -0.26375
  12        7PY         0.03709  -0.03509  -0.04892   0.00294  -0.06876
  13        7PZ        -0.15656   0.05316  -0.00528  -0.02133  -0.22403
  14        8D 0       -0.00426  -0.00341  -0.01030   0.00015  -0.01384
  15        8D+1       -0.02108   0.00664  -0.00235   0.00045  -0.03237
  16        8D-1       -0.02541   0.00950  -0.00411  -0.00613  -0.06934
  17        8D+2        0.00439   0.01946   0.04227  -0.01025   0.03486
  18        8D-2        0.00643  -0.00942  -0.01682   0.02195  -0.00660
  19 2   N  1S          0.00470   0.00075   0.00108  -0.01502   0.00934
  20        2S          0.00720   0.00328   0.00199  -0.02454   0.02452
  21        3S          0.05410   0.02159   0.04572  -0.20015   0.00814
  22        4PX        -0.03442   0.02893   0.01941   0.04490  -0.01216
  23        4PY        -0.00936  -0.00423  -0.01745   0.02972  -0.02163
  24        4PZ         0.25627  -0.10585   0.04307   0.00681   0.25164
  25        5PX         0.04951  -0.04921  -0.02323  -0.05021   0.03412
  26        5PY         0.01313   0.01216   0.02890  -0.07215   0.02033
  27        5PZ        -0.27171   0.08895  -0.04024   0.01525  -0.33214
  28        6D 0       -0.00148   0.00033  -0.00095   0.00402  -0.00334
  29        6D+1       -0.00743   0.00446  -0.00155  -0.00294  -0.01332
  30        6D-1       -0.00511   0.00238  -0.00096   0.00135   0.00186
  31        6D+2        0.00002   0.00015   0.00106   0.00154   0.00087
  32        6D-2        0.00131  -0.00080   0.00075  -0.00161   0.00146
  33 3   N  1S          0.00219   0.00274   0.00313   0.00024  -0.00111
  34        2S          0.00492   0.00798   0.00979   0.00195  -0.00153
  35        3S          0.00189   0.03422   0.02832  -0.00719   0.00560
  36        4PX        -0.00201   0.02465   0.00710   0.00251   0.00780
  37        4PY         0.02739  -0.02026  -0.05512  -0.00676   0.00218
  38        4PZ         0.28085   0.21291  -0.13655  -0.00436   0.00418
  39        5PX         0.00128  -0.04013  -0.03103   0.00938  -0.00443
  40        5PY        -0.02589   0.01708   0.05358   0.00024   0.00866
  41        5PZ        -0.30235  -0.24036   0.16200   0.00765  -0.01128
  42        6D 0       -0.00049   0.00136  -0.00203   0.00025   0.00267
  43        6D+1        0.00987  -0.00645   0.00324  -0.00106  -0.00830
  44        6D-1        0.00431  -0.01336   0.00726  -0.00209  -0.01573
  45        6D+2       -0.00079   0.00171   0.00046   0.00076   0.00086
  46        6D-2        0.00064  -0.00115   0.00064  -0.00035   0.00006
  47 4   C  1S         -0.00012   0.00952   0.01903  -0.01301   0.01831
  48        2S         -0.00313  -0.02851  -0.05714   0.03012  -0.04462
  49        3S          0.01885  -0.16216  -0.23206   0.29000  -0.07505
  50        4PX        -0.01906   0.01210   0.00182   0.00889  -0.02623
  51        4PY         0.01005  -0.02722  -0.04596   0.02434  -0.02902
  52        4PZ         0.21809  -0.08783   0.03071   0.04430   0.37869
  53        5PX        -0.00201   0.00784   0.03789  -0.07840  -0.07566
  54        5PY         0.02314   0.02905   0.01778  -0.03164  -0.08412
  55        5PZ         0.22393  -0.08936   0.03840   0.04062   0.51028
  56        6D 0       -0.00268  -0.00027  -0.00227   0.00066  -0.00423
  57        6D+1       -0.02679   0.00844  -0.00210   0.00106  -0.00188
  58        6D-1        0.00766  -0.00054  -0.00030   0.00076   0.01798
  59        6D+2        0.00311  -0.00221  -0.00286  -0.00428  -0.00148
  60        6D-2       -0.00331  -0.00255  -0.00584   0.00057  -0.00644
  61 5   C  1S          0.00011  -0.00024   0.00091  -0.00003  -0.00276
  62        2S         -0.00229   0.00413   0.00918  -0.01583  -0.00511
  63        3S          0.03483  -0.03188  -0.12821   0.09044   0.16083
  64        4PX         0.01497  -0.01019  -0.00933  -0.00796   0.01903
  65        4PY         0.01733  -0.01360  -0.01747   0.01412   0.01241
  66        4PZ         0.01403  -0.00221   0.00248  -0.00945  -0.01507
  67        5PX         0.08645  -0.05254  -0.00464  -0.09493   0.01073
  68        5PY         0.04303  -0.05093  -0.04756   0.09674   0.10534
  69        5PZ        -0.05274   0.07436   0.00053  -0.32885  -0.04881
  70        6D 0        0.00903  -0.00478   0.00060   0.03139   0.00658
  71        6D+1        0.01291  -0.00525   0.00327  -0.01255   0.01571
  72        6D-1        0.00512  -0.00218   0.00129   0.00895   0.00668
  73        6D+2       -0.00234   0.00096  -0.00096  -0.00013  -0.00239
  74        6D-2       -0.00150  -0.00187  -0.00670   0.01169  -0.00832
  75 6   C  1S          0.00052   0.01325   0.02097   0.00932  -0.00393
  76        2S         -0.00043  -0.04131  -0.06426  -0.01854   0.00667
  77        3S         -0.01022  -0.11468  -0.13270  -0.19021   0.00133
  78        4PX        -0.00125   0.02371   0.04029  -0.01131   0.01020
  79        4PY         0.02240  -0.02957  -0.03850  -0.01453  -0.01532
  80        4PZ         0.26571  -0.05552   0.00724  -0.03634  -0.22170
  81        5PX         0.00822   0.15373   0.21970  -0.12614  -0.05035
  82        5PY         0.02091  -0.01734  -0.02291  -0.06206   0.01229
  83        5PZ         0.26073  -0.09537   0.02335  -0.04928  -0.32861
  84        6D 0       -0.00143  -0.00516   0.00018   0.00008   0.00088
  85        6D+1        0.01514  -0.01951   0.00984   0.00167   0.01866
  86        6D-1        0.02018   0.02347  -0.01545   0.00048   0.00851
  87        6D+2       -0.00206  -0.00814  -0.00653  -0.00093  -0.00173
  88        6D-2        0.00157  -0.00050   0.00058  -0.00045   0.00023
  89 7   C  1S         -0.00083  -0.00370  -0.00641   0.00050  -0.00294
  90        2S          0.00341   0.01343   0.02119   0.00197   0.00737
  91        3S         -0.00004  -0.00399  -0.01787  -0.04197   0.03457
  92        4PX         0.02015  -0.00823   0.00333  -0.00102  -0.01936
  93        4PY         0.02577   0.01125   0.04130  -0.00052  -0.02285
  94        4PZ         0.27102  -0.08889   0.06519  -0.03280  -0.25662
  95        5PX         0.02434  -0.05072  -0.09040  -0.02552  -0.03276
  96        5PY         0.02145   0.00819   0.05093  -0.00947  -0.04271
  97        5PZ         0.36647  -0.09277   0.09142  -0.05168  -0.43860
  98        6D 0        0.00221   0.00295   0.00014  -0.00009  -0.00135
  99        6D+1        0.00048   0.01399  -0.00898   0.00098   0.00929
 100        6D-1       -0.01292  -0.02250   0.01358   0.00030   0.00263
 101        6D+2        0.00099   0.00365   0.00078   0.00066  -0.00039
 102        6D-2       -0.00040   0.00192   0.00282   0.00091  -0.00021
 103 8   C  1S          0.00218   0.00112   0.00107   0.00091  -0.00271
 104        2S         -0.00615  -0.00141  -0.00206   0.00206   0.00770
 105        3S         -0.00422   0.00569   0.05139   0.00769   0.01735
 106        4PX        -0.00402   0.02483   0.00991   0.00263   0.01182
 107        4PY        -0.00123   0.02085  -0.01894   0.00212   0.01871
 108        4PZ         0.02430   0.29429  -0.17903   0.02487   0.21100
 109        5PX         0.00835   0.00286  -0.03088  -0.00479   0.01837
 110        5PY        -0.00036   0.04604   0.01079   0.00503   0.01772
 111        5PZ        -0.01646   0.36054  -0.23546   0.03654   0.31920
 112        6D 0        0.00189   0.00104  -0.00139  -0.00023   0.00021
 113        6D+1       -0.02855  -0.00825   0.00527   0.00202   0.01408
 114        6D-1        0.00092  -0.00702   0.00432  -0.00116  -0.00872
 115        6D+2       -0.00132  -0.00275  -0.00477  -0.00091   0.00267
 116        6D-2       -0.00291   0.00043   0.00147   0.00051   0.00075
 117 9   H  1S         -0.00042   0.00300   0.00651   0.00112  -0.00599
 118        2S         -0.00467  -0.01453  -0.02312   0.00488  -0.03554
 119        3PX         0.00086  -0.00054  -0.00021  -0.00040  -0.00072
 120        3PY         0.00128  -0.00059   0.00086  -0.00027  -0.00116
 121        3PZ         0.01298  -0.00556   0.00407  -0.00184  -0.01544
 122 10  H  1S          0.00113   0.01353   0.01592   0.00280  -0.00256
 123        2S          0.00356   0.02438   0.03166   0.00681  -0.02614
 124        3PX        -0.00022   0.00122   0.00068   0.00013   0.00050
 125        3PY         0.00015   0.00056  -0.00220  -0.00047   0.00148
 126        3PZ         0.00272   0.01631  -0.01010   0.00145   0.01237
 127 11  C  1S         -0.01949   0.00878  -0.00303  -0.04290  -0.02327
 128        2S          0.03925  -0.01900   0.00538   0.09399   0.04220
 129        3S          0.18683  -0.10527   0.07536   0.52710   0.34285
 130        4PX        -0.02270   0.00813   0.00026  -0.00499  -0.00141
 131        4PY        -0.00273   0.00141   0.00226  -0.00234  -0.00138
 132        4PZ        -0.06087   0.03092  -0.00431  -0.13125  -0.03698
 133        5PX         0.00435   0.00423   0.01838  -0.13132   0.09334
 134        5PY         0.01094  -0.00883   0.00439   0.08134   0.00762
 135        5PZ        -0.05727   0.05088  -0.00903  -0.22634  -0.00431
 136        6D 0        0.00141  -0.00053   0.00046  -0.00161   0.00083
 137        6D+1       -0.00296   0.00089  -0.00046   0.00844  -0.00531
 138        6D-1       -0.00217   0.00129   0.00080  -0.00721  -0.00108
 139        6D+2       -0.00296   0.00113  -0.00031  -0.00158  -0.00254
 140        6D-2       -0.00225   0.00039  -0.00134   0.00587  -0.00449
 141 12  H  1S          0.01015  -0.00099   0.00617  -0.06718   0.02190
 142        2S         -0.04339   0.01722   0.00003  -0.28546  -0.06209
 143        3PX        -0.00046   0.00038   0.00008   0.00054  -0.00234
 144        3PY        -0.00072   0.00045   0.00028  -0.00115  -0.00065
 145        3PZ        -0.00115   0.00082  -0.00026  -0.00666  -0.00093
 146 13  H  1S         -0.03359   0.01274  -0.00451   0.03153  -0.03162
 147        2S         -0.08607   0.03745  -0.03894  -0.00077  -0.25885
 148        3PX        -0.00140   0.00029  -0.00068  -0.00111  -0.00287
 149        3PY        -0.00030  -0.00002  -0.00044  -0.00066  -0.00199
 150        3PZ        -0.00289   0.00142   0.00019  -0.00481  -0.00280
 151 14  H  1S          0.01425  -0.00806  -0.00348   0.03267   0.01559
 152        2S         -0.02988  -0.00200  -0.02575   0.01383  -0.10642
 153        3PX         0.00009   0.00016   0.00043   0.00003   0.00101
 154        3PY         0.00054  -0.00052  -0.00013   0.00295   0.00114
 155        3PZ        -0.00102   0.00072  -0.00006  -0.00332  -0.00066
 156 15  O  1S         -0.00068  -0.04741  -0.08118  -0.00531  -0.00680
 157        2S         -0.00044  -0.09847  -0.16570  -0.00674  -0.01733
 158        3S         -0.00710  -0.24787  -0.49173  -0.06577  -0.02847
 159        4PX         0.00435   0.13256   0.20642   0.04085  -0.03280
 160        4PY         0.00186  -0.08752  -0.08939  -0.01622   0.00698
 161        4PZ         0.04653  -0.11415   0.15874   0.00781  -0.02025
 162        5PX         0.00599   0.14747   0.23784   0.03730  -0.02266
 163        5PY        -0.00202  -0.13506  -0.14361  -0.02333   0.02806
 164        5PZ         0.04592  -0.12233   0.19957   0.00940  -0.01820
 165        6D 0       -0.00077   0.00147  -0.00345   0.00036  -0.00061
 166        6D+1        0.00156   0.00364  -0.00006  -0.00030  -0.00119
 167        6D-1        0.00177  -0.01144   0.00119  -0.00085   0.00027
 168        6D+2       -0.00013  -0.00165  -0.00355  -0.00140   0.00214
 169        6D-2        0.00064  -0.00499  -0.00741  -0.00155   0.00071
 170 16  C  1S          0.00146  -0.00562  -0.00937  -0.00239   0.00009
 171        2S         -0.00695   0.00620   0.00479   0.00719  -0.00769
 172        3S          0.02022  -0.00619  -0.06625  -0.07580   0.01696
 173        4PX        -0.00262   0.02111   0.01786   0.00779  -0.00953
 174        4PY        -0.00880   0.09097   0.05806   0.00362   0.00887
 175        4PZ        -0.09719   0.35868  -0.18803   0.01118  -0.00787
 176        5PX        -0.00591   0.14643   0.24936   0.06644  -0.02043
 177        5PY        -0.02141  -0.02572  -0.04345   0.03426   0.06275
 178        5PZ        -0.05941   0.43985  -0.21200   0.00971   0.02017
 179        6D 0       -0.00121   0.00124   0.00328   0.00044   0.00032
 180        6D+1        0.02666   0.00838  -0.00424  -0.00333  -0.02158
 181        6D-1       -0.00160   0.00063   0.00624   0.00156   0.00655
 182        6D+2        0.00052   0.00683   0.00812  -0.00042   0.00029
 183        6D-2        0.00240   0.00867   0.01001   0.00241  -0.00398
 184 17  C  1S          0.00192   0.00368   0.01548   0.00254  -0.00284
 185        2S         -0.00601  -0.01009  -0.04068  -0.00347   0.00918
 186        3S         -0.00521   0.01843  -0.00847   0.04596   0.02798
 187        4PX        -0.01154   0.02738   0.06285   0.01026   0.00226
 188        4PY        -0.02654  -0.03420  -0.02033  -0.00284   0.02174
 189        4PZ        -0.22336  -0.20605   0.10701   0.02173   0.18574
 190        5PX        -0.02330   0.10859   0.31320   0.06845  -0.01416
 191        5PY        -0.03816  -0.00955   0.02181  -0.00752   0.03719
 192        5PZ        -0.32300  -0.32115   0.12381   0.03034   0.30037
 193        6D 0        0.00379  -0.00248   0.00398  -0.00054  -0.00313
 194        6D+1       -0.00677   0.01951  -0.01076   0.00083   0.00192
 195        6D-1       -0.01776   0.01124  -0.00946   0.00237   0.01785
 196        6D+2        0.00124  -0.00589  -0.00880  -0.00053  -0.00247
 197        6D-2       -0.00220   0.00559   0.00273  -0.00004   0.00286
 198 18  H  1S         -0.00029   0.16531   0.22962   0.02830  -0.00133
 199        2S          0.02477   0.49541   0.90056   0.12041  -0.05257
 200        3PX        -0.00147  -0.00430  -0.01617  -0.00151   0.00073
 201        3PY        -0.00164   0.00279   0.00894   0.00241  -0.00017
 202        3PZ         0.00017  -0.01146  -0.00067  -0.00089   0.00191
 203 19  H  1S          0.00165  -0.02523  -0.03969  -0.00103  -0.00844
[...]
 02628,0.00002809,-0.00000297,0.00000155,-0.00000546,-0.00000477,-0.000
 00183,0.00000094,0.00001503,0.00000326,-0.00000230,-0.00000342,0.00279
 720,-0.00131927,-0.00071600,-0.01505952,-0.01126877,0.00634518,-0.6680
 2397,-0.15678234,0.13729636,-0.00019033,0.00148845,-0.00061896,0.67900
 944,0.00004669,0.00004222,-0.00003162,0.00032129,-0.00025503,-0.000140
 91,0.00019557,-0.00138495,-0.00040297,0.00077651,0.00081103,-0.0004313
 7,0.00010002,0.00005269,0.00003507,0.00388347,-0.00289719,0.00180126,-
 0.03398489,-0.00124500,0.00666934,-0.00013022,-0.00545030,0.00400269,0
 .00072124,0.00141159,-0.00221842,-0.00163725,0.00000812,0.00008814,-0.
 00001316,0.00000720,0.00000225,-0.00000002,-0.00000085,-0.00000285,0.0
 0000083,0.00000107,-0.00000052,0.00000278,-0.00000136,-0.00000102,-0.0
 0059383,0.00357170,-0.00224613,0.02728046,0.00754976,-0.00373858,-0.15
 697431,-0.03773470,0.03889260,-0.00098131,-0.00046948,0.00077414,0.160
 99434,0.03605017,0.00004550,-0.00004072,0.00003344,-0.00011985,0.00004
 635,-0.00014438,-0.00076091,0.00031738,-0.00313660,-0.00037312,-0.0002
 3506,-0.00039196,0.00000584,-0.00000435,0.00007723,-0.00049486,0.00150
 756,0.00667383,0.00900172,0.00046926,0.00512351,0.00160870,0.00389787,
 0.00836330,-0.00093793,-0.00215185,-0.00582932,0.00052066,-0.00002085,
 -0.00000859,-0.00001139,0.00000861,0.00000553,-0.00000100,-0.00000018,
 0.00000263,0.00000273,-0.00000228,0.00000215,-0.00000114,0.00000257,0.
 00000349,-0.00186688,-0.00272495,-0.00291388,-0.00306965,0.00212685,0.
 00712547,0.13802983,0.03957707,-0.00632688,0.00081426,0.00032137,-0.00
 052046,-0.14241889,-0.04306651,-0.00811989,-0.13523845,0.01097999,0.00
 312232,-0.00747915,0.00648251,-0.00419157,-0.00025091,0.00071150,-0.00
 009851,-0.00451876,0.02861114,-0.00254984,-0.08173688,-0.02671357,0.01
 101609,0.00045953,-0.00180042,0.00026494,-0.00008532,0.00007732,-0.000
 02214,-0.00011389,-0.00015524,0.00012158,-0.00000883,-0.00000819,0.000
 01424,0.00000619,-0.00000914,0.00001638,0.00157272,0.00136263,0.001266
 74,0.00022882,0.00051059,0.00003579,0.00021075,-0.00056491,0.00021286,
 0.00101464,0.00024609,-0.00120660,-0.00010349,-0.00045215,0.00046752,-
 0.00035283,0.00087805,-0.00009711,0.00000583,-0.00009877,-0.00013478,0
 .00020055,0.00005009,-0.00020404,-0.00002135,-0.00001403,0.00001789,0.
 35739644,-0.00428372,-0.04460573,0.00398603,0.01230260,-0.04412770,0.0
 0488969,0.00172051,-0.00195375,0.00020245,0.02498245,-0.01517715,-0.00
 083561,-0.03541630,-0.14166790,0.04747667,-0.00485742,-0.00208810,0.00
 082258,-0.00001766,-0.00037167,0.00010313,0.00025100,-0.00003927,-0.00
 017832,0.00006419,0.00002820,0.00003170,0.00009700,-0.00007921,0.00001
 104,0.00018950,-0.00104563,0.00382777,-0.00000527,0.00027397,-0.000374
 52,0.00024113,0.00044507,-0.00122469,0.00045204,0.00024162,-0.00073587
 ,0.00006633,0.00243894,-0.00017741,-0.00084523,-0.00200330,0.00072333,
 -0.00001629,0.00065061,-0.00019397,-0.00004764,-0.00000049,-0.00005368
 ,0.00006554,-0.00002935,-0.00001897,-0.17684444,0.76818544,-0.00589624
 ,0.00285570,-0.03971192,0.00148840,-0.00109106,0.00595168,0.00047650,-
 0.00061130,0.00094559,-0.00112554,-0.01030282,0.00266568,0.01790035,0.
 04084634,-0.10816838,-0.00045566,0.00113374,0.00231195,0.00015269,0.00
 004797,0.00001751,-0.00025872,-0.00010954,-0.00046101,0.00002346,0.000
 02049,0.00012110,0.00000566,-0.00004505,-0.00007247,0.01358448,0.03301
 400,-0.02214618,-0.00016587,0.00047918,0.00284068,-0.00021357,0.000114
 57,0.00181219,-0.00010997,-0.00203539,-0.00717447,0.00163417,-0.000618
 11,0.00118447,0.00034528,0.00048945,-0.00084459,0.00006359,-0.00034010
 ,-0.00020811,0.00020161,-0.00015770,0.00006732,-0.00001048,0.00001669,
 -0.00002478,0.14193240,0.25194861,0.96832979,-0.02055901,0.00498797,-0
 .02019583,0.00133323,0.00025987,-0.00018287,0.00002514,-0.00002450,0.0
 0019558,-0.00251951,-0.00293246,0.00023760,0.00429694,-0.00114248,0.01
 367202,0.00024960,0.00041232,0.00042006,0.00007321,0.00007399,-0.00001
 443,-0.00016843,0.00006997,-0.00009315,-0.00000073,0.00001099,0.000021
 46,-0.00001714,0.00000332,-0.00001927,-0.00059033,-0.00380679,0.002072
 65,-0.00003181,0.00007200,-0.00025613,0.00006110,0.00001164,-0.0004780
 9,-0.00005690,0.00011645,0.00115255,0.00013741,0.00006595,0.00035190,-
 0.00001498,-0.00020826,-0.00009565,0.00000110,-0.00005830,-0.00004844,
 -0.00003198,0.00009571,-0.00002811,-0.00000273,-0.00000502,-0.00000647
 ,-0.09683702,0.01984075,-0.27816821,0.10819651,0.00128931,0.00141278,0
 .00167147,0.00038928,-0.00040388,-0.00099309,0.00002557,-0.00016801,-0
 .00012421,0.00028741,-0.00125483,-0.00013989,0.00937756,-0.00106992,0.
 03027324,-0.00002054,-0.00006116,0.00017363,0.00003312,0.00007296,-0.0
 0001025,-0.00006730,0.00001013,0.00008317,0.00000052,-0.00000118,-0.00
 001404,0.00000195,0.00000394,0.00000039,-0.00170259,-0.00464661,0.0017
 3736,0.00015349,-0.00013963,-0.00029982,-0.00019940,-0.00007968,0.0000
 3697,-0.00011999,0.00043567,0.00150378,-0.00000838,-0.00007656,0.00001
 507,-0.00002500,0.00011503,-0.00002741,0.00003184,-0.00006080,0.000006
 95,0.00001220,0.00003161,-0.00000416,-0.00000375,-0.00000155,0.0000021
 7,0.02098554,0.00084213,0.04355418,-0.01618920,-0.00209529,0.00780689,
 -0.00283991,0.01056143,-0.00134930,0.00029987,-0.00039960,-0.00002880,
 0.00008572,-0.00007971,0.00187629,0.00188048,0.00022551,-0.00296126,-0
 .00185113,-0.01012505,-0.00008669,-0.00030237,-0.00043725,-0.00005242,
 -0.00006030,0.00000998,0.00011969,-0.00003902,0.00005041,-0.00000175,-
 0.00000468,-0.00001155,0.00000867,-0.00000149,0.00001066,0.00115643,0.
 00372223,-0.00059686,0.00000982,-0.00018141,0.00055160,-0.00011822,-0.
 00009328,0.00037261,0.00000233,-0.00017080,-0.00095092,-0.00006764,0.0
 0003200,-0.00015900,0.00000587,-0.00003683,0.00008252,-0.00001488,0.00
 006333,0.00002204,0.00001679,-0.00003093,0.00001839,0.00000267,0.00000
 130,0.00000067,-0.26391721,0.03759182,-0.60215500,0.26891058,-0.044655
 96,0.61761362,-0.00026785,-0.00171276,-0.00018891,-0.00837406,-0.00431
 881,-0.00302741,-0.00016651,-0.00001551,0.00011447,0.00040918,0.003678
 91,-0.00020448,-0.03070831,0.03178676,-0.01032739,0.00019353,-0.000405
 79,0.00070409,0.00016040,0.00067594,-0.00018840,-0.00065792,-0.0001228
 9,0.00006326,-0.00002070,0.00001707,0.00000868,-0.00001669,0.00004794,
 -0.00000288,-0.00308366,0.00054503,0.00092485,0.00038695,-0.00016804,-
 0.00147725,-0.00034052,-0.00044873,-0.00017572,-0.00013070,0.00016492,
 -0.00002192,-0.00033568,-0.00077865,0.00029884,-0.00032089,0.00133306,
 -0.00030681,0.00008302,-0.00054840,0.00003831,0.00007318,0.00021171,-0
 .00005640,-0.00004683,0.00000188,0.00001797,-0.00296011,0.00146405,-0.
 00069212,-0.00077039,0.00020590,-0.00028548,0.77925245,-0.00006099,0.0
 0237567,-0.00092542,0.00126959,0.00234104,0.00012871,0.00022224,0.0001
 9894,-0.00000702,-0.00213004,-0.00195921,0.00047238,0.00182208,0.00207
 048,0.00316235,0.00008938,-0.00003247,0.00004069,-0.00004451,-0.000215
 14,0.00006035,0.00010743,0.00013778,-0.00003683,0.00001057,-0.00000705
 ,-0.00000579,-0.00004947,-0.00000428,-0.00000736,0.00189585,-0.0000567
 3,-0.00146800,-0.00042439,0.00030430,0.00082919,-0.00003584,0.00039201
 ,0.00053834,-0.00018888,-0.00016985,-0.00064424,0.00011814,0.00068811,
 -0.00013450,-0.00004606,-0.00085220,0.00021793,-0.00004425,0.00025640,
 -0.00004291,-0.00004923,-0.00008432,-0.00000016,0.00001971,0.00000678,
 -0.00001297,-0.00084181,-0.00063325,0.00129328,-0.00018664,-0.00031495
 ,-0.00150073,-0.04097808,0.41594036,-0.00022273,-0.00103966,0.00053568
 ,-0.00376037,-0.00239805,-0.00100537,-0.00002161,0.00001867,0.00004147
 ,0.00017659,0.00193852,-0.00014746,-0.01370147,0.01235808,0.00671953,-
 0.00007987,-0.00025437,0.00027811,0.00003538,0.00018587,-0.00005132,-0
 .00017288,-0.00004243,0.00002023,-0.00000504,0.00000261,-0.00000175,-0
 .00000650,0.00001255,-0.00000499,0.00078693,-0.00012332,0.00012194,-0.
 00025667,0.00021344,0.00028851,-0.00006879,0.00051800,0.00024857,0.000
 07632,-0.00009470,0.00007469,-0.00008664,-0.00026090,0.00011224,-0.000
 10430,0.00047273,-0.00013488,0.00001284,-0.00016485,0.00002261,0.00001
 209,0.00005440,-0.00003280,-0.00001782,0.00000535,-0.00000047,-0.00071
 990,0.00057833,-0.00105775,-0.00008760,-0.00018313,0.00093775,0.325250
 51,0.03965498,0.14199998,-0.00077928,-0.00200737,0.00089074,-0.0018020
 7,-0.00382485,-0.00062043,-0.00011975,0.00013343,0.00013179,0.00188739
 ,-0.00024891,-0.00061973,-0.00525782,-0.03703153,-0.01069207,0.0004990
 5,-0.00014894,-0.00010961,0.00012222,0.00051701,-0.00014762,-0.0005655
 5,-0.00008347,0.00005949,-0.00002432,0.00001117,0.00000109,-0.00004648
 ,0.00004588,-0.00001050,-0.00469807,-0.00137739,0.00109786,0.00041195,
 -0.00003233,-0.00213673,-0.00010048,-0.00031648,-0.00015710,-0.0001853
 2,0.00032202,-0.00011053,-0.00029313,-0.00024423,0.00014062,-0.0002781
 9,0.00055549,-0.00010989,0.00007489,-0.00030464,0.00007242,0.00003624,
 0.00015613,-0.00004996,-0.00002416,-0.00000782,0.00000152,-0.00460330,
 -0.00032300,-0.00302880,-0.00014909,0.00022960,0.00043265,0.03352216,0
 .04221403,0.00399063,0.15189271,-0.00060260,0.00129162,-0.00030009,0.0
 0568171,0.00067336,0.00187568,0.00022738,0.00041168,0.00012260,-0.0019
 7310,-0.00088780,0.00040943,-0.01637827,-0.02704188,-0.00987865,0.0004
 2400,-0.00046084,0.00006466,0.00006133,0.00025183,-0.00007311,-0.00042
 230,0.00012250,0.00000791,-0.00000159,0.00000122,-0.00001050,-0.000106
 99,0.00003602,-0.00001919,-0.00256678,-0.00010629,0.00253759,0.0003813
 3,0.00051274,-0.00159122,0.00011725,0.00017935,0.00054313,-0.00016443,
 -0.00003460,-0.00138510,-0.00015407,0.00054421,-0.00001539,-0.00039206
 ,-0.00038406,0.00012826,0.00002480,-0.00001718,0.00002413,-0.00003435,
 0.00006498,-0.00004880,-0.00000297,0.00000869,-0.00001388,-0.00143736,
 0.00198238,-0.00158820,0.00010614,-0.00029188,-0.00028655,0.02487229,-
 0.10377511,-0.00283488,0.19588880,0.89183680,-0.00079536,-0.00059988,0
 .00019795,-0.00082320,-0.00020840,0.00106824,-0.00000930,0.00013811,0.
 00017110,-0.00063779,-0.00077919,-0.00007214,-0.00961049,-0.01837655,0
 .01899848,0.00019735,-0.00009973,0.00012073,0.00003180,0.00014383,-0.0
 0005120,-0.00017334,0.00002086,-0.00000436,-0.00000676,0.00000260,-0.0
 0001098,-0.00001536,0.00001297,-0.00001714,0.00299639,0.00130435,0.001
 31820,-0.00032488,-0.00004644,0.00080159,0.00002150,0.00011703,-0.0001
 4933,0.00035896,0.00020705,0.00059994,-0.00013842,0.00006916,0.0000603
 9,-0.00015412,0.00001383,-0.00001630,0.00000972,-0.00006193,0.00003178
 ,-0.00002114,0.00006274,-0.00003866,-0.00000721,-0.00000251,-0.0000054
 2,-0.00432090,0.00016579,-0.00236329,0.00005924,0.00005236,-0.00016187
 ,0.00321759,0.00235768,0.03279820,0.05141456,0.12613220,0.05355987,0.0
 0044443,0.00341116,-0.00156940,-0.03088797,0.00787064,-0.00584582,0.00
 029737,-0.00031366,-0.00030998,-0.00373058,-0.00287821,0.00024835,-0.1
 6997645,-0.03289138,-0.02608968,-0.00109902,0.00079707,0.00061256,-0.0
 0021988,-0.00110194,0.00031109,0.00109873,0.00017094,-0.00017079,0.000
 03700,-0.00001817,0.00000994,0.00007649,-0.00008518,0.00002398,0.00780
 182,-0.00202076,-0.01094312,-0.00054652,0.00050098,0.00571820,0.000621
 31,0.00129738,0.00142487,0.00056102,-0.00033158,0.00127725,0.00054255,
 0.00084520,-0.00034708,0.00065275,-0.00152555,0.00040876,-0.00021692,0
 .00073228,-0.00019510,-0.00007694,-0.00031909,0.00009873,0.00005935,0.
 00001365,-0.00000651,-0.00672571,-0.00907333,0.00244887,0.00108302,0.0
 0023033,-0.00232247,-0.23058919,0.10844546,-0.05394520,-0.17388666,-0.
 19718432,-0.04464743,0.63498026,-0.00012148,-0.00537330,0.00207138,0.0
 2149497,0.00481130,0.00629345,-0.00050624,-0.00047377,-0.00005866,0.00
 764547,-0.00267291,-0.00094426,-0.02714475,-0.07768274,-0.00667806,-0.
 00011932,0.00117407,-0.00148416,-0.00005798,-0.00028404,0.00006899,0.0
 0047393,-0.00020947,-0.00003661,-0.00001160,0.00000576,0.00001783,0.00
 014593,-0.00004317,0.00002003,-0.00459456,-0.00196765,-0.00539323,0.00
 043306,-0.00071065,0.00009730,-0.00073133,-0.00077214,-0.00194456,0.00
 121779,0.00096767,0.00379485,-0.00008722,-0.00052532,-0.00003669,0.000
 55048,0.00003508,-0.00006453,0.00003037,0.00012526,0.00008032,0.000013
 76,0.00001755,0.00007453,0.00002304,-0.00004376,0.00001500,-0.02640403
 ,-0.01208661,-0.00650793,-0.00133724,0.00144844,0.00105297,0.13864369,
 -0.26197206,0.02835021,-0.18670187,-0.76410608,-0.10770726,0.08409465,
 1.10513447,0.00288600,0.00223002,-0.00116676,0.00716303,0.00394448,0.0
 0208042,-0.00002475,-0.00016266,-0.00014212,0.00210003,-0.00126298,0.0
 0034210,-0.03314573,-0.00788918,-0.09645318,0.00013506,0.00052399,-0.0
 0067216,-0.00009673,-0.00031104,0.00009397,0.00039220,-0.00001965,-0.0
 0001383,0.00001565,-0.00001059,0.00001116,0.00003843,-0.00003321,0.000
 01657,-0.03273464,-0.01142115,-0.02189926,0.00182141,-0.00049138,-0.00
 616437,-0.00029311,-0.00037125,0.00154281,-0.00104800,-0.00008921,0.00
 073121,0.00034663,-0.00009406,-0.00011061,0.00032381,-0.00029417,0.000
 06353,0.00004814,0.00018403,-0.00005800,0.00002400,-0.00015740,0.00005
 920,0.00002579,-0.00001370,0.00000627,0.01553587,0.00343819,0.00596296
 ,0.00200670,0.00113396,0.00020065,-0.04771055,0.01368940,-0.07256416,-
 0.04410002,-0.11246036,-0.10228060,0.13856155,0.09106640,0.29255788,0.
 00033555,-0.00001934,-0.00007091,-0.00048896,-0.00044527,-0.00049281,0
 .00006030,-0.00000148,-0.00000830,-0.00013454,0.00061664,-0.00013744,0
 .00055076,0.00482178,-0.00035799,-0.00015596,-0.00005774,0.00017104,-0
 .00002249,-0.00006456,0.00001786,0.00005627,0.00001231,-0.00001364,0.0
 0000514,-0.00000325,0.00000074,-0.00000165,-0.00000474,0.00000041,0.00
 003169,-0.00021012,-0.00017776,0.00009190,-0.00014393,-0.00003042,-0.0
 0002563,-0.00008789,-0.00038338,-0.00004189,-0.00002844,-0.00003115,0.
 00007397,0.00001003,-0.00001094,0.00003635,0.00000028,-0.00000816,-0.0
 0001079,0.00003434,-0.00001565,-0.00000876,-0.00003669,0.00000301,0.00
 000031,0.00000636,-0.00000216,0.00045614,0.00029050,-0.00013594,-0.000
 02396,-0.00017858,0.00023624,-0.53485505,-0.11186221,-0.25701241,0.004
 77025,-0.00677302,0.00365893,-0.03147530,-0.00549916,-0.01285915,0.560
 83710,-0.00002454,-0.00004803,0.00001900,0.00069213,0.00016816,0.00006
 814,-0.00004069,-0.00002138,0.00000640,0.00022579,-0.00008488,-0.00002
 173,0.00211580,-0.00347231,-0.00033507,0.00007141,0.00005169,-0.000014
 98,0.00001101,0.00003213,-0.00000838,-0.00002055,-0.00000671,0.0000018
 9,-0.00000118,0.00000228,0.00000045,0.00000529,0.00000125,0.00000017,-
 0.00026035,-0.00003110,-0.00002498,-0.00000382,0.00000859,-0.00004242,
 0.00003826,0.00002122,0.00024505,-0.00000168,0.00002398,0.00008728,-0.
 00004328,-0.00006666,0.00003140,-0.00000120,0.00006770,-0.00001829,0.0
 0000940,-0.00003003,0.00000282,0.00000089,0.00002761,-0.00000777,-0.00
 000198,-0.00000369,0.00000191,-0.00013421,-0.00005341,-0.00024415,0.00
 023944,0.00018027,-0.00010426,-0.15421822,-0.05517616,-0.07705711,-0.0
 0693629,-0.00092584,-0.00257660,0.03851230,0.01713816,0.01803663,0.119
 70474,0.04197877,-0.00000198,0.00007718,-0.00002796,-0.00023227,-0.000
 51241,0.00009770,0.00002031,-0.00001461,-0.00003538,-0.00008107,0.0001
 5684,-0.00011293,-0.00022913,0.00080483,0.00578384,-0.00008946,-0.0000
 2918,0.00002182,-0.00000411,-0.00003124,0.00000807,0.00002138,0.000001
 86,-0.00000100,0.00000025,-0.00000002,0.00000274,-0.00000140,0.0000000
 5,0.00000518,0.00127422,0.00035099,0.00051192,-0.00000862,0.00001907,0
 .00024533,-0.00009171,-0.00011606,-0.00000993,-0.00012417,0.00004295,-
 0.00016267,0.00001735,0.00004021,-0.00004405,0.00002190,-0.00003333,0.
 00002619,-0.00001761,0.00002006,-0.00000500,0.00000713,-0.00001342,0.0
 0002052,0.00000140,0.00000408,0.00000238,0.00009822,-0.00055497,-0.000
 07368,-0.00013898,-0.00006143,0.00007252,-0.26616028,-0.05822516,-0.10
 900861,0.00359081,-0.00155020,-0.00476442,-0.00537907,-0.00225977,-0.0
 0197696,0.26760611,0.06192669,0.10939564,-0.00891193,0.02250351,0.0114
 2870,-0.00028382,-0.00141015,0.00117304,-0.00037788,0.00059760,-0.0001
 2372,-0.00711465,0.00068196,0.00212212,0.00337428,-0.01170460,-0.00684
 439,0.00146648,0.00048635,-0.00080285,0.00000939,0.00001079,-0.0000163
 5,0.00000395,0.00014594,-0.00001731,-0.00001006,0.00000408,-0.00000693
 ,-0.00003483,0.00002462,0.00000799,0.00123417,-0.00020426,-0.00061500,
 -0.00011781,0.00026125,0.00009283,-0.00011826,0.00000729,0.00006653,-0
 .00012752,-0.00004238,-0.00000038,-0.00042636,0.00001345,-0.00015793,0
 .00007612,-0.00032106,0.00016032,-0.00002279,0.00003082,0.00005438,-0.
 00009253,0.00011229,-0.00001496,0.00000009,-0.00000321,0.00000413,-0.0
 2051559,0.16970270,0.11000367,0.00631675,-0.01473891,-0.00937881,-0.00
 043580,0.00072795,-0.00007148,-0.00040318,0.00040918,-0.00028034,0.001
 17504,-0.00145035,0.00058839,-0.00006074,0.00006153,-0.00009921,0.0253
 9750,-0.00456856,0.00488637,0.00241294,0.00081624,-0.00408757,0.001044
 22,0.00010776,-0.00011399,0.00005928,-0.00318733,-0.00244979,0.0020138
 4,0.00746647,-0.01980797,-0.01365416,0.00012191,0.00022494,-0.00038976
 ,0.00001871,-0.00006756,0.00000678,0.00008599,0.00008547,-0.00006907,0
 .00000822,0.00000452,0.00000790,-0.00000723,-0.00000022,0.00000268,0.0
 0125209,0.00317302,-0.00233865,0.00000031,-0.00018064,0.00064834,-0.00
 035161,0.00001207,0.00098158,-0.00018561,0.00022139,-0.00069239,-0.000
 09308,0.00013111,-0.00006400,0.00002158,-0.00027066,0.00010172,-0.0000
 0183,0.00005213,0.00000869,-0.00003389,0.00002134,-0.00000711,0.000006
 22,-0.00000381,-0.00000137,0.16458282,-0.50912585,-0.35216287,-0.00047
 561,0.00611298,0.00742994,0.00006671,0.00054090,0.00008966,-0.00048445
 ,0.00011418,-0.00034204,0.00082113,-0.00193409,0.00083489,-0.00008058,
 0.00021842,-0.00004300,-0.16590638,0.52224331,-0.00032129,0.00184443,0
 .00115005,-0.00118423,0.00474221,-0.00051221,-0.00019133,0.00029597,-0
 .00007595,-0.00038593,0.00333897,-0.00088009,-0.00546233,0.01902417,0.
 00856244,0.00041170,0.00010628,0.00009630,-0.00001085,0.00003909,-0.00
 000151,-0.00004978,0.00000494,0.00002951,-0.00000961,-0.00000240,-0.00
 000465,-0.00000732,0.00000950,-0.00000353,-0.00050245,0.00040832,0.000
 93441,-0.00041870,0.00022242,-0.00002385,0.00053236,0.00024164,0.00005
 246,-0.00008551,-0.00014170,0.00001460,-0.00001418,-0.00007724,0.00003
 868,0.00000185,0.00012694,-0.00006702,-0.00001954,-0.00003615,-0.00000
 326,0.00000580,-0.00000984,0.00000813,-0.00000655,0.00000419,0.0000027
 2,0.10333978,-0.35144915,-0.20774930,0.01071291,-0.03373131,-0.0156535
 7,0.00018743,0.00056581,-0.00018995,0.00006882,0.00021053,0.00020925,0
 .00062750,0.00011246,-0.00016671,0.00005390,0.00002793,0.00002874,-0.1
 0727245,0.35412199,0.21420433\\0.00425426,0.02174182,-0.00337412,0.007
 01883,0.01091508,0.00336231,0.01346159,0.00379253,-0.00034418,-0.03238
 284,-0.02481483,0.00901071,0.01968176,-0.01509460,0.00129105,-0.006798
 21,-0.01739148,0.00547868,-0.06603980,0.05689645,-0.00764315,0.0228144
 0,0.13571546,-0.03633011,0.07754694,-0.07762712,0.01173136,-0.03871851
 ,-0.11863243,0.03359080,0.01575060,-0.02294957,-0.13967128,0.12622039,
 0.03754600,0.04384242,-0.10541564,0.11151188,0.03525843,-0.03796104,-0
 .12661485,0.05999898,0.07298107,0.02554085,-0.04180289,-0.00035981,-0.
 00545824,-0.00277812,-0.11707639,-0.01684002,0.01804915,-0.07832304,-0
 .01840550,0.04467404,0.12649630,0.03009878,-0.02477394,0.08096404,-0.1
 2498712,0.03552448,-0.04782700,0.00937888,-0.12469126,0.03471683,0.041
 31058,0.01767331,-0.00778900,-0.00235588,-0.00294177,0.01361246,-0.019
 66420,0.00024437,-0.04238213,-0.02116054,-0.01784644,-0.03444605,0.127
 54805,0.08246713\\\@
 The archive entry for this job was punched.

 Writing a WFNX file to "SENBES_Complex_1_Ligand_0_NN_Cu_oriented.wfx"


 Life may have no meaning.  Or even worse, it may have a
 meaning of which I disapprove.
                                 -- Ashleigh Brilliant
 Job cpu time:       0 days  0 hours 23 minutes 57.4 seconds.
 Elapsed time:       0 days  0 hours 24 minutes  3.0 seconds.
 File lengths (MBytes):  RWF=    452 Int=      0 D2E=      0 Chk=     12 Scr=      8
 Normal termination of Gaussian 16 at Sat Mar  4 11:58:12 2023.
