 Entering Gaussian System, Link 0=g16
 Initial command:
 /ssoft/spack/external/gaussian/g16-C.01/avx2/g16/l1.exe "/scratch/lcmd/2387818/Gau-3435453.inp" -scrdir="/scratch/lcmd/2387818/"
 Entering Link 1 = /ssoft/spack/external/gaussian/g16-C.01/avx2/g16/l1.exe PID=   3435454.
  
 Copyright (c) 1988-2019, Gaussian, Inc.  All Rights Reserved.
  
 This is part of the Gaussian(R) 16 program.  It is based on
 the Gaussian(R) 09 system (copyright 2009, Gaussian, Inc.),
 the Gaussian(R) 03 system (copyright 2003, Gaussian, Inc.),
 the Gaussian(R) 98 system (copyright 1998, Gaussian, Inc.),
 the Gaussian(R) 94 system (copyright 1995, Gaussian, Inc.),
 the Gaussian 92(TM) system (copyright 1992, Gaussian, Inc.),
 the Gaussian 90(TM) system (copyright 1990, Gaussian, Inc.),
 the Gaussian 88(TM) system (copyright 1988, Gaussian, Inc.),
 the Gaussian 86(TM) system (copyright 1986, Carnegie Mellon
 University), and the Gaussian 82(TM) system (copyright 1983,
 Carnegie Mellon University). Gaussian is a federally registered
 trademark of Gaussian, Inc.
  
 This software contains proprietary and confidential information,
 including trade secrets, belonging to Gaussian, Inc.
  
 This software is provided under written license and may be
 used, copied, transmitted, or stored only in accord with that
 written license.
  
 The following legend is applicable only to US Government
 contracts under FAR:
  
                    RESTRICTED RIGHTS LEGEND
  
 Use, reproduction and disclosure by the US Government is
 subject to restrictions as set forth in subparagraphs (a)
 and (c) of the Commercial Computer Software - Restricted
 Rights clause in FAR 52.227-19.
  
 Gaussian, Inc.
 340 Quinnipiac St., Bldg. 40, Wallingford CT 06492
  
  
 ---------------------------------------------------------------
 Warning -- This program may not be used in any manner that
 competes with the business of Gaussian, Inc. or will provide
 assistance to any competitor of Gaussian, Inc.  The licensee
 of this program is prohibited from giving any competitor of
 Gaussian, Inc. access to this program.  By using this program,
 the user acknowledges that Gaussian, Inc. is engaged in the
 business of creating and licensing software in the field of
 computational chemistry and represents and warrants to the
 licensee that it is not a competitor of Gaussian, Inc. and that
 it will not use this program in any manner prohibited above.
 ---------------------------------------------------------------
  

 Cite this work as:
 Gaussian 16, Revision C.01,
 M. J. Frisch, G. W. Trucks, H. B. Schlegel, G. E. Scuseria, 
 M. A. Robb, J. R. Cheeseman, G. Scalmani, V. Barone, 
 G. A. Petersson, H. Nakatsuji, X. Li, M. Caricato, A. V. Marenich, 
 J. Bloino, B. G. Janesko, R. Gomperts, B. Mennucci, H. P. Hratchian, 
 J. V. Ortiz, A. F. Izmaylov, J. L. Sonnenberg, D. Williams-Young, 
 F. Ding, F. Lipparini, F. Egidi, J. Goings, B. Peng, A. Petrone, 
 T. Henderson, D. Ranasinghe, V. G. Zakrzewski, J. Gao, N. Rega, 
 G. Zheng, W. Liang, M. Hada, M. Ehara, K. Toyota, R. Fukuda, 
 J. Hasegawa, M. Ishida, T. Nakajima, Y. Honda, O. Kitao, H. Nakai, 
 T. Vreven, K. Throssell, J. A. Montgomery, Jr., J. E. Peralta, 
 F. Ogliaro, M. J. Bearpark, J. J. Heyd, E. N. Brothers, K. N. Kudin, 
 V. N. Staroverov, T. A. Keith, R. Kobayashi, J. Normand, 
 K. Raghavachari, A. P. Rendell, J. C. Burant, S. S. Iyengar, 
 J. Tomasi, M. Cossi, J. M. Millam, M. Klene, C. Adamo, R. Cammi, 
 J. W. Ochterski, R. L. Martin, K. Morokuma, O. Farkas, 
 J. B. Foresman, and D. J. Fox, Gaussian, Inc., Wallingford CT, 2019.
 
 ******************************************
 Gaussian 16:  ES64L-G16RevC.01  3-Jul-2019
                 6-Mar-2023 
 ******************************************
 %nprocshared=1
 Will use up to    1 processors via shared memory.
 %mem=8000MB
 %chk=SOPDEG_Complex_0_Ligand_1_ON_Cu_oriented.chk
 ----------------------------------------------------------------------
 #p pop=(regular,nbo,savenbos) freq=noraman def2svp empiricaldispersion
 =gd3bj output=wfx pbe1pbe
 ----------------------------------------------------------------------
 1/10=4,30=1,38=1/1,3;
 2/12=2,17=6,18=5,40=1/2;
 3/5=43,7=101,11=2,25=1,30=1,71=2,74=-13,124=41,140=1/1,2,3;
 4//1;
 5/5=2,38=5,98=1/2;
 8/6=4,10=90,11=11/1;
 11/6=1,8=1,9=11,15=111,16=1/1,2,10;
 10/6=1/2;
 6/28=1,40=1,73=1/1,7;
 7/8=1,10=1,25=1/1,2,3,16;
 1/10=4,30=1/3;
 99/6=200/99;
 Leave Link    1 at Mon Mar  6 10:21:34 2023, MaxMem=  1048576000 cpu:               0.0 elap:               0.1
 (Enter /ssoft/spack/external/gaussian/g16-C.01/avx2/g16/l101.exe)
 ----------------------------------------
 SOPDEG_Complex_0_Ligand_1_ON_Cu_oriented
 ----------------------------------------
 Symbolic Z-matrix:
 Charge = -1 Multiplicity = 1
 O                    -1.00538  -1.62567   0. 
 N                    -1.80473   0.88327   0. 
 C                    -2.26229  -1.5096   -0.21045 
 C                    -2.75888  -0.09737  -0.60428 
 C                    -2.91507   0.01365  -2.13631 
 C                    -4.03221  -0.89541  -2.61858 
 C                    -4.51904  -0.49887  -4.0524 
 C                    -1.62491  -0.21994  -2.89734 
 C                    -2.1011    0.98247   1.46335 
 C                    -1.90135   2.25108  -0.57525 
 H                    -3.74517   0.11574  -0.22053 
 H                    -3.18479   1.03722  -2.34915 
 H                    -3.67115  -1.91297  -2.64108 
 H                    -5.31119  -1.16486  -4.36117 
 H                    -3.69454  -0.5734   -4.7466 
 H                    -4.88699   0.5167   -4.03924 
 H                    -0.86061   0.44427  -2.52244 
 H                    -1.78617  -0.02691  -3.94776 
 H                    -1.30918  -1.2439   -2.76416 
 H                    -2.03873   0.0013    1.91027 
 H                    -3.095     1.37912   1.60334 
 H                    -1.38191   1.63807   1.93267 
 H                    -1.69064   2.21185  -1.63356 
 H                    -1.18298   2.89639  -0.08999 
 H                    -2.89616   2.63808  -0.41914 
 O                    -3.06768  -2.42712  -0.14019 
 H                    -4.8636   -0.82287  -1.93371 
 
 ITRead=  0  0  0  0  0  0  0  0  0  0  0  0  0  0  0  0  0  0  0  0
 ITRead=  0  0  0  0  0  0  0
 MicOpt= -1 -1 -1 -1 -1 -1 -1 -1 -1 -1 -1 -1 -1 -1 -1 -1 -1 -1 -1 -1
 MicOpt= -1 -1 -1 -1 -1 -1 -1
 NAtoms=     27 NQM=       27 NQMF=       0 NMMI=      0 NMMIF=      0
                NMic=       0 NMicF=      0.
                    Isotopes and Nuclear Properties:
 (Nuclear quadrupole moments (NQMom) in fm**2, nuclear magnetic moments (NMagM)
  in nuclear magnetons)

  Atom         1           2           3           4           5           6           7           8           9          10
 IAtWgt=          16          14          12          12          12          12          12          12          12          12
 AtmWgt=  15.9949146  14.0030740  12.0000000  12.0000000  12.0000000  12.0000000  12.0000000  12.0000000  12.0000000  12.0000000
 NucSpn=           0           2           0           0           0           0           0           0           0           0
 AtZEff=  -0.0000000  -0.0000000  -0.0000000  -0.0000000  -0.0000000  -0.0000000  -0.0000000  -0.0000000  -0.0000000  -0.0000000
 NQMom=    0.0000000   2.0440000   0.0000000   0.0000000   0.0000000   0.0000000   0.0000000   0.0000000   0.0000000   0.0000000
 NMagM=    0.0000000   0.4037610   0.0000000   0.0000000   0.0000000   0.0000000   0.0000000   0.0000000   0.0000000   0.0000000
 AtZNuc=   8.0000000   7.0000000   6.0000000   6.0000000   6.0000000   6.0000000   6.0000000   6.0000000   6.0000000   6.0000000

  Atom        11          12          13          14          15          16          17          18          19          20
 IAtWgt=           1           1           1           1           1           1           1           1           1           1
 AtmWgt=   1.0078250   1.0078250   1.0078250   1.0078250   1.0078250   1.0078250   1.0078250   1.0078250   1.0078250   1.0078250
 NucSpn=           1           1           1           1           1           1           1           1           1           1
 AtZEff=  -0.0000000  -0.0000000  -0.0000000  -0.0000000  -0.0000000  -0.0000000  -0.0000000  -0.0000000  -0.0000000  -0.0000000
 NQMom=    0.0000000   0.0000000   0.0000000   0.0000000   0.0000000   0.0000000   0.0000000   0.0000000   0.0000000   0.0000000
 NMagM=    2.7928460   2.7928460   2.7928460   2.7928460   2.7928460   2.7928460   2.7928460   2.7928460   2.7928460   2.7928460
 AtZNuc=   1.0000000   1.0000000   1.0000000   1.0000000   1.0000000   1.0000000   1.0000000   1.0000000   1.0000000   1.0000000

  Atom        21          22          23          24          25          26          27
 IAtWgt=           1           1           1           1           1          16           1
 AtmWgt=   1.0078250   1.0078250   1.0078250   1.0078250   1.0078250  15.9949146   1.0078250
 NucSpn=           1           1           1           1           1           0           1
 AtZEff=  -0.0000000  -0.0000000  -0.0000000  -0.0000000  -0.0000000  -0.0000000  -0.0000000
 NQMom=    0.0000000   0.0000000   0.0000000   0.0000000   0.0000000   0.0000000   0.0000000
 NMagM=    2.7928460   2.7928460   2.7928460   2.7928460   2.7928460   0.0000000   2.7928460
 AtZNuc=   1.0000000   1.0000000   1.0000000   1.0000000   1.0000000   8.0000000   1.0000000
 Leave Link  101 at Mon Mar  6 10:21:34 2023, MaxMem=  1048576000 cpu:               0.1 elap:               0.1
 (Enter /ssoft/spack/external/gaussian/g16-C.01/avx2/g16/l103.exe)

 GradGradGradGradGradGradGradGradGradGradGradGradGradGradGradGradGradGrad
 Berny optimization.
 Initialization pass.
 Trust Radius=3.00D-01 FncErr=1.00D-07 GrdErr=1.00D-07 EigMax=2.50D+02 EigMin=1.00D-04
 Number of steps in this run=      2 maximum allowed number of steps=      2.
 GradGradGradGradGradGradGradGradGradGradGradGradGradGradGradGradGradGrad

 Leave Link  103 at Mon Mar  6 10:21:34 2023, MaxMem=  1048576000 cpu:               0.1 elap:               0.1
 (Enter /ssoft/spack/external/gaussian/g16-C.01/avx2/g16/l202.exe)
                          Input orientation:                          
 ---------------------------------------------------------------------
 Center     Atomic      Atomic             Coordinates (Angstroms)
 Number     Number       Type             X           Y           Z
 ---------------------------------------------------------------------
      1          8           0       -1.005379   -1.625668    0.000000
      2          7           0       -1.804728    0.883271    0.000000
      3          6           0       -2.262291   -1.509603   -0.210446
      4          6           0       -2.758880   -0.097366   -0.604281
      5          6           0       -2.915068    0.013647   -2.136308
      6          6           0       -4.032212   -0.895406   -2.618577
      7          6           0       -4.519042   -0.498869   -4.052396
      8          6           0       -1.624910   -0.219945   -2.897344
      9          6           0       -2.101103    0.982471    1.463349
     10          6           0       -1.901347    2.251078   -0.575252
     11          1           0       -3.745172    0.115736   -0.220527
     12          1           0       -3.184794    1.037222   -2.349155
     13          1           0       -3.671152   -1.912972   -2.641079
     14          1           0       -5.311191   -1.164855   -4.361175
     15          1           0       -3.694540   -0.573400   -4.746604
     16          1           0       -4.886991    0.516703   -4.039236
     17          1           0       -0.860609    0.444275   -2.522438
     18          1           0       -1.786170   -0.026905   -3.947758
     19          1           0       -1.309175   -1.243897   -2.764156
     20          1           0       -2.038727    0.001302    1.910272
     21          1           0       -3.094998    1.379116    1.603340
     22          1           0       -1.381912    1.638075    1.932671
     23          1           0       -1.690639    2.211849   -1.633564
     24          1           0       -1.182976    2.896389   -0.089987
     25          1           0       -2.896158    2.638081   -0.419138
     26          8           0       -3.067684   -2.427117   -0.140191
     27          1           0       -4.863603   -0.822869   -1.933710
 ---------------------------------------------------------------------
                    Distance matrix (angstroms):
                    1          2          3          4          5
     1  O    0.000000
     2  N    2.633199   0.000000
     3  C    1.279682   2.445301   0.000000
     4  C    2.403254   1.495731   1.547940   0.000000
     5  C    3.301224   2.559866   2.540738   1.543965   0.000000
     6  C    4.068408   3.870701   3.051057   2.513092   1.518872
     7  C    5.480640   5.069490   4.568926   3.892156   2.550843
     8  C    3.279402   3.105482   3.047768   2.561065   1.515997
     9  C    3.185026   1.496352   3.006327   2.423595   3.815586
    10  C    4.020303   1.486992   3.795534   2.500279   2.910433
    11  H    3.253857   2.098349   2.200173   1.079561   2.090386
    12  H    4.166457   2.728885   3.451290   2.124448   1.079704
    13  H    3.763533   4.275256   2.838233   2.877014   2.130332
    14  H    6.145910   5.959023   5.161704   4.665627   3.475673
    15  H    5.555997   5.312582   4.848148   4.273279   2.786727
    16  H    5.997674   5.094128   5.065036   4.087157   2.786158
    17  H    3.266239   2.728878   3.335814   2.752478   2.134324
    18  H    4.330181   4.051365   4.048775   3.482810   2.134808
    19  H    2.806884   3.522921   2.738697   2.842752   2.134128
    20  H    2.713665   2.117018   2.613476   2.617505   4.140403
    21  H    3.995739   2.116921   3.511113   2.677043   3.985203
    22  H    3.811694   2.117480   3.908439   3.368074   4.641759
    23  H    4.226660   2.108712   4.025078   2.744638   2.565945
    24  H    4.526437   2.108866   4.537862   3.422066   3.936721
    25  H    4.682977   2.108614   4.201026   2.745139   3.136349
    26  O    2.216997   3.545897   1.222876   2.395512   3.156756
    27  H    4.389717   4.000858   3.195006   2.592989   2.130163
                    6          7          8          9         10
     6  C    0.000000
     7  C    1.565274   0.000000
     8  C    2.515762   3.128569   0.000000
     9  C    4.890575   6.201955   4.548429   0.000000
    10  C    4.314640   5.148307   3.402129   2.409390   0.000000
    11  H    2.618291   3.957252   3.431260   2.507914   2.843450
    12  H    2.127383   2.653455   2.077069   3.963909   2.503480
    13  H    1.079958   2.170351   2.668168   5.262601   4.973847
    14  H    2.178311   1.079992   4.077294   6.988616   6.134235
    15  H    2.178580   1.080408   2.797867   6.597219   5.347279
    16  H    2.177837   1.080253   3.533800   6.185188   4.890941
    17  H    3.444278   4.076079   1.079767   4.208917   2.852930
    18  H    2.750585   2.775299   1.080110   5.513448   4.071396
    19  H    2.749103   3.538061   1.079772   4.843105   4.166151
    20  H    5.028771   6.477310   4.830462   1.079965   3.355324
    21  H    4.886348   6.127159   4.997430   1.079236   2.632752
    22  H    5.844354   7.087253   5.180766   1.080423   2.633489
    23  H    4.013509   4.604195   2.741365   3.357190   1.079796
    24  H    5.374906   6.193367   4.217593   2.630379   1.080724
    25  H    4.314358   5.067028   3.990725   2.630002   1.078791
    26  O    3.069014   4.596731   3.815115   3.889847   4.840984
    27  H    1.079591   2.170836   3.432381   4.736103   4.479901
                   11         12         13         14         15
    11  H    0.000000
    12  H    2.386256   0.000000
    13  H    3.159146   3.004232   0.000000
    14  H    4.608394   3.663186   2.491614   0.000000
    15  H    4.578520   2.932867   2.495644   1.764068   0.000000
    16  H    4.005879   2.454545   3.055557   1.763867   1.763699
    17  H    3.705056   2.404880   3.670128   5.077197   3.743493
    18  H    4.213109   2.375720   2.969480   3.727146   2.139787
    19  H    3.775279   2.982227   2.457995   4.309623   3.173269
    20  H    2.732280   4.530929   5.200389   7.169379   6.883749
    21  H    2.312000   3.968270   5.402303   6.852644   6.670349
    22  H    3.541013   4.684596   6.226535   7.931466   7.406186
    23  H    3.257526   2.030842   4.685261   5.652468   4.632953
    24  H    3.783374   3.545082   5.985736   7.195756   6.327042
    25  H    2.668800   2.524089   5.123448   5.986181   5.447751
    26  O    2.632783   4.110338   2.623539   4.944020   5.004823
    27  H    2.250969   2.539868   1.763699   2.491962   3.056356
                   16         17         18         19         20
    16  H    0.000000
    17  H    4.303217   0.000000
    18  H    3.149439   1.763579   0.000000
    19  H    4.186444   1.763396   1.763380   0.000000
    20  H    6.616260   4.607940   5.863539   4.892141   0.000000
    21  H    5.982780   4.784189   5.874062   5.398553   1.763033
    22  H    7.014751   4.641650   6.124951   5.511011   1.763784
    23  H    4.344818   2.145546   3.221280   3.655946   4.191236
    24  H    5.914321   3.468948   4.877692   4.930423   3.621447
    25  H    4.644219   3.657884   4.559099   4.804933   3.621318
    26  O    5.213301   4.334879   4.679835   3.373063   3.340714
    27  H    2.495644   4.239837   3.763049   3.674352   4.841010
                   21         22         23         24         25
    21  H    0.000000
    22  H    1.763571   0.000000
    23  H    3.625357   3.625267   0.000000
    24  H    2.970740   2.390414   1.763219   0.000000
    25  H    2.390595   2.970515   1.763457   1.763534   0.000000
    26  O    4.186651   4.864604   5.064230   5.647509   5.075772
    27  H    4.526303   5.755634   4.400830   5.547900   4.259453
                   26         27
    26  O    0.000000
    27  H    3.002607   0.000000
 Stoichiometry    C8H16NO2(1-)
 Framework group  C1[X(C8H16NO2)]
 Deg. of freedom    75
 Full point group                 C1      NOp   1
 Largest Abelian subgroup         C1      NOp   1
 Largest concise Abelian subgroup C1      NOp   1
                         Standard orientation:                         
 ---------------------------------------------------------------------
 Center     Atomic      Atomic             Coordinates (Angstroms)
 Number     Number       Type             X           Y           Z
 ---------------------------------------------------------------------
      1          8           0        1.271166    1.662312    1.137711
      2          7           0        1.581441   -0.731307    0.085069
      3          6           0        0.577251    1.498267    0.075093
      4          6           0        0.391723    0.036004   -0.397651
      5          6           0       -0.969460   -0.517430    0.076392
      6          6           0       -2.105488    0.218245   -0.612952
      7          6           0       -3.450020   -0.577225   -0.515254
      8          6           0       -1.130675   -0.525534    1.583771
      9          6           0        2.742889   -0.395906   -0.796756
     10          6           0        1.400314   -2.206889    0.053534
     11          1           0        0.352999   -0.048770   -1.473181
     12          1           0       -1.002312   -1.556629   -0.214724
     13          1           0       -2.234844    1.182204   -0.143527
     14          1           0       -4.232490   -0.025403   -1.014870
     15          1           0       -3.712985   -0.714708    0.523606
     16          1           0       -3.332223   -1.541965   -0.986792
     17          1           0       -0.303592   -1.056126    2.031325
     18          1           0       -2.056795   -1.016425    1.844473
     19          1           0       -1.146840    0.490402    1.949174
     20          1           0        2.899420    0.672652   -0.794475
     21          1           0        2.538355   -0.727469   -1.803226
     22          1           0        3.629770   -0.890324   -0.427554
     23          1           0        0.567264   -2.480520    0.683705
     24          1           0        2.297917   -2.686793    0.416805
     25          1           0        1.206787   -2.524507   -0.959114
     26          8           0        0.050629    2.401613   -0.558992
     27          1           0       -1.854083    0.354946   -1.653925
 ---------------------------------------------------------------------
 Rotational constants (GHZ):           1.3667573           0.8500403           0.6570248
 Leave Link  202 at Mon Mar  6 10:21:34 2023, MaxMem=  1048576000 cpu:               0.0 elap:               0.0
 (Enter /ssoft/spack/external/gaussian/g16-C.01/avx2/g16/l301.exe)
 Standard basis: def2SVP (5D, 7F)
 Ernie: Thresh=  0.10000D-02 Tol=  0.10000D-05 Strict=F.
 There are   245 symmetry adapted cartesian basis functions of A   symmetry.
 There are   234 symmetry adapted basis functions of A   symmetry.
   234 basis functions,   387 primitive gaussians,   245 cartesian basis functions
    44 alpha electrons       44 beta electrons
       nuclear repulsion energy       682.7228736542 Hartrees.
 IExCor= 1009 DFT=T Ex+Corr=PBE1PBE ExCW=0 ScaHFX=  0.250000
 ScaDFX=  0.750000  0.750000  1.000000  1.000000 ScalE2=  1.000000  1.000000
 IRadAn=      5 IRanWt=     -1 IRanGd=            0 ICorTp=0 IEmpDi=141
 NAtoms=   27 NActive=   27 NUniq=   27 SFac= 1.00D+00 NAtFMM=   60 NAOKFM=F Big=F
 Integral buffers will be    131072 words long.
 Raffenetti 2 integral format.
 Two-electron integral symmetry is turned on.
 R6Disp:  Grimme-D3(BJ) Dispersion energy=       -0.0246593256 Hartrees.
 Nuclear repulsion after empirical dispersion term =      682.6982143287 Hartrees.
 Leave Link  301 at Mon Mar  6 10:21:34 2023, MaxMem=  1048576000 cpu:               0.1 elap:               0.1
 (Enter /ssoft/spack/external/gaussian/g16-C.01/avx2/g16/l302.exe)
 NPDir=0 NMtPBC=     1 NCelOv=     1 NCel=       1 NClECP=     1 NCelD=      1
         NCelK=      1 NCelE2=     1 NClLst=     1 CellRange=     0.0.
 One-electron integrals computed using PRISM.
 One-electron integral symmetry used in STVInt
   1 Symmetry operations used in ECPInt.
 ECPInt:  NShTT=    6555 NPrTT=   22769 LenC2=    6448 LenP2D=   17504.
 LDataN:  DoStor=T MaxTD1= 4 Len=   56
 NBasis=   234 RedAO= T EigKep=  1.21D-03  NBF=   234
 NBsUse=   234 1.00D-06 EigRej= -1.00D+00 NBFU=   234
 Precomputing XC quadrature grid using
 IXCGrd= 4 IRadAn=           5 IRanWt=          -1 IRanGd=           0 AccXCQ= 0.00D+00.
 Generated NRdTot=       0 NPtTot=           0 NUsed=           0 NTot=          32
 NSgBfM=   245   245   245   245   245 MxSgAt=    27 MxSgA2=    27.
 Leave Link  302 at Mon Mar  6 10:21:35 2023, MaxMem=  1048576000 cpu:               0.6 elap:               0.6
 (Enter /ssoft/spack/external/gaussian/g16-C.01/avx2/g16/l303.exe)
 DipDrv:  MaxL=1.
 Leave Link  303 at Mon Mar  6 10:21:35 2023, MaxMem=  1048576000 cpu:               0.1 elap:               0.0
 (Enter /ssoft/spack/external/gaussian/g16-C.01/avx2/g16/l401.exe)
 ExpMin= 1.22D-01 ExpMax= 2.27D+03 ExpMxC= 3.41D+02 IAcc=3 IRadAn=         5 AccDes= 0.00D+00
 Harris functional with IExCor= 1009 and IRadAn=       5 diagonalized for initial guess.
 HarFok:  IExCor= 1009 AccDes= 0.00D+00 IRadAn=         5 IDoV= 1 UseB2=F ITyADJ=14
 ICtDFT=  3500011 ScaDFX=  1.000000  1.000000  1.000000  1.000000
 FoFCou: FMM=F IPFlag=           0 FMFlag=      100000 FMFlg1=           0
         NFxFlg=           0 DoJE=T BraDBF=F KetDBF=T FulRan=T
         wScrn=  0.000000 ICntrl=       500 IOpCl=  0 I1Cent=   200000004 NGrid=           0
         NMat0=    1 NMatS0=      1 NMatT0=    0 NMatD0=    1 NMtDS0=    0 NMtDT0=    0
 Petite list used in FoFCou.
 Harris En= -519.126937057192    
 JPrj=0 DoOrth=F DoCkMO=F.
 Leave Link  401 at Mon Mar  6 10:21:41 2023, MaxMem=  1048576000 cpu:               6.0 elap:               6.1
 (Enter /ssoft/spack/external/gaussian/g16-C.01/avx2/g16/l502.exe)
 Keep R1 ints in memory in canonical form, NReq=385446948.
 FoFCou: FMM=F IPFlag=           0 FMFlag=           0 FMFlg1=           0
         NFxFlg=           0 DoJE=F BraDBF=F KetDBF=F FulRan=T
         wScrn=  0.000000 ICntrl=       600 IOpCl=  0 I1Cent=           0 NGrid=           0
         NMat0=    1 NMatS0=  27495 NMatT0=    0 NMatD0=    1 NMtDS0=    0 NMtDT0=    0
 Symmetry not used in FoFCou.
 Two-electron integral symmetry not used.
 Closed shell SCF:
 Using DIIS extrapolation, IDIIS=  1040.
 NGot=  1048576000 LenX=   670449778 LenY=   670389312
 Requested convergence on RMS density matrix=1.00D-08 within 128 cycles.
 Requested convergence on MAX density matrix=1.00D-06.
 Requested convergence on             energy=1.00D-06.
 No special actions if energy rises.
 Integral accuracy reduced to 1.0D-05 until final iterations.

 Cycle   1  Pass 0  IDiag  1:
 E= -518.345330160175    
 DIIS: error= 4.53D-02 at cycle   1 NSaved=   1.
 NSaved= 1 IEnMin= 1 EnMin= -518.345330160175     IErMin= 1 ErrMin= 4.53D-02
 ErrMax= 4.53D-02  0.00D+00 EMaxC= 1.00D-01 BMatC= 3.91D-01 BMatP= 3.91D-01
 IDIUse=3 WtCom= 5.47D-01 WtEn= 4.53D-01
 Coeff-Com:  0.100D+01
 Coeff-En:   0.100D+01
 Coeff:      0.100D+01
 Gap=     0.350 Goal=   None    Shift=    0.000
 GapD=    0.350 DampG=1.000 DampE=0.500 DampFc=0.5000 IDamp=-1.
 Damping current iteration by 5.00D-01
 RMSDP=9.15D-03 MaxDP=3.69D-01              OVMax= 1.93D-01

 Cycle   2  Pass 0  IDiag  1:
 E= -518.518823469534     Delta-E=       -0.173493309359 Rises=F Damp=T
 DIIS: error= 6.11D-03 at cycle   2 NSaved=   2.
 NSaved= 2 IEnMin= 2 EnMin= -518.518823469534     IErMin= 2 ErrMin= 6.11D-03
 ErrMax= 6.11D-03  0.00D+00 EMaxC= 1.00D-01 BMatC= 1.99D-02 BMatP= 3.91D-01
 IDIUse=3 WtCom= 9.39D-01 WtEn= 6.11D-02
 Coeff-Com:  0.948D-01 0.905D+00
 Coeff-En:   0.123D+00 0.877D+00
 Coeff:      0.965D-01 0.903D+00
 Gap=     0.204 Goal=   None    Shift=    0.000
 RMSDP=2.09D-03 MaxDP=1.01D-01 DE=-1.73D-01 OVMax= 1.33D-01

 Cycle   3  Pass 0  IDiag  1:
 E= -518.728636709010     Delta-E=       -0.209813239476 Rises=F Damp=F
 DIIS: error= 7.70D-03 at cycle   3 NSaved=   3.
 NSaved= 3 IEnMin= 3 EnMin= -518.728636709010     IErMin= 2 ErrMin= 6.11D-03
 ErrMax= 7.70D-03  0.00D+00 EMaxC= 1.00D-01 BMatC= 1.58D-02 BMatP= 1.99D-02
 IDIUse=3 WtCom= 9.23D-01 WtEn= 7.70D-02
 Coeff-Com:  0.211D-01 0.468D+00 0.511D+00
 Coeff-En:   0.000D+00 0.000D+00 0.100D+01
 Coeff:      0.195D-01 0.432D+00 0.548D+00
 Gap=     0.206 Goal=   None    Shift=    0.000
 RMSDP=8.42D-04 MaxDP=3.24D-02 DE=-2.10D-01 OVMax= 5.83D-02

 Cycle   4  Pass 0  IDiag  1:
 E= -518.738501130846     Delta-E=       -0.009864421836 Rises=F Damp=F
 DIIS: error= 5.61D-03 at cycle   4 NSaved=   4.
 NSaved= 4 IEnMin= 4 EnMin= -518.738501130846     IErMin= 4 ErrMin= 5.61D-03
 ErrMax= 5.61D-03  0.00D+00 EMaxC= 1.00D-01 BMatC= 4.23D-03 BMatP= 1.58D-02
 IDIUse=3 WtCom= 9.44D-01 WtEn= 5.61D-02
 Coeff-Com:  0.906D-04 0.947D-01 0.342D+00 0.563D+00
 Coeff-En:   0.000D+00 0.000D+00 0.230D+00 0.770D+00
 Coeff:      0.855D-04 0.894D-01 0.336D+00 0.574D+00
 Gap=     0.198 Goal=   None    Shift=    0.000
 RMSDP=3.74D-04 MaxDP=1.40D-02 DE=-9.86D-03 OVMax= 3.06D-02

 Cycle   5  Pass 0  IDiag  1:
 E= -518.741431480532     Delta-E=       -0.002930349686 Rises=F Damp=F
 DIIS: error= 2.32D-03 at cycle   5 NSaved=   5.
 NSaved= 5 IEnMin= 5 EnMin= -518.741431480532     IErMin= 5 ErrMin= 2.32D-03
 ErrMax= 2.32D-03  0.00D+00 EMaxC= 1.00D-01 BMatC= 6.07D-04 BMatP= 4.23D-03
 IDIUse=3 WtCom= 9.77D-01 WtEn= 2.32D-02
 Coeff-Com: -0.761D-03 0.159D-01 0.168D+00 0.372D+00 0.445D+00
 Coeff-En:   0.000D+00 0.000D+00 0.000D+00 0.908D-01 0.909D+00
 Coeff:     -0.744D-03 0.156D-01 0.164D+00 0.366D+00 0.455D+00
 Gap=     0.196 Goal=   None    Shift=    0.000
 RMSDP=1.25D-04 MaxDP=5.09D-03 DE=-2.93D-03 OVMax= 8.92D-03

 Cycle   6  Pass 0  IDiag  1:
 E= -518.741892265607     Delta-E=       -0.000460785075 Rises=F Damp=F
 DIIS: error= 3.48D-04 at cycle   6 NSaved=   6.
 NSaved= 6 IEnMin= 6 EnMin= -518.741892265607     IErMin= 6 ErrMin= 3.48D-04
 ErrMax= 3.48D-04  0.00D+00 EMaxC= 1.00D-01 BMatC= 2.61D-05 BMatP= 6.07D-04
 IDIUse=3 WtCom= 9.97D-01 WtEn= 3.48D-03
 Coeff-Com: -0.354D-03-0.156D-02 0.459D-01 0.119D+00 0.233D+00 0.604D+00
 Coeff-En:   0.000D+00 0.000D+00 0.000D+00 0.000D+00 0.000D+00 0.100D+01
 Coeff:     -0.352D-03-0.156D-02 0.457D-01 0.119D+00 0.232D+00 0.605D+00
 Gap=     0.195 Goal=   None    Shift=    0.000
 RMSDP=3.29D-05 MaxDP=9.14D-04 DE=-4.61D-04 OVMax= 1.31D-03

 Cycle   7  Pass 0  IDiag  1:
 E= -518.741913086328     Delta-E=       -0.000020820721 Rises=F Damp=F
 DIIS: error= 4.39D-05 at cycle   7 NSaved=   7.
 NSaved= 7 IEnMin= 7 EnMin= -518.741913086328     IErMin= 7 ErrMin= 4.39D-05
 ErrMax= 4.39D-05  0.00D+00 EMaxC= 1.00D-01 BMatC= 1.51D-06 BMatP= 2.61D-05
 IDIUse=1 WtCom= 1.00D+00 WtEn= 0.00D+00
 Coeff-Com: -0.671D-04-0.182D-02 0.138D-01 0.391D-01 0.933D-01 0.308D+00
 Coeff-Com:  0.548D+00
 Coeff:     -0.671D-04-0.182D-02 0.138D-01 0.391D-01 0.933D-01 0.308D+00
 Coeff:      0.548D+00
 Gap=     0.195 Goal=   None    Shift=    0.000
 RMSDP=7.24D-06 MaxDP=2.52D-04 DE=-2.08D-05 OVMax= 2.06D-04

 Initial convergence to 1.0D-05 achieved.  Increase integral accuracy.
 Cycle   8  Pass 1  IDiag  1:
 E= -518.741940355897     Delta-E=       -0.000027269569 Rises=F Damp=F
 DIIS: error= 9.41D-06 at cycle   1 NSaved=   1.
 NSaved= 1 IEnMin= 1 EnMin= -518.741940355897     IErMin= 1 ErrMin= 9.41D-06
 ErrMax= 9.41D-06  0.00D+00 EMaxC= 1.00D-01 BMatC= 6.07D-08 BMatP= 6.07D-08
 IDIUse=1 WtCom= 1.00D+00 WtEn= 0.00D+00
 Coeff-Com:  0.100D+01
 Coeff:      0.100D+01
 Gap=     0.195 Goal=   None    Shift=    0.000
 RMSDP=7.24D-06 MaxDP=2.52D-04 DE=-2.73D-05 OVMax= 1.07D-04

 Cycle   9  Pass 1  IDiag  1:
 E= -518.741940328829     Delta-E=        0.000000027067 Rises=F Damp=F
 DIIS: error= 1.38D-05 at cycle   2 NSaved=   2.
 NSaved= 2 IEnMin= 1 EnMin= -518.741940355897     IErMin= 1 ErrMin= 9.41D-06
 ErrMax= 1.38D-05  0.00D+00 EMaxC= 1.00D-01 BMatC= 1.02D-07 BMatP= 6.07D-08
 IDIUse=1 WtCom= 1.00D+00 WtEn= 0.00D+00
 Coeff-Com:  0.568D+00 0.432D+00
 Coeff:      0.568D+00 0.432D+00
 Gap=     0.195 Goal=   None    Shift=    0.000
 RMSDP=1.69D-06 MaxDP=6.09D-05 DE= 2.71D-08 OVMax= 7.07D-05

 Cycle  10  Pass 1  IDiag  1:
 E= -518.741940418195     Delta-E=       -0.000000089365 Rises=F Damp=F
 DIIS: error= 3.42D-06 at cycle   3 NSaved=   3.
 NSaved= 3 IEnMin= 3 EnMin= -518.741940418195     IErMin= 3 ErrMin= 3.42D-06
 ErrMax= 3.42D-06  0.00D+00 EMaxC= 1.00D-01 BMatC= 2.46D-09 BMatP= 6.07D-08
 IDIUse=1 WtCom= 1.00D+00 WtEn= 0.00D+00
 Coeff-Com:  0.195D+00 0.189D+00 0.616D+00
 Coeff:      0.195D+00 0.189D+00 0.616D+00
 Gap=     0.195 Goal=   None    Shift=    0.000
 RMSDP=4.29D-07 MaxDP=1.23D-05 DE=-8.94D-08 OVMax= 2.30D-05

 Cycle  11  Pass 1  IDiag  1:
 E= -518.741940419537     Delta-E=       -0.000000001342 Rises=F Damp=F
 DIIS: error= 3.04D-06 at cycle   4 NSaved=   4.
 NSaved= 4 IEnMin= 4 EnMin= -518.741940419537     IErMin= 4 ErrMin= 3.04D-06
 ErrMax= 3.04D-06  0.00D+00 EMaxC= 1.00D-01 BMatC= 1.04D-09 BMatP= 2.46D-09
 IDIUse=1 WtCom= 1.00D+00 WtEn= 0.00D+00
 Coeff-Com:  0.306D-01 0.477D-01 0.410D+00 0.512D+00
 Coeff:      0.306D-01 0.477D-01 0.410D+00 0.512D+00
 Gap=     0.195 Goal=   None    Shift=    0.000
 RMSDP=1.76D-07 MaxDP=6.20D-06 DE=-1.34D-09 OVMax= 1.36D-05

 Cycle  12  Pass 1  IDiag  1:
 E= -518.741940420315     Delta-E=       -0.000000000778 Rises=F Damp=F
 DIIS: error= 8.11D-07 at cycle   5 NSaved=   5.
 NSaved= 5 IEnMin= 5 EnMin= -518.741940420315     IErMin= 5 ErrMin= 8.11D-07
 ErrMax= 8.11D-07  0.00D+00 EMaxC= 1.00D-01 BMatC= 9.48D-11 BMatP= 1.04D-09
 IDIUse=1 WtCom= 1.00D+00 WtEn= 0.00D+00
 Coeff-Com: -0.104D-01 0.195D-03 0.156D+00 0.295D+00 0.559D+00
 Coeff:     -0.104D-01 0.195D-03 0.156D+00 0.295D+00 0.559D+00
 Gap=     0.195 Goal=   None    Shift=    0.000
 RMSDP=6.30D-08 MaxDP=1.92D-06 DE=-7.78D-10 OVMax= 3.19D-06

 Cycle  13  Pass 1  IDiag  1:
 E= -518.741940420392     Delta-E=       -0.000000000077 Rises=F Damp=F
 DIIS: error= 1.52D-07 at cycle   6 NSaved=   6.
 NSaved= 6 IEnMin= 6 EnMin= -518.741940420392     IErMin= 6 ErrMin= 1.52D-07
 ErrMax= 1.52D-07  0.00D+00 EMaxC= 1.00D-01 BMatC= 9.44D-12 BMatP= 9.48D-11
 IDIUse=1 WtCom= 1.00D+00 WtEn= 0.00D+00
 Coeff-Com: -0.884D-02-0.408D-02 0.555D-01 0.127D+00 0.323D+00 0.507D+00
 Coeff:     -0.884D-02-0.408D-02 0.555D-01 0.127D+00 0.323D+00 0.507D+00
 Gap=     0.195 Goal=   None    Shift=    0.000
 RMSDP=1.59D-08 MaxDP=5.24D-07 DE=-7.71D-11 OVMax= 6.46D-07

 Cycle  14  Pass 1  IDiag  1:
 E= -518.741940420394     Delta-E=       -0.000000000002 Rises=F Damp=F
 DIIS: error= 3.08D-08 at cycle   7 NSaved=   7.
 NSaved= 7 IEnMin= 7 EnMin= -518.741940420394     IErMin= 7 ErrMin= 3.08D-08
 ErrMax= 3.08D-08  0.00D+00 EMaxC= 1.00D-01 BMatC= 2.03D-13 BMatP= 9.44D-12
 IDIUse=1 WtCom= 1.00D+00 WtEn= 0.00D+00
 Coeff-Com: -0.245D-02-0.138D-02 0.943D-02 0.264D-01 0.774D-01 0.180D+00
 Coeff-Com:  0.711D+00
 Coeff:     -0.245D-02-0.138D-02 0.943D-02 0.264D-01 0.774D-01 0.180D+00
 Coeff:      0.711D+00
 Gap=     0.195 Goal=   None    Shift=    0.000
 RMSDP=3.92D-09 MaxDP=1.32D-07 DE=-2.05D-12 OVMax= 1.62D-07

 SCF Done:  E(RPBE1PBE) =  -518.741940420     A.U. after   14 cycles
            NFock= 14  Conv=0.39D-08     -V/T= 2.0093
 KE= 5.139600350298D+02 PE=-2.588682429800D+03 EE= 8.732822400208D+02
 Leave Link  502 at Mon Mar  6 10:23:25 2023, MaxMem=  1048576000 cpu:             102.7 elap:             103.9
 (Enter /ssoft/spack/external/gaussian/g16-C.01/avx2/g16/l801.exe)
 DoSCS=F DFT=T ScalE2(SS,OS)=  1.000000  1.000000
 Range of M.O.s used for correlation:     1   234
 NBasis=   234 NAE=    44 NBE=    44 NFC=     0 NFV=     0
 NROrb=    234 NOA=    44 NOB=    44 NVA=   190 NVB=   190
 Leave Link  801 at Mon Mar  6 10:23:25 2023, MaxMem=  1048576000 cpu:               0.0 elap:               0.0
 (Enter /ssoft/spack/external/gaussian/g16-C.01/avx2/g16/l1101.exe)
 Using compressed storage, NAtomX=    27.
 Will process     28 centers per pass.
   1 Symmetry operations used in ECPInt.
 ECPInt:  NShTT=    6555 NPrTT=   22769 LenC2=    6448 LenP2D=   17504.
 LDataN:  DoStor=T MaxTD1= 5 Len=  102
 R6Disp: Adding Grimme-D3(BJ) dispersion energy 1st derivatives to the gradient.
 Leave Link 1101 at Mon Mar  6 10:23:26 2023, MaxMem=  1048576000 cpu:               0.3 elap:               0.3
 (Enter /ssoft/spack/external/gaussian/g16-C.01/avx2/g16/l1102.exe)
 Symmetrizing basis deriv contribution to polar:
 IMax=3 JMax=2 DiffMx= 0.00D+00
 Leave Link 1102 at Mon Mar  6 10:23:26 2023, MaxMem=  1048576000 cpu:               0.1 elap:               0.0
 (Enter /ssoft/spack/external/gaussian/g16-C.01/avx2/g16/l1110.exe)
 Forming Gx(P) for the SCF density, NAtomX=    27.
 Integral derivatives from FoFJK, PRISM(SPDF).
 Do as many integral derivatives as possible in FoFJK.
 G2DrvN: MDV=    1048573083.
 G2DrvN: will do    28 centers at a time, making    1 passes.
 Calling FoFCou, ICntrl=  3107 FMM=F I1Cent=   0 AccDes= 0.00D+00.
 FoFJK:  IHMeth= 1 ICntrl=    3107 DoSepK=F KAlg= 0 I1Cent=           0 FoldK=F
 IRaf=         0 NMat=       1 IRICut=       1 DoRegI=T DoRafI=F ISym2E= 0 IDoP0=0 IntGTp=1.
 FoFCou: FMM=F IPFlag=           0 FMFlag=      100000 FMFlg1=           0
         NFxFlg=           0 DoJE=F BraDBF=F KetDBF=F FulRan=T
         wScrn=  0.000000 ICntrl=      3107 IOpCl=  0 I1Cent=           0 NGrid=           0
         NMat0=    1 NMatS0=      1 NMatT0=    0 NMatD0=    1 NMtDS0=    0 NMtDT0=    0
 Symmetry not used in FoFCou.
 End of G2Drv F.D. properties file   721 does not exist.
 End of G2Drv F.D. properties file   722 does not exist.
 End of G2Drv F.D. properties file   788 does not exist.
 Leave Link 1110 at Mon Mar  6 10:29:49 2023, MaxMem=  1048576000 cpu:             381.1 elap:             383.2
 (Enter /ssoft/spack/external/gaussian/g16-C.01/avx2/g16/l1002.exe)
 Minotr:  Closed shell wavefunction.
          IDoAtm=111111111111111111111111111
          Direct CPHF calculation.
          Differentiating once with respect to electric field.
                with respect to dipole field.
          Differentiating once with respect to nuclear coordinates.
          Requested convergence is 1.0D-08 RMS, and 1.0D-07 maximum.
          Secondary convergence is 1.0D-12 RMS, and 1.0D-12 maximum.
          NewPWx=T KeepS1=F KeepF1=F KeepIn=T MapXYZ=F SortEE=F KeepMc=T.
         8096 words used for storage of precomputed grid.
 Keep R1 ints in memory in canonical form, NReq=385458218.
 FoFCou: FMM=F IPFlag=           0 FMFlag=           0 FMFlg1=           0
         NFxFlg=           0 DoJE=F BraDBF=F KetDBF=F FulRan=T
         wScrn=  0.000000 ICntrl=       600 IOpCl=  0 I1Cent=           0 NGrid=           0
         NMat0=    1 NMatS0=  27495 NMatT0=    0 NMatD0=    1 NMtDS0=    0 NMtDT0=    0
 Symmetry not used in FoFCou.
 Two-electron integral symmetry not used.
          MDV=    1048576000 using IRadAn=       1.
          Solving linear equations simultaneously, MaxMat=       0.
          There are    84 degrees of freedom in the 1st order CPHF.  IDoFFX=6 NUNeed=     3.
     81 vectors produced by pass  0 Test12= 9.95D-15 1.19D-09 XBig12= 6.58D+01 1.51D+00.
 AX will form    81 AO Fock derivatives at one time.
     81 vectors produced by pass  1 Test12= 9.95D-15 1.19D-09 XBig12= 8.63D+00 5.93D-01.
     81 vectors produced by pass  2 Test12= 9.95D-15 1.19D-09 XBig12= 8.94D-02 3.97D-02.
     81 vectors produced by pass  3 Test12= 9.95D-15 1.19D-09 XBig12= 3.63D-04 2.31D-03.
     81 vectors produced by pass  4 Test12= 9.95D-15 1.19D-09 XBig12= 6.96D-07 7.71D-05.
     49 vectors produced by pass  5 Test12= 9.95D-15 1.19D-09 XBig12= 7.65D-10 2.44D-06.
     14 vectors produced by pass  6 Test12= 9.95D-15 1.19D-09 XBig12= 8.07D-13 1.04D-07.
      3 vectors produced by pass  7 Test12= 9.95D-15 1.19D-09 XBig12= 8.14D-16 3.36D-09.
 InvSVY:  IOpt=1 It=  1 EMax= 7.11D-15
 Solved reduced A of dimension   471 with    84 vectors.
 FullF1:  Do perturbations      1 to       3.
 Isotropic polarizability for W=    0.000000      101.36 Bohr**3.
 End of Minotr F.D. properties file   721 does not exist.
 End of Minotr F.D. properties file   722 does not exist.
 End of Minotr F.D. properties file   788 does not exist.
 Leave Link 1002 at Mon Mar  6 10:35:35 2023, MaxMem=  1048576000 cpu:             345.0 elap:             346.7
 (Enter /ssoft/spack/external/gaussian/g16-C.01/avx2/g16/l601.exe)
 Copying SCF densities to generalized density rwf, IOpCl= 0 IROHF=0.

 **********************************************************************

            Population analysis using the SCF Density.

 **********************************************************************

 Orbital symmetries:
       Occupied  (A) (A) (A) (A) (A) (A) (A) (A) (A) (A) (A) (A)
                 (A) (A) (A) (A) (A) (A) (A) (A) (A) (A) (A) (A)
                 (A) (A) (A) (A) (A) (A) (A) (A) (A) (A) (A) (A)
                 (A) (A) (A) (A) (A) (A) (A) (A)
       Virtual   (A) (A) (A) (A) (A) (A) (A) (A) (A) (A) (A) (A)
                 (A) (A) (A) (A) (A) (A) (A) (A) (A) (A) (A) (A)
                 (A) (A) (A) (A) (A) (A) (A) (A) (A) (A) (A) (A)
                 (A) (A) (A) (A) (A) (A) (A) (A) (A) (A) (A) (A)
                 (A) (A) (A) (A) (A) (A) (A) (A) (A) (A) (A) (A)
                 (A) (A) (A) (A) (A) (A) (A) (A) (A) (A) (A) (A)
                 (A) (A) (A) (A) (A) (A) (A) (A) (A) (A) (A) (A)
                 (A) (A) (A) (A) (A) (A) (A) (A) (A) (A) (A) (A)
                 (A) (A) (A) (A) (A) (A) (A) (A) (A) (A) (A) (A)
                 (A) (A) (A) (A) (A) (A) (A) (A) (A) (A) (A) (A)
                 (A) (A) (A) (A) (A) (A) (A) (A) (A) (A) (A) (A)
                 (A) (A) (A) (A) (A) (A) (A) (A) (A) (A) (A) (A)
                 (A) (A) (A) (A) (A) (A) (A) (A) (A) (A) (A) (A)
                 (A) (A) (A) (A) (A) (A) (A) (A) (A) (A) (A) (A)
                 (A) (A) (A) (A) (A) (A) (A) (A) (A) (A) (A) (A)
                 (A) (A) (A) (A) (A) (A) (A) (A) (A) (A)
 The electronic state is 1-A.
 Alpha  occ. eigenvalues --  -18.93402 -18.91921 -14.23333 -10.11708 -10.10643
 Alpha  occ. eigenvalues --  -10.10591 -10.09758 -10.09076 -10.08851 -10.08554
 Alpha  occ. eigenvalues --  -10.07563  -0.83048  -0.77717  -0.72101  -0.69161
 Alpha  occ. eigenvalues --   -0.61668  -0.58479  -0.56318  -0.52293  -0.46805
 Alpha  occ. eigenvalues --   -0.43138  -0.36457  -0.35028  -0.34419  -0.33809
 Alpha  occ. eigenvalues --   -0.30715  -0.30335  -0.29101  -0.27682  -0.26910
 Alpha  occ. eigenvalues --   -0.25940  -0.24669  -0.24334  -0.23566  -0.22363
 Alpha  occ. eigenvalues --   -0.20373  -0.20175  -0.19669  -0.18663  -0.16549
 Alpha  occ. eigenvalues --   -0.07640  -0.04030  -0.03889  -0.01577
 Alpha virt. eigenvalues --    0.17948   0.19708   0.22440   0.22956   0.24213
 Alpha virt. eigenvalues --    0.24536   0.25704   0.26101   0.26470   0.27812
 Alpha virt. eigenvalues --    0.28644   0.29239   0.29676   0.30806   0.31049
 Alpha virt. eigenvalues --    0.32459   0.33859   0.35566   0.35892   0.37239
 Alpha virt. eigenvalues --    0.38326   0.40413   0.41700   0.42871   0.48425
 Alpha virt. eigenvalues --    0.51284   0.54750   0.55294   0.58081   0.58333
 Alpha virt. eigenvalues --    0.59738   0.62363   0.63718   0.64321   0.64887
 Alpha virt. eigenvalues --    0.65698   0.68887   0.71196   0.72767   0.75913
 Alpha virt. eigenvalues --    0.77287   0.78159   0.78620   0.79899   0.79937
 Alpha virt. eigenvalues --    0.80619   0.81065   0.81518   0.82008   0.82115
 Alpha virt. eigenvalues --    0.82739   0.83858   0.84233   0.84995   0.85444
 Alpha virt. eigenvalues --    0.86226   0.87211   0.87297   0.87766   0.88375
 Alpha virt. eigenvalues --    0.88967   0.89246   0.89819   0.91157   0.92606
 Alpha virt. eigenvalues --    0.95498   0.98146   1.02888   1.03531   1.07692
 Alpha virt. eigenvalues --    1.12301   1.14747   1.15760   1.17648   1.18877
 Alpha virt. eigenvalues --    1.21096   1.22629   1.26890   1.29929   1.31508
 Alpha virt. eigenvalues --    1.34467   1.36082   1.38477   1.38744   1.40858
 Alpha virt. eigenvalues --    1.42364   1.45248   1.46814   1.48641   1.51083
 Alpha virt. eigenvalues --    1.54008   1.56335   1.57939   1.66139   1.66859
 Alpha virt. eigenvalues --    1.68498   1.69368   1.70503   1.71848   1.72954
 Alpha virt. eigenvalues --    1.74522   1.78909   1.80972   1.85157   1.86012
 Alpha virt. eigenvalues --    1.87467   1.88217   1.90092   1.91550   1.92238
 Alpha virt. eigenvalues --    1.93376   1.94240   1.95410   1.96121   1.97035
 Alpha virt. eigenvalues --    1.98623   1.99240   1.99973   2.02250   2.03962
 Alpha virt. eigenvalues --    2.04111   2.05174   2.06240   2.07078   2.09996
 Alpha virt. eigenvalues --    2.11306   2.12949   2.13681   2.15078   2.16697
 Alpha virt. eigenvalues --    2.20165   2.20317   2.21437   2.23258   2.25704
 Alpha virt. eigenvalues --    2.27090   2.28033   2.34843   2.37223   2.40047
 Alpha virt. eigenvalues --    2.41890   2.43186   2.45014   2.47600   2.48728
 Alpha virt. eigenvalues --    2.51455   2.55506   2.56559   2.57464   2.60079
 Alpha virt. eigenvalues --    2.61840   2.62773   2.63785   2.71207   2.73788
 Alpha virt. eigenvalues --    2.78758   2.79956   2.80630   2.83754   2.84413
 Alpha virt. eigenvalues --    2.87392   2.89819   2.91840   2.92029   2.95004
 Alpha virt. eigenvalues --    2.95504   2.98697   3.01083   3.02045   3.03250
 Alpha virt. eigenvalues --    3.06022   3.06340   3.08139   3.08791   3.13519
 Alpha virt. eigenvalues --    3.14649   3.15999   3.18423   3.22559   3.24389
 Alpha virt. eigenvalues --    3.25865   3.26280   3.30985   3.33632   3.34223
 Alpha virt. eigenvalues --    3.45955   3.50909   3.64762   3.88363   3.95495
     Molecular Orbital Coefficients:
                          40        41        42        43        44
                           O         O         O         O         O
     Eigenvalues --    -0.16549  -0.07640  -0.04030  -0.03889  -0.01577
   1 1   O  1S          0.00624   0.01081  -0.00131  -0.00075   0.00205
   2        2S          0.01326   0.02322  -0.00422   0.00333   0.00544
   3        3S          0.00866   0.03591  -0.00859  -0.07742   0.03319
   4        4PX         0.18735  -0.01064  -0.29597   0.25820  -0.14540
   5        4PY         0.03824   0.03122   0.09322   0.26991   0.51190
   6        4PZ        -0.08782  -0.00612   0.30664  -0.00781  -0.10187
   7        5PX         0.11839  -0.01551  -0.23449   0.21711  -0.10958
   8        5PY         0.02338   0.03616   0.05951   0.20426   0.37693
   9        5PZ        -0.05229  -0.01090   0.24553   0.00603  -0.07617
  10        6D 0        0.00882   0.00144  -0.01230   0.00400   0.00192
  11        6D+1       -0.00531   0.00038   0.00345  -0.00616   0.00351
  12        6D-1       -0.00112  -0.00008  -0.00322  -0.00480  -0.01162
  13        6D+2       -0.00541   0.00160   0.00511  -0.00410   0.00451
  14        6D-2       -0.00227   0.00099   0.00156  -0.00531  -0.00727
  15 2   N  1S         -0.00241  -0.06730  -0.00400  -0.01702   0.03378
  16        2S         -0.00353  -0.14447  -0.00123  -0.03154   0.07898
  17        3S         -0.01092  -0.17286  -0.07745  -0.10436   0.11478
  18        4PX        -0.11393   0.12502  -0.01615  -0.00698   0.00141
  19        4PY        -0.01827   0.12749   0.02097   0.05334  -0.05878
  20        4PZ        -0.01897   0.48347   0.00817   0.03791  -0.10336
  21        5PX         0.06151  -0.10303   0.04894   0.01105   0.00162
  22        5PY         0.01074  -0.08612  -0.05174  -0.03274   0.01609
  23        5PZ         0.02102  -0.39339  -0.00874  -0.04220   0.06221
  24        6D 0       -0.00135   0.01030  -0.00023  -0.00135  -0.00331
  25        6D+1       -0.00840   0.00407  -0.00224  -0.00115  -0.00089
  26        6D-1        0.00195   0.00743  -0.00062   0.00036  -0.00574
  27        6D+2        0.00381  -0.00025  -0.00192  -0.00597   0.00345
  28        6D-2        0.00091   0.00159  -0.00123  -0.00285  -0.00085
  29 3   C  1S          0.00671  -0.01507   0.00099  -0.00142   0.00347
  30        2S         -0.01447   0.03482   0.00390   0.01849  -0.00402
  31        3S         -0.02050   0.10839  -0.06511  -0.03519  -0.07117
  32        4PX         0.19224   0.00693  -0.03642  -0.00869   0.01726
  33        4PY         0.04733  -0.06784  -0.05124  -0.09417  -0.00627
  34        4PZ        -0.15308  -0.02078  -0.01615  -0.06100   0.02938
  35        5PX         0.14738  -0.02783  -0.02924   0.05501  -0.05511
  36        5PY         0.03351  -0.07531   0.13880   0.13795   0.15788
  37        5PZ        -0.07862  -0.05669   0.02217   0.08700  -0.06222
  38        6D 0       -0.00451   0.00490   0.01767  -0.04157   0.01408
  39        6D+1        0.00053   0.00263  -0.02817  -0.01280   0.00610
  40        6D-1       -0.01114  -0.00026  -0.00061   0.02878   0.03052
  41        6D+2       -0.00378   0.00406  -0.03782  -0.01303   0.00909
  42        6D-2        0.01471   0.00496   0.01397   0.00470   0.02301
  43 4   C  1S         -0.01512  -0.00842  -0.02765  -0.04985  -0.00587
  44        2S          0.03855   0.02373   0.05426   0.12201   0.01532
  45        3S          0.01212  -0.08256   0.27511   0.25087   0.10029
  46        4PX        -0.20594   0.05057   0.02796   0.04906   0.00697
  47        4PY        -0.04599  -0.04292   0.13013   0.22361   0.04238
  48        4PZ         0.14868   0.10101   0.03884   0.05837   0.02949
  49        5PX        -0.10496   0.02572   0.08996   0.08998   0.01362
  50        5PY         0.00020  -0.07568   0.14270   0.22948   0.12979
  51        5PZ         0.06607  -0.01639   0.09787   0.00365   0.03322
  52        6D 0       -0.00887  -0.01913   0.00011  -0.00571  -0.00251
  53        6D+1       -0.00506  -0.01253  -0.00206  -0.00284   0.00335
  54        6D-1       -0.00503   0.00367   0.00196   0.00314  -0.00557
  55        6D+2        0.00519  -0.00401  -0.00265  -0.00436   0.00007
  56        6D-2        0.01428  -0.00888   0.00024   0.00152  -0.00277
  57 5   C  1S         -0.02125  -0.00794   0.00517   0.00655   0.00147
  58        2S          0.04925   0.01474  -0.01143  -0.03616  -0.00778
  59        3S          0.07516   0.13272  -0.00408   0.19175   0.04018
  60        4PX         0.23795   0.01948  -0.02618  -0.02875  -0.00663
  61        4PY         0.08787   0.02165  -0.02310  -0.03881  -0.01208
  62        4PZ        -0.08518  -0.02414  -0.00550  -0.00036  -0.00034
  63        5PX         0.15888   0.01514  -0.05544  -0.00072   0.02496
  64        5PY         0.03872   0.03384   0.01557   0.04515  -0.03317
  65        5PZ        -0.02859   0.04839  -0.06407   0.03759   0.03244
  66        6D 0       -0.00687  -0.00394  -0.00311  -0.00269  -0.00119
  67        6D+1       -0.00516   0.00377   0.00203   0.00373   0.00088
  68        6D-1       -0.00037   0.00060  -0.00055   0.00083   0.00048
  69        6D+2        0.00686   0.00150  -0.00427  -0.00536  -0.00108
  70        6D-2        0.00492  -0.00052   0.00183   0.00511   0.00159
  71 6   C  1S          0.00039  -0.00727  -0.00883   0.00152   0.00708
  72        2S         -0.00155   0.01674   0.02125  -0.00050  -0.01433
  73        3S          0.03838   0.02500   0.04745  -0.09330  -0.04518
  74        4PX        -0.09599   0.02265   0.01170  -0.00285  -0.00782
  75        4PY         0.03246  -0.01942   0.03720   0.00695  -0.01481
  76        4PZ         0.01591  -0.00651   0.00087  -0.02473   0.00391
  77        5PX        -0.06171   0.00952  -0.10015  -0.02554   0.03637
  78        5PY         0.01515  -0.00615   0.01948  -0.01965   0.00916
  79        5PZ         0.01862  -0.01867  -0.00345  -0.05506   0.01407
  80        6D 0       -0.00559  -0.00080   0.00083   0.00044  -0.00177
  81        6D+1       -0.00080   0.00059  -0.00020  -0.00095   0.00004
  82        6D-1        0.00475  -0.00006   0.00084  -0.00064  -0.00031
  83        6D+2        0.00454   0.00047  -0.00205  -0.00192  -0.00019
  84        6D-2        0.00354   0.00012  -0.00181  -0.00111   0.00130
  85 7   C  1S         -0.01171  -0.00084   0.00804   0.00318  -0.00346
  86        2S          0.02646   0.00176  -0.01581  -0.00786   0.00655
  87        3S          0.02006   0.00439  -0.12126  -0.02028   0.05851
  88        4PX         0.09223  -0.00244  -0.02510  -0.00979   0.01174
  89        4PY         0.00919   0.00065  -0.01425  -0.00026   0.01027
  90        4PZ        -0.01934   0.00323   0.00060   0.00728   0.00030
  91        5PX         0.04910  -0.00060  -0.04581  -0.00272   0.02958
  92        5PY         0.01544  -0.00671  -0.02435  -0.00329   0.00994
  93        5PZ        -0.01183   0.00023   0.01152   0.00655   0.00322
  94        6D 0       -0.00130   0.00013   0.00034   0.00001  -0.00016
  95        6D+1       -0.00102  -0.00039   0.00033  -0.00054  -0.00001
  96        6D-1        0.00203  -0.00029   0.00001  -0.00048  -0.00014
  97        6D+2       -0.00339   0.00096  -0.00088  -0.00002   0.00060
  98        6D-2        0.00392  -0.00025  -0.00077  -0.00034  -0.00011
  99 8   C  1S          0.00861   0.00180   0.01061   0.00040  -0.00115
 100        2S         -0.01967  -0.00356  -0.02662   0.00751   0.00758
 101        3S         -0.03768  -0.05456  -0.03699  -0.08807  -0.03954
 102        4PX        -0.08431   0.01144  -0.00731   0.01311   0.00624
 103        4PY         0.00171  -0.00875  -0.01902   0.01494   0.00736
 104        4PZ         0.08624   0.03637   0.01117   0.02472   0.01185
 105        5PX        -0.05540   0.00702   0.03307  -0.03552  -0.01893
 106        5PY         0.01761  -0.02579  -0.03193  -0.03122  -0.00852
 107        5PZ         0.06289   0.08032  -0.03212   0.07658   0.03282
 108        6D 0       -0.00410  -0.00098  -0.00006  -0.00084   0.00003
 109        6D+1       -0.00782   0.00009   0.00031   0.00088   0.00065
 110        6D-1       -0.00276  -0.00112   0.00081   0.00242   0.00042
 111        6D+2        0.00250  -0.00023   0.00013  -0.00148  -0.00037
 112        6D-2        0.00400  -0.00055   0.00067  -0.00034  -0.00103
 113 9   C  1S         -0.01242  -0.02161  -0.00568   0.00437   0.00093
 114        2S          0.03235   0.05108   0.02137  -0.00855   0.00624
 115        3S          0.02631   0.04882   0.00505  -0.04735  -0.03211
 116        4PX        -0.10402  -0.02810  -0.00179   0.00596   0.01004
 117        4PY        -0.05491   0.00866   0.02178  -0.01461   0.00860
 118        4PZ         0.00085   0.08750   0.00818  -0.00772  -0.01436
 119        5PX        -0.05481  -0.02351   0.01943   0.00196   0.02750
 120        5PY        -0.04963  -0.02181   0.01749  -0.02627   0.01343
 121        5PZ         0.02091  -0.01838  -0.03535  -0.00306  -0.01871
 122        6D 0        0.00635  -0.02266  -0.00122  -0.00290   0.00520
 123        6D+1       -0.00548   0.00403   0.00029   0.00095  -0.00159
 124        6D-1        0.00055  -0.00491  -0.00117  -0.00123   0.00087
 125        6D+2       -0.00046   0.00588  -0.00033  -0.00097   0.00009
 126        6D-2        0.00287   0.00674   0.00068   0.00029  -0.00250
 127 10  C  1S          0.00507  -0.01971  -0.00544  -0.01314   0.00919
 128        2S         -0.01220   0.04792   0.00973   0.03047  -0.02629
 129        3S         -0.00671   0.04353   0.02183   0.06402  -0.03797
 130        4PX        -0.03519   0.02166   0.00249   0.00498  -0.00324
 131        4PY        -0.03556   0.06801   0.02213   0.05902  -0.04021
 132        4PZ         0.00180   0.06416  -0.00540  -0.00205  -0.01427
 133        5PX        -0.01632   0.00750   0.00265   0.01391  -0.00196
 134        5PY        -0.02336   0.02949   0.01351   0.05412  -0.02895
 135        5PZ        -0.00093  -0.04756  -0.01228  -0.01263   0.01803
 136        6D 0        0.00123  -0.00815   0.00008  -0.00140   0.00158
 137        6D+1       -0.00200  -0.00435  -0.00045  -0.00124   0.00147
 138        6D-1        0.00029  -0.02462   0.00035  -0.00129   0.00684
 139        6D+2        0.00280  -0.00027  -0.00053  -0.00126  -0.00014
 140        6D-2        0.00432  -0.00548   0.00126   0.00262  -0.00043
 141 11  H  1S         -0.13022  -0.15965  -0.01711  -0.04385  -0.02754
 142        2S         -0.07719  -0.13857  -0.00480  -0.13136  -0.00276
 143        3PX        -0.00418   0.00236   0.00020   0.00129  -0.00092
 144        3PY        -0.00106   0.00057   0.00280   0.00195   0.00282
 145        3PZ        -0.00249  -0.00182   0.00060  -0.00028  -0.00006
 146 12  H  1S         -0.04316  -0.00406   0.03717   0.05680   0.01395
 147        2S         -0.02927  -0.01718   0.04169   0.07533   0.00743
 148        3PX         0.00525   0.00155  -0.00059  -0.00248  -0.00166
 149        3PY         0.00015   0.00039  -0.00065   0.00108   0.00054
 150        3PZ        -0.00319  -0.00145   0.00243   0.00137  -0.00085
 151 13  H  1S          0.03050  -0.01541   0.03209   0.00558  -0.01261
 152        2S         -0.01783  -0.01299  -0.06951   0.07665   0.00950
 153        3PX        -0.00450   0.00103  -0.00218   0.00076   0.00081
 154        3PY        -0.00257   0.00067  -0.00197  -0.00027   0.00187
 155        3PZ        -0.00002   0.00001   0.00065  -0.00076  -0.00033
 156 14  H  1S         -0.04911   0.00256   0.00321   0.00144   0.00257
 157        2S         -0.03899   0.00265   0.01777   0.00650   0.00054
 158        3PX         0.00143  -0.00008  -0.00049  -0.00038   0.00036
 159        3PY         0.00151  -0.00004  -0.00043   0.00013   0.00025
 160        3PZ        -0.00202   0.00033  -0.00023   0.00044   0.00013
 161 15  H  1S         -0.02363   0.00477   0.00080   0.00663  -0.00290
 162        2S         -0.01127   0.00406   0.01110   0.01409  -0.01236
 163        3PX         0.00305  -0.00028  -0.00044  -0.00048  -0.00012
 164        3PY        -0.00047   0.00027  -0.00060   0.00009   0.00045
 165        3PZ         0.00164  -0.00033   0.00010  -0.00049   0.00011
 166 16  H  1S          0.02864  -0.00607   0.00783  -0.00626  -0.00596
 167        2S          0.01762  -0.01343   0.03035   0.00120  -0.01167
 168        3PX         0.00165  -0.00013  -0.00011   0.00019   0.00042
 169        3PY         0.00121  -0.00002  -0.00002  -0.00071   0.00007
 170        3PZ         0.00005  -0.00007   0.00022   0.00020  -0.00028
 171 17  H  1S         -0.04340   0.01653  -0.00664   0.01218   0.00944
 172        2S         -0.02035  -0.05450  -0.00344  -0.01548  -0.01465
 173        3PX        -0.00080  -0.00255  -0.00064   0.00054   0.00098
 174        3PY        -0.00176  -0.00160  -0.00045   0.00123  -0.00018
 175        3PZ         0.00229   0.00213   0.00165   0.00009   0.00010
 176 18  H  1S          0.09916   0.00101   0.01182  -0.02146  -0.01029
 177        2S          0.07692   0.00279   0.03098  -0.03905  -0.01936
 178        3PX         0.00195   0.00039   0.00042  -0.00118  -0.00025
 179        3PY         0.00237  -0.00022  -0.00001  -0.00005   0.00009
 180        3PZ         0.00195   0.00055   0.00056   0.00003   0.00004
 181 19  H  1S          0.00390   0.00235  -0.01005   0.02839   0.01406
 182        2S         -0.02754   0.00262   0.09089   0.00953   0.01583
 183        3PX        -0.00445   0.00032   0.00255  -0.00088  -0.00052
 184        3PY        -0.00186  -0.00000   0.00056  -0.00070  -0.00054
 185        3PZ         0.00227  -0.00002  -0.00016   0.00030  -0.00057
 186 20  H  1S         -0.03918   0.05596   0.01830   0.00228  -0.00818
 187        2S          0.01710   0.04961  -0.03086   0.05032  -0.01700
 188        3PX        -0.00421   0.00110   0.00163  -0.00126  -0.00004
 189        3PY         0.00208  -0.00199  -0.00194   0.00132  -0.00063
 190        3PZ         0.00069   0.00304  -0.00302   0.00069  -0.00226
 191 21  H  1S          0.05220  -0.13756  -0.01737  -0.00700   0.02257
 192        2S          0.02819  -0.19154  -0.03457  -0.00869   0.02678
 193        3PX        -0.00053  -0.00339  -0.00098   0.00064   0.00098
 194        3PY        -0.00038  -0.00129   0.00057   0.00005   0.00035
 195        3PZ         0.00214   0.00030  -0.00048   0.00043  -0.00066
 196 22  H  1S         -0.05894   0.06177  -0.00154   0.00766  -0.00657
 197        2S         -0.05234   0.04328  -0.00072   0.00727  -0.00499
 198        3PX        -0.00038  -0.00047  -0.00049   0.00042  -0.00038
 199        3PY        -0.00273   0.00281   0.00079  -0.00046  -0.00018
 200        3PZ         0.00044   0.00201   0.00187  -0.00068   0.00032
 201 23  H  1S          0.03345   0.05471   0.00177   0.00662  -0.01846
 202        2S          0.01910   0.08048   0.00742   0.01750  -0.01461
 203        3PX         0.00057   0.00393  -0.00040  -0.00030  -0.00068
 204        3PY        -0.00093   0.00089   0.00072   0.00101  -0.00066
 205        3PZ        -0.00135   0.00227  -0.00041  -0.00043  -0.00083
 206 24  H  1S         -0.02717   0.07261  -0.00980  -0.01460  -0.00864
 207        2S         -0.01927   0.05975  -0.01431  -0.02951  -0.00351
 208        3PX        -0.00010  -0.00212   0.00018   0.00054   0.00006
 209        3PY        -0.00108   0.00064   0.00081   0.00132  -0.00101
 210        3PZ         0.00079   0.00337   0.00007   0.00023  -0.00142
 211 25  H  1S          0.01035  -0.14815   0.00128  -0.01227   0.03673
 212        2S          0.00339  -0.20964  -0.01379  -0.03026   0.06094
 213        3PX        -0.00101  -0.00052   0.00008   0.00006   0.00046
 214        3PY        -0.00087   0.00343   0.00005   0.00089  -0.00237
 215        3PZ         0.00054  -0.00246   0.00014   0.00028   0.00098
 216 26  O  1S         -0.00105   0.00134  -0.00072  -0.00349  -0.01307
 217        2S         -0.00098   0.00264   0.00515  -0.00653  -0.02541
 218        3S         -0.00435  -0.00343  -0.06721  -0.03106  -0.10398
 219        4PX         0.24357  -0.03560   0.35551  -0.07953  -0.15603
 220        4PY         0.02199  -0.06556   0.22951   0.29782  -0.11870
 221        4PZ        -0.12528  -0.12596  -0.05760   0.31834  -0.27719
 222        5PX         0.15442  -0.02100   0.27347  -0.07735  -0.12775
 223        5PY         0.01479  -0.04105   0.18468   0.22059  -0.08714
 224        5PZ        -0.08260  -0.08712  -0.06896   0.23493  -0.22488
 225        6D 0       -0.00711  -0.00365  -0.00036   0.00789  -0.00494
 226        6D+1        0.00336  -0.00231   0.00343   0.00210  -0.00375
 227        6D-1        0.00613   0.00194   0.00561  -0.00290   0.00475
 228        6D+2        0.00645  -0.00247   0.00842   0.00411  -0.00581
 229        6D-2       -0.00909  -0.00029  -0.00612   0.00564   0.00185
 230 27  H  1S         -0.04901   0.00385   0.01612   0.01513  -0.01356
 231        2S         -0.03970  -0.01901  -0.01272  -0.02305   0.03588
 232        3PX        -0.00211  -0.00080   0.00122  -0.00138   0.00027
 233        3PY         0.00071   0.00001   0.00046   0.00028   0.00081
 234        3PZ        -0.00117   0.00101   0.00105  -0.00028   0.00048
                          45        46        47        48        49
                           V         V         V         V         V
     Eigenvalues --     0.17948   0.19708   0.22440   0.22956   0.24213
   1 1   O  1S          0.00542  -0.00376   0.00690   0.00407   0.01197
   2        2S          0.01497  -0.00803   0.01664   0.01235   0.03016
   3        3S         -0.00036  -0.01273   0.02124  -0.01866   0.01355
   4        4PX        -0.03920  -0.00573   0.06243   0.04092  -0.04846
   5        4PY        -0.01456   0.00872   0.00149  -0.01327  -0.02795
   6        4PZ         0.01715   0.01593  -0.02964  -0.05101   0.00196
   7        5PX        -0.03218   0.00269   0.06497   0.04158  -0.04703
   8        5PY        -0.01293   0.01244   0.01518  -0.01021  -0.02998
   9        5PZ         0.01688   0.01449  -0.04130  -0.04444   0.00295
  10        6D 0        0.00011  -0.00071  -0.00124   0.00047   0.00063
  11        6D+1        0.00051  -0.00037   0.00174   0.00027   0.00119
  12        6D-1        0.00066   0.00019   0.00023  -0.00091   0.00026
  13        6D+2       -0.00035   0.00069   0.00006  -0.00033  -0.00048
  14        6D-2       -0.00049  -0.00004   0.00071   0.00028  -0.00054
  15 2   N  1S          0.00707  -0.00865   0.01934   0.02978   0.03334
  16        2S          0.03555  -0.03915   0.03751   0.05469   0.06175
  17        3S         -0.12621   0.10945   0.19148   0.34513   0.34755
  18        4PX        -0.02023   0.00518   0.03400   0.03430  -0.01078
  19        4PY        -0.02368   0.01358   0.01330   0.02811   0.00301
  20        4PZ        -0.04226   0.02826   0.03603  -0.01134  -0.05001
  21        5PX         0.01564   0.03982  -0.04674  -0.09611   0.04354
  22        5PY         0.07433  -0.05328  -0.06052  -0.10794  -0.05372
  23        5PZ         0.07452  -0.06481  -0.10171   0.04251   0.13567
  24        6D 0       -0.00232   0.00205  -0.00123   0.00120   0.00131
  25        6D+1        0.00008   0.00168  -0.00017   0.00046   0.00201
  26        6D-1       -0.00195  -0.00054   0.00235   0.00314  -0.00268
  27        6D+2       -0.00098   0.00008   0.00097  -0.00163  -0.00419
  28        6D-2       -0.00026   0.00335  -0.00082  -0.00572   0.00543
  29 3   C  1S          0.00032  -0.00609  -0.00311   0.01065   0.00649
  30        2S         -0.00268   0.00773   0.00598  -0.03138  -0.01856
  31        3S         -0.06224   0.15259   0.06873  -0.01990  -0.13236
  32        4PX         0.03246  -0.01585  -0.09870  -0.02855   0.03676
  33        4PY         0.00337  -0.02404  -0.01996   0.02359   0.02086
  34        4PZ        -0.02167   0.00475   0.06167   0.03177  -0.02370
  35        5PX         0.02574  -0.05635  -0.09922   0.01940   0.08453
  36        5PY         0.01151  -0.03185  -0.07431  -0.04770  -0.02008
  37        5PZ         0.02325  -0.02874   0.02587   0.07176   0.04998
  38        6D 0        0.00288  -0.00107  -0.00427   0.00007   0.00533
  39        6D+1        0.00246  -0.00209   0.00501   0.00491   0.00494
  40        6D-1        0.00367   0.00004  -0.00424   0.00060   0.00716
  41        6D+2       -0.00080   0.00017  -0.00452   0.00176   0.00218
  42        6D-2       -0.00398   0.00073   0.00653   0.00537  -0.00140
  43 4   C  1S         -0.01499   0.02204   0.00008  -0.01228  -0.00862
  44        2S          0.02393  -0.02886   0.01480   0.00735  -0.01244
  45        3S          0.29509  -0.38772  -0.21621   0.41825   0.70497
  46        4PX         0.01195   0.00581  -0.04197  -0.00056  -0.05465
  47        4PY         0.00720   0.01275   0.00985   0.01253   0.04929
  48        4PZ        -0.06894   0.04194   0.08544  -0.07567  -0.14698
  49        5PX         0.01539   0.06427  -0.13256  -0.17918  -0.22357
  50        5PY         0.07798  -0.02680  -0.10740  -0.07508   0.08120
  51        5PZ        -0.16982   0.11646   0.28471  -0.23079  -0.41236
  52        6D 0       -0.00309  -0.00384   0.00098   0.00425  -0.00466
  53        6D+1        0.00380  -0.00405   0.00374   0.00283   0.00081
  54        6D-1       -0.00356   0.00211   0.00441   0.00001  -0.00348
  55        6D+2        0.00119  -0.00209  -0.00120   0.00448   0.00583
  56        6D-2        0.00493  -0.00091  -0.01122  -0.00918   0.00197
  57 5   C  1S         -0.03009   0.00486   0.03821   0.02867   0.00027
  58        2S          0.06039  -0.01094  -0.04692  -0.03996   0.04184
  59        3S          0.36294  -0.04069  -1.00194  -0.73129  -0.53964
  60        4PX         0.00692   0.01947  -0.03982  -0.02397   0.01300
  61        4PY        -0.11528   0.02215   0.05467   0.08187   0.05102
  62        4PZ        -0.03612   0.00888   0.01494   0.03628  -0.02090
  63        5PX         0.03421   0.07832  -0.12000  -0.16478  -0.06398
  64        5PY        -0.39975   0.04778   0.30289   0.28243   0.03260
  65        5PZ        -0.07916  -0.03786  -0.20155   0.26336  -0.00584
  66        6D 0        0.00191  -0.00292  -0.00200   0.00085   0.00546
  67        6D+1       -0.00296   0.00003  -0.00461  -0.00111  -0.00394
  68        6D-1       -0.00450  -0.00103   0.00219  -0.00224  -0.00331
  69        6D+2       -0.00161  -0.00479  -0.00023  -0.00954  -0.00471
  70        6D-2       -0.00143  -0.00446   0.00499  -0.00031  -0.00039
  71 6   C  1S         -0.02566  -0.01848   0.02360  -0.01158  -0.02059
  72        2S          0.05078   0.04286  -0.04048   0.00747   0.02082
  73        3S          0.35214   0.15583  -0.47391   0.31757   0.68701
  74        4PX         0.00744   0.02930  -0.02201   0.02530  -0.02646
  75        4PY         0.04984   0.04248   0.04080   0.06356   0.03994
  76        4PZ        -0.04743  -0.01498   0.08713  -0.04571  -0.05225
  77        5PX         0.16965   0.16124  -0.04212   0.22626  -0.04249
  78        5PY         0.22380   0.17645   0.07117   0.15086   0.08395
  79        5PZ        -0.11826  -0.03169   0.23788  -0.14546  -0.19416
  80        6D 0       -0.00338   0.00048   0.00286   0.00048  -0.00312
  81        6D+1       -0.00102  -0.00007  -0.00759   0.00272   0.00007
  82        6D-1       -0.00233   0.00014  -0.00325   0.00211  -0.00211
  83        6D+2       -0.00063   0.00304   0.00142   0.00798   0.00791
  84        6D-2       -0.00109   0.00426  -0.00102   0.00476  -0.00145
  85 7   C  1S         -0.07830  -0.07819  -0.01128  -0.04113   0.03251
  86        2S          0.09584   0.10402   0.00854   0.05865  -0.02404
  87        3S          1.71532   1.68781   0.24438   0.99721  -0.96407
  88        4PX        -0.07594  -0.07851  -0.03969  -0.07173   0.02931
  89        4PY        -0.07904  -0.01771   0.07941   0.09625   0.07449
  90        4PZ         0.00727   0.00240   0.19487  -0.07766   0.07076
  91        5PX        -0.15248  -0.18377  -0.02439  -0.22331  -0.02148
  92        5PY        -0.21090  -0.03626   0.27728   0.30697   0.19171
  93        5PZ         0.00184  -0.00264   0.58699  -0.18851   0.26094
  94        6D 0       -0.00371  -0.00170  -0.00378   0.00202  -0.00182
  95        6D+1       -0.00185  -0.00039   0.00196   0.00014  -0.00394
  96        6D-1        0.00042  -0.00029   0.00430  -0.00303   0.00052
  97        6D+2        0.00015   0.00126  -0.00273  -0.00046  -0.00440
  98        6D-2        0.00545   0.00274  -0.00174  -0.00107   0.00188
  99 8   C  1S         -0.04763  -0.00935  -0.06215   0.04006  -0.04723
 100        2S          0.06541   0.00790   0.06239  -0.05657   0.07005
 101        3S          0.75816   0.23522   1.69189  -0.87334   0.91274
 102        4PX        -0.05039  -0.07545  -0.07970  -0.00302  -0.00295
 103        4PY        -0.04743  -0.00646  -0.03427   0.06129   0.01566
 104        4PZ         0.04622   0.01540   0.07493  -0.07341   0.01418
 105        5PX        -0.11161  -0.17903  -0.19940   0.06226   0.02457
 106        5PY        -0.05840  -0.02267  -0.10774   0.07269   0.04876
 107        5PZ         0.09799  -0.00638   0.00108  -0.13555   0.00240
 108        6D 0        0.00537   0.00045   0.00186  -0.00446   0.00171
 109        6D+1       -0.00179  -0.00407   0.00231  -0.00009   0.00032
 110        6D-1        0.00479   0.00037  -0.00323   0.00080  -0.00011
 111        6D+2       -0.00102  -0.00355  -0.00163  -0.00750  -0.00120
 112        6D-2        0.00144   0.00097   0.00195  -0.00136  -0.00019
 113 9   C  1S         -0.02628   0.05798  -0.02797  -0.04387   0.00103
 114        2S          0.03421  -0.07593   0.03960   0.03358  -0.02232
 115        3S          0.56678  -1.24033   0.52864   1.24808   0.16325
 116        4PX         0.03828  -0.08601   0.06654   0.10625  -0.08592
 117        4PY        -0.02490   0.05229  -0.00068  -0.02472   0.05308
 118        4PZ        -0.04528   0.06274   0.01367  -0.09369  -0.17492
 119        5PX         0.09113  -0.21761   0.22522   0.23178  -0.33900
 120        5PY        -0.03935   0.13246  -0.03939  -0.14489   0.17117
 121        5PZ        -0.09658   0.14032   0.05894  -0.21366  -0.50614
 122        6D 0        0.00302  -0.00117  -0.00067  -0.00344   0.00450
 123        6D+1       -0.00388   0.00524  -0.00120  -0.00420  -0.00462
 124        6D-1        0.00016   0.00070   0.00004  -0.00111  -0.00030
 125        6D+2        0.00234  -0.00258   0.00222  -0.00126   0.00211
 126        6D-2       -0.00147  -0.00077   0.00333   0.00373  -0.00301
 127 10  C  1S         -0.05932   0.07043   0.00193   0.04733   0.02325
 128        2S          0.07061  -0.09902   0.00856  -0.05588  -0.02153
 129        3S          1.25137  -1.46633  -0.10484  -1.01284  -0.63079
 130        4PX        -0.02125  -0.04778   0.03633   0.13649  -0.15528
 131        4PY        -0.07518   0.11550  -0.03159  -0.00353   0.03144
 132        4PZ        -0.01666   0.03072   0.06881  -0.08502  -0.10791
 133        5PX        -0.07279  -0.16584   0.06343   0.40200  -0.53394
 134        5PY        -0.13783   0.28880  -0.16535  -0.16710   0.02221
 135        5PZ        -0.07545   0.06746   0.22000  -0.20849  -0.33935
 136        6D 0       -0.00073   0.00251  -0.00525  -0.00180  -0.00350
 137        6D+1       -0.00054   0.00042   0.00301   0.00027   0.00525
 138        6D-1        0.00282  -0.00168  -0.00471   0.00140   0.00493
 139        6D+2       -0.00368   0.00490  -0.00170  -0.00260  -0.00214
 140        6D-2        0.00171  -0.00165  -0.00098   0.00104   0.00097
 141 11  H  1S         -0.00785  -0.01918   0.01371   0.02008  -0.03211
 142        2S         -0.31545   0.23980   0.40791  -0.33160  -0.79929
 143        3PX        -0.00147   0.00332  -0.00564  -0.00168   0.00044
 144        3PY         0.00326  -0.00293  -0.00079   0.00341   0.00411
 145        3PZ         0.00323  -0.00222  -0.00097   0.00239   0.00254
 146 12  H  1S         -0.00439   0.01921   0.03409   0.05880   0.00755
 147        2S         -0.62143   0.07045   0.72433   0.73755   0.19378
 148        3PX         0.00404   0.00624  -0.00361  -0.00129   0.00125
 149        3PY         0.00352  -0.00324  -0.00071  -0.00320  -0.00246
 150        3PZ         0.00236   0.00155  -0.00201   0.00450  -0.00211
 151 13  H  1S          0.01383  -0.01163  -0.01729  -0.03331  -0.04171
 152        2S         -0.19862  -0.26102  -0.19709  -0.29447  -0.26525
 153        3PX        -0.00046   0.00356  -0.00220   0.00309  -0.00243
 154        3PY        -0.00106  -0.00061   0.00030  -0.00141  -0.00189
 155        3PZ        -0.00339   0.00037  -0.00039   0.00259  -0.00365
 156 14  H  1S         -0.02871  -0.01211   0.00735   0.00449  -0.01853
 157        2S         -0.67259  -0.83966   0.04988  -1.04259   0.34079
 158        3PX         0.00100   0.00078  -0.00086   0.00189   0.00104
 159        3PY        -0.00414  -0.00359   0.00053  -0.00053   0.00385
 160        3PZ         0.00363   0.00260   0.00445  -0.00096   0.00121
 161 15  H  1S         -0.01740  -0.01439  -0.04048   0.00391   0.00033
 162        2S         -0.64773  -0.67553  -0.92563  -0.13177   0.06479
 163        3PX        -0.00167  -0.00002   0.00109   0.00102  -0.00136
 164        3PY        -0.00023   0.00005   0.00416  -0.00223   0.00071
 165        3PZ        -0.00723  -0.00492  -0.00532   0.00206  -0.00032
 166 16  H  1S         -0.00577  -0.01411   0.02906  -0.01209   0.03397
 167        2S         -0.85874  -0.62825   0.72071  -0.05290   0.80827
 168        3PX        -0.00604  -0.00289   0.00149   0.00252   0.00103
 169        3PY         0.00216   0.00314  -0.00256   0.00135  -0.00396
 170        3PZ         0.00216   0.00246   0.00057   0.00214  -0.00033
 171 17  H  1S         -0.03267  -0.02544  -0.00446  -0.00390  -0.01342
 172        2S         -0.26837   0.04179  -0.41245   0.34610  -0.30047
 173        3PX        -0.00417  -0.00230  -0.00472   0.00146  -0.00330
 174        3PY         0.00332  -0.00285   0.00219  -0.00718   0.00263
 175        3PZ        -0.00066  -0.00023   0.00304   0.00142  -0.00033
 176 18  H  1S         -0.00091   0.00563  -0.01740  -0.01966  -0.00562
 177        2S         -0.51285  -0.23758  -0.90635   0.56366  -0.34547
 178        3PX         0.00573   0.00518   0.00693   0.00186   0.00286
 179        3PY         0.00233   0.00003   0.00012  -0.00322   0.00089
 180        3PZ         0.00148   0.00205  -0.00175  -0.00128  -0.00109
 181 19  H  1S          0.00506   0.00923  -0.02342   0.04435  -0.00727
 182        2S         -0.15052  -0.05065  -0.51430   0.22474  -0.39699
 183        3PX         0.00086   0.00069   0.00258  -0.00151   0.00058
 184        3PY        -0.00454   0.00021  -0.00187   0.00420  -0.00403
 185        3PZ         0.00365   0.00034   0.00026  -0.00227   0.00151
 186 20  H  1S         -0.03071   0.03127  -0.00032   0.01378  -0.02323
 187        2S         -0.17880   0.29308  -0.15748  -0.23220  -0.23078
 188        3PX        -0.00046  -0.00095   0.00345   0.00432  -0.00011
 189        3PY        -0.00083   0.00259  -0.00383  -0.00270  -0.00065
 190        3PZ        -0.00056   0.00072   0.00005  -0.00191  -0.00243
 191 21  H  1S          0.01068   0.00439  -0.00187  -0.03116   0.00129
 192        2S         -0.28963   0.63101  -0.10646  -0.76609  -0.72697
 193        3PX         0.00465  -0.00562  -0.00062   0.00435   0.00738
 194        3PY         0.00232  -0.00326   0.00094   0.00003   0.00361
 195        3PZ         0.00134  -0.00288   0.00041   0.00254  -0.00015
 196 22  H  1S         -0.00530   0.01431  -0.01614  -0.03312   0.00114
 197        2S         -0.28754   0.74046  -0.51658  -0.75164   0.75830
 198        3PX        -0.00023   0.00076   0.00031  -0.00039   0.00044
 199        3PY         0.00203  -0.00440   0.00413   0.00157  -0.00364
 200        3PZ        -0.00302   0.00533  -0.00155  -0.00491  -0.00127
 201 23  H  1S         -0.01643   0.02471  -0.01992  -0.00550  -0.03501
 202        2S         -0.47760   0.38948  -0.13029   0.98036  -0.04468
 203        3PX         0.00225  -0.00386  -0.00066  -0.00407  -0.00182
 204        3PY         0.00088   0.00058  -0.00380  -0.00277  -0.00042
 205        3PZ        -0.00257   0.00259  -0.00319   0.00087  -0.00565
 206 24  H  1S         -0.01969   0.02443   0.03037  -0.00478   0.02130
 207        2S         -0.47693   0.91433  -0.22992  -0.03314   1.13351
 208        3PX        -0.00487   0.00617  -0.00156   0.00047   0.00415
 209        3PY        -0.00098   0.00247  -0.00174  -0.00136   0.00106
 210        3PZ        -0.00153   0.00208   0.00129  -0.00101  -0.00051
 211 25  H  1S         -0.00144   0.00533  -0.02967   0.00314   0.00084
 212        2S         -0.60640   0.71114   0.28930   0.13388  -0.34421
 213        3PX         0.00260  -0.00064  -0.00493  -0.00220  -0.00424
 214        3PY        -0.00420   0.00360   0.00223  -0.00186  -0.00499
 215        3PZ         0.00385  -0.00683   0.00166   0.00030   0.00416
 216 26  O  1S          0.00329  -0.00185   0.00225   0.00385   0.00755
 217        2S          0.00624  -0.00137   0.00551   0.00190   0.01109
 218        3S          0.02743  -0.04360   0.00772   0.07533   0.09501
 219        4PX        -0.02525  -0.00051   0.07207   0.02992  -0.03626
 220        4PY         0.00137   0.01437   0.01494   0.00459   0.00510
 221        4PZ         0.02027   0.00022  -0.01990  -0.02847   0.01412
 222        5PX        -0.02568   0.00067   0.08010   0.03023  -0.02954
 223        5PY        -0.00367   0.02330   0.01780  -0.01301  -0.01455
 224        5PZ         0.01749  -0.00565  -0.02447  -0.01662   0.02532
 225        6D 0       -0.00038   0.00022   0.00130  -0.00020  -0.00085
 226        6D+1        0.00033  -0.00052   0.00117   0.00060   0.00096
 227        6D-1        0.00028   0.00005  -0.00073  -0.00065  -0.00031
 228        6D+2       -0.00031   0.00002  -0.00095  -0.00073  -0.00126
 229        6D-2       -0.00017   0.00076   0.00134   0.00075  -0.00066
 230 27  H  1S         -0.00743   0.00995   0.04024  -0.00538  -0.02735
 231        2S         -0.39207  -0.21002   0.59818  -0.37890  -0.44828
 232        3PX         0.00034   0.00128   0.00396   0.00108  -0.00117
 233        3PY         0.00255   0.00057  -0.00064   0.00026   0.00172
 234        3PZ         0.00214   0.00078  -0.00232   0.00106   0.00247
     Density Matrix:
                           1         2         3         4         5
   1 1   O  1S          2.13553
   2        2S          0.27353   0.71485
   3        3S          0.33465   0.50946   0.44580
   4        4PX         0.02613   0.04916   0.07170   0.59319
   5        4PY         0.00791   0.01931   0.01137  -0.03562   0.76120
   6        4PZ         0.03967   0.06868   0.16828  -0.01917  -0.02296
   7        5PX         0.02055   0.06368   0.05141   0.42592  -0.02118
   8        5PY         0.00400   0.01907   0.00743  -0.02412   0.55256
   9        5PZ         0.03108   0.09228   0.12627  -0.04312  -0.01236
  10        6D 0        0.00106   0.00222  -0.00261   0.00893   0.00191
  11        6D+1        0.00030   0.00063  -0.00405  -0.01808  -0.00046
  12        6D-1        0.00047   0.00059  -0.00056   0.00097  -0.01905
  13        6D+2        0.00139   0.00270   0.00111  -0.01254   0.00359
  14        6D-2        0.00066   0.00104   0.00046  -0.00386  -0.01259
  15 2   N  1S         -0.00203  -0.00440  -0.00053  -0.00892   0.02064
  16        2S         -0.00583  -0.01423  -0.00450  -0.02530   0.05552
  17        3S          0.00511   0.02334   0.04677  -0.00537   0.05481
  18        4PX         0.00125   0.00117   0.01392   0.00199   0.01103
  19        4PY         0.00420   0.00905   0.00098   0.01025  -0.02713
  20        4PZ         0.00705   0.01740   0.01456   0.00638  -0.03001
  21        5PX        -0.00569  -0.01671  -0.02576  -0.03262  -0.00230
  22        5PY         0.00251   0.00320   0.00744   0.02705  -0.01624
  23        5PZ        -0.00378  -0.01078  -0.00769  -0.00189   0.00049
  24        6D 0        0.00035   0.00091   0.00126  -0.00116  -0.00200
  25        6D+1        0.00023   0.00052   0.00139   0.00059  -0.00043
  26        6D-1        0.00068   0.00113   0.00052   0.00163  -0.00584
  27        6D+2       -0.00029   0.00010   0.00150  -0.00253   0.00261
[...]
 .00002040,0.00002629,-0.00001831,0.00003044,-0.00000048,0.00002198,-0.
 00001465,0.00000760,-0.00002607,-0.01833300,0.33129590,0.00105287,0.00
 025479,0.00188123,0.00030119,0.03037638,-0.01649093,-0.00314794,-0.000
 82294,-0.00140664,0.00013306,0.00204501,0.00114562,-0.00000361,-0.0000
 0213,0.00001258,-0.00000849,-0.00004723,0.00001981,0.00002318,-0.00001
 136,0.00000627,0.00007843,0.00004706,0.00012073,-0.01004817,0.11467044
 ,-0.09068439,0.00032073,-0.00156650,-0.00705716,-0.00025748,-0.0002924
 9,-0.00021969,0.00013406,-0.00008876,0.00025627,-0.00002983,-0.0000407
 8,-0.00008752,0.00000774,0.00000214,0.00000936,-0.00000705,0.00000181,
 0.00000752,0.00001521,-0.00001786,0.00001496,-0.00010155,0.00004531,0.
 00001863,-0.00001289,-0.00003795,0.00004957,-0.00002244,-0.00006002,-0
 .00012372,0.00865875,-0.12872578,0.10485822,0.00049879,0.00041906,0.00
 006197,-0.00837179,0.00327184,0.01572052,-0.00098276,-0.00098770,0.000
 17735,0.00162228,-0.00244867,-0.00236346,0.00054548,0.00023027,-0.0002
 5686,-0.00010275,-0.00002289,0.00019811,0.00005125,0.00008378,0.000024
 77,-0.00011033,-0.00017830,-0.00014096,-0.30617914,0.10595368,0.021649
 45,0.00217547,0.00171658,-0.00205675,0.00109683,0.00161734,0.00133043,
 -0.00003066,-0.00007022,0.00004806,0.00000002,0.00001762,-0.00000330,0
 .00003869,0.00001040,0.00004737,-0.00000676,-0.00001349,-0.00000870,-0
 .00000098,-0.00003401,0.00000750,0.00004904,0.00004608,-0.00021151,0.0
 0006387,-0.00000390,0.00004694,0.00001501,-0.00000550,-0.00002837,-0.0
 0071455,-0.00147513,0.00002898,0.32640741,-0.00089152,-0.00044561,-0.0
 0119828,0.00329807,-0.00129952,-0.00518317,0.00191026,0.00007474,0.000
 51941,0.00315811,0.00137956,0.00052720,-0.00043431,-0.00003840,0.00012
 305,0.00005155,-0.00000662,-0.00009764,-0.00003473,-0.00001709,0.00000
 408,0.00004502,-0.00000285,0.00012942,0.10524683,-0.08562559,-0.008110
 92,-0.00356626,0.00160481,0.00083543,-0.00115509,-0.00004381,0.0001485
 4,0.00002663,0.00002281,0.00000113,-0.00000640,-0.00000047,0.00002953,
 -0.00001391,-0.00000673,-0.00001784,0.00000208,0.00000379,0.00001816,0
 .00000570,0.00001132,-0.00000638,-0.00005605,-0.00000487,0.00009654,-0
 .00006036,0.00000514,-0.00000230,0.00000059,0.00000418,0.00004450,0.02
 716648,-0.00669357,-0.00426165,-0.11574504,0.08288263,-0.00009160,-0.0
 0041722,0.00082488,0.03316644,-0.01292424,-0.02557462,-0.00042109,0.00
 017042,-0.00009704,0.00686127,0.00383507,0.00194213,-0.00017270,0.0002
 0048,0.00012004,-0.00000560,0.00004555,-0.00002375,-0.00002013,-0.0000
 3394,-0.00000537,0.00008798,0.00014028,-0.00002563,0.02524573,-0.01032
 760,-0.03774638,0.00269186,-0.00609888,0.00242272,-0.00219407,0.000552
 77,0.00116218,0.00000114,0.00000332,0.00001957,0.00000465,-0.00001065,
 -0.00001330,-0.00001936,-0.00000641,-0.00001283,0.00000195,0.00000718,
 0.00001592,0.00000482,0.00000696,0.00000540,-0.00018590,-0.00006830,0.
 00026609,-0.00010496,-0.00009398,-0.00005717,-0.00000731,-0.00001386,-
 0.00001160,-0.01213795,0.00285034,0.00192901,-0.03758651,0.01486843,0.
 05188225,0.00010535,-0.00016856,-0.00001273,0.00678396,0.00612521,0.00
 419202,-0.00020071,0.00019800,-0.00007756,-0.00010321,0.00007108,0.000
 91553,0.00077611,0.00007378,0.00027471,-0.00001542,0.00003323,0.000133
 88,0.00002619,0.00001633,0.00000634,-0.00004302,0.00003998,-0.00022435
 ,-0.18983314,-0.13241637,-0.09067273,0.00029028,-0.00014632,0.00061416
 ,0.00087545,0.00014140,0.00012674,-0.00003873,0.00004119,-0.00005341,0
 .00001483,0.00000575,0.00000451,-0.00000485,-0.00000690,0.00000434,0.0
 0000662,0.00000338,-0.00000844,-0.00000292,0.00000356,0.00000142,0.000
 00211,-0.00001230,0.00002391,0.00004330,-0.00001465,-0.00006247,0.0000
 0379,0.00000369,0.00002079,0.00210397,0.00327772,0.00196197,-0.0168286
 0,-0.01892163,-0.01181411,0.19610587,0.00049445,-0.00035483,-0.0000736
 8,-0.00046552,-0.00322965,-0.00184855,-0.00018596,0.00100165,-0.000020
 70,0.00088382,0.00126039,-0.00083383,-0.00023895,-0.00013824,0.0004508
 4,0.00001996,0.00011861,-0.00015970,-0.00005598,-0.00006146,-0.0000138
 8,-0.00000591,0.00001552,-0.00008453,-0.13231150,-0.16079022,-0.080165
 76,0.00082644,0.00038860,0.00157713,-0.00018424,-0.00007498,0.00029247
 ,0.00000735,0.00010267,-0.00010294,0.00000881,-0.00000386,0.00001955,-
 0.00003038,-0.00000828,-0.00004336,0.00001488,0.00000691,-0.00000638,0
 .00000019,0.00001460,0.00000093,-0.00001674,-0.00001742,0.00004095,0.0
 0002136,-0.00000045,-0.00007536,0.00000068,-0.00000355,0.00002471,-0.0
 1953174,-0.01228790,-0.01351265,0.00943036,0.00753826,0.00609658,0.141
 35489,0.16613853,0.00049852,-0.00026544,0.00038415,-0.01999190,-0.0224
 6272,-0.01897228,-0.00041468,0.00120706,-0.00034651,0.00172100,0.00222
 972,-0.00652211,-0.00128561,-0.00189784,0.00004092,0.00013484,0.000266
 48,-0.00066386,-0.00017533,-0.00020848,-0.00004034,-0.00014928,0.00002
 876,0.00004159,-0.08703822,-0.07665126,-0.09180887,-0.00139647,-0.0021
 3954,0.00090903,-0.00008380,0.00034595,0.00013209,-0.00003358,0.000117
 51,0.00007617,0.00000467,-0.00002855,-0.00002389,-0.00005774,0.0000088
 3,-0.00010666,0.00002368,0.00000445,-0.00000955,0.00000032,0.00002300,
 0.00001113,0.00004619,0.00002159,0.00004085,0.00006130,0.00000525,-0.0
 0008656,0.00001733,-0.00001446,-0.00000322,0.01018833,0.00696754,0.006
 48062,0.00229941,0.00288119,0.00185938,0.09497711,0.08874964,0.1079374
 1,-0.00029908,0.00004004,0.00001392,0.00001575,-0.00084857,-0.00465176
 ,0.00038739,-0.00032518,-0.00001277,0.00000685,0.00058124,0.00053742,0
 .00035382,-0.00183997,0.00020747,-0.00037631,0.00032199,-0.00000237,0.
 00006527,-0.00002763,-0.00003228,0.00072554,0.00048012,-0.00001135,0.0
 0026713,-0.00009529,-0.00036446,-0.05572746,0.00381222,0.06314182,0.00
 004683,0.00004408,-0.00004684,-0.00155243,-0.00064673,-0.00094401,0.00
 016284,0.00013301,0.00006556,0.00001314,0.00003252,0.00003301,-0.00000
 772,-0.00000955,0.00001645,-0.00005134,0.00001284,-0.00001124,-0.00021
 733,0.00031991,0.00006600,-0.00005439,-0.00008967,-0.00003713,-0.00027
 330,-0.00000419,0.00000207,0.00060777,0.00011142,-0.00006156,0.0004759
 9,0.00010297,-0.00056362,0.00014259,0.00029583,0.00027005,0.05449969,-
 0.00007802,0.00006285,-0.00031599,-0.00443158,-0.00036535,0.03414334,0
 .00031572,-0.00006281,0.00018406,-0.00027934,0.00162926,0.00076057,-0.
 00142614,-0.00121762,-0.00069519,0.00001595,-0.00012553,-0.00015022,0.
 00000900,0.00006906,0.00000360,-0.00068902,-0.00080384,-0.00079913,-0.
 00062687,-0.00635454,0.00189393,0.00515319,-0.04120947,-0.02442984,-0.
 00007756,-0.00007792,-0.00023154,-0.00123651,-0.00098129,-0.00079046,-
 0.00001085,0.00000769,0.00004030,0.00004151,-0.00000044,0.00002071,-0.
 00001991,-0.00001010,-0.00004264,0.00001313,-0.00002407,-0.00000309,0.
 00102918,-0.00074925,-0.00025282,0.00008738,0.00007705,0.00009308,0.00
 025166,0.00030801,0.00032890,-0.00040970,0.00017699,0.00201659,-0.0002
 5907,-0.00004225,0.00000296,0.00042784,0.00021414,-0.00013679,-0.00404
 188,0.04992626,-0.00007177,0.00017179,0.00023080,0.00085324,0.00291415
 ,-0.01288311,0.00009961,-0.00047049,-0.00001076,-0.00108205,-0.0006280
 6,-0.00101021,-0.00107483,-0.00150454,-0.00068414,0.00019985,-0.000523
 97,0.00016435,0.00001662,0.00004945,0.00006459,-0.00024565,-0.00106667
 ,-0.00012850,-0.00006723,0.00401463,0.00018401,0.06387872,-0.01732142,
 -0.34922073,0.00019382,-0.00000076,0.00008191,-0.00042283,-0.00141661,
 0.00015828,-0.00019849,-0.00011827,-0.00009429,-0.00000333,-0.00001555
 ,0.00000350,0.00000620,0.00000110,0.00002019,0.00001420,-0.00000010,0.
 00000248,0.00002992,-0.00020600,0.00014321,-0.00012443,-0.00006218,-0.
 00010348,-0.00000699,-0.00002903,-0.00002978,0.00037385,-0.00022185,-0
 .00092891,0.00010610,-0.00019807,0.00018182,0.00007799,-0.00008669,0.0
 0039846,-0.06523915,0.01586698,0.37498825,0.00026610,-0.00023015,0.000
 14940,0.00434096,0.00188584,0.00342202,-0.00027419,0.00063902,-0.00033
 788,0.00143419,0.00028472,0.00012080,-0.00001779,0.00041700,0.00006261
 ,0.00005494,-0.00002905,0.00000992,-0.00002451,0.00001574,0.00001224,0
 .00002468,-0.00013247,0.00000225,0.00027884,0.00034155,-0.00081287,-0.
 18776073,-0.12437799,-0.09920266,0.00023257,0.00059609,0.00002961,-0.0
 0005666,-0.00020412,0.00027655,-0.00000747,-0.00002167,-0.00001726,-0.
 00001229,-0.00001401,-0.00001674,0.00001329,-0.00000460,-0.00000975,0.
 00001065,-0.00000173,0.00001752,0.00004831,-0.00003088,0.00000718,-0.0
 0000177,-0.00000025,-0.00002901,0.00007183,0.00000102,-0.00002390,0.00
 017038,0.00022725,0.00029679,-0.00047469,0.00000974,-0.00021363,0.0002
 2370,-0.00021725,0.00047813,0.00521814,0.00560126,0.00395097,0.1935299
 5,0.00089585,-0.00021242,0.00036968,-0.01960457,-0.02633605,-0.0143236
 4,-0.00249348,0.00104195,-0.00125340,0.00189654,-0.00317569,0.00443021
 ,0.00048039,-0.00009882,0.00118022,-0.00001683,0.00019641,-0.00014666,
 -0.00004195,-0.00006661,-0.00002181,-0.00008052,0.00004383,-0.00009460
 ,-0.00046261,0.00069625,-0.00224041,-0.12178232,-0.14185644,-0.0850200
 1,-0.00067478,-0.00040530,-0.00006439,0.00002029,0.00048714,-0.0000759
 8,0.00003612,0.00002850,0.00005923,-0.00003079,-0.00000324,-0.00004157
 ,0.00001262,0.00000887,-0.00001787,-0.00001025,0.00002510,-0.00000818,
 -0.00004476,-0.00001483,0.00006794,0.00005589,-0.00000578,-0.00010191,
 -0.00002745,-0.00000516,0.00005109,0.00045313,0.00018482,-0.00012055,-
 0.00010387,0.00005966,0.00038217,0.00020717,0.00038797,0.00094170,0.00
 038544,-0.00027152,0.00059251,0.13278628,0.16335203,-0.00004571,-0.000
 17193,-0.00009152,0.00949854,0.00943913,0.00534123,0.00064247,0.000076
 45,0.00052564,-0.00031206,0.00277398,-0.00123728,-0.00083871,0.0002249
 5,-0.00055396,0.00030071,-0.00030383,0.00010467,-0.00001695,-0.0000055
 2,0.00002853,-0.00004769,-0.00014619,0.00014981,0.00156988,0.00154912,
 0.00098845,-0.10008564,-0.08794039,-0.11089931,-0.00005915,-0.00012156
 ,0.00010471,0.00051699,-0.00088188,0.00026024,-0.00015371,-0.00010382,
 -0.00007295,-0.00002710,-0.00002084,-0.00002562,0.00001402,0.00001182,
 0.00000679,0.00002277,0.00001263,0.00000855,-0.00024208,0.00007031,0.0
 0000664,-0.00002743,0.00001279,-0.00002724,0.00000784,-0.00007540,-0.0
 0005929,0.00013086,-0.00005037,0.00031163,-0.00019116,-0.00009100,-0.0
 0018078,-0.00047442,-0.00017133,0.00005581,-0.02121122,-0.01679873,-0.
 00951333,0.10610780,0.08914083,0.11272077,0.00044789,0.00063796,-0.000
 01227,-0.00086211,0.01296008,-0.00351826,-0.00077232,-0.00069859,0.000
 24464,0.00210319,-0.00218079,-0.00192684,0.00008823,0.00081253,-0.0004
 1478,0.00003069,-0.00010507,0.00016707,0.00001374,0.00014636,0.0000387
 3,0.00006240,-0.00051203,-0.00000341,0.00238064,-0.00157341,0.00191658
 ,-0.31030667,0.08914340,0.04795778,0.00080521,0.00222992,0.00065510,-0
 .00002578,-0.00033322,0.00044255,-0.00002949,-0.00003510,-0.00003960,0
 .00004098,-0.00001393,0.00004023,-0.00000672,-0.00002355,-0.00000533,0
 .00002672,-0.00006001,0.00003323,0.00009597,-0.00001508,-0.00019460,0.
 00001013,0.00004236,0.00012898,0.00009903,-0.00002620,-0.00012204,0.00
 038045,0.00005216,-0.00019718,0.00015970,0.00068757,-0.00248782,-0.000
 51051,-0.00017416,-0.00006298,-0.00436760,0.00044805,-0.00134194,-0.01
 727123,0.00787089,0.00500772,0.32700502,-0.00095496,-0.00153204,-0.000
 41171,0.03142565,-0.03010654,0.00588155,0.00143020,-0.00002986,0.00055
 408,0.00488866,0.00453501,0.00134484,-0.00006992,-0.00035483,0.0001531
 5,-0.00007085,0.00016820,-0.00018831,-0.00001466,-0.00007967,-0.000029
 69,0.00000622,0.00018054,0.00000467,0.00179649,0.00020481,-0.00592157,
 0.09339967,-0.06724057,-0.02018288,-0.00201995,0.00033995,0.00038961,-
 0.00000252,-0.00012391,-0.00067622,0.00005201,0.00006515,0.00007240,-0
 .00001985,0.00001490,-0.00002160,0.00000133,0.00001134,-0.00000217,-0.
 00002486,0.00003531,-0.00002057,-0.00005156,-0.00006617,0.00024907,-0.
 00003405,-0.00000330,-0.00006304,-0.00003956,0.00005256,0.00009370,-0.
 00047027,0.00001786,-0.00009564,-0.00218654,0.00105720,0.00115767,-0.0
 0019195,0.00007487,0.00044815,0.00118378,-0.00044624,-0.00013522,-0.01
 732477,0.00743582,0.00328509,-0.11003382,0.08638447,0.00003949,0.00042
 802,0.00013357,-0.01133923,0.00962037,0.00051511,-0.00028710,-0.000021
 74,-0.00013041,-0.00037326,-0.00103980,-0.00015908,0.00067080,-0.00015
 867,0.00019249,-0.00013318,0.00014575,0.00003523,0.00002341,-0.0000428
 1,-0.00000009,0.00049603,-0.00012601,0.00009061,-0.00475324,0.00173319
 ,0.00349056,0.04573197,-0.01839857,-0.05081561,0.00037305,-0.00022989,
 -0.00000501,0.00002658,0.00026842,-0.00037367,0.00005500,0.00006093,0.
 00001997,-0.00000980,0.00001211,0.00001141,0.00000089,0.00001284,0.000
 03656,-0.00001488,0.00002139,-0.00001094,-0.00045454,0.00004116,0.0000
 0500,-0.00003567,-0.00001891,-0.00001879,-0.00022889,-0.00012596,-0.00
 014032,0.00032566,-0.00022675,0.00003123,0.00140815,-0.00121825,0.0010
 1135,0.00006887,-0.00006849,-0.00010386,0.02889102,-0.01061948,-0.0020
 3612,-0.01436604,0.00581076,0.00214999,-0.04618711,0.01410573,0.046064
 45,-0.09883388,-0.06714675,-0.00572680,0.00330052,0.00157087,-0.001131
 32,-0.34822228,-0.29518567,0.02066190,0.00436997,-0.00738038,0.0009005
 7,-0.00095111,-0.00082785,-0.00155028,-0.00158569,-0.00009525,-0.00137
 109,0.00085957,0.00125327,-0.00014658,0.00002787,0.00069094,0.00041878
 ,-0.00031280,0.00037993,0.00075469,0.00107200,0.00011373,-0.00019010,0
 .00379228,-0.00343340,0.00001014,0.00021429,0.00002870,0.00060186,-0.0
 0089640,0.00066877,0.00158748,0.00012278,-0.00006001,0.00025658,-0.000
 00828,0.00007050,-0.00062347,-0.00027171,0.00029243,-0.00048922,0.0003
 6165,0.00069395,-0.00045010,0.00033385,-0.00046849,0.00044755,-0.00074
 401,-0.00034964,-0.00117993,-0.00164818,0.00045683,0.00090152,0.000601
 08,-0.00078646,0.00000201,0.00004951,0.00004812,-0.00003645,-0.0000818
 4,0.00003953,0.00013191,-0.00003379,0.00022644,-0.00002743,0.00041831,
 -0.00070320,0.00013004,0.43653897,-0.04288728,0.02171565,-0.00375696,0
 .00167345,-0.00883669,0.00387209,-0.30172543,-0.45776109,0.03550227,-0
 .02676091,-0.04334813,0.00995494,-0.00093071,-0.00270003,-0.00462262,-
 0.00037165,-0.00188382,-0.00078684,0.00030328,0.00135838,0.00046420,0.
 00065708,-0.00006428,0.00110624,-0.00055424,-0.00000203,0.00292942,-0.
 00158375,-0.00114200,-0.00316468,0.00029033,0.00070193,-0.00177382,0.0
 0061472,-0.00045222,0.00224381,0.00003985,0.00015701,0.00343321,0.0003
 5904,0.00003295,0.00044085,-0.00008980,-0.00012678,-0.00012191,-0.0002
 8085,0.00030597,-0.00048873,0.00029543,0.00049700,-0.00049605,-0.00020
 782,-0.00009977,0.00085599,-0.00084723,-0.00014886,-0.00051951,-0.0005
 9648,0.00039056,0.00022055,0.00073801,-0.00040678,-0.00032890,-0.00015
 056,-0.00029134,-0.00048318,0.00008427,0.00021604,0.00037107,-0.000251
 13,-0.00150355,0.00029268,0.00070867,-0.00056890,0.00006510,0.37120367
 ,0.49468013,-0.01168935,-0.00791814,0.03233996,-0.00086013,0.00361636,
 -0.00044700,0.02263175,0.03817013,-0.07391790,0.00465439,0.01072456,0.
 02015509,0.00014852,-0.00550632,0.00088814,-0.00069127,-0.00104943,-0.
 00331462,-0.00000102,0.00157188,0.00004327,0.00016776,-0.00002678,0.00
 056000,-0.00005937,0.00072847,-0.00104126,0.00080400,0.00056425,0.0009
 1856,-0.00117905,0.00218402,-0.00060431,0.00019891,0.00002901,0.001180
 37,-0.00031217,0.00164788,0.00100189,-0.00001166,-0.00009763,0.0000567
 8,0.00004055,-0.00001699,-0.00021662,-0.00027112,0.00040280,-0.0006084
 8,0.00006710,0.00042499,-0.00013258,0.00007764,-0.00011951,0.00010082,
 -0.00039930,-0.00031424,-0.00050869,0.00052451,-0.00007257,-0.00013408
 ,-0.00028670,0.00015819,0.00011910,-0.00001804,0.00000212,0.00029675,-
 0.00005429,-0.00010931,0.00004512,0.00009602,0.00046965,-0.00009923,-0
 .00008256,-0.00002827,0.00000324,-0.01372732,-0.04529395,0.02365472,0.
 00109782,0.00010821,-0.00011007,0.00122634,0.00021514,-0.00004241,-0.0
 0148913,-0.00099152,-0.00005362,-0.00091116,0.00053849,0.00205899,-0.0
 2024623,0.00347797,0.01473420,-0.23210051,0.01932836,0.15810787,0.0095
 6951,-0.00052458,-0.01028706,-0.00295813,-0.00463496,-0.00290729,-0.00
 000963,-0.00001230,-0.00009770,-0.00015191,-0.00012943,0.00029926,0.00
 070770,-0.00039393,-0.00124168,0.00047789,-0.00041251,-0.00002419,-0.0
 0646181,-0.00207753,0.00508028,0.00076383,-0.00024333,0.00073201,0.000
 05105,0.00077706,-0.00314102,0.00055619,-0.00033127,0.00077021,-0.0015
 5242,-0.00001540,0.00116650,0.00029478,-0.00002134,0.00007046,0.000511
 94,-0.00008373,-0.00011774,-0.00000565,0.00000284,-0.00001631,0.000002
 09,-0.00003985,-0.00004149,0.00002746,0.00001118,0.00000515,0.00002003
 ,0.00015304,-0.00005432,0.00001661,0.00004714,-0.00005916,-0.00001587,
 0.00002929,-0.00005802,0.00152731,0.00027004,0.00023221,0.24905192,-0.
 00057896,-0.00036845,0.00015532,0.00046389,-0.00003320,0.00025980,0.00
 089990,0.00145557,-0.00062231,-0.00081053,0.00071199,0.00074067,-0.016
 75041,0.00135105,0.01238875,0.01982959,-0.04524593,-0.01638928,-0.0066
 1682,-0.00034290,0.00616790,-0.00168469,-0.00206122,-0.00174504,0.0000
 2555,0.00007176,-0.00008263,-0.00006584,-0.00002589,0.00007763,0.00054
 788,-0.00002243,-0.00035098,0.00044025,0.00027054,0.00042346,0.0220108
 2,0.00088854,-0.01926720,0.00013340,0.00016270,-0.00063685,0.00019815,
 0.00043792,0.00203446,-0.00073541,0.00036025,-0.00015987,-0.00096890,0
 .00037533,0.00039623,0.00022848,-0.00011196,0.00003029,-0.00028792,0.0
 0022730,-0.00006758,-0.00000168,0.00000833,0.00002421,-0.00000069,-0.0
 0000992,0.00000380,0.00000504,-0.00000053,0.00004142,-0.00001300,0.000
 05489,0.00002382,0.00003457,0.00000708,-0.00000696,0.00004502,-0.00002
 594,-0.00003042,-0.00130059,-0.00071934,-0.00014116,-0.01504709,0.0425
 8448,0.00021841,-0.00003362,0.00013161,0.00004549,0.00033921,0.0000692
 4,-0.00010011,0.00018155,-0.00017390,-0.00264106,-0.00058167,0.0002591
 7,-0.00838412,0.00082319,0.00602900,0.16072695,-0.01670795,-0.16696969
 ,0.02099941,-0.00155817,-0.01956180,-0.00180904,-0.00107729,-0.0005624
 9,0.00001237,0.00006723,-0.00004632,0.00009248,-0.00009680,0.00009069,
 0.00010899,-0.00061113,0.00024233,0.00034086,0.00011739,0.00006133,-0.
 00131979,0.00101380,-0.00011209,0.00000773,-0.00063514,0.00092490,-0.0
 0260767,0.00188125,-0.00509939,0.00009541,0.00026397,0.00120450,-0.000
 60921,-0.00014920,0.00031139,-0.00002380,-0.00012016,0.00010167,0.0000
 5766,-0.00003609,-0.00009155,0.00000256,-0.00000371,-0.00002021,-0.000
 02082,0.00000073,-0.00001336,0.00001398,0.00001291,0.00002334,-0.00000
 074,0.00002022,-0.00002359,-0.00001007,0.00003501,-0.00000297,-0.00003
 590,0.00003719,0.00000314,-0.00015494,0.00008476,-0.00033903,-0.165005
 02,0.01673252,0.18356406\\0.03303675,-0.01254704,0.00982738,0.01592096
 ,-0.02392889,-0.00597416,-0.06663533,0.01061735,-0.01668645,-0.0364306
 8,-0.01409074,0.00367841,-0.01088034,0.00955191,-0.01187453,-0.0002998
 4,-0.02060845,0.03301545,-0.01074696,0.01140055,-0.03518245,0.01132190
 ,0.00055220,-0.00835731,-0.01648624,0.00880917,0.04784424,-0.00267445,
 0.04624824,-0.01622198,0.02120478,0.00186534,-0.01130962,0.01147876,-0
 .01630925,0.00301317,-0.00118971,0.01393883,-0.00576277,0.01075028,0.0
 0755211,0.00723691,-0.00782812,0.00007033,0.01155790,0.00554678,-0.013
 99304,0.00292204,-0.01267786,-0.00447166,-0.00393917,-0.00092592,-0.00
 261496,0.01549831,-0.00858453,0.01182000,-0.00281291,-0.00248425,0.012
 15213,-0.00365318,0.02088913,-0.00871963,-0.00747862,-0.00977611,-0.00
 861838,-0.00674174,-0.00343393,-0.00278426,0.01186183,-0.00935067,-0.0
 0869990,-0.00632328,0.02084738,-0.01601809,0.00016972,0.03850431,0.014
 84677,0.00528826,0.01090390,0.00397935,-0.00959543\\\@
 The archive entry for this job was punched.

 Writing a WFNX file to "SOPDEG_Complex_0_Ligand_1_ON_Cu_oriented.wfx"


 IT IS DOUBTED WHETHER A MAN EVER BRINGS HIS FACULTIES TO BEAR WITH THEIR FULL FORCE
 ON A SUBJECT UNTIL HE WRITES UPON IT.

                          -- CICERO
 Job cpu time:       0 days  0 hours 24 minutes  2.7 seconds.
 Elapsed time:       0 days  0 hours 24 minutes  9.8 seconds.
 File lengths (MBytes):  RWF=    408 Int=      0 D2E=      0 Chk=     12 Scr=      8
 Normal termination of Gaussian 16 at Mon Mar  6 10:45:44 2023.
