 Entering Gaussian System, Link 0=g16
 Initial command:
 /ssoft/spack/external/gaussian/g16-C.01/avx2/g16/l1.exe "/scratch/lcmd/2387819/Gau-3435672.inp" -scrdir="/scratch/lcmd/2387819/"
 Entering Link 1 = /ssoft/spack/external/gaussian/g16-C.01/avx2/g16/l1.exe PID=   3435677.
  
 Copyright (c) 1988-2019, Gaussian, Inc.  All Rights Reserved.
  
 This is part of the Gaussian(R) 16 program.  It is based on
 the Gaussian(R) 09 system (copyright 2009, Gaussian, Inc.),
 the Gaussian(R) 03 system (copyright 2003, Gaussian, Inc.),
 the Gaussian(R) 98 system (copyright 1998, Gaussian, Inc.),
 the Gaussian(R) 94 system (copyright 1995, Gaussian, Inc.),
 the Gaussian 92(TM) system (copyright 1992, Gaussian, Inc.),
 the Gaussian 90(TM) system (copyright 1990, Gaussian, Inc.),
 the Gaussian 88(TM) system (copyright 1988, Gaussian, Inc.),
 the Gaussian 86(TM) system (copyright 1986, Carnegie Mellon
 University), and the Gaussian 82(TM) system (copyright 1983,
 Carnegie Mellon University). Gaussian is a federally registered
 trademark of Gaussian, Inc.
  
 This software contains proprietary and confidential information,
 including trade secrets, belonging to Gaussian, Inc.
  
 This software is provided under written license and may be
 used, copied, transmitted, or stored only in accord with that
 written license.
  
 The following legend is applicable only to US Government
 contracts under FAR:
  
                    RESTRICTED RIGHTS LEGEND
  
 Use, reproduction and disclosure by the US Government is
 subject to restrictions as set forth in subparagraphs (a)
 and (c) of the Commercial Computer Software - Restricted
 Rights clause in FAR 52.227-19.
  
 Gaussian, Inc.
 340 Quinnipiac St., Bldg. 40, Wallingford CT 06492
  
  
 ---------------------------------------------------------------
 Warning -- This program may not be used in any manner that
 competes with the business of Gaussian, Inc. or will provide
 assistance to any competitor of Gaussian, Inc.  The licensee
 of this program is prohibited from giving any competitor of
 Gaussian, Inc. access to this program.  By using this program,
 the user acknowledges that Gaussian, Inc. is engaged in the
 business of creating and licensing software in the field of
 computational chemistry and represents and warrants to the
 licensee that it is not a competitor of Gaussian, Inc. and that
 it will not use this program in any manner prohibited above.
 ---------------------------------------------------------------
  

 Cite this work as:
 Gaussian 16, Revision C.01,
 M. J. Frisch, G. W. Trucks, H. B. Schlegel, G. E. Scuseria, 
 M. A. Robb, J. R. Cheeseman, G. Scalmani, V. Barone, 
 G. A. Petersson, H. Nakatsuji, X. Li, M. Caricato, A. V. Marenich, 
 J. Bloino, B. G. Janesko, R. Gomperts, B. Mennucci, H. P. Hratchian, 
 J. V. Ortiz, A. F. Izmaylov, J. L. Sonnenberg, D. Williams-Young, 
 F. Ding, F. Lipparini, F. Egidi, J. Goings, B. Peng, A. Petrone, 
 T. Henderson, D. Ranasinghe, V. G. Zakrzewski, J. Gao, N. Rega, 
 G. Zheng, W. Liang, M. Hada, M. Ehara, K. Toyota, R. Fukuda, 
 J. Hasegawa, M. Ishida, T. Nakajima, Y. Honda, O. Kitao, H. Nakai, 
 T. Vreven, K. Throssell, J. A. Montgomery, Jr., J. E. Peralta, 
 F. Ogliaro, M. J. Bearpark, J. J. Heyd, E. N. Brothers, K. N. Kudin, 
 V. N. Staroverov, T. A. Keith, R. Kobayashi, J. Normand, 
 K. Raghavachari, A. P. Rendell, J. C. Burant, S. S. Iyengar, 
 J. Tomasi, M. Cossi, J. M. Millam, M. Klene, C. Adamo, R. Cammi, 
 J. W. Ochterski, R. L. Martin, K. Morokuma, O. Farkas, 
 J. B. Foresman, and D. J. Fox, Gaussian, Inc., Wallingford CT, 2019.
 
 ******************************************
 Gaussian 16:  ES64L-G16RevC.01  3-Jul-2019
                 6-Mar-2023 
 ******************************************
 %nprocshared=1
 Will use up to    1 processors via shared memory.
 %mem=8000MB
 %chk=SOWTUW_Complex_3_Ligand_0_ON_Cu_oriented.chk
 ----------------------------------------------------------------------
 #p pop=(regular,nbo,savenbos) freq=noraman def2svp empiricaldispersion
 =gd3bj output=wfx pbe1pbe
 ----------------------------------------------------------------------
 1/10=4,30=1,38=1/1,3;
 2/12=2,17=6,18=5,40=1/2;
 3/5=43,7=101,11=2,25=1,30=1,71=2,74=-13,124=41,140=1/1,2,3;
 4//1;
 5/5=2,38=5,98=1/2;
 8/6=4,10=90,11=11/1;
 11/6=1,8=1,9=11,15=111,16=1/1,2,10;
 10/6=1/2;
 6/28=1,40=1,73=1/1,7;
 7/8=1,10=1,25=1/1,2,3,16;
 1/10=4,30=1/3;
 99/6=200/99;
 Leave Link    1 at Mon Mar  6 10:21:36 2023, MaxMem=  1048576000 cpu:               0.0 elap:               0.1
 (Enter /ssoft/spack/external/gaussian/g16-C.01/avx2/g16/l101.exe)
 ----------------------------------------
 SOWTUW_Complex_3_Ligand_0_ON_Cu_oriented
 ----------------------------------------
 Symbolic Z-matrix:
 Charge = -1 Multiplicity = 1
 O                     1.24446   1.42477   0. 
 C                     2.53557   1.33546   0.13346 
 C                     2.00242  -3.92402   0.37992 
 H                     2.25668  -3.73995   1.29785 
 H                     2.79404  -3.84713  -0.1754 
 N                     1.3683   -1.46911   0. 
 C                    -1.24079  -4.74844  -0.76861 
 H                    -1.90564  -4.10398  -1.05725 
 H                    -1.62284  -5.63688  -0.85464 
 C                     0.18049  -5.50655   1.13954 
 H                    -0.17558  -6.40433   1.04787 
 C                    -0.86403  -4.48441   0.69423 
 H                    -1.66333  -4.56849   1.25738 
 C                     1.06683  -5.64904  -1.18318 
 H                     0.71652  -6.5499   -1.25962 
 H                     1.85884  -5.58131  -1.73983 
 C                     0.58374  -3.21474  -1.54351 
 H                    -0.06963  -2.57392  -1.86182 
 H                     1.37563  -3.1392   -2.09825 
 C                    -0.28685  -3.06862   0.82389 
 H                    -0.03579  -2.90359   1.74631 
 H                    -0.96253  -2.41852   0.57354 
 C                     0.94404  -2.90556  -0.08077 
 C                     0.01022  -4.6342   -1.65046 
 H                    -0.22887  -4.81974  -2.58205 
 C                     2.61882  -1.19745   0.15509 
 H                     3.19033  -1.92822   0.22668 
 C                     1.42915  -5.35369   0.27623 
 H                     2.10756  -5.99383   0.57517 
 C                     3.24328   0.11315   0.2322 
 Cl                    2.48695   4.04676   0.15037 
 Cl                    7.08169   1.2497    0.6379 
 C                     4.64165   0.10997   0.4085 
 C                     5.34135   1.28865   0.44917 
 C                     3.32019   2.52383   0.21388 
 C                     4.69135   2.51391   0.34308 
 H                     5.17282   3.30934   0.35957 
 H                     5.09312  -0.69705   0.49746 
 H                     0.40585  -5.36305   2.07204 
 
 ITRead=  0  0  0  0  0  0  0  0  0  0  0  0  0  0  0  0  0  0  0  0
 ITRead=  0  0  0  0  0  0  0  0  0  0  0  0  0  0  0  0  0  0  0
 MicOpt= -1 -1 -1 -1 -1 -1 -1 -1 -1 -1 -1 -1 -1 -1 -1 -1 -1 -1 -1 -1
 MicOpt= -1 -1 -1 -1 -1 -1 -1 -1 -1 -1 -1 -1 -1 -1 -1 -1 -1 -1 -1
 NAtoms=     39 NQM=       39 NQMF=       0 NMMI=      0 NMMIF=      0
                NMic=       0 NMicF=      0.
                    Isotopes and Nuclear Properties:
 (Nuclear quadrupole moments (NQMom) in fm**2, nuclear magnetic moments (NMagM)
  in nuclear magnetons)

  Atom         1           2           3           4           5           6           7           8           9          10
 IAtWgt=          16          12          12           1           1          14          12           1           1          12
 AtmWgt=  15.9949146  12.0000000  12.0000000   1.0078250   1.0078250  14.0030740  12.0000000   1.0078250   1.0078250  12.0000000
 NucSpn=           0           0           0           1           1           2           0           1           1           0
 AtZEff=  -0.0000000  -0.0000000  -0.0000000  -0.0000000  -0.0000000  -0.0000000  -0.0000000  -0.0000000  -0.0000000  -0.0000000
 NQMom=    0.0000000   0.0000000   0.0000000   0.0000000   0.0000000   2.0440000   0.0000000   0.0000000   0.0000000   0.0000000
 NMagM=    0.0000000   0.0000000   0.0000000   2.7928460   2.7928460   0.4037610   0.0000000   2.7928460   2.7928460   0.0000000
 AtZNuc=   8.0000000   6.0000000   6.0000000   1.0000000   1.0000000   7.0000000   6.0000000   1.0000000   1.0000000   6.0000000

  Atom        11          12          13          14          15          16          17          18          19          20
 IAtWgt=           1          12           1          12           1           1          12           1           1          12
 AtmWgt=   1.0078250  12.0000000   1.0078250  12.0000000   1.0078250   1.0078250  12.0000000   1.0078250   1.0078250  12.0000000
 NucSpn=           1           0           1           0           1           1           0           1           1           0
 AtZEff=  -0.0000000  -0.0000000  -0.0000000  -0.0000000  -0.0000000  -0.0000000  -0.0000000  -0.0000000  -0.0000000  -0.0000000
 NQMom=    0.0000000   0.0000000   0.0000000   0.0000000   0.0000000   0.0000000   0.0000000   0.0000000   0.0000000   0.0000000
 NMagM=    2.7928460   0.0000000   2.7928460   0.0000000   2.7928460   2.7928460   0.0000000   2.7928460   2.7928460   0.0000000
 AtZNuc=   1.0000000   6.0000000   1.0000000   6.0000000   1.0000000   1.0000000   6.0000000   1.0000000   1.0000000   6.0000000

  Atom        21          22          23          24          25          26          27          28          29          30
 IAtWgt=           1           1          12          12           1          12           1          12           1          12
 AtmWgt=   1.0078250   1.0078250  12.0000000  12.0000000   1.0078250  12.0000000   1.0078250  12.0000000   1.0078250  12.0000000
 NucSpn=           1           1           0           0           1           0           1           0           1           0
 AtZEff=  -0.0000000  -0.0000000  -0.0000000  -0.0000000  -0.0000000  -0.0000000  -0.0000000  -0.0000000  -0.0000000  -0.0000000
 NQMom=    0.0000000   0.0000000   0.0000000   0.0000000   0.0000000   0.0000000   0.0000000   0.0000000   0.0000000   0.0000000
 NMagM=    2.7928460   2.7928460   0.0000000   0.0000000   2.7928460   0.0000000   2.7928460   0.0000000   2.7928460   0.0000000
 AtZNuc=   1.0000000   1.0000000   6.0000000   6.0000000   1.0000000   6.0000000   1.0000000   6.0000000   1.0000000   6.0000000

  Atom        31          32          33          34          35          36          37          38          39
 IAtWgt=          35          35          12          12          12          12           1           1           1
 AtmWgt=  34.9688527  34.9688527  12.0000000  12.0000000  12.0000000  12.0000000   1.0078250   1.0078250   1.0078250
 NucSpn=           3           3           0           0           0           0           1           1           1
 AtZEff=  -0.0000000  -0.0000000  -0.0000000  -0.0000000  -0.0000000  -0.0000000  -0.0000000  -0.0000000  -0.0000000
 NQMom=   -8.1650000  -8.1650000   0.0000000   0.0000000   0.0000000   0.0000000   0.0000000   0.0000000   0.0000000
 NMagM=    0.8218740   0.8218740   0.0000000   0.0000000   0.0000000   0.0000000   2.7928460   2.7928460   2.7928460
 AtZNuc=  17.0000000  17.0000000   6.0000000   6.0000000   6.0000000   6.0000000   1.0000000   1.0000000   1.0000000
 Leave Link  101 at Mon Mar  6 10:21:36 2023, MaxMem=  1048576000 cpu:               0.1 elap:               0.1
 (Enter /ssoft/spack/external/gaussian/g16-C.01/avx2/g16/l103.exe)

 GradGradGradGradGradGradGradGradGradGradGradGradGradGradGradGradGradGrad
 Berny optimization.
 Initialization pass.
 Trust Radius=3.00D-01 FncErr=1.00D-07 GrdErr=1.00D-07 EigMax=2.50D+02 EigMin=1.00D-04
 Number of steps in this run=      2 maximum allowed number of steps=      2.
 GradGradGradGradGradGradGradGradGradGradGradGradGradGradGradGradGradGrad

 Leave Link  103 at Mon Mar  6 10:21:36 2023, MaxMem=  1048576000 cpu:               0.1 elap:               0.1
 (Enter /ssoft/spack/external/gaussian/g16-C.01/avx2/g16/l202.exe)
                          Input orientation:                          
 ---------------------------------------------------------------------
 Center     Atomic      Atomic             Coordinates (Angstroms)
 Number     Number       Type             X           Y           Z
 ---------------------------------------------------------------------
      1          8           0        1.244457    1.424766    0.000000
      2          6           0        2.535567    1.335461    0.133458
      3          6           0        2.002424   -3.924017    0.379916
      4          1           0        2.256684   -3.739952    1.297854
      5          1           0        2.794044   -3.847133   -0.175403
      6          7           0        1.368297   -1.469109    0.000000
      7          6           0       -1.240790   -4.748443   -0.768611
      8          1           0       -1.905638   -4.103978   -1.057250
      9          1           0       -1.622842   -5.636877   -0.854640
     10          6           0        0.180493   -5.506549    1.139538
     11          1           0       -0.175579   -6.404333    1.047874
     12          6           0       -0.864031   -4.484410    0.694227
     13          1           0       -1.663333   -4.568494    1.257379
     14          6           0        1.066834   -5.649043   -1.183177
     15          1           0        0.716518   -6.549903   -1.259620
     16          1           0        1.858844   -5.581315   -1.739832
     17          6           0        0.583741   -3.214743   -1.543511
     18          1           0       -0.069631   -2.573916   -1.861824
     19          1           0        1.375629   -3.139199   -2.098254
     20          6           0       -0.286855   -3.068624    0.823892
     21          1           0       -0.035793   -2.903591    1.746310
     22          1           0       -0.962532   -2.418520    0.573541
     23          6           0        0.944045   -2.905558   -0.080767
     24          6           0        0.010218   -4.634201   -1.650458
     25          1           0       -0.228871   -4.819741   -2.582054
     26          6           0        2.618818   -1.197454    0.155095
     27          1           0        3.190335   -1.928216    0.226678
     28          6           0        1.429147   -5.353691    0.276232
     29          1           0        2.107563   -5.993830    0.575169
     30          6           0        3.243284    0.113155    0.232203
     31         17           0        2.486949    4.046756    0.150369
     32         17           0        7.081690    1.249700    0.637904
     33          6           0        4.641651    0.109967    0.408504
     34          6           0        5.341355    1.288650    0.449169
     35          6           0        3.320188    2.523833    0.213884
     36          6           0        4.691355    2.513908    0.343078
     37          1           0        5.172817    3.309344    0.359573
     38          1           0        5.093117   -0.697046    0.497462
     39          1           0        0.405849   -5.363047    2.072037
 ---------------------------------------------------------------------
                    Distance matrix (angstroms):
                    1          2          3          4          5
     1  O    0.000000
     2  C    1.301058   0.000000
     3  C    5.415564   5.292173   0.000000
     4  H    5.420641   5.214731   0.970123   0.000000
     5  H    5.497719   5.198220   0.970027   1.571856   0.000000
     6  N    2.896524   3.040715   2.563792   2.762315   2.778223
     7  C    6.698934   7.217235   3.537969   4.185648   4.176618
     8  H    6.450418   7.122471   4.167827   4.796244   4.788594
     9  H    7.669329   8.178154   4.195303   4.825171   4.813879
    10  C    7.104484   7.305592   2.529993   2.730658   3.363537
    11  H    8.025542   8.251720   3.367763   3.616257   4.105403
    12  C    6.312371   6.763330   2.937583   3.264574   3.813645
    13  H    6.779042   7.331483   3.824011   4.006825   4.737239
    14  C    7.174275   7.257686   2.508845   3.349013   2.691791
    15  H    8.090779   8.211490   3.352149   4.099830   3.577234
    16  H    7.244975   7.197844   2.694547   3.574413   2.515834
    17  C    4.933965   5.227448   2.493050   3.338853   2.675271
    18  H    4.602464   5.104061   3.337901   4.093281   3.558895
    19  H    5.024904   5.133087   2.673974   3.559595   2.492073
    20  C    4.818119   5.276242   2.483869   2.672996   3.331156
    21  H    4.839764   5.213708   2.657561   2.481141   3.548412
    22  H    4.468847   5.150024   3.330912   3.554457   4.088241
    23  C    4.341484   4.534874   1.539368   2.078420   2.077984
    24  C    6.399878   6.722842   2.931836   3.812982   3.247299
    25  H    6.916037   7.273420   3.815005   4.732612   3.984463
    26  C    2.964619   2.534376   2.804395   2.810932   2.675954
    27  H    3.883337   3.330015   2.327625   2.302502   2.000240
    28  C    6.786596   6.781541   1.543814   2.081509   2.082458
    29  H    7.490750   7.355053   2.081658   2.371598   2.375483
    30  C    2.401989   1.415856   4.226146   4.117697   4.006475
    31  Cl   2.905380   2.711784   7.988785   7.874172   7.906575
    32  Cl   5.874594   4.574828   7.254850   6.972292   6.709924
    33  C    3.665584   2.452158   4.820723   4.615289   4.406046
    34  C    4.123694   2.823882   6.190732   5.960059   5.766728
    35  C    2.358465   1.426298   6.583225   6.445234   6.404498
    36  C    3.631121   2.465785   6.977004   6.778642   6.658187
    37  H    4.371835   3.301882   7.897678   7.686143   7.560419
    38  H    4.422865   3.287042   4.469848   4.236184   3.957465
    39  H    7.146398   7.291351   2.735531   2.580578   3.612819
                    6          7          8          9         10
     6  N    0.000000
     7  C    4.260531   0.000000
     8  H    4.333470   0.969882   0.000000
     9  H    5.200732   0.970917   1.571879   0.000000
    10  C    4.360085   2.497158   3.338416   2.691792   0.000000
    11  H    5.276175   2.678855   3.565990   2.510601   0.970157
    12  C    3.815400   1.533478   2.073004   2.074358   1.527776
    13  H    4.514196   2.077392   2.373182   2.367215   2.072083
    14  C    4.354610   2.511587   3.352413   2.709694   2.490162
    15  H    5.275028   2.705070   3.591546   2.543665   2.670556
    16  H    4.491980   3.353309   4.101191   3.592881   3.333650
    17  C    2.458697   2.506316   2.687787   3.348177   3.551582
    18  H    2.598966   2.700981   2.521776   3.578913   4.203697
    19  H    2.681777   3.347128   3.575081   4.095828   4.185211
    20  C    2.444744   2.503567   2.689073   3.346379   2.502303
    21  H    2.660602   3.343698   3.577317   4.093228   2.681481
    22  H    2.581296   2.703209   2.527785   3.582392   3.341075
    23  C    1.499966   2.939873   3.241978   3.827256   2.972761
    24  C    3.819188   1.534837   2.074496   2.074987   2.928149
    25  H    4.521579   2.077893   2.376740   2.365339   3.806512
    26  C    1.289052   5.325347   5.512564   6.222517   5.048054
    27  H    1.892613   5.345947   5.687825   6.171717   4.764130
    28  C    3.894866   2.930287   3.802729   3.267063   1.525713
    29  H    4.620653   3.816831   4.726745   4.010947   2.066291
    30  C    2.464357   6.689072   6.779255   7.610735   6.464133
    31  Cl   5.630166   9.596670   9.337432  10.567553   9.877440
    32  Cl   6.359379  10.354693  10.597522  11.199174   9.670835
    33  C    3.657213   7.719641   7.922927   8.594511   7.209826
    34  C    4.857178   9.014106   9.157982   9.907718   8.560714
    35  C    4.449631   8.640244   8.535393   9.600650   8.671883
    36  C    5.198542   9.442877   9.448685  10.379735   9.236338
    37  H    6.118601  10.360264  10.347428  11.300008  10.161280
    38  H    3.836383   7.624639   7.937687   8.445958   6.904886
    39  H    4.514687   3.340425   4.089092   3.571556   0.970018
                   11         12         13         14         15
    11  H    0.000000
    12  C    2.070057   0.000000
    13  H    2.372258   0.981373   0.000000
    14  C    2.663014   2.934153   3.818077   0.000000
    15  H    2.478217   3.252986   3.990609   0.969594   0.000000
    16  H    3.547893   3.813384   4.734429   0.970429   1.572792
    17  C    4.179154   2.952214   3.837573   2.507795   3.349853
    18  H    4.811410   3.288534   4.030838   3.347913   4.097457
    19  H    4.792230   3.824085   4.747468   2.689244   3.573602
    20  C    3.345071   1.534404   2.081397   3.538270   4.179363
    21  H    3.572470   2.071677   2.379042   4.163554   4.785099
    22  H    4.090354   2.071755   2.362445   4.200079   4.821619
    23  C    3.843021   2.522405   3.369630   2.959238   3.837018
    24  C    3.232473   2.506849   3.355682   1.537756   2.078829
    25  H    3.961080   3.354086   4.106343   2.079291   2.374037
    26  C    5.976395   4.819230   5.560194   4.900639   5.853962
    27  H    5.660332   4.815663   5.620632   4.510156   5.448747
    28  C    2.067468   2.487777   3.338055   1.532442   2.073067
    29  H    2.367425   3.335101   4.088600   2.072143   2.368686
    30  C    7.404835   6.182322   6.858842   6.320060   7.280551
    31  Cl  10.822191   9.181811   9.626674   9.889570  10.835667
    32  Cl  10.555578   9.798860  10.521908   9.332067  10.244501
    33  C    8.127152   7.176522   7.896924   6.962683   7.908424
    34  C    9.485620   8.479097   9.166514   8.310696   9.260237
    35  C    9.624348   8.176423   8.730720   8.592164   9.554214
    36  C   10.184242   8.942151   9.559206   9.060925  10.025998
    37  H   11.110113   9.863981  10.468970   9.974561  10.940070
    38  H    7.786862   7.061901   7.824014   6.599831   7.516507
    39  H    1.572020   2.069532   2.361461   3.333934   3.550364
                   16         17         18         19         20
    16  H    0.000000
    17  C    2.695383   0.000000
    18  H    3.574682   0.968958   0.000000
    19  H    2.515132   0.969811   1.569785   0.000000
    20  C    4.182143   2.526635   2.739524   3.362703   0.000000
    21  H    4.786757   3.362077   3.623322   4.102231   0.970115
    22  H    4.828575   2.739861   2.598542   3.622826   0.970490
    23  C    3.278571   1.537867   2.075980   2.076321   1.536265
    24  C    2.079046   1.534675   2.072638   2.073620   2.943074
    25  H    2.376529   2.077241   2.363857   2.373332   3.830175
    26  C    4.835963   3.331104   3.631855   3.223891   3.520157
    27  H    4.357197   3.403388   3.925067   3.188251   3.707835
    28  C    2.073877   2.932792   3.813760   3.247310   2.909660
    29  H    2.364584   3.812369   4.730214   3.978923   3.788394
    30  C    6.183250   4.615326   4.751916   4.415538   4.789123
    31  Cl   9.831944   7.695505   7.376877   7.611130   7.666568
    32  Cl   8.921575   8.180046   8.485875   7.701177   8.542714
    33  C    6.689548   5.597383   5.878248   5.244789   5.879299
    34  C    8.007248   6.847350   7.038386   6.467008   7.127622
    35  C    8.464394   6.596047   6.464247   6.418507   6.682698
    36  C    8.825772   7.297201   7.308524   6.993694   7.495226
    37  H    9.717702   8.200308   8.187223   7.876755   8.408453
    38  H    6.270732   5.553272   5.978531   5.149909   5.888551
    39  H    4.085240   4.209400   4.845679   4.824656   2.702236
                   21         22         23         24         25
    21  H    0.000000
    22  H    1.571473   0.000000
    23  C    2.073233   2.073731   0.000000
    24  C    3.812500   3.286587   2.514790   0.000000
    25  H    4.737472   4.032605   3.360991   0.979521   0.000000
    26  C    3.534095   3.806858   2.403771   4.677183   5.359317
    27  H    3.697099   4.196071   2.468915   4.578115   5.285912
    28  C    3.210944   3.797861   2.521135   2.498631   3.347227
    29  H    3.938924   4.712572   3.364736   3.346769   4.099447
    30  C    4.705914   4.920851   3.807503   6.044379   6.656528
    31  Cl   7.564297   7.340149   7.125213   9.205226   9.667294
    32  Cl   8.314863   8.841350   7.446700   9.479589  10.032474
    33  C    5.722739   6.150394   4.796360   6.942379   7.547678
    34  C    6.940546   7.314203   6.099881   8.240729   8.805008
    35  C    6.562612   6.549649   5.933900   8.103649   8.622133
    36  C    7.325591   7.506556   6.602468   8.773978   9.303086
    37  H    8.225158   8.396232   7.530035   9.684656  10.193793
    38  H    5.721379   6.296041   4.735681   6.778688   7.402944
    39  H    2.519934   3.576059   3.311113   3.813753   4.728491
                   26         27         28         29         30
    26  C    0.000000
    27  H    0.930466   0.000000
    28  C    4.324846   3.852028   0.000000
    29  H    4.841804   4.221737   0.979485   0.000000
    30  C    1.453823   2.042064   5.760159   6.221153   0.000000
    31  Cl   5.245870   6.016715   9.460612  10.056727   4.006490
    32  Cl   5.112621   5.040922   8.699817   8.787183   4.023641
    33  C    2.421863   2.508698   6.339498   6.611030   1.409441
    34  C    3.698567   3.876160   7.710769   7.969178   2.414697
    35  C    3.787263   4.453960   8.101562   8.611131   2.411974
    36  C    4.254991   4.690316   8.517369   8.894461   2.805854
    37  H    5.184202   5.601779   9.437700   9.797515   3.735632
    38  H    2.547504   2.282472   5.929414   6.080747   2.036828
    39  H    5.091568   4.791323   2.066916   2.352517   6.436211
                   31         32         33         34         35
    31  Cl   0.000000
    32  Cl   5.401190   0.000000
    33  C    4.495296   2.702851   0.000000
    34  C    3.980460   1.750972   1.371325   0.000000
    35  C    1.737129   3.994008   2.758785   2.380368   0.000000
    36  C    2.691870   2.720082   2.405345   1.391047   1.377275
    37  H    2.793104   2.821949   3.243539   2.029689   2.017544
    38  H    5.423675   2.786390   0.928980   2.001735   3.687514
    39  H    9.826911   9.505367   7.117812   8.440260   8.610980
                   36         37         38         39
    36  C    0.000000
    37  H    0.929945   0.000000
    38  H    3.239672   4.009555   0.000000
    39  H    9.132430  10.043250   6.798627   0.000000
 Stoichiometry    C17H18Cl2NO(1-)
 Framework group  C1[X(C17H18Cl2NO)]
 Deg. of freedom   111
 Full point group                 C1      NOp   1
 Largest Abelian subgroup         C1      NOp   1
 Largest concise Abelian subgroup C1      NOp   1
                         Standard orientation:                         
 ---------------------------------------------------------------------
 Center     Atomic      Atomic             Coordinates (Angstroms)
 Number     Number       Type             X           Y           Z
 ---------------------------------------------------------------------
      1          8           0        1.661949   -2.229520   -0.017071
      2          6           0        2.271231   -1.080015   -0.004156
      3          6           0       -2.457026    1.268661   -0.370769
      4          1           0       -2.103598    1.469082   -1.251711
      5          1           0       -2.016112    1.846434    0.271668
      6          7           0       -0.730726   -0.597170   -0.036718
      7          6           0       -4.934855   -1.138605    0.392551
      8          1           0       -4.755710   -2.066347    0.611351
      9          1           0       -5.895300   -0.999973    0.424308
     10          6           0       -4.701594    0.634143   -1.350650
     11          1           0       -5.656772    0.799143   -1.310455
     12          6           0       -4.411388   -0.827756   -1.014897
     13          1           0       -4.861891   -1.407508   -1.666072
     14          6           0       -4.520682    1.248146    1.055837
     15          1           0       -5.474398    1.421005    1.081528
     16          1           0       -4.087432    1.830963    1.699539
     17          6           0       -2.731461   -0.477492    1.387337
     18          1           0       -2.551467   -1.396302    1.636877
     19          1           0       -2.291504    0.101267    2.029217
     20          6           0       -2.897936   -1.076078   -1.061717
     21          1           0       -2.562031   -0.867905   -1.947694
     22          1           0       -2.716998   -2.012484   -0.882119
     23          6           0       -2.178270   -0.204384   -0.021360
     24          6           0       -4.244535   -0.222096    1.411959
     25          1           0       -4.592227   -0.410160    2.308175
     26          6           0        0.165348    0.329450   -0.045701
     27          1           0       -0.151075    1.204336   -0.060460
     28          6           0       -3.978419    1.529953   -0.349480
     29          1           0       -4.146071    2.467798   -0.576919
     30          6           0        1.610571    0.171844   -0.036166
     31         17           0        4.549412   -2.550925    0.005102
     32         17           0        4.613181    2.849887    0.009679
     33          6           0        2.352113    1.370329   -0.052638
     34          6           0        3.722143    1.342616    0.000106
     35          6           0        3.696711   -1.037542    0.018837
     36          6           0        4.415008    0.137277    0.045999
     37          1           0        5.343662    0.125411    0.093521
     38          1           0        1.909310    2.185660   -0.099172
     39          1           0       -4.396726    0.832886   -2.249811
 ---------------------------------------------------------------------
 Rotational constants (GHZ):           0.5226999           0.1141606           0.0990747
 Leave Link  202 at Mon Mar  6 10:21:36 2023, MaxMem=  1048576000 cpu:               0.0 elap:               0.0
 (Enter /ssoft/spack/external/gaussian/g16-C.01/avx2/g16/l301.exe)
 Standard basis: def2SVP (5D, 7F)
 Ernie: Thresh=  0.10000D-02 Tol=  0.10000D-05 Strict=F.
 There are   413 symmetry adapted cartesian basis functions of A   symmetry.
 There are   392 symmetry adapted basis functions of A   symmetry.
   392 basis functions,   675 primitive gaussians,   413 cartesian basis functions
    85 alpha electrons       85 beta electrons
       nuclear repulsion energy      1892.5455842755 Hartrees.
 IExCor= 1009 DFT=T Ex+Corr=PBE1PBE ExCW=0 ScaHFX=  0.250000
 ScaDFX=  0.750000  0.750000  1.000000  1.000000 ScalE2=  1.000000  1.000000
 IRadAn=      5 IRanWt=     -1 IRanGd=            0 ICorTp=0 IEmpDi=141
 NAtoms=   39 NActive=   39 NUniq=   39 SFac= 1.00D+00 NAtFMM=   60 NAOKFM=F Big=F
 Integral buffers will be    131072 words long.
 Raffenetti 2 integral format.
 Two-electron integral symmetry is turned on.
 R6Disp:  Grimme-D3(BJ) Dispersion energy=       -0.0508147734 Hartrees.
 Nuclear repulsion after empirical dispersion term =     1892.4947695021 Hartrees.
 Leave Link  301 at Mon Mar  6 10:21:36 2023, MaxMem=  1048576000 cpu:               0.1 elap:               0.1
 (Enter /ssoft/spack/external/gaussian/g16-C.01/avx2/g16/l302.exe)
 NPDir=0 NMtPBC=     1 NCelOv=     1 NCel=       1 NClECP=     1 NCelD=      1
         NCelK=      1 NCelE2=     1 NClLst=     1 CellRange=     0.0.
 One-electron integrals computed using PRISM.
 One-electron integral symmetry used in STVInt
   1 Symmetry operations used in ECPInt.
 ECPInt:  NShTT=   17020 NPrTT=   63182 LenC2=   14855 LenP2D=   38729.
 LDataN:  DoStor=T MaxTD1= 4 Len=   56
 NBasis=   392 RedAO= T EigKep=  2.21D-04  NBF=   392
 NBsUse=   392 1.00D-06 EigRej= -1.00D+00 NBFU=   392
 Precomputing XC quadrature grid using
 IXCGrd= 4 IRadAn=           5 IRanWt=          -1 IRanGd=           0 AccXCQ= 0.00D+00.
 Generated NRdTot=       0 NPtTot=           0 NUsed=           0 NTot=          32
 NSgBfM=   408   408   408   408   408 MxSgAt=    39 MxSgA2=    39.
 Leave Link  302 at Mon Mar  6 10:21:37 2023, MaxMem=  1048576000 cpu:               1.4 elap:               1.4
 (Enter /ssoft/spack/external/gaussian/g16-C.01/avx2/g16/l303.exe)
 DipDrv:  MaxL=1.
 Leave Link  303 at Mon Mar  6 10:21:37 2023, MaxMem=  1048576000 cpu:               0.1 elap:               0.1
 (Enter /ssoft/spack/external/gaussian/g16-C.01/avx2/g16/l401.exe)
 ExpMin= 1.22D-01 ExpMax= 1.04D+04 ExpMxC= 1.57D+03 IAcc=3 IRadAn=         5 AccDes= 0.00D+00
 Harris functional with IExCor= 1009 and IRadAn=       5 diagonalized for initial guess.
 HarFok:  IExCor= 1009 AccDes= 0.00D+00 IRadAn=         5 IDoV= 1 UseB2=F ITyADJ=14
 ICtDFT=  3500011 ScaDFX=  1.000000  1.000000  1.000000  1.000000
 FoFCou: FMM=F IPFlag=           0 FMFlag=      100000 FMFlg1=           0
         NFxFlg=           0 DoJE=T BraDBF=F KetDBF=T FulRan=T
         wScrn=  0.000000 ICntrl=       500 IOpCl=  0 I1Cent=   200000004 NGrid=           0
         NMat0=    1 NMatS0=      1 NMatT0=    0 NMatD0=    1 NMtDS0=    0 NMtDT0=    0
 Petite list used in FoFCou.
 Harris En= -1707.11125213698    
 JPrj=0 DoOrth=F DoCkMO=F.
 Leave Link  401 at Mon Mar  6 10:21:50 2023, MaxMem=  1048576000 cpu:              12.9 elap:              13.0
 (Enter /ssoft/spack/external/gaussian/g16-C.01/avx2/g16/l502.exe)
 Integral symmetry usage will be decided dynamically.
 Closed shell SCF:
 Using DIIS extrapolation, IDIIS=  1040.
 NGot=  1048576000 LenX=  1048227058 LenY=  1048056048
 Requested convergence on RMS density matrix=1.00D-08 within 128 cycles.
 Requested convergence on MAX density matrix=1.00D-06.
 Requested convergence on             energy=1.00D-06.
 No special actions if energy rises.
 Fock matrices will be formed incrementally for  20 cycles.
 Integral accuracy reduced to 1.0D-05 until final iterations.

 Cycle   1  Pass 0  IDiag  1:
 FoFJK:  IHMeth= 1 ICntrl=       0 DoSepK=F KAlg= 0 I1Cent=           0 FoldK=F
 IRaf= 810000000 NMat=       1 IRICut=       1 DoRegI=T DoRafI=F ISym2E= 0 IDoP0=0 IntGTp=1.
 FoFCou: FMM=F IPFlag=           0 FMFlag=      100000 FMFlg1=           0
         NFxFlg=           0 DoJE=F BraDBF=F KetDBF=F FulRan=T
         wScrn=  0.000000 ICntrl=         0 IOpCl=  0 I1Cent=           0 NGrid=           0
         NMat0=    1 NMatS0=      1 NMatT0=    0 NMatD0=    1 NMtDS0=    0 NMtDT0=    0
 Symmetry not used in FoFCou.
 E= -1706.12001061485    
 DIIS: error= 2.91D-02 at cycle   1 NSaved=   1.
 NSaved= 1 IEnMin= 1 EnMin= -1706.12001061485     IErMin= 1 ErrMin= 2.91D-02
 ErrMax= 2.91D-02  0.00D+00 EMaxC= 1.00D-01 BMatC= 6.12D-01 BMatP= 6.12D-01
 IDIUse=3 WtCom= 7.09D-01 WtEn= 2.91D-01
 Coeff-Com:  0.100D+01
 Coeff-En:   0.100D+01
 Coeff:      0.100D+01
 Gap=     0.252 Goal=   None    Shift=    0.000
 GapD=    0.252 DampG=1.000 DampE=0.500 DampFc=0.5000 IDamp=-1.
 Damping current iteration by 5.00D-01
 RMSDP=1.25D-02 MaxDP=3.85D-01              OVMax= 8.99D-01

 Cycle   2  Pass 0  IDiag  1:
 RMSU=  6.25D-03    CP:  9.87D-01
 E= -1705.98153168839     Delta-E=        0.138478926461 Rises=F Damp=T
 DIIS: error= 2.79D-02 at cycle   2 NSaved=   2.
 NSaved= 2 IEnMin= 1 EnMin= -1706.12001061485     IErMin= 2 ErrMin= 2.79D-02
 ErrMax= 2.79D-02  0.00D+00 EMaxC= 1.00D-01 BMatC= 2.19D-01 BMatP= 6.12D-01
 IDIUse=3 WtCom= 7.21D-01 WtEn= 2.79D-01
 Coeff-Com:  0.303D+00 0.697D+00
 Coeff-En:   0.584D+00 0.416D+00
 Coeff:      0.381D+00 0.619D+00
 Gap=    -0.181 Goal=   None    Shift=    0.000
 RMSDP=6.31D-03 MaxDP=2.43D-01 DE= 1.38D-01 OVMax= 4.55D-01

 Cycle   3  Pass 0  IDiag  1:
 RMSU=  3.88D-03    CP:  9.45D-01  2.15D-01
 E= -1706.39964255165     Delta-E=       -0.418110863262 Rises=F Damp=F
 DIIS: error= 3.89D-02 at cycle   3 NSaved=   3.
 NSaved= 3 IEnMin= 3 EnMin= -1706.39964255165     IErMin= 2 ErrMin= 2.79D-02
 ErrMax= 3.89D-02  0.00D+00 EMaxC= 1.00D-01 BMatC= 3.73D-01 BMatP= 2.19D-01
 IDIUse=2 WtCom= 0.00D+00 WtEn= 1.00D+00
 EnCoef did     1 forward-backward iterations
 Coeff-En:   0.121D+00 0.235D+00 0.644D+00
 Coeff:      0.121D+00 0.235D+00 0.644D+00
 Gap=     0.208 Goal=   None    Shift=    0.000
 RMSDP=6.06D-03 MaxDP=3.88D-01 DE=-4.18D-01 OVMax= 9.58D-01

 Cycle   4  Pass 0  IDiag  1:
 RMSU=  5.45D-03    CP:  9.64D-01  4.30D-01  4.23D-01
 E= -1704.24202096401     Delta-E=        2.157621587642 Rises=F Damp=F
 DIIS: error= 6.61D-02 at cycle   4 NSaved=   4.
 NSaved= 4 IEnMin= 3 EnMin= -1706.39964255165     IErMin= 2 ErrMin= 2.79D-02
 ErrMax= 6.61D-02  0.00D+00 EMaxC= 1.00D-01 BMatC= 1.78D+00 BMatP= 2.19D-01
 IDIUse=2 WtCom= 0.00D+00 WtEn= 1.00D+00
 Coeff-En:   0.000D+00 0.000D+00 0.788D+00 0.212D+00
 Coeff:      0.000D+00 0.000D+00 0.788D+00 0.212D+00
 Gap=    -0.085 Goal=   None    Shift=    0.000
 RMSDP=5.15D-03 MaxDP=3.01D-01 DE= 2.16D+00 OVMax= 9.86D-01

 Cycle   5  Pass 0  IDiag  1:
 RMSU=  2.57D-03    CP:  9.67D-01  2.73D-01  5.32D-01  2.06D-01
 E= -1706.69274919673     Delta-E=       -2.450728232719 Rises=F Damp=F
 DIIS: error= 1.05D-02 at cycle   5 NSaved=   5.
 NSaved= 5 IEnMin= 5 EnMin= -1706.69274919673     IErMin= 5 ErrMin= 1.05D-02
 ErrMax= 1.05D-02  0.00D+00 EMaxC= 1.00D-01 BMatC= 9.48D-02 BMatP= 2.19D-01
 IDIUse=3 WtCom= 8.95D-01 WtEn= 1.05D-01
 Coeff-Com:  0.841D-02 0.226D+00 0.311D+00-0.811D-02 0.462D+00
 Coeff-En:   0.000D+00 0.000D+00 0.220D+00 0.000D+00 0.780D+00
 Coeff:      0.754D-02 0.203D+00 0.302D+00-0.726D-02 0.496D+00
 Gap=     0.158 Goal=   None    Shift=    0.000
 RMSDP=1.60D-03 MaxDP=9.40D-02 DE=-2.45D+00 OVMax= 1.98D-01

 Cycle   6  Pass 0  IDiag  1:
 RMSU=  1.10D-03    CP:  9.58D-01  2.51D-01  6.87D-01  1.12D-01  6.78D-01
 E= -1706.76405802659     Delta-E=       -0.071308829864 Rises=F Damp=F
 DIIS: error= 8.64D-03 at cycle   6 NSaved=   6.
 NSaved= 6 IEnMin= 6 EnMin= -1706.76405802659     IErMin= 6 ErrMin= 8.64D-03
 ErrMax= 8.64D-03  0.00D+00 EMaxC= 1.00D-01 BMatC= 2.41D-02 BMatP= 9.48D-02
 IDIUse=3 WtCom= 9.14D-01 WtEn= 8.64D-02
 Coeff-Com: -0.360D-01 0.867D-01 0.118D+00-0.214D-01 0.381D+00 0.471D+00
 Coeff-En:   0.000D+00 0.000D+00 0.000D+00 0.000D+00 0.234D+00 0.766D+00
 Coeff:     -0.329D-01 0.792D-01 0.108D+00-0.195D-01 0.368D+00 0.497D+00
 Gap=     0.144 Goal=   None    Shift=    0.000
 RMSDP=7.19D-04 MaxDP=3.64D-02 DE=-7.13D-02 OVMax= 9.40D-02

 Cycle   7  Pass 0  IDiag  1:
 RMSU=  3.20D-04    CP:  9.59D-01  2.74D-01  6.73D-01  1.41D-01  8.27D-01
                    CP:  5.70D-01
 E= -1706.79190015894     Delta-E=       -0.027842132347 Rises=F Damp=F
 DIIS: error= 1.00D-03 at cycle   7 NSaved=   7.
 NSaved= 7 IEnMin= 7 EnMin= -1706.79190015894     IErMin= 7 ErrMin= 1.00D-03
 ErrMax= 1.00D-03  0.00D+00 EMaxC= 1.00D-01 BMatC= 4.01D-04 BMatP= 2.41D-02
 IDIUse=3 WtCom= 9.90D-01 WtEn= 1.00D-02
 Coeff-Com: -0.594D-02 0.656D-02 0.978D-02-0.302D-02 0.552D-01 0.147D+00
 Coeff-Com:  0.790D+00
 Coeff-En:   0.000D+00 0.000D+00 0.000D+00 0.000D+00 0.000D+00 0.000D+00
 Coeff-En:   0.100D+01
 Coeff:     -0.588D-02 0.649D-02 0.968D-02-0.299D-02 0.547D-01 0.146D+00
 Coeff:      0.792D+00
 Gap=     0.143 Goal=   None    Shift=    0.000
 RMSDP=1.17D-04 MaxDP=5.11D-03 DE=-2.78D-02 OVMax= 1.49D-02

 Cycle   8  Pass 0  IDiag  1:
 RMSU=  9.01D-05    CP:  9.59D-01  2.71D-01  6.76D-01  1.40D-01  8.21D-01
                    CP:  6.24D-01  8.83D-01
 E= -1706.79219918066     Delta-E=       -0.000299021727 Rises=F Damp=F
 DIIS: error= 5.24D-04 at cycle   8 NSaved=   8.
 NSaved= 8 IEnMin= 8 EnMin= -1706.79219918066     IErMin= 8 ErrMin= 5.24D-04
 ErrMax= 5.24D-04  0.00D+00 EMaxC= 1.00D-01 BMatC= 1.52D-04 BMatP= 4.01D-04
 IDIUse=3 WtCom= 9.95D-01 WtEn= 5.24D-03
 Coeff-Com:  0.762D-03-0.414D-02-0.222D-02 0.370D-03-0.325D-02 0.390D-01
 Coeff-Com:  0.466D+00 0.503D+00
 Coeff-En:   0.000D+00 0.000D+00 0.000D+00 0.000D+00 0.000D+00 0.000D+00
 Coeff-En:   0.237D+00 0.763D+00
 Coeff:      0.758D-03-0.411D-02-0.220D-02 0.368D-03-0.324D-02 0.388D-01
 Coeff:      0.465D+00 0.505D+00
 Gap=     0.143 Goal=   None    Shift=    0.000
 RMSDP=5.01D-05 MaxDP=2.52D-03 DE=-2.99D-04 OVMax= 6.40D-03

 Cycle   9  Pass 0  IDiag  1:
 RMSU=  3.17D-05    CP:  9.59D-01  2.70D-01  6.77D-01  1.40D-01  8.19D-01
                    CP:  6.13D-01  9.17D-01  6.30D-01
 E= -1706.79235409953     Delta-E=       -0.000154918869 Rises=F Damp=F
 DIIS: error= 1.49D-04 at cycle   9 NSaved=   9.
 NSaved= 9 IEnMin= 9 EnMin= -1706.79235409953     IErMin= 9 ErrMin= 1.49D-04
 ErrMax= 1.49D-04  0.00D+00 EMaxC= 1.00D-01 BMatC= 1.07D-05 BMatP= 1.52D-04
 IDIUse=3 WtCom= 9.99D-01 WtEn= 1.49D-03
 Coeff-Com:  0.117D-02-0.330D-02-0.814D-03 0.455D-03-0.431D-02 0.125D-01
 Coeff-Com:  0.192D+00 0.257D+00 0.545D+00
 Coeff-En:   0.000D+00 0.000D+00 0.000D+00 0.000D+00 0.000D+00 0.000D+00
 Coeff-En:   0.000D+00 0.000D+00 0.100D+01
 Coeff:      0.117D-02-0.329D-02-0.813D-03 0.454D-03-0.430D-02 0.125D-01
 Coeff:      0.192D+00 0.256D+00 0.546D+00
 Gap=     0.143 Goal=   None    Shift=    0.000
 RMSDP=1.61D-05 MaxDP=8.75D-04 DE=-1.55D-04 OVMax= 1.46D-03

 Cycle  10  Pass 0  IDiag  1:
 RMSU=  1.26D-05    CP:  9.58D-01  2.70D-01  6.77D-01  1.40D-01  8.17D-01
                    CP:  6.14D-01  9.15D-01  6.61D-01  7.73D-01
 E= -1706.79236316829     Delta-E=       -0.000009068754 Rises=F Damp=F
 DIIS: error= 5.68D-05 at cycle  10 NSaved=  10.
 NSaved=10 IEnMin=10 EnMin= -1706.79236316829     IErMin=10 ErrMin= 5.68D-05
 ErrMax= 5.68D-05  0.00D+00 EMaxC= 1.00D-01 BMatC= 1.86D-06 BMatP= 1.07D-05
 IDIUse=1 WtCom= 1.00D+00 WtEn= 0.00D+00
 Coeff-Com:  0.831D-03-0.123D-02 0.200D-03 0.109D-03-0.217D-02 0.113D-02
 Coeff-Com:  0.273D-01 0.397D-01 0.263D+00 0.671D+00
 Coeff:      0.831D-03-0.123D-02 0.200D-03 0.109D-03-0.217D-02 0.113D-02
 Coeff:      0.273D-01 0.397D-01 0.263D+00 0.671D+00
 Gap=     0.143 Goal=   None    Shift=    0.000
 RMSDP=6.27D-06 MaxDP=3.11D-04 DE=-9.07D-06 OVMax= 6.11D-04

 Initial convergence to 1.0D-05 achieved.  Increase integral accuracy.
 Cycle  11  Pass 1  IDiag  1:
 E= -1706.79228890051     Delta-E=        0.000074267778 Rises=F Damp=F
 DIIS: error= 1.62D-04 at cycle   1 NSaved=   1.
 NSaved= 1 IEnMin= 1 EnMin= -1706.79228890051     IErMin= 1 ErrMin= 1.62D-04
 ErrMax= 1.62D-04  0.00D+00 EMaxC= 1.00D-01 BMatC= 3.09D-06 BMatP= 3.09D-06
 IDIUse=3 WtCom= 9.98D-01 WtEn= 1.62D-03
 Coeff-Com:  0.100D+01
 Coeff-En:   0.100D+01
 Coeff:      0.100D+01
 Gap=     0.143 Goal=   None    Shift=    0.000
 RMSDP=6.27D-06 MaxDP=3.11D-04 DE= 7.43D-05 OVMax= 5.14D-04

 Cycle  12  Pass 1  IDiag  1:
 RMSU=  1.11D-04    CP:  1.00D+00
 E= -1706.79229142182     Delta-E=       -0.000002521308 Rises=F Damp=F
 DIIS: error= 5.74D-05 at cycle   2 NSaved=   2.
 NSaved= 2 IEnMin= 2 EnMin= -1706.79229142182     IErMin= 2 ErrMin= 5.74D-05
 ErrMax= 5.74D-05  0.00D+00 EMaxC= 1.00D-01 BMatC= 9.75D-07 BMatP= 3.09D-06
 IDIUse=1 WtCom= 1.00D+00 WtEn= 0.00D+00
 Coeff-Com:  0.286D+00 0.714D+00
 Coeff:      0.286D+00 0.714D+00
 Gap=     0.143 Goal=   None    Shift=    0.000
 RMSDP=9.82D-06 MaxDP=6.11D-04 DE=-2.52D-06 OVMax= 8.08D-04

 Cycle  13  Pass 1  IDiag  1:
 RMSU=  9.52D-06    CP:  1.00D+00  1.01D+00
 E= -1706.79229095039     Delta-E=        0.000000471432 Rises=F Damp=F
 DIIS: error= 7.38D-05 at cycle   3 NSaved=   3.
 NSaved= 3 IEnMin= 2 EnMin= -1706.79229142182     IErMin= 2 ErrMin= 5.74D-05
 ErrMax= 7.38D-05  0.00D+00 EMaxC= 1.00D-01 BMatC= 1.54D-06 BMatP= 9.75D-07
 IDIUse=1 WtCom= 1.00D+00 WtEn= 0.00D+00
 Coeff-Com:  0.437D-02 0.556D+00 0.439D+00
 Coeff:      0.437D-02 0.556D+00 0.439D+00
 Gap=     0.143 Goal=   None    Shift=    0.000
 RMSDP=5.77D-06 MaxDP=4.03D-04 DE= 4.71D-07 OVMax= 4.75D-04

 Cycle  14  Pass 1  IDiag  1:
 RMSU=  1.20D-06    CP:  1.00D+00  1.02D+00  4.28D-01
 E= -1706.79229223330     Delta-E=       -0.000001282918 Rises=F Damp=F
 DIIS: error= 7.26D-06 at cycle   4 NSaved=   4.
 NSaved= 4 IEnMin= 4 EnMin= -1706.79229223330     IErMin= 4 ErrMin= 7.26D-06
 ErrMax= 7.26D-06  0.00D+00 EMaxC= 1.00D-01 BMatC= 3.31D-08 BMatP= 9.75D-07
 IDIUse=1 WtCom= 1.00D+00 WtEn= 0.00D+00
 Coeff-Com: -0.541D-02 0.321D+00 0.270D+00 0.415D+00
 Coeff:     -0.541D-02 0.321D+00 0.270D+00 0.415D+00
 Gap=     0.143 Goal=   None    Shift=    0.000
 RMSDP=6.73D-07 MaxDP=3.87D-05 DE=-1.28D-06 OVMax= 6.22D-05

 Cycle  15  Pass 1  IDiag  1:
 RMSU=  3.24D-07    CP:  1.00D+00  1.02D+00  4.58D-01  5.75D-01
 E= -1706.79229226594     Delta-E=       -0.000000032640 Rises=F Damp=F
 DIIS: error= 8.51D-07 at cycle   5 NSaved=   5.
 NSaved= 5 IEnMin= 5 EnMin= -1706.79229226594     IErMin= 5 ErrMin= 8.51D-07
 ErrMax= 8.51D-07  0.00D+00 EMaxC= 1.00D-01 BMatC= 4.07D-10 BMatP= 3.31D-08
 IDIUse=1 WtCom= 1.00D+00 WtEn= 0.00D+00
 Coeff-Com: -0.303D-02 0.165D+00 0.139D+00 0.226D+00 0.473D+00
 Coeff:     -0.303D-02 0.165D+00 0.139D+00 0.226D+00 0.473D+00
 Gap=     0.143 Goal=   None    Shift=    0.000
 RMSDP=1.00D-07 MaxDP=5.13D-06 DE=-3.26D-08 OVMax= 1.06D-05

 Cycle  16  Pass 1  IDiag  1:
 RMSU=  8.95D-08    CP:  1.00D+00  1.02D+00  4.56D-01  5.79D-01  8.81D-01
 E= -1706.79229226639     Delta-E=       -0.000000000442 Rises=F Damp=F
 DIIS: error= 3.30D-07 at cycle   6 NSaved=   6.
 NSaved= 6 IEnMin= 6 EnMin= -1706.79229226639     IErMin= 6 ErrMin= 3.30D-07
 ErrMax= 3.30D-07  0.00D+00 EMaxC= 1.00D-01 BMatC= 4.02D-11 BMatP= 4.07D-10
 IDIUse=1 WtCom= 1.00D+00 WtEn= 0.00D+00
 Coeff-Com: -0.621D-03 0.295D-01 0.240D-01 0.430D-01 0.242D+00 0.662D+00
 Coeff:     -0.621D-03 0.295D-01 0.240D-01 0.430D-01 0.242D+00 0.662D+00
 Gap=     0.143 Goal=   None    Shift=    0.000
 RMSDP=3.30D-08 MaxDP=1.67D-06 DE=-4.42D-10 OVMax= 4.01D-06

 Cycle  17  Pass 1  IDiag  1:
 RMSU=  2.52D-08    CP:  1.00D+00  1.02D+00  4.55D-01  5.86D-01  9.25D-01
                    CP:  8.73D-01
 E= -1706.79229226639     Delta-E=       -0.000000000006 Rises=F Damp=F
 DIIS: error= 1.01D-07 at cycle   7 NSaved=   7.
 NSaved= 7 IEnMin= 7 EnMin= -1706.79229226639     IErMin= 7 ErrMin= 1.01D-07
 ErrMax= 1.01D-07  0.00D+00 EMaxC= 1.00D-01 BMatC= 5.51D-12 BMatP= 4.02D-11
 IDIUse=1 WtCom= 1.00D+00 WtEn= 0.00D+00
 Coeff-Com:  0.351D-04-0.402D-02-0.385D-02-0.490D-02 0.584D-01 0.337D+00
 Coeff-Com:  0.617D+00
 Coeff:      0.351D-04-0.402D-02-0.385D-02-0.490D-02 0.584D-01 0.337D+00
 Coeff:      0.617D+00
 Gap=     0.143 Goal=   None    Shift=    0.000
 RMSDP=1.11D-08 MaxDP=5.81D-07 DE=-6.37D-12 OVMax= 1.27D-06

 Cycle  18  Pass 1  IDiag  1:
 RMSU=  7.78D-09    CP:  1.00D+00  1.02D+00  4.55D-01  5.87D-01  9.31D-01
                    CP:  8.92D-01  7.17D-01
 E= -1706.79229226638     Delta-E=        0.000000000009 Rises=F Damp=F
 DIIS: error= 2.47D-08 at cycle   8 NSaved=   8.
 NSaved= 8 IEnMin= 7 EnMin= -1706.79229226639     IErMin= 8 ErrMin= 2.47D-08
 ErrMax= 2.47D-08  0.00D+00 EMaxC= 1.00D-01 BMatC= 5.73D-13 BMatP= 5.51D-12
 IDIUse=1 WtCom= 1.00D+00 WtEn= 0.00D+00
 Coeff-Com:  0.794D-04-0.517D-02-0.454D-02-0.724D-02 0.989D-02 0.130D+00
 Coeff-Com:  0.340D+00 0.537D+00
 Coeff:      0.794D-04-0.517D-02-0.454D-02-0.724D-02 0.989D-02 0.130D+00
 Coeff:      0.340D+00 0.537D+00
 Gap=     0.143 Goal=   None    Shift=    0.000
 RMSDP=4.03D-09 MaxDP=1.25D-07 DE= 9.09D-12 OVMax= 1.92D-07

 SCF Done:  E(RPBE1PBE) =  -1706.79229227     A.U. after   18 cycles
            NFock= 18  Conv=0.40D-08     -V/T= 2.0034
 KE= 1.701045442095D+03 PE=-7.823827631916D+03 EE= 2.523495128053D+03
 Leave Link  502 at Mon Mar  6 10:30:42 2023, MaxMem=  1048576000 cpu:             525.1 elap:             531.7
 (Enter /ssoft/spack/external/gaussian/g16-C.01/avx2/g16/l801.exe)
 DoSCS=F DFT=T ScalE2(SS,OS)=  1.000000  1.000000
 Range of M.O.s used for correlation:     1   392
 NBasis=   392 NAE=    85 NBE=    85 NFC=     0 NFV=     0
 NROrb=    392 NOA=    85 NOB=    85 NVA=   307 NVB=   307

 **** Warning!!: The largest alpha MO coefficient is  0.10556402D+02

 Leave Link  801 at Mon Mar  6 10:30:42 2023, MaxMem=  1048576000 cpu:               0.0 elap:               0.0
 (Enter /ssoft/spack/external/gaussian/g16-C.01/avx2/g16/l1101.exe)
 Using compressed storage, NAtomX=    39.
 Will process     40 centers per pass.
   1 Symmetry operations used in ECPInt.
 ECPInt:  NShTT=   17020 NPrTT=   63182 LenC2=   14855 LenP2D=   38729.
 LDataN:  DoStor=T MaxTD1= 5 Len=  102
 R6Disp: Adding Grimme-D3(BJ) dispersion energy 1st derivatives to the gradient.
 Leave Link 1101 at Mon Mar  6 10:30:43 2023, MaxMem=  1048576000 cpu:               0.7 elap:               0.7
 (Enter /ssoft/spack/external/gaussian/g16-C.01/avx2/g16/l1102.exe)
 Symmetrizing basis deriv contribution to polar:
 IMax=3 JMax=2 DiffMx= 0.00D+00
 Leave Link 1102 at Mon Mar  6 10:30:43 2023, MaxMem=  1048576000 cpu:               0.1 elap:               0.1
 (Enter /ssoft/spack/external/gaussian/g16-C.01/avx2/g16/l1110.exe)
 Forming Gx(P) for the SCF density, NAtomX=    39.
 Integral derivatives from FoFJK, PRISM(SPDF).
 Do as many integral derivatives as possible in FoFJK.
 G2DrvN: MDV=    1048571847.
 G2DrvN: will do    40 centers at a time, making    1 passes.
 Calling FoFCou, ICntrl=  3107 FMM=F I1Cent=   0 AccDes= 0.00D+00.
 FoFJK:  IHMeth= 1 ICntrl=    3107 DoSepK=F KAlg= 0 I1Cent=           0 FoldK=F
 IRaf=         0 NMat=       1 IRICut=       1 DoRegI=T DoRafI=F ISym2E= 0 IDoP0=0 IntGTp=1.
 FoFCou: FMM=F IPFlag=           0 FMFlag=      100000 FMFlg1=           0
         NFxFlg=           0 DoJE=F BraDBF=F KetDBF=F FulRan=T
         wScrn=  0.000000 ICntrl=      3107 IOpCl=  0 I1Cent=           0 NGrid=           0
         NMat0=    1 NMatS0=      1 NMatT0=    0 NMatD0=    1 NMtDS0=    0 NMtDT0=    0
 Symmetry not used in FoFCou.
 End of G2Drv F.D. properties file   721 does not exist.
 End of G2Drv F.D. properties file   722 does not exist.
 End of G2Drv F.D. properties file   788 does not exist.
 Leave Link 1110 at Mon Mar  6 10:48:59 2023, MaxMem=  1048576000 cpu:            1091.7 elap:            1095.9
 (Enter /ssoft/spack/external/gaussian/g16-C.01/avx2/g16/l1002.exe)
 Minotr:  Closed shell wavefunction.
          IDoAtm=111111111111111111111111111111111111111
          Direct CPHF calculation.
          Differentiating once with respect to electric field.
                with respect to dipole field.
          Differentiating once with respect to nuclear coordinates.
          Requested convergence is 1.0D-08 RMS, and 1.0D-07 maximum.
          Secondary convergence is 1.0D-12 RMS, and 1.0D-12 maximum.
          NewPWx=T KeepS1=F KeepF1=F KeepIn=T MapXYZ=F SortEE=F KeepMc=T.
        11777 words used for storage of precomputed grid.
 Two-electron integrals replicated using symmetry.
          MDV=    1048576000 using IRadAn=       1.
          Solving linear equations simultaneously, MaxMat=     384.
 FoF2E skips out because all densities are zero.
 CalDSu exits because no D1Ps are significant.
 FoFJK:  IHMeth= 1 ICntrl=       0 DoSepK=F KAlg= 0 I1Cent=           0 FoldK=F
 IRaf= 780000000 NMat=     117 IRICut=     292 DoRegI=T DoRafI=T ISym2E= 2 IDoP0=3 IntGTp=3.
 FoFCou: FMM=F IPFlag=           0 FMFlag=      100000 FMFlg1=           0
         NFxFlg=           0 DoJE=F BraDBF=F KetDBF=F FulRan=T
         wScrn=  0.000000 ICntrl=         0 IOpCl=  0 I1Cent=           0 NGrid=           0
         NMat0=  117 NMatS0=    117 NMatT0=    0 NMatD0=  117 NMtDS0=    0 NMtDT0=    0
 Integrals replicated using symmetry in FoFCou.
 Raff kept on since  73.75% of shell-pairs survive, threshold=   0.20 IRatSp=74.
          There are   120 degrees of freedom in the 1st order CPHF.  IDoFFX=6 NUNeed=     3.
    117 vectors produced by pass  0 Test12= 2.61D-14 1.00D-09 XBig12= 2.93D+02 1.02D+01.
 AX will form   117 AO Fock derivatives at one time.
    117 vectors produced by pass  1 Test12= 2.61D-14 1.00D-09 XBig12= 5.44D+01 1.80D+00.
    117 vectors produced by pass  2 Test12= 2.61D-14 1.00D-09 XBig12= 8.63D-01 1.08D-01.
    117 vectors produced by pass  3 Test12= 2.61D-14 1.00D-09 XBig12= 6.95D-03 1.16D-02.
    117 vectors produced by pass  4 Test12= 2.61D-14 1.00D-09 XBig12= 2.10D-05 5.89D-04.
    110 vectors produced by pass  5 Test12= 2.61D-14 1.00D-09 XBig12= 2.70D-08 1.72D-05.
     27 vectors produced by pass  6 Test12= 2.61D-14 1.00D-09 XBig12= 2.81D-11 5.45D-07.
      3 vectors produced by pass  7 Test12= 2.61D-14 1.00D-09 XBig12= 2.84D-14 1.71D-08.
      2 vectors produced by pass  8 Test12= 2.61D-14 1.00D-09 XBig12= 3.12D-16 1.21D-09.
 InvSVY:  IOpt=1 It=  1 EMax= 5.33D-15
 Solved reduced A of dimension   727 with   120 vectors.
 FullF1:  Do perturbations      1 to       3.
 Isotropic polarizability for W=    0.000000      208.00 Bohr**3.
 End of Minotr F.D. properties file   721 does not exist.
 End of Minotr F.D. properties file   722 does not exist.
 End of Minotr F.D. properties file   788 does not exist.
 Leave Link 1002 at Mon Mar  6 11:23:47 2023, MaxMem=  1048576000 cpu:            2080.5 elap:            2087.7
 (Enter /ssoft/spack/external/gaussian/g16-C.01/avx2/g16/l601.exe)
 Copying SCF densities to generalized density rwf, IOpCl= 0 IROHF=0.

 **********************************************************************

            Population analysis using the SCF Density.

 **********************************************************************

 Orbital symmetries:
       Occupied  (A) (A) (A) (A) (A) (A) (A) (A) (A) (A) (A) (A)
                 (A) (A) (A) (A) (A) (A) (A) (A) (A) (A) (A) (A)
                 (A) (A) (A) (A) (A) (A) (A) (A) (A) (A) (A) (A)
                 (A) (A) (A) (A) (A) (A) (A) (A) (A) (A) (A) (A)
                 (A) (A) (A) (A) (A) (A) (A) (A) (A) (A) (A) (A)
                 (A) (A) (A) (A) (A) (A) (A) (A) (A) (A) (A) (A)
                 (A) (A) (A) (A) (A) (A) (A) (A) (A) (A) (A) (A)
                 (A)
       Virtual   (A) (A) (A) (A) (A) (A) (A) (A) (A) (A) (A) (A)
                 (A) (A) (A) (A) (A) (A) (A) (A) (A) (A) (A) (A)
                 (A) (A) (A) (A) (A) (A) (A) (A) (A) (A) (A) (A)
                 (A) (A) (A) (A) (A) (A) (A) (A) (A) (A) (A) (A)
                 (A) (A) (A) (A) (A) (A) (A) (A) (A) (A) (A) (A)
                 (A) (A) (A) (A) (A) (A) (A) (A) (A) (A) (A) (A)
                 (A) (A) (A) (A) (A) (A) (A) (A) (A) (A) (A) (A)
                 (A) (A) (A) (A) (A) (A) (A) (A) (A) (A) (A) (A)
                 (A) (A) (A) (A) (A) (A) (A) (A) (A) (A) (A) (A)
                 (A) (A) (A) (A) (A) (A) (A) (A) (A) (A) (A) (A)
                 (A) (A) (A) (A) (A) (A) (A) (A) (A) (A) (A) (A)
                 (A) (A) (A) (A) (A) (A) (A) (A) (A) (A) (A) (A)
                 (A) (A) (A) (A) (A) (A) (A) (A) (A) (A) (A) (A)
                 (A) (A) (A) (A) (A) (A) (A) (A) (A) (A) (A) (A)
                 (A) (A) (A) (A) (A) (A) (A) (A) (A) (A) (A) (A)
                 (A) (A) (A) (A) (A) (A) (A) (A) (A) (A) (A) (A)
                 (A) (A) (A) (A) (A) (A) (A) (A) (A) (A) (A) (A)
                 (A) (A) (A) (A) (A) (A) (A) (A) (A) (A) (A) (A)
                 (A) (A) (A) (A) (A) (A) (A) (A) (A) (A) (A) (A)
                 (A) (A) (A) (A) (A) (A) (A) (A) (A) (A) (A) (A)
                 (A) (A) (A) (A) (A) (A) (A) (A) (A) (A) (A) (A)
                 (A) (A) (A) (A) (A) (A) (A) (A) (A) (A) (A) (A)
                 (A) (A) (A) (A) (A) (A) (A) (A) (A) (A) (A) (A)
                 (A) (A) (A) (A) (A) (A) (A) (A) (A) (A) (A) (A)
                 (A) (A) (A) (A) (A) (A) (A) (A) (A) (A) (A) (A)
                 (A) (A) (A) (A) (A) (A) (A)
 The electronic state is 1-A.
 Alpha  occ. eigenvalues -- -101.55045-101.53167 -18.96904 -14.22832 -10.14584
 Alpha  occ. eigenvalues --  -10.13642 -10.12870 -10.12836 -10.12601 -10.12422
 Alpha  occ. eigenvalues --  -10.12254 -10.11398 -10.10983 -10.10872 -10.10803
 Alpha  occ. eigenvalues --  -10.09706 -10.09362 -10.09285 -10.08926 -10.08925
 Alpha  occ. eigenvalues --  -10.08230  -9.40226  -9.38328  -7.14323  -7.13405
 Alpha  occ. eigenvalues --   -7.13382  -7.12443  -7.11514  -7.11458  -0.81936
 Alpha  occ. eigenvalues --   -0.81255  -0.77843  -0.77232  -0.73752  -0.71035
 Alpha  occ. eigenvalues --   -0.70969  -0.69932  -0.67872  -0.63161  -0.61739
 Alpha  occ. eigenvalues --   -0.61477  -0.57440  -0.54277  -0.52872  -0.52799
 Alpha  occ. eigenvalues --   -0.49524  -0.47452  -0.46586  -0.43978  -0.40543
 Alpha  occ. eigenvalues --   -0.40038  -0.39532  -0.39372  -0.38069  -0.36128
 Alpha  occ. eigenvalues --   -0.35363  -0.35117  -0.34094  -0.33630  -0.32675
 Alpha  occ. eigenvalues --   -0.32488  -0.32114  -0.31154  -0.28670  -0.27761
 Alpha  occ. eigenvalues --   -0.26747  -0.26385  -0.25701  -0.25277  -0.25069
 Alpha  occ. eigenvalues --   -0.24946  -0.23894  -0.22015  -0.21889  -0.21362
 Alpha  occ. eigenvalues --   -0.20498  -0.20188  -0.19474  -0.17115  -0.16853
 Alpha  occ. eigenvalues --   -0.15809  -0.11351  -0.11201  -0.05623  -0.03920
 Alpha virt. eigenvalues --    0.10395   0.15050   0.16602   0.18197   0.18858
 Alpha virt. eigenvalues --    0.19049   0.19552   0.19718   0.21308   0.21675
 Alpha virt. eigenvalues --    0.21905   0.23241   0.23889   0.23969   0.25410
 Alpha virt. eigenvalues --    0.26253   0.27410   0.28850   0.28924   0.29566
 Alpha virt. eigenvalues --    0.30018   0.30840   0.31056   0.31234   0.31901
 Alpha virt. eigenvalues --    0.32202   0.33296   0.33530   0.33750   0.33940
 Alpha virt. eigenvalues --    0.36841   0.37571   0.37809   0.38053   0.38622
 Alpha virt. eigenvalues --    0.39020   0.40325   0.41600   0.42057   0.44151
 Alpha virt. eigenvalues --    0.45104   0.46666   0.48993   0.50663   0.52865
 Alpha virt. eigenvalues --    0.53817   0.54239   0.54657   0.55814   0.57276
 Alpha virt. eigenvalues --    0.57554   0.59226   0.59739   0.60382   0.61527
 Alpha virt. eigenvalues --    0.61825   0.62258   0.63323   0.64760   0.65521
 Alpha virt. eigenvalues --    0.67382   0.68022   0.70039   0.70835   0.71823
 Alpha virt. eigenvalues --    0.72268   0.73102   0.74373   0.75065   0.75740
 Alpha virt. eigenvalues --    0.76156   0.77016   0.77257   0.77366   0.77651
 Alpha virt. eigenvalues --    0.78090   0.78442   0.79383   0.79800   0.80212
 Alpha virt. eigenvalues --    0.80771   0.80838   0.81192   0.81469   0.81707
 Alpha virt. eigenvalues --    0.82120   0.82713   0.83761   0.84214   0.84788
 Alpha virt. eigenvalues --    0.85049   0.85368   0.85977   0.86170   0.86970
 Alpha virt. eigenvalues --    0.87015   0.87484   0.88545   0.88887   0.89191
 Alpha virt. eigenvalues --    0.90030   0.90687   0.91444   0.91555   0.92040
 Alpha virt. eigenvalues --    0.92425   0.92648   0.93165   0.93915   0.94718
 Alpha virt. eigenvalues --    0.94949   0.95020   0.95283   0.96737   0.97455
 Alpha virt. eigenvalues --    0.97651   0.98571   0.99005   0.99681   1.00106
 Alpha virt. eigenvalues --    1.02173   1.04907   1.06615   1.06990   1.07503
 Alpha virt. eigenvalues --    1.08421   1.10822   1.13255   1.13719   1.15059
 Alpha virt. eigenvalues --    1.17139   1.17505   1.18840   1.21495   1.22086
 Alpha virt. eigenvalues --    1.23642   1.25468   1.27024   1.28700   1.30076
 Alpha virt. eigenvalues --    1.30284   1.30963   1.31325   1.34775   1.35157
 Alpha virt. eigenvalues --    1.37083   1.38258   1.38552   1.38921   1.39888
 Alpha virt. eigenvalues --    1.41692   1.41886   1.42032   1.42449   1.43297
 Alpha virt. eigenvalues --    1.43524   1.44379   1.45000   1.47637   1.49709
 Alpha virt. eigenvalues --    1.51106   1.55447   1.56813   1.59791   1.60029
 Alpha virt. eigenvalues --    1.61241   1.62546   1.64041   1.66367   1.69248
 Alpha virt. eigenvalues --    1.72047   1.73765   1.76345   1.77064   1.77608
 Alpha virt. eigenvalues --    1.78602   1.79901   1.81308   1.82532   1.84142
 Alpha virt. eigenvalues --    1.85007   1.85555   1.86541   1.87113   1.87587
 Alpha virt. eigenvalues --    1.88972   1.89563   1.90683   1.92085   1.92962
 Alpha virt. eigenvalues --    1.94176   1.95680   1.95909   1.97083   1.98973
 Alpha virt. eigenvalues --    1.99518   2.01879   2.02027   2.03652   2.04823
 Alpha virt. eigenvalues --    2.06051   2.07000   2.07490   2.08499   2.09211
 Alpha virt. eigenvalues --    2.10298   2.10699   2.12465   2.13409   2.13669
 Alpha virt. eigenvalues --    2.14400   2.14973   2.15216   2.15799   2.16955
 Alpha virt. eigenvalues --    2.18784   2.19190   2.20704   2.21951   2.23062
 Alpha virt. eigenvalues --    2.24567   2.26505   2.27792   2.28156   2.29840
 Alpha virt. eigenvalues --    2.31086   2.32032   2.32595   2.33681   2.34396
 Alpha virt. eigenvalues --    2.35414   2.35818   2.36161   2.37726   2.39196
 Alpha virt. eigenvalues --    2.40217   2.40338   2.42934   2.43437   2.43548
 Alpha virt. eigenvalues --    2.44755   2.45642   2.46318   2.48409   2.51724
 Alpha virt. eigenvalues --    2.52549   2.54796   2.59019   2.59848   2.61893
 Alpha virt. eigenvalues --    2.64149   2.67408   2.68441   2.70511   2.71284
 Alpha virt. eigenvalues --    2.73005   2.74961   2.75164   2.75704   2.77020
 Alpha virt. eigenvalues --    2.77609   2.80443   2.80758   2.82132   2.83564
 Alpha virt. eigenvalues --    2.85434   2.87557   2.89276   2.90123   2.90611
 Alpha virt. eigenvalues --    2.91396   2.93108   2.93953   2.96405   2.98313
 Alpha virt. eigenvalues --    2.99382   3.00242   3.00681   3.01655   3.02968
 Alpha virt. eigenvalues --    3.10173   3.13117   3.22180   3.22700   3.27254
 Alpha virt. eigenvalues --    3.28194   3.28374   3.28687   3.33738   3.35763
 Alpha virt. eigenvalues --    3.37363   3.38438   3.39107   3.40327   3.41174
 Alpha virt. eigenvalues --    3.42516   3.43099   3.43889   3.50521   3.50764
 Alpha virt. eigenvalues --    3.51322   3.52595   3.54567   3.57858   3.68664
 Alpha virt. eigenvalues --    3.74492   3.88649
     Molecular Orbital Coefficients:
                          81        82        83        84        85
                           O         O         O         O         O
     Eigenvalues --    -0.15809  -0.11351  -0.11201  -0.05623  -0.03920
   1 1   O  1S         -0.00032  -0.01131   0.00033  -0.00554  -0.00008
   2        2S         -0.00042  -0.02372   0.00044  -0.00997   0.00026
   3        3S         -0.00365  -0.03646   0.00358  -0.04771  -0.00458
   4        4PX        -0.00538  -0.15208   0.00022   0.51774  -0.00446
   5        4PY        -0.00106   0.11459  -0.00160  -0.25317  -0.00314
   6        4PZ         0.33454  -0.00240   0.00157   0.00864   0.37921
   7        5PX        -0.00396  -0.11403   0.00107   0.36680  -0.00427
   8        5PY        -0.00154   0.07464  -0.00054  -0.19442  -0.00332
   9        5PZ         0.22513  -0.00162   0.00030   0.00579   0.30339
  10        6D 0        0.00030  -0.00094   0.00003  -0.00071   0.00022
  11        6D+1        0.00818  -0.00009  -0.00004   0.00025   0.00510
  12        6D-1        0.01439  -0.00004  -0.00006   0.00008   0.00864
  13        6D+2       -0.00011  -0.00408   0.00001   0.01339   0.00001
  14        6D-2       -0.00036  -0.00342   0.00005   0.00783  -0.00016
  15 2   C  1S         -0.00021  -0.00800   0.00165  -0.00751   0.00012
  16        2S          0.00103   0.01671  -0.00450   0.01784   0.00092
  17        3S         -0.01384   0.09700   0.00675  -0.09226  -0.02333
  18        4PX        -0.00723  -0.00828  -0.00033  -0.06317   0.00192
  19        4PY         0.00162  -0.00174  -0.00216   0.04245  -0.00017
  20        4PZ         0.25852  -0.00123  -0.00288  -0.00211  -0.07519
  21        5PX        -0.00573  -0.12449   0.00094   0.19923  -0.00440
  22        5PY        -0.01002   0.06625   0.00774  -0.22317  -0.01447
  23        5PZ         0.19702  -0.00309   0.00170   0.00528   0.03981
  24        6D 0       -0.00030  -0.00085   0.00056  -0.00012  -0.00019
  25        6D+1       -0.00786   0.00031   0.01104  -0.00056  -0.01680
  26        6D-1       -0.01674  -0.00003  -0.00649  -0.00033  -0.03200
  27        6D+2       -0.00014   0.00931   0.00003  -0.03919   0.00042
  28        6D-2        0.00024   0.00945  -0.00018  -0.02208   0.00068
  29 3   C  1S          0.00115  -0.02090  -0.00343  -0.00718  -0.00249
  30        2S         -0.00274   0.03773   0.00850   0.01072   0.00527
  31        3S         -0.00851   0.21230   0.02028   0.10628   0.02398
  32        4PX        -0.00359   0.04477   0.00658   0.01057   0.00294
  33        4PY         0.00522  -0.15500  -0.01283  -0.05104  -0.00945
  34        4PZ        -0.00137   0.02150   0.00235   0.00713   0.00135
  35        5PX         0.00797   0.02113  -0.01338   0.01397   0.00056
  36        5PY         0.00390  -0.14630  -0.00679  -0.07525  -0.01071
  37        5PZ         0.01142   0.03474  -0.01495   0.01832  -0.00232
  38        6D 0        0.00039   0.00006  -0.00126   0.00003  -0.00070
  39        6D+1       -0.00021  -0.00094   0.00129  -0.00041   0.00101
  40        6D-1       -0.00073  -0.00301   0.00251  -0.00102   0.00133
  41        6D+2        0.00041  -0.00392  -0.00111  -0.00120  -0.00066
  42        6D-2        0.00001   0.00240   0.00032   0.00138   0.00040
  43 4   H  1S          0.00247  -0.00213  -0.00711  -0.00034  -0.00434
  44        2S          0.01581  -0.01241  -0.03029   0.00310  -0.01351
  45        3PX        -0.00028   0.00166  -0.00029   0.00048  -0.00059
  46        3PY         0.00009  -0.00322  -0.00018  -0.00079   0.00003
  47        3PZ        -0.00011   0.00061   0.00053   0.00053   0.00042
  48 5   H  1S         -0.00374  -0.02349   0.00937  -0.00675   0.00400
  49        2S         -0.01305  -0.03392   0.02198   0.00006   0.00558
  50        3PX        -0.00024   0.00364   0.00096   0.00147   0.00052
  51        3PY         0.00036  -0.00330  -0.00070  -0.00116  -0.00030
  52        3PZ        -0.00008   0.00039   0.00050  -0.00034   0.00033
  53 6   N  1S         -0.00024   0.08520  -0.00225   0.03735  -0.00063
  54        2S         -0.00114   0.17032  -0.00360   0.07881  -0.00150
  55        3S          0.00556   0.29045  -0.01687   0.17859   0.00204
  56        4PX         0.00044  -0.12645   0.00341  -0.04639   0.00029
  57        4PY         0.00031   0.45151  -0.01151   0.17196  -0.00299
  58        4PZ         0.04684  -0.01550  -0.21968  -0.00199  -0.16642
  59        5PX        -0.00054   0.04194  -0.00207  -0.00311  -0.00002
  60        5PY         0.00202  -0.31790   0.00406  -0.08689   0.00393
  61        5PZ        -0.02371   0.01102   0.16618   0.00095   0.14494
  62        6D 0        0.00007   0.01193  -0.00063   0.00535  -0.00032
  63        6D+1       -0.00134  -0.00025   0.00284  -0.00016  -0.00122
  64        6D-1       -0.00339   0.00038   0.01104  -0.00004   0.00546
  65        6D+2       -0.00002   0.00915  -0.00024   0.00271  -0.00007
  66        6D-2       -0.00008   0.00498   0.00001   0.00549   0.00004
  67 7   C  1S         -0.00010  -0.00204  -0.00021  -0.00071  -0.00047
  68        2S          0.00017   0.00413   0.00031   0.00191   0.00062
  69        3S          0.00351  -0.01417   0.00047  -0.01272   0.00720
  70        4PX         0.00065   0.00596  -0.00054   0.00185   0.00054
  71        4PY        -0.00061   0.00077   0.00203   0.00055   0.00123
  72        4PZ        -0.00431  -0.00470   0.00653  -0.00115   0.00175
  73        5PX         0.00087  -0.01029  -0.00081  -0.00675   0.00069
  74        5PY        -0.00038  -0.00405   0.00074  -0.00103  -0.00027
  75        5PZ        -0.00207   0.00279  -0.00315   0.00068  -0.00622
  76        6D 0        0.00021   0.00012  -0.00036   0.00014  -0.00009
  77        6D+1       -0.00035  -0.00034   0.00113  -0.00013   0.00072
  78        6D-1       -0.00002  -0.00041  -0.00012  -0.00005  -0.00015
  79        6D+2       -0.00002  -0.00137   0.00019  -0.00037   0.00007
  80        6D-2       -0.00009  -0.00010   0.00034   0.00000   0.00022
  81 8   H  1S         -0.00040   0.00546  -0.00010   0.00152  -0.00016
  82        2S         -0.00124  -0.00505   0.00031   0.00153  -0.00190
  83        3PX         0.00002   0.00049  -0.00005   0.00021  -0.00003
  84        3PY        -0.00003  -0.00047   0.00006  -0.00004   0.00003
  85        3PZ        -0.00014  -0.00009   0.00033  -0.00004   0.00018
  86 9   H  1S         -0.00089  -0.00699   0.00165  -0.00232   0.00022
  87        2S         -0.00092  -0.00743   0.00122  -0.00312  -0.00076
  88        3PX        -0.00003   0.00062   0.00006   0.00024   0.00005
  89        3PY         0.00001   0.00022  -0.00003   0.00009  -0.00001
  90        3PZ        -0.00009  -0.00025   0.00012  -0.00005   0.00000
  91 10  C  1S         -0.00016   0.00359   0.00125   0.00175   0.00123
  92        2S         -0.00062  -0.00615  -0.00194  -0.00300  -0.00296
  93        3S         -0.00037  -0.04286   0.00371  -0.02405   0.00152
  94        4PX        -0.00121  -0.00331   0.00197  -0.00209   0.00013
  95        4PY         0.00006  -0.01484   0.00111  -0.00264   0.00077
  96        4PZ        -0.00047  -0.01196  -0.00146  -0.00418  -0.00188
  97        5PX         0.00159  -0.01333   0.00142  -0.00709   0.00391
  98        5PY        -0.00006   0.00140  -0.00399   0.00122  -0.00384
  99        5PZ        -0.00102  -0.01336   0.00186  -0.00620  -0.00023
 100        6D 0        0.00019  -0.00031  -0.00031  -0.00011  -0.00014
 101        6D+1       -0.00006  -0.00087   0.00006  -0.00022  -0.00001
 102        6D-1       -0.00020  -0.00014   0.00035  -0.00003   0.00011
 103        6D+2        0.00018  -0.00181  -0.00043  -0.00040  -0.00021
 104        6D-2       -0.00014  -0.00069   0.00057  -0.00027   0.00036
 105 11  H  1S          0.00177  -0.00722  -0.00412  -0.00139  -0.00177
 106        2S          0.00286  -0.00422  -0.00367   0.00087   0.00112
 107        3PX         0.00014  -0.00015  -0.00028  -0.00005  -0.00014
 108        3PY        -0.00000  -0.00056   0.00008  -0.00006   0.00006
 109        3PZ        -0.00002  -0.00019  -0.00012  -0.00006  -0.00012
 110 12  C  1S         -0.00104  -0.00224   0.00454  -0.00041   0.00344
 111        2S          0.00208  -0.00197  -0.00703  -0.00223  -0.00452
 112        3S          0.01121   0.15625  -0.07983   0.07044  -0.07739
 113        4PX         0.00553  -0.00010  -0.02293  -0.00065  -0.01556
 114        4PY        -0.00010   0.01490  -0.00040   0.00284   0.00068
 115        4PZ         0.00557   0.00641  -0.01079   0.00162  -0.00372
 116        5PX         0.00684   0.04736  -0.03561   0.02303  -0.03243
 117        5PY         0.00089   0.00514  -0.00103   0.00097   0.00326
 118        5PZ         0.00333   0.00187  -0.01049   0.00115  -0.00582
 119        6D 0        0.00000  -0.00001   0.00017   0.00004   0.00013
 120        6D+1       -0.00060  -0.00125   0.00173  -0.00034   0.00094
 121        6D-1       -0.00025  -0.00065   0.00061  -0.00004   0.00027
 122        6D+2        0.00012  -0.00002  -0.00006   0.00018   0.00016
 123        6D-2       -0.00036  -0.00123   0.00145  -0.00013   0.00100
 124 13  H  1S         -0.00588  -0.01472   0.01691  -0.00296   0.00874
 125        2S         -0.00508  -0.02708   0.02098  -0.00825   0.01657
 126        3PX         0.00004  -0.00067  -0.00049  -0.00035  -0.00047
 127        3PY        -0.00020   0.00052   0.00037   0.00018   0.00008
 128        3PZ         0.00003   0.00007   0.00001   0.00008  -0.00001
 129 14  C  1S          0.00032   0.00287  -0.00117   0.00160  -0.00083
 130        2S          0.00030  -0.00347   0.00198  -0.00186   0.00256
 131        3S         -0.00391  -0.03057  -0.00084  -0.01907  -0.00801
 132        4PX         0.00052   0.00448  -0.00211   0.00023  -0.00081
 133        4PY         0.00206  -0.00286  -0.00357   0.00126  -0.00151
 134        4PZ        -0.00162   0.01037   0.00107   0.00327  -0.00019
 135        5PX        -0.00326  -0.00922   0.00088  -0.00662  -0.00486
 136        5PY         0.00020   0.01271   0.00456   0.00722   0.00441
 137        5PZ        -0.00017   0.00523  -0.00140   0.00341  -0.00153
 138        6D 0        0.00010   0.00016  -0.00032  -0.00001  -0.00017
 139        6D+1       -0.00022   0.00078   0.00057   0.00020   0.00034
 140        6D-1       -0.00018  -0.00155   0.00045  -0.00038   0.00018
 141        6D+2        0.00010  -0.00157   0.00001  -0.00030   0.00003
 142        6D-2        0.00015   0.00021  -0.00072  -0.00000  -0.00051
 143 15  H  1S         -0.00081  -0.01229   0.00379  -0.00305   0.00191
 144        2S         -0.00178  -0.01093   0.00337  -0.00223  -0.00025
 145        3PX        -0.00008  -0.00026   0.00015  -0.00014   0.00008
 146        3PY         0.00008  -0.00028  -0.00020  -0.00001  -0.00007
 147        3PZ        -0.00006   0.00026  -0.00002   0.00004  -0.00009
 148 16  H  1S         -0.00009   0.00309  -0.00046   0.00140  -0.00003
 149        2S          0.00206   0.00332  -0.00369   0.00081   0.00008
 150        3PX         0.00013   0.00053  -0.00010   0.00030   0.00007
 151        3PY         0.00000  -0.00049  -0.00007  -0.00005  -0.00012
 152        3PZ        -0.00011   0.00025   0.00022   0.00013   0.00009
 153 17  C  1S         -0.00357   0.00658   0.01520   0.00214   0.01145
 154        2S          0.00648  -0.01465  -0.02742  -0.00576  -0.02137
 155        3S          0.04381  -0.10480  -0.15901  -0.03844  -0.12408
 156        4PX         0.01216   0.00562  -0.04193   0.00155  -0.02342
 157        4PY         0.00310  -0.00320  -0.00814   0.00245  -0.00411
 158        4PZ        -0.01876   0.00772   0.06063   0.00115   0.03590
 159        5PX         0.00372   0.06557   0.00103   0.03519   0.01597
 160        5PY         0.01192   0.02507  -0.02477   0.01241  -0.00805
 161        5PZ        -0.01884  -0.00212   0.05628  -0.00249   0.03744
 162        6D 0        0.00064  -0.00073  -0.00203   0.00003  -0.00123
 163        6D+1       -0.00077   0.00239   0.00127   0.00113   0.00007
 164        6D-1       -0.00040  -0.00426   0.00154  -0.00148   0.00090
 165        6D+2       -0.00006  -0.00342   0.00168  -0.00138   0.00178
 166        6D-2        0.00029  -0.00099  -0.00074  -0.00043  -0.00036
 167 18  H  1S         -0.00128   0.01853  -0.00282   0.00383  -0.00519
 168        2S          0.00146   0.09135   0.01347   0.03008   0.02199
 169        3PX         0.00025   0.00047  -0.00080   0.00009  -0.00049
 170        3PY         0.00029  -0.00037  -0.00073  -0.00049  -0.00036
 171        3PZ        -0.00046  -0.00049   0.00128  -0.00013   0.00063
 172 19  H  1S         -0.00260  -0.00675   0.00301  -0.00058  -0.00158
 173        2S         -0.01183  -0.01072   0.03730  -0.00117   0.01819
 174        3PX         0.00030  -0.00113  -0.00051  -0.00074  -0.00016
 175        3PY        -0.00016  -0.00046   0.00043  -0.00008   0.00025
 176        3PZ        -0.00047   0.00121   0.00156   0.00022   0.00106
 177 20  C  1S          0.00245   0.01646  -0.01149   0.00617  -0.00875
 178        2S         -0.00412  -0.03353   0.01821  -0.01418   0.01486
 179        3S         -0.03470  -0.19907   0.14799  -0.07656   0.11008
 180        4PX        -0.00907  -0.02735   0.03472  -0.00936   0.02092
 181        4PY        -0.00592  -0.02937   0.02440  -0.00666   0.01602
 182        4PZ        -0.01194  -0.03839   0.03508  -0.01306   0.01791
 183        5PX        -0.00658   0.06305   0.00769   0.03470  -0.01022
 184        5PY        -0.01451  -0.00573   0.04458  -0.00652   0.02844
 185        5PZ        -0.01063  -0.04255   0.02988  -0.01905   0.01400
 186        6D 0        0.00051  -0.00233  -0.00075  -0.00070  -0.00004
 187        6D+1       -0.00061  -0.00263   0.00137  -0.00100   0.00043
 188        6D-1       -0.00046  -0.00015   0.00109   0.00008   0.00039
 189        6D+2        0.00048  -0.00354  -0.00215  -0.00138  -0.00187
 190        6D-2       -0.00050  -0.00276   0.00129  -0.00116   0.00040
 191 21  H  1S          0.00578  -0.00205  -0.00870  -0.00017   0.00040
 192        2S          0.00997   0.01781  -0.04565   0.00655  -0.03433
 193        3PX        -0.00015  -0.00213   0.00012  -0.00101  -0.00006
 194        3PY         0.00004  -0.00145   0.00001  -0.00017   0.00004
 195        3PZ        -0.00031  -0.00149   0.00085  -0.00049   0.00053
 196 22  H  1S         -0.00190   0.01615   0.00566   0.00217   0.00500
 197        2S         -0.00309   0.09781  -0.00384   0.02580  -0.00606
 198        3PX        -0.00008  -0.00024   0.00064  -0.00006   0.00071
 199        3PY        -0.00029  -0.00102   0.00098  -0.00085   0.00055
 200        3PZ        -0.00021  -0.00020   0.00074   0.00016   0.00049
 201 23  C  1S         -0.00003   0.03107  -0.00072   0.01557  -0.00028
 202        2S          0.00030  -0.07112   0.00225  -0.03770   0.00128
 203        3S         -0.00399  -0.18298   0.00213  -0.13011  -0.00538
 204        4PX        -0.00005  -0.14357   0.00432  -0.06518   0.00143
 205        4PY        -0.00047   0.12063  -0.00374   0.03338  -0.00144
 206        4PZ         0.02183   0.00403  -0.05964   0.00262  -0.02443
 207        5PX        -0.00402  -0.13772   0.00919  -0.08029   0.00062
 208        5PY        -0.00775  -0.02353   0.01490  -0.04031  -0.00325
 209        5PZ        -0.01797   0.01017   0.03366   0.00600   0.02196
 210        6D 0        0.00071  -0.00007  -0.00251   0.00031  -0.00157
 211        6D+1       -0.00227   0.00038   0.01090   0.00006   0.00904
 212        6D-1       -0.00010  -0.00411   0.00009  -0.00112  -0.00041
 213        6D+2        0.00026  -0.01675  -0.00046  -0.00643  -0.00044
 214        6D-2       -0.00010  -0.01421   0.00071  -0.00603   0.00034
 215 24  C  1S          0.00160   0.00171  -0.00639   0.00110  -0.00457
 216        2S         -0.00275  -0.00933   0.01095  -0.00528   0.00742
 217        3S         -0.02155   0.09828   0.09661   0.04921   0.08544
 218        4PX        -0.00833  -0.02005   0.03206  -0.00762   0.02005
 219        4PY         0.00009   0.01271  -0.00340   0.00270  -0.00281
 220        4PZ         0.00681   0.00025  -0.01550   0.00037  -0.00636
 221        5PX        -0.01068   0.01990   0.04563   0.01102   0.03872
 222        5PY         0.00043   0.01025  -0.00526   0.00177  -0.00554
 223        5PZ         0.00550  -0.00117  -0.01302  -0.00175  -0.00518
 224        6D 0        0.00060   0.00032  -0.00146   0.00019  -0.00064
 225        6D+1       -0.00087  -0.00053   0.00283  -0.00035   0.00177
 226        6D-1       -0.00013  -0.00008   0.00019  -0.00000   0.00001
 227        6D+2       -0.00006  -0.00027   0.00008   0.00016  -0.00013
 228        6D-2        0.00020   0.00012  -0.00075   0.00024  -0.00046
 229 25  H  1S          0.00880   0.00345  -0.02355   0.00211  -0.01187
 230        2S          0.00798  -0.00554  -0.02888  -0.00083  -0.02184
 231        3PX        -0.00013  -0.00116   0.00085  -0.00055   0.00067
 232        3PY         0.00009   0.00054  -0.00030   0.00019  -0.00016
 233        3PZ        -0.00010  -0.00036   0.00017  -0.00015  -0.00003
 234 26  C  1S         -0.00013   0.02988  -0.00126   0.00978  -0.00043
 235        2S          0.00015  -0.08652   0.00430  -0.02156   0.00180
 236        3S          0.00773   0.10979  -0.01159   0.03429   0.00774
 237        4PX        -0.00082   0.01302   0.00099  -0.00832   0.00082
 238        4PY         0.00084   0.15271  -0.00270   0.04405  -0.00202
 239        4PZ        -0.05909   0.00055   0.10122  -0.00151  -0.03277
 240        5PX         0.00559   0.09445  -0.01370   0.06749   0.00712
 241        5PY         0.00322  -0.06774  -0.00338   0.04408   0.00233
 242        5PZ        -0.03431   0.00355   0.07787  -0.00111   0.00756
 243        6D 0       -0.00000  -0.00107   0.00014   0.00075  -0.00004
 244        6D+1        0.00206  -0.00054  -0.01894   0.00012  -0.01754
 245        6D-1        0.00027  -0.00095  -0.00926  -0.00027  -0.00625
 246        6D+2        0.00001  -0.03285   0.00079  -0.01199   0.00019
 247        6D-2       -0.00012  -0.00445  -0.00032  -0.00455  -0.00046
 248 27  H  1S          0.00144   0.15900  -0.00303   0.06264  -0.00033
 249        2S         -0.00316   0.19724   0.00049   0.05716  -0.00078
 250        3PX        -0.00005   0.00123  -0.00018  -0.00108  -0.00029
 251        3PY        -0.00014   0.00274   0.00009   0.00073  -0.00003
 252        3PZ        -0.00291   0.00006   0.00315  -0.00003  -0.00265
 253 28  C  1S         -0.00055   0.01051   0.00128   0.00368   0.00081
 254        2S          0.00045  -0.02340  -0.00187  -0.00806  -0.00203
 255        3S          0.01520  -0.07082  -0.02650  -0.01973  -0.00664
 256        4PX         0.00302  -0.05599  -0.00576  -0.01781  -0.00323
[...]
 .00003223,0.00005200,0.00010655,0.00005009,0.00009663,-0.00000094,0.00
 028837,-0.00016790,-0.00022635,0.00013816,0.00021720,-0.00003575,0.000
 10540,0.00004984,-0.00005671,0.00003268,0.00010846,0.00001768,-0.00001
 877,-0.00005683,-0.00001294,0.00014220,0.00105509,-0.00040387,-0.00001
 221,-0.00010531,-0.00015573,-0.00006457,-0.00006607,-0.00011859,-0.000
 12449,0.00083340,0.00019715,-0.00015853,-0.00005860,0.00003445,-0.0000
 7052,-0.00007586,0.00011795,-0.00038741,-0.00250430,0.00035701,0.00005
 826,-0.00011292,0.00050731,0.00010796,0.00026847,0.00008004,-0.0007043
 5,-0.00908302,0.00025510,-0.00078298,-0.00063991,-0.00012691,-0.000268
 20,-0.00009712,-0.00006409,0.00001880,0.00018446,-0.00001118,0.0092441
 2,-0.03120340,0.00143915,0.06354445,-0.14131147,0.00523722,0.00227709,
 -0.00317460,0.00028163,-0.01551165,-0.01500367,-0.00143005,0.02871406,
 0.02345713,0.00284470,0.04705244,0.52424590,-0.00943203,-0.00460441,0.
 01966275,-0.00635635,-0.00569620,-0.07421845,0.00008786,0.00011219,-0.
 00006609,-0.00001180,0.00000296,0.00001320,-0.00000894,-0.00001372,-0.
 00000105,-0.00001778,0.00008540,0.00235388,-0.00000186,0.00000024,0.00
 000025,0.00000125,-0.00000179,0.00000201,0.00000081,0.00000217,-0.0000
 0027,0.00000200,-0.00000230,0.00000214,0.00000553,0.00000068,0.0000002
 6,0.00004932,-0.00001322,-0.00002833,0.00000849,0.00001832,0.00000019,
 0.00000544,0.00001030,-0.00000883,0.00000026,0.00000541,0.00000299,-0.
 00000119,-0.00000083,-0.00000031,-0.00006829,-0.00019307,-0.00001117,-
 0.00001708,-0.00000864,-0.00001655,-0.00000427,-0.00001365,0.00000157,
 0.00002283,0.00016404,0.00003760,-0.00000577,0.00002374,-0.00000014,0.
 00002269,0.00000096,0.00001538,0.00011608,-0.00011947,-0.00144588,-0.0
 0003010,0.00000133,-0.00005634,-0.00000183,-0.00001414,0.00000094,-0.0
 0061179,-0.00005138,0.00203686,0.00016283,0.00015055,-0.00090608,-0.00
 002946,0.00000265,-0.00000375,0.00000746,0.00001511,-0.00000216,0.0029
 1972,0.00029004,0.01134676,-0.00426045,0.00422512,-0.02223729,-0.00038
 914,-0.00012835,0.00277850,-0.00322302,-0.00306307,-0.00276614,-0.0050
 0976,0.00853384,0.01143589,0.05895552,0.00355850,0.10976526,0.01001621
 ,0.00464878,0.00018818,-0.02729248,-0.04693587,-0.00143790,-0.00043753
 ,-0.00044288,-0.00002564,-0.00000725,0.00009956,-0.00001390,-0.0000169
 0,0.00012972,-0.00000113,-0.00512532,-0.00325980,-0.00011113,0.0001033
 2,-0.00010451,0.00002730,0.00000665,0.00006259,-0.00000232,-0.00006379
 ,-0.00010080,-0.00000816,-0.00003910,-0.00005684,-0.00011758,-0.000046
 78,-0.00010219,0.00000230,-0.00031393,0.00018471,0.00024464,-0.0001371
 6,-0.00022960,0.00002943,-0.00011857,-0.00004988,0.00006325,-0.0000306
 4,-0.00011251,-0.00001569,0.00002938,0.00005714,0.00000301,-0.00017820
 ,-0.00117464,0.00046446,0.00001751,0.00011163,0.00018092,0.00008138,0.
 00006057,0.00011185,0.00014153,-0.00090311,-0.00023043,0.00015996,0.00
 006912,-0.00003151,0.00008829,0.00007667,-0.00011759,0.00037064,0.0027
 0309,-0.00048304,-0.00007077,0.00012147,-0.00056888,-0.00011872,-0.000
 29309,-0.00007949,0.00410618,0.00933452,0.00035286,0.00040894,-0.00006
 514,0.00005773,0.00027814,0.00010749,0.00007377,-0.00001383,-0.0002163
 4,0.00001606,-0.02738682,-0.00163291,-0.00295442,-0.01897459,0.0128192
 8,-0.00245696,-0.03467682,0.02923440,-0.00452196,0.04016620,0.01834218
 ,0.00295475,-0.14754042,0.06260286,-0.01227796,-0.40339946,0.01173777,
 -0.03170750,0.82613620,-0.00678006,-0.01201977,-0.00040253,-0.02614046
 ,0.04351569,-0.00343486,0.00012173,0.00008524,-0.00002032,0.00000769,-
 0.00001701,-0.00000692,0.00000468,-0.00001867,0.00001453,0.00433719,0.
 00180619,0.00030983,-0.00003403,0.00002358,-0.00000712,0.00000445,-0.0
 0001470,0.00000365,0.00001641,0.00002121,0.00000157,0.00000676,-0.0000
 0095,0.00002527,0.00000977,0.00001983,0.00000002,0.00012720,-0.0000351
 5,-0.00007272,0.00003914,0.00007181,-0.00000871,0.00002869,0.00000382,
 -0.00001310,0.00000495,0.00002380,0.00000308,-0.00000511,-0.00001163,-
 0.00000116,0.00006645,0.00041878,-0.00006364,0.00000161,-0.00002424,-0
 .00006223,-0.00002303,-0.00001517,-0.00003369,-0.00000841,0.00033206,0
 .00004658,-0.00005831,-0.00001450,0.00001526,-0.00001208,-0.00001077,0
 .00004707,-0.00002979,-0.00113525,0.00009884,0.00003793,-0.00000285,0.
 00018651,0.00003417,0.00008896,0.00002162,-0.00413488,-0.00662616,-0.0
 0017780,-0.00017924,0.00005790,-0.00002847,-0.00007013,-0.00001534,-0.
 00000974,0.00000711,0.00004700,-0.00000301,0.02911944,-0.00406474,0.00
 349223,0.03802657,-0.01600010,0.00346822,-0.00127737,0.00198854,-0.000
 47802,-0.01973670,-0.06363291,-0.00029084,0.12853436,-0.31940701,0.022
 03042,-0.04493539,-0.12233516,-0.00406902,0.30938924,1.13690200,0.0006
 7627,0.00097089,0.00383387,-0.00275955,-0.00664110,0.00397321,-0.00007
 267,-0.00009307,0.00000718,0.00000037,0.00001472,-0.00000414,-0.000004
 63,0.00001886,-0.00000049,-0.00069262,-0.00044896,-0.00064119,0.000012
 31,-0.00001329,0.00000433,0.00000107,0.00000809,-0.00000078,-0.0000079
 3,-0.00001321,-0.00000175,-0.00000476,-0.00000700,-0.00001536,-0.00000
 657,-0.00001313,-0.00000004,-0.00005230,0.00002712,0.00004032,-0.00001
 983,-0.00003455,0.00000359,-0.00001560,-0.00000823,0.00000938,-0.00000
 387,-0.00001514,-0.00000277,0.00000328,0.00000708,0.00000038,0.0000052
 2,-0.00007471,0.00005361,0.00000802,0.00001476,0.00002481,0.00000826,0
 .00000964,0.00000892,0.00000123,-0.00016088,-0.00003829,0.00002179,0.0
 0000443,-0.00000589,0.00000783,0.00001106,-0.00001800,0.00001401,0.000
 35816,0.00037510,-0.00000139,0.00001366,-0.00004693,-0.00001287,-0.000
 02867,-0.00000970,0.00065491,0.00131687,0.00000867,0.00002356,-0.00002
 736,0.00019247,0.00004376,0.00000789,0.00000782,-0.00000350,-0.0000310
 8,0.00000212,-0.00346835,-0.00020535,-0.00402855,-0.00218577,0.0009876
 2,0.00428644,-0.00392290,0.00314952,0.00131086,0.00403530,0.00417989,0
 .01036275,-0.01299992,0.01400920,-0.06151531,-0.03054701,0.00333094,-0
 .06507222,0.06257310,-0.00678102,0.05155913,-0.00158853,-0.00147854,-0
 .00005824,-0.00394281,0.00375446,-0.00104384,-0.00001712,-0.00001590,-
 0.00000136,-0.00000140,0.00000211,0.00000078,-0.00000239,-0.00000112,-
 0.00000302,-0.00018244,-0.00007865,0.00001383,0.00000257,-0.00000328,0
 .00000071,-0.00000004,0.00000236,-0.00000015,-0.00000168,-0.00000317,-
 0.00000024,-0.00000150,-0.00000155,-0.00000341,-0.00000091,-0.00000302
 ,0.00000008,-0.00000682,0.00000444,0.00000659,-0.00000458,-0.00000653,
 0.00000125,-0.00000327,-0.00000117,0.00000141,-0.00000053,-0.00000311,
 -0.00000028,0.00000027,0.00000137,0.00000042,-0.00000560,-0.00003153,0
 .00000818,0.00000136,0.00000419,0.00000632,0.00000206,0.00000154,0.000
 00325,0.00000035,-0.00002156,-0.00000583,0.00000503,0.00000229,-0.0000
 0141,0.00000454,0.00000386,-0.00000354,0.00002275,0.00007996,-0.000019
 93,-0.00000101,0.00000266,-0.00001435,-0.00000319,-0.00000806,-0.00000
 270,0.00029132,0.00031174,0.00006099,0.00000506,-0.00006113,-0.0000142
 9,0.00001048,0.00000072,0.00000282,-0.00000098,-0.00000608,0.,-0.00081
 732,0.00008579,-0.00002996,0.00182108,-0.00076296,0.00051423,0.0015349
 8,-0.00047676,0.00049952,-0.00157257,0.00400454,-0.00077103,0.01189393
 ,0.02061030,0.00006714,-0.01061908,-0.03098745,-0.00118540,-0.21417880
 ,-0.40275131,-0.01054080,0.21645232,0.00004795,0.00047552,-0.00003405,
 0.00131388,0.00024705,0.00048885,0.00000902,-0.00000220,-0.00000375,0.
 00000298,0.00000097,-0.00000389,0.00000063,0.00000598,0.00000735,-0.00
 001738,0.00006345,-0.00002073,-0.00000130,0.00000074,-0.00000031,0.000
 00024,-0.00000034,0.00000019,0.00000040,0.00000019,0.,0.00000010,-0.00
 000220,-0.00000030,-0.00000092,-0.00000005,0.00000032,0.00000466,-0.00
 000115,-0.00000212,0.00000076,0.00000242,-0.00000035,0.00000062,-0.000
 00147,0.00000023,-0.00000070,0.00000003,-0.00000062,0.00000032,0.00000
 034,0.00000041,0.00000131,0.00001829,-0.00000748,-0.00000060,-0.000001
 09,-0.00000225,-0.00000046,-0.00000069,-0.00000029,-0.00000413,0.00001
 180,0.00000104,-0.00000160,-0.00000071,-0.00000003,-0.00000116,-0.0000
 0056,0.00000194,0.00000518,-0.00003020,0.00001708,0.00000192,-0.000000
 34,0.00000818,0.00000078,0.00000331,0.00000007,-0.00008841,-0.00012900
 ,-0.00001923,0.00002037,0.00006514,0.00000940,-0.00000429,0.00000365,0
 .00000031,0.00000077,0.00000123,-0.00000001,0.00077353,0.00097537,-0.0
 0000605,0.00043598,0.00059945,-0.00015385,-0.00114818,0.00162428,-0.00
 030567,0.00427663,-0.00356143,0.00081110,-0.01852183,-0.01561493,-0.00
 124715,0.00854565,0.00753186,0.00094088,-0.40171378,-0.63631145,-0.013
 79605,0.40695055,0.64498755,-0.00006470,-0.00011837,-0.00166466,-0.001
 29256,0.00049374,0.00940645,-0.00001067,-0.00000820,0.00001131,0.00000
 106,-0.00000138,-0.00000340,0.00000341,-0.00000095,-0.00000033,0.00001
 003,0.00000798,-0.00020057,-0.00000070,0.00000063,0.,-0.00000041,0.000
 00003,0.,0.00000057,0.00000027,-0.00000036,-0.00000008,0.00000045,0.00
 000100,0.,0.00000040,0.00000004,0.00000092,0.00000008,-0.00000096,0.00
 000106,0.00000136,-0.00000033,-0.00000051,-0.00000100,0.00000123,-0.00
 000007,0.00000019,-0.00000055,0.00000110,-0.00000046,-0.00000052,0.000
 00087,0.00002401,-0.00000114,-0.00000028,0.00000034,0.00000050,0.00000
 197,-0.00000052,-0.00000055,-0.00000222,-0.00000532,0.00000206,-0.0000
 0116,-0.00000082,-0.00000153,-0.00000096,0.00000004,0.00000042,-0.0000
 0021,-0.00000667,0.00011761,0.00000361,-0.00000150,0.00000652,-0.00000
 009,0.00000161,-0.00000065,0.00007210,0.00000370,-0.00028680,-0.000013
 69,-0.00000939,0.00012911,0.00000301,-0.00000134,0.00000009,-0.0000011
 1,-0.00000022,0.00000041,0.00019200,-0.00017407,-0.00135210,0.00058880
 ,-0.00001084,-0.00466061,0.00051380,-0.00019586,-0.00298862,-0.0010126
 8,0.00049557,0.00471479,0.00105798,0.00296249,0.00515923,-0.00287308,-
 0.00336044,0.00786486,-0.00967522,-0.01358265,0.04961746,0.01247699,0.
 01337153,-0.06643312,-0.00120270,0.00172554,0.00002658,-0.00467258,-0.
 00305637,-0.00164997,-0.00000721,0.00005818,0.00001528,-0.00002479,-0.
 00002584,0.00004124,0.00000387,-0.00005975,-0.00005608,0.00039208,-0.0
 0047227,0.00007298,-0.00000357,0.00000799,-0.00000167,0.00000203,-0.00
 000716,0.00000119,0.00000441,0.00001058,0.00000033,0.00000375,0.000029
 46,0.00001523,0.00001610,0.00001237,-0.00000350,0.00000474,-0.00001266
 ,-0.00001941,0.00001425,0.00001295,-0.00000297,0.00001090,0.00002328,-
 0.00001049,0.00001111,0.00001325,0.00000970,-0.00000247,-0.00000985,-0
 .00000581,0.00000770,-0.00000063,-0.00002080,0.00001086,-0.00000396,0.
 00000411,-0.00000638,0.00000042,-0.00001304,0.00000666,0.00003345,0.00
 002575,-0.00001173,0.00000058,-0.00000029,0.00000526,-0.00000447,0.000
 00408,-0.00010189,-0.00007971,-0.00006318,-0.00000770,-0.00001363,0.00
 000849,0.00000815,0.00001141,0.00000977,0.00186139,0.00292691,0.000907
 71,-0.00006136,-0.00137598,-0.00001569,0.00000281,-0.00005139,-0.00000
 581,-0.00000103,0.00001252,-0.00000114,-0.01028444,0.03007771,-0.00293
 935,0.00005633,0.00006495,0.00006041,0.00162915,0.00022423,0.00068058,
 -0.18432897,0.38553613,-0.04479432,0.01078850,-0.02320168,0.00124309,-
 0.00066818,-0.00029646,0.00000764,-0.00196888,-0.00374325,-0.00077149,
 0.00090362,-0.00088964,0.00002132,0.18761566,0.00020942,0.00010001,0.0
 0000720,-0.00163112,0.00100380,0.00009268,0.00003614,0.00007890,0.0000
 1844,-0.00000058,-0.00000773,0.00000418,0.00000375,-0.00001529,-0.0000
 1307,0.00119982,0.00033671,0.00012767,-0.00000500,0.00000623,-0.000001
 59,-0.00000134,-0.00000459,-0.00000042,0.00000371,0.00000807,0.0000007
 1,0.00000441,0.00001284,0.00001204,0.00000595,0.00000883,-0.00000145,0
 .00000885,-0.00001506,-0.00001440,0.00001012,0.00001206,-0.00000173,0.
 00000964,0.00000793,-0.00000589,0.00000399,0.00000886,0.00000255,-0.00
 000294,-0.00000484,-0.00000139,0.00001453,0.00003961,-0.00002226,-0.00
 000094,-0.00000860,-0.00000564,-0.00000588,-0.00000198,-0.00000371,0.0
 0000132,0.00002559,0.00002474,-0.00000634,-0.00000493,-0.00000274,-0.0
 0000493,-0.00000714,0.00000163,-0.00013070,-0.00010413,0.00000131,-0.0
 0000118,-0.00001318,0.00002581,0.00000833,0.00001538,0.00000684,-0.003
 14660,0.00017720,-0.00064700,0.00037552,0.00025230,0.00008684,-0.00002
 486,-0.00001289,-0.00001383,0.00000220,0.00001987,0.00000016,-0.004998
 09,0.00677362,-0.00058276,0.00003884,0.00005262,-0.00001620,0.00134530
 ,0.00159823,-0.00012038,0.38002891,-0.65998932,0.07542236,0.01869936,-
 0.01676227,0.00309164,-0.00090406,0.00081266,-0.00014987,-0.00455208,-
 0.00368287,-0.00005478,0.00087856,-0.00096098,0.00011568,-0.38746953,0
 .67024883,-0.00007017,0.00026458,-0.00099420,-0.00147648,-0.00039791,0
 .00761607,-0.00004600,0.00001330,0.00005129,0.00000863,0.00000813,-0.0
 0002729,0.00002015,-0.00002421,-0.00000023,0.00016774,-0.00004747,-0.0
 0004102,-0.00000298,0.00000363,0.00000614,-0.00000016,-0.00000093,-0.0
 0000076,0.00000353,0.00000139,-0.00000595,-0.00000208,0.00000769,0.000
 00531,0.00000383,-0.00000023,-0.00000162,-0.00001828,0.00000519,0.0000
 1622,0.00000072,-0.00000754,-0.00000427,-0.00000612,-0.00000358,0.0000
 0848,0.00000053,0.00000327,-0.00000504,0.00000534,-0.00000477,-0.00000
 613,0.00001346,0.00011509,0.00000031,-0.00000245,-0.00000340,-0.000013
 12,0.00000870,-0.00000279,-0.00001662,-0.00001508,-0.00010065,0.000000
 06,0.00000597,0.00000090,-0.00001796,0.00000631,0.00000411,-0.00000481
 ,-0.00009210,-0.00004124,0.00043570,0.00000285,-0.00000876,0.00002786,
 0.00000218,0.00001075,-0.00000229,0.00089588,0.00035164,-0.00515718,-0
 .00003121,-0.00021289,0.00019985,0.00001201,-0.00000154,-0.00001483,-0
 .00000186,0.00000388,0.00000216,-0.00142972,0.00355741,0.00595061,0.00
 004072,0.00002584,-0.00039285,0.00059315,-0.00017265,-0.00409951,-0.04
 523215,0.07652018,0.04302766,-0.00004672,-0.00193878,0.00667220,-0.000
 04668,-0.00027938,-0.00048179,-0.00052502,-0.00021233,0.00571618,0.000
 03469,-0.00005452,0.00056550,0.04721773,-0.07738161,-0.05900634,-0.000
 02108,0.00001075,0.00000580,0.00002346,0.00000545,0.00000155,0.0017998
 8,0.00070854,-0.00028237,-0.00024059,-0.00044272,-0.00042178,-0.000035
 95,0.00046109,-0.00032320,0.00008766,0.00006093,-0.00001263,-0.0039115
 0,0.00474553,-0.00092196,-0.00011010,-0.00005561,-0.00196577,0.0002804
 9,0.00012300,0.00072414,-0.02981352,-0.02852927,-0.15588419,-0.0034668
 2,-0.00021952,-0.01435331,-0.00702785,-0.00463898,-0.02583727,0.000675
 46,-0.00116356,0.00038357,-0.00614552,-0.00097454,0.00365811,-0.000117
 01,0.00000293,-0.00041136,0.00063092,0.00024367,0.00210826,0.00008076,
 -0.00000595,-0.00003938,-0.00005413,-0.00012026,-0.00002737,0.00007234
 ,0.00011464,0.00001910,0.00109767,-0.00153105,0.00050773,0.00039048,0.
 00048607,0.00031854,-0.00024310,-0.00022437,0.00031471,-0.00017601,-0.
 00009697,0.00002364,-0.00056387,0.00010971,0.00011485,0.00016872,-0.00
 006796,-0.00006108,-0.00001096,-0.00007872,-0.00000224,-0.00001627,0.0
 0000494,0.00000251,0.00676894,0.00506982,0.03432880,0.00169632,0.00059
 731,-0.00107842,0.00001671,0.00003470,0.00000213,-0.00000650,0.0000164
 6,0.00000015,0.00001307,0.00000155,0.00000073,-0.00002905,-0.00001271,
 -0.00000281,-0.00000959,0.00003473,-0.00000258,-0.00000857,-0.00002757
 ,-0.00000193,0.00002623,-0.00000599,0.00000405,0.00000086,0.00000013,-
 0.00000018,-0.00000544,-0.00000253,0.00000112,0.03818346,-0.00001385,0
 .00002335,-0.00001111,0.00001460,0.00001163,0.00000387,0.00042511,0.00
 053757,0.00080029,-0.00020803,-0.00000663,-0.00006423,0.00003705,0.000
 06906,-0.00017767,0.00009931,0.00009797,-0.00009514,0.00372284,-0.0037
 0779,0.00092003,0.00043360,0.00055081,0.00146867,0.00018732,0.00016346
 ,0.00009204,-0.02788244,-0.01453487,-0.10211716,-0.00774074,-0.0030245
 8,-0.03818868,0.00642768,0.00208813,0.02714557,-0.00084744,0.00133859,
 -0.00078545,-0.00031025,0.00035764,0.00000704,0.00011578,0.00033945,0.
 00057040,0.00006420,0.00050040,-0.00006372,0.00001203,0.00014558,-0.00
 007731,-0.00001493,0.00004502,-0.00001964,-0.00001988,-0.00006645,-0.0
 0004536,-0.00038707,0.00180410,0.00095251,-0.00007000,-0.00052746,-0.0
 0042271,0.00012506,0.00031423,-0.00041684,-0.00001940,-0.00036800,0.00
 013130,0.00012334,-0.00014811,-0.00036820,-0.00007053,0.00005793,-0.00
 008115,-0.00011979,-0.00012694,-0.00001920,-0.00001209,0.00000413,0.00
 001607,0.00037308,-0.00115189,0.00486876,0.00016319,0.00010060,-0.0005
 2365,0.00005873,0.00006726,0.00000466,-0.00000996,0.00002868,-0.000001
 16,0.00003460,-0.00000015,0.00000329,-0.00006911,-0.00002411,-0.000006
 62,-0.00002250,0.00007370,-0.00000500,-0.00001270,-0.00005104,-0.00000
 128,0.00005316,-0.00001000,0.00000718,0.00000139,0.00000018,-0.0000001
 2,-0.00000768,-0.00000433,0.00000022,0.02536632,0.01503289,-0.00000055
 ,0.00000549,0.00002145,0.00000142,0.00000364,-0.00000918,-0.00131132,-
 0.00053338,0.00099734,0.00039135,0.00074674,0.00018874,0.00012966,-0.0
 0025941,0.00037796,0.00009020,0.00000009,0.00013857,-0.00127541,0.0016
 7892,0.00123492,-0.00004738,-0.00014089,-0.00054318,0.00009941,-0.0000
 9703,0.00007957,-0.15690344,-0.10541459,-0.63033861,0.00128115,0.00350
 335,-0.00071172,-0.00054141,-0.00223956,-0.00615830,-0.00015723,0.0000
 1878,0.00069416,0.00448282,0.00068818,-0.00060330,-0.00006557,0.000034
 60,0.00035056,-0.00044496,-0.00008664,-0.00124236,-0.00006341,-0.00009
 784,-0.00001131,0.00001297,0.00004037,0.00005221,0.00002322,-0.0000037
 9,0.00004521,0.00055778,-0.00105220,0.00051857,0.00019711,0.00062805,0
 .00013416,-0.00005272,-0.00004424,0.00035111,-0.00000575,0.00012249,-0
 .00030102,0.00008448,-0.00042886,0.00074467,-0.00004650,-0.00004011,0.
 00003847,-0.00008740,0.00000384,-0.00002676,0.00001260,-0.00001707,-0.
 00003991,-0.00533730,-0.00319989,-0.01684266,-0.00016713,-0.00034824,0
 .00098459,0.00003868,0.00002152,0.00002591,-0.00000126,0.00000407,0.00
 000179,0.00001148,-0.00000193,0.00000344,-0.00002808,-0.00000304,0.000
 00076,-0.00000388,0.00002911,0.00000498,-0.00000619,-0.00001324,0.0000
 0154,0.00001981,-0.00000481,0.00000282,0.00000056,-0.00000020,-0.00000
 177,0.00000182,-0.00000175,-0.00000778,0.15911034,0.10649946,0.6498443
 7\\-0.06428448,0.00606191,-0.00568047,0.10563532,-0.01528579,0.0085523
 6,0.13703753,0.03787387,0.04642287,-0.03145853,-0.02476463,-0.11939640
 ,-0.10167893,-0.00757291,0.07289689,0.01113097,0.01431713,0.00354764,-
 0.13346655,-0.02888316,-0.04729374,0.08552513,-0.08501048,0.03751540,0
 .04858881,0.11536630,0.01077938,-0.01652634,-0.09716433,0.10413205,0.0
 4592655,0.11718789,0.01284230,-0.08911058,-0.01037214,0.06482029,0.091
 18077,0.00864932,-0.06408574,0.05783686,-0.10874025,-0.07996671,0.0466
 4656,0.11808313,0.00939200,-0.10237774,-0.01021970,0.07204668,0.021866
 03,0.09364310,-0.11233486,0.08529454,-0.08558276,0.03875661,-0.1045035
 4,-0.01057814,0.06945881,-0.04873065,0.10422243,0.08801778,-0.03524928
 ,-0.02250243,-0.11824056,0.08429435,-0.08518426,0.03417556,-0.01684570
 ,-0.02377733,-0.00551541,-0.02902199,-0.02022911,-0.10772382,0.0279989
 1,0.02132234,0.10863968,0.12602512,-0.13349149,0.01393445,-0.12457317,
 0.14041022,-0.01595044,0.07147393,-0.07362918,0.03778000,-0.07975200,0
 .07441464,-0.03484143,-0.01613684,0.02117616,-0.00117533,-0.00018455,-
 0.00043775,0.00109773,-0.00461277,-0.00121323,-0.00056216,0.09330959,-
 0.14827549,0.01816245,-0.00722159,0.00430558,-0.00066771,-0.01823599,-
 0.00789621,-0.00115143,0.09520041,0.13873330,0.00380296,-0.09294639,-0
 .15479083,-0.00455030,-0.08869390,0.15984576,-0.01636980,-0.02935985,-
 0.02001148,-0.12126760\\\@
 The archive entry for this job was punched.

 Writing a WFNX file to "SOWTUW_Complex_3_Ligand_0_ON_Cu_oriented.wfx"


 KNOWING HOW CONTENTED, FREE, AND JOYFUL IS LIFE IN
 THE REALMS OF SCIENCE, ONE FERVENTLY WISHES THAT
 MANY WOULD ENTER HER PORTALS.
   --  DMITRI IVANOVICH MENDELEEV
 "FIRST PRINCIPLES OF CHEMISTRY", LONGMANS, GREEN,
 AND CO.  LONDON, 1891
 Job cpu time:       0 days  1 hours 24 minutes 21.6 seconds.
 Elapsed time:       0 days  1 hours 24 minutes 42.7 seconds.
 File lengths (MBytes):  RWF=   1020 Int=      0 D2E=      0 Chk=     16 Scr=      8
 Normal termination of Gaussian 16 at Mon Mar  6 11:46:19 2023.
