 Entering Gaussian System, Link 0=g16
 Initial command:
 /ssoft/spack/external/gaussian/g16-C.01/avx2/g16/l1.exe "/scratch/lcmd/2387821/Gau-3435669.inp" -scrdir="/scratch/lcmd/2387821/"
 Entering Link 1 = /ssoft/spack/external/gaussian/g16-C.01/avx2/g16/l1.exe PID=   3435676.
  
 Copyright (c) 1988-2019, Gaussian, Inc.  All Rights Reserved.
  
 This is part of the Gaussian(R) 16 program.  It is based on
 the Gaussian(R) 09 system (copyright 2009, Gaussian, Inc.),
 the Gaussian(R) 03 system (copyright 2003, Gaussian, Inc.),
 the Gaussian(R) 98 system (copyright 1998, Gaussian, Inc.),
 the Gaussian(R) 94 system (copyright 1995, Gaussian, Inc.),
 the Gaussian 92(TM) system (copyright 1992, Gaussian, Inc.),
 the Gaussian 90(TM) system (copyright 1990, Gaussian, Inc.),
 the Gaussian 88(TM) system (copyright 1988, Gaussian, Inc.),
 the Gaussian 86(TM) system (copyright 1986, Carnegie Mellon
 University), and the Gaussian 82(TM) system (copyright 1983,
 Carnegie Mellon University). Gaussian is a federally registered
 trademark of Gaussian, Inc.
  
 This software contains proprietary and confidential information,
 including trade secrets, belonging to Gaussian, Inc.
  
 This software is provided under written license and may be
 used, copied, transmitted, or stored only in accord with that
 written license.
  
 The following legend is applicable only to US Government
 contracts under FAR:
  
                    RESTRICTED RIGHTS LEGEND
  
 Use, reproduction and disclosure by the US Government is
 subject to restrictions as set forth in subparagraphs (a)
 and (c) of the Commercial Computer Software - Restricted
 Rights clause in FAR 52.227-19.
  
 Gaussian, Inc.
 340 Quinnipiac St., Bldg. 40, Wallingford CT 06492
  
  
 ---------------------------------------------------------------
 Warning -- This program may not be used in any manner that
 competes with the business of Gaussian, Inc. or will provide
 assistance to any competitor of Gaussian, Inc.  The licensee
 of this program is prohibited from giving any competitor of
 Gaussian, Inc. access to this program.  By using this program,
 the user acknowledges that Gaussian, Inc. is engaged in the
 business of creating and licensing software in the field of
 computational chemistry and represents and warrants to the
 licensee that it is not a competitor of Gaussian, Inc. and that
 it will not use this program in any manner prohibited above.
 ---------------------------------------------------------------
  

 Cite this work as:
 Gaussian 16, Revision C.01,
 M. J. Frisch, G. W. Trucks, H. B. Schlegel, G. E. Scuseria, 
 M. A. Robb, J. R. Cheeseman, G. Scalmani, V. Barone, 
 G. A. Petersson, H. Nakatsuji, X. Li, M. Caricato, A. V. Marenich, 
 J. Bloino, B. G. Janesko, R. Gomperts, B. Mennucci, H. P. Hratchian, 
 J. V. Ortiz, A. F. Izmaylov, J. L. Sonnenberg, D. Williams-Young, 
 F. Ding, F. Lipparini, F. Egidi, J. Goings, B. Peng, A. Petrone, 
 T. Henderson, D. Ranasinghe, V. G. Zakrzewski, J. Gao, N. Rega, 
 G. Zheng, W. Liang, M. Hada, M. Ehara, K. Toyota, R. Fukuda, 
 J. Hasegawa, M. Ishida, T. Nakajima, Y. Honda, O. Kitao, H. Nakai, 
 T. Vreven, K. Throssell, J. A. Montgomery, Jr., J. E. Peralta, 
 F. Ogliaro, M. J. Bearpark, J. J. Heyd, E. N. Brothers, K. N. Kudin, 
 V. N. Staroverov, T. A. Keith, R. Kobayashi, J. Normand, 
 K. Raghavachari, A. P. Rendell, J. C. Burant, S. S. Iyengar, 
 J. Tomasi, M. Cossi, J. M. Millam, M. Klene, C. Adamo, R. Cammi, 
 J. W. Ochterski, R. L. Martin, K. Morokuma, O. Farkas, 
 J. B. Foresman, and D. J. Fox, Gaussian, Inc., Wallingford CT, 2019.
 
 ******************************************
 Gaussian 16:  ES64L-G16RevC.01  3-Jul-2019
                 6-Mar-2023 
 ******************************************
 %nprocshared=1
 Will use up to    1 processors via shared memory.
 %mem=8000MB
 %chk=SOWVEI_Complex_1_Ligand_0_ON_Cu_oriented.chk
 ----------------------------------------------------------------------
 #p pop=(regular,nbo,savenbos) freq=noraman def2svp empiricaldispersion
 =gd3bj output=wfx pbe1pbe
 ----------------------------------------------------------------------
 1/10=4,30=1,38=1/1,3;
 2/12=2,17=6,18=5,40=1/2;
 3/5=43,7=101,11=2,25=1,30=1,71=2,74=-13,124=41,140=1/1,2,3;
 4//1;
 5/5=2,38=5,98=1/2;
 8/6=4,10=90,11=11/1;
 11/6=1,8=1,9=11,15=111,16=1/1,2,10;
 10/6=1/2;
 6/28=1,40=1,73=1/1,7;
 7/8=1,10=1,25=1/1,2,3,16;
 1/10=4,30=1/3;
 99/6=200/99;
 Leave Link    1 at Mon Mar  6 10:21:36 2023, MaxMem=  1048576000 cpu:               0.0 elap:               0.2
 (Enter /ssoft/spack/external/gaussian/g16-C.01/avx2/g16/l101.exe)
 ----------------------------------------
 SOWVEI_Complex_1_Ligand_0_ON_Cu_oriented
 ----------------------------------------
 Symbolic Z-matrix:
 Charge = -1 Multiplicity = 1
 O                     1.1327   -1.52752   0. 
 N                    -1.70639  -0.99726   0. 
 C                    -0.59193  -3.15414  -0.52338 
 C                     0.78054  -2.72562  -0.38009 
 C                    -1.72156  -2.25069  -0.27108 
 H                    -2.58285  -2.64934  -0.31404 
 C                    -3.02507  -0.28851   0.15669 
 C                    -2.78875   1.04382   0.86472 
 H                    -2.41376   0.8809    1.76582 
 H                    -2.13615   1.58373   0.35174 
 C                    -4.67834   2.03034  -0.40457 
 H                    -5.51424   2.55608  -0.3421 
 H                    -4.02903   2.55175  -0.94015 
 C                    -3.65276  -0.10721  -1.22215 
 H                    -3.01741   0.36397  -1.81785 
 H                    -3.84689  -0.99329  -1.61958 
 C                    -4.11964   1.81645   0.98702 
 H                    -3.94899   2.70386   1.41682 
 C                    -4.00715  -1.1072    1.04663 
 H                    -4.17687  -1.99152   0.63772 
 H                    -3.61213  -1.24842   1.94405 
 C                    -5.07782   1.02114   1.8434 
 H                    -4.6869    0.87682   2.74335 
 C                    -5.34347  -0.31393   1.17402 
 C                    -4.96581   0.71131  -1.11206 
 H                    -5.3492    0.87857  -2.02045 
 C                    -5.94895  -0.10455  -0.25641 
 H                    -6.11518  -0.98178  -0.68316 
 I                    -0.39013  -7.31908  -1.74897 
 C                     1.74102  -3.7195   -0.63176 
 C                     1.42735  -4.99672  -1.06417 
 H                     2.11551  -5.61945  -1.26477 
 C                     0.09476  -5.35526  -1.19977 
 C                    -0.90848  -4.45112  -0.92212 
 H                    -1.8184   -4.71262  -1.00432 
 I                     3.76155  -3.16029  -0.40702 
 H                    -5.98645  -0.83986   1.73163 
 H                    -6.81119   0.37557  -0.18744 
 H                    -5.92673   1.52048   1.95098 
 
 ITRead=  0  0  0  0  0  0  0  0  0  0  0  0  0  0  0  0  0  0  0  0
 ITRead=  0  0  0  0  0  0  0  0  0  0  0  0  0  0  0  0  0  0  0
 MicOpt= -1 -1 -1 -1 -1 -1 -1 -1 -1 -1 -1 -1 -1 -1 -1 -1 -1 -1 -1 -1
 MicOpt= -1 -1 -1 -1 -1 -1 -1 -1 -1 -1 -1 -1 -1 -1 -1 -1 -1 -1 -1
 NAtoms=     39 NQM=       39 NQMF=       0 NMMI=      0 NMMIF=      0
                NMic=       0 NMicF=      0.
                    Isotopes and Nuclear Properties:
 (Nuclear quadrupole moments (NQMom) in fm**2, nuclear magnetic moments (NMagM)
  in nuclear magnetons)

  Atom         1           2           3           4           5           6           7           8           9          10
 IAtWgt=          16          14          12          12          12           1          12          12           1           1
 AtmWgt=  15.9949146  14.0030740  12.0000000  12.0000000  12.0000000   1.0078250  12.0000000  12.0000000   1.0078250   1.0078250
 NucSpn=           0           2           0           0           0           1           0           0           1           1
 AtZEff=  -0.0000000  -0.0000000  -0.0000000  -0.0000000  -0.0000000  -0.0000000  -0.0000000  -0.0000000  -0.0000000  -0.0000000
 NQMom=    0.0000000   2.0440000   0.0000000   0.0000000   0.0000000   0.0000000   0.0000000   0.0000000   0.0000000   0.0000000
 NMagM=    0.0000000   0.4037610   0.0000000   0.0000000   0.0000000   2.7928460   0.0000000   0.0000000   2.7928460   2.7928460
 AtZNuc=   8.0000000   7.0000000   6.0000000   6.0000000   6.0000000   1.0000000   6.0000000   6.0000000   1.0000000   1.0000000

  Atom        11          12          13          14          15          16          17          18          19          20
 IAtWgt=          12           1           1          12           1           1          12           1          12           1
 AtmWgt=  12.0000000   1.0078250   1.0078250  12.0000000   1.0078250   1.0078250  12.0000000   1.0078250  12.0000000   1.0078250
 NucSpn=           0           1           1           0           1           1           0           1           0           1
 AtZEff=  -0.0000000  -0.0000000  -0.0000000  -0.0000000  -0.0000000  -0.0000000  -0.0000000  -0.0000000  -0.0000000  -0.0000000
 NQMom=    0.0000000   0.0000000   0.0000000   0.0000000   0.0000000   0.0000000   0.0000000   0.0000000   0.0000000   0.0000000
 NMagM=    0.0000000   2.7928460   2.7928460   0.0000000   2.7928460   2.7928460   0.0000000   2.7928460   0.0000000   2.7928460
 AtZNuc=   6.0000000   1.0000000   1.0000000   6.0000000   1.0000000   1.0000000   6.0000000   1.0000000   6.0000000   1.0000000

  Atom        21          22          23          24          25          26          27          28          29          30
 IAtWgt=           1          12           1          12          12           1          12           1         127          12
 AtmWgt=   1.0078250  12.0000000   1.0078250  12.0000000  12.0000000   1.0078250  12.0000000   1.0078250 126.9004000  12.0000000
 NucSpn=           1           0           1           0           0           1           0           1           5           0
 AtZEff=  -0.0000000  -0.0000000  -0.0000000  -0.0000000  -0.0000000  -0.0000000  -0.0000000  -0.0000000  -0.0000000  -0.0000000
 NQMom=    0.0000000   0.0000000   0.0000000   0.0000000   0.0000000   0.0000000   0.0000000   0.0000000 -71.0000000   0.0000000
 NMagM=    2.7928460   0.0000000   2.7928460   0.0000000   0.0000000   2.7928460   0.0000000   2.7928460   2.8132800   0.0000000
 AtZNuc=   1.0000000   6.0000000   1.0000000   6.0000000   6.0000000   1.0000000   6.0000000   1.0000000  53.0000000   6.0000000

  Atom        31          32          33          34          35          36          37          38          39
 IAtWgt=          12           1          12          12           1         127           1           1           1
 AtmWgt=  12.0000000   1.0078250  12.0000000  12.0000000   1.0078250 126.9004000   1.0078250   1.0078250   1.0078250
 NucSpn=           0           1           0           0           1           5           1           1           1
 AtZEff=  -0.0000000  -0.0000000  -0.0000000  -0.0000000  -0.0000000  -0.0000000  -0.0000000  -0.0000000  -0.0000000
 NQMom=    0.0000000   0.0000000   0.0000000   0.0000000   0.0000000 -71.0000000   0.0000000   0.0000000   0.0000000
 NMagM=    0.0000000   2.7928460   0.0000000   0.0000000   2.7928460   2.8132800   2.7928460   2.7928460   2.7928460
 AtZNuc=   6.0000000   1.0000000   6.0000000   6.0000000   1.0000000  53.0000000   1.0000000   1.0000000   1.0000000
 Leave Link  101 at Mon Mar  6 10:21:36 2023, MaxMem=  1048576000 cpu:               0.1 elap:               0.1
 (Enter /ssoft/spack/external/gaussian/g16-C.01/avx2/g16/l103.exe)

 GradGradGradGradGradGradGradGradGradGradGradGradGradGradGradGradGradGrad
 Berny optimization.
 Initialization pass.
 Trust Radius=3.00D-01 FncErr=1.00D-07 GrdErr=1.00D-07 EigMax=2.50D+02 EigMin=1.00D-04
 Number of steps in this run=      2 maximum allowed number of steps=      2.
 GradGradGradGradGradGradGradGradGradGradGradGradGradGradGradGradGradGrad

 Leave Link  103 at Mon Mar  6 10:21:36 2023, MaxMem=  1048576000 cpu:               0.1 elap:               0.0
 (Enter /ssoft/spack/external/gaussian/g16-C.01/avx2/g16/l202.exe)
                          Input orientation:                          
 ---------------------------------------------------------------------
 Center     Atomic      Atomic             Coordinates (Angstroms)
 Number     Number       Type             X           Y           Z
 ---------------------------------------------------------------------
      1          8           0        1.132704   -1.527516    0.000000
      2          7           0       -1.706388   -0.997259    0.000000
      3          6           0       -0.591925   -3.154143   -0.523382
      4          6           0        0.780537   -2.725615   -0.380087
      5          6           0       -1.721562   -2.250689   -0.271077
      6          1           0       -2.582853   -2.649342   -0.314035
      7          6           0       -3.025068   -0.288509    0.156693
      8          6           0       -2.788751    1.043816    0.864718
      9          1           0       -2.413763    0.880901    1.765823
     10          1           0       -2.136148    1.583733    0.351739
     11          6           0       -4.678340    2.030342   -0.404566
     12          1           0       -5.514242    2.556084   -0.342104
     13          1           0       -4.029028    2.551745   -0.940150
     14          6           0       -3.652760   -0.107207   -1.222153
     15          1           0       -3.017413    0.363966   -1.817852
     16          1           0       -3.846887   -0.993295   -1.619579
     17          6           0       -4.119635    1.816446    0.987024
     18          1           0       -3.948995    2.703865    1.416824
     19          6           0       -4.007154   -1.107205    1.046633
     20          1           0       -4.176867   -1.991524    0.637717
     21          1           0       -3.612125   -1.248417    1.944048
     22          6           0       -5.077818    1.021137    1.843396
     23          1           0       -4.686898    0.876824    2.743346
     24          6           0       -5.343470   -0.313932    1.174022
     25          6           0       -4.965809    0.711313   -1.112056
     26          1           0       -5.349196    0.878571   -2.020452
     27          6           0       -5.948948   -0.104546   -0.256412
     28          1           0       -6.115182   -0.981778   -0.683164
     29         53           0       -0.390129   -7.319084   -1.748970
     30          6           0        1.741017   -3.719502   -0.631760
     31          6           0        1.427355   -4.996720   -1.064173
     32          1           0        2.115512   -5.619449   -1.264766
     33          6           0        0.094757   -5.355263   -1.199765
     34          6           0       -0.908484   -4.451118   -0.922124
     35          1           0       -1.818404   -4.712618   -1.004321
     36         53           0        3.761550   -3.160287   -0.407020
     37          1           0       -5.986454   -0.839855    1.731627
     38          1           0       -6.811186    0.375572   -0.187441
     39          1           0       -5.926729    1.520477    1.950983
 ---------------------------------------------------------------------
                    Distance matrix (angstroms):
                    1          2          3          4          5
     1  O    0.000000
     2  N    2.888186   0.000000
     3  C    2.427795   2.483567   0.000000
     4  C    1.305346   3.052291   1.444930   0.000000
     5  C    2.956907   1.282497   1.468321   2.549106   0.000000
     6  H    3.893902   1.896361   2.064569   3.364904   0.950048
     7  C    4.341285   1.505256   3.820280   4.550851   2.394214
     8  C    4.768364   2.466827   4.937178   5.338349   3.644542
     9  H    4.636381   2.673199   4.984087   5.274035   3.799336
    10  H    4.526476   2.640064   5.059440   5.254818   3.906735
    11  C    6.825706   4.261754   6.602408   7.240102   5.204573
    12  H    7.808631   5.219486   7.541137   8.217179   6.123278
    13  H    6.645881   4.344419   6.674169   7.162131   5.369863
    14  C    5.139222   2.464592   4.375021   5.217209   3.037859
    15  H    4.909762   2.622271   4.464945   5.102657   3.302751
    16  H    5.263531   2.684173   4.057794   5.094147   2.813628
    17  C    6.304234   3.836002   6.279555   6.819898   4.886221
    18  H    6.762813   4.553569   7.024996   7.421362   5.688415
    19  C    5.262152   2.530030   4.280034   5.251359   2.875386
    20  H    5.367824   2.738341   3.943557   5.113773   2.630893
    21  H    5.135234   2.733905   4.340693   5.184516   3.079863
    22  C    6.961633   4.340343   6.569463   7.300847   5.142013
    23  H    6.868375   4.463359   6.609766   7.254396   5.259401
    24  C    6.692679   3.882477   5.790091   6.762761   4.354027
    25  C    6.590970   3.844439   5.866783   6.735633   4.472789
    26  H    7.203229   4.568481   6.413706   7.297574   5.100226
    27  C    7.227752   4.343040   6.170009   7.222969   4.740985
    28  H    7.300438   4.461436   5.937260   7.119253   4.591715
    29  I    6.238604   6.690060   4.346208   4.933990   5.444770
    30  C    2.360925   4.437829   2.402914   1.404874   3.778486
    31  C    3.640695   5.191194   2.786582   2.458509   4.252690
    32  H    4.394253   6.129535   3.735988   3.307429   5.201837
    33  C    4.143479   4.865774   2.402906   2.838523   3.714816
    34  C    3.682962   3.662800   1.393323   2.474663   2.434512
    35  H    4.456744   3.850337   2.040685   3.330516   2.570626
    36  I    3.121288   5.894294   4.355034   3.012657   5.559709
    37  H    7.358928   4.619769   6.288237   7.335366   4.918392
    38  H    8.170818   5.289495   7.158976   8.202971   5.727871
    39  H    7.932981   5.287401   7.512302   8.273488   6.069816
                    6          7          8          9         10
     6  H    0.000000
     7  C    2.447584   0.000000
     8  C    3.882173   1.527166   0.000000
     9  H    4.100855   2.080988   0.989519   0.000000
    10  H    4.308332   2.081710   0.990227   1.603333   0.000000
    11  C    5.128226   2.902653   2.480900   3.340676   2.689647
    12  H    5.974135   3.812676   3.342406   4.106406   3.583072
    13  H    5.434588   3.205940   2.658889   3.566945   2.487775
    14  C    2.903761   1.525807   2.535034   3.382229   2.763427
    15  H    3.395634   2.079570   2.776808   3.670741   2.640376
    16  H    2.458601   2.080205   3.382485   4.126427   3.667942
    17  C    4.898746   2.513636   1.543751   2.095656   2.095702
    18  H    5.789563   3.375778   2.099226   2.408721   2.382334
    19  C    2.501647   1.557802   2.478807   2.647393   3.350327
    20  H    1.969629   2.111465   3.345397   3.554150   4.126595
    21  H    2.849725   2.112036   2.664062   2.449863   3.568618
    22  C    4.934752   2.962081   2.489609   2.668872   3.345890
    23  H    5.119417   3.287926   2.675835   2.474412   3.567329
    24  C    3.910174   2.531915   2.909594   3.218857   3.816307
    25  C    4.196345   2.525044   2.959354   3.850180   3.303149
    26  H    4.796945   3.391698   3.861009   4.790893   4.055641
    27  C    4.220178   2.958644   3.544364   4.190236   4.213975
    28  H    3.923566   3.276398   4.190956   4.813275   4.846193
    29  I    5.354771   7.746189   9.084209   9.148148   9.312450
    30  C    4.465651   5.925279   6.741472   6.646375   6.642589
    31  C    4.706874   6.594076   7.614739   7.570303   7.616149
    32  H    5.639155   7.540890   8.543161   8.482532   8.519128
    33  C    3.908468   6.102891   7.316073   7.346912   7.452099
    34  C    2.533709   4.792816   6.076389   6.158031   6.288825
    35  H    2.306076   4.730404   6.129552   6.270215   6.448558
    36  I    6.365623   7.390741   7.886586   7.693304   7.606858
    37  H    4.363883   3.399148   3.811174   3.965639   4.754233
    38  H    5.200474   3.859290   4.211124   4.838174   4.858637
    39  H    5.805101   3.861547   3.354710   3.575510   4.114619
                   11         12         13         14         15
    11  C    0.000000
    12  H    0.989464   0.000000
    13  H    0.990109   1.601105   0.000000
    14  C    2.507863   3.366410   2.700209   0.000000
    15  H    2.744606   3.635570   2.565171   0.990215   0.000000
    16  H    3.363027   4.124331   3.614154   0.990346   1.602965
    17  C    1.514737   2.063631   2.064674   2.966290   3.345432
    18  H    2.074377   2.359166   2.363234   3.867050   4.099524
    19  C    3.521459   4.197569   4.163616   2.504592   3.368858
    20  H    4.184882   4.840388   4.811737   2.698973   3.594785
    21  H    4.171698   4.828951   4.788908   3.365835   4.135862
    22  C    2.496280   2.706092   3.345273   3.563923   4.252279
    23  H    3.352615   3.608935   4.099548   4.214611   4.884130
    24  C    2.903440   3.250352   3.795996   2.939879   3.849856
    25  C    1.524145   2.072869   2.072269   1.551190   2.101200
    26  H    2.094687   2.378685   2.389437   2.118238   2.396471
    27  C    2.488804   2.697269   3.348055   2.491012   3.354325
    28  H    3.348881   3.604708   4.111431   2.668127   3.562964
    29  I   10.373426  11.214043  10.551259   7.933063   8.120138
    30  C    8.620932   9.597170   8.527430   6.518441   6.381550
    31  C    9.332428  10.283579   9.314872   7.052650   7.004353
    32  H   10.267214  11.220686  10.228840   7.978697   7.902790
    33  C    8.829607   9.735803   8.921535   6.448758   6.540430
    34  C    7.515917   8.405374   7.666695   5.146906   5.332443
    35  H    7.348908   8.181184   7.593546   4.962069   5.279314
    36  I    9.908299  10.895936   9.674950   8.059636   7.769501
    37  H    3.809530   4.006962   4.740555   3.835064   4.781546
    38  H    2.708217   2.541774   3.611468   3.358475   4.129296
    39  H    2.714231   2.549681   3.608799   4.229549   4.899566
                   16         17         18         19         20
    16  H    0.000000
    17  C    3.842318   0.000000
    18  H    4.785306   1.000679   0.000000
    19  C    2.673452   2.926420   3.829448   0.000000
    20  H    2.490127   3.824385   4.765040   0.988957   0.000000
    21  H    3.580452   3.250668   4.001497   0.990627   1.605504
    22  C    4.191101   1.511292   2.070695   2.512169   3.367715
    23  H    4.820589   2.071072   2.375340   2.697639   3.594611
    24  C    3.241219   2.463990   3.333259   1.559247   2.112557
    25  C    2.101250   2.518624   3.376301   2.980934   3.315036
    26  H    2.433416   3.381766   4.136077   3.892479   4.083829
    27  C    2.658338   2.929629   3.832323   2.544370   2.738690
    28  H    2.454010   3.821229   4.763012   2.729782   2.553698
    29  I    7.209822  10.239765  11.097175   7.712699   6.958345
    30  C    6.295448   8.222799   8.822277   6.533190   6.294349
    31  C    6.644812   9.021959   9.713881   7.008404   6.582928
    32  H    7.554959   9.961935  10.641745   7.949211   7.508350
    33  C    5.894028   8.600963   9.388717   6.318068   5.739151
    34  C    4.590991   7.296485   8.118446   4.965835   4.377789
    35  H    4.280964   7.203457   8.087371   4.689994   3.957650
    36  I    8.003404   9.424665   9.857342   8.165844   8.091721
    37  H    3.978928   3.330972   4.099792   2.111473   2.407817
    38  H    3.565372   3.271075   4.023276   3.403551   3.636435
    39  H    4.836704   2.069396   2.365833   3.377474   4.137733
                   21         22         23         24         25
    21  H    0.000000
    22  C    2.703565   0.000000
    23  H    2.512104   0.991743   0.000000
    24  C    2.112761   1.516919   2.076479   0.000000
    25  C    3.874632   2.973758   3.869019   2.533754   0.000000
    26  H    4.822733   3.875990   4.809617   3.409804   1.000072
    27  C    3.407523   2.536775   3.399177   1.567350   1.537634
    28  H    3.638493   3.386931   4.151550   2.119126   2.090829
    29  I    7.802093  10.219532  10.286693   9.063754   9.264437
    30  C    6.434064   8.665828   8.592767   8.065278   8.052597
    31  C    6.963873   9.326620   9.294074   8.531242   8.570676
    32  H    7.887220  10.271420  10.224447   9.472730   9.499841
    33  C    6.363232   8.756418   8.789270   7.786154   7.900656
    34  C    5.077590   7.414650   7.489930   6.417105   6.568764
    35  H    4.889888   7.183956   7.315404   6.043154   6.271905
    36  I    7.972067  10.034098   9.879239   9.669686   9.573565
    37  H    2.418570   2.073983   2.378951   1.000473   3.396230
    38  H    4.173077   2.746929   3.654225   2.117353   2.091185
    39  H    3.608907   0.990739   1.606022   2.075793   3.310638
                   26         27         28         29         30
    26  H    0.000000
    27  C    2.106670   0.000000
    28  H    2.415776   0.989590   0.000000
    29  I    9.584759   9.229181   8.606604   0.000000
    30  C    8.563986   8.505549   8.319713   4.329772   0.000000
    31  C    9.019710   8.887953   8.553057   3.027469   1.384431
    32  H    9.925583   9.821734   9.465230   3.066178   2.037337
    33  C    8.316901   8.061409   7.612988   2.096028   2.389250
    34  C    7.023663   6.688957   6.261240   3.029455   2.763951
    35  H    6.690322   6.233386   5.699527   3.064007   3.714102
    36  I   10.095604  10.181061  10.117904   6.027674   2.108503
    37  H    4.175785   2.119997   2.422381   9.241960   8.578564
    38  H    2.397989   0.989305   1.603921  10.142785   9.492482
    39  H    4.064220   2.741129   3.638066  11.067133   9.639619
                   31         32         33         34         35
    31  C    0.000000
    32  H    0.949521   0.000000
    33  C    1.386635   2.038988   0.000000
    34  C    2.402915   3.259901   1.378787   0.000000
    35  H    3.258718   4.045475   2.027652   0.950312   0.000000
    36  I    3.041842   3.081014   4.346462   4.872452   5.822575
    37  H    8.947658   9.872423   8.121767   6.772695   6.313188
    38  H    9.874398  10.806796   9.031020   7.660195   7.175294
    39  H   10.278501  11.224849   9.667539   8.312489   8.028925
                   36         37         38         39
    36  I    0.000000
    37  H   10.246062   0.000000
    38  H   11.150482   2.416665   0.000000
    39  H   11.015102   2.371256   2.581846   0.000000
 Stoichiometry    C17H18I2NO(1-)
 Framework group  C1[X(C17H18I2NO)]
 Deg. of freedom   111
 Full point group                 C1      NOp   1
 Largest Abelian subgroup         C1      NOp   1
 Largest concise Abelian subgroup C1      NOp   1
                         Standard orientation:                         
 ---------------------------------------------------------------------
 Center     Atomic      Atomic             Coordinates (Angstroms)
 Number     Number       Type             X           Y           Z
 ---------------------------------------------------------------------
      1          8           0        0.198202   -2.310457   -0.033806
      2          7           0       -2.186504   -0.681532    0.003602
      3          6           0        0.164679    0.117086   -0.043829
      4          6           0        0.826939   -1.166728   -0.011358
      5          6           0       -1.298057    0.239499   -0.081029
      6          1           0       -1.633087    1.122740   -0.182183
      7          6           0       -3.635365   -0.273415   -0.002464
      8          6           0       -4.492772   -1.499808   -0.307503
      9          1           0       -4.264656   -1.851881   -1.203692
     10          1           0       -4.310098   -2.209356    0.358621
     11          6           0       -6.300190   -0.563850    1.110977
     12          1           0       -7.264578   -0.348841    1.163565
     13          1           0       -6.103480   -1.253517    1.793604
     14          6           0       -3.976506    0.349186    1.348120
     15          1           0       -3.745505   -0.283289    2.074164
     16          1           0       -3.444853    1.174412    1.479007
     17          6           0       -5.988130   -1.118846   -0.263441
     18          1           0       -6.542823   -1.935707   -0.425961
     19          6           0       -3.925708    0.772388   -1.119936
     20          1           0       -3.375945    1.581863   -0.976592
     21          1           0       -3.697483    0.392375   -2.005851
     22          6           0       -6.271779   -0.098202   -1.341324
     23          1           0       -6.044793   -0.473796   -2.230683
     24          6           0       -5.439850    1.142025   -1.075291
     25          6           0       -5.488388    0.689234    1.417205
     26          1           0       -5.724234    1.045863    2.321272
     27          6           0       -5.775699    1.741461    0.333421
     28          1           0       -5.225314    2.547649    0.495980
     29         53           0        3.350722    3.072931   -0.003333
     30          6           0        2.230635   -1.109452   -0.006075
     31          6           0        2.949446    0.072585    0.046369
     32          1           0        3.897641    0.057502    0.094195
     33          6           0        2.266625    1.279295    0.027253
     34          6           0        0.889277    1.307084   -0.029276
     35          1           0        0.432672    2.140055   -0.056893
     36         53           0        3.252146   -2.953924    0.008795
     37          1           0       -5.632639    1.825441   -1.780076
     38          1           0       -6.728852    2.004421    0.366212
     39          1           0       -7.234966    0.133816   -1.339841
 ---------------------------------------------------------------------
 Rotational constants (GHZ):           0.1824220           0.0732876           0.0539407
 Leave Link  202 at Mon Mar  6 10:21:36 2023, MaxMem=  1048576000 cpu:               0.0 elap:               0.0
 (Enter /ssoft/spack/external/gaussian/g16-C.01/avx2/g16/l301.exe)
 Standard basis: def2SVP (5D, 7F)
 Ernie: Thresh=  0.10000D-02 Tol=  0.10000D-05 Strict=F.
 There are   431 symmetry adapted cartesian basis functions of A   symmetry.
 There are   408 symmetry adapted basis functions of A   symmetry.
   408 basis functions,   735 primitive gaussians,   431 cartesian basis functions
    93 alpha electrons       93 beta electrons
       nuclear repulsion energy      2085.9285861610 Hartrees.
 IExCor= 1009 DFT=T Ex+Corr=PBE1PBE ExCW=0 ScaHFX=  0.250000
 ScaDFX=  0.750000  0.750000  1.000000  1.000000 ScalE2=  1.000000  1.000000
 IRadAn=      5 IRanWt=     -1 IRanGd=            0 ICorTp=0 IEmpDi=141
 NAtoms=   39 NActive=   39 NUniq=   39 SFac= 1.00D+00 NAtFMM=   60 NAOKFM=F Big=F
 Integral buffers will be    131072 words long.
 Raffenetti 2 integral format.
 Two-electron integral symmetry is turned on.
 R6Disp:  Grimme-D3(BJ) Dispersion energy=       -0.0531607267 Hartrees.
 Nuclear repulsion after empirical dispersion term =     2085.8754254343 Hartrees.
 Leave Link  301 at Mon Mar  6 10:21:36 2023, MaxMem=  1048576000 cpu:               0.1 elap:               0.1
 (Enter /ssoft/spack/external/gaussian/g16-C.01/avx2/g16/l302.exe)
 NPDir=0 NMtPBC=     1 NCelOv=     1 NCel=       1 NClECP=     1 NCelD=      1
         NCelK=      1 NCelE2=     1 NClLst=     1 CellRange=     0.0.
 One-electron integrals computed using PRISM.
 One-electron integral symmetry used in STVInt
   1 Symmetry operations used in ECPInt.
 ECPInt:  NShTT=   17766 NPrTT=   66795 LenC2=   15487 LenP2D=   40642.
 LDataN:  DoStor=T MaxTD1= 6 Len=  172
 NBasis=   408 RedAO= T EigKep=  2.35D-04  NBF=   408
 NBsUse=   408 1.00D-06 EigRej= -1.00D+00 NBFU=   408
 Precomputing XC quadrature grid using
 IXCGrd= 4 IRadAn=           5 IRanWt=          -1 IRanGd=           0 AccXCQ= 0.00D+00.
 Defaulting to unpruned grid for atomic number  53.
 Generated NRdTot=       0 NPtTot=           0 NUsed=           0 NTot=          32
 NSgBfM=   428   428   428   428   428 MxSgAt=    39 MxSgA2=    39.
 Leave Link  302 at Mon Mar  6 10:21:38 2023, MaxMem=  1048576000 cpu:               2.2 elap:               2.2
 (Enter /ssoft/spack/external/gaussian/g16-C.01/avx2/g16/l303.exe)
 DipDrv:  MaxL=1.
 Leave Link  303 at Mon Mar  6 10:21:38 2023, MaxMem=  1048576000 cpu:               0.1 elap:               0.1
 (Enter /ssoft/spack/external/gaussian/g16-C.01/avx2/g16/l401.exe)
 ExpMin= 1.11D-01 ExpMax= 2.27D+03 ExpMxC= 3.41D+02 IAcc=3 IRadAn=         5 AccDes= 0.00D+00
 Harris functional with IExCor= 1009 and IRadAn=       5 diagonalized for initial guess.
 HarFok:  IExCor= 1009 AccDes= 0.00D+00 IRadAn=         5 IDoV= 1 UseB2=F ITyADJ=14
 ICtDFT=  3500011 ScaDFX=  1.000000  1.000000  1.000000  1.000000
 Defaulting to unpruned grid for atomic number  53.
 FoFCou: FMM=F IPFlag=           0 FMFlag=      100000 FMFlg1=           0
         NFxFlg=           0 DoJE=T BraDBF=F KetDBF=T FulRan=T
         wScrn=  0.000000 ICntrl=       500 IOpCl=  0 I1Cent=   200000004 NGrid=           0
         NMat0=    1 NMatS0=      1 NMatT0=    0 NMatD0=    1 NMtDS0=    0 NMtDT0=    0
 Petite list used in FoFCou.
 Harris En= -1383.40447350291    
 JPrj=0 DoOrth=F DoCkMO=F.
 Leave Link  401 at Mon Mar  6 10:21:52 2023, MaxMem=  1048576000 cpu:              13.4 elap:              13.5
 (Enter /ssoft/spack/external/gaussian/g16-C.01/avx2/g16/l502.exe)
 Integral symmetry usage will be decided dynamically.
 Closed shell SCF:
 Using DIIS extrapolation, IDIIS=  1040.
 NGot=  1048576000 LenX=  1048196438 LenY=  1048010236
 Requested convergence on RMS density matrix=1.00D-08 within 128 cycles.
 Requested convergence on MAX density matrix=1.00D-06.
 Requested convergence on             energy=1.00D-06.
 No special actions if energy rises.
 Fock matrices will be formed incrementally for  20 cycles.
 Integral accuracy reduced to 1.0D-05 until final iterations.

 Cycle   1  Pass 0  IDiag  1:
 FoFJK:  IHMeth= 1 ICntrl=       0 DoSepK=F KAlg= 0 I1Cent=           0 FoldK=F
 IRaf= 810000000 NMat=       1 IRICut=       1 DoRegI=T DoRafI=F ISym2E= 0 IDoP0=0 IntGTp=1.
 FoFCou: FMM=F IPFlag=           0 FMFlag=      100000 FMFlg1=           0
         NFxFlg=           0 DoJE=F BraDBF=F KetDBF=F FulRan=T
         wScrn=  0.000000 ICntrl=         0 IOpCl=  0 I1Cent=           0 NGrid=           0
         NMat0=    1 NMatS0=      1 NMatT0=    0 NMatD0=    1 NMtDS0=    0 NMtDT0=    0
 Symmetry not used in FoFCou.
 Defaulting to unpruned grid for atomic number  53.
 E= -1381.84018159363    
 DIIS: error= 2.72D-02 at cycle   1 NSaved=   1.
 NSaved= 1 IEnMin= 1 EnMin= -1381.84018159363     IErMin= 1 ErrMin= 2.72D-02
 ErrMax= 2.72D-02  0.00D+00 EMaxC= 1.00D-01 BMatC= 5.83D-01 BMatP= 5.83D-01
 IDIUse=3 WtCom= 7.28D-01 WtEn= 2.72D-01
 Coeff-Com:  0.100D+01
 Coeff-En:   0.100D+01
 Coeff:      0.100D+01
 Gap=     0.327 Goal=   None    Shift=    0.000
 GapD=    0.327 DampG=1.000 DampE=0.500 DampFc=0.5000 IDamp=-1.
 Damping current iteration by 5.00D-01
 RMSDP=1.01D-02 MaxDP=7.08D-01              OVMax= 9.37D-01

 Cycle   2  Pass 0  IDiag  1:
 RMSU=  5.05D-03    CP:  9.78D-01
 E= -1381.64394152776     Delta-E=        0.196240065871 Rises=F Damp=T
 DIIS: error= 5.21D-02 at cycle   2 NSaved=   2.
 NSaved= 2 IEnMin= 1 EnMin= -1381.84018159363     IErMin= 1 ErrMin= 2.72D-02
 ErrMax= 5.21D-02  0.00D+00 EMaxC= 1.00D-01 BMatC= 2.35D-01 BMatP= 5.83D-01
 IDIUse=3 WtCom= 4.79D-01 WtEn= 5.21D-01
 Coeff-Com:  0.326D+00 0.674D+00
 Coeff-En:   0.604D+00 0.396D+00
 Coeff:      0.471D+00 0.529D+00
 Gap=     0.170 Goal=   None    Shift=    0.000
 RMSDP=4.98D-03 MaxDP=3.89D-01 DE= 1.96D-01 OVMax= 6.43D-01

 Cycle   3  Pass 0  IDiag  1:
 RMSU=  3.61D-03    CP:  9.52D-01  3.28D-01
 E= -1382.06098210541     Delta-E=       -0.417040577642 Rises=F Damp=F
 DIIS: error= 6.04D-02 at cycle   3 NSaved=   3.
 NSaved= 3 IEnMin= 3 EnMin= -1382.06098210541     IErMin= 1 ErrMin= 2.72D-02
 ErrMax= 6.04D-02  0.00D+00 EMaxC= 1.00D-01 BMatC= 3.86D-01 BMatP= 2.35D-01
 IDIUse=2 WtCom= 0.00D+00 WtEn= 1.00D+00
 EnCoef did     2 forward-backward iterations
 Coeff-En:   0.204D+00 0.228D+00 0.568D+00
 Coeff:      0.204D+00 0.228D+00 0.568D+00
 Gap=     0.223 Goal=   None    Shift=    0.000
 RMSDP=7.68D-03 MaxDP=6.11D-01 DE=-4.17D-01 OVMax= 9.57D-01

 Cycle   4  Pass 0  IDiag  1:
 RMSU=  3.76D-03    CP:  9.62D-01  1.35D+00 -1.78D-01
 E= -1379.97734927718     Delta-E=        2.083632828228 Rises=F Damp=F
 DIIS: error= 1.11D-01 at cycle   4 NSaved=   4.
 NSaved= 4 IEnMin= 3 EnMin= -1382.06098210541     IErMin= 1 ErrMin= 2.72D-02
 ErrMax= 1.11D-01  0.00D+00 EMaxC= 1.00D-01 BMatC= 1.79D+00 BMatP= 2.35D-01
 IDIUse=2 WtCom= 0.00D+00 WtEn= 1.00D+00
 EnCoef did     2 forward-backward iterations
 Coeff-En:   0.119D+00 0.000D+00 0.682D+00 0.198D+00
 Coeff:      0.119D+00 0.000D+00 0.682D+00 0.198D+00
 Gap=    -0.095 Goal=   None    Shift=    0.000
 RMSDP=7.19D-03 MaxDP=5.87D-01 DE= 2.08D+00 OVMax= 9.57D-01

 Cycle   5  Pass 0  IDiag  1:
 RMSU=  2.52D-03    CP:  9.70D-01  2.75D-01  5.37D-01  1.94D-01
 E= -1382.41233170178     Delta-E=       -2.434982424604 Rises=F Damp=F
 DIIS: error= 1.56D-02 at cycle   5 NSaved=   5.
 NSaved= 5 IEnMin= 5 EnMin= -1382.41233170178     IErMin= 5 ErrMin= 1.56D-02
 ErrMax= 1.56D-02  0.00D+00 EMaxC= 1.00D-01 BMatC= 7.00D-02 BMatP= 2.35D-01
 IDIUse=3 WtCom= 8.44D-01 WtEn= 1.56D-01
 Coeff-Com: -0.822D-02 0.189D+00 0.267D+00-0.369D-01 0.589D+00
 Coeff-En:   0.000D+00 0.000D+00 0.170D+00 0.000D+00 0.830D+00
 Coeff:     -0.694D-02 0.160D+00 0.252D+00-0.312D-01 0.627D+00
 Gap=     0.171 Goal=   None    Shift=    0.000
 RMSDP=1.20D-03 MaxDP=8.47D-02 DE=-2.43D+00 OVMax= 8.16D-02

 Cycle   6  Pass 0  IDiag  1:
 RMSU=  7.01D-04    CP:  9.63D-01  3.06D-01  6.91D-01  1.11D-01  7.16D-01
 E= -1382.48071921343     Delta-E=       -0.068387511651 Rises=F Damp=F
 DIIS: error= 8.67D-03 at cycle   6 NSaved=   6.
 NSaved= 6 IEnMin= 6 EnMin= -1382.48071921343     IErMin= 6 ErrMin= 8.67D-03
 ErrMax= 8.67D-03  0.00D+00 EMaxC= 1.00D-01 BMatC= 7.36D-03 BMatP= 7.00D-02
 IDIUse=3 WtCom= 9.13D-01 WtEn= 8.67D-02
 Coeff-Com: -0.257D-01 0.827D-01 0.761D-01-0.201D-01 0.327D+00 0.560D+00
 Coeff-En:   0.000D+00 0.000D+00 0.000D+00 0.000D+00 0.548D-01 0.945D+00
 Coeff:     -0.234D-01 0.755D-01 0.695D-01-0.183D-01 0.304D+00 0.593D+00
 Gap=     0.147 Goal=   None    Shift=    0.000
 RMSDP=4.30D-04 MaxDP=2.89D-02 DE=-6.84D-02 OVMax= 3.30D-02

 Cycle   7  Pass 0  IDiag  1:
 RMSU=  2.55D-04    CP:  9.65D-01  3.02D-01  6.68D-01  1.18D-01  8.18D-01
                    CP:  6.97D-01
 E= -1382.48682166513     Delta-E=       -0.006102451698 Rises=F Damp=F
 DIIS: error= 1.84D-03 at cycle   7 NSaved=   7.
 NSaved= 7 IEnMin= 7 EnMin= -1382.48682166513     IErMin= 7 ErrMin= 1.84D-03
 ErrMax= 1.84D-03  0.00D+00 EMaxC= 1.00D-01 BMatC= 1.32D-03 BMatP= 7.36D-03
 IDIUse=3 WtCom= 9.82D-01 WtEn= 1.84D-02
 Coeff-Com: -0.132D-01 0.227D-01 0.520D-02-0.456D-02 0.100D+00 0.387D+00
 Coeff-Com:  0.502D+00
 Coeff-En:   0.000D+00 0.000D+00 0.000D+00 0.000D+00 0.000D+00 0.143D+00
 Coeff-En:   0.857D+00
 Coeff:     -0.129D-01 0.223D-01 0.510D-02-0.448D-02 0.986D-01 0.382D+00
 Coeff:      0.509D+00
 Gap=     0.145 Goal=   None    Shift=    0.000
 RMSDP=1.40D-04 MaxDP=7.78D-03 DE=-6.10D-03 OVMax= 1.27D-02

 Cycle   8  Pass 0  IDiag  1:
 RMSU=  8.74D-05    CP:  9.64D-01  3.04D-01  6.71D-01  1.19D-01  8.09D-01
                    CP:  7.74D-01  6.48D-01
 E= -1382.48814937811     Delta-E=       -0.001327712984 Rises=F Damp=F
 DIIS: error= 6.54D-04 at cycle   8 NSaved=   8.
 NSaved= 8 IEnMin= 8 EnMin= -1382.48814937811     IErMin= 8 ErrMin= 6.54D-04
 ErrMax= 6.54D-04  0.00D+00 EMaxC= 1.00D-01 BMatC= 1.11D-04 BMatP= 1.32D-03
 IDIUse=3 WtCom= 9.93D-01 WtEn= 6.54D-03
 Coeff-Com: -0.453D-02 0.286D-02-0.822D-02 0.362D-03 0.115D-01 0.137D+00
 Coeff-Com:  0.288D+00 0.573D+00
 Coeff-En:   0.000D+00 0.000D+00 0.000D+00 0.000D+00 0.000D+00 0.000D+00
 Coeff-En:   0.878D-02 0.991D+00
 Coeff:     -0.450D-02 0.285D-02-0.817D-02 0.359D-03 0.114D-01 0.136D+00
 Coeff:      0.286D+00 0.576D+00
 Gap=     0.145 Goal=   None    Shift=    0.000
 RMSDP=4.40D-05 MaxDP=2.32D-03 DE=-1.33D-03 OVMax= 3.69D-03

 Cycle   9  Pass 0  IDiag  1:
 RMSU=  2.82D-05    CP:  9.64D-01  3.05D-01  6.73D-01  1.20D-01  8.13D-01
                    CP:  7.88D-01  6.97D-01  6.86D-01
 E= -1382.48825829549     Delta-E=       -0.000108917379 Rises=F Damp=F
 DIIS: error= 1.35D-04 at cycle   9 NSaved=   9.
 NSaved= 9 IEnMin= 9 EnMin= -1382.48825829549     IErMin= 9 ErrMin= 1.35D-04
 ErrMax= 1.35D-04  0.00D+00 EMaxC= 1.00D-01 BMatC= 8.87D-06 BMatP= 1.11D-04
 IDIUse=3 WtCom= 9.99D-01 WtEn= 1.35D-03
 Coeff-Com: -0.164D-02 0.955D-03-0.433D-02 0.473D-03 0.762D-03 0.433D-01
 Coeff-Com:  0.106D+00 0.284D+00 0.570D+00
 Coeff-En:   0.000D+00 0.000D+00 0.000D+00 0.000D+00 0.000D+00 0.000D+00
 Coeff-En:   0.000D+00 0.000D+00 0.100D+01
 Coeff:     -0.164D-02 0.953D-03-0.433D-02 0.473D-03 0.760D-03 0.433D-01
 Coeff:      0.106D+00 0.284D+00 0.571D+00
 Gap=     0.145 Goal=   None    Shift=    0.000
 RMSDP=1.56D-05 MaxDP=6.64D-04 DE=-1.09D-04 OVMax= 1.28D-03

 Cycle  10  Pass 0  IDiag  1:
 RMSU=  1.10D-05    CP:  9.64D-01  3.05D-01  6.72D-01  1.20D-01  8.12D-01
                    CP:  7.90D-01  7.02D-01  7.11D-01  6.67D-01
 E= -1382.48826689287     Delta-E=       -0.000008597381 Rises=F Damp=F
 DIIS: error= 9.87D-05 at cycle  10 NSaved=  10.
 NSaved=10 IEnMin=10 EnMin= -1382.48826689287     IErMin=10 ErrMin= 9.87D-05
 ErrMax= 9.87D-05  0.00D+00 EMaxC= 1.00D-01 BMatC= 1.40D-06 BMatP= 8.87D-06
 IDIUse=1 WtCom= 1.00D+00 WtEn= 0.00D+00
 Coeff-Com: -0.174D-03 0.384D-03-0.681D-03 0.115D-03-0.119D-02-0.581D-02
 Coeff-Com: -0.734D-02 0.152D-01 0.271D+00 0.728D+00
 Coeff:     -0.174D-03 0.384D-03-0.681D-03 0.115D-03-0.119D-02-0.581D-02
 Coeff:     -0.734D-02 0.152D-01 0.271D+00 0.728D+00
 Gap=     0.145 Goal=   None    Shift=    0.000
 RMSDP=5.12D-06 MaxDP=2.13D-04 DE=-8.60D-06 OVMax= 6.02D-04

 Initial convergence to 1.0D-05 achieved.  Increase integral accuracy.
 Cycle  11  Pass 1  IDiag  1:
 E= -1382.48819442064     Delta-E=        0.000072472239 Rises=F Damp=F
 DIIS: error= 1.48D-04 at cycle   1 NSaved=   1.
 NSaved= 1 IEnMin= 1 EnMin= -1382.48819442064     IErMin= 1 ErrMin= 1.48D-04
 ErrMax= 1.48D-04  0.00D+00 EMaxC= 1.00D-01 BMatC= 3.33D-06 BMatP= 3.33D-06
 IDIUse=3 WtCom= 9.99D-01 WtEn= 1.48D-03
 Coeff-Com:  0.100D+01
 Coeff-En:   0.100D+01
 Coeff:      0.100D+01
 Gap=     0.145 Goal=   None    Shift=    0.000
 RMSDP=5.12D-06 MaxDP=2.13D-04 DE= 7.25D-05 OVMax= 5.46D-04

 Cycle  12  Pass 1  IDiag  1:
 RMSU=  1.07D-04    CP:  1.00D+00
 E= -1382.48819750215     Delta-E=       -0.000003081510 Rises=F Damp=F
 DIIS: error= 5.63D-05 at cycle   2 NSaved=   2.
 NSaved= 2 IEnMin= 2 EnMin= -1382.48819750215     IErMin= 2 ErrMin= 5.63D-05
 ErrMax= 5.63D-05  0.00D+00 EMaxC= 1.00D-01 BMatC= 6.95D-07 BMatP= 3.33D-06
 IDIUse=1 WtCom= 1.00D+00 WtEn= 0.00D+00
 Coeff-Com:  0.215D+00 0.785D+00
 Coeff:      0.215D+00 0.785D+00
 Gap=     0.145 Goal=   None    Shift=    0.000
 RMSDP=7.43D-06 MaxDP=5.75D-04 DE=-3.08D-06 OVMax= 6.65D-04

 Cycle  13  Pass 1  IDiag  1:
 RMSU=  7.29D-06    CP:  1.00D+00  1.01D+00
 E= -1382.48819692414     Delta-E=        0.000000578011 Rises=F Damp=F
 DIIS: error= 8.67D-05 at cycle   3 NSaved=   3.
 NSaved= 3 IEnMin= 2 EnMin= -1382.48819750215     IErMin= 2 ErrMin= 5.63D-05
 ErrMax= 8.67D-05  0.00D+00 EMaxC= 1.00D-01 BMatC= 1.34D-06 BMatP= 6.95D-07
 IDIUse=1 WtCom= 1.00D+00 WtEn= 0.00D+00
 Coeff-Com: -0.228D-02 0.583D+00 0.419D+00
 Coeff:     -0.228D-02 0.583D+00 0.419D+00
 Gap=     0.145 Goal=   None    Shift=    0.000
 RMSDP=4.31D-06 MaxDP=3.32D-04 DE= 5.78D-07 OVMax= 4.32D-04

 Cycle  14  Pass 1  IDiag  1:
 RMSU=  8.84D-07    CP:  1.00D+00  1.02D+00  4.27D-01
 E= -1382.48819811526     Delta-E=       -0.000001191122 Rises=F Damp=F
 DIIS: error= 7.47D-06 at cycle   4 NSaved=   4.
 NSaved= 4 IEnMin= 4 EnMin= -1382.48819811526     IErMin= 4 ErrMin= 7.47D-06
 ErrMax= 7.47D-06  0.00D+00 EMaxC= 1.00D-01 BMatC= 1.45D-08 BMatP= 6.95D-07
 IDIUse=1 WtCom= 1.00D+00 WtEn= 0.00D+00
 Coeff-Com: -0.480D-02 0.327D+00 0.247D+00 0.431D+00
 Coeff:     -0.480D-02 0.327D+00 0.247D+00 0.431D+00
 Gap=     0.145 Goal=   None    Shift=    0.000
 RMSDP=5.21D-07 MaxDP=3.67D-05 DE=-1.19D-06 OVMax= 3.40D-05

 Cycle  15  Pass 1  IDiag  1:
 RMSU=  3.60D-07    CP:  1.00D+00  1.02D+00  4.52D-01  6.29D-01
 E= -1382.48819812920     Delta-E=       -0.000000013945 Rises=F Damp=F
 DIIS: error= 2.87D-06 at cycle   5 NSaved=   5.
 NSaved= 5 IEnMin= 5 EnMin= -1382.48819812920     IErMin= 5 ErrMin= 2.87D-06
 ErrMax= 2.87D-06  0.00D+00 EMaxC= 1.00D-01 BMatC= 1.11D-09 BMatP= 1.45D-08
 IDIUse=1 WtCom= 1.00D+00 WtEn= 0.00D+00
 Coeff-Com: -0.295D-02 0.184D+00 0.141D+00 0.281D+00 0.396D+00
 Coeff:     -0.295D-02 0.184D+00 0.141D+00 0.281D+00 0.396D+00
 Gap=     0.145 Goal=   None    Shift=    0.000
 RMSDP=1.52D-07 MaxDP=8.91D-06 DE=-1.39D-08 OVMax= 1.32D-05

 Cycle  16  Pass 1  IDiag  1:
 RMSU=  1.12D-07    CP:  1.00D+00  1.02D+00  4.50D-01  6.33D-01  7.23D-01
 E= -1382.48819813018     Delta-E=       -0.000000000979 Rises=F Damp=F
 DIIS: error= 5.14D-07 at cycle   6 NSaved=   6.
 NSaved= 6 IEnMin= 6 EnMin= -1382.48819813018     IErMin= 6 ErrMin= 5.14D-07
 ErrMax= 5.14D-07  0.00D+00 EMaxC= 1.00D-01 BMatC= 6.87D-11 BMatP= 1.11D-09
 IDIUse=1 WtCom= 1.00D+00 WtEn= 0.00D+00
 Coeff-Com: -0.583D-03 0.296D-01 0.244D-01 0.613D-01 0.212D+00 0.673D+00
 Coeff:     -0.583D-03 0.296D-01 0.244D-01 0.613D-01 0.212D+00 0.673D+00
 Gap=     0.145 Goal=   None    Shift=    0.000
 RMSDP=4.59D-08 MaxDP=3.73D-06 DE=-9.79D-10 OVMax= 2.75D-06

 Cycle  17  Pass 1  IDiag  1:
 RMSU=  2.65D-08    CP:  1.00D+00  1.02D+00  4.52D-01  6.45D-01  7.96D-01
                    CP:  8.69D-01
 E= -1382.48819813026     Delta-E=       -0.000000000082 Rises=F Damp=F
 DIIS: error= 8.84D-08 at cycle   7 NSaved=   7.
 NSaved= 7 IEnMin= 7 EnMin= -1382.48819813026     IErMin= 7 ErrMin= 8.84D-08
 ErrMax= 8.84D-08  0.00D+00 EMaxC= 1.00D-01 BMatC= 5.69D-12 BMatP= 6.87D-11
 IDIUse=1 WtCom= 1.00D+00 WtEn= 0.00D+00
 Coeff-Com:  0.118D-03-0.104D-01-0.660D-02-0.802D-02 0.526D-01 0.278D+00
 Coeff-Com:  0.694D+00
 Coeff:      0.118D-03-0.104D-01-0.660D-02-0.802D-02 0.526D-01 0.278D+00
 Coeff:      0.694D+00
 Gap=     0.145 Goal=   None    Shift=    0.000
 RMSDP=1.41D-08 MaxDP=1.24D-06 DE=-8.19D-11 OVMax= 1.31D-06

 Cycle  18  Pass 1  IDiag  1:
 RMSU=  9.85D-09    CP:  1.00D+00  1.02D+00  4.53D-01  6.47D-01  8.13D-01
                    CP:  9.01D-01  9.73D-01
 E= -1382.48819813028     Delta-E=       -0.000000000018 Rises=F Damp=F
 DIIS: error= 5.29D-08 at cycle   8 NSaved=   8.
 NSaved= 8 IEnMin= 8 EnMin= -1382.48819813028     IErMin= 8 ErrMin= 5.29D-08
 ErrMax= 5.29D-08  0.00D+00 EMaxC= 1.00D-01 BMatC= 1.33D-12 BMatP= 5.69D-12
 IDIUse=1 WtCom= 1.00D+00 WtEn= 0.00D+00
 Coeff-Com:  0.113D-03-0.827D-02-0.556D-02-0.950D-02 0.152D-01 0.972D-01
 Coeff-Com:  0.403D+00 0.508D+00
 Coeff:      0.113D-03-0.827D-02-0.556D-02-0.950D-02 0.152D-01 0.972D-01
 Coeff:      0.403D+00 0.508D+00
 Gap=     0.145 Goal=   None    Shift=    0.000
 RMSDP=5.04D-09 MaxDP=2.52D-07 DE=-1.77D-11 OVMax= 4.57D-07

 SCF Done:  E(RPBE1PBE) =  -1382.48819813     A.U. after   18 cycles
            NFock= 18  Conv=0.50D-08     -V/T= 2.3699
 KE= 1.009211545767D+03 PE=-7.285518932085D+03 EE= 2.807943762753D+03
 Leave Link  502 at Mon Mar  6 10:31:28 2023, MaxMem=  1048576000 cpu:             571.5 elap:             575.8
 (Enter /ssoft/spack/external/gaussian/g16-C.01/avx2/g16/l801.exe)
 DoSCS=F DFT=T ScalE2(SS,OS)=  1.000000  1.000000
 Range of M.O.s used for correlation:     1   408
 NBasis=   408 NAE=    93 NBE=    93 NFC=     0 NFV=     0
 NROrb=    408 NOA=    93 NOB=    93 NVA=   315 NVB=   315

 **** Warning!!: The largest alpha MO coefficient is  0.14505056D+02

 Leave Link  801 at Mon Mar  6 10:31:28 2023, MaxMem=  1048576000 cpu:               0.0 elap:               0.0
 (Enter /ssoft/spack/external/gaussian/g16-C.01/avx2/g16/l1101.exe)
 Using compressed storage, NAtomX=    39.
 Will process     40 centers per pass.
   1 Symmetry operations used in ECPInt.
 ECPInt:  NShTT=   17766 NPrTT=   66795 LenC2=   15487 LenP2D=   40642.
 LDataN:  DoStor=T MaxTD1= 7 Len=  274
 R6Disp: Adding Grimme-D3(BJ) dispersion energy 1st derivatives to the gradient.
 Leave Link 1101 at Mon Mar  6 10:31:30 2023, MaxMem=  1048576000 cpu:               2.4 elap:               2.6
 (Enter /ssoft/spack/external/gaussian/g16-C.01/avx2/g16/l1102.exe)
 Symmetrizing basis deriv contribution to polar:
 IMax=3 JMax=2 DiffMx= 0.00D+00
 Leave Link 1102 at Mon Mar  6 10:31:30 2023, MaxMem=  1048576000 cpu:               0.1 elap:               0.1
 (Enter /ssoft/spack/external/gaussian/g16-C.01/avx2/g16/l1110.exe)
 Forming Gx(P) for the SCF density, NAtomX=    39.
 Integral derivatives from FoFJK, PRISM(SPDF).
 Do as many integral derivatives as possible in FoFJK.
 G2DrvN: MDV=    1048571847.
 G2DrvN: will do    40 centers at a time, making    1 passes.
 Calling FoFCou, ICntrl=  3107 FMM=F I1Cent=   0 AccDes= 0.00D+00.
 FoFJK:  IHMeth= 1 ICntrl=    3107 DoSepK=F KAlg= 0 I1Cent=           0 FoldK=F
 IRaf=         0 NMat=       1 IRICut=       1 DoRegI=T DoRafI=F ISym2E= 0 IDoP0=0 IntGTp=1.
 FoFCou: FMM=F IPFlag=           0 FMFlag=      100000 FMFlg1=           0
         NFxFlg=           0 DoJE=F BraDBF=F KetDBF=F FulRan=T
         wScrn=  0.000000 ICntrl=      3107 IOpCl=  0 I1Cent=           0 NGrid=           0
         NMat0=    1 NMatS0=      1 NMatT0=    0 NMatD0=    1 NMtDS0=    0 NMtDT0=    0
 Symmetry not used in FoFCou.
 Defaulting to unpruned grid for atomic number  53.
 End of G2Drv F.D. properties file   721 does not exist.
 End of G2Drv F.D. properties file   722 does not exist.
 End of G2Drv F.D. properties file   788 does not exist.
 Leave Link 1110 at Mon Mar  6 10:51:00 2023, MaxMem=  1048576000 cpu:            1165.8 elap:            1170.0
 (Enter /ssoft/spack/external/gaussian/g16-C.01/avx2/g16/l1002.exe)
 Minotr:  Closed shell wavefunction.
          IDoAtm=111111111111111111111111111111111111111
          Direct CPHF calculation.
          Differentiating once with respect to electric field.
                with respect to dipole field.
          Differentiating once with respect to nuclear coordinates.
          Requested convergence is 1.0D-08 RMS, and 1.0D-07 maximum.
          Secondary convergence is 1.0D-12 RMS, and 1.0D-12 maximum.
          NewPWx=T KeepS1=F KeepF1=F KeepIn=T MapXYZ=F SortEE=F KeepMc=T.
 Defaulting to unpruned grid for atomic number  53.
        11798 words used for storage of precomputed grid.
 Two-electron integrals replicated using symmetry.
          MDV=    1048576000 using IRadAn=       1.
          Solving linear equations simultaneously, MaxMat=     384.
 FoF2E skips out because all densities are zero.
 CalDSu exits because no D1Ps are significant.
 FoFJK:  IHMeth= 1 ICntrl=       0 DoSepK=F KAlg= 0 I1Cent=           0 FoldK=F
 IRaf= 780000000 NMat=     117 IRICut=     292 DoRegI=T DoRafI=T ISym2E= 2 IDoP0=3 IntGTp=3.
 FoFCou: FMM=F IPFlag=           0 FMFlag=      100000 FMFlg1=           0
         NFxFlg=           0 DoJE=F BraDBF=F KetDBF=F FulRan=T
         wScrn=  0.000000 ICntrl=         0 IOpCl=  0 I1Cent=           0 NGrid=           0
         NMat0=  117 NMatS0=    117 NMatT0=    0 NMatD0=  117 NMtDS0=    0 NMtDT0=    0
 Integrals replicated using symmetry in FoFCou.
 Raff kept on since  73.21% of shell-pairs survive, threshold=   0.20 IRatSp=73.
 Defaulting to unpruned grid for atomic number  53.
          There are   120 degrees of freedom in the 1st order CPHF.  IDoFFX=6 NUNeed=     3.
    117 vectors produced by pass  0 Test12= 2.93D-14 1.00D-09 XBig12= 3.23D+02 7.59D+00.
 AX will form   117 AO Fock derivatives at one time.
    117 vectors produced by pass  1 Test12= 2.93D-14 1.00D-09 XBig12= 6.29D+01 1.92D+00.
    117 vectors produced by pass  2 Test12= 2.93D-14 1.00D-09 XBig12= 1.03D+00 1.41D-01.
    117 vectors produced by pass  3 Test12= 2.93D-14 1.00D-09 XBig12= 7.92D-03 1.15D-02.
    117 vectors produced by pass  4 Test12= 2.93D-14 1.00D-09 XBig12= 2.47D-05 6.90D-04.
    107 vectors produced by pass  5 Test12= 2.93D-14 1.00D-09 XBig12= 4.12D-08 1.85D-05.
     31 vectors produced by pass  6 Test12= 2.93D-14 1.00D-09 XBig12= 5.39D-11 7.85D-07.
      3 vectors produced by pass  7 Test12= 2.93D-14 1.00D-09 XBig12= 7.52D-14 3.70D-08.
      2 vectors produced by pass  8 Test12= 2.93D-14 1.00D-09 XBig12= 3.34D-16 1.71D-09.
 InvSVY:  IOpt=1 It=  1 EMax= 3.55D-15
 Solved reduced A of dimension   728 with   120 vectors.
 FullF1:  Do perturbations      1 to       3.
 Isotropic polarizability for W=    0.000000      248.99 Bohr**3.
 End of Minotr F.D. properties file   721 does not exist.
 End of Minotr F.D. properties file   722 does not exist.
 End of Minotr F.D. properties file   788 does not exist.
 Leave Link 1002 at Mon Mar  6 11:29:20 2023, MaxMem=  1048576000 cpu:            2292.0 elap:            2299.7
 (Enter /ssoft/spack/external/gaussian/g16-C.01/avx2/g16/l601.exe)
 Copying SCF densities to generalized density rwf, IOpCl= 0 IROHF=0.

 **********************************************************************

            Population analysis using the SCF Density.

 **********************************************************************

 Orbital symmetries:
       Occupied  (A) (A) (A) (A) (A) (A) (A) (A) (A) (A) (A) (A)
                 (A) (A) (A) (A) (A) (A) (A) (A) (A) (A) (A) (A)
                 (A) (A) (A) (A) (A) (A) (A) (A) (A) (A) (A) (A)
                 (A) (A) (A) (A) (A) (A) (A) (A) (A) (A) (A) (A)
                 (A) (A) (A) (A) (A) (A) (A) (A) (A) (A) (A) (A)
                 (A) (A) (A) (A) (A) (A) (A) (A) (A) (A) (A) (A)
                 (A) (A) (A) (A) (A) (A) (A) (A) (A) (A) (A) (A)
                 (A) (A) (A) (A) (A) (A) (A) (A) (A)
       Virtual   (A) (A) (A) (A) (A) (A) (A) (A) (A) (A) (A) (A)
                 (A) (A) (A) (A) (A) (A) (A) (A) (A) (A) (A) (A)
                 (A) (A) (A) (A) (A) (A) (A) (A) (A) (A) (A) (A)
                 (A) (A) (A) (A) (A) (A) (A) (A) (A) (A) (A) (A)
                 (A) (A) (A) (A) (A) (A) (A) (A) (A) (A) (A) (A)
                 (A) (A) (A) (A) (A) (A) (A) (A) (A) (A) (A) (A)
                 (A) (A) (A) (A) (A) (A) (A) (A) (A) (A) (A) (A)
                 (A) (A) (A) (A) (A) (A) (A) (A) (A) (A) (A) (A)
                 (A) (A) (A) (A) (A) (A) (A) (A) (A) (A) (A) (A)
                 (A) (A) (A) (A) (A) (A) (A) (A) (A) (A) (A) (A)
                 (A) (A) (A) (A) (A) (A) (A) (A) (A) (A) (A) (A)
                 (A) (A) (A) (A) (A) (A) (A) (A) (A) (A) (A) (A)
                 (A) (A) (A) (A) (A) (A) (A) (A) (A) (A) (A) (A)
                 (A) (A) (A) (A) (A) (A) (A) (A) (A) (A) (A) (A)
                 (A) (A) (A) (A) (A) (A) (A) (A) (A) (A) (A) (A)
                 (A) (A) (A) (A) (A) (A) (A) (A) (A) (A) (A) (A)
                 (A) (A) (A) (A) (A) (A) (A) (A) (A) (A) (A) (A)
                 (A) (A) (A) (A) (A) (A) (A) (A) (A) (A) (A) (A)
                 (A) (A) (A) (A) (A) (A) (A) (A) (A) (A) (A) (A)
                 (A) (A) (A) (A) (A) (A) (A) (A) (A) (A) (A) (A)
                 (A) (A) (A) (A) (A) (A) (A) (A) (A) (A) (A) (A)
                 (A) (A) (A) (A) (A) (A) (A) (A) (A) (A) (A) (A)
                 (A) (A) (A) (A) (A) (A) (A) (A) (A) (A) (A) (A)
                 (A) (A) (A) (A) (A) (A) (A) (A) (A) (A) (A) (A)
                 (A) (A) (A) (A) (A) (A) (A) (A) (A) (A) (A) (A)
                 (A) (A) (A) (A) (A) (A) (A) (A) (A) (A) (A) (A)
                 (A) (A) (A)
 The electronic state is 1-A.
 Alpha  occ. eigenvalues --  -18.98410 -14.23740 -10.15368 -10.14056 -10.13741
 Alpha  occ. eigenvalues --  -10.13701 -10.13541 -10.12933 -10.12815 -10.12629
 Alpha  occ. eigenvalues --  -10.12108 -10.11620 -10.11565 -10.10938 -10.10760
 Alpha  occ. eigenvalues --  -10.10645 -10.10581 -10.09888 -10.09723  -6.78397
 Alpha  occ. eigenvalues --   -6.75831  -4.80059  -4.78735  -4.78683  -4.77531
 Alpha  occ. eigenvalues --   -4.76159  -4.76075  -1.82771  -1.82330  -1.82276
 Alpha  occ. eigenvalues --   -1.81144  -1.81144  -1.80222  -1.79773  -1.79706
 Alpha  occ. eigenvalues --   -1.78527  -1.78524  -0.82593  -0.81816  -0.78592
 Alpha  occ. eigenvalues --   -0.74728  -0.71467  -0.70853  -0.69148  -0.65844
 Alpha  occ. eigenvalues --   -0.63999  -0.61758  -0.61329  -0.58077  -0.56132
 Alpha  occ. eigenvalues --   -0.54465  -0.53236  -0.52936  -0.49749  -0.47143
 Alpha  occ. eigenvalues --   -0.46626  -0.44259  -0.40779  -0.40140  -0.39572
 Alpha  occ. eigenvalues --   -0.39417  -0.37972  -0.36282  -0.35664  -0.35135
 Alpha  occ. eigenvalues --   -0.34409  -0.33638  -0.32978  -0.32337  -0.31509
 Alpha  occ. eigenvalues --   -0.30594  -0.28519  -0.27191  -0.26345  -0.26009
 Alpha  occ. eigenvalues --   -0.25715  -0.25279  -0.25153  -0.23338  -0.22319
 Alpha  occ. eigenvalues --   -0.21942  -0.21161  -0.21102  -0.20682  -0.19744
 Alpha  occ. eigenvalues --   -0.16449  -0.15432  -0.15127  -0.13615  -0.11760
 Alpha  occ. eigenvalues --   -0.11636  -0.06745  -0.05352
 Alpha virt. eigenvalues --    0.09180   0.09267   0.13163   0.14449   0.15336
 Alpha virt. eigenvalues --    0.17561   0.18473   0.18695   0.19149   0.20206
 Alpha virt. eigenvalues --    0.20977   0.21762   0.22934   0.23407   0.24692
 Alpha virt. eigenvalues --    0.25486   0.26371   0.27467   0.27915   0.28772
 Alpha virt. eigenvalues --    0.29162   0.30052   0.30303   0.30786   0.31021
 Alpha virt. eigenvalues --    0.31785   0.32004   0.32448   0.33075   0.33395
 Alpha virt. eigenvalues --    0.34344   0.35998   0.36163   0.36905   0.37370
 Alpha virt. eigenvalues --    0.38194   0.38439   0.39229   0.39917   0.40414
 Alpha virt. eigenvalues --    0.41460   0.42301   0.43334   0.45034   0.46668
 Alpha virt. eigenvalues --    0.48561   0.49591   0.50585   0.51365   0.51893
 Alpha virt. eigenvalues --    0.52991   0.53300   0.53392   0.53961   0.54042
 Alpha virt. eigenvalues --    0.54291   0.54673   0.55438   0.55977   0.56249
 Alpha virt. eigenvalues --    0.56666   0.57027   0.57210   0.58318   0.58979
 Alpha virt. eigenvalues --    0.59255   0.60067   0.60864   0.62700   0.62782
 Alpha virt. eigenvalues --    0.64284   0.64948   0.68811   0.68976   0.70690
 Alpha virt. eigenvalues --    0.71793   0.72329   0.72788   0.73867   0.74125
 Alpha virt. eigenvalues --    0.74530   0.75253   0.75492   0.76203   0.76970
 Alpha virt. eigenvalues --    0.77634   0.78116   0.78399   0.78988   0.79185
 Alpha virt. eigenvalues --    0.79508   0.79627   0.79886   0.80005   0.80508
 Alpha virt. eigenvalues --    0.81255   0.81882   0.82594   0.83300   0.83696
 Alpha virt. eigenvalues --    0.83939   0.84406   0.84668   0.85214   0.85569
 Alpha virt. eigenvalues --    0.85835   0.85944   0.86224   0.86878   0.87297
 Alpha virt. eigenvalues --    0.88120   0.88358   0.89419   0.89804   0.90930
 Alpha virt. eigenvalues --    0.91663   0.92506   0.93158   0.93422   0.93915
 Alpha virt. eigenvalues --    0.95355   0.95987   0.97010   0.97967   0.98697
 Alpha virt. eigenvalues --    1.00226   1.00633   1.02326   1.07435   1.08298
 Alpha virt. eigenvalues --    1.09836   1.12024   1.12840   1.13911   1.14788
 Alpha virt. eigenvalues --    1.17688   1.19051   1.20367   1.21551   1.22894
 Alpha virt. eigenvalues --    1.24093   1.28203   1.29032   1.29474   1.30564
 Alpha virt. eigenvalues --    1.31014   1.33297   1.34559   1.34849   1.36292
 Alpha virt. eigenvalues --    1.37816   1.38971   1.40088   1.41009   1.41269
 Alpha virt. eigenvalues --    1.42093   1.42480   1.43258   1.44696   1.44827
 Alpha virt. eigenvalues --    1.46494   1.48426   1.50466   1.53104   1.55493
 Alpha virt. eigenvalues --    1.59934   1.61537   1.62529   1.63975   1.68283
 Alpha virt. eigenvalues --    1.68692   1.70248   1.75026   1.75185   1.75886
 Alpha virt. eigenvalues --    1.76915   1.78697   1.80746   1.81309   1.82842
 Alpha virt. eigenvalues --    1.83920   1.84902   1.85213   1.86429   1.87403
 Alpha virt. eigenvalues --    1.87614   1.88627   1.89632   1.90870   1.91941
 Alpha virt. eigenvalues --    1.93617   1.94528   1.95187   1.96494   1.96993
 Alpha virt. eigenvalues --    1.98069   1.99951   2.00441   2.01287   2.01736
 Alpha virt. eigenvalues --    2.02932   2.04319   2.04711   2.06433   2.07076
 Alpha virt. eigenvalues --    2.07814   2.07937   2.08819   2.09308   2.10693
 Alpha virt. eigenvalues --    2.12110   2.12306   2.13029   2.13757   2.15020
 Alpha virt. eigenvalues --    2.15504   2.16642   2.17444   2.19369   2.20366
 Alpha virt. eigenvalues --    2.21352   2.23420   2.25151   2.25680   2.27311
 Alpha virt. eigenvalues --    2.28120   2.29559   2.30241   2.30651   2.30848
 Alpha virt. eigenvalues --    2.31028   2.32671   2.34186   2.35837   2.37304
 Alpha virt. eigenvalues --    2.37736   2.38030   2.40046   2.40607   2.41128
 Alpha virt. eigenvalues --    2.42838   2.43491   2.45011   2.45981   2.49675
 Alpha virt. eigenvalues --    2.50538   2.52320   2.53753   2.56591   2.59434
 Alpha virt. eigenvalues --    2.60386   2.64084   2.65948   2.67454   2.68514
 Alpha virt. eigenvalues --    2.69621   2.72405   2.73688   2.74855   2.74942
 Alpha virt. eigenvalues --    2.76200   2.77733   2.78446   2.79941   2.80910
 Alpha virt. eigenvalues --    2.82332   2.84486   2.85537   2.85899   2.86605
 Alpha virt. eigenvalues --    2.88241   2.89929   2.91430   2.94341   2.95678
 Alpha virt. eigenvalues --    2.96829   2.98166   2.98830   2.99900   3.01232
 Alpha virt. eigenvalues --    3.07399   3.12843   3.15999   3.18876   3.21381
 Alpha virt. eigenvalues --    3.22040   3.23493   3.26410   3.27571   3.30298
 Alpha virt. eigenvalues --    3.31666   3.32584   3.32958   3.34082   3.35546
 Alpha virt. eigenvalues --    3.36181   3.36861   3.38618   3.44129   3.44470
 Alpha virt. eigenvalues --    3.45632   3.46030   3.48072   3.52812   3.64424
 Alpha virt. eigenvalues --    3.69584   3.83447  18.70506  18.73104  18.85266
 Alpha virt. eigenvalues --   18.96549  19.31127  19.35806  56.05859  56.13025
     Molecular Orbital Coefficients:
                          89        90        91        92        93
                           O         O         O         O         O
     Eigenvalues --    -0.13615  -0.11760  -0.11636  -0.06745  -0.05352
   1 1   O  1S          0.01327  -0.01469  -0.00130  -0.00512   0.00051
   2        2S          0.02900  -0.03073  -0.00275  -0.01082   0.00209
   3        3S          0.01884  -0.04506  -0.00414  -0.02874  -0.00659
   4        4PX        -0.13054  -0.13677  -0.00746   0.50068  -0.01867
   5        4PY         0.03602   0.11378   0.00691  -0.25168   0.00228
   6        4PZ        -0.00298  -0.00835  -0.02798   0.01333   0.37694
   7        5PX        -0.09645  -0.10243  -0.00623   0.35359  -0.01519
   8        5PY         0.02135   0.07427   0.00446  -0.18694   0.00032
   9        5PZ        -0.00197  -0.00568  -0.01939   0.01001   0.29770
  10        6D 0        0.00098  -0.00107  -0.00013  -0.00082   0.00037
  11        6D+1       -0.00014  -0.00037  -0.00046   0.00033   0.00525
  12        6D-1       -0.00006  -0.00026  -0.00122   0.00018   0.00854
  13        6D+2       -0.00221  -0.00409  -0.00015   0.01336  -0.00040
  14        6D-2       -0.00107  -0.00345  -0.00020   0.00724  -0.00039
  15 2   N  1S          0.02318   0.07623   0.00469   0.03933  -0.00077
  16        2S          0.04538   0.15144   0.00926   0.08216  -0.00188
  17        3S          0.07652   0.25966   0.01322   0.18438   0.00368
  18        4PX        -0.03760  -0.12450  -0.00481  -0.05315  -0.00179
  19        4PY         0.13125   0.41611   0.04657   0.18428  -0.02498
  20        4PZ        -0.01851  -0.06473   0.17335  -0.02398  -0.15409
  21        5PX         0.01946   0.05233  -0.00092   0.00688   0.00585
  22        5PY        -0.09379  -0.29375  -0.03319  -0.09799   0.01981
  23        5PZ         0.01284   0.04730  -0.13536   0.01804   0.13342
  24        6D 0        0.00357   0.01153   0.00227   0.00600  -0.00120
  25        6D+1        0.00002  -0.00021  -0.00183  -0.00047  -0.00101
  26        6D-1        0.00113   0.00348  -0.00808   0.00092   0.00483
  27        6D+2        0.00337   0.00802   0.00140   0.00300  -0.00070
  28        6D-2        0.00082   0.00441  -0.00005   0.00551  -0.00016
  29 3   C  1S          0.02426   0.03568   0.00293  -0.02631  -0.00041
  30        2S         -0.05617  -0.08600  -0.00613   0.06726  -0.00064
  31        3S         -0.13292  -0.27916  -0.03727   0.21601   0.04395
  32        4PX        -0.00442   0.09734   0.00093   0.08579   0.00483
  33        4PY         0.05473   0.03184   0.00496  -0.13205   0.00119
  34        4PZ        -0.00222  -0.00990   0.18822  -0.00273  -0.23960
  35        5PX         0.04324   0.14954   0.01176   0.16610   0.01370
  36        5PY         0.06526   0.11615   0.00760  -0.22659  -0.01193
  37        5PZ        -0.00055  -0.00672   0.13232   0.00439  -0.24932
  38        6D 0       -0.00067  -0.00086   0.00019   0.00117  -0.00022
  39        6D+1       -0.00014  -0.00046   0.00593   0.00046  -0.00135
  40        6D-1       -0.00011  -0.00080   0.01001  -0.00027   0.00234
  41        6D+2        0.00184  -0.00406  -0.00063  -0.00079   0.00008
  42        6D-2       -0.00153  -0.00129  -0.00037  -0.00520   0.00014
  43 4   C  1S         -0.01307  -0.00472  -0.00085  -0.00758   0.00148
  44        2S          0.03310   0.00861   0.00190   0.01762  -0.00116
  45        3S          0.09497   0.05074   0.01173  -0.01089  -0.04462
  46        4PX         0.09269  -0.03274   0.00088  -0.05515   0.00126
  47        4PY        -0.00617   0.00363  -0.00000   0.04013  -0.00217
  48        4PZ        -0.00060  -0.00659  -0.01942  -0.00365  -0.07209
  49        5PX         0.00007  -0.14030  -0.00530   0.21560  -0.00909
  50        5PY         0.00040   0.06653   0.00423  -0.17731  -0.02455
  51        5PZ        -0.00192  -0.00487  -0.02042   0.00483   0.04148
  52        6D 0       -0.00003  -0.00075  -0.00035  -0.00026  -0.00017
  53        6D+1        0.00001   0.00069  -0.00831  -0.00097  -0.01783
  54        6D-1        0.00008   0.00012   0.00624  -0.00071  -0.03088
  55        6D+2        0.01137   0.00777   0.00064  -0.03849   0.00084
  56        6D-2        0.00746   0.00753   0.00025  -0.01965   0.00168
  57 5   C  1S          0.00338   0.02909   0.00143   0.01063  -0.00002
  58        2S         -0.01280  -0.08282  -0.00521  -0.02519   0.00142
  59        3S          0.06383   0.09025   0.02513   0.00823  -0.01342
  60        4PX         0.03060   0.00306   0.00099  -0.00661  -0.00042
  61        4PY         0.03818   0.14432   0.00628   0.04656  -0.00766
  62        4PZ         0.00240  -0.00043  -0.07415  -0.01152  -0.02415
  63        5PX         0.05505   0.09306   0.00970   0.06169  -0.00185
  64        5PY        -0.02278  -0.05458  -0.00966   0.04294   0.00660
  65        5PZ         0.00633   0.01622  -0.05245  -0.00481   0.00891
  66        6D 0       -0.00000  -0.00026  -0.00094   0.00131   0.00067
  67        6D+1       -0.00025  -0.00113   0.01560  -0.00014  -0.01632
  68        6D-1       -0.00107  -0.00420   0.00755  -0.00179  -0.00613
  69        6D+2       -0.00864  -0.03103  -0.00305  -0.01287   0.00163
  70        6D-2        0.00014  -0.00523   0.00028  -0.00436  -0.00014
  71 6   H  1S          0.03537   0.15737   0.01466   0.06888  -0.00715
  72        2S          0.04611   0.19869   0.00851   0.07379  -0.00665
  73        3PX         0.00095   0.00099   0.00013  -0.00085   0.00009
  74        3PY         0.00064   0.00210  -0.00009   0.00041  -0.00044
  75        3PZ         0.00022   0.00054  -0.00196  -0.00027  -0.00236
  76 7   C  1S          0.00714   0.02867   0.00179   0.01628  -0.00053
  77        2S         -0.01825  -0.07197  -0.00473  -0.04067   0.00200
  78        3S         -0.02181  -0.11775  -0.00517  -0.11677   0.00102
  79        4PX        -0.03479  -0.13308  -0.00822  -0.06868   0.00207
  80        4PY         0.04552   0.12476   0.01055   0.04348  -0.00363
  81        4PZ        -0.00606  -0.01333   0.04509  -0.00138  -0.02278
  82        5PX        -0.02832  -0.12043  -0.01215  -0.08115   0.00279
  83        5PY         0.00425  -0.01007  -0.01301  -0.03992   0.00162
  84        5PZ         0.00074   0.00710   0.00391   0.00548   0.02137
  85        6D 0        0.00270   0.00781   0.00199   0.00277  -0.00122
  86        6D+1        0.00059   0.00230  -0.00755   0.00096   0.00745
  87        6D-1       -0.00171  -0.00472   0.00448  -0.00155  -0.00370
  88        6D+2       -0.00400  -0.01295  -0.00059  -0.00613   0.00019
  89        6D-2       -0.00444  -0.01304  -0.00187  -0.00616   0.00121
  90 8   C  1S          0.00741   0.02144   0.00452   0.00917  -0.00340
  91        2S         -0.01461  -0.04251  -0.00719  -0.01952   0.00584
  92        3S         -0.08143  -0.25916  -0.06143  -0.12396   0.04378
  93        4PX        -0.01855  -0.04790  -0.01455  -0.01854   0.00957
  94        4PY        -0.02460  -0.06145  -0.01273  -0.02088   0.00844
  95        4PZ        -0.00421  -0.01310  -0.00613  -0.00628  -0.00079
  96        5PX         0.00933   0.04012  -0.00166   0.02506  -0.00355
  97        5PY        -0.01990  -0.06024  -0.02059  -0.03635   0.01586
  98        5PZ        -0.00790  -0.02602   0.00349  -0.01354  -0.01573
  99        6D 0        0.00021   0.00063   0.00073   0.00029  -0.00020
 100        6D+1       -0.00037  -0.00106  -0.00029  -0.00042   0.00023
 101        6D-1       -0.00084  -0.00209   0.00171  -0.00067  -0.00104
 102        6D+2       -0.00070  -0.00249   0.00083  -0.00118  -0.00079
 103        6D-2       -0.00149  -0.00438  -0.00089  -0.00195   0.00036
 104 9   H  1S          0.00082   0.00227   0.00835   0.00070  -0.00173
 105        2S          0.01580   0.04842   0.02957   0.01636  -0.03096
 106        3PX        -0.00066  -0.00191   0.00023  -0.00087  -0.00037
 107        3PY        -0.00076  -0.00190   0.00010  -0.00054  -0.00019
 108        3PZ        -0.00004  -0.00037  -0.00022  -0.00059   0.00008
 109 10  H  1S          0.00767   0.01725  -0.00720   0.00340   0.00405
 110        2S          0.02942   0.08771  -0.00721   0.02976   0.01521
 111        3PX        -0.00048  -0.00109  -0.00057  -0.00040   0.00067
 112        3PY        -0.00050  -0.00139  -0.00060  -0.00072   0.00051
 113        3PZ        -0.00015  -0.00004  -0.00015   0.00049   0.00011
 114 11  C  1S         -0.00026  -0.00039   0.00069   0.00000  -0.00120
 115        2S          0.00051   0.00100  -0.00122   0.00038   0.00190
 116        3S         -0.00673  -0.02869  -0.00294  -0.02006   0.01413
 117        4PX         0.00064   0.00184   0.00085   0.00047   0.00128
 118        4PY        -0.00346  -0.00851  -0.00383  -0.00223   0.00235
 119        4PZ        -0.00278  -0.00708  -0.00178  -0.00200  -0.00043
 120        5PX        -0.00238  -0.00935   0.00199  -0.00656   0.00104
 121        5PY        -0.00094  -0.00378   0.00029  -0.00224  -0.00069
 122        5PZ         0.00198   0.00767   0.00354   0.00294  -0.00309
 123        6D 0        0.00039   0.00099   0.00028   0.00030  -0.00004
 124        6D+1       -0.00017  -0.00035  -0.00033  -0.00016   0.00029
 125        6D-1       -0.00024  -0.00046   0.00044  -0.00005  -0.00023
 126        6D+2       -0.00044  -0.00128  -0.00058  -0.00048   0.00022
 127        6D-2       -0.00030  -0.00074  -0.00055  -0.00027   0.00046
 128 12  H  1S         -0.00242  -0.00718  -0.00324  -0.00248   0.00044
 129        2S         -0.00213  -0.00573  -0.00182  -0.00174  -0.00195
 130        3PX         0.00011   0.00034  -0.00013   0.00017   0.00011
 131        3PY        -0.00008  -0.00014   0.00000   0.00004  -0.00002
 132        3PZ        -0.00014  -0.00043  -0.00007  -0.00011  -0.00006
 133 13  H  1S          0.00248   0.00612   0.00049   0.00188  -0.00034
 134        2S          0.00039   0.00012   0.00063   0.00186  -0.00424
 135        3PX         0.00011   0.00040   0.00007   0.00020  -0.00003
 136        3PY        -0.00023  -0.00064  -0.00013  -0.00017   0.00008
 137        3PZ        -0.00004  -0.00002  -0.00017   0.00001   0.00010
 138 14  C  1S         -0.00143  -0.00385  -0.01305  -0.00198   0.01036
 139        2S          0.00242   0.00615   0.02860   0.00234  -0.02235
 140        3S         -0.00032   0.00125   0.08571   0.01824  -0.08171
 141        4PX         0.00934   0.02479   0.02902   0.00794  -0.01538
 142        4PY        -0.01207  -0.03328  -0.02475  -0.01071   0.01980
 143        4PZ        -0.01161  -0.03690  -0.04793  -0.01740   0.03155
 144        5PX         0.01049   0.03506  -0.01617   0.02146   0.01621
 145        5PY        -0.00215  -0.00511  -0.01564  -0.00018   0.02361
 146        5PZ        -0.01684  -0.06198  -0.03520  -0.04421   0.02938
 147        6D 0        0.00188   0.00543   0.00190   0.00233  -0.00145
 148        6D+1        0.00069   0.00258  -0.00013   0.00132  -0.00026
 149        6D-1       -0.00125  -0.00343   0.00095  -0.00118  -0.00039
 150        6D+2       -0.00036  -0.00125  -0.00156  -0.00071   0.00132
 151        6D-2       -0.00007   0.00042   0.00059   0.00048  -0.00065
 152 15  H  1S          0.00949   0.02525   0.00099   0.00835  -0.00328
 153        2S          0.02227   0.07381  -0.01703   0.03665   0.02198
 154        3PX         0.00027   0.00081   0.00066   0.00016   0.00002
 155        3PY        -0.00027  -0.00083  -0.00010  -0.00030  -0.00015
 156        3PZ        -0.00051  -0.00150  -0.00116  -0.00048   0.00051
 157 16  H  1S         -0.00629  -0.01466   0.00439  -0.00302  -0.00207
 158        2S         -0.00852  -0.01997  -0.00199  -0.00291  -0.00890
 159        3PX         0.00022   0.00077   0.00048   0.00018  -0.00014
 160        3PY        -0.00021  -0.00045  -0.00134  -0.00038   0.00100
 161        3PZ         0.00001  -0.00016  -0.00142  -0.00021   0.00093
 162 17  C  1S         -0.00169  -0.00371  -0.00154  -0.00108   0.00130
 163        2S          0.00139  -0.00021   0.00192  -0.00206  -0.00146
 164        3S          0.05516   0.17806   0.03451   0.08933  -0.03165
 165        4PX         0.00496   0.00855   0.00843   0.00247  -0.00661
 166        4PY         0.00811   0.01842   0.00067   0.00432   0.00044
 167        4PZ        -0.00039  -0.00007   0.00540   0.00037  -0.00172
 168        5PX         0.01829   0.05696   0.01551   0.03112  -0.01419
 169        5PY         0.00166   0.00496   0.00002   0.00225   0.00155
 170        5PZ        -0.00032   0.00059   0.00616   0.00034  -0.00462
 171        6D 0        0.00042   0.00090   0.00017   0.00014  -0.00005
 172        6D+1       -0.00016  -0.00040  -0.00014  -0.00018  -0.00006
 173        6D-1       -0.00017  -0.00025   0.00006   0.00003   0.00012
 174        6D+2       -0.00014  -0.00022   0.00002   0.00002   0.00006
 175        6D-2       -0.00116  -0.00264  -0.00076  -0.00072   0.00054
 176 18  H  1S         -0.00997  -0.02198  -0.00589  -0.00565   0.00346
 177        2S         -0.01321  -0.03409  -0.00774  -0.01172   0.00607
 178        3PX        -0.00012  -0.00050   0.00011  -0.00031  -0.00015
 179        3PY         0.00004   0.00027  -0.00013   0.00016   0.00004
 180        3PZ        -0.00008  -0.00017   0.00010  -0.00001   0.00001
 181 19  C  1S         -0.00579  -0.01563   0.00851  -0.00597  -0.00720
 182        2S          0.01113   0.02828  -0.02056   0.00880   0.01615
 183        3S          0.03941   0.13687  -0.04476   0.07895   0.05414
 184        4PX         0.01677   0.03986  -0.01726   0.01065   0.00982
 185        4PY        -0.03552  -0.10617   0.02075  -0.03942  -0.01940
 186        4PZ         0.02569   0.07127  -0.02360   0.02714   0.01728
 187        5PX         0.00702   0.01413   0.02070   0.01063  -0.00851
 188        5PY        -0.02314  -0.07575   0.01379  -0.04236  -0.02227
 189        5PZ         0.02703   0.09115  -0.00498   0.05714   0.01141
 190        6D 0        0.00204   0.00601   0.00079   0.00250  -0.00013
 191        6D+1       -0.00036  -0.00158  -0.00058  -0.00090   0.00021
 192        6D-1       -0.00067  -0.00162   0.00104  -0.00059  -0.00068
 193        6D+2       -0.00071  -0.00182   0.00158  -0.00069  -0.00120
 194        6D-2        0.00017   0.00135  -0.00071   0.00101   0.00086
 195 20  H  1S         -0.00811  -0.02483  -0.00880  -0.00781   0.00344
 196        2S         -0.01163  -0.03187  -0.01056  -0.00045   0.00908
 197        3PX         0.00096   0.00386  -0.00036   0.00171   0.00022
 198        3PY        -0.00075  -0.00202   0.00114  -0.00100  -0.00082
 199        3PZ         0.00061   0.00198  -0.00092   0.00069   0.00056
 200 21  H  1S          0.00502   0.01706   0.00486   0.00695  -0.00159
 201        2S          0.00584   0.02362   0.02709   0.01769  -0.02245
 202        3PX         0.00040   0.00092  -0.00046   0.00004  -0.00025
 203        3PY        -0.00086  -0.00242   0.00024  -0.00059   0.00005
 204        3PZ         0.00070   0.00191  -0.00068   0.00063   0.00038
 205 22  C  1S          0.00035   0.00221  -0.00056   0.00135   0.00114
 206        2S         -0.00059  -0.00439   0.00053  -0.00259  -0.00190
 207        3S         -0.00884  -0.03728  -0.00314  -0.02687  -0.00811
 208        4PX        -0.00016  -0.00308  -0.00263  -0.00214  -0.00005
 209        4PY        -0.00730  -0.01856   0.00117  -0.00505  -0.00095
 210        4PZ         0.00156   0.00193   0.00068  -0.00041  -0.00178
 211        5PX        -0.00304  -0.01106  -0.00391  -0.00712   0.00164
 212        5PY        -0.00182  -0.00602  -0.00077  -0.00314  -0.00099
 213        5PZ        -0.00248  -0.00975  -0.00021  -0.00459  -0.00034
 214        6D 0        0.00037   0.00085   0.00013   0.00021  -0.00006
 215        6D+1       -0.00004  -0.00018   0.00015  -0.00003  -0.00011
 216        6D-1       -0.00025  -0.00059   0.00035  -0.00015  -0.00020
 217        6D+2       -0.00064  -0.00160   0.00058  -0.00049  -0.00030
 218        6D-2       -0.00047  -0.00119  -0.00007  -0.00045  -0.00007
 219 23  H  1S          0.00176   0.00453  -0.00011   0.00139   0.00038
 220        2S          0.00059   0.00264  -0.00236   0.00321   0.00495
 221        3PX         0.00010   0.00027  -0.00008   0.00011   0.00000
 222        3PY        -0.00032  -0.00081   0.00000  -0.00022  -0.00001
 223        3PZ         0.00004  -0.00004  -0.00019  -0.00008   0.00011
 224 24  C  1S          0.00348   0.00996  -0.00318   0.00411   0.00262
 225        2S         -0.00813  -0.02242   0.00543  -0.00946  -0.00566
 226        3S         -0.01892  -0.06137   0.04975  -0.01841  -0.02940
 227        4PX        -0.01957  -0.05442   0.01520  -0.02013  -0.01101
 228        4PY         0.01499   0.03956  -0.00471   0.01224   0.00405
 229        4PZ        -0.00483  -0.01180   0.00733  -0.00301  -0.00351
 230        5PX        -0.01713  -0.05535   0.02541  -0.02324  -0.01887
 231        5PY         0.00700   0.01787  -0.00488   0.00410   0.00134
 232        5PZ        -0.00073  -0.00435   0.00165  -0.00434  -0.00144
 233        6D 0        0.00056   0.00160  -0.00015   0.00049   0.00005
 234        6D+1        0.00121   0.00354  -0.00090   0.00144   0.00067
 235        6D-1       -0.00114  -0.00313   0.00068  -0.00114  -0.00042
 236        6D+2       -0.00115  -0.00329   0.00074  -0.00110  -0.00042
 237        6D-2       -0.00111  -0.00360   0.00050  -0.00148  -0.00070
 238 25  C  1S          0.00185   0.00599   0.00572   0.00303  -0.00424
 239        2S         -0.00489  -0.01612  -0.01083  -0.00846   0.00841
 240        3S          0.00307   0.01635  -0.07155   0.01355   0.05549
 241        4PX        -0.01308  -0.03958  -0.02799  -0.01641   0.01767
 242        4PY         0.00921   0.02338   0.00987   0.00729  -0.00625
 243        4PZ         0.00142   0.00535   0.01136   0.00226  -0.00540
 244        5PX        -0.00657  -0.02085  -0.03757  -0.00910   0.02950
 245        5PY         0.00579   0.01382   0.01032   0.00272  -0.00491
 246        5PZ        -0.00092  -0.00224   0.00630   0.00004  -0.00361
[...]
 00,-0.00019026,-0.00016352,0.00007599,-0.00018469,-0.00020306,-0.00001
 651,-0.00000604,-0.00000874,0.00000169,-0.00000207,0.00000935,0.000003
 42,-0.00000116,-0.00000654,-0.00002305,-0.00000664,0.00000189,-0.00001
 112,0.00001513,0.00000805,0.00000840,-0.00000219,-0.00000270,-0.000073
 32,-0.00000052,0.00002606,0.00000825,0.00000765,0.00000528,0.00003766,
 0.00000533,0.00002934,0.00001579,0.00000413,0.00000988,-0.00000887,0.0
 0001792,0.00000697,-0.00006322,-0.00002677,-0.00002605,0.00006322,0.00
 002351,-0.00001370,0.00000597,0.00000549,0.00001068,-0.00002775,0.0000
 0497,-0.00001099,0.00000767,-0.00000456,0.00000334,0.00003649,-0.00000
 007,0.00001574,0.00002687,0.00000055,-0.00001883,-0.00001981,0.0000100
 4,-0.00000549,-0.00001176,0.00000682,0.00000157,0.00001853,0.00000132,
 0.00000315,0.00076022,0.00044959,0.00084368,-0.00012837,-0.00067672,-0
 .00009402,0.00354943,-0.00284457,-0.00266997,0.00115267,0.00078124,0.0
 0013979,0.02692711,0.00746575,0.00116836,-0.21067731,-0.04675372,-0.02
 475802,0.21021234,0.04863460,-0.00054858,0.00006478,-0.00110662,0.0001
 8322,0.00036254,-0.00000387,-0.00986144,-0.00327985,0.00587394,0.00043
 886,-0.00369306,0.00723549,-0.00076336,0.00185413,-0.00499366,0.000496
 30,-0.00005205,0.00017099,0.00002510,-0.00014016,0.00048710,-0.0000503
 1,0.00002344,-0.00001088,-0.00000425,-0.00001146,-0.00000956,0.0000067
 3,0.00000781,-0.00000137,0.00000457,0.00000159,0.00000283,-0.00000418,
 -0.00000191,-0.00000306,0.00000328,0.00000287,-0.00000179,0.00008519,-
 0.00002692,-0.00002593,0.00000643,0.00001512,-0.00001392,-0.00000896,-
 0.00000935,0.00001877,0.00001068,0.00001069,0.00001192,-0.00000671,0.0
 0000805,-0.00000190,-0.00006469,0.00002250,-0.00003652,0.00003840,-0.0
 0000967,0.00003174,-0.00000469,-0.00001270,-0.00002823,-0.00001543,0.0
 0000448,-0.00000845,0.00000066,-0.00000429,-0.00000498,0.00002050,-0.0
 0001131,0.00001654,-0.00000132,-0.00000091,0.00002310,0.00000217,0.000
 00345,-0.00000896,-0.00000412,0.00000510,0.00000980,0.00000127,-0.0000
 0474,0.00000535,0.00020915,0.00084272,-0.00205593,-0.00013675,-0.00002
 579,-0.00042283,0.00091517,-0.00274092,0.00477945,0.00033016,0.0000590
 9,0.00050518,0.00873279,0.00091016,0.00453864,-0.06638166,-0.02453958,
 0.02442563,0.06626640,0.03020432,-0.03901190,0.00380120,0.00031922,0.0
 0042797,0.00015015,0.00126801,0.00026994,0.00183343,0.00843526,0.00197
 824,-0.03962383,-0.01745652,-0.00626831,-0.00128683,-0.00289396,-0.000
 63907,-0.00059765,0.00047055,0.00011382,0.00023050,-0.00032862,-0.0001
 0470,-0.00010057,-0.00000105,-0.00001281,0.00000526,-0.00002583,0.0000
 0692,0.00001534,-0.00001011,-0.00002361,-0.00002890,-0.00001759,0.0000
 0894,-0.00002372,0.00002175,0.00000810,0.00001786,-0.00000235,-0.00000
 682,-0.00011431,0.00004886,0.00008756,0.00002910,-0.00000039,0.0000114
 4,0.00003496,-0.00000140,0.00003459,0.00004761,0.00002352,0.00002326,-
 0.00002779,0.00004270,0.00001458,-0.00012401,0.00008278,-0.00002576,0.
 00006575,0.00003460,0.00000221,0.00001686,0.00000390,0.00000085,-0.000
 03378,0.00000630,-0.00002574,0.00001381,-0.00001010,0.00000386,0.00002
 951,-0.00005577,0.00003395,0.00001877,-0.00001865,-0.00006887,-0.00004
 556,0.00002578,-0.00001101,-0.00001042,0.00002247,0.00001098,0.0000214
 7,-0.00000042,0.00000474,-0.00034401,-0.00039776,-0.00020438,-0.095761
 66,-0.01358146,-0.00723781,-0.02323308,-0.00982160,-0.00345690,0.00017
 574,0.00057324,0.00030754,0.00416041,-0.00009970,-0.00012836,-0.001450
 97,-0.00108148,-0.00028089,-0.00007856,0.00002953,0.00008866,0.1523174
 7,0.00414218,-0.00077002,0.00071263,-0.00007696,0.00063003,0.00015809,
 -0.00001859,-0.00047693,-0.00097366,0.00684108,0.00399656,-0.00012339,
 0.00056167,-0.00061646,0.00003928,0.00000402,-0.00004593,-0.00001350,0
 .00008257,-0.00014152,-0.00006510,-0.00002971,-0.00000486,-0.00000443,
 0.00000314,-0.00001039,-0.00000044,0.00000507,-0.00000434,-0.00000748,
 -0.00000905,-0.00000633,0.00000343,-0.00000762,0.00000642,0.00000173,0
 .00000592,-0.00000012,-0.00000229,-0.00004713,0.00001881,0.00003208,0.
 00001052,0.00000037,0.00000609,0.00000654,-0.00000118,0.00000649,0.000
 01518,0.00000599,0.00000575,-0.00000876,0.00001323,0.00000475,-0.00003
 940,0.00003435,-0.00000993,0.00001444,0.00000334,-0.00000071,0.0000064
 4,-0.00000053,-0.00000142,-0.00000793,0.00000095,-0.00000809,0.0000042
 5,-0.00000297,0.00000090,0.00000340,-0.00002370,0.00001118,0.00000216,
 -0.00000685,-0.00002769,-0.00001666,0.00000901,-0.00000365,-0.00000209
 ,0.00000708,0.00000342,0.00000584,-0.00000014,0.00000143,-0.00029729,-
 0.00035176,-0.00028828,-0.02295280,-0.02727279,-0.00498212,-0.02180121
 ,-0.00553113,-0.00286415,-0.00121070,0.00005865,0.00091619,0.00098851,
 -0.00098546,-0.00127987,-0.00041310,0.00001704,0.00001664,-0.00007215,
 -0.00000363,0.00014359,0.03433972,0.03143889,0.00129622,0.00041831,-0.
 00243234,-0.00003527,0.00022978,-0.00000074,-0.00023759,-0.00061413,0.
 00206566,0.00055487,-0.00057526,0.00490707,0.00011041,-0.00009536,-0.0
 0052268,-0.00001446,0.00000351,0.00000941,0.00003168,-0.00005948,0.000
 04477,-0.00001160,0.00000038,-0.00000421,-0.00000201,-0.00000139,0.000
 00456,0.00000159,-0.00000389,-0.00000429,-0.00000173,-0.00000114,-0.00
 000008,-0.00000181,0.00000216,0.00000133,0.00000070,-0.00000164,-0.000
 00003,-0.00000345,0.00000586,0.00000534,0.00000309,-0.00000463,0.00000
 151,0.00000483,0.00000132,0.00000328,0.00000475,0.00000374,0.00000318,
 -0.00000328,0.00000497,0.00000126,-0.00001563,0.00001155,-0.00000668,0
 .00000091,-0.00000164,-0.00000062,0.00000070,0.00000250,0.00000277,-0.
 00000205,0.00000048,-0.00000400,0.00000157,-0.00000083,0.00000281,-0.0
 0000121,-0.00001038,0.00000310,0.00000302,-0.00000157,-0.00000320,-0.0
 0000184,0.00000130,0.00000043,-0.00000079,0.00000250,0.00000015,0.0000
 0203,0.00000050,0.00000034,-0.00016560,-0.00034314,0.00040024,-0.00878
 545,-0.00467816,-0.01532081,-0.00798561,-0.00285981,0.00101804,-0.0003
 4395,0.00102121,-0.00259695,0.00073381,-0.00139339,0.00262512,-0.00013
 151,0.00021049,0.00014796,-0.00003250,0.00013368,-0.00037595,0.0150393
 2,0.00858739,0.01002112,-0.00013137,-0.00002469,-0.00005921,-0.0017535
 5,-0.00013212,0.00127566,-0.00016126,0.00046336,-0.00004596,-0.0000576
 4,0.00003970,0.00003119,0.00023949,-0.00114792,-0.00016251,0.00018838,
 0.00001174,0.00014182,-0.00281117,0.00523226,-0.00155720,0.00072411,0.
 00051126,-0.00020818,-0.00003090,-0.00004282,-0.00000098,0.00005900,-0
 .00007807,0.00002927,-0.00011286,-0.00002225,-0.00010780,0.00000719,-0
 .00000950,0.00003128,-0.00001670,0.00003260,0.00007978,0.00003756,0.00
 027465,-0.00040619,0.00007185,-0.00011200,0.00008094,0.00003323,-0.000
 03940,0.00007831,0.00072870,-0.00111091,-0.00110113,-0.00011895,-0.000
 29870,0.00039864,-0.02016679,-0.01486315,0.01650062,0.00159648,-0.0000
 8998,0.00002333,0.00088801,-0.00061580,-0.00060647,-0.00267027,-0.0007
 8477,0.00240901,-0.00010184,-0.00007686,-0.00000271,-0.24381466,-0.194
 26975,0.20378876,-0.00154307,0.00020924,-0.00328832,0.00076264,0.00050
 264,-0.00061342,0.01059510,0.01016608,-0.01190985,0.00058201,-0.000332
 13,0.00109908,0.00001719,0.00005879,0.00001595,0.00016389,-0.00010496,
 -0.00000353,0.00010344,0.00024274,0.00006744,0.00000317,0.00000256,-0.
 00000085,-0.00033959,0.00002460,0.00001335,0.00002619,-0.00029454,-0.0
 0009647,0.00001530,-0.00002129,-0.00000305,-0.00004735,-0.00001562,-0.
 00000705,0.25567256,0.00004311,0.00004703,0.00003404,0.00110326,0.0002
 7591,-0.00064576,0.00004363,-0.00017429,0.00007062,0.00001309,-0.00004
 510,-0.00002847,0.00002150,0.00051739,0.00003443,-0.00012322,-0.000016
 68,-0.00009933,0.00270041,-0.00267649,0.00040255,0.00056844,-0.0000222
 2,-0.00017421,-0.00006170,0.00005199,0.00002359,-0.00001293,0.00015296
 ,0.00007913,0.00016328,0.00049872,-0.00057362,0.00003622,-0.00002871,0
 .00004285,-0.00000955,0.00012387,0.00004882,-0.00003504,-0.00020192,0.
 00013697,-0.00004999,0.00001556,-0.00003995,-0.00004268,0.00004151,-0.
 00000746,0.00006650,-0.00561128,-0.00509004,-0.00146139,-0.00110967,0.
 00130993,0.01609953,0.01059671,-0.01287796,-0.00105249,0.00086812,-0.0
 0017847,-0.00106148,0.00070298,0.00039542,-0.02145650,-0.01852841,0.01
 796041,0.00009996,0.00161056,-0.00000670,-0.19239403,-0.16678640,0.165
 82566,0.00086236,0.00061444,0.00033983,-0.00024475,0.00002257,0.000095
 62,-0.00152268,-0.00177948,0.00061001,0.00029536,0.00047083,-0.0000854
 0,-0.00000529,-0.00001289,-0.00000590,-0.00005849,0.00005585,-0.000002
 19,-0.00004173,-0.00008260,-0.00002073,-0.00000196,-0.00000145,0.00000
 096,0.00010986,-0.00001251,-0.00000841,-0.00000204,0.00008777,0.000031
 57,-0.00000491,0.00000230,0.00000222,0.00001304,0.00000492,0.00000163,
 0.19668187,0.17925656,0.00002951,-0.00000131,0.00001029,0.00010441,-0.
 00005337,-0.00004895,0.00003523,-0.00011155,-0.00003611,0.00001653,-0.
 00000155,-0.00000164,-0.00004023,0.00030373,0.00010955,-0.00002465,-0.
 00001080,0.00000274,-0.00006172,-0.00063042,0.00071718,0.00018047,0.00
 000002,-0.00016217,0.00001913,0.00002685,0.00001827,-0.00001274,0.0000
 5939,-0.00000890,-0.00024440,-0.00050254,-0.00000360,0.00000807,0.0000
 5896,0.00003731,0.00009350,0.00001262,0.00015356,-0.00066255,-0.000092
 24,0.00047327,0.00003907,-0.00000349,0.00011128,0.00006480,-0.00002816
 ,-0.00000819,-0.00042810,-0.00356617,-0.00173482,-0.00067415,-0.000734
 13,0.00070078,-0.00040277,0.00004729,-0.00033571,0.00028145,-0.0000738
 3,-0.00008669,0.00001962,-0.00030659,0.00040419,-0.01365130,-0.0125260
 0,0.01037718,-0.00004484,0.00093214,0.00081426,0.20439188,0.16791242,-
 0.18642351,-0.00466559,-0.00018849,-0.00549552,0.00147217,0.00123025,-
 0.00103074,0.01977859,0.01629268,-0.01827116,0.00064668,-0.00072463,0.
 00113633,-0.00000727,-0.00001962,-0.00000302,-0.00004320,0.00002250,0.
 00000808,-0.00002695,-0.00006765,-0.00002117,-0.00000058,-0.00000002,-
 0.00000035,0.00009565,-0.00000437,0.00000058,-0.00000641,0.00009061,0.
 00002884,-0.00000292,0.00000776,-0.00000436,0.00001109,0.00000337,0.00
 000165,-0.20662050,-0.16854399,0.19630281,-0.00004511,-0.00003022,-0.0
 0001917,-0.00000130,0.00028019,-0.00005025,-0.00009363,0.00015947,0.00
 005274,-0.00002702,0.00003705,0.00001025,0.00017588,-0.00029431,-0.000
 08552,-0.00000494,-0.00003804,0.00000093,0.00095428,0.00000845,0.00038
 025,-0.00003684,0.00019290,0.00006376,0.00005831,-0.00007063,-0.000043
 05,0.00004937,-0.00004871,0.00000609,0.00095219,0.00167595,-0.00059991
 ,0.00009716,-0.00096381,-0.00030696,0.00052068,-0.00003954,0.00024896,
 -0.00169063,-0.00382731,0.00304173,-0.00119404,0.00086564,-0.00008684,
 0.00028878,-0.00000144,-0.00008943,-0.00028906,-0.00025477,-0.00012488
 ,-0.00003891,-0.00003724,-0.00004277,0.00046730,-0.00032511,-0.0026631
 7,0.00004821,0.00004302,0.00011203,-0.00058111,0.00040636,0.00018214,0
 .00035180,0.00036948,0.00113334,0.00038509,-0.00000450,-0.00004594,-0.
 00885401,0.00466192,0.00182682,-0.01799085,0.01076336,0.00098550,0.001
 08708,0.00019569,0.00004748,-0.46290271,0.26101674,0.03920767,0.007527
 72,-0.00659849,-0.00150729,0.00000545,0.00003037,0.00000719,0.00008982
 ,-0.00004659,-0.00001397,0.00004667,0.00011885,0.00003692,0.00000133,0
 .00000112,0.00000018,-0.00016926,0.00000107,0.00000183,0.00002718,-0.0
 0014692,-0.00004114,0.00000375,-0.00001773,-0.00000354,-0.00002982,-0.
 00000873,-0.00000283,0.00070019,0.00000034,-0.00003346,0.48005320,0.00
 002334,0.00000808,-0.00000369,0.00009453,-0.00002035,-0.00018014,0.000
 05645,-0.00005114,-0.00000266,0.00001376,-0.00001227,-0.00000290,-0.00
 010689,0.00006252,-0.00002068,-0.00000003,0.00003963,0.00001029,-0.000
 11183,-0.00031174,0.00033409,0.00005200,0.00001194,-0.00001075,-0.0000
 0368,-0.00006307,-0.00001260,0.00001291,0.00005618,-0.00000357,-0.0004
 1026,0.00162086,-0.00019486,0.00025185,-0.00029152,0.00002489,0.000355
 72,0.00020046,0.00018428,-0.00264808,-0.00215010,0.00223262,-0.0008939
 2,0.00089543,0.00015702,-0.00011118,0.00021096,0.00020972,-0.00001622,
 -0.00015890,-0.00000054,0.00000233,0.00000250,-0.00003385,0.00001846,0
 .00044194,0.00147747,-0.00049274,0.00048477,-0.00002271,0.00060760,0.0
 0018491,-0.00000913,-0.00086848,0.00056984,-0.00034184,-0.00001384,-0.
 00001104,0.00010449,0.00175538,-0.00295095,-0.00131986,-0.02110912,0.0
 0916051,0.00159460,0.00102515,0.00091197,-0.00055333,0.25805790,-0.155
 58933,-0.02560506,0.03176886,-0.01362642,-0.00052218,-0.00000086,-0.00
 001557,-0.00000462,-0.00003591,0.00001471,0.00000269,-0.00001416,-0.00
 004934,-0.00001427,0.00000026,-0.00000027,0.00000035,0.00006881,0.0000
 1044,-0.00000084,-0.00002371,0.00005054,0.00001566,-0.00000320,0.00001
 399,0.00000602,0.00001623,0.00000438,0.00000083,0.00006510,-0.00010140
 ,0.00016713,-0.26745415,0.16011897,-0.00000181,-0.00000801,0.00001535,
 -0.00007479,-0.00017271,0.00038453,-0.00000114,-0.00002361,-0.00003353
 ,-0.00000022,0.00000781,-0.00000240,0.00002819,0.00000635,0.00008750,-
 0.00001373,-0.00001744,-0.00003844,0.00043208,0.00036424,-0.00089505,0
 .00000981,-0.00000710,0.00008943,0.00002818,0.00009624,0.00007808,-0.0
 0000289,-0.00012874,-0.00004723,-0.00102783,-0.00082909,0.00063646,-0.
 00023000,0.00034478,0.00031910,-0.00020126,-0.00006987,-0.00025554,0.0
 0294156,0.00331334,-0.00259830,0.00146716,-0.00057878,0.00032512,-0.00
 059112,0.00046871,0.00015628,-0.00002687,-0.00002088,-0.00021647,-0.00
 002556,-0.00004679,0.00006083,-0.00196916,0.00015542,-0.00700278,0.000
 37514,-0.00010199,0.00000785,-0.00197545,0.00098089,0.00040413,0.00009
 005,0.00069549,0.00225163,0.00058298,0.00030582,0.00006503,-0.03077708
 ,0.01676984,0.00141235,0.01896904,-0.01121876,-0.00239251,-0.00061154,
 -0.00076167,0.00040438,0.03661266,-0.02450882,-0.00557140,0.01570934,-
 0.00683681,-0.00114502,-0.00000023,-0.00000239,0.00000150,-0.00000500,
 -0.00000086,0.00000583,-0.00000240,-0.00000630,-0.00000414,-0.00000002
 ,0.00000030,-0.00000083,0.00001023,-0.00000111,0.00000586,-0.00000246,
 0.00000719,0.00000386,-0.00000085,0.00000298,-0.00000908,-0.00000020,-
 0.00000012,0.00000101,0.00104572,0.00016418,0.00164426,-0.04113298,0.0
 2235042,0.01212766,-0.00003829,0.00003186,0.00000921,0.00000674,0.0005
 0254,0.00012043,-0.00006033,0.00017256,0.00004631,-0.00003151,-0.00002
 933,-0.00001145,0.00014036,-0.00021292,-0.00008397,0.00000281,0.000040
 16,0.00001934,0.00003850,-0.00090748,-0.00058281,-0.00167236,-0.004274
 64,0.00323091,0.00068509,-0.00021905,-0.00005404,-0.00116631,0.0010885
 0,0.00044593,0.00126562,0.00081448,-0.00137546,0.00056875,-0.00024604,
 0.00077179,0.00014815,-0.00034504,-0.00031433,-0.00010034,0.00011074,-
 0.00007976,0.00000456,-0.00002690,-0.00003982,0.00008916,-0.00000406,0
 .00006879,-0.01934495,0.01174021,0.00102164,0.00062874,-0.00007818,-0.
 00069840,0.00068290,-0.00163235,-0.00090397,0.00043995,-0.00024939,-0.
 00000532,-0.00003789,-0.00011922,0.00003116,-0.44739340,0.26044930,0.0
 4838535,-0.01091857,0.00616259,0.00509810,0.00869961,-0.00693444,-0.00
 232563,-0.00013054,-0.00004933,0.00014758,0.00001351,0.00003944,0.0000
 3404,0.00062728,-0.00019226,-0.00006838,0.00012993,-0.00002800,0.00013
 413,0.00000503,0.00002714,0.00000631,0.00006609,-0.00001494,-0.0000055
 1,0.00002949,0.00008869,0.00002730,0.00000092,0.00000079,0.00000023,-0
 .00013061,0.00000356,0.00000415,0.00001698,-0.00011941,-0.00003265,0.0
 0000499,-0.00001071,-0.00000265,-0.00002240,-0.00000717,-0.00000227,0.
 00066229,0.00072109,0.00036647,0.00005782,0.00007162,0.00037244,0.4660
 3226,0.00003886,0.00005589,0.00001421,0.00021066,0.00018456,-0.0000139
 5,0.00010403,-0.00003689,-0.00001231,0.00001590,-0.00006962,-0.0000175
 3,-0.00015026,0.00012806,-0.00005689,0.00004847,0.00010943,0.00006089,
 -0.00080471,-0.00073389,0.00042607,-0.00284142,-0.00222308,0.00292846,
 0.00031065,-0.00024965,-0.00002553,-0.00106587,0.00085269,0.00025799,0
 .00009227,0.00093832,-0.00072626,0.00035730,-0.00007090,-0.00006393,-0
 .00003086,-0.00010234,-0.00033763,0.00006790,0.00001891,0.00005861,-0.
 00006237,0.00006244,-0.00011106,0.00002300,-0.00000162,0.00010032,-0.0
 2130127,0.01111485,0.00322147,0.00054317,0.00095554,-0.00090653,-0.003
 05335,-0.00554022,-0.00343882,0.00202034,-0.00082699,-0.00051428,-0.00
 056553,0.00043089,0.00008958,0.26086760,-0.15653801,-0.02909059,0.0029
 6726,-0.00283673,-0.00224316,0.02888789,-0.01700475,-0.00279863,-0.000
 04516,-0.00015451,-0.00011653,0.00003435,0.00005527,-0.00002678,0.0006
 5850,0.00167456,0.00129151,-0.00032434,0.00000771,0.00050560,-0.000001
 20,-0.00002007,-0.00000583,-0.00006101,0.00004119,0.00000969,-0.000030
 18,-0.00008020,-0.00002378,-0.00000040,-0.00000096,0.00000036,0.000111
 07,0.00000875,-0.00000120,-0.00003019,0.00008718,0.00002229,-0.0000022
 9,0.00001836,0.00000998,0.00002733,0.00000704,0.00000174,-0.00003199,0
 .00117294,0.00102320,-0.00061974,0.00032790,-0.00069216,-0.26636441,0.
 16823795,0.00001092,-0.00000458,0.00000241,0.00004122,-0.00011933,0.00
 001592,0.00002733,-0.00002041,-0.00000878,0.00000854,-0.00000471,0.000
 00061,-0.00008020,-0.00000480,-0.00002402,0.00002337,0.00000655,0.0000
 0485,-0.00044220,0.00041797,0.00038289,0.00180809,0.00299014,-0.002091
 94,0.00029167,-0.00010573,0.00020241,0.00102346,-0.00068016,0.00026517
 ,0.00050550,-0.00138051,0.00120474,-0.00037245,0.00039284,-0.00033527,
 -0.00021681,0.00021209,0.00041184,0.00003953,-0.00002184,0.00011391,-0
 .00005027,0.00001690,-0.00000635,-0.00004875,0.00003828,-0.00001887,0.
 01878212,-0.01096122,-0.00403280,-0.00091517,-0.00013913,0.00090381,-0
 .00128100,-0.00248735,-0.00098247,0.00080119,-0.00040704,0.00031666,0.
 00032412,-0.00023730,0.00016085,0.05031049,-0.03011518,-0.01613086,-0.
 03125544,0.01861493,0.00616526,0.01413411,-0.00830594,-0.00343678,-0.0
 0000719,0.00002178,-0.00036700,-0.00000594,-0.00000916,-0.00004473,0.0
 0125456,0.00018688,0.00077862,-0.00020299,0.00012847,0.00033880,-0.000
 00156,-0.00000677,-0.00000218,-0.00001404,0.00000581,0.00000078,-0.000
 00727,-0.00002231,-0.00000660,-0.00000001,-0.00000030,0.00000026,0.000
 03169,-0.00000003,-0.00000211,-0.00000524,0.00002816,0.00000628,-0.000
 00136,0.00000408,0.00000326,0.00000666,0.00000189,0.00000049,-0.000308
 79,0.00077812,0.00062420,-0.00045272,-0.00001252,-0.00027529,-0.053755
 19,0.03120143,0.01586202\\0.02162862,0.06500522,0.02233993,0.00463250,
 -0.01922506,-0.00195234,0.01102768,-0.01345840,-0.00134085,-0.01471930
 ,-0.09776062,-0.03600497,-0.13143669,-0.06965253,-0.00930196,0.1390986
 8,0.07777803,0.01144126,-0.01655605,0.03511228,-0.01109658,0.10379679,
 0.02961445,0.04228661,-0.03927699,0.01956497,-0.09012662,-0.06661920,-
 0.05234482,0.05292106,-0.01327328,0.09474079,-0.03834629,0.08692747,-0
 .05465594,-0.00543347,-0.06622792,-0.05349794,0.05417435,0.05195341,-0
 .05377850,-0.09271693,-0.06640678,-0.04761518,0.05859275,0.01880116,0.
 08995081,0.03849451,-0.00253283,0.07847464,0.03606048,-0.01615739,-0.0
 7883530,-0.03715494,0.03172777,-0.11491583,0.05364755,0.01925527,0.089
 09297,0.04217266,-0.04171803,0.01247040,-0.08941443,-0.03889744,0.0338
 2711,0.09586626,-0.03912391,0.01485028,-0.08924031,-0.05756815,-0.0310
 4846,0.06303088,-0.04066164,0.02873515,-0.08969434,0.03369496,-0.01461
 221,0.08083412,-0.10805479,-0.04169410,-0.04665714,0.01620371,0.090340
 52,0.04225280,0.00173887,0.00676182,0.00279734,-0.01194619,0.02750096,
 0.01260739,0.08854071,-0.09779609,-0.03252243,-0.10898847,0.09771921,0
 .03005097,0.00457841,0.00263565,0.00019750,-0.13198145,-0.04066228,-0.
 01352180,0.14384042,0.03930016,0.01243978,0.00074771,0.00035528,0.0000
 5852,0.05778489,0.04793906,-0.04803384,0.08917106,-0.04985367,-0.00865
 597,0.08699644,-0.05036282,-0.01105149\\\@
 The archive entry for this job was punched.

 Writing a WFNX file to "SOWVEI_Complex_1_Ligand_0_ON_Cu_oriented.wfx"


 THE NUMBERS ARE MEANINGLESS, BUT THE TRENDS ARE IMPORTANT.
     -- LARRY BURGGRAF
 Job cpu time:       0 days  1 hours 32 minutes  7.7 seconds.
 Elapsed time:       0 days  1 hours 32 minutes 27.3 seconds.
 File lengths (MBytes):  RWF=   1028 Int=      0 D2E=      0 Chk=     16 Scr=      8
 Normal termination of Gaussian 16 at Mon Mar  6 11:54:03 2023.
