 Entering Gaussian System, Link 0=g16
 Initial command:
 /ssoft/spack/external/gaussian/g16-C.01/avx2/g16/l1.exe "/scratch/lcmd/2387824/Gau-3435666.inp" -scrdir="/scratch/lcmd/2387824/"
 Entering Link 1 = /ssoft/spack/external/gaussian/g16-C.01/avx2/g16/l1.exe PID=   3435673.
  
 Copyright (c) 1988-2019, Gaussian, Inc.  All Rights Reserved.
  
 This is part of the Gaussian(R) 16 program.  It is based on
 the Gaussian(R) 09 system (copyright 2009, Gaussian, Inc.),
 the Gaussian(R) 03 system (copyright 2003, Gaussian, Inc.),
 the Gaussian(R) 98 system (copyright 1998, Gaussian, Inc.),
 the Gaussian(R) 94 system (copyright 1995, Gaussian, Inc.),
 the Gaussian 92(TM) system (copyright 1992, Gaussian, Inc.),
 the Gaussian 90(TM) system (copyright 1990, Gaussian, Inc.),
 the Gaussian 88(TM) system (copyright 1988, Gaussian, Inc.),
 the Gaussian 86(TM) system (copyright 1986, Carnegie Mellon
 University), and the Gaussian 82(TM) system (copyright 1983,
 Carnegie Mellon University). Gaussian is a federally registered
 trademark of Gaussian, Inc.
  
 This software contains proprietary and confidential information,
 including trade secrets, belonging to Gaussian, Inc.
  
 This software is provided under written license and may be
 used, copied, transmitted, or stored only in accord with that
 written license.
  
 The following legend is applicable only to US Government
 contracts under FAR:
  
                    RESTRICTED RIGHTS LEGEND
  
 Use, reproduction and disclosure by the US Government is
 subject to restrictions as set forth in subparagraphs (a)
 and (c) of the Commercial Computer Software - Restricted
 Rights clause in FAR 52.227-19.
  
 Gaussian, Inc.
 340 Quinnipiac St., Bldg. 40, Wallingford CT 06492
  
  
 ---------------------------------------------------------------
 Warning -- This program may not be used in any manner that
 competes with the business of Gaussian, Inc. or will provide
 assistance to any competitor of Gaussian, Inc.  The licensee
 of this program is prohibited from giving any competitor of
 Gaussian, Inc. access to this program.  By using this program,
 the user acknowledges that Gaussian, Inc. is engaged in the
 business of creating and licensing software in the field of
 computational chemistry and represents and warrants to the
 licensee that it is not a competitor of Gaussian, Inc. and that
 it will not use this program in any manner prohibited above.
 ---------------------------------------------------------------
  

 Cite this work as:
 Gaussian 16, Revision C.01,
 M. J. Frisch, G. W. Trucks, H. B. Schlegel, G. E. Scuseria, 
 M. A. Robb, J. R. Cheeseman, G. Scalmani, V. Barone, 
 G. A. Petersson, H. Nakatsuji, X. Li, M. Caricato, A. V. Marenich, 
 J. Bloino, B. G. Janesko, R. Gomperts, B. Mennucci, H. P. Hratchian, 
 J. V. Ortiz, A. F. Izmaylov, J. L. Sonnenberg, D. Williams-Young, 
 F. Ding, F. Lipparini, F. Egidi, J. Goings, B. Peng, A. Petrone, 
 T. Henderson, D. Ranasinghe, V. G. Zakrzewski, J. Gao, N. Rega, 
 G. Zheng, W. Liang, M. Hada, M. Ehara, K. Toyota, R. Fukuda, 
 J. Hasegawa, M. Ishida, T. Nakajima, Y. Honda, O. Kitao, H. Nakai, 
 T. Vreven, K. Throssell, J. A. Montgomery, Jr., J. E. Peralta, 
 F. Ogliaro, M. J. Bearpark, J. J. Heyd, E. N. Brothers, K. N. Kudin, 
 V. N. Staroverov, T. A. Keith, R. Kobayashi, J. Normand, 
 K. Raghavachari, A. P. Rendell, J. C. Burant, S. S. Iyengar, 
 J. Tomasi, M. Cossi, J. M. Millam, M. Klene, C. Adamo, R. Cammi, 
 J. W. Ochterski, R. L. Martin, K. Morokuma, O. Farkas, 
 J. B. Foresman, and D. J. Fox, Gaussian, Inc., Wallingford CT, 2019.
 
 ******************************************
 Gaussian 16:  ES64L-G16RevC.01  3-Jul-2019
                 6-Mar-2023 
 ******************************************
 %nprocshared=1
 Will use up to    1 processors via shared memory.
 %mem=8000MB
 %chk=SUHNAM_Complex_1_Ligand_1_ON_Cu_oriented.chk
 ----------------------------------------------------------------------
 #p pop=(regular,nbo,savenbos) freq=noraman def2svp empiricaldispersion
 =gd3bj output=wfx pbe1pbe
 ----------------------------------------------------------------------
 1/10=4,30=1,38=1/1,3;
 2/12=2,17=6,18=5,40=1/2;
 3/5=43,7=101,11=2,25=1,30=1,71=2,74=-13,124=41,140=1/1,2,3;
 4//1;
 5/5=2,38=5,98=1/2;
 8/6=4,10=90,11=11/1;
 11/6=1,8=1,9=11,15=111,16=1/1,2,10;
 10/6=1/2;
 6/28=1,40=1,73=1/1,7;
 7/8=1,10=1,25=1/1,2,3,16;
 1/10=4,30=1/3;
 99/6=200/99;
 Leave Link    1 at Mon Mar  6 10:21:36 2023, MaxMem=  1048576000 cpu:               0.0 elap:               0.1
 (Enter /ssoft/spack/external/gaussian/g16-C.01/avx2/g16/l101.exe)
 ----------------------------------------
 SUHNAM_Complex_1_Ligand_1_ON_Cu_oriented
 ----------------------------------------
 Symbolic Z-matrix:
 Charge = -1 Multiplicity = 1
 O                     1.51505  -1.16178   0. 
 N                    -1.30445  -1.47302   0. 
 C                     1.51025  -2.42983  -0.32051 
 C                     0.45133  -4.59276  -0.69244 
 C                     0.34022  -3.23234  -0.39092 
 C                    -0.98031  -2.70386  -0.1654 
 H                    -1.68245  -3.32864  -0.13673 
 C                    -2.7553   -1.18401   0.20523 
 H                    -3.16839  -1.99694   0.59221 
 C                    -3.41746  -0.92888  -1.13395 
 H                    -3.27863  -1.69399  -1.71437 
 H                    -3.02925  -0.13925  -1.54137 
 H                    -4.36879  -0.7908   -1.00362 
 C                    -2.88759  -0.06961   1.23213 
 C                    -2.5609   -0.32335   2.55364 
 H                    -2.29531  -1.18928   2.8058 
 C                    -2.62015   0.67625   3.51048 
 H                    -2.40269   0.48316   4.40373 
 C                    -2.99644   1.952     3.15778 
 C                    -3.33704   2.22444   1.84966 
 H                    -3.60733   3.08924   1.60269 
 C                    -3.27953   1.22002   0.90234 
 H                    -3.51143   1.41466   0.01331 
 O                    -2.98987   2.88316   4.16588 
 C                    -3.18246   4.23669   3.79134 
 H                    -3.15906   4.79705   4.58304 
 H                    -4.04255   4.33055   3.35335 
 H                    -2.47743   4.50692   3.18237 
 C                     2.74994  -3.07142  -0.59827 
 H                     3.54547  -2.5722   -0.55974 
 C                     2.80754  -4.40573  -0.92336 
 H                     3.63871  -4.79886  -1.11884 
 C                     1.65081  -5.18837  -0.9675 
 H                    -0.32884  -5.11816  -0.70662 
 H                     1.69547  -6.1028   -1.18038 
 
 ITRead=  0  0  0  0  0  0  0  0  0  0  0  0  0  0  0  0  0  0  0  0
 ITRead=  0  0  0  0  0  0  0  0  0  0  0  0  0  0  0
 MicOpt= -1 -1 -1 -1 -1 -1 -1 -1 -1 -1 -1 -1 -1 -1 -1 -1 -1 -1 -1 -1
 MicOpt= -1 -1 -1 -1 -1 -1 -1 -1 -1 -1 -1 -1 -1 -1 -1
 NAtoms=     35 NQM=       35 NQMF=       0 NMMI=      0 NMMIF=      0
                NMic=       0 NMicF=      0.
                    Isotopes and Nuclear Properties:
 (Nuclear quadrupole moments (NQMom) in fm**2, nuclear magnetic moments (NMagM)
  in nuclear magnetons)

  Atom         1           2           3           4           5           6           7           8           9          10
 IAtWgt=          16          14          12          12          12          12           1          12           1          12
 AtmWgt=  15.9949146  14.0030740  12.0000000  12.0000000  12.0000000  12.0000000   1.0078250  12.0000000   1.0078250  12.0000000
 NucSpn=           0           2           0           0           0           0           1           0           1           0
 AtZEff=  -0.0000000  -0.0000000  -0.0000000  -0.0000000  -0.0000000  -0.0000000  -0.0000000  -0.0000000  -0.0000000  -0.0000000
 NQMom=    0.0000000   2.0440000   0.0000000   0.0000000   0.0000000   0.0000000   0.0000000   0.0000000   0.0000000   0.0000000
 NMagM=    0.0000000   0.4037610   0.0000000   0.0000000   0.0000000   0.0000000   2.7928460   0.0000000   2.7928460   0.0000000
 AtZNuc=   8.0000000   7.0000000   6.0000000   6.0000000   6.0000000   6.0000000   1.0000000   6.0000000   1.0000000   6.0000000

  Atom        11          12          13          14          15          16          17          18          19          20
 IAtWgt=           1           1           1          12          12           1          12           1          12          12
 AtmWgt=   1.0078250   1.0078250   1.0078250  12.0000000  12.0000000   1.0078250  12.0000000   1.0078250  12.0000000  12.0000000
 NucSpn=           1           1           1           0           0           1           0           1           0           0
 AtZEff=  -0.0000000  -0.0000000  -0.0000000  -0.0000000  -0.0000000  -0.0000000  -0.0000000  -0.0000000  -0.0000000  -0.0000000
 NQMom=    0.0000000   0.0000000   0.0000000   0.0000000   0.0000000   0.0000000   0.0000000   0.0000000   0.0000000   0.0000000
 NMagM=    2.7928460   2.7928460   2.7928460   0.0000000   0.0000000   2.7928460   0.0000000   2.7928460   0.0000000   0.0000000
 AtZNuc=   1.0000000   1.0000000   1.0000000   6.0000000   6.0000000   1.0000000   6.0000000   1.0000000   6.0000000   6.0000000

  Atom        21          22          23          24          25          26          27          28          29          30
 IAtWgt=           1          12           1          16          12           1           1           1          12           1
 AtmWgt=   1.0078250  12.0000000   1.0078250  15.9949146  12.0000000   1.0078250   1.0078250   1.0078250  12.0000000   1.0078250
 NucSpn=           1           0           1           0           0           1           1           1           0           1
 AtZEff=  -0.0000000  -0.0000000  -0.0000000  -0.0000000  -0.0000000  -0.0000000  -0.0000000  -0.0000000  -0.0000000  -0.0000000
 NQMom=    0.0000000   0.0000000   0.0000000   0.0000000   0.0000000   0.0000000   0.0000000   0.0000000   0.0000000   0.0000000
 NMagM=    2.7928460   0.0000000   2.7928460   0.0000000   0.0000000   2.7928460   2.7928460   2.7928460   0.0000000   2.7928460
 AtZNuc=   1.0000000   6.0000000   1.0000000   8.0000000   6.0000000   1.0000000   1.0000000   1.0000000   6.0000000   1.0000000

  Atom        31          32          33          34          35
 IAtWgt=          12           1          12           1           1
 AtmWgt=  12.0000000   1.0078250  12.0000000   1.0078250   1.0078250
 NucSpn=           0           1           0           1           1
 AtZEff=  -0.0000000  -0.0000000  -0.0000000  -0.0000000  -0.0000000
 NQMom=    0.0000000   0.0000000   0.0000000   0.0000000   0.0000000
 NMagM=    0.0000000   2.7928460   0.0000000   2.7928460   2.7928460
 AtZNuc=   6.0000000   1.0000000   6.0000000   1.0000000   1.0000000
 Leave Link  101 at Mon Mar  6 10:21:36 2023, MaxMem=  1048576000 cpu:               0.1 elap:               0.1
 (Enter /ssoft/spack/external/gaussian/g16-C.01/avx2/g16/l103.exe)

 GradGradGradGradGradGradGradGradGradGradGradGradGradGradGradGradGradGrad
 Berny optimization.
 Initialization pass.
 Trust Radius=3.00D-01 FncErr=1.00D-07 GrdErr=1.00D-07 EigMax=2.50D+02 EigMin=1.00D-04
 Number of steps in this run=      2 maximum allowed number of steps=      2.
 GradGradGradGradGradGradGradGradGradGradGradGradGradGradGradGradGradGrad

 Leave Link  103 at Mon Mar  6 10:21:36 2023, MaxMem=  1048576000 cpu:               0.0 elap:               0.0
 (Enter /ssoft/spack/external/gaussian/g16-C.01/avx2/g16/l202.exe)
                          Input orientation:                          
 ---------------------------------------------------------------------
 Center     Atomic      Atomic             Coordinates (Angstroms)
 Number     Number       Type             X           Y           Z
 ---------------------------------------------------------------------
      1          8           0        1.515047   -1.161779    0.000000
      2          7           0       -1.304450   -1.473023    0.000000
      3          6           0        1.510251   -2.429834   -0.320511
      4          6           0        0.451333   -4.592760   -0.692440
      5          6           0        0.340218   -3.232341   -0.390922
      6          6           0       -0.980307   -2.703861   -0.165402
      7          1           0       -1.682451   -3.328640   -0.136727
      8          6           0       -2.755301   -1.184013    0.205227
      9          1           0       -3.168393   -1.996940    0.592211
     10          6           0       -3.417463   -0.928879   -1.133946
     11          1           0       -3.278634   -1.693993   -1.714371
     12          1           0       -3.029252   -0.139250   -1.541370
     13          1           0       -4.368786   -0.790797   -1.003623
     14          6           0       -2.887588   -0.069613    1.232127
     15          6           0       -2.560904   -0.323351    2.553644
     16          1           0       -2.295306   -1.189279    2.805802
     17          6           0       -2.620153    0.676250    3.510484
     18          1           0       -2.402689    0.483158    4.403729
     19          6           0       -2.996444    1.952004    3.157780
     20          6           0       -3.337039    2.224444    1.849656
     21          1           0       -3.607331    3.089239    1.602692
     22          6           0       -3.279533    1.220018    0.902342
     23          1           0       -3.511432    1.414661    0.013313
     24          8           0       -2.989867    2.883159    4.165883
     25          6           0       -3.182464    4.236687    3.791342
     26          1           0       -3.159056    4.797048    4.583037
     27          1           0       -4.042547    4.330551    3.353346
     28          1           0       -2.477432    4.506918    3.182370
     29          6           0        2.749940   -3.071417   -0.598275
     30          1           0        3.545465   -2.572199   -0.559745
     31          6           0        2.807545   -4.405733   -0.923359
     32          1           0        3.638712   -4.798858   -1.118838
     33          6           0        1.650809   -5.188366   -0.967502
     34          1           0       -0.328845   -5.118162   -0.706622
     35          1           0        1.695468   -6.102798   -1.180384
 ---------------------------------------------------------------------
                    Distance matrix (angstroms):
                    1          2          3          4          5
     1  O    0.000000
     2  N    2.836624   0.000000
     3  C    1.307943   2.990110   0.000000
     4  C    3.658223   3.646232   2.436778   0.000000
     5  C    2.412524   2.439867   1.420547   1.397855   0.000000
     6  C    2.938056   1.283507   2.510385   2.428024   1.440117
     7  H    3.864968   1.898656   3.321894   2.541624   2.040853
     8  C    4.275335   1.493525   4.474752   4.765277   3.759426
     9  H    4.794040   2.024719   4.786456   4.635841   3.847482
    10  C    5.066531   2.459015   5.215066   5.346638   4.469697
    11  H    5.118760   2.623986   5.041600   4.833203   4.148991
    12  H    4.906327   2.670153   5.229184   5.715672   4.716363
    13  H    5.980333   3.295884   6.141349   6.146975   5.339594
    14  C    4.700443   2.448270   5.227076   5.942324   4.801653
    15  C    4.882360   3.069450   5.410392   6.151300   5.054622
    16  H    4.732026   2.989119   5.078885   5.600483   4.619430
    17  C    5.727280   4.321336   6.433080   7.406825   6.265928
    18  H    6.119420   4.942226   6.790807   7.738302   6.657113
    19  C    6.326197   4.956333   7.183963   8.339382   7.113652
    20  C    6.199232   4.606942   7.061739   8.202944   6.951181
    21  H    6.846790   5.355943   7.768432   8.986295   7.714922
    22  C    5.429105   3.459429   6.144821   7.088800   5.882061
    23  H    5.648338   3.634511   6.333158   7.231231   6.049235
    24  O    7.349174   6.258717   8.282915   9.556910   8.321856
    25  C    8.098415   7.106476   9.130795  10.548361   9.256728
    26  H    8.852067   7.984834   9.903284  11.359316  10.072551
    27  H    8.502792   7.240413   9.488604  10.779092   9.509234
    28  H    7.628991   6.874814   8.734433  10.314842   8.977957
    29  C    2.351512   4.398962   1.423239   2.758069   2.423974
    30  H    2.534797   5.004316   2.054166   3.697828   3.276873
    31  C    3.611977   5.134381   2.439379   2.374876   2.783529
    32  H    4.357763   6.061998   3.283283   3.222371   3.723426
    33  C    4.143416   4.844934   2.836874   1.367168   2.424072
    34  H    4.421789   3.839030   3.280009   0.940705   2.025742
    35  H    5.083259   5.641597   3.776817   2.016475   3.271004
                    6          7          8          9         10
     6  C    0.000000
     7  H    0.940307   0.000000
     8  C    2.365990   2.422264   0.000000
     9  H    2.421040   2.124334   0.990581   0.000000
    10  C    3.166760   3.124670   1.515564   2.045093   0.000000
    11  H    2.949822   2.776478   2.053975   2.329002   0.970343
    12  H    3.559311   3.736188   2.053578   2.832409   0.969648
    13  H    3.980479   3.795859   2.054086   2.332897   0.970086
    14  C    3.539785   3.734618   1.521155   2.050106   2.572432
    15  C    3.944405   4.128140   2.508704   2.648993   3.833886
    16  H    3.584862   3.689300   2.640949   2.512884   4.104712
    17  C    5.256081   5.497324   3.795203   3.995351   4.978240
    18  H    5.749541   5.971958   4.531138   4.611383   5.804262
    19  C    6.065100   6.361254   4.313969   4.712311   5.186103
    20  C    5.822615   6.125367   3.828857   4.407913   4.341866
    21  H    6.602078   6.922421   4.575976   5.204129   4.865235
    22  C    4.671547   4.931594   2.557373   3.233783   2.963655
    23  H    4.837433   5.085920   2.713240   3.477329   2.610979
    24  O    7.349364   7.668653   5.681875   6.051311   6.542374
    25  C    8.287131   8.655284   6.513577   7.006622   7.141202
    26  H    9.141021   9.512273   7.423027   7.879407   8.095487
    27  H    8.440490   8.741503   6.479049   6.958819   6.941767
    28  H    8.089765   8.546600   6.428631   7.034666   7.004437
    29  C    3.773224   4.463774   5.874996   6.131754   6.550898
    30  H    4.544828   5.299270   6.497069   6.836213   7.177226
    31  C    4.221219   4.683907   6.526748   6.618992   7.133273
    32  H    5.160755   5.607215   7.463488   7.557454   8.047768
    33  C    3.706602   3.906327   6.068273   5.986870   6.622561
    34  H    2.558548   2.315042   4.711335   4.414977   5.222285
    35  H    4.443279   4.493941   6.776703   6.607367   7.274177
                   11         12         13         14         15
    11  H    0.000000
    12  H    1.584092   0.000000
    13  H    1.584095   1.583678   0.000000
    14  C    3.387238   2.777986   2.777162   0.000000
    15  C    4.539797   4.125819   4.017598   1.384743   0.000000
    16  H    4.653347   4.532013   4.355436   2.020124   0.940190
    17  C    5.775012   5.133579   5.058369   2.412207   1.385010
    18  H    6.552741   6.010339   5.893042   3.255724   2.024426
    19  C    6.091863   5.143582   5.169483   2.794088   2.394142
    20  C    5.297155   4.144978   4.277544   2.417860   2.754858
    21  H    5.830117   4.543396   4.735755   3.260935   3.693926
    22  C    3.916459   2.807486   2.977003   1.387633   2.371754
    23  H    3.564101   2.250372   2.575511   2.019346   3.221409
    24  O    7.457285   6.458270   6.490236   4.163682   3.614558
    25  C    8.092904   6.900009   7.048024   5.018043   4.765730
    26  H    9.044626   7.867162   7.993636   5.914953   5.540280
    27  H    7.909517   6.705530   6.731851   5.019457   4.949101
    28  H    7.941744   6.648692   7.011814   4.991624   4.871731
    29  C    6.283842   6.548747   7.486106   6.644014   6.759550
    30  H    6.976586   7.078823   8.124395   7.131474   7.213754
    31  C    6.709755   7.256239   8.035790   7.475466   7.587861
    32  H    7.605559   8.145688   8.955326   8.395558   8.482484
    33  C    6.088339   6.908391   7.454894   7.185893   7.335214
    34  H    4.630524   5.725257   5.927514   5.982789   6.213021
    35  H    6.668163   7.616902   8.063732   7.951348   8.090838
                   16         17         18         19         20
    16  H    0.000000
    17  C    2.020470   0.000000
    18  H    2.315587   0.939394   0.000000
    19  C    3.237768   1.376061   2.015550   0.000000
    20  C    3.694986   2.381004   3.229299   1.378919   0.000000
    21  H    4.634069   3.230589   4.011063   2.021085   0.939106
    22  C    3.224372   2.744607   3.683955   2.388084   1.381877
    23  H    4.007176   3.683726   4.623068   3.231351   2.014527
    24  O    4.349366   2.331670   2.482207   1.372357   2.432970
    25  C    5.585646   3.615493   3.882273   2.378188   2.800564
    26  H    6.304025   4.292058   4.383365   3.186231   3.757837
    27  H    5.815598   3.924515   4.312177   2.605775   2.682259
    28  H    5.711535   3.847343   4.205704   2.607214   2.779342
    29  C    6.370611   7.730769   8.012778   8.506681   8.431478
    30  H    6.881423   8.070566   8.327773   8.779805   8.728222
    31  C    7.091636   8.657102   8.912107   9.526951   9.455409
    32  H    7.977746   9.517396   9.741507  10.386958  10.334401
    33  C    6.767743   8.525679   8.800406   9.465717   9.368285
    34  H    5.624963   7.523914   7.860744   8.487457   8.336525
    35  H    7.480549   9.305069   9.557824  10.281709  10.190693
                   21         22         23         24         25
    21  H    0.000000
    22  C    2.022852   0.000000
    23  H    2.310744   0.939168   0.000000
    24  O    2.644557   3.674323   4.435353   0.000000
    25  C    2.507456   4.178042   4.727109   1.417538   0.000000
    26  H    3.464103   5.133924   5.696235   1.966116   0.970223
    27  H    2.189762   4.032993   4.465459   1.965528   0.969739
    28  H    2.404551   4.079903   4.546882   1.966338   0.970022
    29  C    9.122106   7.551345   7.726818   9.544608  10.386074
    30  H    9.374994   7.943501   8.125469   9.736686  10.514652
    31  C   10.183622   8.487330   8.641979  10.613119  11.523890
    32  H   11.051423   9.390110   9.540134  11.440267  12.340154
    33  C   10.137687   8.298914   8.438643  10.631887  11.612009
    34  H    9.134705   7.174109   7.302393   9.738761  10.765130
    35  H   10.970813   9.094614   9.222196  11.457851  12.466644
                   26         27         28         29         30
    26  H    0.000000
    27  H    1.584397   0.000000
    28  H    1.584505   1.584274   0.000000
    29  C   11.120924  10.795476   9.952379   0.000000
    30  H   11.211806  10.978988  10.019611   0.939981   0.000000
    31  C   12.272403  11.896917  11.145552   1.374554   2.009624
    32  H   13.069141  12.741597  11.937549   2.011208   2.297671
    33  C   12.395635  11.903522  11.325297   2.413689   3.255813
    34  H   11.588872  10.934034  10.601077   3.698624   4.638295
    35  H   13.251039  12.741047  12.207079   3.261906   4.033957
                   31         32         33         34         35
    31  C    0.000000
    32  H    0.939999   0.000000
    33  C    1.397320   2.031349   0.000000
    34  H    3.223580   4.001673   1.998003   0.000000
    35  H    2.045191   2.340992   0.939946   2.300391   0.000000
 Stoichiometry    C16H16NO2(1-)
 Framework group  C1[X(C16H16NO2)]
 Deg. of freedom    99
 Full point group                 C1      NOp   1
 Largest Abelian subgroup         C1      NOp   1
 Largest concise Abelian subgroup C1      NOp   1
                         Standard orientation:                         
 ---------------------------------------------------------------------
 Center     Atomic      Atomic             Coordinates (Angstroms)
 Number     Number       Type             X           Y           Z
 ---------------------------------------------------------------------
      1          8           0       -2.083595   -1.617063   -1.106278
      2          7           0       -0.772892    0.735818   -0.216083
      3          6           0       -3.132148   -1.071245   -0.546517
      4          6           0       -4.273531    0.611538    0.796381
      5          6           0       -3.103513    0.141156    0.193225
      6          6           0       -1.907025    0.926365    0.353849
      7          1           0       -1.962487    1.659537    0.939988
      8          6           0        0.313330    1.706992    0.111877
      9          1           0        0.119030    2.078171    1.009498
     10          6           0        0.281855    2.857373   -0.874312
     11          1           0       -0.594357    3.273945   -0.857439
     12          1           0        0.464132    2.523652   -1.766288
     13          1           0        0.955228    3.511606   -0.630150
     14          6           0        1.629514    0.949986    0.204160
     15          6           0        1.837033    0.077343    1.259120
     16          1           0        1.177125   -0.009979    1.923088
     17          6           0        3.000647   -0.667857    1.353646
     18          1           0        3.127191   -1.248618    2.081083
     19          6           0        3.972786   -0.560999    0.385621
     20          6           0        3.792068    0.310309   -0.667746
     21          1           0        4.455948    0.399033   -1.326009
     22          6           0        2.630022    1.053392   -0.751778
     23          1           0        2.514266    1.643080   -1.473515
     24          8           0        5.073301   -1.365308    0.544727
     25          6           0        5.992072   -1.417440   -0.533492
     26          1           0        6.723309   -2.013091   -0.305841
     27          1           0        6.339601   -0.528306   -0.703957
     28          1           0        5.541109   -1.746728   -1.326678
     29          6           0       -4.388557   -1.731021   -0.654871
     30          1           0       -4.445480   -2.536753   -1.135620
     31          6           0       -5.520775   -1.213236   -0.072309
     32          1           0       -6.340454   -1.661762   -0.175017
     33          6           0       -5.473771   -0.031017    0.671097
     34          1           0       -4.233356    1.400083    1.307759
     35          1           0       -6.248263    0.314536    1.076378
 ---------------------------------------------------------------------
 Rotational constants (GHZ):           0.9113306           0.1477823           0.1369138
 Leave Link  202 at Mon Mar  6 10:21:36 2023, MaxMem=  1048576000 cpu:               0.0 elap:               0.0
 (Enter /ssoft/spack/external/gaussian/g16-C.01/avx2/g16/l301.exe)
 Standard basis: def2SVP (5D, 7F)
 Ernie: Thresh=  0.10000D-02 Tol=  0.10000D-05 Strict=F.
 There are   365 symmetry adapted cartesian basis functions of A   symmetry.
 There are   346 symmetry adapted basis functions of A   symmetry.
   346 basis functions,   587 primitive gaussians,   365 cartesian basis functions
    68 alpha electrons       68 beta electrons
       nuclear repulsion energy      1296.8267806904 Hartrees.
 IExCor= 1009 DFT=T Ex+Corr=PBE1PBE ExCW=0 ScaHFX=  0.250000
 ScaDFX=  0.750000  0.750000  1.000000  1.000000 ScalE2=  1.000000  1.000000
 IRadAn=      5 IRanWt=     -1 IRanGd=            0 ICorTp=0 IEmpDi=141
 NAtoms=   35 NActive=   35 NUniq=   35 SFac= 1.00D+00 NAtFMM=   60 NAOKFM=F Big=F
 Integral buffers will be    131072 words long.
 Raffenetti 2 integral format.
 Two-electron integral symmetry is turned on.
 R6Disp:  Grimme-D3(BJ) Dispersion energy=       -0.0369294663 Hartrees.
 Nuclear repulsion after empirical dispersion term =     1296.7898512241 Hartrees.
 Leave Link  301 at Mon Mar  6 10:21:36 2023, MaxMem=  1048576000 cpu:               0.1 elap:               0.0
 (Enter /ssoft/spack/external/gaussian/g16-C.01/avx2/g16/l302.exe)
 NPDir=0 NMtPBC=     1 NCelOv=     1 NCel=       1 NClECP=     1 NCelD=      1
         NCelK=      1 NCelE2=     1 NClLst=     1 CellRange=     0.0.
 One-electron integrals computed using PRISM.
 One-electron integral symmetry used in STVInt
   1 Symmetry operations used in ECPInt.
 ECPInt:  NShTT=   13203 NPrTT=   47881 LenC2=   11378 LenP2D=   28810.
 LDataN:  DoStor=T MaxTD1= 4 Len=   56
 NBasis=   346 RedAO= T EigKep=  2.42D-04  NBF=   346
 NBsUse=   346 1.00D-06 EigRej= -1.00D+00 NBFU=   346
 Precomputing XC quadrature grid using
 IXCGrd= 4 IRadAn=           5 IRanWt=          -1 IRanGd=           0 AccXCQ= 0.00D+00.
 Generated NRdTot=       0 NPtTot=           0 NUsed=           0 NTot=          32
 NSgBfM=   358   358   358   358   358 MxSgAt=    35 MxSgA2=    35.
 Leave Link  302 at Mon Mar  6 10:21:37 2023, MaxMem=  1048576000 cpu:               1.0 elap:               1.0
 (Enter /ssoft/spack/external/gaussian/g16-C.01/avx2/g16/l303.exe)
 DipDrv:  MaxL=1.
 Leave Link  303 at Mon Mar  6 10:21:37 2023, MaxMem=  1048576000 cpu:               0.0 elap:               0.1
 (Enter /ssoft/spack/external/gaussian/g16-C.01/avx2/g16/l401.exe)
 ExpMin= 1.22D-01 ExpMax= 2.27D+03 ExpMxC= 3.41D+02 IAcc=3 IRadAn=         5 AccDes= 0.00D+00
 Harris functional with IExCor= 1009 and IRadAn=       5 diagonalized for initial guess.
 HarFok:  IExCor= 1009 AccDes= 0.00D+00 IRadAn=         5 IDoV= 1 UseB2=F ITyADJ=14
 ICtDFT=  3500011 ScaDFX=  1.000000  1.000000  1.000000  1.000000
 FoFCou: FMM=F IPFlag=           0 FMFlag=      100000 FMFlg1=           0
         NFxFlg=           0 DoJE=T BraDBF=F KetDBF=T FulRan=T
         wScrn=  0.000000 ICntrl=       500 IOpCl=  0 I1Cent=   200000004 NGrid=           0
         NMat0=    1 NMatS0=      1 NMatT0=    0 NMatD0=    1 NMtDS0=    0 NMtDT0=    0
 Petite list used in FoFCou.
 Harris En= -823.300239035648    
 JPrj=0 DoOrth=F DoCkMO=F.
 Leave Link  401 at Mon Mar  6 10:21:46 2023, MaxMem=  1048576000 cpu:               8.7 elap:               8.8
 (Enter /ssoft/spack/external/gaussian/g16-C.01/avx2/g16/l502.exe)
 Integral symmetry usage will be decided dynamically.
 Closed shell SCF:
 Using DIIS extrapolation, IDIIS=  1040.
 NGot=  1048576000 LenX=  1048302606 LenY=  1048168940
 Requested convergence on RMS density matrix=1.00D-08 within 128 cycles.
 Requested convergence on MAX density matrix=1.00D-06.
 Requested convergence on             energy=1.00D-06.
 No special actions if energy rises.
 Fock matrices will be formed incrementally for  20 cycles.
 Integral accuracy reduced to 1.0D-05 until final iterations.

 Cycle   1  Pass 0  IDiag  1:
 FoFJK:  IHMeth= 1 ICntrl=       0 DoSepK=F KAlg= 0 I1Cent=           0 FoldK=F
 IRaf= 780000000 NMat=       1 IRICut=       1 DoRegI=T DoRafI=F ISym2E= 0 IDoP0=0 IntGTp=1.
 FoFCou: FMM=F IPFlag=           0 FMFlag=      100000 FMFlg1=           0
         NFxFlg=           0 DoJE=F BraDBF=F KetDBF=F FulRan=T
         wScrn=  0.000000 ICntrl=         0 IOpCl=  0 I1Cent=           0 NGrid=           0
         NMat0=    1 NMatS0=      1 NMatT0=    0 NMatD0=    1 NMtDS0=    0 NMtDT0=    0
 Symmetry not used in FoFCou.
 E= -822.212430027120    
 DIIS: error= 3.38D-02 at cycle   1 NSaved=   1.
 NSaved= 1 IEnMin= 1 EnMin= -822.212430027120     IErMin= 1 ErrMin= 3.38D-02
 ErrMax= 3.38D-02  0.00D+00 EMaxC= 1.00D-01 BMatC= 4.70D-01 BMatP= 4.70D-01
 IDIUse=3 WtCom= 6.62D-01 WtEn= 3.38D-01
 Coeff-Com:  0.100D+01
 Coeff-En:   0.100D+01
 Coeff:      0.100D+01
 Gap=     0.116 Goal=   None    Shift=    0.000
 GapD=    0.116 DampG=1.000 DampE=0.500 DampFc=0.5000 IDamp=-1.
 Damping current iteration by 5.00D-01
 RMSDP=5.67D-02 MaxDP=1.12D+01              OVMax= 9.96D-01

 Cycle   2  Pass 0  IDiag  1:
 RMSU=  2.83D-02    CP:  9.62D-01
 E= -821.918365110814     Delta-E=        0.294064916307 Rises=F Damp=T
 DIIS: error= 3.95D-02 at cycle   2 NSaved=   2.
 NSaved= 2 IEnMin= 1 EnMin= -822.212430027120     IErMin= 1 ErrMin= 3.38D-02
 ErrMax= 3.95D-02  0.00D+00 EMaxC= 1.00D-01 BMatC= 1.96D-01 BMatP= 4.70D-01
 IDIUse=3 WtCom= 6.05D-01 WtEn= 3.95D-01
 Coeff-Com:  0.320D+00 0.680D+00
 Coeff-En:   0.688D+00 0.312D+00
 Coeff:      0.466D+00 0.534D+00
 Gap=    -0.392 Goal=   None    Shift=    0.000
 RMSDP=2.83D-02 MaxDP=5.59D+00 DE= 2.94D-01 OVMax= 4.91D-01

 Cycle   3  Pass 0  IDiag  1:
 RMSU=  3.86D-03    CP:  9.15D-01  9.40D-03
 E= -822.444176721729     Delta-E=       -0.525811610915 Rises=F Damp=F
 DIIS: error= 4.27D-02 at cycle   3 NSaved=   3.
 NSaved= 3 IEnMin= 3 EnMin= -822.444176721729     IErMin= 1 ErrMin= 3.38D-02
 ErrMax= 4.27D-02  0.00D+00 EMaxC= 1.00D-01 BMatC= 2.78D-01 BMatP= 1.96D-01
 IDIUse=2 WtCom= 0.00D+00 WtEn= 1.00D+00
 EnCoef did     2 forward-backward iterations
 Coeff-En:   0.871D-01 0.197D+00 0.716D+00
 Coeff:      0.871D-01 0.197D+00 0.716D+00
 Gap=     0.254 Goal=   None    Shift=    0.000
 RMSDP=5.81D-03 MaxDP=3.32D-01 DE=-5.26D-01 OVMax= 9.89D-01

 Cycle   4  Pass 0  IDiag  1:
 RMSU=  5.56D-03    CP:  9.21D-01  1.65D-02  5.68D-01
 E= -820.372062950054     Delta-E=        2.072113771676 Rises=F Damp=F
 DIIS: error= 8.83D-02 at cycle   4 NSaved=   4.
 NSaved= 4 IEnMin= 3 EnMin= -822.444176721729     IErMin= 1 ErrMin= 3.38D-02
 ErrMax= 8.83D-02  0.00D+00 EMaxC= 1.00D-01 BMatC= 1.42D+00 BMatP= 1.96D-01
 IDIUse=2 WtCom= 0.00D+00 WtEn= 1.00D+00
 Coeff-En:   0.000D+00 0.000D+00 0.818D+00 0.182D+00
 Coeff:      0.000D+00 0.000D+00 0.818D+00 0.182D+00
 Gap=    -0.007 Goal=   None    Shift=    0.000
 RMSDP=5.41D-03 MaxDP=2.25D-01 DE= 2.07D+00 OVMax= 9.94D-01

 Cycle   5  Pass 0  IDiag  1:
 RMSU=  2.93D-03    CP:  9.36D-01  8.67D-03  6.48D-01  1.86D-01
 E= -822.643698462636     Delta-E=       -2.271635512583 Rises=F Damp=F
 DIIS: error= 1.57D-02 at cycle   5 NSaved=   5.
 NSaved= 5 IEnMin= 5 EnMin= -822.643698462636     IErMin= 5 ErrMin= 1.57D-02
 ErrMax= 1.57D-02  0.00D+00 EMaxC= 1.00D-01 BMatC= 8.91D-02 BMatP= 1.96D-01
 IDIUse=3 WtCom= 8.43D-01 WtEn= 1.57D-01
 Coeff-Com:  0.273D-01 0.202D+00 0.347D+00-0.112D-01 0.434D+00
 Coeff-En:   0.000D+00 0.000D+00 0.256D+00 0.000D+00 0.744D+00
 Coeff:      0.230D-01 0.171D+00 0.333D+00-0.940D-02 0.483D+00
 Gap=     0.171 Goal=   None    Shift=    0.000
 RMSDP=1.73D-03 MaxDP=8.02D-02 DE=-2.27D+00 OVMax= 1.58D-01

 Cycle   6  Pass 0  IDiag  1:
 RMSU=  8.82D-04    CP:  9.28D-01  8.82D-03  7.74D-01  1.09D-01  5.45D-01
 E= -822.718888734848     Delta-E=       -0.075190272212 Rises=F Damp=F
 DIIS: error= 7.05D-03 at cycle   6 NSaved=   6.
 NSaved= 6 IEnMin= 6 EnMin= -822.718888734848     IErMin= 6 ErrMin= 7.05D-03
 ErrMax= 7.05D-03  0.00D+00 EMaxC= 1.00D-01 BMatC= 1.45D-02 BMatP= 8.91D-02
 IDIUse=3 WtCom= 9.30D-01 WtEn= 7.05D-02
 Coeff-Com: -0.287D-01 0.117D+00 0.101D+00-0.249D-01 0.294D+00 0.542D+00
 Coeff-En:   0.000D+00 0.000D+00 0.000D+00 0.000D+00 0.141D+00 0.859D+00
 Coeff:     -0.267D-01 0.109D+00 0.936D-01-0.232D-01 0.283D+00 0.564D+00
 Gap=     0.119 Goal=   None    Shift=    0.000
 RMSDP=6.05D-04 MaxDP=2.75D-02 DE=-7.52D-02 OVMax= 4.39D-02

 Cycle   7  Pass 0  IDiag  1:
 RMSU=  3.46D-04    CP:  9.29D-01  9.36D-03  7.77D-01  1.37D-01  6.87D-01
                    CP:  7.50D-01
 E= -822.733829077222     Delta-E=       -0.014940342373 Rises=F Damp=F
 DIIS: error= 1.66D-03 at cycle   7 NSaved=   7.
 NSaved= 7 IEnMin= 7 EnMin= -822.733829077222     IErMin= 7 ErrMin= 1.66D-03
 ErrMax= 1.66D-03  0.00D+00 EMaxC= 1.00D-01 BMatC= 1.53D-03 BMatP= 1.45D-02
 IDIUse=3 WtCom= 9.83D-01 WtEn= 1.66D-02
 Coeff-Com: -0.242D-01 0.683D-01 0.245D-01-0.168D-01 0.139D+00 0.347D+00
 Coeff-Com:  0.462D+00
 Coeff-En:   0.000D+00 0.000D+00 0.000D+00 0.000D+00 0.000D+00 0.000D+00
 Coeff-En:   0.100D+01
 Coeff:     -0.238D-01 0.672D-01 0.240D-01-0.165D-01 0.137D+00 0.341D+00
 Coeff:      0.471D+00
 Gap=     0.118 Goal=   None    Shift=    0.000
 RMSDP=1.74D-04 MaxDP=7.69D-03 DE=-1.49D-02 OVMax= 1.66D-02

 Cycle   8  Pass 0  IDiag  1:
 RMSU=  1.25D-04    CP:  9.28D-01  9.36D-03  7.73D-01  1.38D-01  6.94D-01
                    CP:  8.21D-01  7.07D-01
 E= -822.735252420121     Delta-E=       -0.001423342899 Rises=F Damp=F
 DIIS: error= 8.56D-04 at cycle   8 NSaved=   8.
 NSaved= 8 IEnMin= 8 EnMin= -822.735252420121     IErMin= 8 ErrMin= 8.56D-04
 ErrMax= 8.56D-04  0.00D+00 EMaxC= 1.00D-01 BMatC= 2.19D-04 BMatP= 1.53D-03
 IDIUse=3 WtCom= 9.91D-01 WtEn= 8.56D-03
 Coeff-Com: -0.107D-01 0.234D-01-0.504D-02-0.458D-02 0.171D-01 0.485D-01
 Coeff-Com:  0.227D+00 0.705D+00
 Coeff-En:   0.000D+00 0.000D+00 0.000D+00 0.000D+00 0.000D+00 0.000D+00
 Coeff-En:   0.000D+00 0.100D+01
 Coeff:     -0.106D-01 0.232D-01-0.500D-02-0.454D-02 0.170D-01 0.481D-01
 Coeff:      0.225D+00 0.707D+00
 Gap=     0.117 Goal=   None    Shift=    0.000
 RMSDP=8.22D-05 MaxDP=2.54D-03 DE=-1.42D-03 OVMax= 5.34D-03

 Cycle   9  Pass 0  IDiag  1:
 RMSU=  5.07D-05    CP:  9.28D-01  9.50D-03  7.77D-01  1.40D-01  7.04D-01
                    CP:  8.20D-01  8.59D-01  9.40D-01
 E= -822.735478504981     Delta-E=       -0.000226084860 Rises=F Damp=F
 DIIS: error= 4.61D-04 at cycle   9 NSaved=   9.
 NSaved= 9 IEnMin= 9 EnMin= -822.735478504981     IErMin= 9 ErrMin= 4.61D-04
 ErrMax= 4.61D-04  0.00D+00 EMaxC= 1.00D-01 BMatC= 4.68D-05 BMatP= 2.19D-04
 IDIUse=3 WtCom= 9.95D-01 WtEn= 4.61D-03
 Coeff-Com: -0.446D-02 0.903D-02-0.582D-02-0.877D-03-0.443D-02-0.138D-01
 Coeff-Com:  0.412D-01 0.341D+00 0.638D+00
 Coeff-En:   0.000D+00 0.000D+00 0.000D+00 0.000D+00 0.000D+00 0.000D+00
 Coeff-En:   0.000D+00 0.000D+00 0.100D+01
 Coeff:     -0.444D-02 0.899D-02-0.579D-02-0.873D-03-0.440D-02-0.138D-01
 Coeff:      0.410D-01 0.339D+00 0.640D+00
 Gap=     0.116 Goal=   None    Shift=    0.000
 RMSDP=2.67D-05 MaxDP=9.92D-04 DE=-2.26D-04 OVMax= 2.49D-03

 Cycle  10  Pass 0  IDiag  1:
 RMSU=  1.94D-05    CP:  9.28D-01  9.51D-03  7.76D-01  1.41D-01  7.06D-01
                    CP:  8.25D-01  8.70D-01  1.06D+00  9.19D-01
 E= -822.735518575992     Delta-E=       -0.000040071011 Rises=F Damp=F
 DIIS: error= 3.00D-04 at cycle  10 NSaved=  10.
 NSaved=10 IEnMin=10 EnMin= -822.735518575992     IErMin=10 ErrMin= 3.00D-04
 ErrMax= 3.00D-04  0.00D+00 EMaxC= 1.00D-01 BMatC= 1.39D-05 BMatP= 4.68D-05
 IDIUse=3 WtCom= 9.97D-01 WtEn= 3.00D-03
 Coeff-Com: -0.171D-02 0.323D-02-0.299D-02 0.137D-04-0.190D-02-0.952D-02
 Coeff-Com: -0.247D-01 0.182D-01 0.350D+00 0.669D+00
 Coeff-En:   0.000D+00 0.000D+00 0.000D+00 0.000D+00 0.000D+00 0.000D+00
 Coeff-En:   0.000D+00 0.000D+00 0.000D+00 0.100D+01
 Coeff:     -0.170D-02 0.322D-02-0.298D-02 0.136D-04-0.190D-02-0.949D-02
 Coeff:     -0.246D-01 0.181D-01 0.349D+00 0.670D+00
 Gap=     0.115 Goal=   None    Shift=    0.000
 RMSDP=1.62D-05 MaxDP=9.33D-04 DE=-4.01D-05 OVMax= 1.83D-03

 Cycle  11  Pass 0  IDiag  1:
 RMSU=  8.70D-06    CP:  9.28D-01  9.53D-03  7.77D-01  1.42D-01  7.08D-01
                    CP:  8.30D-01  8.80D-01  1.08D+00  1.03D+00  6.72D-01
 E= -822.735531436606     Delta-E=       -0.000012860614 Rises=F Damp=F
 DIIS: error= 1.03D-04 at cycle  11 NSaved=  11.
 NSaved=11 IEnMin=11 EnMin= -822.735531436606     IErMin=11 ErrMin= 1.03D-04
 ErrMax= 1.03D-04  0.00D+00 EMaxC= 1.00D-01 BMatC= 2.06D-06 BMatP= 1.39D-05
 IDIUse=3 WtCom= 9.99D-01 WtEn= 1.03D-03
 Coeff-Com: -0.769D-03 0.134D-02-0.125D-02-0.112D-04 0.658D-03-0.245D-02
 Coeff-Com: -0.180D-01-0.368D-01 0.104D+00 0.334D+00 0.619D+00
 Coeff-En:   0.000D+00 0.000D+00 0.000D+00 0.000D+00 0.000D+00 0.000D+00
 Coeff-En:   0.000D+00 0.000D+00 0.000D+00 0.000D+00 0.100D+01
 Coeff:     -0.768D-03 0.134D-02-0.125D-02-0.112D-04 0.658D-03-0.245D-02
 Coeff:     -0.179D-01-0.367D-01 0.104D+00 0.334D+00 0.620D+00
 Gap=     0.115 Goal=   None    Shift=    0.000
 RMSDP=7.00D-06 MaxDP=1.86D-04 DE=-1.29D-05 OVMax= 7.57D-04

 Initial convergence to 1.0D-05 achieved.  Increase integral accuracy.
 Cycle  12  Pass 1  IDiag  1:
 E= -822.735497301624     Delta-E=        0.000034134982 Rises=F Damp=F
 DIIS: error= 7.44D-05 at cycle   1 NSaved=   1.
 NSaved= 1 IEnMin= 1 EnMin= -822.735497301624     IErMin= 1 ErrMin= 7.44D-05
 ErrMax= 7.44D-05  0.00D+00 EMaxC= 1.00D-01 BMatC= 1.90D-06 BMatP= 1.90D-06
 IDIUse=1 WtCom= 1.00D+00 WtEn= 0.00D+00
 Coeff-Com:  0.100D+01
 Coeff:      0.100D+01
 Gap=     0.115 Goal=   None    Shift=    0.000
 RMSDP=7.00D-06 MaxDP=1.86D-04 DE= 3.41D-05 OVMax= 9.94D-04

 Cycle  13  Pass 1  IDiag  1:
 RMSU=  9.08D-05    CP:  1.00D+00
 E= -822.735497778351     Delta-E=       -0.000000476728 Rises=F Damp=F
 DIIS: error= 1.11D-04 at cycle   2 NSaved=   2.
 NSaved= 2 IEnMin= 2 EnMin= -822.735497778351     IErMin= 1 ErrMin= 7.44D-05
 ErrMax= 1.11D-04  0.00D+00 EMaxC= 1.00D-01 BMatC= 1.81D-06 BMatP= 1.90D-06
 IDIUse=3 WtCom= 9.99D-01 WtEn= 1.11D-03
 Coeff-Com:  0.491D+00 0.509D+00
 Coeff-En:   0.395D+00 0.605D+00
 Coeff:      0.491D+00 0.509D+00
 Gap=     0.115 Goal=   None    Shift=    0.000
 RMSDP=1.04D-05 MaxDP=7.78D-04 DE=-4.77D-07 OVMax= 9.42D-04

 Cycle  14  Pass 1  IDiag  1:
 RMSU=  1.03D-05    CP:  1.00D+00  9.95D-01
 E= -822.735498658718     Delta-E=       -0.000000880367 Rises=F Damp=F
 DIIS: error= 7.66D-05 at cycle   3 NSaved=   3.
 NSaved= 3 IEnMin= 3 EnMin= -822.735498658718     IErMin= 1 ErrMin= 7.44D-05
 ErrMax= 7.66D-05  0.00D+00 EMaxC= 1.00D-01 BMatC= 7.96D-07 BMatP= 1.81D-06
 IDIUse=1 WtCom= 1.00D+00 WtEn= 0.00D+00
 Coeff-Com:  0.293D-02 0.398D+00 0.599D+00
 Coeff:      0.293D-02 0.398D+00 0.599D+00
 Gap=     0.115 Goal=   None    Shift=    0.000
 RMSDP=4.30D-06 MaxDP=3.00D-04 DE=-8.80D-07 OVMax= 3.99D-04

 Cycle  15  Pass 1  IDiag  1:
 RMSU=  8.47D-07    CP:  1.00D+00  1.01D+00  6.15D-01
 E= -822.735499348309     Delta-E=       -0.000000689590 Rises=F Damp=F
 DIIS: error= 3.36D-06 at cycle   4 NSaved=   4.
 NSaved= 4 IEnMin= 4 EnMin= -822.735499348309     IErMin= 4 ErrMin= 3.36D-06
 ErrMax= 3.36D-06  0.00D+00 EMaxC= 1.00D-01 BMatC= 1.16D-08 BMatP= 7.96D-07
 IDIUse=1 WtCom= 1.00D+00 WtEn= 0.00D+00
 Coeff-Com: -0.390D-02 0.220D+00 0.345D+00 0.438D+00
 Coeff:     -0.390D-02 0.220D+00 0.345D+00 0.438D+00
 Gap=     0.115 Goal=   None    Shift=    0.000
 RMSDP=4.08D-07 MaxDP=1.31D-05 DE=-6.90D-07 OVMax= 3.43D-05

 Cycle  16  Pass 1  IDiag  1:
 RMSU=  2.80D-07    CP:  1.00D+00  1.01D+00  6.25D-01  6.75D-01
 E= -822.735499359394     Delta-E=       -0.000000011085 Rises=F Damp=F
 DIIS: error= 1.50D-06 at cycle   5 NSaved=   5.
 NSaved= 5 IEnMin= 5 EnMin= -822.735499359394     IErMin= 5 ErrMin= 1.50D-06
 ErrMax= 1.50D-06  0.00D+00 EMaxC= 1.00D-01 BMatC= 4.10D-10 BMatP= 1.16D-08
 IDIUse=1 WtCom= 1.00D+00 WtEn= 0.00D+00
 Coeff-Com: -0.210D-02 0.921D-01 0.148D+00 0.229D+00 0.532D+00
 Coeff:     -0.210D-02 0.921D-01 0.148D+00 0.229D+00 0.532D+00
 Gap=     0.115 Goal=   None    Shift=    0.000
 RMSDP=1.24D-07 MaxDP=3.29D-06 DE=-1.11D-08 OVMax= 8.78D-06

 Cycle  17  Pass 1  IDiag  1:
 RMSU=  1.06D-07    CP:  1.00D+00  1.01D+00  6.27D-01  7.03D-01  8.03D-01
 E= -822.735499359790     Delta-E=       -0.000000000396 Rises=F Damp=F
 DIIS: error= 5.33D-07 at cycle   6 NSaved=   6.
 NSaved= 6 IEnMin= 6 EnMin= -822.735499359790     IErMin= 6 ErrMin= 5.33D-07
 ErrMax= 5.33D-07  0.00D+00 EMaxC= 1.00D-01 BMatC= 6.45D-11 BMatP= 4.10D-10
 IDIUse=1 WtCom= 1.00D+00 WtEn= 0.00D+00
 Coeff-Com: -0.660D-03 0.215D-01 0.375D-01 0.691D-01 0.292D+00 0.581D+00
 Coeff:     -0.660D-03 0.215D-01 0.375D-01 0.691D-01 0.292D+00 0.581D+00
 Gap=     0.115 Goal=   None    Shift=    0.000
 RMSDP=4.10D-08 MaxDP=1.65D-06 DE=-3.96D-10 OVMax= 4.76D-06

 Cycle  18  Pass 1  IDiag  1:
 RMSU=  2.93D-08    CP:  1.00D+00  1.01D+00  6.28D-01  7.06D-01  8.65D-01
                    CP:  8.07D-01
 E= -822.735499359853     Delta-E=       -0.000000000064 Rises=F Damp=F
 DIIS: error= 1.53D-07 at cycle   7 NSaved=   7.
 NSaved= 7 IEnMin= 7 EnMin= -822.735499359853     IErMin= 7 ErrMin= 1.53D-07
 ErrMax= 1.53D-07  0.00D+00 EMaxC= 1.00D-01 BMatC= 1.25D-11 BMatP= 6.45D-11
 IDIUse=1 WtCom= 1.00D+00 WtEn= 0.00D+00
 Coeff-Com: -0.501D-04-0.279D-02-0.212D-02 0.300D-02 0.703D-01 0.336D+00
 Coeff-Com:  0.596D+00
 Coeff:     -0.501D-04-0.279D-02-0.212D-02 0.300D-02 0.703D-01 0.336D+00
 Coeff:      0.596D+00
 Gap=     0.115 Goal=   None    Shift=    0.000
 RMSDP=2.04D-08 MaxDP=9.01D-07 DE=-6.37D-11 OVMax= 1.14D-06

 Cycle  19  Pass 1  IDiag  1:
 RMSU=  1.25D-08    CP:  1.00D+00  1.01D+00  6.29D-01  7.13D-01  8.80D-01
                    CP:  9.13D-01  8.37D-01
 E= -822.735499359855     Delta-E=       -0.000000000001 Rises=F Damp=F
 DIIS: error= 4.72D-08 at cycle   8 NSaved=   8.
 NSaved= 8 IEnMin= 8 EnMin= -822.735499359855     IErMin= 8 ErrMin= 4.72D-08
 ErrMax= 4.72D-08  0.00D+00 EMaxC= 1.00D-01 BMatC= 1.75D-12 BMatP= 1.25D-11
 IDIUse=1 WtCom= 1.00D+00 WtEn= 0.00D+00
 Coeff-Com:  0.101D-03-0.564D-02-0.785D-02-0.105D-01-0.152D-01 0.972D-01
 Coeff-Com:  0.327D+00 0.615D+00
 Coeff:      0.101D-03-0.564D-02-0.785D-02-0.105D-01-0.152D-01 0.972D-01
 Coeff:      0.327D+00 0.615D+00
 Gap=     0.115 Goal=   None    Shift=    0.000
 RMSDP=7.16D-09 MaxDP=4.51D-07 DE=-1.36D-12 OVMax= 6.71D-07

 SCF Done:  E(RPBE1PBE) =  -822.735499360     A.U. after   19 cycles
            NFock= 19  Conv=0.72D-08     -V/T= 2.0046
 KE= 8.189316643185D+02 PE=-4.527995382571D+03 EE= 1.589538367668D+03
 Leave Link  502 at Mon Mar  6 10:27:13 2023, MaxMem=  1048576000 cpu:             324.0 elap:             327.1
 (Enter /ssoft/spack/external/gaussian/g16-C.01/avx2/g16/l801.exe)
 DoSCS=F DFT=T ScalE2(SS,OS)=  1.000000  1.000000
 Range of M.O.s used for correlation:     1   346
 NBasis=   346 NAE=    68 NBE=    68 NFC=     0 NFV=     0
 NROrb=    346 NOA=    68 NOB=    68 NVA=   278 NVB=   278

 **** Warning!!: The largest alpha MO coefficient is  0.14829335D+02

 Leave Link  801 at Mon Mar  6 10:27:13 2023, MaxMem=  1048576000 cpu:               0.0 elap:               0.0
 (Enter /ssoft/spack/external/gaussian/g16-C.01/avx2/g16/l1101.exe)
 Using compressed storage, NAtomX=    35.
 Will process     36 centers per pass.
   1 Symmetry operations used in ECPInt.
 ECPInt:  NShTT=   13203 NPrTT=   47881 LenC2=   11378 LenP2D=   28810.
 LDataN:  DoStor=T MaxTD1= 5 Len=  102
 R6Disp: Adding Grimme-D3(BJ) dispersion energy 1st derivatives to the gradient.
 Leave Link 1101 at Mon Mar  6 10:27:14 2023, MaxMem=  1048576000 cpu:               0.5 elap:               0.6
 (Enter /ssoft/spack/external/gaussian/g16-C.01/avx2/g16/l1102.exe)
 Symmetrizing basis deriv contribution to polar:
 IMax=3 JMax=2 DiffMx= 0.00D+00
 Leave Link 1102 at Mon Mar  6 10:27:14 2023, MaxMem=  1048576000 cpu:               0.1 elap:               0.1
 (Enter /ssoft/spack/external/gaussian/g16-C.01/avx2/g16/l1110.exe)
 Forming Gx(P) for the SCF density, NAtomX=    35.
 Integral derivatives from FoFJK, PRISM(SPDF).
 Do as many integral derivatives as possible in FoFJK.
 G2DrvN: MDV=    1048572259.
 G2DrvN: will do    36 centers at a time, making    1 passes.
 Calling FoFCou, ICntrl=  3107 FMM=F I1Cent=   0 AccDes= 0.00D+00.
 FoFJK:  IHMeth= 1 ICntrl=    3107 DoSepK=F KAlg= 0 I1Cent=           0 FoldK=F
 IRaf=         0 NMat=       1 IRICut=       1 DoRegI=T DoRafI=F ISym2E= 0 IDoP0=0 IntGTp=1.
 FoFCou: FMM=F IPFlag=           0 FMFlag=      100000 FMFlg1=           0
         NFxFlg=           0 DoJE=F BraDBF=F KetDBF=F FulRan=T
         wScrn=  0.000000 ICntrl=      3107 IOpCl=  0 I1Cent=           0 NGrid=           0
         NMat0=    1 NMatS0=      1 NMatT0=    0 NMatD0=    1 NMtDS0=    0 NMtDT0=    0
 Symmetry not used in FoFCou.
 End of G2Drv F.D. properties file   721 does not exist.
 End of G2Drv F.D. properties file   722 does not exist.
 End of G2Drv F.D. properties file   788 does not exist.
 Leave Link 1110 at Mon Mar  6 10:38:35 2023, MaxMem=  1048576000 cpu:             678.8 elap:             681.7
 (Enter /ssoft/spack/external/gaussian/g16-C.01/avx2/g16/l1002.exe)
 Minotr:  Closed shell wavefunction.
          IDoAtm=11111111111111111111111111111111111
          Direct CPHF calculation.
          Differentiating once with respect to electric field.
                with respect to dipole field.
          Differentiating once with respect to nuclear coordinates.
          Requested convergence is 1.0D-08 RMS, and 1.0D-07 maximum.
          Secondary convergence is 1.0D-12 RMS, and 1.0D-12 maximum.
          NewPWx=T KeepS1=F KeepF1=F KeepIn=T MapXYZ=F SortEE=F KeepMc=T.
        10662 words used for storage of precomputed grid.
 Two-electron integrals replicated using symmetry.
          MDV=    1048576000 using IRadAn=       1.
          Solving linear equations simultaneously, MaxMat=     384.
 FoF2E skips out because all densities are zero.
 CalDSu exits because no D1Ps are significant.
 FoFJK:  IHMeth= 1 ICntrl=       0 DoSepK=F KAlg= 0 I1Cent=           0 FoldK=F
 IRaf= 750000000 NMat=     105 IRICut=     262 DoRegI=T DoRafI=T ISym2E= 2 IDoP0=3 IntGTp=3.
 FoFCou: FMM=F IPFlag=           0 FMFlag=      100000 FMFlg1=           0
         NFxFlg=           0 DoJE=F BraDBF=F KetDBF=F FulRan=T
         wScrn=  0.000000 ICntrl=         0 IOpCl=  0 I1Cent=           0 NGrid=           0
         NMat0=  105 NMatS0=    105 NMatT0=    0 NMatD0=  105 NMtDS0=    0 NMtDT0=    0
 Integrals replicated using symmetry in FoFCou.
 Raff kept on since  70.42% of shell-pairs survive, threshold=   0.20 IRatSp=70.
          There are   108 degrees of freedom in the 1st order CPHF.  IDoFFX=6 NUNeed=     3.
    105 vectors produced by pass  0 Test12= 1.89D-14 1.00D-09 XBig12= 3.23D+02 7.15D+00.
 AX will form   105 AO Fock derivatives at one time.
    105 vectors produced by pass  1 Test12= 1.89D-14 1.00D-09 XBig12= 7.36D+01 1.97D+00.
    105 vectors produced by pass  2 Test12= 1.89D-14 1.00D-09 XBig12= 5.04D-01 7.32D-02.
    105 vectors produced by pass  3 Test12= 1.89D-14 1.00D-09 XBig12= 2.11D-03 4.81D-03.
    105 vectors produced by pass  4 Test12= 1.89D-14 1.00D-09 XBig12= 6.75D-06 2.22D-04.
    101 vectors produced by pass  5 Test12= 1.89D-14 1.00D-09 XBig12= 9.50D-09 7.30D-06.
     27 vectors produced by pass  6 Test12= 1.89D-14 1.00D-09 XBig12= 1.17D-11 2.48D-07.
      3 vectors produced by pass  7 Test12= 1.89D-14 1.00D-09 XBig12= 1.20D-14 9.72D-09.
 InvSVY:  IOpt=1 It=  1 EMax= 1.07D-14
 Solved reduced A of dimension   656 with   108 vectors.
 FullF1:  Do perturbations      1 to       3.
 Isotropic polarizability for W=    0.000000      191.00 Bohr**3.
 End of Minotr F.D. properties file   721 does not exist.
 End of Minotr F.D. properties file   722 does not exist.
 End of Minotr F.D. properties file   788 does not exist.
 Leave Link 1002 at Mon Mar  6 10:58:56 2023, MaxMem=  1048576000 cpu:            1216.0 elap:            1220.4
 (Enter /ssoft/spack/external/gaussian/g16-C.01/avx2/g16/l601.exe)
 Copying SCF densities to generalized density rwf, IOpCl= 0 IROHF=0.

 **********************************************************************

            Population analysis using the SCF Density.

 **********************************************************************

 Orbital symmetries:
       Occupied  (A) (A) (A) (A) (A) (A) (A) (A) (A) (A) (A) (A)
                 (A) (A) (A) (A) (A) (A) (A) (A) (A) (A) (A) (A)
                 (A) (A) (A) (A) (A) (A) (A) (A) (A) (A) (A) (A)
                 (A) (A) (A) (A) (A) (A) (A) (A) (A) (A) (A) (A)
                 (A) (A) (A) (A) (A) (A) (A) (A) (A) (A) (A) (A)
                 (A) (A) (A) (A) (A) (A) (A) (A)
       Virtual   (A) (A) (A) (A) (A) (A) (A) (A) (A) (A) (A) (A)
                 (A) (A) (A) (A) (A) (A) (A) (A) (A) (A) (A) (A)
                 (A) (A) (A) (A) (A) (A) (A) (A) (A) (A) (A) (A)
                 (A) (A) (A) (A) (A) (A) (A) (A) (A) (A) (A) (A)
                 (A) (A) (A) (A) (A) (A) (A) (A) (A) (A) (A) (A)
                 (A) (A) (A) (A) (A) (A) (A) (A) (A) (A) (A) (A)
                 (A) (A) (A) (A) (A) (A) (A) (A) (A) (A) (A) (A)
                 (A) (A) (A) (A) (A) (A) (A) (A) (A) (A) (A) (A)
                 (A) (A) (A) (A) (A) (A) (A) (A) (A) (A) (A) (A)
                 (A) (A) (A) (A) (A) (A) (A) (A) (A) (A) (A) (A)
                 (A) (A) (A) (A) (A) (A) (A) (A) (A) (A) (A) (A)
                 (A) (A) (A) (A) (A) (A) (A) (A) (A) (A) (A) (A)
                 (A) (A) (A) (A) (A) (A) (A) (A) (A) (A) (A) (A)
                 (A) (A) (A) (A) (A) (A) (A) (A) (A) (A) (A) (A)
                 (A) (A) (A) (A) (A) (A) (A) (A) (A) (A) (A) (A)
                 (A) (A) (A) (A) (A) (A) (A) (A) (A) (A) (A) (A)
                 (A) (A) (A) (A) (A) (A) (A) (A) (A) (A) (A) (A)
                 (A) (A) (A) (A) (A) (A) (A) (A) (A) (A) (A) (A)
                 (A) (A) (A) (A) (A) (A) (A) (A) (A) (A) (A) (A)
                 (A) (A) (A) (A) (A) (A) (A) (A) (A) (A) (A) (A)
                 (A) (A) (A) (A) (A) (A) (A) (A) (A) (A) (A) (A)
                 (A) (A) (A) (A) (A) (A) (A) (A) (A) (A) (A) (A)
                 (A) (A) (A) (A) (A) (A) (A) (A) (A) (A) (A) (A)
                 (A) (A)
 The electronic state is 1-A.
 Alpha  occ. eigenvalues --  -19.14719 -18.94434 -14.20887 -10.18939 -10.17590
 Alpha  occ. eigenvalues --  -10.12401 -10.12178 -10.11983 -10.11699 -10.11393
 Alpha  occ. eigenvalues --  -10.11335 -10.09529 -10.09256 -10.07701 -10.06130
 Alpha  occ. eigenvalues --  -10.05935 -10.05052 -10.04418 -10.03501  -0.99224
 Alpha  occ. eigenvalues --   -0.79483  -0.78078  -0.76914  -0.70557  -0.69763
 Alpha  occ. eigenvalues --   -0.68100  -0.67310  -0.63448  -0.61786  -0.57895
 Alpha  occ. eigenvalues --   -0.55830  -0.54324  -0.51114  -0.48679  -0.47236
 Alpha  occ. eigenvalues --   -0.46812  -0.42767  -0.42529  -0.42185  -0.40373
 Alpha  occ. eigenvalues --   -0.39112  -0.37648  -0.37236  -0.35979  -0.35195
 Alpha  occ. eigenvalues --   -0.33283  -0.32576  -0.31190  -0.30650  -0.29819
 Alpha  occ. eigenvalues --   -0.28727  -0.28656  -0.27249  -0.25507  -0.25058
 Alpha  occ. eigenvalues --   -0.23877  -0.23511  -0.23383  -0.20803  -0.18229
 Alpha  occ. eigenvalues --   -0.17372  -0.16658  -0.14586  -0.13310  -0.09905
 Alpha  occ. eigenvalues --   -0.09445  -0.02936  -0.01900
 Alpha virt. eigenvalues --    0.09593   0.11539   0.13150   0.16540   0.19155
 Alpha virt. eigenvalues --    0.19469   0.20691   0.21321   0.21802   0.22212
 Alpha virt. eigenvalues --    0.22481   0.23442   0.23935   0.25095   0.25605
 Alpha virt. eigenvalues --    0.26920   0.27302   0.27932   0.28612   0.29482
 Alpha virt. eigenvalues --    0.31162   0.32072   0.32795   0.33755   0.35131
 Alpha virt. eigenvalues --    0.36241   0.37197   0.39168   0.40364   0.41830
 Alpha virt. eigenvalues --    0.42116   0.43910   0.44762   0.45173   0.45792
 Alpha virt. eigenvalues --    0.47658   0.48654   0.49558   0.50773   0.53022
 Alpha virt. eigenvalues --    0.53061   0.53083   0.53432   0.54556   0.55535
 Alpha virt. eigenvalues --    0.57599   0.58137   0.59417   0.60157   0.60545
 Alpha virt. eigenvalues --    0.61730   0.62306   0.62927   0.63068   0.64982
 Alpha virt. eigenvalues --    0.65273   0.65739   0.66003   0.67275   0.68266
 Alpha virt. eigenvalues --    0.69420   0.70557   0.71124   0.72606   0.73015
 Alpha virt. eigenvalues --    0.73799   0.74299   0.75822   0.75925   0.76745
 Alpha virt. eigenvalues --    0.77763   0.78337   0.78849   0.80200   0.80335
 Alpha virt. eigenvalues --    0.80948   0.81229   0.82079   0.82859   0.83864
 Alpha virt. eigenvalues --    0.84577   0.84943   0.85209   0.85773   0.86823
 Alpha virt. eigenvalues --    0.87634   0.88700   0.89291   0.89608   0.90173
 Alpha virt. eigenvalues --    0.91119   0.91280   0.91641   0.92079   0.92787
 Alpha virt. eigenvalues --    0.93235   0.94155   0.94859   0.95827   0.97315
 Alpha virt. eigenvalues --    0.97641   0.98292   0.98816   1.00396   1.01112
 Alpha virt. eigenvalues --    1.02205   1.03714   1.06636   1.08226   1.09763
 Alpha virt. eigenvalues --    1.10433   1.11444   1.13532   1.16654   1.17879
 Alpha virt. eigenvalues --    1.19727   1.22498   1.23856   1.26136   1.28255
 Alpha virt. eigenvalues --    1.29907   1.30683   1.31809   1.32574   1.35547
 Alpha virt. eigenvalues --    1.36281   1.36681   1.37601   1.39134   1.39557
 Alpha virt. eigenvalues --    1.40991   1.42266   1.42486   1.43145   1.43895
 Alpha virt. eigenvalues --    1.44929   1.45633   1.45786   1.47857   1.50032
 Alpha virt. eigenvalues --    1.51757   1.54162   1.57613   1.58769   1.60228
 Alpha virt. eigenvalues --    1.64286   1.65007   1.65992   1.66852   1.69489
 Alpha virt. eigenvalues --    1.70170   1.74983   1.76159   1.77413   1.79807
 Alpha virt. eigenvalues --    1.82080   1.84053   1.84786   1.86138   1.87685
 Alpha virt. eigenvalues --    1.88424   1.89675   1.90306   1.90826   1.91538
 Alpha virt. eigenvalues --    1.92158   1.93311   1.94173   1.94840   1.96033
 Alpha virt. eigenvalues --    1.98158   1.99209   2.00095   2.00272   2.01660
 Alpha virt. eigenvalues --    2.02400   2.02713   2.03916   2.04873   2.05170
 Alpha virt. eigenvalues --    2.06742   2.08837   2.09278   2.10532   2.11757
 Alpha virt. eigenvalues --    2.12237   2.12989   2.15945   2.18183   2.18695
 Alpha virt. eigenvalues --    2.19288   2.21938   2.22698   2.23086   2.24044
 Alpha virt. eigenvalues --    2.25489   2.28645   2.29411   2.31005   2.31654
 Alpha virt. eigenvalues --    2.32993   2.33985   2.35111   2.35675   2.36115
 Alpha virt. eigenvalues --    2.37394   2.38110   2.39430   2.41069   2.41900
 Alpha virt. eigenvalues --    2.42924   2.43189   2.44007   2.46354   2.48738
 Alpha virt. eigenvalues --    2.52236   2.53788   2.54338   2.56007   2.57244
 Alpha virt. eigenvalues --    2.58526   2.58715   2.59328   2.61075   2.63990
 Alpha virt. eigenvalues --    2.68044   2.68471   2.69442   2.71212   2.74606
 Alpha virt. eigenvalues --    2.75304   2.77671   2.79708   2.81277   2.81839
 Alpha virt. eigenvalues --    2.83940   2.86676   2.88395   2.89496   2.92454
 Alpha virt. eigenvalues --    2.95726   2.97861   2.99071   3.00203   3.02255
 Alpha virt. eigenvalues --    3.02974   3.08851   3.10559   3.12241   3.15246
 Alpha virt. eigenvalues --    3.17704   3.18330   3.23437   3.24809   3.28471
 Alpha virt. eigenvalues --    3.29108   3.30270   3.30360   3.30675   3.31727
 Alpha virt. eigenvalues --    3.33565   3.34574   3.36458   3.38182   3.40150
 Alpha virt. eigenvalues --    3.41521   3.43496   3.45883   3.49466   3.60639
 Alpha virt. eigenvalues --    3.61669   3.64578   3.65656   3.66832   3.77151
 Alpha virt. eigenvalues --    3.80800   4.01167   4.08120
     Molecular Orbital Coefficients:
                          64        65        66        67        68
                           O         O         O         O         O
     Eigenvalues --    -0.13310  -0.09905  -0.09445  -0.02936  -0.01900
   1 1   O  1S          0.00028  -0.01184  -0.00090   0.00659  -0.00128
   2        2S          0.00051  -0.02441  -0.00221   0.01168  -0.00258
   3        3S         -0.00157  -0.04029   0.00027   0.04608  -0.00558
   4        4PX         0.00495   0.07639  -0.00845   0.35522   0.02951
   5        4PY         0.01454   0.13661   0.04643   0.39962  -0.24069
   6        4PZ        -0.02331   0.07410  -0.05695   0.21053   0.30929
   7        5PX         0.00407   0.06389  -0.00624   0.25140   0.02762
   8        5PY         0.01006   0.09822   0.03223   0.30194  -0.19109
   9        5PZ        -0.01629   0.05010  -0.03912   0.16532   0.24724
  10        6D 0       -0.00061   0.00076  -0.00225   0.00483   0.00580
  11        6D+1        0.00101  -0.00051   0.00183  -0.00121  -0.00625
  12        6D-1       -0.00004   0.00274  -0.00038   0.00628   0.00060
  13        6D+2       -0.00022  -0.00364  -0.00053  -0.01085   0.00176
  14        6D-2       -0.00049  -0.00081  -0.00159  -0.00583   0.00576
  15 2   N  1S          0.02955   0.09002   0.00247  -0.03629   0.00473
  16        2S          0.06103   0.17886   0.00666  -0.07800   0.01093
  17        3S          0.12292   0.30828  -0.01807  -0.15643   0.00568
  18        4PX        -0.08365  -0.05841  -0.07779   0.01819  -0.05780
  19        4PY         0.00616   0.35815   0.14626  -0.11335   0.12520
  20        4PZ         0.02643   0.31543  -0.17452  -0.11551  -0.11414
  21        5PX         0.05594   0.08956   0.05897  -0.02872   0.05979
  22        5PY         0.01050  -0.22540  -0.11457   0.03769  -0.10166
  23        5PZ        -0.01397  -0.22067   0.12966   0.06865   0.10840
  24        6D 0        0.00092   0.00051   0.01049  -0.00117   0.00521
  25        6D+1        0.00125   0.00472  -0.00234   0.00058   0.00095
  26        6D-1       -0.00178  -0.01594   0.00013   0.00688  -0.00018
  27        6D+2       -0.00223   0.00524   0.00204  -0.00374   0.00323
  28        6D-2        0.00479   0.00085   0.00596   0.00191   0.00135
  29 3   C  1S         -0.00088  -0.01030  -0.00151   0.00144  -0.00080
  30        2S          0.00179   0.02183   0.00363  -0.00489   0.00145
  31        3S         -0.00129   0.11587   0.02024   0.16873  -0.00516
  32        4PX        -0.00868   0.00125  -0.01080  -0.06351  -0.00296
  33        4PY         0.01272  -0.00901   0.02456  -0.06891   0.04007
  34        4PZ        -0.01280   0.00917  -0.04104  -0.03515  -0.04767
  35        5PX         0.00445   0.05305  -0.00766   0.00982   0.01104
  36        5PY         0.00880   0.06874   0.03058   0.17263  -0.03329
  37        5PZ        -0.01325   0.03510  -0.02325   0.11187   0.03330
  38        6D 0        0.00231  -0.00332  -0.00520  -0.01342  -0.02077
  39        6D+1        0.00136  -0.00122  -0.01004   0.00541   0.02000
  40        6D-1        0.00132  -0.00512  -0.00655  -0.02039  -0.00211
  41        6D+2        0.00173   0.00999  -0.00646   0.03242  -0.00574
  42        6D-2        0.00106   0.00292   0.00391   0.01787  -0.01977
  43 4   C  1S          0.00280  -0.00504  -0.00095  -0.01384   0.00174
  44        2S         -0.00673   0.00851   0.00106   0.03132  -0.00386
  45        3S         -0.01091  -0.04877   0.00771   0.11562  -0.02374
  46        4PX        -0.00718   0.02524  -0.05278   0.01955   0.00946
  47        4PY        -0.02092  -0.02587   0.14684  -0.03322  -0.02631
  48        4PZ         0.03416  -0.02573  -0.22513  -0.01207   0.04452
  49        5PX         0.00641   0.03127  -0.03739   0.00414   0.01212
  50        5PY        -0.01160   0.01669   0.11471  -0.04630  -0.01035
  51        5PZ         0.02618   0.00262  -0.17707  -0.02280   0.03233
  52        6D 0       -0.00118   0.00008   0.00478  -0.00095   0.00638
  53        6D+1        0.00179   0.00045  -0.00515  -0.00187  -0.01623
  54        6D-1       -0.00008   0.00018   0.00030  -0.00393  -0.00283
  55        6D+2        0.00081  -0.00009  -0.00057   0.00419  -0.00564
  56        6D-2       -0.00047  -0.00067   0.00399   0.00359   0.01039
  57 5   C  1S         -0.00075   0.04001   0.00182   0.03185  -0.00251
  58        2S          0.00115  -0.09428  -0.00251  -0.07903   0.00715
  59        3S         -0.02295  -0.32130  -0.04312  -0.28762   0.00065
  60        4PX         0.02603  -0.10028  -0.05599   0.00578  -0.06164
  61        4PY        -0.02398  -0.01923   0.11708   0.15330   0.11372
  62        4PZ         0.04002   0.02361  -0.18810   0.06164  -0.21924
  63        5PX        -0.00164  -0.17428  -0.04532   0.08262  -0.08219
  64        5PY        -0.02557  -0.00764   0.08752   0.24077   0.11448
  65        5PZ         0.02369   0.04876  -0.12723   0.09909  -0.22985
  66        6D 0        0.00201   0.00059  -0.00608  -0.00162   0.00164
  67        6D+1        0.00155  -0.00024   0.00814  -0.00181  -0.00012
  68        6D-1        0.00170   0.00252   0.00083  -0.00113   0.00084
  69        6D+2        0.00027  -0.00276   0.00119   0.00339  -0.00043
  70        6D-2        0.00119  -0.00140  -0.00682   0.00063   0.00046
  71 6   C  1S          0.00931   0.03247   0.00087  -0.01190   0.00144
  72        2S         -0.02426  -0.09086  -0.00228   0.02279  -0.00338
  73        3S          0.00816   0.11869   0.02045   0.00336   0.02301
  74        4PX        -0.03357  -0.07003   0.02858  -0.00552  -0.01315
  75        4PY        -0.01580   0.09799  -0.05370  -0.02078   0.03225
  76        4PZ         0.06635   0.08962   0.08953  -0.03774  -0.02569
  77        5PX        -0.02723  -0.07124   0.02366   0.05517  -0.00945
  78        5PY        -0.02802  -0.09554  -0.05303   0.01099  -0.00632
  79        5PZ         0.03548  -0.05167   0.05726  -0.02221  -0.00714
  80        6D 0       -0.00015   0.01237  -0.00691  -0.00546  -0.00376
  81        6D+1       -0.00069  -0.00781   0.01535   0.00144   0.01365
  82        6D-1        0.00010   0.01592   0.00667  -0.00523   0.00711
  83        6D+2       -0.00184  -0.01692   0.00670   0.00854   0.00510
  84        6D-2        0.00052  -0.02009  -0.01206   0.00460  -0.01072
  85 7   H  1S          0.01632   0.16268   0.01228  -0.05899   0.01632
  86        2S          0.00628   0.20453   0.00972  -0.08214   0.02042
  87        3PX        -0.00100  -0.00108   0.00078  -0.00145  -0.00075
  88        3PY        -0.00130   0.00226  -0.00197  -0.00081   0.00235
  89        3PZ         0.00172   0.00165   0.00257  -0.00143  -0.00221
  90 8   C  1S          0.00823   0.03498   0.00102  -0.01628   0.00251
  91        2S         -0.01352  -0.09281  -0.00302   0.04624  -0.00648
  92        3S         -0.08325  -0.17500   0.03508   0.09600  -0.01809
  93        4PX        -0.01117   0.08648  -0.00635  -0.04354   0.00379
  94        4PY        -0.02045   0.14369   0.02574  -0.04883   0.01729
  95        4PZ        -0.03087   0.08628  -0.04624  -0.02275  -0.01415
  96        5PX         0.00038   0.11938   0.01445  -0.07864   0.00813
  97        5PY         0.00792   0.07898  -0.05028  -0.01639  -0.02090
  98        5PZ        -0.00506  -0.01057   0.01923   0.01887   0.01972
  99        6D 0       -0.00213   0.01326  -0.00256  -0.00416  -0.00126
 100        6D+1        0.00827   0.00237  -0.00460  -0.00158  -0.00446
 101        6D-1       -0.00099   0.01158  -0.00766  -0.00469  -0.00500
 102        6D+2        0.00574  -0.01536  -0.00713   0.00509  -0.00735
 103        6D-2        0.00911  -0.00513   0.00400   0.00181   0.00226
 104 9   H  1S         -0.05066   0.12797  -0.04135  -0.03800  -0.01566
 105        2S         -0.01631   0.17521  -0.03077  -0.09806  -0.01510
 106        3PX         0.00089   0.00149  -0.00159  -0.00028  -0.00089
 107        3PY        -0.00105   0.00392   0.00189  -0.00206   0.00091
 108        3PZ         0.00153  -0.00068  -0.00088   0.00017  -0.00042
 109 10  C  1S          0.00270   0.00319  -0.01738  -0.00235  -0.01214
 110        2S         -0.00599  -0.01029   0.04156   0.00697   0.02874
 111        3S         -0.00296  -0.05558   0.12093   0.02541   0.08983
 112        4PX        -0.01539  -0.00988  -0.01878   0.00292  -0.00707
 113        4PY         0.00524  -0.01855  -0.05945   0.00219  -0.03851
 114        4PZ        -0.00769  -0.00175   0.04175  -0.00043   0.02436
 115        5PX        -0.01481  -0.04150   0.00938   0.02030   0.01880
 116        5PY        -0.01999  -0.01320  -0.03283   0.00534  -0.02744
 117        5PZ        -0.01816   0.03985   0.04630  -0.02260   0.03399
 118        6D 0       -0.00228   0.00690   0.00080  -0.00221   0.00145
 119        6D+1        0.00085   0.00065  -0.00022  -0.00058  -0.00018
 120        6D-1       -0.00016   0.00092  -0.00191  -0.00043  -0.00077
 121        6D+2        0.00042   0.00162  -0.00053  -0.00060   0.00011
 122        6D-2       -0.00005  -0.00246  -0.00292   0.00100  -0.00256
 123 11  H  1S          0.01364  -0.00354   0.01188  -0.00012   0.00719
 124        2S          0.00658  -0.00847  -0.01803  -0.00353   0.00322
 125        3PX         0.00021   0.00017   0.00048  -0.00016   0.00044
 126        3PY         0.00053   0.00023  -0.00124  -0.00003  -0.00078
 127        3PZ        -0.00024  -0.00142   0.00085   0.00047   0.00049
 128 12  H  1S         -0.00923   0.02256  -0.00238  -0.00539   0.00468
 129        2S         -0.02226   0.10501  -0.02122  -0.04547  -0.01729
 130        3PX        -0.00086  -0.00070  -0.00059   0.00026  -0.00021
 131        3PY         0.00075  -0.00102  -0.00153   0.00034  -0.00077
 132        3PZ        -0.00002   0.00042   0.00113   0.00004   0.00061
 133 13  H  1S         -0.00297  -0.03094  -0.03136   0.00881  -0.02071
 134        2S          0.03504  -0.00881  -0.05204  -0.00045  -0.04879
 135        3PX         0.00072   0.00067   0.00001  -0.00024  -0.00022
 136        3PY        -0.00008  -0.00077  -0.00186   0.00021  -0.00157
 137        3PZ         0.00066   0.00015   0.00198  -0.00000   0.00121
 138 14  C  1S          0.00313   0.01759   0.00962  -0.00502   0.00825
 139        2S         -0.01990  -0.06132  -0.02373   0.02056  -0.02227
 140        3S          0.06989   0.04137  -0.07053  -0.02500  -0.05544
 141        4PX         0.13569   0.05032   0.04442  -0.01407   0.02452
 142        4PY         0.22764  -0.02891   0.01021   0.00331  -0.00738
 143        4PZ         0.16280  -0.00116   0.02425  -0.00288   0.00371
 144        5PX         0.07425   0.01100   0.08941  -0.01637   0.02919
 145        5PY         0.16912  -0.06888   0.02154   0.03659   0.00891
 146        5PZ         0.10066   0.02813  -0.04634  -0.02193  -0.03816
 147        6D 0       -0.00114   0.00061   0.00006  -0.00033  -0.00091
 148        6D+1        0.00428  -0.00171   0.00166   0.00020   0.00059
 149        6D-1       -0.00200   0.00295  -0.00137  -0.00096  -0.00069
 150        6D+2        0.00526  -0.00369   0.00094   0.00184   0.00095
 151        6D-2        0.00528   0.00031   0.00266   0.00005   0.00191
 152 15  C  1S          0.00244   0.00175  -0.00018  -0.00043   0.00116
 153        2S         -0.00983  -0.01229  -0.00210   0.00259  -0.00679
 154        3S          0.01578  -0.03063   0.06052   0.04024   0.05094
 155        4PX         0.04955  -0.00374   0.01510   0.00104   0.00831
 156        4PY         0.09164  -0.00761   0.03195   0.00297   0.01120
 157        4PZ         0.06630  -0.01184   0.00757   0.00417   0.00180
 158        5PX         0.04743   0.00338  -0.00871   0.00169  -0.00619
 159        5PY         0.05951  -0.03570   0.04337   0.01702   0.02409
 160        5PZ         0.04224   0.01218  -0.02772  -0.01803  -0.03198
 161        6D 0       -0.00951   0.00108  -0.00110  -0.00006  -0.00005
 162        6D+1       -0.00891  -0.00108  -0.00023   0.00044   0.00026
 163        6D-1       -0.00082   0.00050  -0.00058  -0.00043  -0.00037
 164        6D+2       -0.01278   0.00024  -0.00024   0.00036   0.00104
 165        6D-2       -0.00059   0.00189   0.00086  -0.00056   0.00089
 166 16  H  1S          0.00059  -0.00169  -0.00263   0.00084  -0.00227
 167        2S          0.00867   0.01351   0.01630  -0.00068   0.01897
 168        3PX         0.00199  -0.00053   0.00002   0.00027  -0.00017
 169        3PY         0.00369   0.00035   0.00106  -0.00018   0.00033
 170        3PZ         0.00220  -0.00058  -0.00006   0.00026  -0.00012
 171 17  C  1S         -0.00278   0.00193   0.00078  -0.00053   0.00038
 172        2S          0.00938  -0.00453   0.00053   0.00172   0.00053
 173        3S         -0.02599  -0.01413  -0.01371  -0.01000  -0.01433
 174        4PX        -0.07821   0.00963   0.00258  -0.00050   0.00598
 175        4PY        -0.15018   0.00280  -0.00673   0.00220   0.00614
 176        4PZ        -0.10883   0.00668  -0.00118   0.00035   0.00529
 177        5PX        -0.05719   0.03149  -0.00454  -0.00736   0.00423
 178        5PY        -0.11959  -0.00168  -0.00485  -0.00053   0.00608
 179        5PZ        -0.07564  -0.00085   0.01628   0.01037   0.02107
 180        6D 0        0.00806  -0.00062   0.00121   0.00018   0.00052
 181        6D+1       -0.00244   0.00078  -0.00026  -0.00031  -0.00002
 182        6D-1        0.00643  -0.00091   0.00071   0.00036   0.00030
 183        6D+2       -0.00588   0.00041  -0.00208  -0.00020  -0.00098
 184        6D-2       -0.00788   0.00051  -0.00133  -0.00012  -0.00061
 185 18  H  1S          0.00233   0.00359   0.00366  -0.00135   0.00143
 186        2S         -0.00163   0.00232  -0.00226  -0.00287  -0.00230
 187        3PX        -0.00334  -0.00022   0.00004   0.00012   0.00020
 188        3PY        -0.00559   0.00012  -0.00038   0.00013   0.00016
 189        3PZ        -0.00380   0.00044  -0.00021  -0.00014   0.00010
 190 19  C  1S         -0.00021   0.00055   0.00064  -0.00017   0.00073
 191        2S          0.00149  -0.00309  -0.00081   0.00073  -0.00170
 192        3S          0.00823  -0.00925  -0.00433   0.01372   0.00367
 193        4PX        -0.12794   0.01168  -0.01581  -0.00337  -0.00621
 194        4PY        -0.19615   0.01546  -0.02705  -0.00469  -0.01197
 195        4PZ        -0.13885   0.01144  -0.02116  -0.00319  -0.00907
 196        5PX        -0.07669   0.00260  -0.01658  -0.00655  -0.01329
 197        5PY        -0.11716   0.01825  -0.02816  -0.00471  -0.01382
 198        5PZ        -0.08151  -0.00217   0.00035   0.00160   0.00016
 199        6D 0        0.00168   0.00002   0.00105   0.00020   0.00083
 200        6D+1        0.00831  -0.00050   0.00080   0.00000   0.00019
 201        6D-1       -0.00428   0.00003   0.00005   0.00010   0.00038
 202        6D+2        0.01702  -0.00106   0.00179   0.00020   0.00054
 203        6D-2        0.00768  -0.00013   0.00027  -0.00004  -0.00035
 204 20  C  1S          0.00032   0.00275   0.00122  -0.00046   0.00105
 205        2S          0.00045  -0.00501  -0.00269   0.00018  -0.00262
 206        3S         -0.04161  -0.06539   0.00621   0.01449  -0.01212
 207        4PX        -0.07496   0.01411  -0.00786  -0.00260  -0.00194
 208        4PY        -0.12703   0.00273  -0.02397  -0.00153  -0.01090
 209        4PZ        -0.09824   0.00597  -0.01566  -0.00194  -0.00680
 210        5PX        -0.04903   0.03594  -0.00309  -0.00943   0.00443
 211        5PY        -0.12364  -0.00983  -0.03457   0.00311  -0.02084
 212        5PZ        -0.07931   0.00802  -0.00006  -0.00358  -0.00080
 213        6D 0       -0.00874   0.00077  -0.00125  -0.00027  -0.00063
 214        6D+1       -0.00849   0.00019  -0.00161  -0.00017  -0.00109
 215        6D-1       -0.00120   0.00054   0.00001  -0.00010   0.00021
 216        6D+2       -0.01154   0.00145  -0.00165  -0.00047  -0.00092
 217        6D-2        0.00000   0.00052  -0.00029  -0.00024  -0.00027
 218 21  H  1S          0.00262   0.00393   0.00228  -0.00028   0.00207
 219        2S          0.00747   0.00789   0.00383  -0.00165   0.00392
 220        3PX        -0.00371   0.00010  -0.00052  -0.00002  -0.00024
 221        3PY        -0.00489   0.00053  -0.00080  -0.00024  -0.00037
 222        3PZ        -0.00418  -0.00001  -0.00096   0.00005  -0.00048
 223 22  C  1S          0.00157  -0.00201  -0.00059  -0.00034  -0.00105
 224        2S         -0.00706   0.00190  -0.00090   0.00210   0.00148
 225        3S          0.02009   0.07301  -0.04668  -0.01929  -0.00819
 226        4PX         0.07682  -0.01738   0.00936   0.00286   0.00484
 227        4PY         0.12884  -0.01028   0.02287   0.00458   0.01450
 228        4PZ         0.09078  -0.00219   0.01578   0.00299   0.01285
 229        5PX         0.08806   0.01177   0.03746  -0.00272   0.02714
 230        5PY         0.09042  -0.01877   0.02408   0.00332   0.01195
 231        5PZ         0.06754  -0.01367  -0.01351   0.00994   0.00559
 232        6D 0        0.00754   0.00124   0.00182  -0.00032   0.00088
 233        6D+1       -0.00457   0.00035  -0.00030  -0.00010  -0.00004
 234        6D-1        0.00807  -0.00107   0.00046   0.00005  -0.00026
 235        6D+2       -0.00866  -0.00054  -0.00206   0.00010  -0.00110
 236        6D-2       -0.00979   0.00097  -0.00090  -0.00002  -0.00004
 237 23  H  1S         -0.00180   0.00490   0.00360  -0.00064   0.00261
 238        2S         -0.00338  -0.01598  -0.00189   0.00859   0.00373
 239        3PX         0.00263  -0.00141  -0.00017   0.00045  -0.00022
 240        3PY         0.00518  -0.00003   0.00097   0.00015   0.00082
 241        3PZ         0.00383  -0.00018   0.00083   0.00010   0.00048
 242 24  O  1S          0.00190  -0.00067   0.00012   0.00014   0.00009
 243        2S          0.00331  -0.00202   0.00022   0.00041   0.00009
 244        3S          0.00730   0.00416  -0.00039  -0.00084   0.00120
 245        4PX         0.15594  -0.00875   0.01582   0.00187   0.00424
 246        4PY         0.22252  -0.01526   0.02190   0.00299   0.00641
 247        4PZ         0.13602  -0.00816   0.01449   0.00173   0.00429
 248        5PX         0.13004  -0.00817   0.01511   0.00168   0.00458
 249        5PY         0.18311  -0.01218   0.01885   0.00279   0.00626
 250        5PZ         0.11234  -0.00703   0.01120   0.00156   0.00334
 251        6D 0       -0.00442   0.00030  -0.00035  -0.00006  -0.00003
 252        6D+1       -0.00064  -0.00013   0.00013   0.00007   0.00015
 253        6D-1       -0.00438   0.00034  -0.00055  -0.00008  -0.00021
 254        6D+2        0.00135  -0.00021   0.00036   0.00011   0.00025
 255        6D-2        0.00346  -0.00027   0.00045   0.00006   0.00016
 256 25  C  1S          0.00301  -0.00012   0.00062   0.00008   0.00038
 257        2S         -0.00804   0.00147  -0.00187  -0.00075  -0.00106
 258        3S         -0.00308  -0.00442  -0.00048   0.00195  -0.00100
 259        4PX        -0.00947  -0.00044   0.00069   0.00042   0.00107
 260        4PY        -0.02604   0.00052  -0.00133   0.00013   0.00036
 261        4PZ        -0.01924   0.00185  -0.00101  -0.00018   0.00026
 262        5PX         0.02884   0.00050   0.00423  -0.00071   0.00220
 263        5PY         0.04070  -0.00677   0.00751   0.00293   0.00464
 264        5PZ         0.01709   0.00071   0.00257  -0.00004   0.00151
 265        6D 0        0.01031  -0.00076   0.00094   0.00017   0.00021
 266        6D+1        0.00540  -0.00024   0.00067   0.00005   0.00026
 267        6D-1        0.01009  -0.00075   0.00095   0.00015   0.00024
 268        6D+2       -0.00203   0.00009  -0.00017  -0.00001   0.00001
 269        6D-2       -0.00738   0.00030  -0.00086  -0.00004  -0.00033
 270 26  H  1S          0.00084  -0.00013   0.00073   0.00018   0.00069
 271        2S          0.00395  -0.00244   0.00207   0.00140   0.00205
 272        3PX        -0.00136   0.00014  -0.00008  -0.00004   0.00003
 273        3PY        -0.00246   0.00002  -0.00022   0.00003  -0.00005
 274        3PZ        -0.00125   0.00017  -0.00007  -0.00004   0.00002
 275 27  H  1S         -0.06508   0.00387  -0.00633  -0.00091  -0.00190
 276        2S         -0.09958   0.00854  -0.01445  -0.00312  -0.00761
 277        3PX        -0.00095  -0.00016   0.00000   0.00009   0.00006
 278        3PY        -0.00028   0.00024  -0.00008  -0.00009  -0.00005
 279        3PZ        -0.00070  -0.00001  -0.00007   0.00001  -0.00004
 280 28  H  1S          0.06421  -0.00374   0.00530   0.00050   0.00098
 281        2S          0.09856  -0.00487   0.01263   0.00148   0.00659
 282        3PX         0.00019  -0.00014  -0.00012   0.00003  -0.00014
 283        3PY        -0.00075   0.00021  -0.00004  -0.00007   0.00004
 284        3PZ        -0.00086   0.00010  -0.00014  -0.00003  -0.00007
 285 29  C  1S         -0.00047  -0.00791  -0.00052  -0.04641   0.00632
 286        2S          0.00135   0.02268   0.00197   0.11307  -0.01576
 287        3S          0.00944   0.07896  -0.00246   0.30534  -0.03530
 288        4PX        -0.00339   0.03010   0.05146   0.15092  -0.06452
 289        4PY         0.02470   0.00040  -0.12711   0.06850   0.10981
 290        4PZ        -0.04094  -0.00280   0.20959  -0.02803  -0.19271
 291        5PX        -0.00321   0.00474   0.03841   0.04757  -0.04760
 292        5PY         0.01885  -0.00565  -0.09559   0.02927   0.11245
 293        5PZ        -0.02510   0.00043   0.14622  -0.02847  -0.19319
 294        6D 0       -0.00114   0.00007   0.00668   0.00018  -0.00283
 295        6D+1        0.00080   0.00149  -0.00889   0.00170  -0.00132
 296        6D-1       -0.00032   0.00008   0.00006  -0.00240  -0.00170
 297        6D+2       -0.00039  -0.00065  -0.00047   0.00005  -0.00208
 298        6D-2       -0.00048   0.00073   0.00687   0.00196  -0.00048
 299 30  H  1S          0.00086   0.00799  -0.00138  -0.00374   0.00129
 300        2S          0.00015  -0.02962  -0.00413  -0.13737   0.01511
[...]
 ,-0.00068469,0.00015043,-0.00004403,0.00002738,0.00007465,-0.00000781,
 0.00001541,-0.00000407,-0.00002332,0.00000130,-0.00002475,-0.00000454,
 0.00000661,-0.00000193,-0.00000215,0.00000337,0.00000288,0.00000413,0.
 00000452,-0.00000679,0.00000510,-0.00000877,-0.00001803,0.00001244,-0.
 00000488,0.00000243,-0.00000192,0.00000348,0.00000289,0.00000061,0.000
 00110,-0.00000405,-0.00000031,-0.00000366,0.00000326,-0.00000189,-0.00
 000188,0.00000052,-0.00000755,-0.00000715,0.00000133,0.00001015,0.0000
 0256,0.00000030,0.00000160,0.00000099,0.00000131,-0.00000555,-0.000000
 05,-0.00000347,0.00000016,-0.00000038,-0.00000382,0.00001367,0.0000030
 4,0.00000189,-0.00000978,0.00000292,0.00000050,0.00000051,0.00000044,-
 0.00000135,0.00000049,-0.00000110,0.00000075,0.00000046,-0.00000048,-0
 .02602137,-0.02418253,0.04056946,0.02679322,0.02724825,-0.05442012,-0.
 01180638,0.00624878,0.00337888,0.00222239,-0.00481803,-0.00141896,0.03
 678520,0.03169054,0.00413461,-0.06492227,0.01052158,0.01085191,-0.0025
 0074,-0.02630489,-0.00601178,-0.00678337,0.00400447,0.00131048,0.00015
 378,0.00019925,0.00022644,-0.00107920,0.00004312,0.00039208,0.00009851
 ,0.00002171,-0.00008512,0.00047237,-0.00009165,-0.00006108,-0.00006757
 ,0.00002336,-0.00006751,-0.00006905,-0.00000157,-0.00003762,0.00017193
 ,-0.00003402,0.00015402,0.00015060,0.00018945,0.00021867,-0.00004439,-
 0.00005169,-0.00007781,0.00000067,0.00002306,0.00007370,-0.00003217,0.
 00002851,-0.00001267,0.00002268,-0.00000181,-0.00002236,0.00005927,0.0
 0007423,0.00028237,-0.00006130,-0.00012212,-0.00016478,0.00000419,-0.0
 0002537,-0.00001316,-0.00001888,0.00002499,-0.00000422,0.00002896,0.00
 004673,0.00000541,-0.00000481,-0.00029191,-0.00023868,-0.00001260,0.00
 012948,-0.00004486,0.00000498,-0.00001510,-0.00000868,0.00000224,-0.00
 000944,0.00001956,0.00000320,-0.00001234,0.00002800,-0.14021190,0.0428
 8293,0.01705379,0.00824966,-0.03201748,-0.00766738,1.10799179,-0.00770
 655,0.01180589,0.00266779,0.00400719,-0.00648457,-0.00200062,0.0568125
 4,-0.02194028,-0.01174682,-0.02758470,0.04445570,0.01059670,0.00309941
 ,-0.03218722,-0.00683720,-0.01091271,0.00441458,0.00198147,0.00001458,
 0.00059626,0.00040374,-0.00233443,0.00043093,0.00095165,0.00040500,0.0
 0003693,-0.00027055,0.00113168,-0.00028127,-0.00035666,-0.00018561,0.0
 0006646,-0.00019925,-0.00020041,-0.00001475,-0.00007007,0.00042911,-0.
 00011203,0.00040430,0.00039680,0.00053738,0.00054670,-0.00006953,-0.00
 017961,-0.00017155,-0.00001201,0.00004811,0.00020921,-0.00005305,0.000
 01876,-0.00001499,0.00004479,-0.00001716,-0.00005865,0.00012452,0.0002
 9389,0.00074440,-0.00012765,-0.00028504,-0.00039776,0.00000628,-0.0000
 6734,-0.00003246,-0.00003927,0.00009784,-0.00009028,0.00005043,0.00011
 834,0.00001861,0.00000267,-0.00081122,-0.00066902,-0.00004433,0.000354
 50,-0.00011552,0.00001185,-0.00004239,-0.00002459,0.00000763,-0.000026
 50,0.00005511,0.00000974,-0.00003245,0.00007421,-0.02126099,-0.4055884
 7,-0.07881177,0.00943788,-0.01292575,-0.00537704,-0.20737526,0.7570342
 7,0.00012767,0.00104090,0.00491259,0.00067324,-0.00073330,-0.00093419,
 0.00893078,-0.00939797,-0.00054570,0.00240950,0.00660921,0.01126589,0.
 00035887,-0.00340555,-0.00592873,-0.00160298,0.00053376,-0.00003001,-0
 .00001456,0.00006625,0.00012566,-0.00041224,0.00003318,0.00072432,0.00
 001130,0.00002263,-0.00002208,0.00034162,-0.00007236,-0.00010109,-0.00
 003341,0.00001883,-0.00004752,-0.00003026,-0.00001088,-0.00001755,0.00
 009327,-0.00003252,0.00011828,0.00003412,0.00005557,0.00008772,-0.0000
 1791,-0.00002146,-0.00001774,-0.00000426,0.00000597,0.00003461,-0.0000
 0021,-0.00000976,-0.00000199,0.00000522,-0.00000176,-0.00000867,0.0000
 1239,0.00006416,0.00011392,-0.00001621,-0.00005443,-0.00005552,0.00000
 184,-0.00001195,-0.00000635,-0.00000530,0.00003293,-0.00002575,0.00000
 988,0.00001845,0.00000444,0.00000362,-0.00013853,-0.00010461,-0.000007
 97,0.00006352,-0.00002071,0.00000149,-0.00000705,-0.00000419,0.0000021
 5,-0.00000470,0.00000943,0.00000096,-0.00000573,0.00001196,0.00312318,
 -0.08546612,-0.09006726,0.00211062,-0.00131502,0.00651135,-0.17477607,
 0.18870687,0.13606048,-0.00008012,0.00066933,-0.00006977,-0.00006353,0
 .00028221,0.00001935,0.00161417,-0.00145994,0.00096587,-0.00353356,-0.
 00521253,0.00008888,0.00092748,-0.00043997,-0.00037362,0.00016002,-0.0
 0011362,-0.00014469,0.00004441,-0.00003560,0.00001246,0.00005839,-0.00
 003991,0.00000963,-0.00002007,-0.00000936,0.00000688,-0.00002562,0.000
 00761,0.00000300,0.00001134,-0.00000504,0.00001085,0.00001180,0.000001
 60,0.00000210,-0.00001662,0.00000380,-0.00000736,-0.00000791,-0.000024
 87,-0.00003268,0.00000152,0.00000444,0.00000645,0.00000469,-0.00000124
 ,-0.00001195,-0.00000439,0.00000536,0.00000028,0.00000179,0.00000037,0
 .00000116,-0.00000291,-0.00003711,-0.00005451,0.00000097,0.00001454,0.
 00002286,0.00000134,0.00000442,0.00000075,-0.00000022,-0.00000396,0.00
 000591,0.00000178,-0.00000587,-0.00000151,-0.00000537,0.00006441,0.000
 05037,0.00000690,-0.00002948,0.00000716,-0.00000010,0.00000342,0.00000
 242,-0.00000164,0.00000196,-0.00000505,-0.00000072,0.00000194,-0.00000
 489,0.00558665,-0.00652641,-0.00092034,0.00068449,0.00103398,-0.000836
 88,-0.64264178,0.30912869,0.15653629,0.65348758,0.00156967,-0.00180100
 ,-0.00009249,0.00017784,-0.00040502,-0.00002817,-0.00330304,-0.0037211
 8,-0.00357213,-0.00437079,-0.00170736,-0.00132899,0.00044958,-0.000857
 33,0.00009830,-0.00046702,0.00048083,0.00036779,0.00009428,0.00000996,
 -0.00005652,-0.00013192,0.00003944,-0.00001581,0.00003948,0.00001526,-
 0.00002040,0.00004564,-0.00001216,-0.00001099,-0.00001157,0.00000372,-
 0.00001000,-0.00001511,0.00000012,-0.00000449,0.00002272,-0.00000468,0
 .00001484,0.00002285,0.00003191,0.00003335,-0.00000248,-0.00000854,-0.
 00000911,-0.00000449,0.00000103,0.00001294,0.00000122,0.00000050,0.000
 00041,0.00000009,-0.00000030,-0.00000209,0.00000627,0.00003043,0.00005
 842,-0.00000498,-0.00001809,-0.00002785,-0.00000066,-0.00000465,-0.000
 00139,-0.00000155,0.00000741,-0.00000346,0.00000024,0.00000664,0.00000
 124,0.00000290,-0.00006469,-0.00005092,-0.00000543,0.00002959,-0.00000
 829,0.00000070,-0.00000337,-0.00000231,0.00000124,-0.00000209,0.000004
 71,0.00000067,-0.00000208,0.00000553,0.03464386,-0.00783930,-0.0082621
 0,-0.00088444,0.00168807,0.00252678,0.30911993,-0.13099224,-0.07799228
 ,-0.31539195,0.13030670,0.00010807,0.00008922,-0.00201942,0.00009854,0
 .00000718,-0.00036352,0.00020419,-0.00355076,0.01131488,0.00009405,-0.
 00110423,0.00604065,-0.00032193,0.00001218,-0.00128880,-0.00020887,0.0
 0024690,-0.00090700,0.00008142,0.00000464,0.00021994,-0.00003062,-0.00
 000298,0.00029561,-0.00002712,-0.00000870,0.00000917,0.00008217,-0.000
 01586,-0.00001894,-0.00000508,0.00000391,-0.00000446,-0.00000236,0.000
 00046,-0.00000300,0.00001653,-0.00000705,0.00002760,-0.00002037,0.0000
 0779,0.00000386,-0.00000166,-0.00000361,0.00000390,-0.00000194,0.00000
 004,0.00000850,0.00000274,-0.00000513,-0.00000342,0.00000133,-0.000002
 00,-0.00000196,-0.00000030,0.00001667,0.00001988,-0.00000062,-0.000003
 16,-0.00000673,-0.00000029,-0.00000140,0.00000002,0.00000233,0.0000043
 7,-0.00000757,-0.00000081,0.00000320,0.00000080,0.00000023,-0.00002253
 ,-0.00002178,-0.00000167,0.00000804,-0.00000173,0.00000044,-0.00000138
 ,-0.00000087,-0.00000019,-0.00000075,0.00000166,0.00000081,-0.00000067
 ,0.00000203,0.00863342,-0.00342410,0.00845482,-0.00112826,0.00229981,-
 0.00745736,0.15681490,-0.07842352,0.00008337,-0.16163718,0.08290938,-0
 .01701604,0.01230932,-0.00503211,-0.00274543,-0.00559739,0.01140543,0.
 00342997,-0.05696210,-0.00099987,0.00436473,-0.36305426,0.08268896,0.0
 5400926,-0.00178449,0.06291429,0.01615992,0.01912565,-0.01259926,-0.00
 342946,-0.00012944,-0.00086328,-0.00070807,0.00365684,-0.00074224,-0.0
 0148546,-0.00059351,-0.00013812,0.00036763,-0.00160603,0.00037169,0.00
 037969,0.00026134,-0.00009608,0.00026145,0.00029795,0.00000506,0.00012
 416,-0.00060681,0.00014417,-0.00053919,-0.00047913,-0.00067264,-0.0007
 2595,0.00008524,0.00023155,0.00022234,0.00004925,-0.00004691,-0.000297
 74,0.00003117,-0.00003195,0.00001110,-0.00004173,0.00002378,0.00007057
 ,-0.00015458,-0.00046627,-0.00107908,0.00014880,0.00038548,0.00055895,
 0.00000364,0.00009463,0.00003908,0.00004025,-0.00015958,0.00012097,-0.
 00004525,-0.00015775,-0.00002730,-0.00002699,0.00117328,0.00096241,0.0
 0008090,-0.00051768,0.00015807,-0.00001323,0.00006179,0.00003780,-0.00
 001575,0.00003746,-0.00008340,-0.00001438,0.00004328,-0.00010281,0.025
 33999,-0.05701566,-0.01403727,0.00233021,0.00202063,0.00128170,-0.2877
 8870,-0.07808582,0.00764501,-0.01676748,-0.02258723,-0.00236957,0.6764
 6795,0.00018408,-0.00732637,-0.00167319,0.00276255,-0.00342072,-0.0010
 7220,-0.00131283,0.00587827,0.00346894,0.14952785,-0.17962305,-0.04272
 434,0.03290377,-0.02521650,-0.01206386,-0.00619996,-0.00159450,-0.0013
 4064,0.00079240,0.00016862,-0.00001614,-0.00042478,-0.00017469,0.00038
 113,0.00014902,0.00012819,-0.00009066,0.00037405,-0.00006771,-0.000038
 09,-0.00006246,0.00002167,-0.00002547,-0.00007783,0.00000988,-0.000034
 36,0.00013503,-0.00003631,0.00011678,0.00009105,0.00017707,0.00017205,
 -0.00000566,-0.00003257,-0.00002212,-0.00003525,-0.00000963,0.00006806
 ,0.00002490,0.00001427,-0.00000988,-0.00001005,-0.00001064,-0.00000653
 ,0.00002113,0.00013800,0.00027744,-0.00001390,-0.00006639,-0.00013018,
 -0.00001351,-0.00002192,-0.00000388,0.00000124,0.00001723,-0.00001696,
 -0.00000931,0.00002614,0.00000425,0.00002784,-0.00028941,-0.00024327,-
 0.00003596,0.00012907,-0.00003055,-0.00000023,-0.00001580,-0.00001092,
 0.00000817,-0.00000825,0.00002372,0.00000393,-0.00000696,0.00002124,-0
 .02801339,-0.03476883,-0.00769228,0.00127217,-0.00506454,-0.00356183,-
 0.14478623,-0.19768655,-0.01273356,0.01735387,0.01334240,-0.00039311,-
 0.03903933,1.20088455,-0.00130357,-0.00122708,0.00012226,0.00127673,-0
 .00210329,-0.00047046,0.00528863,0.00334648,-0.00846220,0.06887787,-0.
 03570879,-0.08447896,0.00880060,-0.01438339,0.00867052,-0.00259141,-0.
 00046824,0.00732162,0.00005963,0.00007566,-0.00015629,-0.00057258,0.00
 007936,-0.00088441,0.00016410,0.00002112,-0.00005997,-0.00001567,-0.00
 000349,0.00003289,-0.00002940,0.00001783,-0.00002538,-0.00004464,-0.00
 000831,-0.00000880,0.00005647,-0.00000883,0.00000906,0.00024366,0.0000
 7321,0.00011629,-0.00000978,-0.00002725,-0.00005390,-0.00002110,0.0000
 0659,0.00003975,-0.00000527,0.00001697,0.00001807,-0.00000032,0.000003
 18,-0.00000584,0.00003133,0.00007615,0.00019760,-0.00003118,-0.0000785
 5,-0.00010639,-0.00000472,-0.00001780,-0.00000728,-0.00000209,0.000034
 62,-0.00001331,0.00001205,0.00001701,0.00000278,0.00001263,-0.00021314
 ,-0.00016334,-0.00001930,0.00010063,-0.00002958,0.00000113,-0.00001078
 ,-0.00000693,0.00000582,-0.00000678,0.00001553,0.00000095,-0.00000719,
 0.00001733,-0.00792857,-0.00448708,0.01111379,0.00097713,-0.00368662,0
 .00819017,-0.00724337,-0.01984409,-0.07140918,0.00688672,0.00417868,0.
 00703360,-0.08447404,0.26898754,0.10671418,-0.00002560,-0.00034431,-0.
 00022797,0.00052462,-0.00129485,-0.00017127,0.00139012,0.00175687,0.00
 144403,-0.55916967,-0.38533261,-0.00789077,0.00669748,0.00582961,0.001
 29318,-0.00010361,0.00324542,-0.00027781,0.00038046,-0.00047773,-0.000
 09338,-0.00013619,0.00004966,0.00009149,0.00004959,0.00003924,-0.00002
 587,0.00009755,-0.00002319,-0.00002892,-0.00001919,0.00000508,-0.00001
 195,-0.00002577,0.00000073,-0.00000605,0.00003966,-0.00001412,0.000036
 44,0.00002420,0.00006073,0.00006341,-0.00000028,-0.00001639,-0.0000074
 9,-0.00000954,-0.00000164,0.00002100,0.00000475,0.00000033,-0.00000418
 ,-0.00000198,-0.00000413,-0.00000332,0.00000569,0.00003698,0.00006995,
 -0.00000358,-0.00001819,-0.00003237,-0.00000294,-0.00000650,-0.0000020
 7,-0.00000094,0.00000109,-0.00001494,-0.00000188,0.00000864,0.00000214
 ,0.00000703,-0.00007715,-0.00006590,-0.00000889,0.00003359,-0.00000859
 ,-0.00000020,-0.00000417,-0.00000262,0.00000195,-0.00000227,0.00000621
 ,0.00000108,-0.00000225,0.00000560,0.00076938,0.00090284,-0.00000463,-
 0.00006440,-0.00004046,-0.00012476,-0.00457699,0.00408755,0.00250657,-
 0.00123509,-0.00104928,-0.00006710,-0.01805283,-0.02239882,-0.00173039
 ,0.57141839,-0.00176791,-0.00154598,-0.00005079,0.00059949,0.00014146,
 -0.00015078,0.00353078,-0.00406638,-0.00284944,-0.38804944,-0.24446346
 ,-0.01197586,-0.02973211,-0.01308324,-0.00054453,-0.00310702,0.0018683
 7,0.00182558,0.00142813,0.00008128,-0.00019484,-0.00004992,-0.00012229
 ,-0.00009364,0.00003572,0.00002031,-0.00002450,-0.00000020,0.00001095,
 0.00000829,0.00000928,-0.00000930,0.00002707,0.00000123,0.00001228,-0.
 00000448,-0.00000643,0.00000537,0.00000179,0.00004183,-0.00001269,-0.0
 0004488,0.00000035,0.00000530,0.00000705,-0.00000900,-0.00000707,-0.00
 000893,0.00000211,0.00002409,0.00000389,-0.00000263,0.00000134,0.00000
 410,0.00000060,-0.00003977,-0.00002699,-0.00000044,0.00000796,0.000004
 51,-0.00000340,0.00000329,0.00000164,-0.00000141,0.00001076,0.00002158
 ,0.00000024,-0.00000913,-0.00000296,-0.00000023,0.00005060,0.00003910,
 0.00000178,-0.00002112,0.00000650,-0.00000078,0.00000263,0.00000152,0.
 00000002,0.00000184,-0.00000317,-0.00000075,0.00000253,-0.00000448,0.0
 0031480,-0.00034705,-0.00005213,0.00000844,-0.00005732,0.00020680,0.00
 325443,-0.00047014,-0.00226026,0.00078512,0.00062560,0.00006306,0.0194
 8408,0.01362623,-0.00129982,0.39450909,0.24708130,-0.00048688,0.000022
 76,-0.00106147,0.00005779,0.00032613,0.00005309,0.00151817,-0.00289479
 ,0.00766405,-0.00801241,-0.01173654,0.03714208,-0.00683971,-0.00567178
 ,0.00579149,-0.00124097,0.00105971,-0.00475081,0.00041448,0.00019190,0
 .00016264,0.00005689,-0.00004082,0.00039895,-0.00000885,-0.00000226,-0
 .00000876,0.00007723,-0.00000770,-0.00002231,-0.00000305,-0.00000331,0
 .00000414,-0.00000027,0.00000825,-0.00000903,0.00000939,-0.00000208,0.
 00001769,-0.00007683,0.00002097,-0.00002268,0.00000559,-0.00000768,0.0
 0001414,0.00000174,-0.00000419,-0.00000129,0.00000009,0.00000115,-0.00
 001363,0.00000134,-0.00000412,-0.00000085,-0.00000454,-0.00001211,-0.0
 0002604,0.00000451,0.00001969,0.00001378,0.00000045,0.00000299,0.00000
 162,-0.00000045,-0.00001141,0.00000338,-0.00000450,0.00000313,-0.00000
 006,-0.00000280,0.00003259,0.00001888,0.00000286,-0.00001704,0.0000054
 5,-0.00000013,0.00000156,0.00000089,-0.00000139,0.00000117,-0.00000218
 ,0.00000036,0.00000132,-0.00000251,-0.00026397,-0.00000333,-0.00046455
 ,-0.00010154,0.00025117,-0.00095949,0.00209334,-0.00265289,0.00726744,
 0.00032666,0.00022017,0.00014228,0.00756568,0.00366916,0.00897391,0.00
 627880,0.01552047,-0.05368686,0.00063147,0.00000646,-0.00014201,-0.000
 56821,0.00041742,0.00015358,-0.00156833,-0.00017226,0.00007347,0.00286
 074,0.03587050,0.00810859,-0.00533803,0.00062828,0.00170386,0.00083467
 ,0.00118855,0.00033887,-0.00005963,-0.00004935,0.00001404,0.00001122,0
 .00007135,-0.00009836,-0.00001099,-0.00001884,0.00001057,-0.00008502,0
 .00001959,0.00002648,0.00001444,-0.00000547,0.00001072,0.00001264,0.00
 000171,0.00000216,-0.00002830,0.00001109,-0.00003055,-0.00002748,-0.00
 003860,-0.00004763,0.00000465,0.00000664,0.00000613,0.00000187,-0.0000
 0188,-0.00001207,-0.00000050,0.00000676,0.00000121,-0.00000042,0.00000
 182,0.00000296,-0.00000330,-0.00002597,-0.00003949,0.00000483,0.000014
 59,0.00001689,-0.00000007,0.00000432,0.00000200,0.00000216,-0.00000003
 ,0.00001243,-0.00000171,-0.00000589,-0.00000138,-0.00000262,0.00005018
 ,0.00004062,0.00000383,-0.00002185,0.00000668,-0.00000035,0.00000262,0
 .00000148,-0.00000083,0.00000171,-0.00000353,-0.00000056,0.00000192,-0
 .00000408,-0.00538973,-0.00216926,0.00077874,0.00035185,-0.00154466,-0
 .00031949,0.00619967,-0.03321598,-0.00801821,0.00180183,0.00203274,-0.
 00031520,0.01350558,0.03680644,0.01333194,0.00202764,-0.00127583,-0.00
 136709,-0.01518302,0.00014602,-0.00008533,0.00009954,0.00030792,-0.000
 28316,-0.00009779,-0.00030854,0.00066540,0.00036176,-0.00583874,-0.006
 62525,-0.00151665,0.00214790,0.00188499,-0.00164662,-0.00055543,-0.000
 22816,-0.00036871,0.00003761,0.00003472,-0.00003078,-0.00008143,0.0000
 1909,0.00016039,0.00001777,0.00001971,-0.00001071,0.00009069,-0.000022
 94,-0.00002739,-0.00001564,0.00000734,-0.00001489,-0.00001545,-0.00000
 193,-0.00000406,0.00003104,-0.00001091,0.00003008,0.00000866,0.0000281
 3,0.00004084,-0.00000316,-0.00000447,-0.00000133,-0.00000612,0.0000005
 4,0.00001465,0.00000679,-0.00001057,-0.00000130,-0.00000255,-0.0000015
 0,-0.00000165,0.00000051,0.00004172,0.00005272,0.00000059,-0.00001641,
 -0.00002127,-0.00000170,-0.00000502,-0.00000124,0.00000054,0.00000891,
 -0.00001297,-0.00000218,0.00000600,0.00000217,0.00000682,-0.00006615,-
 0.00005161,-0.00000751,0.00002996,-0.00000731,-0.00000023,-0.00000352,
 -0.00000235,0.00000183,-0.00000204,0.00000529,0.00000074,-0.00000208,0
 .00000466,-0.00374490,0.00074669,-0.00068050,0.00026792,-0.00068193,-0
 .00047322,0.00743233,-0.01016488,-0.00359701,-0.00003022,0.00082445,0.
 00129408,0.03816627,-0.77912024,-0.19344453,0.00054062,0.00067147,0.00
 171775,-0.03859880,0.79234738,-0.00017279,0.00010537,-0.00060224,0.000
 14355,-0.00000635,-0.00001210,0.00042197,0.00040506,-0.00064566,-0.001
 84858,-0.00613028,0.00211598,0.00180178,-0.00147010,0.00738131,0.00000
 916,-0.00066845,0.00141524,0.00005907,0.00001477,0.00014239,-0.0000065
 8,0.00001034,-0.00047555,0.00004202,-0.00001042,-0.00001212,-0.0001049
 3,0.00001959,0.00001980,-0.00000730,-0.00000596,0.00000511,-0.00000543
 ,0.00000344,0.00000866,-0.00001325,0.00000155,-0.00003142,0.00006935,0
 .00005125,0.00002266,0.00001099,-0.00002683,-0.00002502,0.00000050,0.0
 0000117,0.00000505,-0.00000728,0.00001831,0.00000210,0.00000129,-0.000
 00270,-0.00000273,0.00001229,-0.00000202,0.00004066,-0.00001218,-0.000
 00291,-0.00002257,-0.00000156,-0.00000278,-0.00000064,-0.00000077,-0.0
 0001713,-0.00000159,0.00000285,0.00000506,-0.00000109,-0.00000002,-0.0
 0003229,-0.00003527,-0.00000284,0.00001228,-0.00000342,0.00000037,-0.0
 0000181,-0.00000099,0.00000021,-0.00000090,0.00000237,0.00000073,-0.00
 000082,0.00000299,0.00038509,-0.00073934,0.00548163,0.00009649,-0.0002
 2201,0.00110961,0.00091795,0.00080452,0.00201739,-0.00086562,0.0010672
 5,-0.00454000,0.01433426,-0.19325630,0.00775287,-0.00101647,0.00184953
 ,-0.00664337,-0.01424433,0.19822993,-0.01447003\\0.00056333,0.06185646
 ,0.01664792,0.01226396,-0.02326920,-0.00221373,-0.01268447,-0.09633481
 ,-0.02420697,-0.11900406,-0.08823080,-0.00455175,0.01570304,0.00367984
 ,0.00109421,-0.11610986,-0.11549846,0.00060437,0.12742939,0.12425860,-
 0.00420988,-0.06836208,-0.06294932,0.03538597,0.04701594,0.08427984,-0
 .04246886,-0.04887403,0.01289250,-0.10738868,-0.01929822,0.09700249,0.
 07248919,-0.05129099,-0.10041992,0.05447123,0.12366174,-0.01870920,-0.
 01534984,0.00064791,0.00456466,0.01646534,0.04503095,-0.14437692,0.035
 72724,-0.04828556,0.15190891,-0.04439387,0.03311720,-0.01518411,0.1454
 5443,-0.03933898,0.03200417,-0.15795441,-0.00142700,-0.01831343,-0.016
 13515,-0.04205699,0.13244518,-0.04046486,0.04697098,-0.15166955,0.0460
 4563,-0.03783003,0.04124648,-0.14191352,0.04069894,-0.03597139,0.15706
 664,0.00096542,-0.00049674,0.00076999,-0.01604682,0.12496521,-0.026864
 58,-0.00390062,-0.06553103,-0.10442562,0.11272310,-0.01571655,0.057102
 60,-0.09148488,-0.03711989,0.08011877,0.12579730,0.10373922,0.01239079
 ,-0.13643528,-0.09300706,-0.00780433,0.13423649,-0.07273389,-0.0334456
 0,-0.14863869,0.07004028,0.03415182,0.00248886,-0.14186540,-0.03266035
 ,0.13970903,0.09147641,0.00317545,-0.00795504,0.16103743,0.03729041\\\
 @
 The archive entry for this job was punched.

 Writing a WFNX file to "SUHNAM_Complex_1_Ligand_1_ON_Cu_oriented.wfx"


 I LOVE THOSE WHO LONG FOR THE IMPOSSIBLE.

                                 -- GOETHE
 Job cpu time:       0 days  0 hours 52 minutes 11.5 seconds.
 Elapsed time:       0 days  0 hours 52 minutes 24.4 seconds.
 File lengths (MBytes):  RWF=    588 Int=      0 D2E=      0 Chk=     16 Scr=      8
 Normal termination of Gaussian 16 at Mon Mar  6 11:14:00 2023.
