 Entering Gaussian System, Link 0=g16
 Initial command:
 /ssoft/spack/external/gaussian/g16-C.01/avx2/g16/l1.exe "/scratch/lcmd/2387828/Gau-3435768.inp" -scrdir="/scratch/lcmd/2387828/"
 Entering Link 1 = /ssoft/spack/external/gaussian/g16-C.01/avx2/g16/l1.exe PID=   3435771.
  
 Copyright (c) 1988-2019, Gaussian, Inc.  All Rights Reserved.
  
 This is part of the Gaussian(R) 16 program.  It is based on
 the Gaussian(R) 09 system (copyright 2009, Gaussian, Inc.),
 the Gaussian(R) 03 system (copyright 2003, Gaussian, Inc.),
 the Gaussian(R) 98 system (copyright 1998, Gaussian, Inc.),
 the Gaussian(R) 94 system (copyright 1995, Gaussian, Inc.),
 the Gaussian 92(TM) system (copyright 1992, Gaussian, Inc.),
 the Gaussian 90(TM) system (copyright 1990, Gaussian, Inc.),
 the Gaussian 88(TM) system (copyright 1988, Gaussian, Inc.),
 the Gaussian 86(TM) system (copyright 1986, Carnegie Mellon
 University), and the Gaussian 82(TM) system (copyright 1983,
 Carnegie Mellon University). Gaussian is a federally registered
 trademark of Gaussian, Inc.
  
 This software contains proprietary and confidential information,
 including trade secrets, belonging to Gaussian, Inc.
  
 This software is provided under written license and may be
 used, copied, transmitted, or stored only in accord with that
 written license.
  
 The following legend is applicable only to US Government
 contracts under FAR:
  
                    RESTRICTED RIGHTS LEGEND
  
 Use, reproduction and disclosure by the US Government is
 subject to restrictions as set forth in subparagraphs (a)
 and (c) of the Commercial Computer Software - Restricted
 Rights clause in FAR 52.227-19.
  
 Gaussian, Inc.
 340 Quinnipiac St., Bldg. 40, Wallingford CT 06492
  
  
 ---------------------------------------------------------------
 Warning -- This program may not be used in any manner that
 competes with the business of Gaussian, Inc. or will provide
 assistance to any competitor of Gaussian, Inc.  The licensee
 of this program is prohibited from giving any competitor of
 Gaussian, Inc. access to this program.  By using this program,
 the user acknowledges that Gaussian, Inc. is engaged in the
 business of creating and licensing software in the field of
 computational chemistry and represents and warrants to the
 licensee that it is not a competitor of Gaussian, Inc. and that
 it will not use this program in any manner prohibited above.
 ---------------------------------------------------------------
  

 Cite this work as:
 Gaussian 16, Revision C.01,
 M. J. Frisch, G. W. Trucks, H. B. Schlegel, G. E. Scuseria, 
 M. A. Robb, J. R. Cheeseman, G. Scalmani, V. Barone, 
 G. A. Petersson, H. Nakatsuji, X. Li, M. Caricato, A. V. Marenich, 
 J. Bloino, B. G. Janesko, R. Gomperts, B. Mennucci, H. P. Hratchian, 
 J. V. Ortiz, A. F. Izmaylov, J. L. Sonnenberg, D. Williams-Young, 
 F. Ding, F. Lipparini, F. Egidi, J. Goings, B. Peng, A. Petrone, 
 T. Henderson, D. Ranasinghe, V. G. Zakrzewski, J. Gao, N. Rega, 
 G. Zheng, W. Liang, M. Hada, M. Ehara, K. Toyota, R. Fukuda, 
 J. Hasegawa, M. Ishida, T. Nakajima, Y. Honda, O. Kitao, H. Nakai, 
 T. Vreven, K. Throssell, J. A. Montgomery, Jr., J. E. Peralta, 
 F. Ogliaro, M. J. Bearpark, J. J. Heyd, E. N. Brothers, K. N. Kudin, 
 V. N. Staroverov, T. A. Keith, R. Kobayashi, J. Normand, 
 K. Raghavachari, A. P. Rendell, J. C. Burant, S. S. Iyengar, 
 J. Tomasi, M. Cossi, J. M. Millam, M. Klene, C. Adamo, R. Cammi, 
 J. W. Ochterski, R. L. Martin, K. Morokuma, O. Farkas, 
 J. B. Foresman, and D. J. Fox, Gaussian, Inc., Wallingford CT, 2019.
 
 ******************************************
 Gaussian 16:  ES64L-G16RevC.01  3-Jul-2019
                 6-Mar-2023 
 ******************************************
 %nprocshared=1
 Will use up to    1 processors via shared memory.
 %mem=8000MB
 %chk=TAHBOV_Complex_0_Ligand_1_NN_Cu_oriented.chk
 ----------------------------------------------------------------------
 #p pop=(regular,nbo,savenbos) freq=noraman def2svp empiricaldispersion
 =gd3bj output=wfx pbe1pbe
 ----------------------------------------------------------------------
 1/10=4,30=1,38=1/1,3;
 2/12=2,17=6,18=5,40=1/2;
 3/5=43,7=101,11=2,25=1,30=1,71=2,74=-13,124=41,140=1/1,2,3;
 4//1;
 5/5=2,38=5,98=1/2;
 8/6=4,10=90,11=11/1;
 11/6=1,8=1,9=11,15=111,16=1/1,2,10;
 10/6=1/2;
 6/28=1,40=1,73=1/1,7;
 7/8=1,10=1,25=1/1,2,3,16;
 1/10=4,30=1/3;
 99/6=200/99;
 Leave Link    1 at Mon Mar  6 10:21:36 2023, MaxMem=  1048576000 cpu:               0.0 elap:               0.1
 (Enter /ssoft/spack/external/gaussian/g16-C.01/avx2/g16/l101.exe)
 ----------------------------------------
 TAHBOV_Complex_0_Ligand_1_NN_Cu_oriented
 ----------------------------------------
 Symbolic Z-matrix:
 Charge = -1 Multiplicity = 1
 N                     0.92465   1.69944   0. 
 N                     2.23062   1.53955   0.08307 
 N                     2.55597   0.32349   0. 
 C                     0.45293   3.0189    0.05886 
 C                     1.3314    4.09509   0.125 
 H                     2.26879   3.94497   0.10951 
 C                     3.9518    0.07945   0.17562 
 C                     4.8885    1.33331   0.12436 
 H                     4.79864   1.77492  -0.75735 
 H                     4.60998   1.98146   0.81978 
 C                     6.46122   0.3604    1.72172 
 H                     6.15988   1.0113    2.40282 
 H                     7.40916   0.13844   1.90075 
 C                     5.6102   -0.89982   1.79591 
 H                     5.70467  -1.30094   2.70764 
 C                     4.16863  -0.50964   1.57902 
 H                     3.90318   0.15771   2.25901 
 H                     3.59275  -1.30736   1.69232 
 C                     6.32418   0.95503   0.34566 
 H                     6.88576   1.78024   0.2952 
 C                     6.81761  -0.02892  -0.68083 
 H                     7.75687  -0.27059  -0.48586 
 H                     6.78507   0.38366  -1.58027 
 C                     5.93449  -1.29818  -0.65947 
 H                     6.22927  -1.94818  -1.36076 
 C                     4.47762  -0.91949  -0.85348 
 H                     3.9265   -1.74024  -0.81089 
 H                     4.3683   -0.53169  -1.75778 
 C                     6.09273  -1.9124    0.75671 
 H                     5.55895  -2.74283   0.82467 
 H                     7.04173  -2.13815   0.92295 
 C                     0.83664   5.3908    0.2124 
 H                     1.43759   6.12648   0.25642 
 C                    -0.53544   5.61204   0.23508 
 H                    -0.87297   6.49797   0.29445 
 C                    -0.91915   3.24013   0.08154 
 H                    -1.51886   2.50432   0.03637 
 C                    -1.41282   4.53571   0.16907 
 H                    -2.35109   4.68781   0.18444 
 
 ITRead=  0  0  0  0  0  0  0  0  0  0  0  0  0  0  0  0  0  0  0  0
 ITRead=  0  0  0  0  0  0  0  0  0  0  0  0  0  0  0  0  0  0  0
 MicOpt= -1 -1 -1 -1 -1 -1 -1 -1 -1 -1 -1 -1 -1 -1 -1 -1 -1 -1 -1 -1
 MicOpt= -1 -1 -1 -1 -1 -1 -1 -1 -1 -1 -1 -1 -1 -1 -1 -1 -1 -1 -1
 NAtoms=     39 NQM=       39 NQMF=       0 NMMI=      0 NMMIF=      0
                NMic=       0 NMicF=      0.
                    Isotopes and Nuclear Properties:
 (Nuclear quadrupole moments (NQMom) in fm**2, nuclear magnetic moments (NMagM)
  in nuclear magnetons)

  Atom         1           2           3           4           5           6           7           8           9          10
 IAtWgt=          14          14          14          12          12           1          12          12           1           1
 AtmWgt=  14.0030740  14.0030740  14.0030740  12.0000000  12.0000000   1.0078250  12.0000000  12.0000000   1.0078250   1.0078250
 NucSpn=           2           2           2           0           0           1           0           0           1           1
 AtZEff=  -0.0000000  -0.0000000  -0.0000000  -0.0000000  -0.0000000  -0.0000000  -0.0000000  -0.0000000  -0.0000000  -0.0000000
 NQMom=    2.0440000   2.0440000   2.0440000   0.0000000   0.0000000   0.0000000   0.0000000   0.0000000   0.0000000   0.0000000
 NMagM=    0.4037610   0.4037610   0.4037610   0.0000000   0.0000000   2.7928460   0.0000000   0.0000000   2.7928460   2.7928460
 AtZNuc=   7.0000000   7.0000000   7.0000000   6.0000000   6.0000000   1.0000000   6.0000000   6.0000000   1.0000000   1.0000000

  Atom        11          12          13          14          15          16          17          18          19          20
 IAtWgt=          12           1           1          12           1          12           1           1          12           1
 AtmWgt=  12.0000000   1.0078250   1.0078250  12.0000000   1.0078250  12.0000000   1.0078250   1.0078250  12.0000000   1.0078250
 NucSpn=           0           1           1           0           1           0           1           1           0           1
 AtZEff=  -0.0000000  -0.0000000  -0.0000000  -0.0000000  -0.0000000  -0.0000000  -0.0000000  -0.0000000  -0.0000000  -0.0000000
 NQMom=    0.0000000   0.0000000   0.0000000   0.0000000   0.0000000   0.0000000   0.0000000   0.0000000   0.0000000   0.0000000
 NMagM=    0.0000000   2.7928460   2.7928460   0.0000000   2.7928460   0.0000000   2.7928460   2.7928460   0.0000000   2.7928460
 AtZNuc=   6.0000000   1.0000000   1.0000000   6.0000000   1.0000000   6.0000000   1.0000000   1.0000000   6.0000000   1.0000000

  Atom        21          22          23          24          25          26          27          28          29          30
 IAtWgt=          12           1           1          12           1          12           1           1          12           1
 AtmWgt=  12.0000000   1.0078250   1.0078250  12.0000000   1.0078250  12.0000000   1.0078250   1.0078250  12.0000000   1.0078250
 NucSpn=           0           1           1           0           1           0           1           1           0           1
 AtZEff=  -0.0000000  -0.0000000  -0.0000000  -0.0000000  -0.0000000  -0.0000000  -0.0000000  -0.0000000  -0.0000000  -0.0000000
 NQMom=    0.0000000   0.0000000   0.0000000   0.0000000   0.0000000   0.0000000   0.0000000   0.0000000   0.0000000   0.0000000
 NMagM=    0.0000000   2.7928460   2.7928460   0.0000000   2.7928460   0.0000000   2.7928460   2.7928460   0.0000000   2.7928460
 AtZNuc=   6.0000000   1.0000000   1.0000000   6.0000000   1.0000000   6.0000000   1.0000000   1.0000000   6.0000000   1.0000000

  Atom        31          32          33          34          35          36          37          38          39
 IAtWgt=           1          12           1          12           1          12           1          12           1
 AtmWgt=   1.0078250  12.0000000   1.0078250  12.0000000   1.0078250  12.0000000   1.0078250  12.0000000   1.0078250
 NucSpn=           1           0           1           0           1           0           1           0           1
 AtZEff=  -0.0000000  -0.0000000  -0.0000000  -0.0000000  -0.0000000  -0.0000000  -0.0000000  -0.0000000  -0.0000000
 NQMom=    0.0000000   0.0000000   0.0000000   0.0000000   0.0000000   0.0000000   0.0000000   0.0000000   0.0000000
 NMagM=    2.7928460   0.0000000   2.7928460   0.0000000   2.7928460   0.0000000   2.7928460   0.0000000   2.7928460
 AtZNuc=   1.0000000   6.0000000   1.0000000   6.0000000   1.0000000   6.0000000   1.0000000   6.0000000   1.0000000
 Leave Link  101 at Mon Mar  6 10:21:37 2023, MaxMem=  1048576000 cpu:               0.1 elap:               0.1
 (Enter /ssoft/spack/external/gaussian/g16-C.01/avx2/g16/l103.exe)

 GradGradGradGradGradGradGradGradGradGradGradGradGradGradGradGradGradGrad
 Berny optimization.
 Initialization pass.
 Trust Radius=3.00D-01 FncErr=1.00D-07 GrdErr=1.00D-07 EigMax=2.50D+02 EigMin=1.00D-04
 Number of steps in this run=      2 maximum allowed number of steps=      2.
 GradGradGradGradGradGradGradGradGradGradGradGradGradGradGradGradGradGrad

 Leave Link  103 at Mon Mar  6 10:21:37 2023, MaxMem=  1048576000 cpu:               0.0 elap:               0.0
 (Enter /ssoft/spack/external/gaussian/g16-C.01/avx2/g16/l202.exe)
                          Input orientation:                          
 ---------------------------------------------------------------------
 Center     Atomic      Atomic             Coordinates (Angstroms)
 Number     Number       Type             X           Y           Z
 ---------------------------------------------------------------------
      1          7           0        0.924650    1.699444    0.000000
      2          7           0        2.230618    1.539553    0.083067
      3          7           0        2.555974    0.323486    0.000000
      4          6           0        0.452926    3.018896    0.058860
      5          6           0        1.331404    4.095095    0.124999
      6          1           0        2.268794    3.944970    0.109514
      7          6           0        3.951802    0.079453    0.175615
      8          6           0        4.888504    1.333306    0.124363
      9          1           0        4.798639    1.774922   -0.757353
     10          1           0        4.609981    1.981461    0.819784
     11          6           0        6.461218    0.360400    1.721715
     12          1           0        6.159876    1.011301    2.402821
     13          1           0        7.409163    0.138437    1.900747
     14          6           0        5.610196   -0.899818    1.795911
     15          1           0        5.704672   -1.300937    2.707639
     16          6           0        4.168625   -0.509642    1.579023
     17          1           0        3.903180    0.157707    2.259009
     18          1           0        3.592755   -1.307360    1.692323
     19          6           0        6.324183    0.955031    0.345659
     20          1           0        6.885763    1.780236    0.295198
     21          6           0        6.817608   -0.028917   -0.680834
     22          1           0        7.756867   -0.270588   -0.485855
     23          1           0        6.785074    0.383660   -1.580266
     24          6           0        5.934490   -1.298176   -0.659474
     25          1           0        6.229273   -1.948184   -1.360755
     26          6           0        4.477615   -0.919489   -0.853478
     27          1           0        3.926502   -1.740238   -0.810888
     28          1           0        4.368305   -0.531685   -1.757781
     29          6           0        6.092733   -1.912402    0.756707
     30          1           0        5.558949   -2.742827    0.824668
     31          1           0        7.041733   -2.138151    0.922947
     32          6           0        0.836641    5.390801    0.212399
     33          1           0        1.437593    6.126479    0.256417
     34          6           0       -0.535437    5.612038    0.235078
     35          1           0       -0.872973    6.497968    0.294452
     36          6           0       -0.919153    3.240131    0.081538
     37          1           0       -1.518858    2.504316    0.036372
     38          6           0       -1.412819    4.535710    0.169068
     39          1           0       -2.351090    4.687812    0.184435
 ---------------------------------------------------------------------
                    Distance matrix (angstroms):
                    1          2          3          4          5
     1  N    0.000000
     2  N    1.318339   0.000000
     3  N    2.134123   1.261577   0.000000
     4  C    1.402476   2.312840   3.419285   0.000000
     5  C    2.433149   2.709453   3.967396   1.390792   0.000000
     6  H    2.619371   2.405866   3.634504   2.039009   0.949461
     7  C    3.437857   2.258967   1.427840   4.571224   4.795250
     8  C    3.982670   2.666196   2.544779   4.745509   4.503380
     9  H    3.948047   2.712276   2.776652   4.593354   4.264207
    10  H    3.785927   2.529705   2.764032   4.351596   3.962227
    11  C    5.950708   4.687595   4.268090   6.777334   6.543121
    12  H    5.801266   4.593406   4.385744   6.487979   6.165419
    13  H    6.935308   5.664311   5.215412   7.751053   7.466429
    14  C    5.651177   4.506208   3.748338   6.706050   6.785953
    15  H    6.259569   5.198636   4.459188   7.297796   7.410307
    16  C    4.230455   3.192641   2.405838   5.344894   5.600679
    17  H    4.043726   3.072733   2.635445   4.993126   5.164402
    18  H    4.361606   3.542602   2.568760   5.589563   6.062732
    19  C    5.461555   4.143416   3.836369   6.230044   5.902248
    20  H    5.968965   4.666187   4.577809   6.555267   6.019837
    21  C    6.178812   4.907557   4.330040   7.095455   6.910519
    22  H    7.127151   5.842920   5.257211   8.029009   7.792234
    23  H    6.210725   4.984560   4.515102   7.051759   6.813603
    24  C    5.875298   4.724695   3.805136   7.014318   7.133804
    25  H    6.579961   5.498925   4.528274   7.749412   7.919457
    26  C    4.495642   3.460203   2.442563   5.704503   6.000176
    27  H    4.636817   3.798975   2.606692   5.955799   6.454574
    28  H    4.463910   3.499779   2.665643   5.589007   5.845914
    29  C    6.350364   5.223573   4.252113   7.524102   7.691510
    30  H    6.472294   5.474170   4.370379   7.736626   8.069625
    31  H    7.279950   6.113733   5.199376   8.411549   8.491050
    32  C    3.698510   4.097806   5.355269   2.407644   1.389707
    33  H    4.464022   4.658200   5.915341   3.265834   2.038399
    34  C    4.182763   4.925374   6.130324   2.780702   2.407973
    35  H    5.132639   5.853447   7.068848   3.730611   3.265240
    36  C    2.404157   3.579528   4.537618   1.389985   2.407874
    37  H    2.572912   3.871888   4.621862   2.037947   3.265337
    38  C    3.679232   4.717943   5.789882   2.407047   2.779720
    39  H    4.437886   5.560023   6.569676   3.265510   3.730364
                    6          7          8          9         10
     6  H    0.000000
     7  C    4.216529   0.000000
     8  C    3.699175   1.565946   0.000000
     9  H    3.443935   2.112387   0.990213   0.000000
    10  H    3.137039   2.113241   0.990601   1.601753   0.000000
    11  C    5.746717   2.960832   2.443667   3.303153   2.620763
    12  H    5.385740   3.271754   2.628962   3.524596   2.418551
    13  H    6.642410   3.864311   3.307109   4.069202   3.521453
    14  C    6.122163   2.516863   2.881277   3.785764   3.202346
    15  H    6.787861   3.374785   3.778714   4.721014   3.941634
    16  C    5.060869   1.537400   2.455752   3.327882   2.641369
    17  H    4.651335   2.085430   2.628614   3.537749   2.428377
    18  H    5.643149   2.086280   3.333254   4.117709   3.551396
    19  C    5.043975   2.534511   1.501079   2.053324   2.053495
    20  H    5.102643   3.393389   2.053771   2.337515   2.344113
    21  C    6.091645   2.993007   2.495082   2.708491   3.341720
    22  H    6.945815   3.877963   3.342507   3.606790   4.084031
    23  H    5.994587   3.347102   2.721133   2.560999   3.611681
    24  C    6.443543   2.554660   2.938228   3.277753   3.833868
    25  H    7.250956   3.414473   3.843360   4.033897   4.776921
    26  C    5.428555   1.527546   2.489997   2.715170   3.351542
    27  H    5.993057   2.070049   3.353627   3.622131   4.120349
    28  H    5.285374   2.070021   2.700234   2.550780   3.608068
    29  C    7.024968   2.981399   3.519182   4.190872   4.167097
    30  H    7.487537   3.312017   4.189843   4.846743   4.818658
    31  H    7.774766   3.876073   4.162348   4.813212   4.784899
    32  C    2.037664   6.157597   5.734859   5.450911   5.121583
    33  H    2.339114   6.549374   5.907684   5.591101   5.250010
    34  C    3.264750   7.123788   6.909338   6.645356   6.324421
    35  H    4.052493   8.030561   7.739333   7.455243   7.123033
    36  C    3.265055   5.807318   6.112830   5.961856   5.718442
    37  H    4.053041   5.985606   6.514085   6.408806   6.200789
    38  C    3.729181   6.974054   7.068526   6.860206   6.574324
    39  H    4.679824   7.807913   7.979226   7.777566   7.495633
                   11         12         13         14         15
    11  C    0.000000
    12  H    0.989133   0.000000
    13  H    0.989909   1.604583   0.000000
    14  C    1.522462   2.079150   2.079723   0.000000
    15  H    2.074716   2.376252   2.372375   1.000535   0.000000
    16  C    2.456280   2.637611   3.320331   1.509107   2.063822
    17  H    2.621703   2.417019   3.524293   2.060758   2.360992
    18  H    3.318187   3.531446   4.086409   2.060799   2.343310
    19  C    1.505289   2.064479   2.064535   2.460380   3.324475
    20  H    2.056970   2.358017   2.355257   3.325943   4.087600
    21  C    2.459843   3.320180   2.653772   2.889736   3.786610
    22  H    2.636327   3.540914   2.446236   3.195400   3.933387
    23  H    3.317907   4.080415   3.545007   3.798187   4.731941
    24  C    2.949302   3.842152   3.285308   2.508539   3.374948
    25  H    3.858106   4.788306   4.047657   3.383322   4.152827
    26  C    3.493481   4.142636   4.159198   2.881386   3.785858
    27  H    4.153498   4.784020   4.797010   3.215048   3.966725
    28  H    4.157282   4.785514   4.804238   3.782399   4.724151
    29  C    2.496527   3.355925   2.692165   1.529088   2.081013
    30  H    3.353923   4.116450   3.589279   2.083896   2.376102
    31  H    2.686593   3.589811   2.504786   2.084425   2.381970
    32  C    7.695378   7.232897   8.581136   8.053958   8.643108
    33  H    7.786628   7.285057   8.615109   8.315618   8.909711
    34  C    8.873724   8.407920   9.790375   9.088965   9.635442
    35  H    9.669394   9.165681  10.564923   9.950533  10.483883
    36  C    8.090297   7.776161   9.071431   7.919006   8.449423
    37  H    8.433171   8.172646   9.422465   8.093672   8.590402
    38  C    9.046789   8.646203  10.008101   9.028528   9.548270
    39  H    9.937127   9.532813  10.904360   9.859034  10.350216
                   16         17         18         19         20
    16  C    0.000000
    17  H    0.989039   0.000000
    18  H    0.990362   1.601224   0.000000
    19  C    2.883207   3.187144   3.793760   0.000000
    20  H    3.778172   3.922366   4.725369   0.999441   0.000000
    21  C    3.514990   4.143838   4.203090   1.505095   2.056774
    22  H    4.146848   4.750644   4.812400   2.060617   2.361090
    23  H    4.198202   4.805872   4.874453   2.061086   2.340498
    24  C    2.958197   3.842312   3.318849   2.497818   3.360497
    25  H    3.867553   4.790426   4.084504   3.368904   4.132103
    26  C    2.486063   3.343337   2.722962   2.891637   3.795674
    27  H    2.699012   3.609295   2.562194   3.788264   4.730157
    28  H    3.342846   4.101976   3.620272   3.234230   3.987141
    29  C    2.519152   3.366958   2.737033   2.905976   3.804925
    30  H    2.736634   3.634832   2.584437   3.806466   4.743297
    31  H    3.367079   4.111756   3.630097   3.227369   3.971417
    32  C    6.912671   6.401371   7.392679   7.057403   7.045205
    33  H    7.296981   6.761341   7.872007   7.115518   6.969497
    34  C    7.836413   7.317606   8.188015   8.291823   8.352278
    35  H    8.727797   8.177410   9.100544   9.084373   9.080473
    36  C    6.495286   6.123529   6.605423   7.599826   7.943151
    37  H    6.619002   6.312305   6.587840   8.000577   8.439724
    38  C    7.654807   7.196847   7.843311   8.527229   8.744999
    39  H    8.453703   7.996349   8.575844   9.445635   9.684303
                   21         22         23         24         25
    21  C    0.000000
    22  H    0.989258   0.000000
    23  H    0.990079   1.603172   0.000000
    24  C    1.546406   2.099319   2.097599   0.000000
    25  H    2.119438   2.431733   2.407197   1.000602   0.000000
    26  C    2.509679   3.362992   2.747869   1.517736   2.093765
    27  H    3.362145   4.115485   3.643393   2.061639   2.376626
    28  H    2.722439   3.628819   2.590394   2.060757   2.372194
    29  C    2.477798   2.647424   3.348534   1.551736   2.122162
    30  H    3.349039   3.558129   4.130619   2.104929   2.420096
    31  H    2.659176   2.446208   3.562511   2.106087   2.431353
    32  C    8.120540   8.968190   7.979284   8.455214   9.242078
    33  H    8.228724   9.022564   8.059090   8.728484   9.527625
    34  C    9.312709  10.192515   9.177216   9.508482  10.269613
    35  H   10.133925  10.995289   9.977225  10.393815  11.158813
    36  C    8.433585   9.376588   8.383086   8.253347   8.949795
    37  H    8.742329   9.695974   8.721582   8.396162   9.044903
    38  C    9.449766  10.373648   9.354418   9.418261  10.138186
    39  H   10.347040  11.278556  10.252287  10.256465  10.956583
                   26         27         28         29         30
    26  C    0.000000
    27  H    0.989529   0.000000
    28  H    0.990003   1.597621   0.000000
    29  C    2.487403   2.679469   3.347041   0.000000
    30  H    2.703704   2.518951   3.602197   0.989521   0.000000
    31  H    3.348958   3.587364   4.112694   0.989545   1.604350
    32  C    7.362917   7.838755   7.171479   9.014408   9.425019
    33  H    7.753662   8.319798   7.548325   9.302915   9.796585
    34  C    8.305209   8.663655   8.109471  10.041013  10.358231
    35  H    9.217658   9.598166   9.005481  10.930190  11.271338
    36  C    6.877631   7.005774   6.750326   8.727599   8.849511
    37  H    6.962182   6.956008   6.862578   8.829644   8.845863
    38  C    8.093331   8.297963   7.925442   9.912455  10.100122
    39  H    8.896646   9.039838   8.727292  10.732589  10.871661
                   31         32         33         34         35
    31  H    0.000000
    32  C    9.782288   0.000000
    33  H   10.007735   0.950948   0.000000
    34  C   10.860576   1.389985   2.039106   0.000000
    35  H   11.731161   2.038463   2.340548   0.949909   0.000000
    36  C    9.644148   2.779445   3.730393   2.407645   3.265114
    37  H    9.778662   3.729766   4.680714   3.265660   4.053767
    38  C   10.797601   2.406892   3.265429   1.390194   2.039023
    39  H   11.634616   3.264446   4.053278   2.037978   2.339573
                   36         37         38         39
    36  C    0.000000
    37  H    0.950321   0.000000
    38  C    1.389205   2.038483   0.000000
    39  H    2.038826   2.341407   0.950644   0.000000
 Stoichiometry    C16H20N3(1-)
 Framework group  C1[X(C16H20N3)]
 Deg. of freedom   111
 Full point group                 C1      NOp   1
 Largest Abelian subgroup         C1      NOp   1
 Largest concise Abelian subgroup C1      NOp   1
                         Standard orientation:                         
 ---------------------------------------------------------------------
 Center     Atomic      Atomic             Coordinates (Angstroms)
 Number     Number       Type             X           Y           Z
 ---------------------------------------------------------------------
      1          7           0       -2.081203   -1.212990   -0.078318
      2          7           0       -0.962105   -0.517028   -0.114009
      3          7           0        0.050797   -1.267922   -0.156028
      4          6           0       -3.273743   -0.475355   -0.052181
      5          6           0       -3.263429    0.912847   -0.136393
      6          1           0       -2.440909    1.376858   -0.234522
      7          6           0        1.296181   -0.571506   -0.103562
      8          6           0        1.235706    0.978139   -0.320653
      9          1           0        0.854320    1.170262   -1.214049
     10          1           0        0.639487    1.383149    0.358890
     11          6           0        3.131464    1.371598    1.170254
     12          1           0        2.515219    1.763027    1.837643
     13          1           0        4.014858    1.807331    1.268602
     14          6           0        3.263452   -0.127302    1.402136
     15          1           0        3.624180   -0.281895    2.322488
     16          6           0        1.889178   -0.743120    1.304451
     17          1           0        1.290480   -0.316747    1.966240
     18          1           0        1.946405   -1.707873    1.520766
     19          6           0        2.598103    1.600010   -0.218720
     20          1           0        2.514963    2.583989   -0.372847
     21          6           0        3.559252    1.032171   -1.228207
     22          1           0        4.448881    1.448926   -1.111994
     23          1           0        3.239978    1.235453   -2.143082
     24          6           0        3.669895   -0.499369   -1.045136
     25          1           0        4.279695   -0.896349   -1.731981
     26          6           0        2.291823   -1.131148   -1.117907
     27          1           0        2.379999   -2.106013   -0.972890
     28          1           0        1.928205   -0.995308   -2.028640
     29          6           0        4.233609   -0.725501    0.382790
     30          1           0        4.342322   -1.694386    0.551893
     31          1           0        5.119700   -0.293430    0.468554
     32          6           0       -4.457871    1.620810   -0.078238
     33          1           0       -4.450529    2.569911   -0.137031
     34          6           0       -5.662751    0.942789    0.065321
     35          1           0       -6.478870    1.427282    0.104628
     36          6           0       -4.478623   -1.153377    0.091377
     37          1           0       -4.484954   -2.101934    0.148917
     38          6           0       -5.672126   -0.444818    0.149561
     39          1           0       -6.496578   -0.907855    0.247542
 ---------------------------------------------------------------------
 Rotational constants (GHZ):           1.1858200           0.1680715           0.1607725
 Leave Link  202 at Mon Mar  6 10:21:37 2023, MaxMem=  1048576000 cpu:               0.0 elap:               0.0
 (Enter /ssoft/spack/external/gaussian/g16-C.01/avx2/g16/l301.exe)
 Standard basis: def2SVP (5D, 7F)
 Ernie: Thresh=  0.10000D-02 Tol=  0.10000D-05 Strict=F.
 There are   385 symmetry adapted cartesian basis functions of A   symmetry.
 There are   366 symmetry adapted basis functions of A   symmetry.
   366 basis functions,   615 primitive gaussians,   385 cartesian basis functions
    69 alpha electrons       69 beta electrons
       nuclear repulsion energy      1424.8358366463 Hartrees.
 IExCor= 1009 DFT=T Ex+Corr=PBE1PBE ExCW=0 ScaHFX=  0.250000
 ScaDFX=  0.750000  0.750000  1.000000  1.000000 ScalE2=  1.000000  1.000000
 IRadAn=      5 IRanWt=     -1 IRanGd=            0 ICorTp=0 IEmpDi=141
 NAtoms=   39 NActive=   39 NUniq=   39 SFac= 1.00D+00 NAtFMM=   60 NAOKFM=F Big=F
 Integral buffers will be    131072 words long.
 Raffenetti 2 integral format.
 Two-electron integral symmetry is turned on.
 R6Disp:  Grimme-D3(BJ) Dispersion energy=       -0.0458834703 Hartrees.
 Nuclear repulsion after empirical dispersion term =     1424.7899531760 Hartrees.
 Leave Link  301 at Mon Mar  6 10:21:37 2023, MaxMem=  1048576000 cpu:               0.0 elap:               0.1
 (Enter /ssoft/spack/external/gaussian/g16-C.01/avx2/g16/l302.exe)
 NPDir=0 NMtPBC=     1 NCelOv=     1 NCel=       1 NClECP=     1 NCelD=      1
         NCelK=      1 NCelE2=     1 NClLst=     1 CellRange=     0.0.
 One-electron integrals computed using PRISM.
 One-electron integral symmetry used in STVInt
   1 Symmetry operations used in ECPInt.
 ECPInt:  NShTT=   15225 NPrTT=   54263 LenC2=   13537 LenP2D=   34943.
 LDataN:  DoStor=T MaxTD1= 4 Len=   56
 NBasis=   366 RedAO= T EigKep=  2.84D-04  NBF=   366
 NBsUse=   366 1.00D-06 EigRej= -1.00D+00 NBFU=   366
 Precomputing XC quadrature grid using
 IXCGrd= 4 IRadAn=           5 IRanWt=          -1 IRanGd=           0 AccXCQ= 0.00D+00.
 Generated NRdTot=       0 NPtTot=           0 NUsed=           0 NTot=          32
 NSgBfM=   382   382   382   382   382 MxSgAt=    39 MxSgA2=    39.
 Leave Link  302 at Mon Mar  6 10:21:38 2023, MaxMem=  1048576000 cpu:               1.3 elap:               1.3
 (Enter /ssoft/spack/external/gaussian/g16-C.01/avx2/g16/l303.exe)
 DipDrv:  MaxL=1.
 Leave Link  303 at Mon Mar  6 10:21:38 2023, MaxMem=  1048576000 cpu:               0.0 elap:               0.1
 (Enter /ssoft/spack/external/gaussian/g16-C.01/avx2/g16/l401.exe)
 ExpMin= 1.22D-01 ExpMax= 1.71D+03 ExpMxC= 2.58D+02 IAcc=3 IRadAn=         5 AccDes= 0.00D+00
 Harris functional with IExCor= 1009 and IRadAn=       5 diagonalized for initial guess.
 HarFok:  IExCor= 1009 AccDes= 0.00D+00 IRadAn=         5 IDoV= 1 UseB2=F ITyADJ=14
 ICtDFT=  3500011 ScaDFX=  1.000000  1.000000  1.000000  1.000000
 FoFCou: FMM=F IPFlag=           0 FMFlag=      100000 FMFlg1=           0
         NFxFlg=           0 DoJE=T BraDBF=F KetDBF=T FulRan=T
         wScrn=  0.000000 ICntrl=       500 IOpCl=  0 I1Cent=   200000004 NGrid=           0
         NMat0=    1 NMatS0=      1 NMatT0=    0 NMatD0=    1 NMtDS0=    0 NMtDT0=    0
 Petite list used in FoFCou.
 Harris En= -784.866323864712    
 JPrj=0 DoOrth=F DoCkMO=F.
 Leave Link  401 at Mon Mar  6 10:21:50 2023, MaxMem=  1048576000 cpu:              12.0 elap:              12.1
 (Enter /ssoft/spack/external/gaussian/g16-C.01/avx2/g16/l502.exe)
 Integral symmetry usage will be decided dynamically.
 Closed shell SCF:
 Using DIIS extrapolation, IDIIS=  1040.
 NGot=  1048576000 LenX=  1048272118 LenY=  1048123452
 Requested convergence on RMS density matrix=1.00D-08 within 128 cycles.
 Requested convergence on MAX density matrix=1.00D-06.
 Requested convergence on             energy=1.00D-06.
 No special actions if energy rises.
 Fock matrices will be formed incrementally for  20 cycles.
 Integral accuracy reduced to 1.0D-05 until final iterations.

 Cycle   1  Pass 0  IDiag  1:
 FoFJK:  IHMeth= 1 ICntrl=       0 DoSepK=F KAlg= 0 I1Cent=           0 FoldK=F
 IRaf= 830000000 NMat=       1 IRICut=       1 DoRegI=T DoRafI=F ISym2E= 0 IDoP0=0 IntGTp=1.
 FoFCou: FMM=F IPFlag=           0 FMFlag=      100000 FMFlg1=           0
         NFxFlg=           0 DoJE=F BraDBF=F KetDBF=F FulRan=T
         wScrn=  0.000000 ICntrl=         0 IOpCl=  0 I1Cent=           0 NGrid=           0
         NMat0=    1 NMatS0=      1 NMatT0=    0 NMatD0=    1 NMtDS0=    0 NMtDT0=    0
 Symmetry not used in FoFCou.
 E= -783.797321667078    
 DIIS: error= 3.49D-02 at cycle   1 NSaved=   1.
 NSaved= 1 IEnMin= 1 EnMin= -783.797321667078     IErMin= 1 ErrMin= 3.49D-02
 ErrMax= 3.49D-02  0.00D+00 EMaxC= 1.00D-01 BMatC= 4.74D-01 BMatP= 4.74D-01
 IDIUse=3 WtCom= 6.51D-01 WtEn= 3.49D-01
 Coeff-Com:  0.100D+01
 Coeff-En:   0.100D+01
 Coeff:      0.100D+01
 Gap=     0.268 Goal=   None    Shift=    0.000
 GapD=    0.268 DampG=1.000 DampE=0.500 DampFc=0.5000 IDamp=-1.
 Damping current iteration by 5.00D-01
 RMSDP=5.84D-03 MaxDP=1.50D-01              OVMax= 1.72D-01

 Cycle   2  Pass 0  IDiag  1:
 RMSU=  2.80D-03    CP:  9.56D-01
 E= -784.045466279048     Delta-E=       -0.248144611970 Rises=F Damp=T
 DIIS: error= 6.77D-03 at cycle   2 NSaved=   2.
 NSaved= 2 IEnMin= 2 EnMin= -784.045466279048     IErMin= 2 ErrMin= 6.77D-03
 ErrMax= 6.77D-03  0.00D+00 EMaxC= 1.00D-01 BMatC= 3.35D-02 BMatP= 4.74D-01
 IDIUse=3 WtCom= 9.32D-01 WtEn= 6.77D-02
 Coeff-Com:  0.346D-01 0.965D+00
 Coeff-En:   0.187D-01 0.981D+00
 Coeff:      0.335D-01 0.966D+00
 Gap=     0.163 Goal=   None    Shift=    0.000
 RMSDP=2.48D-03 MaxDP=7.32D-02 DE=-2.48D-01 OVMax= 1.06D-01

 Cycle   3  Pass 0  IDiag  1:
 RMSU=  2.44D-03    CP:  9.43D-01  1.15D+00
 E= -784.314201675458     Delta-E=       -0.268735396410 Rises=F Damp=F
 DIIS: error= 6.14D-03 at cycle   3 NSaved=   3.
 NSaved= 3 IEnMin= 3 EnMin= -784.314201675458     IErMin= 3 ErrMin= 6.14D-03
 ErrMax= 6.14D-03  0.00D+00 EMaxC= 1.00D-01 BMatC= 2.61D-02 BMatP= 3.35D-02
 IDIUse=3 WtCom= 9.39D-01 WtEn= 6.14D-02
 Coeff-Com: -0.394D-01 0.479D+00 0.560D+00
 Coeff-En:   0.000D+00 0.000D+00 0.100D+01
 Coeff:     -0.369D-01 0.450D+00 0.587D+00
 Gap=     0.180 Goal=   None    Shift=    0.000
 RMSDP=1.28D-03 MaxDP=6.58D-02 DE=-2.69D-01 OVMax= 4.47D-02

 Cycle   4  Pass 0  IDiag  1:
 RMSU=  7.37D-04    CP:  9.35D-01  1.13D+00  5.77D-01
 E= -784.335173749418     Delta-E=       -0.020972073960 Rises=F Damp=F
 DIIS: error= 2.48D-03 at cycle   4 NSaved=   4.
 NSaved= 4 IEnMin= 4 EnMin= -784.335173749418     IErMin= 4 ErrMin= 2.48D-03
 ErrMax= 2.48D-03  0.00D+00 EMaxC= 1.00D-01 BMatC= 2.97D-03 BMatP= 2.61D-02
 IDIUse=3 WtCom= 9.75D-01 WtEn= 2.48D-02
 Coeff-Com: -0.183D-01 0.136D+00 0.294D+00 0.588D+00
 Coeff-En:   0.000D+00 0.000D+00 0.558D-01 0.944D+00
 Coeff:     -0.179D-01 0.132D+00 0.289D+00 0.597D+00
 Gap=     0.161 Goal=   None    Shift=    0.000
 RMSDP=3.11D-04 MaxDP=1.29D-02 DE=-2.10D-02 OVMax= 1.92D-02

 Cycle   5  Pass 0  IDiag  1:
 RMSU=  1.78D-04    CP:  9.35D-01  1.15D+00  6.43D-01  7.38D-01
 E= -784.337713308181     Delta-E=       -0.002539558762 Rises=F Damp=F
 DIIS: error= 9.99D-04 at cycle   5 NSaved=   5.
 NSaved= 5 IEnMin= 5 EnMin= -784.337713308181     IErMin= 5 ErrMin= 9.99D-04
 ErrMax= 9.99D-04  0.00D+00 EMaxC= 1.00D-01 BMatC= 3.30D-04 BMatP= 2.97D-03
 IDIUse=3 WtCom= 9.90D-01 WtEn= 9.99D-03
 Coeff-Com: -0.675D-02 0.286D-01 0.981D-01 0.319D+00 0.561D+00
 Coeff-En:   0.000D+00 0.000D+00 0.000D+00 0.434D-01 0.957D+00
 Coeff:     -0.668D-02 0.283D-01 0.971D-01 0.317D+00 0.565D+00
 Gap=     0.161 Goal=   None    Shift=    0.000
 RMSDP=9.13D-05 MaxDP=3.45D-03 DE=-2.54D-03 OVMax= 8.40D-03

 Cycle   6  Pass 0  IDiag  1:
 RMSU=  5.54D-05    CP:  9.35D-01  1.15D+00  6.46D-01  7.78D-01  6.29D-01
 E= -784.337969593527     Delta-E=       -0.000256285346 Rises=F Damp=F
 DIIS: error= 5.63D-04 at cycle   6 NSaved=   6.
 NSaved= 6 IEnMin= 6 EnMin= -784.337969593527     IErMin= 6 ErrMin= 5.63D-04
 ErrMax= 5.63D-04  0.00D+00 EMaxC= 1.00D-01 BMatC= 7.20D-05 BMatP= 3.30D-04
 IDIUse=3 WtCom= 9.94D-01 WtEn= 5.63D-03
 Coeff-Com: -0.233D-02 0.369D-02 0.297D-01 0.140D+00 0.373D+00 0.457D+00
 Coeff-En:   0.000D+00 0.000D+00 0.000D+00 0.000D+00 0.170D+00 0.830D+00
 Coeff:     -0.231D-02 0.366D-02 0.295D-01 0.139D+00 0.371D+00 0.459D+00
 Gap=     0.161 Goal=   None    Shift=    0.000
 RMSDP=3.61D-05 MaxDP=2.23D-03 DE=-2.56D-04 OVMax= 4.14D-03

 Cycle   7  Pass 0  IDiag  1:
 RMSU=  1.86D-05    CP:  9.35D-01  1.15D+00  6.45D-01  7.84D-01  6.73D-01
                    CP:  4.67D-01
 E= -784.338032193797     Delta-E=       -0.000062600270 Rises=F Damp=F
 DIIS: error= 1.73D-04 at cycle   7 NSaved=   7.
 NSaved= 7 IEnMin= 7 EnMin= -784.338032193797     IErMin= 7 ErrMin= 1.73D-04
 ErrMax= 1.73D-04  0.00D+00 EMaxC= 1.00D-01 BMatC= 5.73D-06 BMatP= 7.20D-05
 IDIUse=3 WtCom= 9.98D-01 WtEn= 1.73D-03
 Coeff-Com: -0.104D-02 0.411D-03 0.121D-01 0.668D-01 0.201D+00 0.299D+00
 Coeff-Com:  0.422D+00
 Coeff-En:   0.000D+00 0.000D+00 0.000D+00 0.000D+00 0.000D+00 0.706D-02
 Coeff-En:   0.993D+00
 Coeff:     -0.104D-02 0.411D-03 0.121D-01 0.667D-01 0.201D+00 0.299D+00
 Coeff:      0.423D+00
 Gap=     0.161 Goal=   None    Shift=    0.000
 RMSDP=1.07D-05 MaxDP=5.60D-04 DE=-6.26D-05 OVMax= 1.43D-03

 Cycle   8  Pass 0  IDiag  1:
 RMSU=  5.42D-06    CP:  9.35D-01  1.15D+00  6.45D-01  7.82D-01  6.75D-01
                    CP:  5.15D-01  5.33D-01
 E= -784.338038172277     Delta-E=       -0.000005978480 Rises=F Damp=F
 DIIS: error= 2.17D-05 at cycle   8 NSaved=   8.
 NSaved= 8 IEnMin= 8 EnMin= -784.338038172277     IErMin= 8 ErrMin= 2.17D-05
 ErrMax= 2.17D-05  0.00D+00 EMaxC= 1.00D-01 BMatC= 1.78D-07 BMatP= 5.73D-06
 IDIUse=1 WtCom= 1.00D+00 WtEn= 0.00D+00
 Coeff-Com: -0.222D-03-0.190D-03 0.205D-02 0.138D-01 0.493D-01 0.848D-01
 Coeff-Com:  0.192D+00 0.659D+00
 Coeff:     -0.222D-03-0.190D-03 0.205D-02 0.138D-01 0.493D-01 0.848D-01
 Coeff:      0.192D+00 0.659D+00
 Gap=     0.161 Goal=   None    Shift=    0.000
 RMSDP=2.34D-06 MaxDP=8.42D-05 DE=-5.98D-06 OVMax= 2.48D-04

 Initial convergence to 1.0D-05 achieved.  Increase integral accuracy.
 Cycle   9  Pass 1  IDiag  1:
 E= -784.337856954421     Delta-E=        0.000181217857 Rises=F Damp=F
 DIIS: error= 1.03D-04 at cycle   1 NSaved=   1.
 NSaved= 1 IEnMin= 1 EnMin= -784.337856954421     IErMin= 1 ErrMin= 1.03D-04
 ErrMax= 1.03D-04  0.00D+00 EMaxC= 1.00D-01 BMatC= 1.64D-06 BMatP= 1.64D-06
 IDIUse=3 WtCom= 9.99D-01 WtEn= 1.03D-03
 Coeff-Com:  0.100D+01
 Coeff-En:   0.100D+01
 Coeff:      0.100D+01
 Gap=     0.161 Goal=   None    Shift=    0.000
 RMSDP=2.34D-06 MaxDP=8.42D-05 DE= 1.81D-04 OVMax= 2.19D-04

 Cycle  10  Pass 1  IDiag  1:
 RMSU=  7.53D-05    CP:  1.00D+00
 E= -784.337858768351     Delta-E=       -0.000001813930 Rises=F Damp=F
 DIIS: error= 1.70D-05 at cycle   2 NSaved=   2.
 NSaved= 2 IEnMin= 2 EnMin= -784.337858768351     IErMin= 2 ErrMin= 1.70D-05
 ErrMax= 1.70D-05  0.00D+00 EMaxC= 1.00D-01 BMatC= 1.05D-07 BMatP= 1.64D-06
 IDIUse=1 WtCom= 1.00D+00 WtEn= 0.00D+00
 Coeff-Com:  0.765D-01 0.924D+00
 Coeff:      0.765D-01 0.924D+00
 Gap=     0.161 Goal=   None    Shift=    0.000
 RMSDP=3.44D-06 MaxDP=1.28D-04 DE=-1.81D-06 OVMax= 3.09D-04

 Cycle  11  Pass 1  IDiag  1:
 RMSU=  3.19D-06    CP:  1.00D+00  1.02D+00
 E= -784.337858611787     Delta-E=        0.000000156564 Rises=F Damp=F
 DIIS: error= 2.62D-05 at cycle   3 NSaved=   3.
 NSaved= 3 IEnMin= 2 EnMin= -784.337858768351     IErMin= 2 ErrMin= 1.70D-05
 ErrMax= 2.62D-05  0.00D+00 EMaxC= 1.00D-01 BMatC= 2.57D-07 BMatP= 1.05D-07
 IDIUse=1 WtCom= 1.00D+00 WtEn= 0.00D+00
 Coeff-Com: -0.856D-02 0.615D+00 0.394D+00
 Coeff:     -0.856D-02 0.615D+00 0.394D+00
 Gap=     0.161 Goal=   None    Shift=    0.000
 RMSDP=1.91D-06 MaxDP=8.26D-05 DE= 1.57D-07 OVMax= 2.25D-04

 Cycle  12  Pass 1  IDiag  1:
 RMSU=  6.90D-07    CP:  1.00D+00  1.02D+00  4.42D-01
 E= -784.337858874217     Delta-E=       -0.000000262431 Rises=F Damp=F
 DIIS: error= 5.32D-06 at cycle   4 NSaved=   4.
 NSaved= 4 IEnMin= 4 EnMin= -784.337858874217     IErMin= 4 ErrMin= 5.32D-06
 ErrMax= 5.32D-06  0.00D+00 EMaxC= 1.00D-01 BMatC= 4.78D-09 BMatP= 1.05D-07
 IDIUse=1 WtCom= 1.00D+00 WtEn= 0.00D+00
 Coeff-Com: -0.674D-02 0.359D+00 0.243D+00 0.405D+00
 Coeff:     -0.674D-02 0.359D+00 0.243D+00 0.405D+00
 Gap=     0.161 Goal=   None    Shift=    0.000
 RMSDP=3.14D-07 MaxDP=1.98D-05 DE=-2.62D-07 OVMax= 4.04D-05

 Cycle  13  Pass 1  IDiag  1:
 RMSU=  2.37D-07    CP:  1.00D+00  1.02D+00  4.59D-01  7.14D-01
 E= -784.337858878467     Delta-E=       -0.000000004250 Rises=F Damp=F
 DIIS: error= 1.23D-06 at cycle   5 NSaved=   5.
 NSaved= 5 IEnMin= 5 EnMin= -784.337858878467     IErMin= 5 ErrMin= 1.23D-06
 ErrMax= 1.23D-06  0.00D+00 EMaxC= 1.00D-01 BMatC= 3.74D-10 BMatP= 4.78D-09
 IDIUse=1 WtCom= 1.00D+00 WtEn= 0.00D+00
 Coeff-Com: -0.291D-02 0.135D+00 0.948D-01 0.246D+00 0.527D+00
 Coeff:     -0.291D-02 0.135D+00 0.948D-01 0.246D+00 0.527D+00
 Gap=     0.161 Goal=   None    Shift=    0.000
 RMSDP=8.97D-08 MaxDP=4.11D-06 DE=-4.25D-09 OVMax= 8.38D-06

 Cycle  14  Pass 1  IDiag  1:
 RMSU=  7.05D-08    CP:  1.00D+00  1.02D+00  4.59D-01  7.49D-01  7.93D-01
 E= -784.337858878798     Delta-E=       -0.000000000332 Rises=F Damp=F
 DIIS: error= 4.07D-07 at cycle   6 NSaved=   6.
 NSaved= 6 IEnMin= 6 EnMin= -784.337858878798     IErMin= 6 ErrMin= 4.07D-07
 ErrMax= 4.07D-07  0.00D+00 EMaxC= 1.00D-01 BMatC= 3.19D-11 BMatP= 3.74D-10
 IDIUse=1 WtCom= 1.00D+00 WtEn= 0.00D+00
 Coeff-Com: -0.527D-03 0.181D-01 0.140D-01 0.708D-01 0.272D+00 0.626D+00
 Coeff:     -0.527D-03 0.181D-01 0.140D-01 0.708D-01 0.272D+00 0.626D+00
 Gap=     0.161 Goal=   None    Shift=    0.000
 RMSDP=2.62D-08 MaxDP=1.19D-06 DE=-3.32D-10 OVMax= 2.16D-06

 Cycle  15  Pass 1  IDiag  1:
 RMSU=  2.10D-08    CP:  1.00D+00  1.02D+00  4.59D-01  7.55D-01  8.30D-01
                    CP:  8.32D-01
 E= -784.337858878835     Delta-E=       -0.000000000037 Rises=F Damp=F
 DIIS: error= 9.31D-08 at cycle   7 NSaved=   7.
 NSaved= 7 IEnMin= 7 EnMin= -784.337858878835     IErMin= 7 ErrMin= 9.31D-08
 ErrMax= 9.31D-08  0.00D+00 EMaxC= 1.00D-01 BMatC= 3.56D-12 BMatP= 3.19D-11
 IDIUse=1 WtCom= 1.00D+00 WtEn= 0.00D+00
 Coeff-Com:  0.388D-04-0.511D-02-0.298D-02 0.971D-02 0.746D-01 0.317D+00
 Coeff-Com:  0.607D+00
 Coeff:      0.388D-04-0.511D-02-0.298D-02 0.971D-02 0.746D-01 0.317D+00
 Coeff:      0.607D+00
 Gap=     0.161 Goal=   None    Shift=    0.000
 RMSDP=1.22D-08 MaxDP=4.92D-07 DE=-3.68D-11 OVMax= 8.37D-07

 Cycle  16  Pass 1  IDiag  1:
 RMSU=  8.65D-09    CP:  1.00D+00  1.02D+00  4.60D-01  7.58D-01  8.39D-01
                    CP:  8.58D-01  6.47D-01
 E= -784.337858878839     Delta-E=       -0.000000000004 Rises=F Damp=F
 DIIS: error= 2.71D-08 at cycle   8 NSaved=   8.
 NSaved= 8 IEnMin= 8 EnMin= -784.337858878839     IErMin= 8 ErrMin= 2.71D-08
 ErrMax= 2.71D-08  0.00D+00 EMaxC= 1.00D-01 BMatC= 3.44D-13 BMatP= 3.56D-12
 IDIUse=1 WtCom= 1.00D+00 WtEn= 0.00D+00
 Coeff-Com:  0.484D-04-0.386D-02-0.244D-02 0.140D-02 0.246D-01 0.140D+00
 Coeff-Com:  0.340D+00 0.501D+00
 Coeff:      0.484D-04-0.386D-02-0.244D-02 0.140D-02 0.246D-01 0.140D+00
 Coeff:      0.340D+00 0.501D+00
 Gap=     0.161 Goal=   None    Shift=    0.000
 RMSDP=3.87D-09 MaxDP=1.87D-07 DE=-3.64D-12 OVMax= 2.25D-07

 SCF Done:  E(RPBE1PBE) =  -784.337858879     A.U. after   16 cycles
            NFock= 16  Conv=0.39D-08     -V/T= 2.0052
 KE= 7.802748716598D+02 PE=-4.690173583166D+03 EE= 1.700770899452D+03
 Leave Link  502 at Mon Mar  6 10:29:06 2023, MaxMem=  1048576000 cpu:             432.8 elap:             436.0
 (Enter /ssoft/spack/external/gaussian/g16-C.01/avx2/g16/l801.exe)
 DoSCS=F DFT=T ScalE2(SS,OS)=  1.000000  1.000000
 Range of M.O.s used for correlation:     1   366
 NBasis=   366 NAE=    69 NBE=    69 NFC=     0 NFV=     0
 NROrb=    366 NOA=    69 NOB=    69 NVA=   297 NVB=   297

 **** Warning!!: The largest alpha MO coefficient is  0.14185345D+02

 Leave Link  801 at Mon Mar  6 10:29:06 2023, MaxMem=  1048576000 cpu:               0.0 elap:               0.0
 (Enter /ssoft/spack/external/gaussian/g16-C.01/avx2/g16/l1101.exe)
 Using compressed storage, NAtomX=    39.
 Will process     40 centers per pass.
   1 Symmetry operations used in ECPInt.
 ECPInt:  NShTT=   15225 NPrTT=   54263 LenC2=   13537 LenP2D=   34943.
 LDataN:  DoStor=T MaxTD1= 5 Len=  102
 R6Disp: Adding Grimme-D3(BJ) dispersion energy 1st derivatives to the gradient.
 Leave Link 1101 at Mon Mar  6 10:29:07 2023, MaxMem=  1048576000 cpu:               0.6 elap:               0.7
 (Enter /ssoft/spack/external/gaussian/g16-C.01/avx2/g16/l1102.exe)
 Symmetrizing basis deriv contribution to polar:
 IMax=3 JMax=2 DiffMx= 0.00D+00
 Leave Link 1102 at Mon Mar  6 10:29:07 2023, MaxMem=  1048576000 cpu:               0.1 elap:               0.1
 (Enter /ssoft/spack/external/gaussian/g16-C.01/avx2/g16/l1110.exe)
 Forming Gx(P) for the SCF density, NAtomX=    39.
 Integral derivatives from FoFJK, PRISM(SPDF).
 Do as many integral derivatives as possible in FoFJK.
 G2DrvN: MDV=    1048571847.
 G2DrvN: will do    40 centers at a time, making    1 passes.
 Calling FoFCou, ICntrl=  3107 FMM=F I1Cent=   0 AccDes= 0.00D+00.
 FoFJK:  IHMeth= 1 ICntrl=    3107 DoSepK=F KAlg= 0 I1Cent=           0 FoldK=F
 IRaf=         0 NMat=       1 IRICut=       1 DoRegI=T DoRafI=F ISym2E= 0 IDoP0=0 IntGTp=1.
 FoFCou: FMM=F IPFlag=           0 FMFlag=      100000 FMFlg1=           0
         NFxFlg=           0 DoJE=F BraDBF=F KetDBF=F FulRan=T
         wScrn=  0.000000 ICntrl=      3107 IOpCl=  0 I1Cent=           0 NGrid=           0
         NMat0=    1 NMatS0=      1 NMatT0=    0 NMatD0=    1 NMtDS0=    0 NMtDT0=    0
 Symmetry not used in FoFCou.
 End of G2Drv F.D. properties file   721 does not exist.
 End of G2Drv F.D. properties file   722 does not exist.
 End of G2Drv F.D. properties file   788 does not exist.
 Leave Link 1110 at Mon Mar  6 10:45:53 2023, MaxMem=  1048576000 cpu:            1002.6 elap:            1006.4
 (Enter /ssoft/spack/external/gaussian/g16-C.01/avx2/g16/l1002.exe)
 Minotr:  Closed shell wavefunction.
          IDoAtm=111111111111111111111111111111111111111
          Direct CPHF calculation.
          Differentiating once with respect to electric field.
                with respect to dipole field.
          Differentiating once with respect to nuclear coordinates.
          Requested convergence is 1.0D-08 RMS, and 1.0D-07 maximum.
          Secondary convergence is 1.0D-12 RMS, and 1.0D-12 maximum.
          NewPWx=T KeepS1=F KeepF1=F KeepIn=T MapXYZ=F SortEE=F KeepMc=T.
        11826 words used for storage of precomputed grid.
 Two-electron integrals replicated using symmetry.
          MDV=    1048576000 using IRadAn=       1.
          Solving linear equations simultaneously, MaxMat=     384.
 FoF2E skips out because all densities are zero.
 CalDSu exits because no D1Ps are significant.
 FoFJK:  IHMeth= 1 ICntrl=       0 DoSepK=F KAlg= 0 I1Cent=           0 FoldK=F
 IRaf= 800000000 NMat=     117 IRICut=     292 DoRegI=T DoRafI=T ISym2E= 2 IDoP0=3 IntGTp=3.
 FoFCou: FMM=F IPFlag=           0 FMFlag=      100000 FMFlg1=           0
         NFxFlg=           0 DoJE=F BraDBF=F KetDBF=F FulRan=T
         wScrn=  0.000000 ICntrl=         0 IOpCl=  0 I1Cent=           0 NGrid=           0
         NMat0=  117 NMatS0=    117 NMatT0=    0 NMatD0=  117 NMtDS0=    0 NMtDT0=    0
 Integrals replicated using symmetry in FoFCou.
 Raff kept on since  75.48% of shell-pairs survive, threshold=   0.20 IRatSp=75.
          There are   120 degrees of freedom in the 1st order CPHF.  IDoFFX=6 NUNeed=     3.
    117 vectors produced by pass  0 Test12= 2.05D-14 1.00D-09 XBig12= 3.72D+02 1.29D+01.
 AX will form   117 AO Fock derivatives at one time.
    117 vectors produced by pass  1 Test12= 2.05D-14 1.00D-09 XBig12= 6.58D+01 1.53D+00.
    117 vectors produced by pass  2 Test12= 2.05D-14 1.00D-09 XBig12= 9.49D-01 8.80D-02.
    117 vectors produced by pass  3 Test12= 2.05D-14 1.00D-09 XBig12= 3.65D-03 8.56D-03.
    117 vectors produced by pass  4 Test12= 2.05D-14 1.00D-09 XBig12= 7.84D-06 2.59D-04.
    108 vectors produced by pass  5 Test12= 2.05D-14 1.00D-09 XBig12= 9.46D-09 8.43D-06.
     24 vectors produced by pass  6 Test12= 2.05D-14 1.00D-09 XBig12= 8.95D-12 2.65D-07.
      3 vectors produced by pass  7 Test12= 2.05D-14 1.00D-09 XBig12= 9.19D-15 8.05D-09.
      2 vectors produced by pass  8 Test12= 2.05D-14 1.00D-09 XBig12= 6.73D-16 2.66D-09.
 InvSVY:  IOpt=1 It=  1 EMax= 5.33D-15
 Solved reduced A of dimension   722 with   120 vectors.
 FullF1:  Do perturbations      1 to       3.
 Isotropic polarizability for W=    0.000000      198.39 Bohr**3.
 End of Minotr F.D. properties file   721 does not exist.
 End of Minotr F.D. properties file   722 does not exist.
 End of Minotr F.D. properties file   788 does not exist.
 Leave Link 1002 at Mon Mar  6 11:15:15 2023, MaxMem=  1048576000 cpu:            1756.1 elap:            1761.8
 (Enter /ssoft/spack/external/gaussian/g16-C.01/avx2/g16/l601.exe)
 Copying SCF densities to generalized density rwf, IOpCl= 0 IROHF=0.

 **********************************************************************

            Population analysis using the SCF Density.

 **********************************************************************

 Orbital symmetries:
       Occupied  (A) (A) (A) (A) (A) (A) (A) (A) (A) (A) (A) (A)
                 (A) (A) (A) (A) (A) (A) (A) (A) (A) (A) (A) (A)
                 (A) (A) (A) (A) (A) (A) (A) (A) (A) (A) (A) (A)
                 (A) (A) (A) (A) (A) (A) (A) (A) (A) (A) (A) (A)
                 (A) (A) (A) (A) (A) (A) (A) (A) (A) (A) (A) (A)
                 (A) (A) (A) (A) (A) (A) (A) (A) (A)
       Virtual   (A) (A) (A) (A) (A) (A) (A) (A) (A) (A) (A) (A)
                 (A) (A) (A) (A) (A) (A) (A) (A) (A) (A) (A) (A)
                 (A) (A) (A) (A) (A) (A) (A) (A) (A) (A) (A) (A)
                 (A) (A) (A) (A) (A) (A) (A) (A) (A) (A) (A) (A)
                 (A) (A) (A) (A) (A) (A) (A) (A) (A) (A) (A) (A)
                 (A) (A) (A) (A) (A) (A) (A) (A) (A) (A) (A) (A)
                 (A) (A) (A) (A) (A) (A) (A) (A) (A) (A) (A) (A)
                 (A) (A) (A) (A) (A) (A) (A) (A) (A) (A) (A) (A)
                 (A) (A) (A) (A) (A) (A) (A) (A) (A) (A) (A) (A)
                 (A) (A) (A) (A) (A) (A) (A) (A) (A) (A) (A) (A)
                 (A) (A) (A) (A) (A) (A) (A) (A) (A) (A) (A) (A)
                 (A) (A) (A) (A) (A) (A) (A) (A) (A) (A) (A) (A)
                 (A) (A) (A) (A) (A) (A) (A) (A) (A) (A) (A) (A)
                 (A) (A) (A) (A) (A) (A) (A) (A) (A) (A) (A) (A)
                 (A) (A) (A) (A) (A) (A) (A) (A) (A) (A) (A) (A)
                 (A) (A) (A) (A) (A) (A) (A) (A) (A) (A) (A) (A)
                 (A) (A) (A) (A) (A) (A) (A) (A) (A) (A) (A) (A)
                 (A) (A) (A) (A) (A) (A) (A) (A) (A) (A) (A) (A)
                 (A) (A) (A) (A) (A) (A) (A) (A) (A) (A) (A) (A)
                 (A) (A) (A) (A) (A) (A) (A) (A) (A) (A) (A) (A)
                 (A) (A) (A) (A) (A) (A) (A) (A) (A) (A) (A) (A)
                 (A) (A) (A) (A) (A) (A) (A) (A) (A) (A) (A) (A)
                 (A) (A) (A) (A) (A) (A) (A) (A) (A) (A) (A) (A)
                 (A) (A) (A) (A) (A) (A) (A) (A) (A) (A) (A) (A)
                 (A) (A) (A) (A) (A) (A) (A) (A) (A)
 The electronic state is 1-A.
 Alpha  occ. eigenvalues --  -14.26042 -14.20239 -14.18080 -10.11278 -10.11084
 Alpha  occ. eigenvalues --  -10.10562 -10.09986 -10.09722 -10.09386 -10.09135
 Alpha  occ. eigenvalues --  -10.08933 -10.07625 -10.07428 -10.07376 -10.06971
 Alpha  occ. eigenvalues --  -10.06469 -10.06451 -10.05829 -10.05334  -0.88136
 Alpha  occ. eigenvalues --   -0.79134  -0.74416  -0.71008  -0.69155  -0.69005
 Alpha  occ. eigenvalues --   -0.65909  -0.62406  -0.59783  -0.59139  -0.58800
 Alpha  occ. eigenvalues --   -0.51922  -0.50544  -0.49932  -0.49159  -0.46859
 Alpha  occ. eigenvalues --   -0.44457  -0.42502  -0.39386  -0.37758  -0.37163
 Alpha  occ. eigenvalues --   -0.36980  -0.36272  -0.33626  -0.32869  -0.32544
 Alpha  occ. eigenvalues --   -0.32073  -0.31805  -0.30742  -0.30406  -0.30200
 Alpha  occ. eigenvalues --   -0.28872  -0.27070  -0.26212  -0.24232  -0.23787
 Alpha  occ. eigenvalues --   -0.23144  -0.22891  -0.22611  -0.22150  -0.21818
 Alpha  occ. eigenvalues --   -0.21450  -0.20015  -0.18365  -0.16964  -0.12833
 Alpha  occ. eigenvalues --   -0.11801  -0.09325  -0.03320  -0.01863
 Alpha virt. eigenvalues --    0.14190   0.15106   0.16388   0.20511   0.20556
 Alpha virt. eigenvalues --    0.21053   0.21664   0.22277   0.23148   0.23232
 Alpha virt. eigenvalues --    0.24550   0.24834   0.25462   0.25627   0.26977
 Alpha virt. eigenvalues --    0.27859   0.29381   0.30120   0.30491   0.31200
 Alpha virt. eigenvalues --    0.31816   0.32407   0.32915   0.33329   0.33481
 Alpha virt. eigenvalues --    0.34018   0.35046   0.35425   0.35675   0.36864
 Alpha virt. eigenvalues --    0.39022   0.39395   0.39941   0.41251   0.41691
 Alpha virt. eigenvalues --    0.42147   0.42598   0.44046   0.45016   0.45774
 Alpha virt. eigenvalues --    0.47194   0.49219   0.52746   0.54555   0.55410
 Alpha virt. eigenvalues --    0.56391   0.57234   0.57834   0.58461   0.59206
 Alpha virt. eigenvalues --    0.60173   0.62512   0.63127   0.63704   0.64534
 Alpha virt. eigenvalues --    0.64852   0.64954   0.67289   0.68012   0.68174
 Alpha virt. eigenvalues --    0.69421   0.70324   0.71432   0.73537   0.74398
 Alpha virt. eigenvalues --    0.75292   0.75989   0.76757   0.77882   0.78362
 Alpha virt. eigenvalues --    0.78874   0.78951   0.79530   0.80165   0.80714
 Alpha virt. eigenvalues --    0.81278   0.81549   0.81803   0.82496   0.82572
 Alpha virt. eigenvalues --    0.82910   0.83276   0.84034   0.85393   0.86238
 Alpha virt. eigenvalues --    0.86385   0.86770   0.86917   0.87222   0.87526
 Alpha virt. eigenvalues --    0.87750   0.88105   0.88603   0.88901   0.89465
 Alpha virt. eigenvalues --    0.89823   0.90254   0.90741   0.91448   0.91952
 Alpha virt. eigenvalues --    0.92276   0.92466   0.93382   0.94172   0.95365
 Alpha virt. eigenvalues --    0.96447   0.96964   0.97960   0.98568   0.99481
 Alpha virt. eigenvalues --    1.00757   1.01460   1.02033   1.03107   1.06352
 Alpha virt. eigenvalues --    1.11272   1.12427   1.13233   1.15719   1.17611
 Alpha virt. eigenvalues --    1.18203   1.19483   1.20556   1.22252   1.23336
 Alpha virt. eigenvalues --    1.26652   1.27721   1.29455   1.30499   1.33624
 Alpha virt. eigenvalues --    1.33728   1.34575   1.35215   1.35596   1.37154
 Alpha virt. eigenvalues --    1.40851   1.40983   1.42210   1.42748   1.43178
 Alpha virt. eigenvalues --    1.44512   1.44985   1.45889   1.46907   1.47518
 Alpha virt. eigenvalues --    1.48624   1.49573   1.50769   1.54635   1.60464
 Alpha virt. eigenvalues --    1.61209   1.61423   1.67440   1.70203   1.71423
 Alpha virt. eigenvalues --    1.74819   1.78312   1.78618   1.79245   1.80211
 Alpha virt. eigenvalues --    1.80469   1.81282   1.83498   1.84767   1.87122
 Alpha virt. eigenvalues --    1.87910   1.89076   1.89587   1.90226   1.91878
 Alpha virt. eigenvalues --    1.92382   1.93495   1.94085   1.94606   1.95605
 Alpha virt. eigenvalues --    1.96701   1.97064   1.97300   1.97691   1.98949
 Alpha virt. eigenvalues --    1.99637   2.00543   2.01889   2.02637   2.03845
 Alpha virt. eigenvalues --    2.04473   2.05485   2.06161   2.07329   2.08915
 Alpha virt. eigenvalues --    2.09915   2.10668   2.11205   2.12561   2.13595
 Alpha virt. eigenvalues --    2.14245   2.14846   2.15475   2.16339   2.17589
 Alpha virt. eigenvalues --    2.18643   2.19461   2.20644   2.21207   2.22040
 Alpha virt. eigenvalues --    2.25641   2.25992   2.26377   2.27325   2.28964
 Alpha virt. eigenvalues --    2.29511   2.29981   2.31741   2.32004   2.32896
 Alpha virt. eigenvalues --    2.33163   2.33559   2.35199   2.36042   2.36972
 Alpha virt. eigenvalues --    2.37536   2.40688   2.41360   2.41890   2.42766
 Alpha virt. eigenvalues --    2.43910   2.45151   2.46864   2.47014   2.48240
 Alpha virt. eigenvalues --    2.49115   2.49223   2.52212   2.53007   2.54650
 Alpha virt. eigenvalues --    2.58079   2.61449   2.62683   2.64656   2.66702
 Alpha virt. eigenvalues --    2.69247   2.69865   2.71365   2.72202   2.75781
 Alpha virt. eigenvalues --    2.77046   2.77375   2.79970   2.80885   2.81319
 Alpha virt. eigenvalues --    2.82393   2.83699   2.84933   2.86652   2.87321
 Alpha virt. eigenvalues --    2.88780   2.89181   2.90222   2.91151   2.91754
 Alpha virt. eigenvalues --    2.93362   3.00057   3.00499   3.01869   3.02186
 Alpha virt. eigenvalues --    3.03292   3.05933   3.08170   3.13680   3.14928
 Alpha virt. eigenvalues --    3.18725   3.21701   3.24455   3.25505   3.25834
 Alpha virt. eigenvalues --    3.27323   3.29621   3.30614   3.32772   3.34165
 Alpha virt. eigenvalues --    3.35428   3.35948   3.37893   3.38051   3.39145
 Alpha virt. eigenvalues --    3.39735   3.42772   3.47671   3.48199   3.50165
 Alpha virt. eigenvalues --    3.50656   3.53894   3.58704   3.64725   3.70434
 Alpha virt. eigenvalues --    3.84364   4.07790
     Molecular Orbital Coefficients:
                          65        66        67        68        69
                           O         O         O         O         O
     Eigenvalues --    -0.12833  -0.11801  -0.09325  -0.03320  -0.01863
   1 1   N  1S         -0.00875   0.00227  -0.09447  -0.04050   0.00100
   2        2S         -0.01808   0.00461  -0.19611  -0.06339  -0.00027
   3        3S         -0.02580   0.00809  -0.29318  -0.13935   0.00646
   4        4PX         0.00968  -0.00385   0.10593  -0.06759   0.01688
   5        4PY        -0.03298   0.00692  -0.31487  -0.35916   0.03027
   6        4PZ        -0.12353   0.00570   0.00473   0.03834   0.38441
   7        5PX        -0.00733   0.00312  -0.07990   0.00250  -0.00980
   8        5PY         0.02003  -0.00325   0.20282   0.29932  -0.02570
   9        5PZ         0.08412  -0.00166  -0.00234  -0.03046  -0.32673
  10        6D 0       -0.00034   0.00032  -0.00930  -0.01133   0.00122
  11        6D+1       -0.01258   0.00084   0.00136  -0.00116  -0.00262
  12        6D-1        0.00690  -0.00139  -0.00034  -0.00182  -0.01672
  13        6D+2       -0.00209   0.00041  -0.01224  -0.00077   0.00006
  14        6D-2       -0.00117   0.00028  -0.00514  -0.00108  -0.00047
  15 2   N  1S         -0.00149   0.00091   0.00988  -0.04264   0.00387
  16        2S         -0.00326   0.00220   0.01632  -0.05479   0.00553
  17        3S         -0.00960   0.00258   0.06141  -0.31888   0.03503
  18        4PX         0.00879  -0.00252   0.09977   0.03737  -0.00159
  19        4PY         0.00042   0.00046  -0.05019   0.38689  -0.03127
  20        4PZ         0.16480  -0.02202  -0.02626   0.00671   0.02121
  21        5PX        -0.01456   0.00503  -0.08267  -0.04424   0.00836
  22        5PY         0.00298  -0.00148   0.02995  -0.26196   0.01805
  23        5PZ        -0.11709   0.01145   0.02082  -0.00761  -0.02203
  24        6D 0        0.00096  -0.00010   0.00152  -0.01348  -0.00092
  25        6D+1       -0.01310   0.00193   0.00123   0.00175   0.02966
  26        6D-1        0.00919  -0.00181  -0.00077   0.00042   0.00072
  27        6D+2       -0.00055   0.00033  -0.00152   0.00986  -0.00049
  28        6D-2       -0.00118   0.00044  -0.01203  -0.00117  -0.00043
  29 3   N  1S          0.00899  -0.00351   0.08987  -0.02107   0.00153
  30        2S          0.01749  -0.00695   0.17931  -0.01323   0.00319
  31        3S          0.03770  -0.01479   0.36425  -0.18904  -0.00620
  32        4PX         0.02235  -0.00574   0.09710   0.04885  -0.00983
  33        4PY         0.02842  -0.01228   0.35273  -0.28923   0.03506
  34        4PZ         0.19444  -0.02799  -0.01691  -0.03838  -0.33244
  35        5PX        -0.01846   0.00506  -0.03799  -0.04179   0.00976
  36        5PY        -0.01224   0.00657  -0.22338   0.23410  -0.03697
  37        5PZ        -0.14431   0.02280   0.01321   0.03367   0.27313
  38        6D 0        0.00040  -0.00027   0.01108  -0.00856   0.00137
  39        6D+1        0.00864  -0.00125  -0.00095  -0.00065  -0.00087
  40        6D-1       -0.01129   0.00165   0.00031   0.00213   0.01376
  41        6D+2        0.00128  -0.00043   0.01013   0.00323   0.00012
  42        6D-2       -0.00153   0.00032  -0.00561   0.00131   0.00028
  43 4   C  1S         -0.00244   0.00083  -0.03020  -0.03284   0.00211
  44        2S          0.00691  -0.00230   0.07867   0.09141  -0.00543
  45        3S          0.00776  -0.00583   0.05281   0.09205  -0.02280
  46        4PX         0.03584  -0.00594   0.10558   0.08278  -0.00447
  47        4PY         0.00775   0.00124  -0.13235  -0.08537   0.00473
  48        4PZ         0.30363  -0.02961  -0.02854   0.00831   0.04335
  49        5PX         0.01686  -0.00205   0.04590  -0.03464   0.00889
  50        5PY         0.01647  -0.00356   0.02508   0.08491  -0.00733
  51        5PZ         0.20120  -0.02234  -0.02308   0.00045  -0.02463
  52        6D 0        0.00032   0.00322  -0.00140   0.00009   0.00144
  53        6D+1       -0.00042  -0.00942  -0.00025  -0.00287  -0.02513
  54        6D-1       -0.00258  -0.01665  -0.00024   0.00096   0.01466
  55        6D+2        0.00106  -0.00009   0.01550   0.01574  -0.00239
  56        6D-2       -0.00022  -0.00200   0.00283   0.00824  -0.00038
  57 5   C  1S          0.00159  -0.00036   0.02590   0.00904   0.00127
  58        2S         -0.00322   0.00057  -0.06161  -0.02641  -0.00269
  59        3S         -0.01105   0.00415  -0.14459  -0.07440  -0.01080
  60        4PX         0.00444  -0.02415  -0.04417   0.02853   0.01176
  61        4PY         0.01337  -0.01992   0.09952   0.09051   0.01037
  62        4PZ         0.09625  -0.29525  -0.02761   0.00373   0.19150
  63        5PX         0.00540  -0.01912   0.02751   0.07246   0.01602
  64        5PY         0.01172  -0.01687   0.05198   0.13711  -0.00543
  65        5PZ         0.06538  -0.20576  -0.02348  -0.00850   0.18229
  66        6D 0        0.00067  -0.00089  -0.00056  -0.00028   0.00047
  67        6D+1        0.00542   0.00975   0.00033  -0.00041  -0.00257
  68        6D-1       -0.01452  -0.00477   0.00174  -0.00011  -0.00230
  69        6D+2        0.00160   0.00103   0.00246  -0.00031   0.00007
  70        6D-2       -0.00147   0.00035  -0.00642  -0.00249  -0.00012
  71 6   H  1S         -0.00174   0.00049  -0.02520   0.01978  -0.00232
  72        2S         -0.00138   0.00339  -0.01071  -0.11907   0.01418
  73        3PX         0.00045  -0.00106   0.00070  -0.00507   0.00107
  74        3PY         0.00029  -0.00071   0.00204   0.00311   0.00040
  75        3PZ         0.00300  -0.01093  -0.00096   0.00019   0.00702
  76 7   C  1S          0.00240  -0.00102   0.03189  -0.03201   0.00242
  77        2S         -0.00767   0.00287  -0.07990   0.07877  -0.00601
  78        3S          0.00780  -0.00013  -0.14301   0.15431  -0.00497
  79        4PX         0.01986  -0.00494   0.11438  -0.09072   0.00118
  80        4PY         0.00610  -0.00549   0.15047  -0.05311   0.00621
  81        4PZ         0.09694  -0.01279   0.00143  -0.01705  -0.05122
  82        5PX         0.02456  -0.00555   0.12346  -0.09228  -0.01401
  83        5PY        -0.01663   0.00185   0.03104  -0.01200   0.00622
  84        5PZ        -0.00146  -0.00164   0.00056  -0.00026   0.09752
  85        6D 0        0.00485  -0.00062  -0.00048   0.00063  -0.00498
  86        6D+1        0.01159  -0.00161  -0.00094  -0.00184  -0.01896
  87        6D-1        0.00105  -0.00013  -0.00225   0.00029  -0.00604
  88        6D+2       -0.00124   0.00062  -0.01795   0.01135  -0.00140
  89        6D-2        0.00020  -0.00009   0.00214  -0.00287   0.00073
  90 8   C  1S          0.00288   0.00017  -0.02272  -0.00011  -0.00614
  91        2S         -0.00739  -0.00046   0.04369  -0.00342   0.01348
  92        3S         -0.01385   0.00237   0.16222   0.07896   0.05382
  93        4PX        -0.00438   0.00087  -0.02246  -0.03457   0.00216
  94        4PY         0.01153   0.00316  -0.14927   0.07104  -0.03148
  95        4PZ        -0.01338   0.00250   0.01452   0.00126   0.00058
  96        5PX        -0.00925  -0.00119   0.00947   0.04068   0.02246
  97        5PY         0.00002   0.00624  -0.13028   0.12645  -0.02890
  98        5PZ         0.00857   0.00666   0.02008  -0.00672  -0.03288
  99        6D 0        0.00205  -0.00033   0.00009   0.00144  -0.00149
 100        6D+1        0.00282  -0.00063   0.00046  -0.00088  -0.00216
 101        6D-1       -0.00347   0.00066  -0.00160   0.00145   0.00263
 102        6D+2        0.00054   0.00011  -0.00405  -0.00231  -0.00030
 103        6D-2       -0.00008   0.00004  -0.00482   0.00025  -0.00082
 104 9   H  1S          0.02393  -0.00339  -0.00202   0.01507  -0.01194
 105        2S          0.04165   0.00137  -0.00457  -0.04858  -0.05401
 106        3PX        -0.00027   0.00019  -0.00067   0.00092  -0.00012
 107        3PY        -0.00007  -0.00003  -0.00323   0.00150  -0.00031
 108        3PZ        -0.00004   0.00015   0.00079   0.00042   0.00048
 109 10  H  1S         -0.01438   0.00274  -0.00680   0.03309   0.00653
 110        2S         -0.02195  -0.00874  -0.00557  -0.04704   0.04356
 111        3PX         0.00022  -0.00017  -0.00090   0.00403  -0.00094
 112        3PY         0.00100   0.00013  -0.00354   0.00242  -0.00158
 113        3PZ        -0.00102   0.00030  -0.00029  -0.00083   0.00033
 114 11  C  1S          0.00056  -0.00006   0.00207  -0.00337  -0.00150
 115        2S          0.00014   0.00031  -0.00173   0.00516   0.00190
 116        3S         -0.00302  -0.00244  -0.02917   0.06563  -0.00840
 117        4PX        -0.00993   0.00152  -0.00471  -0.00192   0.00353
 118        4PY         0.00840  -0.00056  -0.00903  -0.00403  -0.00331
 119        4PZ        -0.01105   0.00122   0.00996  -0.00831   0.00078
 120        5PX        -0.00051   0.00078   0.00624  -0.01330  -0.00221
 121        5PY         0.00330   0.00003   0.01163  -0.02576   0.00976
 122        5PZ        -0.00268  -0.00011   0.00905  -0.02363  -0.00066
 123        6D 0        0.00110  -0.00015   0.00002   0.00080  -0.00043
 124        6D+1        0.00085  -0.00007  -0.00097  -0.00058  -0.00073
 125        6D-1       -0.00108   0.00019  -0.00167   0.00022   0.00029
 126        6D+2        0.00024   0.00003  -0.00164  -0.00022  -0.00051
 127        6D-2       -0.00111   0.00022  -0.00115  -0.00021   0.00089
 128 12  H  1S         -0.00010  -0.00002   0.00452  -0.00024  -0.00124
 129        2S          0.00200   0.00197   0.00187   0.01653  -0.00898
 130        3PX        -0.00034   0.00005  -0.00059   0.00047   0.00015
 131        3PY         0.00017  -0.00005  -0.00069   0.00006  -0.00003
 132        3PZ        -0.00059   0.00002   0.00027  -0.00059   0.00036
 133 13  H  1S         -0.00955   0.00189  -0.01571  -0.00179   0.00512
 134        2S         -0.00932   0.00160  -0.01571  -0.00947   0.00534
 135        3PX         0.00004   0.00001   0.00029  -0.00018  -0.00021
 136        3PY         0.00042  -0.00004  -0.00029   0.00029  -0.00027
 137        3PZ        -0.00034   0.00005   0.00015  -0.00002  -0.00018
 138 14  C  1S          0.00750  -0.00104   0.00112  -0.00193  -0.00994
 139        2S         -0.01607   0.00229  -0.00736   0.00929   0.01556
 140        3S         -0.07872   0.01049   0.09887  -0.10125   0.19745
 141        4PX         0.03888  -0.00564   0.01579  -0.00845  -0.03940
 142        4PY         0.01108  -0.00237   0.01982  -0.00327  -0.01594
 143        4PZ         0.03467  -0.00434  -0.00108  -0.00277  -0.01641
 144        5PX         0.03918  -0.00502  -0.02089   0.02937  -0.08511
 145        5PY         0.01799  -0.00251   0.00445   0.00255  -0.03063
 146        5PZ         0.01733  -0.00219  -0.00282  -0.00334  -0.02099
 147        6D 0        0.00307  -0.00038   0.00002  -0.00040  -0.00179
 148        6D+1        0.00443  -0.00059   0.00011  -0.00101  -0.00391
 149        6D-1        0.00021  -0.00003  -0.00006  -0.00019  -0.00073
 150        6D+2        0.00033  -0.00002  -0.00050  -0.00066  -0.00059
 151        6D-2       -0.00128   0.00016  -0.00022   0.00001   0.00105
 152 15  H  1S          0.04591  -0.00591   0.00009  -0.00574  -0.02773
 153        2S          0.04508  -0.00606  -0.00846   0.00229  -0.05024
 154        3PX         0.00092  -0.00016   0.00090  -0.00100  -0.00122
 155        3PY         0.00074  -0.00013   0.00085  -0.00036  -0.00081
 156        3PZ        -0.00057   0.00008  -0.00021   0.00027  -0.00004
 157 16  C  1S         -0.01786   0.00231   0.00807  -0.00281   0.02693
 158        2S          0.03527  -0.00435  -0.01838   0.00480  -0.04931
 159        3S          0.13770  -0.01541  -0.10902   0.10375  -0.32896
 160        4PX        -0.05931   0.00794  -0.00053   0.00246   0.05406
 161        4PY         0.00266   0.00026  -0.01001  -0.00727  -0.00101
 162        4PZ        -0.09600   0.01258   0.01264   0.01055   0.08758
 163        5PX        -0.01777   0.00283  -0.06127   0.05536  -0.01848
 164        5PY         0.02263  -0.00307   0.00089  -0.00258  -0.04805
 165        5PZ        -0.06663   0.00901  -0.00224   0.04753   0.10167
 166        6D 0        0.00271  -0.00030  -0.00108  -0.00045  -0.00287
 167        6D+1        0.00264  -0.00030  -0.00155   0.00110  -0.00091
 168        6D-1       -0.00154   0.00037  -0.00461   0.00172   0.00161
 169        6D+2       -0.00096   0.00028  -0.00383   0.00184   0.00234
 170        6D-2       -0.00143   0.00024  -0.00090   0.00002   0.00245
 171 17  H  1S         -0.01224   0.00188  -0.00815   0.00169  -0.00208
 172        2S         -0.04231   0.00554   0.00094  -0.04587   0.05133
 173        3PX        -0.00104   0.00011   0.00090  -0.00103   0.00042
 174        3PY         0.00000   0.00005  -0.00058   0.00009   0.00083
 175        3PZ        -0.00203   0.00022   0.00112  -0.00012   0.00257
 176 18  H  1S         -0.00540  -0.00036   0.02392  -0.00083  -0.00836
 177        2S         -0.01479  -0.00035   0.08497  -0.06672   0.04039
 178        3PX        -0.00150   0.00020  -0.00012   0.00038   0.00115
 179        3PY         0.00004  -0.00001  -0.00034   0.00021  -0.00100
 180        3PZ        -0.00235   0.00028   0.00001   0.00039   0.00154
 181 19  C  1S         -0.00046  -0.00025   0.01191   0.00118   0.00156
 182        2S          0.00085   0.00070  -0.02810   0.00506  -0.00238
 183        3S          0.01504  -0.00175  -0.05744  -0.16531  -0.03255
 184        4PX         0.00590  -0.00192   0.05136   0.01116   0.00351
 185        4PY        -0.00224  -0.00171   0.05832  -0.00943   0.00580
 186        4PZ         0.01700  -0.00242   0.00183  -0.00045  -0.00527
 187        5PX        -0.00206  -0.00038   0.05361   0.02662   0.01728
 188        5PY         0.00021  -0.00129   0.03339   0.03652   0.00524
 189        5PZ         0.01297  -0.00183   0.00259   0.00550  -0.00545
 190        6D 0        0.00079  -0.00004  -0.00131   0.00105  -0.00026
 191        6D+1        0.00067  -0.00006  -0.00076  -0.00033   0.00020
 192        6D-1        0.00008   0.00004  -0.00104   0.00033   0.00002
 193        6D+2        0.00049   0.00015  -0.00705   0.00341  -0.00141
 194        6D-2       -0.00023  -0.00001   0.00214  -0.00281   0.00082
 195 20  H  1S         -0.00651  -0.00107   0.05544  -0.02245   0.00873
 196        2S         -0.00739  -0.00047   0.05726  -0.01527   0.01379
 197        3PX         0.00014  -0.00009   0.00261  -0.00072   0.00023
 198        3PY         0.00011  -0.00001   0.00023  -0.00006   0.00011
 199        3PZ         0.00048  -0.00008   0.00051  -0.00046  -0.00015
 200 21  C  1S         -0.00112   0.00007   0.00235  -0.00490   0.00353
 201        2S          0.00162  -0.00052  -0.00310   0.00951  -0.00610
 202        3S         -0.00326   0.00434  -0.03414   0.08945  -0.00691
 203        4PX         0.00103  -0.00054   0.00156  -0.01303   0.00110
 204        4PY        -0.00276   0.00131  -0.01411   0.00238   0.00283
 205        4PZ        -0.00202   0.00069  -0.00934   0.01130  -0.00565
 206        5PX        -0.00081  -0.00155   0.00991  -0.02607   0.00057
 207        5PY         0.00217  -0.00083   0.00516  -0.00958  -0.00531
 208        5PZ        -0.00068   0.00041  -0.01296   0.02934  -0.00317
 209        6D 0        0.00105  -0.00010  -0.00004   0.00088  -0.00058
 210        6D+1        0.00058  -0.00010   0.00070  -0.00035  -0.00017
 211        6D-1       -0.00080   0.00008   0.00063   0.00030   0.00020
 212        6D+2       -0.00016   0.00009  -0.00237  -0.00029   0.00020
 213        6D-2        0.00038  -0.00004  -0.00125  -0.00051  -0.00035
 214 22  H  1S         -0.00015   0.00034  -0.01424  -0.00694  -0.00196
 215        2S         -0.00062   0.00070  -0.01276  -0.01918   0.00381
 216        3PX        -0.00022  -0.00001   0.00028  -0.00009   0.00051
 217        3PY        -0.00020   0.00005  -0.00041   0.00041   0.00028
 218        3PZ        -0.00010   0.00000   0.00007   0.00001  -0.00026
 219 23  H  1S          0.00597  -0.00084   0.00336   0.00085  -0.00023
 220        2S          0.00400  -0.00178   0.00182   0.00731   0.00586
 221        3PX         0.00004   0.00004  -0.00040   0.00001  -0.00003
 222        3PY        -0.00006   0.00007  -0.00075   0.00021  -0.00002
 223        3PZ        -0.00025   0.00002  -0.00030   0.00075   0.00012
 224 24  C  1S         -0.00417   0.00058   0.00018   0.00054   0.00674
 225        2S          0.00679  -0.00062  -0.00651   0.00435  -0.00900
 226        3S          0.07281  -0.01622   0.12017  -0.12869  -0.14155
 227        4PX        -0.01427   0.00198   0.01057   0.00269   0.02625
 228        4PY        -0.00274  -0.00051   0.02091  -0.00013   0.00942
 229        4PZ         0.02506  -0.00317   0.00338  -0.00395  -0.00752
 230        5PX        -0.02475   0.00504  -0.02863   0.04220   0.05922
 231        5PY        -0.00601   0.00011   0.00411   0.00695   0.01722
 232        5PZ         0.01827  -0.00268   0.00549  -0.00143  -0.01479
 233        6D 0        0.00021   0.00000  -0.00014   0.00002   0.00025
 234        6D+1        0.00317  -0.00044   0.00052  -0.00060  -0.00215
 235        6D-1       -0.00030   0.00007  -0.00029   0.00004  -0.00013
 236        6D+2       -0.00079   0.00016  -0.00078  -0.00034   0.00146
 237        6D-2        0.00115  -0.00018   0.00037  -0.00061  -0.00152
 238 25  H  1S         -0.02617   0.00392  -0.00657   0.00539   0.01768
 239        2S         -0.02658   0.00445  -0.01445   0.01508   0.03127
 240        3PX         0.00010  -0.00004   0.00081  -0.00054   0.00074
 241        3PY        -0.00059   0.00005   0.00090  -0.00017   0.00055
 242        3PZ         0.00008   0.00000   0.00007  -0.00024   0.00002
 243 26  C  1S          0.01344  -0.00224   0.01104  -0.01047  -0.01828
 244        2S         -0.02390   0.00358  -0.02233   0.01877   0.03057
 245        3S         -0.15065   0.02790  -0.16391   0.16736   0.25578
 246        4PX         0.04253  -0.00675   0.01585  -0.01929  -0.05106
 247        4PY        -0.01716   0.00343  -0.01947  -0.00136   0.02148
 248        4PZ        -0.05658   0.00817  -0.02112   0.01884   0.03919
 249        5PX         0.02440  -0.00243  -0.04783   0.04646  -0.02344
 250        5PY        -0.03558   0.00635  -0.01728   0.00925   0.07694
 251        5PZ        -0.04264   0.00700  -0.03109   0.01043   0.04305
 252        6D 0        0.00284  -0.00026  -0.00160  -0.00032  -0.00100
 253        6D+1        0.00282  -0.00043   0.00215  -0.00124  -0.00143
 254        6D-1       -0.00068   0.00005   0.00159  -0.00074   0.00067
 255        6D+2        0.00010   0.00016  -0.00538   0.00192  -0.00230
 256        6D-2        0.00210  -0.00024  -0.00113  -0.00102  -0.00248
 257 27  H  1S         -0.00573  -0.00043   0.02460   0.00277   0.00980
 258        2S          0.00790  -0.00367   0.09007  -0.07059   0.00156
 259        3PX         0.00084  -0.00015   0.00035   0.00052  -0.00161
 260        3PY        -0.00076   0.00013  -0.00037   0.00050   0.00083
 261        3PZ        -0.00157   0.00021  -0.00034   0.00004   0.00094
 262 28  H  1S          0.02899  -0.00343  -0.00294  -0.00292  -0.00479
 263        2S          0.05784  -0.00889   0.01489  -0.04487  -0.07473
 264        3PX         0.00091  -0.00012   0.00147  -0.00149   0.00024
 265        3PY        -0.00037   0.00005  -0.00088   0.00027  -0.00009
 266        3PZ        -0.00073   0.00010  -0.00089   0.00086   0.00126
 267 29  C  1S         -0.00030   0.00003  -0.00131   0.00043  -0.00127
 268        2S          0.00080  -0.00003   0.00225  -0.00140   0.00229
 269        3S          0.00039   0.00077  -0.01698   0.01376   0.01065
 270        4PX        -0.00182   0.00022  -0.00513   0.00193  -0.00211
 271        4PY        -0.00415   0.00066  -0.00077   0.00034   0.00255
 272        4PZ        -0.02327   0.00289  -0.00234   0.00354   0.00485
 273        5PX         0.00063  -0.00041   0.00943  -0.01701   0.00121
 274        5PY        -0.00491   0.00077  -0.00043  -0.00262   0.00300
 275        5PZ        -0.00572   0.00029   0.00316  -0.00232  -0.00834
 276        6D 0        0.00155  -0.00018   0.00021  -0.00018  -0.00056
 277        6D+1        0.00119  -0.00015  -0.00009  -0.00019  -0.00121
 278        6D-1        0.00008  -0.00001  -0.00029  -0.00010  -0.00066
 279        6D+2       -0.00072   0.00015  -0.00144   0.00015   0.00050
 280        6D-2        0.00002   0.00002  -0.00083   0.00000  -0.00013
 281 30  H  1S         -0.00037  -0.00026   0.00605  -0.00119  -0.00038
 282        2S         -0.00310   0.00019   0.00061   0.00813  -0.00302
 283        3PX        -0.00014   0.00002  -0.00031   0.00040  -0.00001
 284        3PY        -0.00016   0.00003  -0.00054   0.00054   0.00003
 285        3PZ        -0.00087   0.00012  -0.00006   0.00013   0.00032
 286 31  H  1S         -0.00729   0.00112  -0.00841   0.00298   0.00181
 287        2S         -0.00669   0.00104  -0.00959   0.00379  -0.00038
 288        3PX         0.00007   0.00001  -0.00056   0.00033  -0.00012
 289        3PY         0.00010  -0.00001  -0.00001  -0.00015  -0.00006
[...]
 .00000355,0.00000045,-0.00000378,0.00000183,-0.00000095,-0.00000684,-0
 .00000540,-0.00000929,0.00000962,-0.00000575,-0.00000259,0.00002576,-0
 .00000155,0.00000964,-0.00000592,0.00000175,0.00000238,-0.00000471,0.0
 0000512,0.00000225,0.00000472,0.00000451,0.00000029,-0.00000389,-0.000
 00025,-0.00000038,0.00000778,-0.00000231,0.00000099,-0.00543799,0.0019
 9838,-0.00006362,0.00068676,0.00062494,0.00041784,0.26108596,-0.678704
 73,-0.04826717,-0.26673580,0.69164952,-0.00000449,0.00016135,-0.000578
 59,-0.00001000,-0.00003296,0.00013296,0.00005074,0.00005316,-0.0005069
 0,-0.00004037,0.00004503,-0.00100432,0.00013092,-0.00028365,0.00703580
 ,0.00002513,-0.00010561,0.00091856,-0.00002067,-0.00001591,0.00022801,
 -0.00001096,-0.00000530,0.00001096,0.00000090,-0.00000156,-0.00000527,
 0.00000021,0.00000145,-0.00000015,-0.00000340,0.00000203,0.00000231,0.
 00000025,-0.00000201,-0.00000234,0.00000045,0.00000008,-0.00000081,-0.
 00000386,-0.00000625,0.00000849,0.00000339,0.00000046,-0.00000016,0.00
 002578,-0.00000433,0.00000160,0.00000154,-0.00000120,-0.00000370,0.000
 00159,-0.00000401,0.00000266,-0.00000097,-0.00000281,-0.00000279,-0.00
 000041,0.00000115,0.00000122,0.00000084,-0.00000081,0.00000187,0.00000
 043,-0.00000028,-0.00000003,0.00000026,0.00000066,-0.00000309,0.000001
 28,0.00000350,0.00000289,-0.00000061,-0.00000088,-0.00000119,-0.000011
 67,0.00000732,-0.00000457,-0.00000083,0.00000357,0.00000049,-0.0000049
 1,0.00000050,-0.00000438,0.00000036,0.00000085,0.00000105,-0.00000019,
 -0.00000010,-0.00000034,0.00000073,-0.00000045,-0.00000080,-0.00019626
 ,-0.00033415,0.00363076,-0.00000718,0.00043229,-0.00582355,0.01776537,
 -0.04820068,0.03814641,-0.01813377,0.04974984,-0.04793897,-0.03344061,
 0.03045858,0.00159488,0.01557457,-0.00808515,0.00086189,-0.00497117,0.
 00667360,0.00056069,-0.37629588,0.03846494,0.00368280,-0.02845182,-0.0
 3870692,-0.00259702,-0.00130849,-0.00255270,-0.00011913,0.00323066,0.0
 0000943,-0.00035952,-0.00057173,0.00040314,0.00001457,0.00001830,0.000
 01920,0.00010174,0.00004375,0.00005543,-0.00007171,-0.00002949,0.00011
 427,0.00009103,0.00006261,-0.00002652,-0.00001565,-0.00014148,-0.00000
 215,-0.00001695,0.00015353,0.00021604,-0.00056949,-0.00032869,0.000112
 40,-0.00014094,-0.00149155,0.00007241,0.00020363,0.00007241,-0.0000984
 9,0.00007114,0.00013496,-0.00009762,0.00024871,0.00007649,-0.00027179,
 0.00002577,-0.00027959,-0.00006436,-0.00001479,-0.00000849,0.00007753,
 -0.00011063,-0.00012353,0.00000681,-0.00002265,0.00004482,-0.00002436,
 0.00004165,0.00013809,0.00025960,0.00026574,-0.00024957,0.00009106,0.0
 0003014,-0.00092082,-0.00014870,-0.00027280,0.00015578,-0.00011037,-0.
 00010773,0.00014515,-0.00012975,-0.00002571,-0.00008474,-0.00013209,-0
 .00000606,0.00005978,-0.00001391,0.00000788,-0.00012697,0.00005351,-0.
 00001789,-0.03269716,0.01862536,0.00136018,0.00012231,0.00100084,0.000
 09725,0.05240149,0.00424522,-0.00005154,-0.00297379,-0.00476441,-0.000
 39204,0.89548285,0.05635250,-0.01163270,-0.00053890,-0.00498831,-0.000
 77156,-0.00145961,0.00475571,-0.00471353,-0.00020636,-0.00831629,-0.12
 295867,-0.00284839,-0.02262640,0.04076148,0.00241026,-0.00300137,-0.00
 498516,-0.00068080,-0.00203477,-0.00047790,0.00025818,0.00040013,-0.00
 028262,-0.00000574,-0.00001308,-0.00002299,-0.00009166,-0.00003984,-0.
 00007093,0.00006989,0.00001860,-0.00007870,-0.00006613,-0.00004491,0.0
 0001670,0.00001641,0.00009673,0.00000342,0.00001087,-0.00011479,-0.000
 15489,0.00040177,0.00023248,-0.00007708,0.00009921,0.00104315,-0.00004
 657,-0.00013756,-0.00005716,0.00006650,-0.00004059,-0.00009322,0.00006
 429,-0.00016762,-0.00004918,0.00018347,-0.00002119,0.00021501,0.000047
 52,0.00001107,0.00000474,-0.00005331,0.00007654,0.00008510,-0.00000270
 ,0.00001573,-0.00003029,0.00001554,-0.00003185,-0.00009791,-0.00019806
 ,-0.00020643,0.00018376,-0.00006360,-0.00001931,0.00070351,0.00009352,
 0.00022637,-0.00011127,0.00007678,0.00007599,-0.00010058,0.00008749,0.
 00000722,0.00006178,0.00009824,0.00000219,-0.00004054,0.00001069,-0.00
 000479,0.00008647,-0.00003815,0.00001240,0.03338541,-0.02260234,-0.001
 29943,0.00106155,-0.00024322,0.00003101,-0.03855336,-0.05922165,-0.004
 40100,-0.00367099,-0.00186180,-0.00044306,0.25976652,1.00328758,0.0026
 9572,-0.00095437,0.00744844,-0.00014631,-0.00006630,0.00433468,-0.0002
 2234,-0.00017364,0.00177522,0.00097246,-0.00414084,-0.07319072,-0.0009
 0124,0.00305535,0.00769433,-0.00026150,-0.00058739,0.00641630,0.000126
 24,0.00003864,-0.00122142,0.00004109,-0.00000431,0.00001287,0.00000580
 ,-0.00001616,0.00000807,-0.00001676,0.00001694,-0.00001202,0.00000953,
 -0.00000368,-0.00000699,-0.00000048,0.00000646,0.00000471,-0.00000032,
 -0.00000156,0.00000319,0.00001455,0.00002420,-0.00005618,-0.00001704,0
 .00000019,0.00000426,-0.00018884,0.00005841,-0.00000733,-0.00000037,0.
 00000156,0.00002203,-0.00000300,0.00000519,-0.00000787,-0.00000367,0.0
 0000802,0.00000014,0.00000695,-0.00000020,0.00000057,-0.00000074,-0.00
 000435,-0.00000176,0.00000401,0.00000158,0.00000111,-0.00000284,-0.000
 00197,0.00000584,-0.00000397,-0.00003848,-0.00004568,0.00002057,-0.000
 00297,0.00000693,0.00016504,-0.00002870,0.00005362,-0.00000423,-0.0000
 0554,0.00000125,0.00000171,0.00000814,0.00002329,0.00000143,-0.0000008
 1,-0.00000735,-0.00000084,0.00000028,0.00000001,0.00000043,0.00000055,
 0.00000711,0.00254512,-0.00150413,-0.00676040,0.00008068,0.00003117,-0
 .00082766,-0.00300454,-0.00450565,0.01165231,-0.00020004,-0.00058911,0
 .00727360,0.01295689,0.05907631,0.06910826,0.00317020,-0.00205265,-0.0
 0014014,0.00120419,0.00129672,0.00022950,-0.00016242,-0.00012775,-0.00
 010677,-0.01247201,-0.02980584,-0.00199521,-0.00606172,0.00238630,0.00
 025128,-0.00078149,-0.00167329,-0.00008782,-0.00008143,0.00002650,0.00
 000801,0.00005245,-0.00001232,0.00001323,-0.00000532,-0.00000344,-0.00
 000431,-0.00000688,-0.00001526,-0.00000264,0.00000342,-0.00000399,-0.0
 0000384,-0.00000342,0.00000066,0.00000115,0.00000647,-0.00000028,0.000
 00126,-0.00000555,-0.00000066,0.00000336,0.00000602,-0.00000301,0.0000
 0501,0.00001702,-0.00000629,0.00000661,-0.00000517,0.00000075,-0.00000
 284,-0.00000388,0.00000712,-0.00000486,-0.00000038,0.,-0.00000469,0.00
 001453,0.00000416,0.00000066,0.00000488,-0.00000344,0.00000517,0.00000
 648,-0.00000098,0.00000033,-0.00000219,0.00000077,-0.00000202,-0.00000
 613,-0.00000167,-0.00000416,0.00000651,-0.00000302,-0.00000156,0.00001
 938,-0.00000522,0.00000389,-0.00000575,0.00000797,0.00000151,-0.000006
 08,0.00000190,0.00000120,0.00000605,0.00000348,0.00000030,-0.00000238,
 0.00000179,-0.00000030,0.00000556,-0.00000200,0.00000085,-0.00084063,0
 .00121900,0.00005467,0.00002535,-0.00003122,-0.00000937,0.00002808,0.0
 0376377,0.00031528,0.00064785,0.00074112,0.00006713,-0.31012206,-0.386
 87106,-0.02319114,0.31073813,0.00035360,0.00019396,0.00037955,-0.00080
 266,-0.00057186,-0.00007507,0.00004239,0.00010818,0.00007765,0.0087237
 7,0.01065854,-0.00004235,0.00161170,-0.00028221,-0.00042892,0.00046752
 ,0.00036158,0.00006120,0.00006992,-0.00003011,-0.00001529,-0.00004168,
 0.00000498,-0.00001374,0.00000883,-0.00000048,-0.00000362,0.00001329,0
 .00000767,0.00001069,-0.00000435,0.00000360,0.00000485,0.00000380,-0.0
 0000118,0.00000168,-0.00000835,0.00000244,-0.00000288,0.00000743,0.000
 00112,-0.00000908,-0.00000940,0.00000535,-0.00000731,-0.00002351,0.000
 00398,0.00000311,0.00000372,-0.00000505,0.00000619,0.00000536,0.,0.000
 00479,0.00000306,-0.00000518,0.00000576,-0.00001226,-0.00000272,-0.000
 00112,-0.00000617,0.00000314,-0.00000850,-0.00000850,0.00000340,0.0000
 0044,0.00000310,-0.00000186,0.00000135,0.00000645,0.00000248,0.0000092
 2,-0.00000916,0.00000577,0.00000230,-0.00002255,0.00000360,-0.00001228
 ,0.00000694,-0.00000252,-0.00000218,0.00000482,-0.00000515,-0.00000022
 ,-0.00000423,-0.00000444,-0.00000016,0.00000369,0.00000069,0.00000032,
 -0.00000679,0.00000186,-0.00000079,0.00044118,0.00068065,0.00009147,-0
 .00006264,-0.00004617,0.00008370,0.00440230,-0.00399235,-0.00084068,-0
 .00111118,-0.00095344,-0.00013770,-0.38705033,-0.46438173,-0.03034850,
 0.39584342,0.47326404,0.00000709,0.00027244,-0.00408507,-0.00014120,0.
 00010611,-0.00102288,0.00007944,-0.00004185,-0.00044027,0.00132612,0.0
 0039300,0.00764468,0.00017060,-0.00056236,0.00670584,0.00000731,0.0000
 8673,-0.00059860,-0.00005962,-0.00002717,0.00040834,-0.00001020,0.0000
 0589,0.00001180,-0.00000038,0.00000503,-0.00001032,0.00000107,-0.00001
 041,-0.00000061,-0.00000257,-0.00000084,0.00000222,-0.00000028,-0.0000
 0282,-0.00000182,0.00000130,0.00000123,-0.00000142,-0.00000505,-0.0000
 0898,0.00002357,0.00000758,-0.00000115,-0.00000036,0.00007520,-0.00001
 377,0.00000576,-0.00000100,-0.00000431,-0.00000735,0.00000126,0.000001
 64,0.00000100,0.00000326,-0.00000043,0.00000179,-0.00000009,0.00000037
 ,-0.00000022,-0.00000101,0.00000196,0.00000110,-0.00000097,-0.00000047
 ,-0.00000005,0.00000099,0.00000130,-0.00000337,-0.00000146,0.00001175,
 0.00001321,-0.00000494,0.00000065,-0.00000239,-0.00005551,0.00001042,-
 0.00001065,0.00000054,0.00000130,0.00000046,-0.00000270,0.00000005,-0.
 00001028,0.00000017,0.00000125,0.00000331,-0.00000014,0.00000052,0.000
 00036,0.00000086,-0.00000077,-0.00000301,-0.00008783,0.00016843,-0.000
 56747,-0.00001734,0.00008963,-0.00132952,0.00048576,-0.00072710,0.0083
 8426,-0.00006616,-0.00013789,0.00100921,-0.02398267,-0.03037609,0.0308
 9468,0.02378909,0.03194686,-0.04576538,-0.00423703,-0.00453927,-0.0002
 1802,-0.00281591,0.00317595,0.00041652,0.00022132,-0.00120570,-0.00031
 341,-0.00395454,0.04173273,0.00227062,-0.00250929,-0.01499996,-0.00108
 091,0.00069026,-0.00050042,-0.00008798,-0.00039016,0.00016148,-0.00000
 230,0.00003167,-0.00001820,-0.00000032,0.00000402,-0.00001066,-0.00002
 490,0.00001168,-0.00000669,0.00003030,-0.00000353,-0.00000392,0.000001
 76,0.00000014,-0.00000085,0.00000535,-0.00000100,0.00000484,-0.0000035
 6,0.00001088,-0.00001158,0.00001526,0.00000626,0.00000019,0.00000112,0
 .00006343,-0.00001543,0.00005284,-0.00000184,-0.00000293,-0.00000085,0
 .00000092,0.00001662,-0.00001636,0.00000562,0.00000958,0.00000434,0.00
 000940,0.00000240,-0.00000026,-0.00000593,-0.00000143,-0.00000531,-0.0
 0000212,0.00000542,0.00000269,0.00000099,-0.00000137,-0.00000229,0.000
 00231,-0.00000946,0.00000640,0.00000247,0.00000218,-0.00000020,0.00002
 932,-0.00000838,-0.00002606,-0.00000309,0.00001549,0.00000645,-0.00000
 935,0.00000207,0.00000941,0.00000489,0.00000146,0.00000165,0.00000051,
 0.00000399,-0.00000014,0.00000103,-0.00000157,0.00000059,-0.04721479,-
 0.01620830,-0.00062965,-0.00625680,0.00212968,0.00021611,-0.22837595,-
 0.15589749,-0.00932491,0.01245158,0.01470660,0.00082678,-0.16941164,0.
 11703183,0.00876534,0.01377707,-0.02315819,-0.00150580,1.19822962,-0.0
 1377419,0.00365185,0.00031311,0.00576206,-0.00334771,0.00054580,-0.002
 82412,0.00284252,-0.00013554,0.08142178,0.01248715,-0.00035673,-0.0020
 2424,-0.05316484,-0.00342366,-0.00125558,-0.00063527,-0.00000214,0.001
 77906,0.00015029,-0.00012099,-0.00035672,0.00024504,0.00005411,-0.0000
 3624,0.00003307,0.00010415,-0.00002265,0.00005930,-0.00010576,-0.00000
 939,0.00006815,0.00005338,0.00003360,-0.00001371,-0.00002302,-0.000074
 98,-0.00001316,-0.00000181,0.00010088,0.00013741,-0.00034144,-0.000192
 48,0.00005726,-0.00007191,-0.00086993,0.00000908,0.00016993,0.00004942
 ,-0.00004025,0.00001941,0.00007751,-0.00008208,0.00014925,0.00001064,-
 0.00018011,0.00000503,-0.00018125,-0.00004005,-0.00000772,0.00001153,0
 .00004294,-0.00005271,-0.00006188,-0.00000909,-0.00001794,0.00002066,-
 0.00001032,0.00002893,0.00008814,0.00016840,0.00015738,-0.00014568,0.0
 0004279,0.00001282,-0.00056249,-0.00012869,-0.00015959,0.00008849,-0.0
 0008236,-0.00006638,0.00008401,-0.00006267,-0.00000684,-0.00005357,-0.
 00007883,-0.00000339,0.00002976,-0.00001772,0.00000450,-0.00006988,0.0
 0003301,-0.00000996,-0.06141893,0.04003970,0.00238260,0.00268053,0.001
 27498,-0.00040106,-0.08220850,-0.27348750,-0.01291227,-0.02650356,-0.0
 1666085,-0.00138855,0.04632447,-0.35092402,-0.01867285,0.01682289,-0.0
 1700988,-0.00173766,-0.08629722,0.66925588,-0.00086396,-0.00000819,0.0
 0375786,0.00045231,-0.00056199,0.00231103,-0.00030484,0.00030366,0.000
 46027,0.00496305,0.00031020,0.00535923,-0.00017250,-0.00282337,-0.0069
 2098,-0.00005918,-0.00000542,-0.00062901,0.00024068,0.00005694,-0.0007
 7377,-0.00000945,0.00001330,-0.00001320,-0.00000925,0.00000220,0.00002
 125,0.00000703,0.00000719,-0.00000014,0.00000252,0.00000672,0.00000229
 ,0.00000280,0.00000112,0.00000090,-0.00000689,-0.00000236,0.00000103,0
 .00001508,0.00002712,-0.00007586,-0.00003094,0.00000846,-0.00000759,-0
 .00021472,0.00003026,0.00000964,0.00000017,-0.00000085,0.00000683,0.00
 000296,-0.00000331,0.00001326,-0.00000021,-0.00001074,-0.00000196,-0.0
 0001268,-0.00000348,-0.00000016,0.00000042,0.00000097,-0.00000454,-0.0
 0000401,0.00000028,-0.00000128,0.00000089,-0.00000180,0.00000546,0.000
 00952,-0.00001618,-0.00001849,0.00000186,0.00000066,0.00000421,0.00007
 762,-0.00003036,0.00001764,0.00000493,-0.00000839,-0.00000161,0.000014
 93,-0.00000239,0.00001067,-0.00000323,-0.00000743,-0.00000545,0.000002
 45,-0.00000139,0.00000030,-0.00000605,0.00000307,0.00000246,-0.0035519
 9,0.00195144,0.00956707,0.00026190,-0.00043694,0.00757392,-0.00483724,
 -0.01262773,-0.07113682,-0.00180200,-0.00137330,0.00346554,0.00428382,
 -0.01943028,-0.07142134,0.00094416,-0.00132462,0.00550952,-0.01206853,
 0.03970769,0.08177296,-0.00096921,0.00016908,-0.00002479,0.00055636,-0
 .00021779,0.00002367,-0.00028033,0.00046598,0.00004962,0.00177759,0.00
 106621,0.00010208,0.00090828,0.00001722,-0.00001951,-0.00003811,0.0000
 3745,-0.00000171,0.00018416,-0.00001351,-0.00000704,-0.00003501,0.0000
 1741,-0.00000496,0.00000804,-0.00000227,-0.00000407,0.00001248,0.00000
 104,0.00000938,-0.00000445,0.00000646,0.00000609,0.00000543,-0.0000018
 4,0.00000248,-0.00001271,0.00000297,-0.00000312,0.00001009,0.00000924,
 -0.00002921,-0.00001991,0.00000903,-0.00001190,-0.00007662,0.00000420,
 0.00000678,0.00000497,-0.00000775,0.00000882,0.00000913,-0.00000126,0.
 00001328,0.00001093,-0.00001370,0.00000410,-0.00001541,-0.00000402,-0.
 00000116,-0.00000473,0.00000518,-0.00001028,-0.00001182,0.00000391,-0.
 00000081,0.00000475,-0.00000257,0.00000171,0.00000910,0.00001322,0.000
 01763,-0.00001698,0.00000883,0.00000361,-0.00005380,-0.00000228,-0.000
 01841,0.00001072,-0.00000282,-0.00000586,0.00000855,-0.00000977,-0.000
 00286,-0.00000620,-0.00000828,-0.00000043,0.00000576,0.00000122,0.0000
 0054,-0.00001077,0.00000343,-0.00000137,-0.00051181,-0.00426937,-0.000
 20765,-0.00087836,0.00035525,0.00003174,-0.01260157,0.00964465,0.00074
 089,0.00130134,-0.00012925,-0.00006146,-0.00388829,-0.00462964,-0.0002
 4335,0.00083528,0.00031566,-0.00001073,-0.76036240,0.12355808,0.012668
 56,0.77413553,0.00143871,0.00029715,0.00006467,0.00010145,-0.00038435,
 -0.00001325,0.00019610,-0.00016771,0.00000166,0.00106735,-0.00582509,-
 0.00097200,0.00007159,-0.00110977,-0.00001850,0.00002436,0.00003866,0.
 00009110,-0.00002384,-0.00002356,-0.00001138,0.00001242,-0.00000455,0.
 00000527,-0.00000569,0.00000076,0.00000290,-0.00000757,-0.00000168,-0.
 00000570,0.00000215,-0.00000156,-0.00000237,-0.00000175,0.00000054,-0.
 00000079,0.00000349,-0.00000147,0.00000159,-0.00000319,-0.00000159,0.0
 0000628,0.00000555,-0.00000285,0.00000411,0.00001626,-0.00000082,-0.00
 000066,-0.00000204,0.00000376,-0.00000319,-0.00000301,-0.00000228,-0.0
 0000270,-0.00000441,0.00000143,-0.00000254,0.00000572,0.00000103,0.000
 00050,0.00000284,-0.00000138,0.00000396,0.00000374,-0.00000182,-0.0000
 0042,-0.00000152,0.00000071,-0.00000024,-0.00000258,-0.00000437,-0.000
 00773,0.00000606,-0.00000312,-0.00000092,0.00002091,-0.00000231,0.0000
 1047,-0.00000374,-0.00000089,0.00000156,-0.00000215,0.00000355,0.00000
 048,0.00000189,0.00000292,-0.00000024,-0.00000183,-0.00000115,-0.00000
 006,0.00000275,-0.00000087,0.00000049,-0.00375591,-0.00442465,-0.00079
 496,-0.00151156,0.00042851,0.00001163,-0.03063671,0.00955796,0.0003658
 6,0.00176289,0.00157712,0.00050902,0.03522926,0.00105068,-0.00068147,-
 0.00150491,0.00197930,0.00054749,0.12389648,-0.01460970,-0.00375074,-0
 .12639960,0.01163348,0.00015013,0.00006439,0.00014586,0.00004723,-0.00
 002796,-0.00035237,0.00005344,-0.00000859,-0.00014223,0.00007093,-0.00
 102417,0.00936548,-0.00007168,-0.00007118,-0.00092592,0.00001103,0.000
 07301,-0.00127580,-0.00003098,-0.00001062,0.00012467,-0.00000025,-0.00
 000068,0.00000017,0.00000161,0.00000117,-0.00000280,-0.00000104,-0.000
 00204,-0.00000003,-0.00000059,0.00000008,0.00000051,-0.00000016,-0.000
 00137,-0.00000114,0.00000096,0.00000049,-0.00000026,-0.00000338,-0.000
 00306,0.00000896,0.00000301,0.00000008,-0.00000073,0.00002913,-0.00000
 460,-0.00000125,-0.00000087,-0.00000172,-0.00000269,-0.00000019,0.0000
 0145,-0.00000037,-0.00000052,-0.00000028,0.00000082,0.00000126,0.00000
 069,0.00000026,0.00000009,-0.00000024,0.00000102,0.00000038,-0.0000004
 0,0.00000008,0.00000012,0.00000075,-0.00000210,0.00000061,0.00000211,0
 .00000354,-0.00000021,-0.00000089,-0.00000150,-0.00001253,0.00000216,-
 0.00000445,-0.00000047,0.00000034,0.00000101,-0.00000065,0.00000096,-0
 .00000353,0.00000036,0.00000098,0.00000096,-0.00000027,0.00000016,0.00
 000003,0.00000081,-0.00000047,-0.00000106,-0.00016192,-0.00076525,0.00
 772006,-0.00009452,0.00000243,0.00040157,-0.00198093,0.00006282,0.0062
 9481,0.00007961,0.00049757,-0.00599245,0.00239451,-0.00032462,0.006813
 86,-0.00014199,0.00058387,-0.00676008,0.01267821,-0.00368818,0.0311388
 2,-0.01302027,0.00464082,-0.04655173\\0.01694699,-0.01362447,0.0007474
 9,0.02398934,-0.01212180,0.00059870,-0.00264317,0.01462396,0.00702523,
 -0.04059202,0.05204938,-0.00154028,0.13666927,-0.05390451,-0.00317006,
 -0.14622718,0.02690678,0.00246557,-0.02914501,-0.01853833,-0.01406041,
 -0.01668059,0.10547182,-0.00923304,0.01323651,-0.04484077,0.08924258,0
 .03076965,-0.06369314,-0.06749843,0.05502326,0.04789280,0.07528947,0.0
 3174360,-0.06641439,-0.07007986,-0.09797154,0.02292843,-0.01919041,-0.
 00158075,-0.03296414,0.07060120,-0.00873311,0.03676376,-0.08160630,-0.
 07296414,-0.00150851,0.07826787,0.02908340,-0.06986231,-0.06719590,0.0
 6121817,0.07981756,-0.00913205,0.03979483,0.06270121,-0.00895668,-0.05
 118976,-0.07554740,0.00520859,0.09178729,0.02918973,-0.05393771,-0.097
 29385,0.02604707,-0.01940997,0.00399637,-0.04199973,0.09238146,0.01478
 726,-0.06405959,-0.08431553,-0.02588190,0.05719412,0.06193691,-0.05594
 642,-0.03714885,-0.07151645,0.05915343,0.08295269,-0.00461593,0.014191
 26,-0.04122935,0.09171469,0.04442667,-0.10488670,0.03310577,0.05581691
 ,0.08504969,-0.00677927,-0.09789685,0.02291125,-0.01706173,0.08779500,
 0.11986908,0.00733765,-0.09488001,-0.11601333,-0.00697276,-0.04549812,
 0.12296802,0.00826533,0.05382527,-0.14063886,-0.00946412,-0.07182674,-
 0.11911944,-0.00596987,0.09075341,0.11809436,0.00686578,-0.14631314,0.
 02812142,0.00308680,0.14825641,-0.02343752,-0.00243435\\\@
 The archive entry for this job was punched.

 Writing a WFNX file to "TAHBOV_Complex_0_Ligand_1_NN_Cu_oriented.wfx"


 I (ERNEST RUTHERFORD) CAME INTO THE ROOM, WHICH WAS HALF DARK, AND PRESENTLY
 SPOTTED LORD KELVIN IN THE AUDIENCE AND REALIZED I WAS IN TROUBLE AT
 THE LAST PART OF MY SPEECH DEALING THE AGE OF THE EARTH, WHERE MY VIEWS
 CONFLICTED WITH HIS.  TO MY RELIEF KELVIN FELL FAST ASLEEP, BUT AS I CAME
 TO THE IMPORTANT POINT, I SAW THE OLD BIRD SIT UP AND COCK A BALEFUL GLANCE
 AT ME! THEN A SUDDEN INSPIRATION CAME AND I SAID LORD KELVIN HAD LIMITED
 THE AGE OF THE EARTH PROVIDED NO NEW SOURCE WAS DISCOVERED. THAT
 PROPHETIC UTTERANCE REFERS TO WHAT WE ARE NOW CONSIDERING TONIGHT, RADIUM!
 BEHOLD!  THE OLD BOY BEAMED UPON ME.
 Job cpu time:       0 days  1 hours 15 minutes 32.5 seconds.
 Elapsed time:       0 days  1 hours 15 minutes 49.1 seconds.
 File lengths (MBytes):  RWF=    640 Int=      0 D2E=      0 Chk=     16 Scr=      8
 Normal termination of Gaussian 16 at Mon Mar  6 11:37:26 2023.
