 Entering Gaussian System, Link 0=g16
 Initial command:
 /ssoft/spack/external/gaussian/g16-C.01/avx2/g16/l1.exe "/scratch/lcmd/2387830/Gau-3436046.inp" -scrdir="/scratch/lcmd/2387830/"
 Entering Link 1 = /ssoft/spack/external/gaussian/g16-C.01/avx2/g16/l1.exe PID=   3436055.
  
 Copyright (c) 1988-2019, Gaussian, Inc.  All Rights Reserved.
  
 This is part of the Gaussian(R) 16 program.  It is based on
 the Gaussian(R) 09 system (copyright 2009, Gaussian, Inc.),
 the Gaussian(R) 03 system (copyright 2003, Gaussian, Inc.),
 the Gaussian(R) 98 system (copyright 1998, Gaussian, Inc.),
 the Gaussian(R) 94 system (copyright 1995, Gaussian, Inc.),
 the Gaussian 92(TM) system (copyright 1992, Gaussian, Inc.),
 the Gaussian 90(TM) system (copyright 1990, Gaussian, Inc.),
 the Gaussian 88(TM) system (copyright 1988, Gaussian, Inc.),
 the Gaussian 86(TM) system (copyright 1986, Carnegie Mellon
 University), and the Gaussian 82(TM) system (copyright 1983,
 Carnegie Mellon University). Gaussian is a federally registered
 trademark of Gaussian, Inc.
  
 This software contains proprietary and confidential information,
 including trade secrets, belonging to Gaussian, Inc.
  
 This software is provided under written license and may be
 used, copied, transmitted, or stored only in accord with that
 written license.
  
 The following legend is applicable only to US Government
 contracts under FAR:
  
                    RESTRICTED RIGHTS LEGEND
  
 Use, reproduction and disclosure by the US Government is
 subject to restrictions as set forth in subparagraphs (a)
 and (c) of the Commercial Computer Software - Restricted
 Rights clause in FAR 52.227-19.
  
 Gaussian, Inc.
 340 Quinnipiac St., Bldg. 40, Wallingford CT 06492
  
  
 ---------------------------------------------------------------
 Warning -- This program may not be used in any manner that
 competes with the business of Gaussian, Inc. or will provide
 assistance to any competitor of Gaussian, Inc.  The licensee
 of this program is prohibited from giving any competitor of
 Gaussian, Inc. access to this program.  By using this program,
 the user acknowledges that Gaussian, Inc. is engaged in the
 business of creating and licensing software in the field of
 computational chemistry and represents and warrants to the
 licensee that it is not a competitor of Gaussian, Inc. and that
 it will not use this program in any manner prohibited above.
 ---------------------------------------------------------------
  

 Cite this work as:
 Gaussian 16, Revision C.01,
 M. J. Frisch, G. W. Trucks, H. B. Schlegel, G. E. Scuseria, 
 M. A. Robb, J. R. Cheeseman, G. Scalmani, V. Barone, 
 G. A. Petersson, H. Nakatsuji, X. Li, M. Caricato, A. V. Marenich, 
 J. Bloino, B. G. Janesko, R. Gomperts, B. Mennucci, H. P. Hratchian, 
 J. V. Ortiz, A. F. Izmaylov, J. L. Sonnenberg, D. Williams-Young, 
 F. Ding, F. Lipparini, F. Egidi, J. Goings, B. Peng, A. Petrone, 
 T. Henderson, D. Ranasinghe, V. G. Zakrzewski, J. Gao, N. Rega, 
 G. Zheng, W. Liang, M. Hada, M. Ehara, K. Toyota, R. Fukuda, 
 J. Hasegawa, M. Ishida, T. Nakajima, Y. Honda, O. Kitao, H. Nakai, 
 T. Vreven, K. Throssell, J. A. Montgomery, Jr., J. E. Peralta, 
 F. Ogliaro, M. J. Bearpark, J. J. Heyd, E. N. Brothers, K. N. Kudin, 
 V. N. Staroverov, T. A. Keith, R. Kobayashi, J. Normand, 
 K. Raghavachari, A. P. Rendell, J. C. Burant, S. S. Iyengar, 
 J. Tomasi, M. Cossi, J. M. Millam, M. Klene, C. Adamo, R. Cammi, 
 J. W. Ochterski, R. L. Martin, K. Morokuma, O. Farkas, 
 J. B. Foresman, and D. J. Fox, Gaussian, Inc., Wallingford CT, 2019.
 
 ******************************************
 Gaussian 16:  ES64L-G16RevC.01  3-Jul-2019
                 6-Mar-2023 
 ******************************************
 %nprocshared=1
 Will use up to    1 processors via shared memory.
 %mem=8000MB
 %chk=TAYNIR_Complex_0_Ligand_1_ON_Cu_oriented.chk
 ----------------------------------------------------------------------
 #p pop=(regular,nbo,savenbos) freq=noraman def2svp empiricaldispersion
 =gd3bj output=wfx pbe1pbe
 ----------------------------------------------------------------------
 1/10=4,30=1,38=1/1,3;
 2/12=2,17=6,18=5,40=1/2;
 3/5=43,7=101,11=2,25=1,30=1,71=2,74=-13,124=41,140=1/1,2,3;
 4//1;
 5/5=2,38=5,98=1/2;
 8/6=4,10=90,11=11/1;
 11/6=1,8=1,9=11,15=111,16=1/1,2,10;
 10/6=1/2;
 6/28=1,40=1,73=1/1,7;
 7/8=1,10=1,25=1/1,2,3,16;
 1/10=4,30=1/3;
 99/6=200/99;
 Leave Link    1 at Mon Mar  6 10:21:40 2023, MaxMem=  1048576000 cpu:               0.0 elap:               0.1
 (Enter /ssoft/spack/external/gaussian/g16-C.01/avx2/g16/l101.exe)
 ----------------------------------------
 TAYNIR_Complex_0_Ligand_1_ON_Cu_oriented
 ----------------------------------------
 Symbolic Z-matrix:
 Charge = -1 Multiplicity = 1
 O                    -0.32146   1.86302   0. 
 N                     1.95917   0.233     0. 
 C                     2.77955  -1.00593  -0.19239 
 C                     4.22587  -0.89251   0.23162 
 H                     2.38739  -1.69831   0.3552 
 H                     4.29997  -0.61383   1.14049 
 H                     4.68053  -1.73095   0.13315 
 H                     4.67747  -0.24745  -0.31954 
 Br                    3.41013   6.5394    0.49491 
 C                     0.53399   2.85644   0.14718 
 C                     0.88393   5.22473   0.39536 
 C                     2.25036   5.03633   0.37478 
 C                     2.77435   3.78963   0.29408 
 C                     1.93352   2.66047   0.18108 
 C                     2.55179   1.38194   0.08117 
 H                     3.73002   3.68182   0.31231 
 H                     3.51008   1.36237   0.06604 
 C                     0.04546   4.15682   0.27285 
 H                    -0.90496   4.29513   0.25615 
 C                     2.6711   -1.43817  -1.63883 
 C                     2.563    -2.7794   -1.94922 
 C                     2.55082  -3.20244  -3.24621 
 C                     2.67059  -2.31783  -4.27666 
 C                     2.75231  -0.97533  -3.98925 
 C                     2.74957  -0.55078  -2.68416 
 H                     2.45837  -3.42325  -1.21796 
 H                     2.43934  -4.12514  -3.44603 
 H                     2.67267  -2.62356  -5.18193 
 H                     0.52666   6.10863   0.4626 
 H                     2.76255   0.39686  -2.50033 
 H                     2.85271  -0.32664  -4.70279 
 
 ITRead=  0  0  0  0  0  0  0  0  0  0  0  0  0  0  0  0  0  0  0  0
 ITRead=  0  0  0  0  0  0  0  0  0  0  0
 MicOpt= -1 -1 -1 -1 -1 -1 -1 -1 -1 -1 -1 -1 -1 -1 -1 -1 -1 -1 -1 -1
 MicOpt= -1 -1 -1 -1 -1 -1 -1 -1 -1 -1 -1
 NAtoms=     31 NQM=       31 NQMF=       0 NMMI=      0 NMMIF=      0
                NMic=       0 NMicF=      0.
                    Isotopes and Nuclear Properties:
 (Nuclear quadrupole moments (NQMom) in fm**2, nuclear magnetic moments (NMagM)
  in nuclear magnetons)

  Atom         1           2           3           4           5           6           7           8           9          10
 IAtWgt=          16          14          12          12           1           1           1           1          79          12
 AtmWgt=  15.9949146  14.0030740  12.0000000  12.0000000   1.0078250   1.0078250   1.0078250   1.0078250  78.9183361  12.0000000
 NucSpn=           0           2           0           0           1           1           1           1           3           0
 AtZEff=  -0.0000000  -0.0000000  -0.0000000  -0.0000000  -0.0000000  -0.0000000  -0.0000000  -0.0000000  -0.0000000  -0.0000000
 NQMom=    0.0000000   2.0440000   0.0000000   0.0000000   0.0000000   0.0000000   0.0000000   0.0000000  31.3000000   0.0000000
 NMagM=    0.0000000   0.4037610   0.0000000   0.0000000   2.7928460   2.7928460   2.7928460   2.7928460   2.1063990   0.0000000
 AtZNuc=   8.0000000   7.0000000   6.0000000   6.0000000   1.0000000   1.0000000   1.0000000   1.0000000  35.0000000   6.0000000

  Atom        11          12          13          14          15          16          17          18          19          20
 IAtWgt=          12          12          12          12          12           1           1          12           1          12
 AtmWgt=  12.0000000  12.0000000  12.0000000  12.0000000  12.0000000   1.0078250   1.0078250  12.0000000   1.0078250  12.0000000
 NucSpn=           0           0           0           0           0           1           1           0           1           0
 AtZEff=  -0.0000000  -0.0000000  -0.0000000  -0.0000000  -0.0000000  -0.0000000  -0.0000000  -0.0000000  -0.0000000  -0.0000000
 NQMom=    0.0000000   0.0000000   0.0000000   0.0000000   0.0000000   0.0000000   0.0000000   0.0000000   0.0000000   0.0000000
 NMagM=    0.0000000   0.0000000   0.0000000   0.0000000   0.0000000   2.7928460   2.7928460   0.0000000   2.7928460   0.0000000
 AtZNuc=   6.0000000   6.0000000   6.0000000   6.0000000   6.0000000   1.0000000   1.0000000   6.0000000   1.0000000   6.0000000

  Atom        21          22          23          24          25          26          27          28          29          30
 IAtWgt=          12          12          12          12          12           1           1           1           1           1
 AtmWgt=  12.0000000  12.0000000  12.0000000  12.0000000  12.0000000   1.0078250   1.0078250   1.0078250   1.0078250   1.0078250
 NucSpn=           0           0           0           0           0           1           1           1           1           1
 AtZEff=  -0.0000000  -0.0000000  -0.0000000  -0.0000000  -0.0000000  -0.0000000  -0.0000000  -0.0000000  -0.0000000  -0.0000000
 NQMom=    0.0000000   0.0000000   0.0000000   0.0000000   0.0000000   0.0000000   0.0000000   0.0000000   0.0000000   0.0000000
 NMagM=    0.0000000   0.0000000   0.0000000   0.0000000   0.0000000   2.7928460   2.7928460   2.7928460   2.7928460   2.7928460
 AtZNuc=   6.0000000   6.0000000   6.0000000   6.0000000   6.0000000   1.0000000   1.0000000   1.0000000   1.0000000   1.0000000

  Atom        31
 IAtWgt=           1
 AtmWgt=   1.0078250
 NucSpn=           1
 AtZEff=  -0.0000000
 NQMom=    0.0000000
 NMagM=    2.7928460
 AtZNuc=   1.0000000
 Leave Link  101 at Mon Mar  6 10:21:40 2023, MaxMem=  1048576000 cpu:               0.1 elap:               0.1
 (Enter /ssoft/spack/external/gaussian/g16-C.01/avx2/g16/l103.exe)

 GradGradGradGradGradGradGradGradGradGradGradGradGradGradGradGradGradGrad
 Berny optimization.
 Initialization pass.
 Trust Radius=3.00D-01 FncErr=1.00D-07 GrdErr=1.00D-07 EigMax=2.50D+02 EigMin=1.00D-04
 Number of steps in this run=      2 maximum allowed number of steps=      2.
 GradGradGradGradGradGradGradGradGradGradGradGradGradGradGradGradGradGrad

 Leave Link  103 at Mon Mar  6 10:21:40 2023, MaxMem=  1048576000 cpu:               0.0 elap:               0.1
 (Enter /ssoft/spack/external/gaussian/g16-C.01/avx2/g16/l202.exe)
                          Input orientation:                          
 ---------------------------------------------------------------------
 Center     Atomic      Atomic             Coordinates (Angstroms)
 Number     Number       Type             X           Y           Z
 ---------------------------------------------------------------------
      1          8           0       -0.321455    1.863024    0.000000
      2          7           0        1.959174    0.233001    0.000000
      3          6           0        2.779548   -1.005933   -0.192394
      4          6           0        4.225866   -0.892505    0.231622
      5          1           0        2.387395   -1.698310    0.355203
      6          1           0        4.299971   -0.613827    1.140487
      7          1           0        4.680528   -1.730954    0.133153
      8          1           0        4.677470   -0.247451   -0.319544
      9         35           0        3.410128    6.539401    0.494909
     10          6           0        0.533987    2.856440    0.147178
     11          6           0        0.883932    5.224732    0.395359
     12          6           0        2.250356    5.036329    0.374778
     13          6           0        2.774354    3.789629    0.294084
     14          6           0        1.933519    2.660471    0.181081
     15          6           0        2.551790    1.381943    0.081167
     16          1           0        3.730020    3.681818    0.312310
     17          1           0        3.510085    1.362370    0.066039
     18          6           0        0.045455    4.156817    0.272850
     19          1           0       -0.904959    4.295128    0.256148
     20          6           0        2.671099   -1.438167   -1.638832
     21          6           0        2.562999   -2.779400   -1.949219
     22          6           0        2.550822   -3.202442   -3.246212
     23          6           0        2.670587   -2.317835   -4.276658
     24          6           0        2.752306   -0.975330   -3.989248
     25          6           0        2.749570   -0.550776   -2.684157
     26          1           0        2.458374   -3.423245   -1.217959
     27          1           0        2.439339   -4.125143   -3.446027
     28          1           0        2.672675   -2.623562   -5.181930
     29          1           0        0.526658    6.108634    0.462601
     30          1           0        2.762553    0.396857   -2.500327
     31          1           0        2.852714   -0.326645   -4.702786
 ---------------------------------------------------------------------
                    Distance matrix (angstroms):
                    1          2          3          4          5
     1  O    0.000000
     2  N    2.803256   0.000000
     3  C    4.228966   1.498328   0.000000
     4  C    5.322097   2.541319   1.511453   0.000000
     5  H    4.488557   2.009852   0.965936   2.011111   0.000000
     6  H    5.365919   2.738094   2.059613   0.953514   2.334679
     7  H    6.160701   3.358662   2.060427   0.958859   2.304090
     8  H    5.435574   2.778862   2.047821   0.961159   2.793693
     9  Br   6.003178   6.490060   7.602768   7.481175   8.302131
    10  C    1.319211   2.989189   4.480601   5.262290   4.921803
    11  C    3.593097   5.121506   6.539113   6.972511   7.084527
    12  C    4.101772   4.826717   6.091852   6.250936   6.736061
    13  C    3.658186   3.660684   4.820177   4.902363   5.501904
    14  C    2.398671   2.434349   3.781239   4.228598   4.385806
    15  C    2.914372   1.295318   2.414262   2.828123   3.096786
    16  H    4.451966   3.889444   4.809692   4.601827   5.545292
    17  H    3.864675   1.919677   2.491853   2.371544   3.272890
    18  C    2.338922   4.374140   5.860521   6.555394   6.306662
    19  H    2.514203   4.976921   6.471324   7.296403   6.838911
    20  C    4.747527   2.446510   1.513529   2.492718   2.030847
    21  C    5.802726   3.638491   2.505696   3.328898   2.551460
    22  C    6.666844   4.763424   3.768656   4.498545   3.906316
    23  C    6.687428   5.030176   4.291174   4.977454   4.681681
    24  C    5.780862   4.243021   3.797075   4.471464   4.419289
    25  C    4.739444   2.905810   2.533170   3.286030   3.268901
    26  H    6.095533   3.885970   2.645436   3.410272   2.335653
    27  H    7.440110   5.576655   4.520105   5.212172   4.510163
    28  H    7.479750   5.959986   5.246295   5.891987   5.621149
    29  H    4.354136   6.065408   7.491436   7.921707   8.026348
    30  H    4.232303   2.631331   2.700863   3.356677   3.561533
    31  H    6.081628   4.819524   4.561845   5.153070   5.261296
                    6          7          8          9         10
     6  H    0.000000
     7  H    1.551618   0.000000
     8  H    1.551911   1.551040   0.000000
     9  Br   7.237213   8.375174   6.952039   0.000000
    10  C    5.216518   6.183703   5.198117   4.685862   0.000000
    11  C    6.805388   7.928710   6.696775   2.849549   2.406836
    12  C    6.059001   7.194458   5.855877   1.902296   2.783817
    13  C    4.736489   5.842622   4.505153   2.829449   2.431393
    14  C    4.152298   5.180054   4.029380   4.162326   1.413593
    15  C    2.856815   3.771519   2.708138   5.244740   2.500006
    16  H    4.411722   5.498515   4.090973   2.881224   3.305019
    17  H    2.384054   3.308034   2.025583   5.195726   3.331064
    18  C    6.450794   7.494615   6.419039   4.128806   1.394789
    19  H    7.209105   8.217448   7.220108   4.869675   2.037710
    20  C    3.325263   2.695080   2.680270   8.290995   5.118665
    21  C    4.153681   3.149514   3.679347   9.671165   6.346217
    22  C    5.385497   4.256880   4.671187  10.470811   7.231374
    23  C    5.907961   4.881672   4.896205  10.087883   7.135020
    24  C    5.370302   4.613371   4.207469   8.775624   6.059161
    25  C    4.127423   3.613675   3.065974   7.798295   4.953220
    26  H    4.104459   3.102792   3.977085  10.153525   6.708302
    27  H    6.068559   4.854441   5.460827  11.410781   8.079852
    28  H    6.830819   5.751376   5.771300  10.804176   7.937494
    29  H    7.738793   8.878193   7.631567   2.915648   3.267463
    30  H    4.079297   3.891197   2.972852   6.864520   4.245627
    31  H    6.026680   5.357172   4.748559   8.629561   6.247454
                   11         12         13         14         15
    11  C    0.000000
    12  C    1.379505   0.000000
    13  C    2.375599   1.354749   0.000000
    14  C    2.779025   2.404705   1.412364   0.000000
    15  C    4.200892   3.678533   2.427307   1.423683   0.000000
    16  H    3.238471   2.006990   0.961901   2.070698   2.594433
    17  H    4.682197   3.896179   2.546545   2.045449   0.958614
    18  C    1.363266   2.376029   2.753574   2.410863   3.744113
    19  H    2.020810   3.243372   3.714070   3.276385   4.523978
    20  C    7.192087   6.793433   5.574646   4.544770   3.305397
    21  C    8.507787   8.159921   6.944726   5.875935   4.630266
    22  C    9.330424   9.004398   7.840454   6.819174   5.664630
    23  C    9.050424   8.711840   7.629126   6.722963   5.717789
    24  C    7.820254   7.445584   6.407204   5.592951   4.707996
    25  C    6.805917   6.389212   5.263996   4.380369   3.379576
    26  H    8.936955   8.610718   7.376427   6.264534   4.978583
    27  H   10.227204   9.928083   8.760382   7.710793   6.540776
    28  H    9.792929   9.472554   8.433629   7.565001   6.615049
    29  H    0.955746   2.031917   3.233933   3.734748   5.156381
    30  H    5.934862   5.482086   4.395427   3.605717   2.771088
    31  H    7.790055   7.409856   6.474455   5.798270   5.088815
                   16         17         18         19         20
    16  H    0.000000
    17  H    2.342833   0.000000
    18  C    3.715266   4.455936   0.000000
    19  H    4.675717   5.303755   0.960570   0.000000
    20  C    5.580548   3.384300   6.469341   7.017821   0.000000
    21  C    6.944335   4.702392   7.706278   8.181645   1.380917
    22  C    7.838790   5.720900   8.533425   8.967859   2.389729
    23  C    7.627376   5.753927   8.337293   8.778504   2.780637
    24  C    6.414699   4.741774   7.199407   7.692640   2.396929
    25  C    5.277779   3.435416   6.182035   6.744165   1.373435
    26  H    7.378397   5.065259   8.093332   8.547414   2.040324
    27  H    8.760115   6.602568   9.388908   9.787308   3.246461
    28  H    8.429857   6.643048   9.090129   9.499496   3.736135
    29  H    4.021636   5.620065   2.019196   2.319688   8.122121
    30  H    4.431466   2.842051   5.404668   6.020408   2.029248
    31  H    6.479864   5.101627   7.262168   7.750607   3.264396
                   21         22         23         24         25
    21  C    0.000000
    22  C    1.364296   0.000000
    23  C    2.375203   1.363339   0.000000
    24  C    2.729876   2.356422   1.375354   0.000000
    25  C    2.354083   2.717856   2.380083   1.372413   0.000000
    26  H    0.979910   2.042330   3.259234   3.709276   3.238150
    27  H    2.016619   0.950649   2.002446   3.211598   3.667805
    28  H    3.238323   2.024093   0.955505   2.036050   3.246725
    29  H    9.431899  10.224905   9.902646   8.657657   7.693580
    30  H    3.229883   3.681864   3.245514   2.024818   0.965385
    31  H    3.698929   3.237739   2.044405   0.969542   2.033651
                   26         27         28         29         30
    26  H    0.000000
    27  H    2.336089   0.000000
    28  H    4.049504   2.307065   0.000000
    29  H    9.869779  11.120519  10.616844   0.000000
    30  H    4.041060   4.631123   4.040050   6.811944   0.000000
    31  H    4.678510   4.022302   2.353258   8.573481   2.320002
                   31
    31  H    0.000000
 Stoichiometry    C15H13BrNO(1-)
 Framework group  C1[X(C15H13BrNO)]
 Deg. of freedom    87
 Full point group                 C1      NOp   1
 Largest Abelian subgroup         C1      NOp   1
 Largest concise Abelian subgroup C1      NOp   1
                         Standard orientation:                         
 ---------------------------------------------------------------------
 Center     Atomic      Atomic             Coordinates (Angstroms)
 Number     Number       Type             X           Y           Z
 ---------------------------------------------------------------------
      1          8           0        0.033090    2.816222   -0.014580
      2          7           0       -1.517602    0.745414    1.064934
      3          6           0       -2.754256    0.017163    1.495426
      4          6           0       -2.514716   -1.306713    2.184239
      5          1           0       -3.211176    0.579295    2.134382
      6          1           0       -1.939918   -1.206269    2.938366
      7          1           0       -3.339729   -1.694952    2.480943
      8          1           0       -2.103986   -1.923170    1.571778
      9         35           0        4.557800   -1.122164   -0.247516
     10          6           0        1.008231    1.927738   -0.010952
     11          6           0        3.313108    1.429416   -0.492698
     12          6           0        3.116562    0.113647   -0.127791
     13          6           0        1.913951   -0.301566    0.337685
     14          6           0        0.823101    0.592301    0.413994
     15          6           0       -0.416890    0.084130    0.894680
     16          1           0        1.810238   -1.216863    0.614682
     17          1           0       -0.449348   -0.848870    1.112392
     18          6           0        2.276423    2.313440   -0.444955
     19          1           0        2.409235    3.221232   -0.729508
     20          6           0       -3.658540   -0.152926    0.293714
     21          6           0       -5.023363    0.004834    0.432641
     22          6           0       -5.868285   -0.227190   -0.613100
     23          6           0       -5.395264   -0.646663   -1.820986
     24          6           0       -4.036941   -0.783885   -1.987507
     25          6           0       -3.187664   -0.535742   -0.938378
     26          1           0       -5.373953    0.323039    1.290579
     27          1           0       -6.802134   -0.079603   -0.513719
     28          1           0       -5.994908   -0.817965   -2.544914
     29          1           0        4.169086    1.712139   -0.810217
     30          1           0       -2.235031   -0.593291   -1.083801
     31          1           0       -3.675648   -1.094574   -2.831871
 ---------------------------------------------------------------------
 Rotational constants (GHZ):           0.7157971           0.1202255           0.1156883
 Leave Link  202 at Mon Mar  6 10:21:40 2023, MaxMem=  1048576000 cpu:               0.0 elap:               0.0
 (Enter /ssoft/spack/external/gaussian/g16-C.01/avx2/g16/l301.exe)
 Standard basis: def2SVP (5D, 7F)
 Ernie: Thresh=  0.10000D-02 Tol=  0.10000D-05 Strict=F.
 There are   355 symmetry adapted cartesian basis functions of A   symmetry.
 There are   335 symmetry adapted basis functions of A   symmetry.
   335 basis functions,   596 primitive gaussians,   355 cartesian basis functions
    77 alpha electrons       77 beta electrons
       nuclear repulsion energy      1496.3817357876 Hartrees.
 IExCor= 1009 DFT=T Ex+Corr=PBE1PBE ExCW=0 ScaHFX=  0.250000
 ScaDFX=  0.750000  0.750000  1.000000  1.000000 ScalE2=  1.000000  1.000000
 IRadAn=      5 IRanWt=     -1 IRanGd=            0 ICorTp=0 IEmpDi=141
 NAtoms=   31 NActive=   31 NUniq=   31 SFac= 1.00D+00 NAtFMM=   60 NAOKFM=F Big=F
 Integral buffers will be    131072 words long.
 Raffenetti 2 integral format.
 Two-electron integral symmetry is turned on.
 R6Disp:  Grimme-D3(BJ) Dispersion energy=       -0.0364922815 Hartrees.
 Nuclear repulsion after empirical dispersion term =     1496.3452435061 Hartrees.
 Leave Link  301 at Mon Mar  6 10:21:40 2023, MaxMem=  1048576000 cpu:               0.1 elap:               0.1
 (Enter /ssoft/spack/external/gaussian/g16-C.01/avx2/g16/l302.exe)
 NPDir=0 NMtPBC=     1 NCelOv=     1 NCel=       1 NClECP=     1 NCelD=      1
         NCelK=      1 NCelE2=     1 NClLst=     1 CellRange=     0.0.
 One-electron integrals computed using PRISM.
 One-electron integral symmetry used in STVInt
   1 Symmetry operations used in ECPInt.
 ECPInt:  NShTT=   11781 NPrTT=   45150 LenC2=   10495 LenP2D=   27954.
 LDataN:  DoStor=T MaxTD1= 4 Len=   56
 NBasis=   335 RedAO= T EigKep=  2.28D-04  NBF=   335
 NBsUse=   335 1.00D-06 EigRej= -1.00D+00 NBFU=   335
 Precomputing XC quadrature grid using
 IXCGrd= 4 IRadAn=           5 IRanWt=          -1 IRanGd=           0 AccXCQ= 0.00D+00.
 Generated NRdTot=       0 NPtTot=           0 NUsed=           0 NTot=          32
 NSgBfM=   347   347   347   347   347 MxSgAt=    31 MxSgA2=    31.
 Leave Link  302 at Mon Mar  6 10:21:41 2023, MaxMem=  1048576000 cpu:               0.9 elap:               1.0
 (Enter /ssoft/spack/external/gaussian/g16-C.01/avx2/g16/l303.exe)
 DipDrv:  MaxL=1.
 Leave Link  303 at Mon Mar  6 10:21:41 2023, MaxMem=  1048576000 cpu:               0.1 elap:               0.1
 (Enter /ssoft/spack/external/gaussian/g16-C.01/avx2/g16/l401.exe)
 ExpMin= 1.22D-01 ExpMax= 1.13D+05 ExpMxC= 1.70D+04 IAcc=3 IRadAn=         5 AccDes= 0.00D+00
 Harris functional with IExCor= 1009 and IRadAn=       5 diagonalized for initial guess.
 HarFok:  IExCor= 1009 AccDes= 0.00D+00 IRadAn=         5 IDoV= 1 UseB2=F ITyADJ=14
 ICtDFT=  3500011 ScaDFX=  1.000000  1.000000  1.000000  1.000000
 FoFCou: FMM=F IPFlag=           0 FMFlag=      100000 FMFlg1=           0
         NFxFlg=           0 DoJE=T BraDBF=F KetDBF=T FulRan=T
         wScrn=  0.000000 ICntrl=       500 IOpCl=  0 I1Cent=   200000004 NGrid=           0
         NMat0=    1 NMatS0=      1 NMatT0=    0 NMatD0=    1 NMtDS0=    0 NMtDT0=    0
 Petite list used in FoFCou.
 Harris En= -3281.84660680105    
 JPrj=0 DoOrth=F DoCkMO=F.
 Leave Link  401 at Mon Mar  6 10:21:49 2023, MaxMem=  1048576000 cpu:               8.4 elap:               8.5
 (Enter /ssoft/spack/external/gaussian/g16-C.01/avx2/g16/l502.exe)
 Integral symmetry usage will be decided dynamically.
 Closed shell SCF:
 Using DIIS extrapolation, IDIIS=  1040.
 NGot=  1048576000 LenX=  1048317362 LenY=  1048190896
 Requested convergence on RMS density matrix=1.00D-08 within 128 cycles.
 Requested convergence on MAX density matrix=1.00D-06.
 Requested convergence on             energy=1.00D-06.
 No special actions if energy rises.
 Fock matrices will be formed incrementally for  20 cycles.
 Integral accuracy reduced to 1.0D-05 until final iterations.

 Cycle   1  Pass 0  IDiag  1:
 FoFJK:  IHMeth= 1 ICntrl=       0 DoSepK=F KAlg= 0 I1Cent=           0 FoldK=F
 IRaf= 830000000 NMat=       1 IRICut=       1 DoRegI=T DoRafI=F ISym2E= 0 IDoP0=0 IntGTp=1.
 FoFCou: FMM=F IPFlag=           0 FMFlag=      100000 FMFlg1=           0
         NFxFlg=           0 DoJE=F BraDBF=F KetDBF=F FulRan=T
         wScrn=  0.000000 ICntrl=         0 IOpCl=  0 I1Cent=           0 NGrid=           0
         NMat0=    1 NMatS0=      1 NMatT0=    0 NMatD0=    1 NMtDS0=    0 NMtDT0=    0
 Symmetry not used in FoFCou.
 E= -3280.96134108606    
 DIIS: error= 4.30D-02 at cycle   1 NSaved=   1.
 NSaved= 1 IEnMin= 1 EnMin= -3280.96134108606     IErMin= 1 ErrMin= 4.30D-02
 ErrMax= 4.30D-02  0.00D+00 EMaxC= 1.00D-01 BMatC= 5.34D-01 BMatP= 5.34D-01
 IDIUse=3 WtCom= 5.70D-01 WtEn= 4.30D-01
 Coeff-Com:  0.100D+01
 Coeff-En:   0.100D+01
 Coeff:      0.100D+01
 Gap=     0.146 Goal=   None    Shift=    0.000
 GapD=    0.146 DampG=1.000 DampE=0.500 DampFc=0.5000 IDamp=-1.
 Damping current iteration by 5.00D-01
 RMSDP=1.47D-02 MaxDP=6.17D-01              OVMax= 9.73D-01

 Cycle   2  Pass 0  IDiag  1:
 RMSU=  7.31D-03    CP:  9.72D-01
 E= -3280.57749154621     Delta-E=        0.383849539856 Rises=F Damp=T
 DIIS: error= 4.00D-02 at cycle   2 NSaved=   2.
 NSaved= 2 IEnMin= 1 EnMin= -3280.96134108606     IErMin= 2 ErrMin= 4.00D-02
 ErrMax= 4.00D-02  0.00D+00 EMaxC= 1.00D-01 BMatC= 2.74D-01 BMatP= 5.34D-01
 IDIUse=3 WtCom= 6.00D-01 WtEn= 4.00D-01
 Coeff-Com:  0.360D+00 0.640D+00
 Coeff-En:   0.715D+00 0.285D+00
 Coeff:      0.502D+00 0.498D+00
 Gap=    -0.129 Goal=   None    Shift=    0.000
 RMSDP=7.51D-03 MaxDP=4.09D-01 DE= 3.84D-01 OVMax= 6.92D-01

 Cycle   3  Pass 0  IDiag  1:
 RMSU=  4.32D-03    CP:  9.37D-01  1.67D-01
 E= -3281.03886076081     Delta-E=       -0.461369214601 Rises=F Damp=F
 DIIS: error= 4.70D-02 at cycle   3 NSaved=   3.
 NSaved= 3 IEnMin= 3 EnMin= -3281.03886076081     IErMin= 2 ErrMin= 4.00D-02
 ErrMax= 4.70D-02  0.00D+00 EMaxC= 1.00D-01 BMatC= 3.80D-01 BMatP= 2.74D-01
 IDIUse=2 WtCom= 0.00D+00 WtEn= 1.00D+00
 EnCoef did     2 forward-backward iterations
 Coeff-En:   0.191D+00 0.255D+00 0.554D+00
 Coeff:      0.191D+00 0.255D+00 0.554D+00
 Gap=     0.186 Goal=   None    Shift=    0.000
 RMSDP=4.90D-03 MaxDP=2.22D-01 DE=-4.61D-01 OVMax= 4.88D-01

 Cycle   4  Pass 0  IDiag  1:
 RMSU=  4.35D-03    CP:  9.63D-01  2.07D-01  5.03D-01
 E= -3281.26264271071     Delta-E=       -0.223781949902 Rises=F Damp=F
 DIIS: error= 2.43D-02 at cycle   4 NSaved=   4.
 NSaved= 4 IEnMin= 4 EnMin= -3281.26264271071     IErMin= 4 ErrMin= 2.43D-02
 ErrMax= 2.43D-02  0.00D+00 EMaxC= 1.00D-01 BMatC= 1.97D-01 BMatP= 2.74D-01
 IDIUse=3 WtCom= 7.57D-01 WtEn= 2.43D-01
 Coeff-Com:  0.108D+00 0.122D+00 0.369D+00 0.402D+00
 Coeff-En:   0.000D+00 0.000D+00 0.354D+00 0.646D+00
 Coeff:      0.815D-01 0.921D-01 0.365D+00 0.461D+00
 Gap=     0.151 Goal=   None    Shift=    0.000
 RMSDP=2.70D-03 MaxDP=1.58D-01 DE=-2.24D-01 OVMax= 2.38D-01

 Cycle   5  Pass 0  IDiag  1:
 RMSU=  9.03D-04    CP:  9.52D-01  1.64D-01  6.66D-01  4.45D-01
 E= -3281.44214249788     Delta-E=       -0.179499787173 Rises=F Damp=F
 DIIS: error= 8.04D-03 at cycle   5 NSaved=   5.
 NSaved= 5 IEnMin= 5 EnMin= -3281.44214249788     IErMin= 5 ErrMin= 8.04D-03
 ErrMax= 8.04D-03  0.00D+00 EMaxC= 1.00D-01 BMatC= 1.42D-02 BMatP= 1.97D-01
 IDIUse=3 WtCom= 9.20D-01 WtEn= 8.04D-02
 Coeff-Com:  0.133D-02 0.361D-01 0.701D-01 0.215D+00 0.677D+00
 Coeff-En:   0.000D+00 0.000D+00 0.000D+00 0.737D-01 0.926D+00
 Coeff:      0.122D-02 0.332D-01 0.645D-01 0.204D+00 0.697D+00
 Gap=     0.133 Goal=   None    Shift=    0.000
 RMSDP=6.65D-04 MaxDP=4.27D-02 DE=-1.79D-01 OVMax= 4.69D-02

 Cycle   6  Pass 0  IDiag  1:
 RMSU=  3.99D-04    CP:  9.54D-01  1.72D-01  6.54D-01  5.57D-01  7.95D-01
 E= -3281.45336508601     Delta-E=       -0.011222588129 Rises=F Damp=F
 DIIS: error= 2.13D-03 at cycle   6 NSaved=   6.
 NSaved= 6 IEnMin= 6 EnMin= -3281.45336508601     IErMin= 6 ErrMin= 2.13D-03
 ErrMax= 2.13D-03  0.00D+00 EMaxC= 1.00D-01 BMatC= 2.64D-03 BMatP= 1.42D-02
 IDIUse=3 WtCom= 9.79D-01 WtEn= 2.13D-02
 Coeff-Com: -0.165D-01 0.183D-01-0.206D-01 0.520D-01 0.439D+00 0.528D+00
 Coeff-En:   0.000D+00 0.000D+00 0.000D+00 0.000D+00 0.101D+00 0.899D+00
 Coeff:     -0.161D-01 0.179D-01-0.202D-01 0.509D-01 0.432D+00 0.536D+00
 Gap=     0.129 Goal=   None    Shift=    0.000
 RMSDP=2.54D-04 MaxDP=1.31D-02 DE=-1.12D-02 OVMax= 1.78D-02

 Cycle   7  Pass 0  IDiag  1:
 RMSU=  1.22D-04    CP:  9.53D-01  1.71D-01  6.49D-01  5.44D-01  9.01D-01
                    CP:  5.24D-01
 E= -3281.45562681679     Delta-E=       -0.002261730776 Rises=F Damp=F
 DIIS: error= 1.11D-03 at cycle   7 NSaved=   7.
 NSaved= 7 IEnMin= 7 EnMin= -3281.45562681679     IErMin= 7 ErrMin= 1.11D-03
 ErrMax= 1.11D-03  0.00D+00 EMaxC= 1.00D-01 BMatC= 4.15D-04 BMatP= 2.64D-03
 IDIUse=3 WtCom= 9.89D-01 WtEn= 1.11D-02
 Coeff-Com: -0.123D-01 0.121D-01-0.204D-01 0.180D-01 0.221D+00 0.344D+00
 Coeff-Com:  0.438D+00
 Coeff-En:   0.000D+00 0.000D+00 0.000D+00 0.000D+00 0.000D+00 0.638D-01
 Coeff-En:   0.936D+00
 Coeff:     -0.122D-01 0.120D-01-0.202D-01 0.178D-01 0.218D+00 0.341D+00
 Coeff:      0.443D+00
 Gap=     0.128 Goal=   None    Shift=    0.000
 RMSDP=8.03D-05 MaxDP=4.05D-03 DE=-2.26D-03 OVMax= 4.74D-03

 Cycle   8  Pass 0  IDiag  1:
 RMSU=  3.99D-05    CP:  9.53D-01  1.72D-01  6.50D-01  5.51D-01  8.98D-01
                    CP:  6.01D-01  5.64D-01
 E= -3281.45597230938     Delta-E=       -0.000345492593 Rises=F Damp=F
 DIIS: error= 5.43D-04 at cycle   8 NSaved=   8.
 NSaved= 8 IEnMin= 8 EnMin= -3281.45597230938     IErMin= 8 ErrMin= 5.43D-04
 ErrMax= 5.43D-04  0.00D+00 EMaxC= 1.00D-01 BMatC= 4.97D-05 BMatP= 4.15D-04
 IDIUse=3 WtCom= 9.95D-01 WtEn= 5.43D-03
 Coeff-Com: -0.431D-02 0.635D-02-0.707D-02 0.345D-02 0.267D-01 0.605D-01
 Coeff-Com:  0.144D+00 0.770D+00
 Coeff-En:   0.000D+00 0.000D+00 0.000D+00 0.000D+00 0.000D+00 0.000D+00
 Coeff-En:   0.000D+00 0.100D+01
 Coeff:     -0.429D-02 0.632D-02-0.704D-02 0.343D-02 0.265D-01 0.602D-01
 Coeff:      0.144D+00 0.771D+00
 Gap=     0.128 Goal=   None    Shift=    0.000
 RMSDP=2.36D-05 MaxDP=9.08D-04 DE=-3.45D-04 OVMax= 2.54D-03

 Cycle   9  Pass 0  IDiag  1:
 RMSU=  1.74D-05    CP:  9.53D-01  1.72D-01  6.48D-01  5.54D-01  9.03D-01
                    CP:  6.04D-01  6.00D-01  9.35D-01
 E= -3281.45601543249     Delta-E=       -0.000043123109 Rises=F Damp=F
 DIIS: error= 2.85D-04 at cycle   9 NSaved=   9.
 NSaved= 9 IEnMin= 9 EnMin= -3281.45601543249     IErMin= 9 ErrMin= 2.85D-04
 ErrMax= 2.85D-04  0.00D+00 EMaxC= 1.00D-01 BMatC= 1.26D-05 BMatP= 4.97D-05
 IDIUse=3 WtCom= 9.97D-01 WtEn= 2.85D-03
 Coeff-Com: -0.862D-03 0.235D-02-0.131D-02 0.788D-03-0.215D-01-0.237D-01
 Coeff-Com: -0.569D-02 0.348D+00 0.702D+00
 Coeff-En:   0.000D+00 0.000D+00 0.000D+00 0.000D+00 0.000D+00 0.000D+00
 Coeff-En:   0.000D+00 0.000D+00 0.100D+01
 Coeff:     -0.859D-03 0.235D-02-0.131D-02 0.785D-03-0.215D-01-0.237D-01
 Coeff:     -0.568D-02 0.347D+00 0.703D+00
 Gap=     0.128 Goal=   None    Shift=    0.000
 RMSDP=1.47D-05 MaxDP=7.62D-04 DE=-4.31D-05 OVMax= 2.00D-03

 Cycle  10  Pass 0  IDiag  1:
 RMSU=  6.87D-06    CP:  9.53D-01  1.73D-01  6.47D-01  5.57D-01  9.04D-01
                    CP:  6.07D-01  6.13D-01  1.05D+00  9.45D-01
 E= -3281.45602846593     Delta-E=       -0.000013033440 Rises=F Damp=F
 DIIS: error= 9.89D-05 at cycle  10 NSaved=  10.
 NSaved=10 IEnMin=10 EnMin= -3281.45602846593     IErMin=10 ErrMin= 9.89D-05
 ErrMax= 9.89D-05  0.00D+00 EMaxC= 1.00D-01 BMatC= 1.40D-06 BMatP= 1.26D-05
 IDIUse=1 WtCom= 1.00D+00 WtEn= 0.00D+00
 Coeff-Com:  0.148D-03 0.283D-03 0.271D-03 0.395D-03-0.142D-01-0.208D-01
 Coeff-Com: -0.286D-01 0.668D-02 0.308D+00 0.747D+00
 Coeff:      0.148D-03 0.283D-03 0.271D-03 0.395D-03-0.142D-01-0.208D-01
 Coeff:     -0.286D-01 0.668D-02 0.308D+00 0.747D+00
 Gap=     0.128 Goal=   None    Shift=    0.000
 RMSDP=6.14D-06 MaxDP=3.03D-04 DE=-1.30D-05 OVMax= 8.08D-04

 Initial convergence to 1.0D-05 achieved.  Increase integral accuracy.
 Cycle  11  Pass 1  IDiag  1:
 E= -3281.45600090278     Delta-E=        0.000027563151 Rises=F Damp=F
 DIIS: error= 1.38D-04 at cycle   1 NSaved=   1.
 NSaved= 1 IEnMin= 1 EnMin= -3281.45600090278     IErMin= 1 ErrMin= 1.38D-04
 ErrMax= 1.38D-04  0.00D+00 EMaxC= 1.00D-01 BMatC= 1.49D-06 BMatP= 1.49D-06
 IDIUse=3 WtCom= 9.99D-01 WtEn= 1.38D-03
 Coeff-Com:  0.100D+01
 Coeff-En:   0.100D+01
 Coeff:      0.100D+01
 Gap=     0.128 Goal=   None    Shift=    0.000
 RMSDP=6.14D-06 MaxDP=3.03D-04 DE= 2.76D-05 OVMax= 3.71D-04

 Cycle  12  Pass 1  IDiag  1:
 RMSU=  1.22D-04    CP:  1.00D+00
 E= -3281.45600231444     Delta-E=       -0.000001411658 Rises=F Damp=F
 DIIS: error= 2.38D-05 at cycle   2 NSaved=   2.
 NSaved= 2 IEnMin= 2 EnMin= -3281.45600231444     IErMin= 2 ErrMin= 2.38D-05
 ErrMax= 2.38D-05  0.00D+00 EMaxC= 1.00D-01 BMatC= 2.49D-07 BMatP= 1.49D-06
 IDIUse=1 WtCom= 1.00D+00 WtEn= 0.00D+00
 Coeff-Com:  0.188D+00 0.812D+00
 Coeff:      0.188D+00 0.812D+00
 Gap=     0.128 Goal=   None    Shift=    0.000
 RMSDP=4.63D-06 MaxDP=2.30D-04 DE=-1.41D-06 OVMax= 4.31D-04

 Cycle  13  Pass 1  IDiag  1:
 RMSU=  4.45D-06    CP:  1.00D+00  1.01D+00
 E= -3281.45600214135     Delta-E=        0.000000173088 Rises=F Damp=F
 DIIS: error= 2.88D-05 at cycle   3 NSaved=   3.
 NSaved= 3 IEnMin= 2 EnMin= -3281.45600231444     IErMin= 2 ErrMin= 2.38D-05
 ErrMax= 2.88D-05  0.00D+00 EMaxC= 1.00D-01 BMatC= 3.96D-07 BMatP= 2.49D-07
 IDIUse=1 WtCom= 1.00D+00 WtEn= 0.00D+00
 Coeff-Com: -0.354D-02 0.559D+00 0.444D+00
 Coeff:     -0.354D-02 0.559D+00 0.444D+00
 Gap=     0.128 Goal=   None    Shift=    0.000
 RMSDP=2.61D-06 MaxDP=1.21D-04 DE= 1.73D-07 OVMax= 2.46D-04

 Cycle  14  Pass 1  IDiag  1:
 RMSU=  6.71D-07    CP:  1.00D+00  1.01D+00  4.42D-01
 E= -3281.45600258753     Delta-E=       -0.000000446184 Rises=F Damp=F
 DIIS: error= 3.39D-06 at cycle   4 NSaved=   4.
 NSaved= 4 IEnMin= 4 EnMin= -3281.45600258753     IErMin= 4 ErrMin= 3.39D-06
 ErrMax= 3.39D-06  0.00D+00 EMaxC= 1.00D-01 BMatC= 6.29D-09 BMatP= 2.49D-07
 IDIUse=1 WtCom= 1.00D+00 WtEn= 0.00D+00
 Coeff-Com: -0.469D-02 0.345D+00 0.281D+00 0.378D+00
 Coeff:     -0.469D-02 0.345D+00 0.281D+00 0.378D+00
 Gap=     0.128 Goal=   None    Shift=    0.000
 RMSDP=4.17D-07 MaxDP=2.31D-05 DE=-4.46D-07 OVMax= 3.06D-05

 Cycle  15  Pass 1  IDiag  1:
 RMSU=  2.51D-07    CP:  1.00D+00  1.01D+00  4.52D-01  5.13D-01
 E= -3281.45600259316     Delta-E=       -0.000000005621 Rises=F Damp=F
 DIIS: error= 1.01D-06 at cycle   5 NSaved=   5.
 NSaved= 5 IEnMin= 5 EnMin= -3281.45600259316     IErMin= 5 ErrMin= 1.01D-06
 ErrMax= 1.01D-06  0.00D+00 EMaxC= 1.00D-01 BMatC= 3.48D-10 BMatP= 6.29D-09
 IDIUse=1 WtCom= 1.00D+00 WtEn= 0.00D+00
 Coeff-Com: -0.267D-02 0.177D+00 0.145D+00 0.237D+00 0.444D+00
 Coeff:     -0.267D-02 0.177D+00 0.145D+00 0.237D+00 0.444D+00
 Gap=     0.128 Goal=   None    Shift=    0.000
 RMSDP=9.11D-08 MaxDP=4.79D-06 DE=-5.62D-09 OVMax= 5.99D-06

 Cycle  16  Pass 1  IDiag  1:
 RMSU=  5.31D-08    CP:  1.00D+00  1.01D+00  4.53D-01  5.79D-01  7.79D-01
 E= -3281.45600259345     Delta-E=       -0.000000000295 Rises=F Damp=F
 DIIS: error= 2.09D-07 at cycle   6 NSaved=   6.
 NSaved= 6 IEnMin= 6 EnMin= -3281.45600259345     IErMin= 6 ErrMin= 2.09D-07
 ErrMax= 2.09D-07  0.00D+00 EMaxC= 1.00D-01 BMatC= 1.08D-11 BMatP= 3.48D-10
 IDIUse=1 WtCom= 1.00D+00 WtEn= 0.00D+00
 Coeff-Com: -0.921D-03 0.578D-01 0.476D-01 0.813D-01 0.212D+00 0.603D+00
 Coeff:     -0.921D-03 0.578D-01 0.476D-01 0.813D-01 0.212D+00 0.603D+00
 Gap=     0.128 Goal=   None    Shift=    0.000
 RMSDP=2.30D-08 MaxDP=1.30D-06 DE=-2.95D-10 OVMax= 1.33D-06

 Cycle  17  Pass 1  IDiag  1:
 RMSU=  1.89D-08    CP:  1.00D+00  1.01D+00  4.53D-01  5.77D-01  8.27D-01
                    CP:  9.17D-01
 E= -3281.45600259344     Delta-E=        0.000000000014 Rises=F Damp=F
 DIIS: error= 1.07D-07 at cycle   7 NSaved=   7.
 NSaved= 7 IEnMin= 6 EnMin= -3281.45600259345     IErMin= 7 ErrMin= 1.07D-07
 ErrMax= 1.07D-07  0.00D+00 EMaxC= 1.00D-01 BMatC= 3.10D-12 BMatP= 1.08D-11
 IDIUse=1 WtCom= 1.00D+00 WtEn= 0.00D+00
 Coeff-Com: -0.228D-04 0.108D-03 0.234D-03 0.132D-02 0.471D-01 0.376D+00
 Coeff-Com:  0.576D+00
 Coeff:     -0.228D-04 0.108D-03 0.234D-03 0.132D-02 0.471D-01 0.376D+00
 Coeff:      0.576D+00
 Gap=     0.128 Goal=   None    Shift=    0.000
 RMSDP=9.43D-09 MaxDP=5.03D-07 DE= 1.36D-11 OVMax= 1.39D-06

 SCF Done:  E(RPBE1PBE) =  -3281.45600259     A.U. after   17 cycles
            NFock= 17  Conv=0.94D-08     -V/T= 2.0018
 KE= 3.275533729503D+03 PE=-1.081259615847D+04 EE= 2.759261182864D+03
 Leave Link  502 at Mon Mar  6 10:26:21 2023, MaxMem=  1048576000 cpu:             269.0 elap:             271.7
 (Enter /ssoft/spack/external/gaussian/g16-C.01/avx2/g16/l801.exe)
 DoSCS=F DFT=T ScalE2(SS,OS)=  1.000000  1.000000
 Range of M.O.s used for correlation:     1   335
 NBasis=   335 NAE=    77 NBE=    77 NFC=     0 NFV=     0
 NROrb=    335 NOA=    77 NOB=    77 NVA=   258 NVB=   258

 **** Warning!!: The largest alpha MO coefficient is  0.12317069D+02

 Leave Link  801 at Mon Mar  6 10:26:21 2023, MaxMem=  1048576000 cpu:               0.0 elap:               0.0
 (Enter /ssoft/spack/external/gaussian/g16-C.01/avx2/g16/l1101.exe)
 Using compressed storage, NAtomX=    31.
 Will process     32 centers per pass.
   1 Symmetry operations used in ECPInt.
 ECPInt:  NShTT=   11781 NPrTT=   45150 LenC2=   10495 LenP2D=   27954.
 LDataN:  DoStor=T MaxTD1= 5 Len=  102
 R6Disp: Adding Grimme-D3(BJ) dispersion energy 1st derivatives to the gradient.
 Leave Link 1101 at Mon Mar  6 10:26:22 2023, MaxMem=  1048576000 cpu:               0.5 elap:               0.5
 (Enter /ssoft/spack/external/gaussian/g16-C.01/avx2/g16/l1102.exe)
 Symmetrizing basis deriv contribution to polar:
 IMax=3 JMax=2 DiffMx= 0.00D+00
 Leave Link 1102 at Mon Mar  6 10:26:22 2023, MaxMem=  1048576000 cpu:               0.1 elap:               0.1
 (Enter /ssoft/spack/external/gaussian/g16-C.01/avx2/g16/l1110.exe)
 Forming Gx(P) for the SCF density, NAtomX=    31.
 Integral derivatives from FoFJK, PRISM(SPDF).
 Do as many integral derivatives as possible in FoFJK.
 G2DrvN: MDV=    1048572671.
 G2DrvN: will do    32 centers at a time, making    1 passes.
 Calling FoFCou, ICntrl=  3107 FMM=F I1Cent=   0 AccDes= 0.00D+00.
 FoFJK:  IHMeth= 1 ICntrl=    3107 DoSepK=F KAlg= 0 I1Cent=           0 FoldK=F
 IRaf=         0 NMat=       1 IRICut=       1 DoRegI=T DoRafI=F ISym2E= 0 IDoP0=0 IntGTp=1.
 FoFCou: FMM=F IPFlag=           0 FMFlag=      100000 FMFlg1=           0
         NFxFlg=           0 DoJE=F BraDBF=F KetDBF=F FulRan=T
         wScrn=  0.000000 ICntrl=      3107 IOpCl=  0 I1Cent=           0 NGrid=           0
         NMat0=    1 NMatS0=      1 NMatT0=    0 NMatD0=    1 NMtDS0=    0 NMtDT0=    0
 Symmetry not used in FoFCou.
 End of G2Drv F.D. properties file   721 does not exist.
 End of G2Drv F.D. properties file   722 does not exist.
 End of G2Drv F.D. properties file   788 does not exist.
 Leave Link 1110 at Mon Mar  6 10:36:31 2023, MaxMem=  1048576000 cpu:             606.6 elap:             609.2
 (Enter /ssoft/spack/external/gaussian/g16-C.01/avx2/g16/l1002.exe)
 Minotr:  Closed shell wavefunction.
          IDoAtm=1111111111111111111111111111111
          Direct CPHF calculation.
          Differentiating once with respect to electric field.
                with respect to dipole field.
          Differentiating once with respect to nuclear coordinates.
          Requested convergence is 1.0D-08 RMS, and 1.0D-07 maximum.
          Secondary convergence is 1.0D-12 RMS, and 1.0D-12 maximum.
          NewPWx=T KeepS1=F KeepF1=F KeepIn=T MapXYZ=F SortEE=F KeepMc=T.
         9351 words used for storage of precomputed grid.
 Two-electron integrals replicated using symmetry.
          MDV=    1048576000 using IRadAn=       1.
          Solving linear equations simultaneously, MaxMat=     384.
 FoF2E skips out because all densities are zero.
 CalDSu exits because no D1Ps are significant.
 FoFJK:  IHMeth= 1 ICntrl=       0 DoSepK=F KAlg= 0 I1Cent=           0 FoldK=F
 IRaf= 810000000 NMat=      93 IRICut=     232 DoRegI=T DoRafI=T ISym2E= 2 IDoP0=3 IntGTp=3.
 FoFCou: FMM=F IPFlag=           0 FMFlag=      100000 FMFlg1=           0
         NFxFlg=           0 DoJE=F BraDBF=F KetDBF=F FulRan=T
         wScrn=  0.000000 ICntrl=         0 IOpCl=  0 I1Cent=           0 NGrid=           0
         NMat0=   93 NMatS0=     93 NMatT0=    0 NMatD0=   93 NMtDS0=    0 NMtDT0=    0
 Integrals replicated using symmetry in FoFCou.
 Raff kept on since  77.51% of shell-pairs survive, threshold=   0.20 IRatSp=78.
          There are    96 degrees of freedom in the 1st order CPHF.  IDoFFX=6 NUNeed=     3.
     93 vectors produced by pass  0 Test12= 2.07D-14 1.04D-09 XBig12= 3.33D+02 6.47D+00.
 AX will form    93 AO Fock derivatives at one time.
     93 vectors produced by pass  1 Test12= 2.07D-14 1.04D-09 XBig12= 6.11D+01 1.32D+00.
     93 vectors produced by pass  2 Test12= 2.07D-14 1.04D-09 XBig12= 7.00D-01 1.02D-01.
     93 vectors produced by pass  3 Test12= 2.07D-14 1.04D-09 XBig12= 9.45D-03 1.52D-02.
     93 vectors produced by pass  4 Test12= 2.07D-14 1.04D-09 XBig12= 3.32D-05 4.60D-04.
     90 vectors produced by pass  5 Test12= 2.07D-14 1.04D-09 XBig12= 5.23D-08 2.07D-05.
     30 vectors produced by pass  6 Test12= 2.07D-14 1.04D-09 XBig12= 5.78D-11 9.15D-07.
      3 vectors produced by pass  7 Test12= 2.07D-14 1.04D-09 XBig12= 7.28D-14 3.16D-08.
      1 vectors produced by pass  8 Test12= 2.07D-14 1.04D-09 XBig12= 4.29D-16 1.71D-09.
 InvSVY:  IOpt=1 It=  1 EMax= 7.11D-15
 Solved reduced A of dimension   589 with    96 vectors.
 FullF1:  Do perturbations      1 to       3.
 Isotropic polarizability for W=    0.000000      190.28 Bohr**3.
 End of Minotr F.D. properties file   721 does not exist.
 End of Minotr F.D. properties file   722 does not exist.
 End of Minotr F.D. properties file   788 does not exist.
 Leave Link 1002 at Mon Mar  6 10:54:51 2023, MaxMem=  1048576000 cpu:            1096.0 elap:            1100.1
 (Enter /ssoft/spack/external/gaussian/g16-C.01/avx2/g16/l601.exe)
 Copying SCF densities to generalized density rwf, IOpCl= 0 IROHF=0.

 **********************************************************************

            Population analysis using the SCF Density.

 **********************************************************************

 Orbital symmetries:
       Occupied  (A) (A) (A) (A) (A) (A) (A) (A) (A) (A) (A) (A)
                 (A) (A) (A) (A) (A) (A) (A) (A) (A) (A) (A) (A)
                 (A) (A) (A) (A) (A) (A) (A) (A) (A) (A) (A) (A)
                 (A) (A) (A) (A) (A) (A) (A) (A) (A) (A) (A) (A)
                 (A) (A) (A) (A) (A) (A) (A) (A) (A) (A) (A) (A)
                 (A) (A) (A) (A) (A) (A) (A) (A) (A) (A) (A) (A)
                 (A) (A) (A) (A) (A)
       Virtual   (A) (A) (A) (A) (A) (A) (A) (A) (A) (A) (A) (A)
                 (A) (A) (A) (A) (A) (A) (A) (A) (A) (A) (A) (A)
                 (A) (A) (A) (A) (A) (A) (A) (A) (A) (A) (A) (A)
                 (A) (A) (A) (A) (A) (A) (A) (A) (A) (A) (A) (A)
                 (A) (A) (A) (A) (A) (A) (A) (A) (A) (A) (A) (A)
                 (A) (A) (A) (A) (A) (A) (A) (A) (A) (A) (A) (A)
                 (A) (A) (A) (A) (A) (A) (A) (A) (A) (A) (A) (A)
                 (A) (A) (A) (A) (A) (A) (A) (A) (A) (A) (A) (A)
                 (A) (A) (A) (A) (A) (A) (A) (A) (A) (A) (A) (A)
                 (A) (A) (A) (A) (A) (A) (A) (A) (A) (A) (A) (A)
                 (A) (A) (A) (A) (A) (A) (A) (A) (A) (A) (A) (A)
                 (A) (A) (A) (A) (A) (A) (A) (A) (A) (A) (A) (A)
                 (A) (A) (A) (A) (A) (A) (A) (A) (A) (A) (A) (A)
                 (A) (A) (A) (A) (A) (A) (A) (A) (A) (A) (A) (A)
                 (A) (A) (A) (A) (A) (A) (A) (A) (A) (A) (A) (A)
                 (A) (A) (A) (A) (A) (A) (A) (A) (A) (A) (A) (A)
                 (A) (A) (A) (A) (A) (A) (A) (A) (A) (A) (A) (A)
                 (A) (A) (A) (A) (A) (A) (A) (A) (A) (A) (A) (A)
                 (A) (A) (A) (A) (A) (A) (A) (A) (A) (A) (A) (A)
                 (A) (A) (A) (A) (A) (A) (A) (A) (A) (A) (A) (A)
                 (A) (A) (A) (A) (A) (A) (A) (A) (A) (A) (A) (A)
                 (A) (A) (A) (A) (A) (A)
 The electronic state is 1-A.
 Alpha  occ. eigenvalues -- -483.06342 -62.49707 -56.28673 -56.28366 -56.28358
 Alpha  occ. eigenvalues --  -18.95740 -14.22141 -10.13229 -10.13118 -10.12500
 Alpha  occ. eigenvalues --  -10.12339 -10.12287 -10.12217 -10.12136 -10.11334
 Alpha  occ. eigenvalues --  -10.10929 -10.10633 -10.08836 -10.08435 -10.08102
 Alpha  occ. eigenvalues --  -10.07167 -10.05748  -8.64311  -6.45698  -6.44565
 Alpha  occ. eigenvalues --   -6.44533  -2.54273  -2.53944  -2.53919  -2.53008
 Alpha  occ. eigenvalues --   -2.53008  -0.80535  -0.79331  -0.77670  -0.74239
 Alpha  occ. eigenvalues --   -0.70265  -0.68044  -0.67200  -0.66242  -0.64005
 Alpha  occ. eigenvalues --   -0.58511  -0.56472  -0.54380  -0.52666  -0.50149
 Alpha  occ. eigenvalues --   -0.48498  -0.46020  -0.42047  -0.40426  -0.39911
 Alpha  occ. eigenvalues --   -0.37306  -0.36655  -0.35958  -0.35310  -0.34094
 Alpha  occ. eigenvalues --   -0.33855  -0.32561  -0.31148  -0.30642  -0.28901
 Alpha  occ. eigenvalues --   -0.27917  -0.27048  -0.26158  -0.26000  -0.24665
 Alpha  occ. eigenvalues --   -0.23600  -0.21348  -0.19455  -0.18312  -0.17531
 Alpha  occ. eigenvalues --   -0.17279  -0.16406  -0.14664  -0.11386  -0.10681
 Alpha  occ. eigenvalues --   -0.04164  -0.03430
 Alpha virt. eigenvalues --    0.09382   0.09916   0.11312   0.15409   0.17386
 Alpha virt. eigenvalues --    0.18018   0.19418   0.20116   0.21195   0.22737
 Alpha virt. eigenvalues --    0.23850   0.24905   0.25053   0.25745   0.27079
 Alpha virt. eigenvalues --    0.28187   0.29170   0.29623   0.30016   0.32678
 Alpha virt. eigenvalues --    0.33709   0.34323   0.35273   0.37674   0.39295
 Alpha virt. eigenvalues --    0.40670   0.41100   0.41887   0.42649   0.43772
 Alpha virt. eigenvalues --    0.44023   0.45919   0.46550   0.47058   0.47844
 Alpha virt. eigenvalues --    0.50777   0.51704   0.52390   0.53157   0.53974
 Alpha virt. eigenvalues --    0.55203   0.56742   0.57713   0.58426   0.58996
 Alpha virt. eigenvalues --    0.59971   0.60725   0.61364   0.61996   0.62871
 Alpha virt. eigenvalues --    0.63563   0.63981   0.64492   0.64946   0.65409
 Alpha virt. eigenvalues --    0.65629   0.65723   0.66606   0.68197   0.69426
 Alpha virt. eigenvalues --    0.69935   0.70931   0.71263   0.72137   0.73319
 Alpha virt. eigenvalues --    0.74986   0.76181   0.77300   0.77608   0.78581
 Alpha virt. eigenvalues --    0.79240   0.79391   0.80039   0.81129   0.81443
 Alpha virt. eigenvalues --    0.81902   0.82649   0.83016   0.83944   0.84143
 Alpha virt. eigenvalues --    0.85710   0.86496   0.87521   0.87537   0.88070
 Alpha virt. eigenvalues --    0.88484   0.89070   0.89566   0.89731   0.90399
 Alpha virt. eigenvalues --    0.91587   0.91940   0.92061   0.92674   0.93730
 Alpha virt. eigenvalues --    0.93988   0.95392   0.96332   0.99416   0.99962
 Alpha virt. eigenvalues --    1.00654   1.01629   1.03835   1.04356   1.06914
 Alpha virt. eigenvalues --    1.08988   1.11187   1.12174   1.15265   1.16110
 Alpha virt. eigenvalues --    1.19642   1.22135   1.23243   1.24972   1.27219
 Alpha virt. eigenvalues --    1.27566   1.29434   1.30827   1.32346   1.33015
 Alpha virt. eigenvalues --    1.34820   1.35671   1.37471   1.38346   1.39214
 Alpha virt. eigenvalues --    1.39674   1.41093   1.41713   1.43922   1.44748
 Alpha virt. eigenvalues --    1.45010   1.45786   1.46716   1.48502   1.49897
 Alpha virt. eigenvalues --    1.54834   1.57592   1.58825   1.61850   1.62771
 Alpha virt. eigenvalues --    1.64677   1.67559   1.70759   1.75777   1.76634
 Alpha virt. eigenvalues --    1.78638   1.81918   1.83550   1.85085   1.86517
 Alpha virt. eigenvalues --    1.87122   1.88206   1.89201   1.89625   1.90897
 Alpha virt. eigenvalues --    1.91799   1.92814   1.93503   1.94406   1.95506
 Alpha virt. eigenvalues --    1.96188   1.97695   2.00078   2.00092   2.02249
 Alpha virt. eigenvalues --    2.03358   2.03455   2.04120   2.05424   2.05990
 Alpha virt. eigenvalues --    2.07123   2.08763   2.11897   2.12538   2.15281
 Alpha virt. eigenvalues --    2.17693   2.19000   2.19440   2.19545   2.21796
 Alpha virt. eigenvalues --    2.24165   2.24488   2.25468   2.26535   2.28739
 Alpha virt. eigenvalues --    2.30113   2.31063   2.32378   2.32879   2.33687
 Alpha virt. eigenvalues --    2.35036   2.36458   2.37878   2.40267   2.41902
 Alpha virt. eigenvalues --    2.43570   2.44877   2.45742   2.47160   2.47870
 Alpha virt. eigenvalues --    2.50011   2.51162   2.52970   2.53963   2.57108
 Alpha virt. eigenvalues --    2.57291   2.59619   2.62610   2.64509   2.66003
 Alpha virt. eigenvalues --    2.69477   2.69806   2.73854   2.76731   2.78500
 Alpha virt. eigenvalues --    2.80344   2.81608   2.82459   2.83472   2.86178
 Alpha virt. eigenvalues --    2.88300   2.90284   2.92197   2.95470   2.95620
 Alpha virt. eigenvalues --    2.98486   2.99521   3.07483   3.13542   3.14084
 Alpha virt. eigenvalues --    3.16036   3.17939   3.21272   3.22698   3.23445
 Alpha virt. eigenvalues --    3.24327   3.25680   3.27930   3.28227   3.34621
 Alpha virt. eigenvalues --    3.36346   3.38310   3.45247   3.45833   3.48055
 Alpha virt. eigenvalues --    3.53859   3.55907   3.58233   3.59033   3.60658
 Alpha virt. eigenvalues --    3.62076   3.66672   3.68766   3.74047   3.80399
 Alpha virt. eigenvalues --    3.95309   4.00115   4.02147
     Molecular Orbital Coefficients:
                          73        74        75        76        77
                           O         O         O         O         O
     Eigenvalues --    -0.14664  -0.11386  -0.10681  -0.04164  -0.03430
   1 1   O  1S         -0.00018  -0.00077   0.01232  -0.00794   0.00119
   2        2S         -0.00048  -0.00132   0.02573  -0.01464   0.00216
   3        3S          0.00107  -0.00578   0.03791  -0.05110   0.00727
   4        4PX         0.06803  -0.03264   0.09832   0.38958   0.05115
   5        4PY         0.07357  -0.03636   0.14877   0.38809   0.06761
   6        4PZ         0.26599  -0.08106  -0.07966  -0.16361   0.39103
   7        5PX         0.04701  -0.02395   0.07826   0.27540   0.04531
   8        5PY         0.05023  -0.02457   0.10417   0.29886   0.05443
   9        5PZ         0.18238  -0.05546  -0.05834  -0.11833   0.31001
  10        6D 0       -0.00030  -0.00008   0.00064  -0.00055  -0.00006
  11        6D+1        0.00981  -0.00284  -0.00106  -0.00371   0.00810
  12        6D-1       -0.00839   0.00266   0.00209   0.00207  -0.00686
  13        6D+2        0.00484  -0.00204   0.00453   0.01401   0.00234
  14        6D-2        0.00062  -0.00010   0.00007   0.00248   0.00024
  15 2   N  1S          0.00062   0.01038  -0.08797   0.04109  -0.00433
  16        2S          0.00167   0.02117  -0.17847   0.08918  -0.00748
  17        3S         -0.00391   0.03180  -0.27050   0.16290  -0.03899
  18        4PX        -0.00216  -0.06542  -0.02957   0.00698  -0.04814
  19        4PY        -0.00495  -0.10051   0.45359  -0.18391  -0.00871
  20        4PZ        -0.00295  -0.23039  -0.12647   0.02375  -0.17644
  21        5PX         0.00541   0.04185   0.06117  -0.02470   0.05023
  22        5PY         0.00753   0.07263  -0.31749   0.09538   0.02541
  23        5PZ         0.00866   0.17216   0.07780   0.00530   0.15224
  24        6D 0       -0.00007   0.00267  -0.01092   0.00491   0.00149
  25        6D+1        0.00003   0.00680  -0.00222   0.00196   0.00039
  26        6D-1        0.00040  -0.01087  -0.00715   0.00393  -0.00613
  27        6D+2       -0.00009   0.00518  -0.01075   0.00589   0.00017
  28        6D-2        0.00010  -0.00168  -0.00196  -0.00297  -0.00127
  29 3   C  1S          0.00026   0.00461  -0.03371   0.01768  -0.00099
  30        2S         -0.00198  -0.00151   0.07307  -0.04252   0.00371
  31        3S          0.02111  -0.11394   0.23786  -0.13343   0.01084
  32        4PX        -0.00114  -0.02135   0.10237  -0.05510   0.00191
  33        4PY        -0.00300  -0.03596   0.13760  -0.04857  -0.00216
  34        4PZ        -0.00049  -0.04319  -0.04735   0.01624  -0.02242
  35        5PX        -0.00163   0.01922   0.07920  -0.06514   0.04271
  36        5PY        -0.00494   0.01511  -0.01090   0.02984  -0.00162
  37        5PZ        -0.01185   0.05231  -0.02820   0.00821   0.02220
  38        6D 0        0.00001  -0.00352  -0.00126  -0.00014  -0.00317
  39        6D+1        0.00043   0.01240  -0.00404   0.00270   0.00847
  40        6D-1       -0.00037   0.00132   0.00937  -0.00314   0.00328
  41        6D+2       -0.00003  -0.00026   0.01971  -0.00818   0.00293
  42        6D-2        0.00007   0.00449  -0.00420   0.00284   0.00332
  43 4   C  1S         -0.00057  -0.00020   0.02374  -0.00801   0.00388
  44        2S          0.00171   0.00003  -0.05297   0.01708  -0.00725
  45        3S         -0.00279   0.02318  -0.20318   0.10421  -0.04387
  46        4PX        -0.00024  -0.01046   0.00770  -0.00531  -0.00130
  47        4PY         0.00245   0.00211  -0.13730   0.04671  -0.01866
  48        4PZ        -0.00053  -0.00517   0.05327  -0.01715   0.00660
  49        5PX        -0.00231  -0.00011   0.03467  -0.01625  -0.00167
  50        5PY         0.00134  -0.00500  -0.11679   0.06090  -0.03072
  51        5PZ         0.00566  -0.03795   0.06749  -0.03665  -0.00095
  52        6D 0       -0.00003   0.00091  -0.00133   0.00052   0.00042
  53        6D+1        0.00004   0.00158  -0.00414   0.00187   0.00082
  54        6D-1       -0.00005  -0.00161   0.00039   0.00007  -0.00073
  55        6D+2        0.00003   0.00171  -0.00052   0.00081   0.00081
  56        6D-2        0.00004   0.00097   0.00530  -0.00220   0.00130
  57 5   H  1S         -0.00209  -0.06481   0.06716  -0.02926  -0.02784
  58        2S          0.00114  -0.04802   0.00973  -0.01387  -0.02406
  59        3PX         0.00015  -0.00138   0.00097  -0.00027  -0.00002
  60        3PY        -0.00013   0.00149   0.00305  -0.00160   0.00112
  61        3PZ         0.00005  -0.00141  -0.00283   0.00106  -0.00154
  62 6   H  1S          0.00045  -0.00092  -0.00766   0.00464   0.00221
  63        2S         -0.00393   0.03345  -0.00236   0.01081   0.02101
  64        3PX         0.00017   0.00045  -0.00056   0.00030   0.00051
  65        3PY         0.00014   0.00103  -0.00291   0.00092   0.00044
  66        3PZ        -0.00008   0.00042   0.00092  -0.00044   0.00036
  67 7   H  1S         -0.00066   0.00812   0.05193  -0.01762   0.00841
  68        2S         -0.00251   0.00410   0.07945  -0.03549   0.00791
  69        3PX        -0.00007  -0.00002   0.00221  -0.00086   0.00020
  70        3PY        -0.00001   0.00042  -0.00520   0.00193  -0.00068
  71        3PZ        -0.00013   0.00043   0.00088  -0.00025   0.00026
  72 8   H  1S         -0.00025  -0.01191   0.01740  -0.00546  -0.00392
  73        2S          0.00402  -0.04413   0.03540  -0.00479  -0.01278
  74        3PX         0.00004  -0.00041  -0.00305   0.00149  -0.00046
  75        3PY         0.00010  -0.00041  -0.00368   0.00154  -0.00073
  76        3PZ         0.00001   0.00068   0.00235  -0.00063   0.00067
  77 9   Br 1S          0.00003   0.00002   0.00018  -0.00015  -0.00006
  78        2S         -0.00009  -0.00006  -0.00047   0.00041   0.00015
  79        3S          0.00049   0.00028   0.00250  -0.00212  -0.00082
  80        4S         -0.00126  -0.00028  -0.00556   0.00404   0.00122
  81        5S          0.00181   0.00003   0.00182  -0.00320   0.00395
  82        6PX         0.01990   0.00103   0.00420  -0.00041  -0.00713
  83        6PY         0.01581   0.00049   0.00109   0.00194  -0.00541
  84        6PZ         0.06704   0.00287  -0.00003  -0.00341  -0.02277
  85        7PX        -0.06131  -0.00317  -0.01298   0.00127   0.02203
  86        7PY        -0.04870  -0.00153  -0.00336  -0.00599   0.01671
  87        7PZ        -0.20657  -0.00884   0.00011   0.01055   0.07034
  88        8PX         0.09238   0.00472   0.02016  -0.00181  -0.03361
  89        8PY         0.07325   0.00238   0.00487   0.00929  -0.02543
  90        8PZ         0.31096   0.01330  -0.00030  -0.01611  -0.10706
  91        9PX         0.11195   0.00615   0.02283  -0.00152  -0.05089
  92        9PY         0.09056   0.00304   0.00684   0.01006  -0.03555
  93        9PZ         0.38080   0.01796   0.00073  -0.02301  -0.15705
  94       10D 0        0.00085   0.00121   0.00024  -0.00041  -0.00171
  95       10D+1       -0.00503  -0.00149  -0.00015   0.00120   0.01028
  96       10D-1        0.00434  -0.00063   0.00003  -0.00108  -0.00905
  97       10D+2       -0.00249  -0.00024  -0.00066   0.00021   0.00524
  98       10D-2       -0.00007  -0.00064  -0.00013  -0.00023  -0.00011
  99       11D 0        0.00008   0.00029   0.00007  -0.00002  -0.00004
 100       11D+1       -0.00011  -0.00022   0.00001   0.00002   0.00026
 101       11D-1        0.00003  -0.00031  -0.00006   0.00004  -0.00017
 102       11D+2       -0.00005   0.00001  -0.00010   0.00009   0.00009
 103       11D-2        0.00002  -0.00017   0.00004  -0.00009   0.00009
 104       12D 0       -0.00166  -0.00364  -0.00056   0.00089   0.00352
 105       12D+1        0.00810   0.00379   0.00029  -0.00242  -0.02194
 106       12D-1       -0.00664   0.00268   0.00019   0.00193   0.01904
 107       12D+2        0.00394   0.00041   0.00153  -0.00106  -0.01095
 108       12D-2        0.00007   0.00200   0.00045   0.00078  -0.00040
 109 10  C  1S          0.00005  -0.00128   0.01034  -0.00187  -0.00011
 110        2S         -0.00046   0.00303  -0.02166   0.00504   0.00075
 111        3S          0.00984   0.00474  -0.13775  -0.16867   0.01600
 112        4PX         0.05150  -0.01621  -0.00361  -0.06434  -0.00479
 113        4PY         0.05931  -0.02059  -0.00663  -0.06127  -0.00890
 114        4PZ         0.20681  -0.06129  -0.00145   0.02859  -0.05418
 115        5PX         0.04398  -0.02206   0.05785   0.03085   0.01296
 116        5PY         0.04055  -0.01475   0.08174   0.20692  -0.00619
 117        5PZ         0.15824  -0.04344  -0.04384  -0.05878   0.05925
 118        6D 0       -0.00116  -0.00795   0.00001  -0.00018  -0.00026
 119        6D+1       -0.00971   0.00966   0.00474   0.00961  -0.02551
 120        6D-1        0.01074   0.00522  -0.00292  -0.00718   0.02316
 121        6D+2       -0.00542   0.00223  -0.01239  -0.04134  -0.00811
 122        6D-2        0.00000   0.00492   0.00115  -0.00740   0.00034
 123 11  C  1S          0.00010  -0.00102  -0.00727  -0.01514   0.00127
 124        2S          0.00000   0.00300   0.01644   0.03639  -0.00307
 125        3S          0.00273  -0.01774   0.05037   0.11863  -0.02441
 126        4PX        -0.03919   0.07366  -0.01513  -0.05238   0.00627
 127        4PY        -0.03508   0.05975   0.01176   0.02369   0.00029
 128        4PZ        -0.13799   0.26080   0.03226   0.00811   0.00647
 129        5PX        -0.02552   0.06547  -0.00961  -0.04436   0.00486
 130        5PY        -0.02350   0.04809   0.01233   0.05571  -0.00455
 131        5PZ        -0.09086   0.20182   0.02434  -0.00510  -0.01545
 132        6D 0       -0.00395  -0.00016  -0.00010   0.00039   0.00428
 133        6D+1        0.00100  -0.00612  -0.00003   0.00279   0.00678
 134        6D-1        0.00722   0.00638   0.00087  -0.00290  -0.01609
 135        6D+2       -0.00140  -0.00339  -0.00195  -0.00524   0.00660
 136        6D-2        0.00263   0.00009  -0.00067  -0.00178  -0.00315
 137 12  C  1S         -0.00101  -0.00029  -0.00228   0.00161   0.00167
 138        2S          0.00245   0.00069   0.00542  -0.00074  -0.00573
 139        3S         -0.00173   0.01928  -0.04366   0.04642   0.01055
 140        4PX        -0.05618  -0.00418  -0.00358   0.01967   0.07329
 141        4PY        -0.04412  -0.00252  -0.00001   0.02307   0.05790
 142        4PZ        -0.19199  -0.01893  -0.00800   0.02102   0.25431
 143        5PX        -0.03662  -0.00940   0.01256   0.00623   0.06020
 144        5PY        -0.02752   0.00189  -0.00405   0.01320   0.06445
 145        5PZ        -0.12164  -0.01475  -0.01017   0.02582   0.23770
 146        6D 0       -0.00317  -0.01188  -0.00100   0.00012   0.00126
 147        6D+1        0.01137   0.00989   0.00169   0.00039  -0.00130
 148        6D-1       -0.00821   0.01204   0.00069  -0.00022  -0.00066
 149        6D+2        0.00523   0.00006  -0.00157  -0.00165  -0.00004
 150        6D-2        0.00110   0.00708   0.00198  -0.00133  -0.00071
 151 13  C  1S         -0.00047   0.00083   0.00407   0.01344  -0.00157
 152        2S          0.00107  -0.00278  -0.00590  -0.03142   0.00344
 153        3S          0.00167  -0.02050   0.04061  -0.12045  -0.00686
 154        4PX        -0.05853  -0.07659   0.00986   0.02355   0.01187
 155        4PY        -0.05056  -0.06841  -0.04602  -0.03139   0.01618
 156        4PZ        -0.19190  -0.25553  -0.02871   0.01061   0.04680
 157        5PX        -0.03718  -0.06126   0.02634  -0.00112   0.00787
 158        5PY        -0.03351  -0.06213  -0.00309  -0.05568   0.00338
 159        5PZ        -0.12854  -0.19387  -0.03560   0.01911   0.02399
 160        6D 0        0.00493   0.00009   0.00010  -0.00132  -0.00778
 161        6D+1       -0.00528   0.00461   0.00010   0.00352   0.01721
 162        6D-1       -0.00322  -0.00497  -0.00037  -0.00206  -0.00431
 163        6D+2       -0.00099   0.00244   0.00058  -0.00492   0.00722
 164        6D-2       -0.00259   0.00003  -0.00050   0.00009   0.00366
 165 14  C  1S          0.00074   0.00459  -0.04085  -0.02918   0.00227
 166        2S         -0.00159  -0.01131   0.09713   0.07384  -0.00558
 167        3S         -0.00648  -0.02119   0.35479   0.25648  -0.01000
 168        4PX        -0.00370  -0.04945  -0.09664   0.02069  -0.07110
 169        4PY        -0.00550  -0.05383   0.01333   0.14037  -0.08026
 170        4PZ        -0.01948  -0.20291   0.00220  -0.07338  -0.22993
 171        5PX        -0.00903  -0.01582  -0.15951   0.13644  -0.08142
 172        5PY        -0.01222  -0.04247   0.06127   0.22866  -0.09749
 173        5PZ        -0.02504  -0.14855   0.01270  -0.12859  -0.23463
 174        6D 0       -0.00281   0.00365   0.00148   0.00126   0.00022
 175        6D+1       -0.00592  -0.01033  -0.00202   0.00121   0.00024
 176        6D-1        0.01129   0.00456   0.00200  -0.00090  -0.00061
 177        6D+2       -0.00491  -0.00511   0.00319  -0.00337   0.00079
 178        6D-2        0.00142  -0.00134  -0.00017   0.00253  -0.00047
 179 15  C  1S          0.00078   0.00346  -0.03033   0.01079  -0.00137
 180        2S         -0.00190  -0.00953   0.08434  -0.02080   0.00384
 181        3S         -0.00473   0.01919  -0.12247   0.04841  -0.00447
 182        4PX        -0.00458   0.04386  -0.05605   0.00222  -0.01118
 183        4PY        -0.00454   0.01201   0.14303  -0.04475  -0.00362
 184        4PZ        -0.01170   0.12471   0.00240  -0.00406  -0.03900
 185        5PX        -0.00279   0.03507  -0.07434   0.07944  -0.01387
 186        5PY         0.00123   0.03401  -0.09127  -0.00839   0.00282
 187        5PZ        -0.00281   0.09285   0.05831  -0.02907   0.00529
 188        6D 0       -0.00007   0.00829   0.00374   0.00083   0.00835
 189        6D+1       -0.00113  -0.01826  -0.01230   0.00263  -0.01743
 190        6D-1        0.00128   0.00510   0.00391  -0.00152   0.00342
 191        6D+2       -0.00088  -0.00919   0.02678  -0.01246  -0.00297
 192        6D-2       -0.00011  -0.00511   0.01325  -0.00258  -0.00338
 193 16  H  1S          0.00054  -0.00034   0.02063   0.03210  -0.00480
 194        2S          0.00103  -0.00056   0.00461   0.04147  -0.00899
 195        3PX        -0.00205  -0.00306   0.00100   0.00049   0.00077
 196        3PY        -0.00186  -0.00267   0.00010  -0.00044   0.00079
 197        3PZ        -0.00673  -0.00984  -0.00179   0.00040   0.00219
 198 17  H  1S          0.00183   0.01502  -0.16205   0.06555  -0.01156
 199        2S          0.00456   0.02100  -0.20598   0.07923  -0.01426
 200        3PX        -0.00027   0.00199  -0.00192  -0.00101  -0.00035
 201        3PY        -0.00027   0.00088   0.00176  -0.00102  -0.00030
 202        3PZ        -0.00117   0.00377   0.00068  -0.00015  -0.00300
 203 18  C  1S          0.00016  -0.00106   0.00893   0.04506  -0.00546
 204        2S         -0.00010   0.00279  -0.02571  -0.11086   0.01447
 205        3S         -0.00642   0.02242  -0.07892  -0.30407   0.03267
 206        4PX         0.00766   0.05358   0.04120   0.13952  -0.06980
 207        4PY         0.00674   0.06137  -0.00029   0.00622  -0.05851
 208        4PZ         0.02661   0.21711   0.01918  -0.06568  -0.19934
 209        5PX         0.00386   0.04240   0.01231   0.03870  -0.05748
 210        5PY         0.00580   0.03549  -0.00700  -0.00739  -0.05556
 211        5PZ         0.00918   0.15098   0.02068  -0.03429  -0.20040
 212        6D 0        0.00363  -0.00213  -0.00082  -0.00225  -0.00199
 213        6D+1       -0.01043   0.01069   0.00105  -0.00006   0.00089
 214        6D-1        0.00373  -0.00700  -0.00058  -0.00042   0.00333
 215        6D+2       -0.00366   0.00423   0.00088  -0.00104  -0.00057
 216        6D-2       -0.00233   0.00135  -0.00133  -0.00214   0.00151
 217 19  H  1S         -0.00101   0.00328  -0.00937  -0.00127  -0.00035
 218        2S         -0.00117  -0.00041   0.03361   0.13213  -0.01515
 219        3PX         0.00043   0.00212   0.00007   0.00061  -0.00205
 220        3PY         0.00045   0.00242   0.00055   0.00099  -0.00208
 221        3PZ         0.00170   0.00844   0.00095  -0.00146  -0.00714
 222 20  C  1S         -0.00048  -0.01923  -0.00378  -0.00045  -0.01391
 223        2S          0.00091   0.04652   0.02205  -0.00472   0.03665
 224        3S          0.00245   0.13777  -0.10416   0.06595   0.09468
 225        4PX         0.00180   0.05498   0.00407   0.00283   0.03288
 226        4PY         0.00588   0.04167  -0.00133  -0.00433   0.00945
 227        4PZ        -0.00014   0.04320   0.00578   0.00436   0.02934
 228        5PX        -0.00660   0.07972  -0.03709   0.02286   0.01724
 229        5PY         0.00155   0.02892  -0.00504  -0.01180   0.00156
 230        5PZ        -0.01543   0.08237  -0.00869  -0.01305   0.04458
 231        6D 0        0.00027   0.00252  -0.00232   0.00185   0.00161
 232        6D+1       -0.00011   0.00186   0.00035  -0.00036   0.00077
 233        6D-1       -0.00024  -0.00250   0.00488  -0.00203  -0.00060
 234        6D+2       -0.00007  -0.00032   0.00190  -0.00133  -0.00063
 235        6D-2       -0.00013  -0.00258   0.00198  -0.00075  -0.00199
 236 21  C  1S          0.00015   0.00484  -0.00166   0.00182   0.00299
 237        2S         -0.00056  -0.00932   0.00187  -0.00390  -0.00705
 238        3S         -0.00697   0.00189  -0.02782   0.01041  -0.03315
 239        4PX        -0.00050  -0.02161   0.00483  -0.00606  -0.01273
 240        4PY         0.00241   0.03165  -0.02991   0.00880   0.01820
 241        4PZ        -0.00076  -0.01051   0.00566  -0.00152  -0.00385
 242        5PX        -0.00052  -0.01378   0.03488  -0.01242  -0.01464
 243        5PY         0.00334   0.02655  -0.01500   0.00569   0.02577
 244        5PZ         0.00558  -0.02057   0.02810  -0.00616   0.00375
 245        6D 0       -0.00009  -0.00044  -0.00059   0.00011  -0.00045
 246        6D+1        0.00005   0.00182   0.00017   0.00051   0.00133
 247        6D-1        0.00006  -0.00020   0.00059  -0.00032  -0.00016
 248        6D+2        0.00008   0.00070  -0.00012   0.00023   0.00040
 249        6D-2        0.00037   0.00259   0.00038  -0.00030   0.00092
 250 22  C  1S         -0.00010  -0.00384   0.00008  -0.00064  -0.00224
 251        2S          0.00047   0.00832  -0.00030   0.00196   0.00496
 252        3S          0.00928  -0.00659   0.04830  -0.00699   0.02374
 253        4PX        -0.00014   0.01016  -0.00233   0.00233   0.00488
 254        4PY        -0.00395  -0.01552  -0.00774   0.00374  -0.00620
 255        4PZ         0.00156   0.01578   0.00267   0.00023   0.00750
 256        5PX         0.00225   0.00053   0.01111  -0.00201   0.00883
 257        5PY        -0.00282  -0.01141  -0.00493   0.00357  -0.00590
 258        5PZ         0.00133   0.01284   0.02364  -0.00856   0.00980
 259        6D 0       -0.00013  -0.00036   0.00096  -0.00017   0.00001
 260        6D+1        0.00001  -0.00024   0.00014  -0.00017  -0.00022
 261        6D-1        0.00026   0.00253  -0.00190   0.00067   0.00140
 262        6D+2       -0.00010  -0.00163   0.00090  -0.00050  -0.00092
 263        6D-2        0.00001   0.00053  -0.00055   0.00014   0.00037
 264 23  C  1S         -0.00004  -0.00267   0.00003  -0.00022  -0.00151
 265        2S          0.00030   0.00558   0.00115   0.00029   0.00371
 266        3S         -0.00784   0.03433   0.00079  -0.01511   0.00641
 267        4PX        -0.00045   0.00098   0.00457  -0.00157   0.00012
 268        4PY        -0.00528  -0.03845   0.02583  -0.00859  -0.01557
 269        4PZ         0.00170   0.01322  -0.00965   0.00365   0.00635
 270        5PX        -0.00291   0.00717  -0.00257  -0.00470  -0.00112
 271        5PY        -0.00525  -0.03168   0.02008  -0.00980  -0.01844
 272        5PZ        -0.00155   0.01570  -0.01335   0.00038   0.00202
 273        6D 0        0.00008   0.00049   0.00017  -0.00002   0.00023
 274        6D+1       -0.00002   0.00004  -0.00042   0.00010  -0.00019
 275        6D-1       -0.00013  -0.00047  -0.00044   0.00017  -0.00028
 276        6D+2        0.00003   0.00002   0.00028  -0.00020   0.00001
 277        6D-2        0.00008   0.00044   0.00070  -0.00010   0.00064
 278 24  C  1S         -0.00011  -0.00030  -0.00008   0.00015  -0.00040
 279        2S         -0.00002  -0.00065   0.00028  -0.00133  -0.00013
 280        3S          0.01318  -0.05129   0.01558   0.02263  -0.01029
 281        4PX         0.00032   0.00050  -0.00085   0.00063   0.00167
 282        4PY         0.00026   0.00053   0.01902  -0.00282   0.00976
 283        4PZ         0.00029   0.00500  -0.00590   0.00068  -0.00107
 284        5PX        -0.00070   0.00309   0.00899  -0.00645   0.00251
 285        5PY         0.00305  -0.00149   0.02380   0.00027   0.01445
 286        5PZ         0.00589  -0.01442  -0.00013   0.01430  -0.00372
 287        6D 0       -0.00005  -0.00180  -0.00018   0.00011  -0.00082
 288        6D+1       -0.00007  -0.00029   0.00048  -0.00006  -0.00017
 289        6D-1        0.00020   0.00057  -0.00051   0.00039   0.00025
 290        6D+2        0.00003   0.00067   0.00024   0.00001   0.00035
 291        6D-2        0.00037   0.00267  -0.00151   0.00069   0.00118
 292 25  C  1S          0.00001  -0.00323  -0.00203   0.00014  -0.00182
 293        2S          0.00075   0.01033   0.00983  -0.00214   0.00945
 294        3S         -0.01921   0.01894   0.01239  -0.04243  -0.01303
 295        4PX         0.00013   0.01964   0.00746  -0.00223   0.00732
 296        4PY         0.00545   0.03235  -0.01599   0.00883   0.01264
 297        4PZ        -0.00188  -0.01834   0.00374  -0.00150  -0.00499
 298        5PX         0.00945  -0.02973   0.00651   0.02056  -0.01031
 299        5PY         0.00075   0.01769  -0.02712   0.00897   0.00092
 300        5PZ        -0.00338  -0.04191   0.02271  -0.01507  -0.01999
 301        6D 0       -0.00010   0.00114   0.00115  -0.00039   0.00150
 302        6D+1        0.00011   0.00095   0.00047  -0.00034   0.00056
 303        6D-1        0.00009   0.00101  -0.00087  -0.00020  -0.00046
 304        6D+2       -0.00018  -0.00158   0.00070  -0.00040  -0.00091
 305        6D-2       -0.00010  -0.00102  -0.00063   0.00013  -0.00085
 306 26  H  1S         -0.00040  -0.00529  -0.00454   0.00047  -0.00349
 307        2S         -0.00278  -0.00944   0.00476  -0.00497  -0.01391
 308        3PX        -0.00002  -0.00071  -0.00064   0.00017  -0.00050
 309        3PY         0.00009   0.00103  -0.00126   0.00038   0.00058
 310        3PZ        -0.00011  -0.00051  -0.00025   0.00006  -0.00054
 311 27  H  1S         -0.00025  -0.00863   0.00189  -0.00184  -0.00468
 312        2S         -0.00054  -0.00814  -0.00055  -0.00267  -0.00687
 313        3PX        -0.00005   0.00025  -0.00013   0.00010   0.00013
 314        3PY        -0.00017  -0.00068  -0.00037   0.00018  -0.00032
 315        3PZ         0.00007   0.00064  -0.00047   0.00026   0.00029
 316 28  H  1S         -0.00010   0.00030  -0.00105   0.00015  -0.00045
 317        2S         -0.00066  -0.00163  -0.00386  -0.00003  -0.00414
 318        3PX        -0.00000  -0.00008   0.00023  -0.00001  -0.00002
 319        3PY        -0.00019  -0.00165   0.00120  -0.00042  -0.00071
 320        3PZ         0.00008   0.00049  -0.00029   0.00015   0.00031
 321 29  H  1S         -0.00007  -0.00165  -0.01416  -0.03726   0.00316
 322        2S         -0.00100  -0.00121  -0.01754  -0.05927   0.00428
 323        3PX        -0.00133   0.00299   0.00000  -0.00103   0.00022
 324        3PY        -0.00119   0.00245   0.00052   0.00072   0.00003
 325        3PZ        -0.00465   0.01024   0.00111   0.00009   0.00054
 326 30  H  1S         -0.00012   0.00750   0.00746  -0.00302   0.00218
 327        2S         -0.00389   0.00278  -0.01105  -0.00765   0.00328
 328        3PX         0.00006  -0.00228  -0.00009   0.00016  -0.00082
 329        3PY         0.00019   0.00022  -0.00093   0.00044  -0.00022
 330        3PZ        -0.00007  -0.00178  -0.00009  -0.00011  -0.00110
 331 31  H  1S          0.00009  -0.00719  -0.00227   0.00131  -0.00268
 332        2S          0.00098  -0.00533  -0.00138   0.00511  -0.00121
 333        3PX        -0.00003   0.00004  -0.00027   0.00005   0.00001
 334        3PY        -0.00004  -0.00010   0.00055  -0.00010   0.00031
 335        3PZ        -0.00005   0.00033  -0.00022  -0.00008   0.00004
                          78        79        80        81        82
                           V         V         V         V         V
     Eigenvalues --     0.09382   0.09916   0.11312   0.15409   0.17386
   1 1   O  1S          0.00028   0.00038  -0.00008   0.00088  -0.00020
   2        2S          0.00013   0.00193  -0.00051   0.00167  -0.00034
   3        3S          0.00572  -0.00782   0.00202   0.00701  -0.00121
   4        4PX        -0.01811  -0.00838   0.02578  -0.00066   0.06144
   5        4PY        -0.01897  -0.00714   0.02896   0.01038   0.06896
   6        4PZ        -0.06499  -0.01696   0.10488  -0.00430   0.23558
   7        5PX        -0.01495  -0.00825   0.02426  -0.00178   0.06474
   8        5PY        -0.01867  -0.00406   0.02660   0.00663   0.07362
   9        5PZ        -0.05857  -0.01707   0.09761  -0.00292   0.24957
  10        6D 0       -0.00018  -0.00002   0.00058   0.00011  -0.00103
  11        6D+1       -0.00033   0.00014   0.00004   0.00016  -0.00064
  12        6D-1        0.00061   0.00026  -0.00117   0.00027   0.00231
  13        6D+2       -0.00034  -0.00015   0.00035   0.00024  -0.00079
  14        6D-2       -0.00000  -0.00003  -0.00034  -0.00049   0.00053
  15 2   N  1S          0.01299   0.00826   0.00600   0.01126   0.00001
  16        2S          0.03874   0.01193   0.01219   0.02246  -0.00288
  17        3S         -0.03008   0.09909   0.05918   0.08850   0.03285
  18        4PX        -0.00369   0.02048   0.08805  -0.00773   0.02888
  19        4PY        -0.02023   0.01928   0.06075  -0.00264   0.02141
  20        4PZ        -0.11420  -0.05193   0.25253   0.00691   0.09789
  21        5PX         0.04732  -0.06063  -0.08779   0.00809  -0.06651
  22        5PY         0.04522  -0.03459  -0.07582  -0.00319  -0.04247
  23        5PZ         0.11944   0.05201  -0.25590  -0.00577  -0.14154
  24        6D 0        0.00336   0.00185  -0.00559   0.00044  -0.00207
  25        6D+1       -0.00555  -0.00190   0.00406   0.00139   0.00334
  26        6D-1       -0.00063  -0.00092   0.00568   0.00034   0.00035
  27        6D+2       -0.00219  -0.00187  -0.00002  -0.00198   0.00081
  28        6D-2       -0.00090   0.00113   0.00399  -0.00177   0.00139
  29 3   C  1S          0.00230  -0.00206  -0.00273   0.00757   0.00165
  30        2S         -0.01081   0.00428   0.00505  -0.01951   0.00743
  31        3S          0.02292   0.01501   0.02841  -0.06459  -0.17496
  32        4PX        -0.00662  -0.02275  -0.00077  -0.02632   0.00175
[...]
 ,-0.00095200,-0.00001110,0.00005605,-0.00001760,0.00012347,0.00011691,
 0.00005604,0.00002913,0.00030851,-0.00002259,0.00001460,0.00000465,-0.
 00000515,0.00656089,0.10649101,-0.28333145,0.00147775,0.05778867,0.055
 04171,0.00300995,0.01576637,-0.07040581,-0.00613175,-0.08888389,0.0108
 4652,0.00802545,-0.04513237,-0.39426172,-0.01274019,0.08351946,0.76382
 400,-0.00008195,-0.00010264,-0.00002944,0.00021709,0.00062585,0.000460
 93,-0.00432242,0.00059214,-0.00063142,0.00004776,-0.00050856,-0.000631
 94,0.00010213,-0.00056982,0.00032884,-0.00030248,0.00012468,-0.0000482
 0,-0.00025050,0.00002694,-0.00013215,0.00003030,0.00003436,0.00002582,
 0.00000378,0.00000612,0.00000286,0.00007662,0.00009045,0.00001955,0.00
 006879,0.00002979,0.00000230,-0.00006626,0.00004923,0.00000785,-0.0000
 2115,-0.00005605,-0.00002320,-0.00002933,0.00013846,-0.00004936,-0.000
 12156,-0.00011621,0.00011738,-0.00000022,-0.00000345,-0.00000137,-0.00
 000799,-0.00001309,0.00001230,-0.00000408,-0.00006141,-0.00000460,-0.0
 0000178,0.00000066,-0.00000034,0.00630410,0.00061128,0.00301488,0.0002
 7532,-0.05020985,0.05190948,0.00624325,0.00008572,-0.00065747,0.008716
 91,-0.00047526,-0.00035261,-0.00099821,-0.00046558,-0.00045917,0.00782
 603,-0.00112178,0.00035094,-0.01626283,-0.00000865,0.00003665,-0.00002
 783,0.00030922,0.00043849,-0.00029513,0.00025592,0.00103960,0.00268991
 ,0.00004177,0.00006754,-0.00030614,0.00024459,0.00021833,-0.00138964,-
 0.00006984,-0.00001451,-0.00001502,-0.00015838,-0.00006194,-0.00002733
 ,0.00012083,0.00007636,0.00008264,0.00001061,0.00001509,-0.00000181,-0
 .00001348,-0.00000769,0.00000056,0.00002239,0.00002083,0.00000180,-0.0
 0003635,0.00002281,-0.00000661,-0.00001738,-0.00003038,0.00000198,0.00
 001704,0.00009921,0.00001500,-0.00007552,0.00008188,-0.00002116,0.0000
 0289,-0.00000581,0.00000789,0.00002474,-0.00000872,0.00003648,-0.00000
 193,-0.00000555,-0.00000397,-0.00000193,-0.00000045,0.00000292,-0.0035
 9711,-0.01641884,0.02666021,-0.04712507,-0.29359724,0.31631134,0.00095
 126,0.01245016,-0.01446963,-0.00093325,0.00056720,-0.00310017,0.000008
 71,-0.00051821,-0.00132052,-0.00131948,-0.00641341,-0.00230334,0.05028
 784,0.30137892,-0.00006998,-0.00005244,-0.00000503,0.00008276,0.000403
 62,0.00003457,-0.00082046,-0.00167413,0.00070994,-0.00002716,0.0000288
 8,-0.00002065,0.00027970,0.00035750,0.00028349,0.00001279,-0.00000144,
 0.00001662,0.00001264,0.00002763,0.00001198,0.00004870,0.00001617,0.00
 001243,0.00002012,0.00002582,0.00000260,0.00004600,0.00006506,0.000001
 60,0.00009255,0.00005597,0.00000704,-0.00011904,0.00006809,0.00000473,
 -0.00003565,-0.00012203,-0.00000925,-0.00003780,0.00019976,0.00001611,
 -0.00005388,-0.00030202,-0.00003693,0.00000112,-0.00000781,-0.00000027
 ,0.00000465,-0.00000335,0.00000308,-0.00000012,-0.00006406,-0.00000287
 ,-0.00000299,-0.00000078,-0.00000100,-0.00055762,-0.00931607,0.0093344
 8,0.05095119,0.31625636,-0.37385829,0.00350914,0.02509215,-0.01690977,
 0.00008469,-0.00364616,-0.00477317,-0.00012822,-0.00103704,0.00003584,
 0.00017882,-0.00225242,0.00086399,-0.05325469,-0.32479208,0.38281376,-
 0.00002121,-0.00001127,-0.00001763,-0.00000695,-0.00010958,-0.00009989
 ,-0.00001278,0.00022526,-0.00002336,0.00003864,-0.00006578,-0.00006089
 ,-0.00000735,-0.00000029,0.00005057,-0.00001924,-0.00003685,0.00002030
 ,0.00000996,0.00000491,-0.00001465,-0.00001337,-0.00002101,0.00001766,
 -0.00000766,-0.00000721,-0.00000068,0.00001485,0.00001152,0.00000382,-
 0.00000800,-0.00000879,-0.00000297,0.00001949,-0.00000700,-0.00000066,
 0.00000303,0.00002440,-0.00000101,0.00000252,-0.00003343,-0.00000007,-
 0.00005345,0.00001296,0.00001365,-0.00000088,-0.00000004,0.00000092,0.
 00000562,0.00000312,0.00000270,-0.00000396,-0.00000098,0.00000289,-0.0
 0000014,0.00000092,0.00000096,0.00911843,0.00017149,0.00030253,0.00716
 676,-0.00042124,0.00045310,0.01621880,-0.09255214,-0.01761548,0.007757
 66,-0.00235814,-0.00173596,0.00855166,-0.00123880,0.00065047,-0.001082
 72,0.00023729,0.00059110,-0.00637999,0.00086072,-0.00039635,-0.0336450
 5,0.00005198,0.00002638,0.00000333,-0.00011346,-0.00019264,-0.00012449
 ,-0.00000608,-0.00014378,0.00034600,0.00002252,-0.00005646,-0.00009180
 ,0.00000114,0.00000119,0.00001663,-0.00004030,-0.00000667,-0.00001873,
 0.00002545,0.00001621,0.00001868,0.00000027,-0.00000338,0.00001059,-0.
 00001625,-0.00002247,-0.00000342,-0.00003020,-0.00003630,-0.00000347,-
 0.00006568,-0.00004044,-0.00000441,0.00008742,-0.00004539,-0.00000513,
 0.00002602,0.00008956,0.00001028,0.00001977,-0.00014023,0.00000041,0.0
 0005848,0.00020857,-0.00000822,-0.00000022,0.00000694,0.00000278,-0.00
 000438,0.00000583,-0.00000418,0.00000163,0.00004296,-0.00000124,0.0000
 0253,0.00000047,0.00000111,-0.00103643,0.00169694,-0.00147802,-0.00134
 717,-0.00222085,0.00463760,-0.09076520,-0.73351930,-0.15861368,-0.0024
 5146,-0.01476995,-0.01027791,-0.00147724,-0.00101021,0.00433107,0.0001
 7642,0.00088578,0.00033283,0.00096152,0.00077372,-0.00019468,0.0946846
 8,0.74794445,0.00006386,0.00005562,0.00001515,-0.00018570,-0.00031079,
 -0.00040438,0.00004250,-0.00126234,0.00037534,0.00004803,-0.00003038,-
 0.00013341,0.00003832,0.00006278,0.00005204,-0.00005924,-0.00000183,-0
 .00003065,-0.00002138,0.00001102,0.00001147,0.00000659,-0.00000035,0.0
 0001871,-0.00001894,-0.00002298,-0.00000342,-0.00004699,-0.00006968,-0
 .00001465,-0.00008985,-0.00005557,-0.00000571,0.00011350,-0.00006826,-
 0.00000647,0.00003482,0.00011390,0.00001512,0.00003031,-0.00020091,0.0
 0003545,0.00007564,0.00021866,0.00000003,-0.00000195,0.00000691,0.0000
 0138,-0.00000974,0.00000650,-0.00003097,0.00000054,0.00006485,0.000001
 35,0.00000288,0.00000044,0.00000094,-0.00012225,-0.00152855,-0.0061868
 3,-0.00394389,-0.03668923,-0.00126457,-0.01821924,-0.15986530,-0.03141
 999,0.00352403,0.03223057,0.00993342,0.00077888,0.00416063,-0.00399129
 ,0.00012934,0.00050427,-0.00151906,0.00000193,0.00117372,0.00200482,0.
 01828206,0.16160446,0.03046975,-0.00002880,-0.00002881,-0.00002443,0.0
 0000513,-0.00007556,-0.00003893,-0.00120473,0.00009693,-0.00007823,-0.
 00002337,-0.00010214,-0.00022934,0.00000376,-0.00010265,0.00008769,-0.
 00008612,-0.00000351,-0.00000844,0.00000270,0.00001311,-0.00000535,0.0
 0000918,-0.00000556,-0.00000449,-0.00000739,-0.00000623,0.00000009,0.0
 0002962,0.00003062,0.00000649,0.00000593,-0.00000147,-0.00000127,0.000
 00456,0.00000328,0.00000123,-0.00000020,0.00000842,0.00000095,-0.00001
 372,-0.00000243,0.00000187,0.00002951,0.00011850,-0.00006148,-0.000001
 80,-0.00000001,-0.00000154,-0.00000651,-0.00000515,0.00002308,-0.00000
 304,-0.00001118,-0.00000075,-0.00000057,0.00000052,0.00000084,-0.00119
 015,-0.00047859,0.00028026,0.00863064,-0.00128125,0.00097206,0.0064908
 2,0.00114736,0.00272277,0.02576528,-0.00319909,0.00242730,0.00628518,0
 .00042971,-0.00167113,0.00853258,-0.00102476,-0.00070690,0.00043727,0.
 00003623,0.00024294,-0.00650482,0.00107472,-0.00038664,-0.04145956,0.0
 0003008,0.00000790,-0.00000384,-0.00003062,-0.00003667,-0.00012504,0.0
 0016352,0.00003954,0.00001737,0.00000198,0.00002505,0.00000899,0.00001
 142,0.00000191,-0.00011185,0.00000958,0.00001132,-0.00000585,-0.000026
 07,0.00000288,-0.00000432,0.00003306,0.00000652,0.00002053,-0.00001104
 ,-0.00001517,-0.00000042,-0.00001472,-0.00001398,0.00000276,-0.0000386
 4,-0.00002597,-0.00000236,0.00005399,-0.00002620,-0.00000015,0.0000137
 7,0.00005975,0.00000277,0.00001171,-0.00005378,-0.00001857,0.00000221,
 0.00016719,0.00002122,0.00000090,0.00000522,0.00000183,0.00001747,0.00
 000225,0.00002961,0.00000264,0.00002368,0.00000378,0.00000189,0.000000
 10,-0.00000050,-0.00017315,-0.00138516,0.00079868,-0.00123117,-0.00276
 751,0.00386322,-0.00035312,0.01224895,0.02780269,-0.00143257,-0.078111
 84,-0.23095176,-0.00007864,-0.00402107,-0.03567708,-0.00092076,-0.0066
 8988,-0.00048352,0.00006565,0.00050295,0.00120163,0.00080755,0.0014053
 4,-0.00148695,0.00250524,0.07669165,0.00002876,0.00000239,-0.00000255,
 -0.00005752,-0.00012969,-0.00006047,0.00000593,0.00001805,0.00002265,-
 0.00001630,-0.00001648,0.00001206,-0.00001557,-0.00000235,0.00005269,0
 .00000120,-0.00000634,-0.00000664,0.00002145,0.00000787,0.00000789,-0.
 00000363,-0.00000453,0.00000242,-0.00001214,-0.00001717,-0.00000158,-0
 .00001021,-0.00001424,0.00000157,-0.00003976,-0.00002801,-0.00000360,0
 .00005803,-0.00002615,-0.00000148,0.00001598,0.00005858,0.00000261,0.0
 0000728,-0.00007628,-0.00001100,0.00002155,0.00013561,0.00001281,0.000
 00035,0.00000564,0.00000157,0.00000006,0.00000188,0.00001105,0.0000017
 1,0.00002350,0.00000152,0.00000183,0.00000035,0.00000038,-0.00003642,0
 .00064493,0.00059152,0.00087696,0.00427631,-0.00166199,-0.00075449,-0.
 01368276,-0.01574414,0.00315897,-0.23009475,-0.68235058,0.00017116,0.0
 0500465,0.00136365,0.00017858,-0.00081071,0.00174115,-0.00006145,-0.00
 056626,-0.00090914,-0.00031745,-0.00001998,0.00157324,-0.00306995,0.23
 557620,0.69480644,0.00018523,-0.00105783,-0.00010326,0.00001906,-0.000
 08991,0.00002244,-0.00003941,0.00003392,-0.00001828,-0.00000420,-0.000
 00855,0.00000142,0.00000840,-0.00000826,0.00000145,-0.00000150,-0.0000
 0250,0.00000268,0.00000518,0.00000303,-0.00000012,0.00000353,-0.000003
 79,-0.00000567,0.00170307,0.00081548,0.00009662,-0.00303168,-0.0023102
 1,-0.00047233,-0.10371738,0.26309193,0.02053555,-0.00839424,0.03338286
 ,0.00242194,-0.00721227,-0.00042670,-0.00002648,0.00007457,-0.00130070
 ,-0.00013278,-0.00000529,0.00028730,0.00003199,-0.00038909,0.00177491,
 0.00011104,0.00005653,-0.00007145,-0.00001183,0.01364210,-0.02593027,-
 0.00230949,0.00113670,0.00140394,0.00030217,0.00001843,-0.00001504,0.0
 0001108,-0.00000110,0.00000051,-0.00000775,-0.00000329,-0.00000159,-0.
 00000197,-0.00000147,-0.00000474,-0.00000322,-0.00000125,0.00000364,0.
 00000214,-0.00000140,-0.00000133,-0.00000585,0.00000156,0.00000007,0.0
 0000135,0.00000040,-0.00000082,-0.00000134,0.00000082,-0.00000021,-0.0
 0000030,0.10594805,-0.00021533,-0.00170845,-0.00003812,-0.00013577,-0.
 00026711,0.00001322,-0.00005437,0.00008741,-0.00002007,0.00002515,-0.0
 0003960,-0.00001314,0.00001039,-0.00002227,-0.00000006,-0.00000817,0.0
 0000953,-0.00000381,0.00001355,-0.00000882,0.00000191,-0.00000705,0.00
 000784,0.00000616,-0.00035663,0.00111000,0.00025483,-0.00389534,0.0000
 8197,-0.00110572,0.26700301,-0.64567436,-0.05213184,-0.00736908,0.0006
 5900,0.00003600,0.00053961,0.00174966,-0.00032777,-0.00046744,0.000151
 75,0.00015580,0.00001187,0.00046219,0.00007797,0.00008094,0.00013497,-
 0.00005080,0.00003360,-0.00000270,-0.00001458,0.01448329,-0.01705879,-
 0.00191290,-0.00015237,0.00165165,0.00080995,0.00003565,-0.00001734,0.
 00004487,-0.00000282,-0.00000056,-0.00002161,-0.00000447,-0.00000623,-
 0.00000546,-0.00000051,-0.00001503,-0.00001395,-0.00000098,0.00000427,
 0.00001388,-0.00000413,0.00000887,-0.00002230,0.00000163,0.00000202,0.
 00000446,-0.00000065,-0.00000390,-0.00000389,-0.00000012,-0.00000262,-
 0.00000280,-0.26956253,0.65870502,0.00000210,0.00010189,-0.00196488,0.
 00002779,0.00002959,-0.00032595,0.00001406,-0.00000243,0.00019986,0.00
 000819,-0.00002235,0.00000629,0.00000408,-0.00000141,-0.00000307,0.000
 00209,-0.00000084,-0.00000301,0.00000313,0.00000280,0.00000177,0.00000
 249,0.00000405,0.00000190,0.00002220,0.00025438,-0.00218659,-0.0008002
 8,-0.00122112,0.01200934,0.02042315,-0.05050778,0.02119040,-0.00072408
 ,-0.00032440,0.00423250,0.00022775,-0.00013181,0.00472792,-0.00008983,
 0.00028947,-0.00147446,0.00002429,-0.00001138,-0.00051959,0.00000613,-
 0.00008864,0.00050405,0.00002189,-0.00001770,0.00020468,0.00102136,-0.
 00362564,0.01009578,0.00027929,0.00097842,-0.00803074,-0.00003583,0.00
 003536,-0.00000739,0.00000574,0.00000693,0.00001087,0.00000249,0.00000
 319,-0.00000378,-0.00000191,0.00000042,0.00000098,0.00000136,-0.000001
 03,0.00000025,-0.00000371,-0.00000045,0.00000442,0.00000013,0.00000116
 ,-0.00000103,0.00000001,0.00000119,0.00000084,0.00000042,-0.00000072,0
 .00000025,-0.02044416,0.05425312,-0.03867336,-0.00008368,-0.00027273,-
 0.00041436,-0.00018705,-0.00054994,-0.00027214,-0.00413183,0.00024990,
 0.00038176,-0.00003154,-0.00011189,-0.00083944,-0.00008191,0.00023554,
 0.00039783,-0.00031528,-0.00018363,0.00010832,0.00006988,-0.00001374,0
 .00001143,-0.00023140,-0.00008407,-0.00025258,-0.00003580,-0.00002650,
 0.00000531,0.00024988,0.00030123,0.00023004,0.00001640,-0.00002180,0.0
 0001506,0.00003957,-0.00002257,-0.00004135,0.00002557,0.00004104,0.000
 07043,-0.00020320,-0.00001783,-0.00020104,0.00061264,0.00072984,0.0002
 6022,-0.00003098,-0.00001091,-0.00001753,-0.00014826,-0.00010369,0.000
 05712,-0.00003979,-0.00004907,0.00000588,-0.00000275,0.00000878,0.0000
 0344,0.00684088,-0.00230325,0.00069813,0.00827602,-0.00129693,0.000309
 72,-0.00103489,0.00000774,0.00013696,0.00900777,-0.00049401,0.00008028
 ,0.00741365,-0.00122673,-0.00036266,0.01439451,-0.00889318,-0.00226612
 ,-0.00007551,-0.00001732,-0.00002129,-0.00148241,0.00018500,-0.0000282
 0,0.00027152,-0.00000401,0.00000702,-0.00000208,-0.00000362,-0.0000025
 2,-0.03262346,-0.00002396,-0.00006807,-0.00003315,-0.00019111,0.000816
 64,-0.00142772,0.00024851,-0.00093589,-0.00216688,0.00002390,-0.000046
 61,0.00025931,0.00004564,0.00001733,-0.00002104,0.00006653,0.00002174,
 -0.00000674,-0.00001914,0.00003131,-0.00002856,0.00014033,-0.00000033,
 0.00014404,-0.00000063,0.00000221,0.00000397,0.00010219,0.00002216,0.0
 0002139,-0.00000500,-0.00001485,0.00000350,0.00001227,-0.00003424,-0.0
 0000323,-0.00003112,-0.00003986,0.00004145,0.00008589,-0.00009062,0.00
 010683,-0.00005249,0.00055999,-0.00071702,-0.00000898,0.00000638,-0.00
 001919,0.00006809,0.00000109,-0.00004011,-0.00000344,-0.00001158,0.000
 01849,0.00000081,0.00000225,-0.00000632,0.00049424,-0.01403662,-0.0063
 0446,-0.00016942,-0.00151263,0.00328047,0.00005286,0.00087360,0.000786
 91,0.00025880,0.00165397,-0.00132405,0.00027089,-0.00160316,0.00424242
 ,-0.01426890,-0.69488855,-0.13232354,-0.00013993,-0.00069925,-0.000402
 88,-0.00001371,-0.00003820,-0.00005230,0.00004192,-0.00011369,0.000150
 57,-0.00000110,-0.00000014,-0.00000268,0.01324184,0.70918428,-0.000277
 26,-0.00011451,-0.00002787,0.00004969,0.00112990,-0.00039600,-0.000120
 46,-0.00020124,0.00056542,0.00003284,-0.00020105,-0.00028296,0.0001549
 6,-0.00006169,0.00038882,-0.00009889,-0.00000570,-0.00000253,0.0001031
 6,-0.00005272,0.00010159,-0.00016118,0.00009053,-0.00006165,0.00008849
 ,0.00010820,-0.00000231,0.00010562,0.00022024,-0.00003573,0.00037407,0
 .00024503,0.00001906,-0.00048481,0.00031150,0.00001134,-0.00014846,-0.
 00050798,-0.00004501,-0.00009569,0.00049190,0.00009251,-0.00008689,-0.
 00240948,-0.00109196,0.00001423,-0.00004625,0.00001091,-0.00014202,-0.
 00010580,-0.00041448,-0.00002856,-0.00025120,-0.00002466,-0.00001485,-
 0.00000070,0.00000324,0.00144196,0.02902069,0.01119413,0.00074768,0.00
 385808,-0.00431089,0.00001460,0.00054571,-0.00128402,0.00036500,-0.001
 56538,-0.00625342,-0.00133109,-0.03612307,-0.00212595,-0.00263108,-0.1
 3115207,-0.03162310,0.00017075,0.00158966,0.00039535,-0.00003502,-0.00
 001414,0.00003268,-0.00014550,-0.00165203,-0.00009046,0.00000409,0.000
 01913,0.00000447,0.00252935,0.13586294,0.03330927,-0.00008208,-0.00007
 246,-0.00005527,0.00003051,0.00027316,0.00010497,-0.00002325,-0.000368
 24,-0.00010257,-0.00005156,-0.00000002,-0.00003991,-0.00008583,0.00000
 139,0.00000942,-0.00002004,0.00003928,0.00000266,-0.00001154,0.0000093
 8,-0.00001049,0.00000631,-0.00000867,-0.00004016,-0.00000136,0.0000042
 4,0.00000014,0.00007220,0.00008441,0.00001753,0.00006907,0.00003138,0.
 00000072,-0.00006478,0.00005209,0.00000408,-0.00001469,-0.00006355,-0.
 00000511,-0.00005444,0.00011506,0.00000020,0.00000937,-0.00023195,0.00
 001447,-0.00000318,-0.00000478,-0.00000196,-0.00001167,-0.00000064,-0.
 00002033,-0.00000671,-0.00005397,-0.00001302,-0.00000336,-0.00000036,0
 .00000430,0.00883016,-0.00120058,0.00075584,-0.00095784,0.00058811,0.0
 0027944,0.00841587,-0.00073709,-0.00009546,0.00666248,-0.00091105,0.00
 161407,0.00617394,-0.04925797,0.05509648,0.00746630,0.00018167,-0.0024
 3926,-0.00142465,0.00018090,-0.00004394,0.00034217,-0.00002467,-0.0000
 3789,-0.00597372,0.00058205,-0.00016165,0.00000204,0.00000269,0.000002
 18,-0.00647649,-0.00022578,-0.00039474,-0.02281320,-0.00001552,-0.0000
 0281,0.00001308,-0.00000160,0.00004342,0.00011526,0.00001912,0.0005697
 2,-0.00041487,0.00001546,-0.00000481,0.00002790,-0.00001498,-0.0000372
 3,-0.00015266,-0.00000282,-0.00001532,0.00000258,0.00000068,-0.0000042
 8,0.00000193,-0.00003087,0.00000048,-0.00000191,0.00000587,0.00001010,
 0.00000312,0.00000908,0.00000156,-0.00000863,0.00001402,0.00000824,0.0
 0000105,-0.00002350,-0.00000148,0.00000652,-0.00000582,-0.00002302,-0.
 00000141,-0.00000063,0.00000974,0.00001200,-0.00000117,-0.00003714,0.0
 0001656,-0.00000203,-0.00000253,-0.00000691,-0.00001070,0.00000135,-0.
 00000273,-0.00000051,-0.00000809,0.00000643,-0.00000065,-0.00000025,-0
 .00000169,-0.00076524,0.00038912,-0.00338025,0.00015086,-0.00026333,-0
 .00119956,-0.00119065,-0.00600421,-0.00274571,-0.00322242,-0.01437533,
 0.02814269,-0.04813409,-0.32127096,0.34176350,0.00071030,0.01274903,-0
 .01439603,0.00011132,-0.00000978,0.00006631,-0.00015792,-0.00085417,0.
 00143496,0.00082195,0.00206133,-0.00040802,-0.00000006,0.00000178,-0.0
 0000158,0.00070652,0.00094135,0.00097149,0.05101599,0.32612749,0.00004
 774,0.00002254,0.00004841,-0.00016173,-0.00015730,0.00012693,0.0001922
 1,0.00146102,-0.00037332,0.00007809,-0.00006956,-0.00010745,-0.0000709
 9,-0.00014475,-0.00041850,-0.00007381,-0.00002145,-0.00002015,0.000019
 56,0.00001266,0.00001155,-0.00002489,-0.00001018,0.00002807,-0.0000164
 4,-0.00001689,0.00000261,-0.00002495,-0.00005396,-0.00002146,-0.000075
 44,-0.00005148,-0.00000449,0.00009387,-0.00007201,0.00000760,0.0000319
 4,0.00009600,0.00001107,0.00002135,-0.00017453,0.00001512,0.00005310,0
 .00027758,0.00004843,-0.00000415,0.00000705,-0.00001145,-0.00002267,0.
 00001238,0.00000163,0.00000213,0.00005061,0.00001528,0.00000307,0.0000
 0005,-0.00000417,0.00013118,-0.00300493,-0.00482084,-0.00004798,-0.001
 27023,-0.00026501,0.00017551,-0.00250972,0.00101441,-0.00068590,-0.011
 70982,0.01153157,0.05240361,0.34155647,-0.38501047,0.00348328,0.024887
 22,-0.01712398,-0.00008851,0.00007136,-0.00002505,-0.00007066,-0.00045
 348,0.00046965,-0.00033361,0.00117367,0.00063814,-0.00000112,-0.000002
 48,-0.00000273,-0.00058906,-0.00004241,0.00194422,-0.05444473,-0.34986
 342,0.39229438\\-0.04428881,-0.05626177,-0.00855477,-0.00213860,0.0144
 9026,0.00296735,-0.03380850,-0.12163140,0.06803827,0.11896601,0.009880
 55,0.04916537,0.05993833,0.09189734,-0.07278395,-0.00694158,-0.0435683
 0,-0.14151502,-0.06421365,0.12379032,0.01596140,-0.06535307,-0.0910623
 8,0.07853084,-0.00288040,-0.00472182,-0.00075007,0.07600288,0.09926972
 ,0.01361909,-0.03299089,0.10636395,0.01181338,-0.01227463,-0.01511193,
 -0.00425576,0.11461213,0.01033944,0.00497940,-0.02050413,-0.01527543,-
 0.00237896,0.13101524,0.03394695,0.00037014,-0.13205559,0.01819140,-0.
 00158514,-0.14615977,-0.00827262,0.00073272,-0.11967258,-0.01015547,-0
 .00526107,0.13265022,-0.01563957,0.00185099,-0.00448043,0.00406663,-0.
 01747564,-0.00703425,-0.06272067,0.05299426,-0.01315448,-0.10867031,-0
 .02295209,0.00082118,-0.04824875,-0.10679088,0.00494964,0.07016517,-0.
 07330455,0.00377471,0.09304301,0.01985567,0.01007324,0.07309682,-0.080
 57106,0.01589837,0.14612822,0.02933139,-0.00031358,0.04537458,0.134419
 36,0.05293568,-0.13114249,-0.01065930,-0.00395653,-0.12521777,-0.02577
 069,-0.00941617,-0.08234366,0.08997930\\\@
 The archive entry for this job was punched.

 Writing a WFNX file to "TAYNIR_Complex_0_Ligand_1_ON_Cu_oriented.wfx"


 LEARN FROM YESTERDAY,
 LIVE FOR TODAY,
 LOOK TO TOMORROW,
 REST THIS AFTERNOON.

           -- SNOOPY
 Job cpu time:       0 days  0 hours 47 minutes 22.9 seconds.
 Elapsed time:       0 days  0 hours 47 minutes 34.7 seconds.
 File lengths (MBytes):  RWF=    564 Int=      0 D2E=      0 Chk=     12 Scr=      8
 Normal termination of Gaussian 16 at Mon Mar  6 11:09:14 2023.
