 Entering Gaussian System, Link 0=g16
 Initial command:
 /ssoft/spack/external/gaussian/g16-C.01/avx2/g16/l1.exe "/scratch/lcmd/2387831/Gau-3436048.inp" -scrdir="/scratch/lcmd/2387831/"
 Entering Link 1 = /ssoft/spack/external/gaussian/g16-C.01/avx2/g16/l1.exe PID=   3436058.
  
 Copyright (c) 1988-2019, Gaussian, Inc.  All Rights Reserved.
  
 This is part of the Gaussian(R) 16 program.  It is based on
 the Gaussian(R) 09 system (copyright 2009, Gaussian, Inc.),
 the Gaussian(R) 03 system (copyright 2003, Gaussian, Inc.),
 the Gaussian(R) 98 system (copyright 1998, Gaussian, Inc.),
 the Gaussian(R) 94 system (copyright 1995, Gaussian, Inc.),
 the Gaussian 92(TM) system (copyright 1992, Gaussian, Inc.),
 the Gaussian 90(TM) system (copyright 1990, Gaussian, Inc.),
 the Gaussian 88(TM) system (copyright 1988, Gaussian, Inc.),
 the Gaussian 86(TM) system (copyright 1986, Carnegie Mellon
 University), and the Gaussian 82(TM) system (copyright 1983,
 Carnegie Mellon University). Gaussian is a federally registered
 trademark of Gaussian, Inc.
  
 This software contains proprietary and confidential information,
 including trade secrets, belonging to Gaussian, Inc.
  
 This software is provided under written license and may be
 used, copied, transmitted, or stored only in accord with that
 written license.
  
 The following legend is applicable only to US Government
 contracts under FAR:
  
                    RESTRICTED RIGHTS LEGEND
  
 Use, reproduction and disclosure by the US Government is
 subject to restrictions as set forth in subparagraphs (a)
 and (c) of the Commercial Computer Software - Restricted
 Rights clause in FAR 52.227-19.
  
 Gaussian, Inc.
 340 Quinnipiac St., Bldg. 40, Wallingford CT 06492
  
  
 ---------------------------------------------------------------
 Warning -- This program may not be used in any manner that
 competes with the business of Gaussian, Inc. or will provide
 assistance to any competitor of Gaussian, Inc.  The licensee
 of this program is prohibited from giving any competitor of
 Gaussian, Inc. access to this program.  By using this program,
 the user acknowledges that Gaussian, Inc. is engaged in the
 business of creating and licensing software in the field of
 computational chemistry and represents and warrants to the
 licensee that it is not a competitor of Gaussian, Inc. and that
 it will not use this program in any manner prohibited above.
 ---------------------------------------------------------------
  

 Cite this work as:
 Gaussian 16, Revision C.01,
 M. J. Frisch, G. W. Trucks, H. B. Schlegel, G. E. Scuseria, 
 M. A. Robb, J. R. Cheeseman, G. Scalmani, V. Barone, 
 G. A. Petersson, H. Nakatsuji, X. Li, M. Caricato, A. V. Marenich, 
 J. Bloino, B. G. Janesko, R. Gomperts, B. Mennucci, H. P. Hratchian, 
 J. V. Ortiz, A. F. Izmaylov, J. L. Sonnenberg, D. Williams-Young, 
 F. Ding, F. Lipparini, F. Egidi, J. Goings, B. Peng, A. Petrone, 
 T. Henderson, D. Ranasinghe, V. G. Zakrzewski, J. Gao, N. Rega, 
 G. Zheng, W. Liang, M. Hada, M. Ehara, K. Toyota, R. Fukuda, 
 J. Hasegawa, M. Ishida, T. Nakajima, Y. Honda, O. Kitao, H. Nakai, 
 T. Vreven, K. Throssell, J. A. Montgomery, Jr., J. E. Peralta, 
 F. Ogliaro, M. J. Bearpark, J. J. Heyd, E. N. Brothers, K. N. Kudin, 
 V. N. Staroverov, T. A. Keith, R. Kobayashi, J. Normand, 
 K. Raghavachari, A. P. Rendell, J. C. Burant, S. S. Iyengar, 
 J. Tomasi, M. Cossi, J. M. Millam, M. Klene, C. Adamo, R. Cammi, 
 J. W. Ochterski, R. L. Martin, K. Morokuma, O. Farkas, 
 J. B. Foresman, and D. J. Fox, Gaussian, Inc., Wallingford CT, 2019.
 
 ******************************************
 Gaussian 16:  ES64L-G16RevC.01  3-Jul-2019
                 6-Mar-2023 
 ******************************************
 %nprocshared=1
 Will use up to    1 processors via shared memory.
 %mem=8000MB
 %chk=TAYNOX_Complex_0_Ligand_1_ON_Cu_oriented.chk
 ----------------------------------------------------------------------
 #p pop=(regular,nbo,savenbos) freq=noraman def2svp empiricaldispersion
 =gd3bj output=wfx pbe1pbe
 ----------------------------------------------------------------------
 1/10=4,30=1,38=1/1,3;
 2/12=2,17=6,18=5,40=1/2;
 3/5=43,7=101,11=2,25=1,30=1,71=2,74=-13,124=41,140=1/1,2,3;
 4//1;
 5/5=2,38=5,98=1/2;
 8/6=4,10=90,11=11/1;
 11/6=1,8=1,9=11,15=111,16=1/1,2,10;
 10/6=1/2;
 6/28=1,40=1,73=1/1,7;
 7/8=1,10=1,25=1/1,2,3,16;
 1/10=4,30=1/3;
 99/6=200/99;
 Leave Link    1 at Mon Mar  6 10:21:40 2023, MaxMem=  1048576000 cpu:               0.0 elap:               0.2
 (Enter /ssoft/spack/external/gaussian/g16-C.01/avx2/g16/l101.exe)
 ----------------------------------------
 TAYNOX_Complex_0_Ligand_1_ON_Cu_oriented
 ----------------------------------------
 Symbolic Z-matrix:
 Charge = -1 Multiplicity = 1
 Br                    5.88058   4.17914   1.37564 
 O                     0.58632   1.76984   0. 
 N                     1.8278   -0.72474   0. 
 C                     1.74361   2.23828   0.30028 
 C                     1.92245   3.63144   0.4886 
 C                     3.08836   4.18337   0.80067 
 C                     4.23148   3.38153   0.90936 
 C                     4.11794   2.03436   0.72198 
 C                     2.91752   1.44227   0.42009 
 C                     2.92692   0.0108    0.20922 
 C                     2.06869  -2.1976   -0.19947 
 H                     1.15488   4.20709   0.44298 
 H                     3.18255   5.13994   0.91307 
 H                     4.88685   1.47874   0.79934 
 H                     3.78769  -0.44575   0.27372 
 C                     2.37617  -2.92531   0.98376 
 H                     1.53958  -3.24718   1.46447 
 H                     2.90808  -3.72546   0.91051 
 C                     1.9056   -2.60826  -1.41426 
 C                     1.98975  -1.98403  -2.63178 
 H                     2.57418  -3.29493  -1.53834 
 H                     1.07332  -2.90511  -1.46533 
 H                     2.96943  -1.57357  -2.68501 
 H                     1.47162  -1.17627  -2.60734 
 H                     3.05062  -2.05442  -0.30358 
 H                     1.88823  -2.48691  -3.32341 
 H                     2.81853  -2.40439   1.71926 
 
 ITRead=  0  0  0  0  0  0  0  0  0  0  0  0  0  0  0  0  0  0  0  0
 ITRead=  0  0  0  0  0  0  0
 MicOpt= -1 -1 -1 -1 -1 -1 -1 -1 -1 -1 -1 -1 -1 -1 -1 -1 -1 -1 -1 -1
 MicOpt= -1 -1 -1 -1 -1 -1 -1
 NAtoms=     27 NQM=       27 NQMF=       0 NMMI=      0 NMMIF=      0
                NMic=       0 NMicF=      0.
                    Isotopes and Nuclear Properties:
 (Nuclear quadrupole moments (NQMom) in fm**2, nuclear magnetic moments (NMagM)
  in nuclear magnetons)

  Atom         1           2           3           4           5           6           7           8           9          10
 IAtWgt=          79          16          14          12          12          12          12          12          12          12
 AtmWgt=  78.9183361  15.9949146  14.0030740  12.0000000  12.0000000  12.0000000  12.0000000  12.0000000  12.0000000  12.0000000
 NucSpn=           3           0           2           0           0           0           0           0           0           0
 AtZEff=  -0.0000000  -0.0000000  -0.0000000  -0.0000000  -0.0000000  -0.0000000  -0.0000000  -0.0000000  -0.0000000  -0.0000000
 NQMom=   31.3000000   0.0000000   2.0440000   0.0000000   0.0000000   0.0000000   0.0000000   0.0000000   0.0000000   0.0000000
 NMagM=    2.1063990   0.0000000   0.4037610   0.0000000   0.0000000   0.0000000   0.0000000   0.0000000   0.0000000   0.0000000
 AtZNuc=  35.0000000   8.0000000   7.0000000   6.0000000   6.0000000   6.0000000   6.0000000   6.0000000   6.0000000   6.0000000

  Atom        11          12          13          14          15          16          17          18          19          20
 IAtWgt=          12           1           1           1           1          12           1           1          12          12
 AtmWgt=  12.0000000   1.0078250   1.0078250   1.0078250   1.0078250  12.0000000   1.0078250   1.0078250  12.0000000  12.0000000
 NucSpn=           0           1           1           1           1           0           1           1           0           0
 AtZEff=  -0.0000000  -0.0000000  -0.0000000  -0.0000000  -0.0000000  -0.0000000  -0.0000000  -0.0000000  -0.0000000  -0.0000000
 NQMom=    0.0000000   0.0000000   0.0000000   0.0000000   0.0000000   0.0000000   0.0000000   0.0000000   0.0000000   0.0000000
 NMagM=    0.0000000   2.7928460   2.7928460   2.7928460   2.7928460   0.0000000   2.7928460   2.7928460   0.0000000   0.0000000
 AtZNuc=   6.0000000   1.0000000   1.0000000   1.0000000   1.0000000   6.0000000   1.0000000   1.0000000   6.0000000   6.0000000

  Atom        21          22          23          24          25          26          27
 IAtWgt=           1           1           1           1           1           1           1
 AtmWgt=   1.0078250   1.0078250   1.0078250   1.0078250   1.0078250   1.0078250   1.0078250
 NucSpn=           1           1           1           1           1           1           1
 AtZEff=  -0.0000000  -0.0000000  -0.0000000  -0.0000000  -0.0000000  -0.0000000  -0.0000000
 NQMom=    0.0000000   0.0000000   0.0000000   0.0000000   0.0000000   0.0000000   0.0000000
 NMagM=    2.7928460   2.7928460   2.7928460   2.7928460   2.7928460   2.7928460   2.7928460
 AtZNuc=   1.0000000   1.0000000   1.0000000   1.0000000   1.0000000   1.0000000   1.0000000
 Leave Link  101 at Mon Mar  6 10:21:40 2023, MaxMem=  1048576000 cpu:               0.1 elap:               0.1
 (Enter /ssoft/spack/external/gaussian/g16-C.01/avx2/g16/l103.exe)

 GradGradGradGradGradGradGradGradGradGradGradGradGradGradGradGradGradGrad
 Berny optimization.
 Initialization pass.
 Trust Radius=3.00D-01 FncErr=1.00D-07 GrdErr=1.00D-07 EigMax=2.50D+02 EigMin=1.00D-04
 Number of steps in this run=      2 maximum allowed number of steps=      2.
 GradGradGradGradGradGradGradGradGradGradGradGradGradGradGradGradGradGrad

 Leave Link  103 at Mon Mar  6 10:21:40 2023, MaxMem=  1048576000 cpu:               0.1 elap:               0.1
 (Enter /ssoft/spack/external/gaussian/g16-C.01/avx2/g16/l202.exe)
                          Input orientation:                          
 ---------------------------------------------------------------------
 Center     Atomic      Atomic             Coordinates (Angstroms)
 Number     Number       Type             X           Y           Z
 ---------------------------------------------------------------------
      1         35           0        5.880577    4.179144    1.375644
      2          8           0        0.586316    1.769839    0.000000
      3          7           0        1.827798   -0.724738    0.000000
      4          6           0        1.743612    2.238280    0.300279
      5          6           0        1.922449    3.631444    0.488597
      6          6           0        3.088360    4.183375    0.800673
      7          6           0        4.231477    3.381527    0.909359
      8          6           0        4.117945    2.034357    0.721981
      9          6           0        2.917517    1.442273    0.420093
     10          6           0        2.926920    0.010796    0.209225
     11          6           0        2.068693   -2.197596   -0.199474
     12          1           0        1.154880    4.207086    0.442982
     13          1           0        3.182554    5.139940    0.913067
     14          1           0        4.886851    1.478741    0.799342
     15          1           0        3.787689   -0.445749    0.273717
     16          6           0        2.376169   -2.925309    0.983761
     17          1           0        1.539579   -3.247181    1.464472
     18          1           0        2.908077   -3.725464    0.910506
     19          6           0        1.905601   -2.608256   -1.414262
     20          6           0        1.989750   -1.984026   -2.631783
     21          1           0        2.574179   -3.294930   -1.538344
     22          1           0        1.073325   -2.905110   -1.465330
     23          1           0        2.969433   -1.573566   -2.685011
     24          1           0        1.471619   -1.176270   -2.607340
     25          1           0        3.050624   -2.054424   -0.303579
     26          1           0        1.888232   -2.486910   -3.323411
     27          1           0        2.818528   -2.404390    1.719263
 ---------------------------------------------------------------------
                    Distance matrix (angstroms):
                    1          2          3          4          5
     1  Br   0.000000
     2  O    5.977151   0.000000
     3  N    6.508876   2.786430   0.000000
     4  C    4.694447   1.284110   2.979384   0.000000
     5  C    4.093116   2.342980   4.384520   1.417164   0.000000
     6  C    2.850804   3.567416   5.130270   2.417051   1.327164
     7  C    1.890276   4.087991   4.844174   2.804900   2.360320
     8  C    2.852062   3.614364   3.657681   2.420098   2.724951
     9  C    4.145269   2.391292   2.461687   1.423389   2.405686
    10  C    5.240205   2.935376   1.338975   2.523924   3.767772
    11  C    7.594357   4.240020   1.505699   4.475760   5.871332
    12  H    4.816933   2.541589   4.997194   2.059895   0.960524
    13  H    2.901109   4.351060   6.087981   3.296315   2.010870
    14  H    2.934585   4.383866   3.853839   3.271989   3.676734
    15  H    5.194618   3.902888   1.998482   3.373865   4.488741
    16  C    7.931437   5.120133   2.472045   5.246896   6.591059
    17  H    8.602468   5.312615   2.930950   5.611351   6.958046
    18  H    8.457832   6.034728   3.316682   6.106930   7.434619
    19  C    8.345825   4.786268   2.356657   5.143423   6.523421
    20  C    8.317611   4.794519   2.922040   5.146401   6.424548
    21  H    8.676714   5.654201   3.086985   5.889549   7.246234
    22  H    9.020391   4.923364   2.733211   5.479153   6.874983
    23  H    7.619537   4.905801   3.038606   4.994473   6.185475
    24  H    7.998970   4.032560   2.670012   4.493037   5.736044
    25  H    7.048814   4.559601   1.831810   4.527718   5.850591
    26  H    9.080540   5.555174   3.762175   5.956464   7.208803
    27  H    7.268916   5.036152   2.599739   4.972258   6.224853
                    6          7          8          9         10
     6  C    0.000000
     7  C    1.400532   0.000000
     8  C    2.384223   1.364869   0.000000
     9  C    2.772664   2.393027   1.372124   0.000000
    10  C    4.217379   3.681560   2.403384   1.446956   0.000000
    11  C    6.538869   6.085537   4.791444   3.788537   2.404284
    12  H    1.966431   3.219395   3.684881   3.278964   4.561099
    13  H    0.967741   2.047503   3.249018   3.739788   5.183519
    14  H    3.248018   2.015493   0.951793   2.005850   2.518815
    15  H    4.711213   3.905000   2.541836   2.084047   0.976481
    16  C    7.146616   6.574487   5.263135   4.436952   3.086089
    17  H    7.619220   7.175948   5.924011   4.998041   3.756963
    18  H    7.911655   7.229156   5.888536   5.190963   3.801550
    19  C    7.240933   6.832745   5.568828   4.560221   3.246265
    20  C    7.143216   6.808391   5.650163   4.681263   3.595682
    21  H    7.852415   7.301572   5.991125   5.137553   3.755828
    22  H    7.709848   7.425286   6.200997   5.084841   3.839591
    23  H    6.731011   6.250215   5.093503   4.328932   3.299789
    24  H    6.553945   6.384160   5.328747   4.255907   3.385272
    25  H    6.334898   5.693434   4.348456   3.573277   2.131526
    26  H    7.933541   7.605635   6.463642   5.523742   4.449373
    27  H    6.656971   6.010758   4.731335   4.061337   2.850454
                   11         12         13         14         15
    11  C    0.000000
    12  H    6.501366   0.000000
    13  H    7.504524   2.280934   0.000000
    14  H    4.738681   4.636644   4.040042   0.000000
    15  H    2.499565   5.348758   5.654633   2.277740   0.000000
    16  C    1.422727   7.256380   8.105769   5.072789   2.940199
    17  H    2.037230   7.533760   8.564299   5.829319   3.784167
    18  H    2.066640   8.137421   8.869652   5.568810   3.454815
    19  C    1.292653   7.103649   8.190337   5.521905   3.326855
    20  C    2.442943   6.962834   8.046094   5.670676   3.747107
    21  H    1.803394   7.887985   8.804917   5.796651   3.588036
    22  H    1.758899   7.364213   8.650344   6.236174   4.054690
    23  H    2.716365   6.818569   7.619892   5.013360   3.270410
    24  H    2.682801   6.195588   7.430685   5.506212   3.768067
    25  H    0.997760   6.584657   7.297706   4.131757   1.861282
    26  H    3.142491   7.715770   8.819969   6.458730   4.551220
    27  H    2.070403   6.936010   7.596012   4.494766   2.620144
                   16         17         18         19         20
    16  C    0.000000
    17  H    1.017137   0.000000
    18  H    0.963608   1.551908   0.000000
    19  C    2.464239   2.971415   2.767248   0.000000
    20  C    3.755994   4.310165   4.052622   1.370803   0.000000
    21  H    2.556726   3.176411   2.508728   0.966392   1.804338
    22  H    2.774141   2.986326   3.111895   0.885107   1.746095
    23  H    3.954625   4.697199   4.190725   1.953746   1.063527
    24  H    4.095528   4.568692   4.575701   1.913729   0.959962
    25  H    1.694277   2.613796   2.070434   1.688616   2.559481
    26  H    4.356834   4.860390   4.527710   1.913080   0.861131
    27  H    1.003992   1.552715   1.551561   3.270165   4.449178
                   21         22         23         24         25
    21  H    0.000000
    22  H    1.552371   0.000000
    23  H    2.105745   2.618370   0.000000
    24  H    2.616698   2.109908   1.551556   0.000000
    25  H    1.813974   2.446026   2.430851   2.927751   0.000000
    26  H    2.076025   2.071577   1.552658   1.550516   3.264596
    27  H    3.385967   3.665799   4.484493   4.694884   2.065971
                   26         27
    26  H    0.000000
    27  H    5.128433   0.000000
 Stoichiometry    C11H13BrNO(1-)
 Framework group  C1[X(C11H13BrNO)]
 Deg. of freedom    75
 Full point group                 C1      NOp   1
 Largest Abelian subgroup         C1      NOp   1
 Largest concise Abelian subgroup C1      NOp   1
                         Standard orientation:                         
 ---------------------------------------------------------------------
 Center     Atomic      Atomic             Coordinates (Angstroms)
 Number     Number       Type             X           Y           Z
 ---------------------------------------------------------------------
      1         35           0       -3.743725   -0.936148    0.163188
      2          8           0        1.067585    2.570600   -0.366285
      3          7           0        2.627130    0.262143   -0.421418
      4          6           0        0.065448    1.774843   -0.259372
      5          6           0       -1.250423    2.292996   -0.167975
      6          6           0       -2.330608    1.529994   -0.056647
      7          6           0       -2.194695    0.138561    0.026627
      8          6           0       -0.947632   -0.412076   -0.040455
      9          6           0        0.179471    0.358405   -0.177282
     10          6           0        1.449102   -0.335222   -0.201736
     11          6           0        3.824358   -0.650713   -0.399749
     12          1           0       -1.380775    3.241597   -0.243942
     13          1           0       -3.216589    1.912780    0.014301
     14          1           0       -0.843555   -1.356871    0.008944
     15          1           0        1.431050   -1.306139   -0.099222
     16          6           0        3.981449   -1.468784   -1.553106
     17          1           0        4.501434   -0.997812   -2.289562
     18          1           0        4.441325   -2.310941   -1.464640
     19          6           0        4.578045   -0.522491    0.642589
     20          6           0        4.341514   -0.083479    1.919469
     21          1           0        4.893673   -1.415446    0.834748
     22          1           0        5.219780    0.043279    0.415664
     23          1           0        3.565155   -0.700466    2.303764
     24          1           0        3.882268    0.758684    1.882283
     25          1           0        3.287980   -1.395775   -0.008974
     26          1           0        5.003177   -0.138403    2.467860
     27          1           0        3.138699   -1.701320   -2.046765
 ---------------------------------------------------------------------
 Rotational constants (GHZ):           1.0308583           0.2001632           0.1816118
 Leave Link  202 at Mon Mar  6 10:21:40 2023, MaxMem=  1048576000 cpu:               0.0 elap:               0.0
 (Enter /ssoft/spack/external/gaussian/g16-C.01/avx2/g16/l301.exe)
 Standard basis: def2SVP (5D, 7F)
 Ernie: Thresh=  0.10000D-02 Tol=  0.10000D-05 Strict=F.
 There are   295 symmetry adapted cartesian basis functions of A   symmetry.
 There are   279 symmetry adapted basis functions of A   symmetry.
   279 basis functions,   496 primitive gaussians,   295 cartesian basis functions
    65 alpha electrons       65 beta electrons
       nuclear repulsion energy      1129.4541793056 Hartrees.
 IExCor= 1009 DFT=T Ex+Corr=PBE1PBE ExCW=0 ScaHFX=  0.250000
 ScaDFX=  0.750000  0.750000  1.000000  1.000000 ScalE2=  1.000000  1.000000
 IRadAn=      5 IRanWt=     -1 IRanGd=            0 ICorTp=0 IEmpDi=141
 NAtoms=   27 NActive=   27 NUniq=   27 SFac= 1.00D+00 NAtFMM=   60 NAOKFM=F Big=F
 Integral buffers will be    131072 words long.
 Raffenetti 2 integral format.
 Two-electron integral symmetry is turned on.
 R6Disp:  Grimme-D3(BJ) Dispersion energy=       -0.0281391611 Hartrees.
 Nuclear repulsion after empirical dispersion term =     1129.4260401445 Hartrees.
 Leave Link  301 at Mon Mar  6 10:21:40 2023, MaxMem=  1048576000 cpu:               0.1 elap:               0.1
 (Enter /ssoft/spack/external/gaussian/g16-C.01/avx2/g16/l302.exe)
 NPDir=0 NMtPBC=     1 NCelOv=     1 NCel=       1 NClECP=     1 NCelD=      1
         NCelK=      1 NCelE2=     1 NClLst=     1 CellRange=     0.0.
 One-electron integrals computed using PRISM.
 One-electron integral symmetry used in STVInt
   1 Symmetry operations used in ECPInt.
 ECPInt:  NShTT=    8385 NPrTT=   31874 LenC2=    7712 LenP2D=   21010.
 LDataN:  DoStor=T MaxTD1= 4 Len=   56
 NBasis=   279 RedAO= T EigKep=  2.29D-04  NBF=   279
 NBsUse=   279 1.00D-06 EigRej= -1.00D+00 NBFU=   279
 Precomputing XC quadrature grid using
 IXCGrd= 4 IRadAn=           5 IRanWt=          -1 IRanGd=           0 AccXCQ= 0.00D+00.
 Generated NRdTot=       0 NPtTot=           0 NUsed=           0 NTot=          32
 NSgBfM=   293   293   293   293   293 MxSgAt=    27 MxSgA2=    27.
 Leave Link  302 at Mon Mar  6 10:21:41 2023, MaxMem=  1048576000 cpu:               0.7 elap:               0.7
 (Enter /ssoft/spack/external/gaussian/g16-C.01/avx2/g16/l303.exe)
 DipDrv:  MaxL=1.
 Leave Link  303 at Mon Mar  6 10:21:41 2023, MaxMem=  1048576000 cpu:               0.0 elap:               0.1
 (Enter /ssoft/spack/external/gaussian/g16-C.01/avx2/g16/l401.exe)
 ExpMin= 1.22D-01 ExpMax= 1.13D+05 ExpMxC= 1.70D+04 IAcc=3 IRadAn=         5 AccDes= 0.00D+00
 Harris functional with IExCor= 1009 and IRadAn=       5 diagonalized for initial guess.
 HarFok:  IExCor= 1009 AccDes= 0.00D+00 IRadAn=         5 IDoV= 1 UseB2=F ITyADJ=14
 ICtDFT=  3500011 ScaDFX=  1.000000  1.000000  1.000000  1.000000
 FoFCou: FMM=F IPFlag=           0 FMFlag=      100000 FMFlg1=           0
         NFxFlg=           0 DoJE=T BraDBF=F KetDBF=T FulRan=T
         wScrn=  0.000000 ICntrl=       500 IOpCl=  0 I1Cent=   200000004 NGrid=           0
         NMat0=    1 NMatS0=      1 NMatT0=    0 NMatD0=    1 NMtDS0=    0 NMtDT0=    0
 Petite list used in FoFCou.
 Harris En= -3129.54920088716    
 JPrj=0 DoOrth=F DoCkMO=F.
 Leave Link  401 at Mon Mar  6 10:21:47 2023, MaxMem=  1048576000 cpu:               6.4 elap:               6.4
 (Enter /ssoft/spack/external/gaussian/g16-C.01/avx2/g16/l502.exe)
 Keep R1 ints in memory in canonical form, NReq=775830853.
 FoFCou: FMM=F IPFlag=           0 FMFlag=           0 FMFlg1=           0
         NFxFlg=           0 DoJE=F BraDBF=F KetDBF=F FulRan=T
         wScrn=  0.000000 ICntrl=       600 IOpCl=  0 I1Cent=           0 NGrid=           0
         NMat0=    1 NMatS0=  39060 NMatT0=    0 NMatD0=    1 NMtDS0=    0 NMtDT0=    0
 Symmetry not used in FoFCou.
 Two-electron integral symmetry not used.
 Closed shell SCF:
 Using DIIS extrapolation, IDIIS=  1040.
 NGot=  1048576000 LenX=   285535048 LenY=   285447582
 Requested convergence on RMS density matrix=1.00D-08 within 128 cycles.
 Requested convergence on MAX density matrix=1.00D-06.
 Requested convergence on             energy=1.00D-06.
 No special actions if energy rises.
 Integral accuracy reduced to 1.0D-05 until final iterations.

 Cycle   1  Pass 0  IDiag  1:
 E= -3128.56369654934    
 DIIS: error= 3.61D-02 at cycle   1 NSaved=   1.
 NSaved= 1 IEnMin= 1 EnMin= -3128.56369654934     IErMin= 1 ErrMin= 3.61D-02
 ErrMax= 3.61D-02  0.00D+00 EMaxC= 1.00D-01 BMatC= 5.99D-01 BMatP= 5.99D-01
 IDIUse=3 WtCom= 6.39D-01 WtEn= 3.61D-01
 Coeff-Com:  0.100D+01
 Coeff-En:   0.100D+01
 Coeff:      0.100D+01
 Gap=     0.164 Goal=   None    Shift=    0.000
 GapD=    0.164 DampG=1.000 DampE=0.500 DampFc=0.5000 IDamp=-1.
 Damping current iteration by 5.00D-01
 RMSDP=1.83D-02 MaxDP=6.85D-01              OVMax= 9.53D-01

 Cycle   2  Pass 0  IDiag  1:
 E= -3128.26301678881     Delta-E=        0.300679760529 Rises=F Damp=T
 DIIS: error= 2.51D-02 at cycle   2 NSaved=   2.
 NSaved= 2 IEnMin= 1 EnMin= -3128.56369654934     IErMin= 2 ErrMin= 2.51D-02
 ErrMax= 2.51D-02  0.00D+00 EMaxC= 1.00D-01 BMatC= 2.45D-01 BMatP= 5.99D-01
 IDIUse=3 WtCom= 7.49D-01 WtEn= 2.51D-01
 Coeff-Com:  0.321D+00 0.679D+00
 Coeff-En:   0.675D+00 0.325D+00
 Coeff:      0.410D+00 0.590D+00
 Gap=    -0.415 Goal=   None    Shift=    0.000
 RMSDP=9.37D-03 MaxDP=4.25D-01 DE= 3.01D-01 OVMax= 4.93D-01

 Cycle   3  Pass 0  IDiag  1:
 E= -3128.57146486645     Delta-E=       -0.308448077632 Rises=F Damp=F
 DIIS: error= 4.21D-02 at cycle   3 NSaved=   3.
 NSaved= 3 IEnMin= 3 EnMin= -3128.57146486645     IErMin= 2 ErrMin= 2.51D-02
 ErrMax= 4.21D-02  0.00D+00 EMaxC= 1.00D-01 BMatC= 4.94D-01 BMatP= 2.45D-01
 IDIUse=2 WtCom= 0.00D+00 WtEn= 1.00D+00
 EnCoef did     2 forward-backward iterations
 Coeff-En:   0.214D+00 0.301D+00 0.485D+00
 Coeff:      0.214D+00 0.301D+00 0.485D+00
 Gap=     0.205 Goal=   None    Shift=    0.000
 RMSDP=6.25D-03 MaxDP=2.26D-01 DE=-3.08D-01 OVMax= 5.21D-01

 Cycle   4  Pass 0  IDiag  1:
 E= -3128.95486304162     Delta-E=       -0.383398175179 Rises=F Damp=F
 DIIS: error= 1.73D-02 at cycle   4 NSaved=   4.
 NSaved= 4 IEnMin= 4 EnMin= -3128.95486304162     IErMin= 4 ErrMin= 1.73D-02
 ErrMax= 1.73D-02  0.00D+00 EMaxC= 1.00D-01 BMatC= 1.65D-01 BMatP= 2.45D-01
 IDIUse=3 WtCom= 8.27D-01 WtEn= 1.73D-01
 Coeff-Com:  0.108D+00 0.115D+00 0.316D+00 0.461D+00
 Coeff-En:   0.000D+00 0.000D+00 0.272D+00 0.728D+00
 Coeff:      0.892D-01 0.952D-01 0.308D+00 0.508D+00
 Gap=     0.177 Goal=   None    Shift=    0.000
 RMSDP=3.12D-03 MaxDP=1.58D-01 DE=-3.83D-01 OVMax= 2.15D-01

 Cycle   5  Pass 0  IDiag  1:
 E= -3129.10021345591     Delta-E=       -0.145350414284 Rises=F Damp=F
 DIIS: error= 5.14D-03 at cycle   5 NSaved=   5.
 NSaved= 5 IEnMin= 5 EnMin= -3129.10021345591     IErMin= 5 ErrMin= 5.14D-03
 ErrMax= 5.14D-03  0.00D+00 EMaxC= 1.00D-01 BMatC= 1.43D-02 BMatP= 1.65D-01
 IDIUse=3 WtCom= 9.49D-01 WtEn= 5.14D-02
 Coeff-Com:  0.163D-01 0.256D-01 0.581D-01 0.243D+00 0.657D+00
 Coeff-En:   0.000D+00 0.000D+00 0.000D+00 0.946D-01 0.905D+00
 Coeff:      0.155D-01 0.243D-01 0.551D-01 0.235D+00 0.670D+00
 Gap=     0.149 Goal=   None    Shift=    0.000
 RMSDP=8.24D-04 MaxDP=4.02D-02 DE=-1.45D-01 OVMax= 5.31D-02

 Cycle   6  Pass 0  IDiag  1:
 E= -3129.11102068977     Delta-E=       -0.010807233857 Rises=F Damp=F
 DIIS: error= 2.73D-03 at cycle   6 NSaved=   6.
 NSaved= 6 IEnMin= 6 EnMin= -3129.11102068977     IErMin= 6 ErrMin= 2.73D-03
 ErrMax= 2.73D-03  0.00D+00 EMaxC= 1.00D-01 BMatC= 3.33D-03 BMatP= 1.43D-02
 IDIUse=3 WtCom= 9.73D-01 WtEn= 2.73D-02
 Coeff-Com: -0.550D-02 0.784D-02-0.158D-01 0.720D-01 0.443D+00 0.498D+00
 Coeff-En:   0.000D+00 0.000D+00 0.000D+00 0.000D+00 0.168D+00 0.832D+00
 Coeff:     -0.535D-02 0.762D-02-0.154D-01 0.700D-01 0.436D+00 0.507D+00
 Gap=     0.145 Goal=   None    Shift=    0.000
 RMSDP=3.57D-04 MaxDP=1.76D-02 DE=-1.08D-02 OVMax= 2.61D-02

 Cycle   7  Pass 0  IDiag  1:
 E= -3129.11393466087     Delta-E=       -0.002913971102 Rises=F Damp=F
 DIIS: error= 1.32D-03 at cycle   7 NSaved=   7.
 NSaved= 7 IEnMin= 7 EnMin= -3129.11393466087     IErMin= 7 ErrMin= 1.32D-03
 ErrMax= 1.32D-03  0.00D+00 EMaxC= 1.00D-01 BMatC= 4.52D-04 BMatP= 3.33D-03
 IDIUse=3 WtCom= 9.87D-01 WtEn= 1.32D-02
 Coeff-Com: -0.549D-02 0.404D-02-0.152D-01 0.257D-01 0.225D+00 0.335D+00
 Coeff-Com:  0.432D+00
 Coeff-En:   0.000D+00 0.000D+00 0.000D+00 0.000D+00 0.000D+00 0.826D-01
 Coeff-En:   0.917D+00
 Coeff:     -0.542D-02 0.398D-02-0.150D-01 0.254D-01 0.222D+00 0.331D+00
 Coeff:      0.438D+00
 Gap=     0.146 Goal=   None    Shift=    0.000
 RMSDP=1.04D-04 MaxDP=5.03D-03 DE=-2.91D-03 OVMax= 5.90D-03

 Cycle   8  Pass 0  IDiag  1:
 E= -3129.11433910997     Delta-E=       -0.000404449105 Rises=F Damp=F
 DIIS: error= 1.82D-04 at cycle   8 NSaved=   8.
 NSaved= 8 IEnMin= 8 EnMin= -3129.11433910997     IErMin= 8 ErrMin= 1.82D-04
 ErrMax= 1.82D-04  0.00D+00 EMaxC= 1.00D-01 BMatC= 1.34D-05 BMatP= 4.52D-04
 IDIUse=3 WtCom= 9.98D-01 WtEn= 1.82D-03
 Coeff-Com: -0.212D-02 0.284D-02-0.484D-02 0.358D-02 0.447D-01 0.849D-01
 Coeff-Com:  0.169D+00 0.701D+00
 Coeff-En:   0.000D+00 0.000D+00 0.000D+00 0.000D+00 0.000D+00 0.000D+00
 Coeff-En:   0.000D+00 0.100D+01
 Coeff:     -0.212D-02 0.283D-02-0.483D-02 0.357D-02 0.446D-01 0.847D-01
 Coeff:      0.169D+00 0.702D+00
 Gap=     0.146 Goal=   None    Shift=    0.000
 RMSDP=2.10D-05 MaxDP=5.94D-04 DE=-4.04D-04 OVMax= 8.92D-04

 Cycle   9  Pass 0  IDiag  1:
 E= -3129.11434840577     Delta-E=       -0.000009295798 Rises=F Damp=F
 DIIS: error= 8.69D-05 at cycle   9 NSaved=   9.
 NSaved= 9 IEnMin= 9 EnMin= -3129.11434840577     IErMin= 9 ErrMin= 8.69D-05
 ErrMax= 8.69D-05  0.00D+00 EMaxC= 1.00D-01 BMatC= 3.61D-06 BMatP= 1.34D-05
 IDIUse=1 WtCom= 1.00D+00 WtEn= 0.00D+00
 Coeff-Com: -0.573D-03 0.130D-02-0.847D-03-0.245D-03-0.543D-02 0.295D-02
 Coeff-Com:  0.335D-01 0.358D+00 0.611D+00
 Coeff:     -0.573D-03 0.130D-02-0.847D-03-0.245D-03-0.543D-02 0.295D-02
 Coeff:      0.335D-01 0.358D+00 0.611D+00
 Gap=     0.146 Goal=   None    Shift=    0.000
 RMSDP=9.91D-06 MaxDP=2.43D-04 DE=-9.30D-06 OVMax= 9.82D-04

 Initial convergence to 1.0D-05 achieved.  Increase integral accuracy.
 Cycle  10  Pass 1  IDiag  1:
 E= -3129.11439558282     Delta-E=       -0.000047177048 Rises=F Damp=F
 DIIS: error= 4.01D-05 at cycle   1 NSaved=   1.
 NSaved= 1 IEnMin= 1 EnMin= -3129.11439558282     IErMin= 1 ErrMin= 4.01D-05
 ErrMax= 4.01D-05  0.00D+00 EMaxC= 1.00D-01 BMatC= 4.20D-07 BMatP= 4.20D-07
 IDIUse=1 WtCom= 1.00D+00 WtEn= 0.00D+00
 Coeff-Com:  0.100D+01
 Coeff:      0.100D+01
 Gap=     0.146 Goal=   None    Shift=    0.000
 RMSDP=9.91D-06 MaxDP=2.43D-04 DE=-4.72D-05 OVMax= 1.01D-03

 Cycle  11  Pass 1  IDiag  1:
 E= -3129.11439422219     Delta-E=        0.000001360629 Rises=F Damp=F
 DIIS: error= 8.17D-05 at cycle   2 NSaved=   2.
 NSaved= 2 IEnMin= 1 EnMin= -3129.11439558282     IErMin= 1 ErrMin= 4.01D-05
 ErrMax= 8.17D-05  0.00D+00 EMaxC= 1.00D-01 BMatC= 2.12D-06 BMatP= 4.20D-07
 IDIUse=1 WtCom= 1.00D+00 WtEn= 0.00D+00
 Coeff-Com:  0.695D+00 0.305D+00
 Coeff:      0.695D+00 0.305D+00
 Gap=     0.146 Goal=   None    Shift=    0.000
 RMSDP=8.30D-06 MaxDP=4.12D-04 DE= 1.36D-06 OVMax= 5.59D-04

 Cycle  12  Pass 1  IDiag  1:
 E= -3129.11439602353     Delta-E=       -0.000001801340 Rises=F Damp=F
 DIIS: error= 4.30D-06 at cycle   3 NSaved=   3.
 NSaved= 3 IEnMin= 3 EnMin= -3129.11439602353     IErMin= 3 ErrMin= 4.30D-06
 ErrMax= 4.30D-06  0.00D+00 EMaxC= 1.00D-01 BMatC= 1.24D-08 BMatP= 4.20D-07
 IDIUse=1 WtCom= 1.00D+00 WtEn= 0.00D+00
 Coeff-Com:  0.304D+00 0.120D+00 0.576D+00
 Coeff:      0.304D+00 0.120D+00 0.576D+00
 Gap=     0.146 Goal=   None    Shift=    0.000
 RMSDP=7.51D-07 MaxDP=3.11D-05 DE=-1.80D-06 OVMax= 5.69D-05

 Cycle  13  Pass 1  IDiag  1:
 E= -3129.11439603124     Delta-E=       -0.000000007707 Rises=F Damp=F
 DIIS: error= 3.26D-06 at cycle   4 NSaved=   4.
 NSaved= 4 IEnMin= 4 EnMin= -3129.11439603124     IErMin= 4 ErrMin= 3.26D-06
 ErrMax= 3.26D-06  0.00D+00 EMaxC= 1.00D-01 BMatC= 4.92D-09 BMatP= 1.24D-08
 IDIUse=1 WtCom= 1.00D+00 WtEn= 0.00D+00
 Coeff-Com:  0.364D-01-0.675D-02 0.357D+00 0.613D+00
 Coeff:      0.364D-01-0.675D-02 0.357D+00 0.613D+00
 Gap=     0.146 Goal=   None    Shift=    0.000
 RMSDP=5.66D-07 MaxDP=3.34D-05 DE=-7.71D-09 OVMax= 3.65D-05

 Cycle  14  Pass 1  IDiag  1:
 E= -3129.11439603567     Delta-E=       -0.000000004433 Rises=F Damp=F
 DIIS: error= 1.61D-06 at cycle   5 NSaved=   5.
 NSaved= 5 IEnMin= 5 EnMin= -3129.11439603567     IErMin= 5 ErrMin= 1.61D-06
 ErrMax= 1.61D-06  0.00D+00 EMaxC= 1.00D-01 BMatC= 7.93D-10 BMatP= 4.92D-09
 IDIUse=1 WtCom= 1.00D+00 WtEn= 0.00D+00
 Coeff-Com: -0.168D-01-0.219D-01 0.141D+00 0.393D+00 0.505D+00
 Coeff:     -0.168D-01-0.219D-01 0.141D+00 0.393D+00 0.505D+00
 Gap=     0.146 Goal=   None    Shift=    0.000
 RMSDP=1.87D-07 MaxDP=7.30D-06 DE=-4.43D-09 OVMax= 9.15D-06

 Cycle  15  Pass 1  IDiag  1:
 E= -3129.11439603638     Delta-E=       -0.000000000706 Rises=F Damp=F
 DIIS: error= 3.65D-07 at cycle   6 NSaved=   6.
 NSaved= 6 IEnMin= 6 EnMin= -3129.11439603638     IErMin= 6 ErrMin= 3.65D-07
 ErrMax= 3.65D-07  0.00D+00 EMaxC= 1.00D-01 BMatC= 6.62D-11 BMatP= 7.93D-10
 IDIUse=1 WtCom= 1.00D+00 WtEn= 0.00D+00
 Coeff-Com: -0.112D-01-0.107D-01 0.359D-01 0.150D+00 0.280D+00 0.556D+00
 Coeff:     -0.112D-01-0.107D-01 0.359D-01 0.150D+00 0.280D+00 0.556D+00
 Gap=     0.146 Goal=   None    Shift=    0.000
 RMSDP=5.58D-08 MaxDP=2.44D-06 DE=-7.06D-10 OVMax= 6.86D-06

 Cycle  16  Pass 1  IDiag  1:
 E= -3129.11439603644     Delta-E=       -0.000000000066 Rises=F Damp=F
 DIIS: error= 1.31D-07 at cycle   7 NSaved=   7.
 NSaved= 7 IEnMin= 7 EnMin= -3129.11439603644     IErMin= 7 ErrMin= 1.31D-07
 ErrMax= 1.31D-07  0.00D+00 EMaxC= 1.00D-01 BMatC= 1.18D-11 BMatP= 6.62D-11
 IDIUse=1 WtCom= 1.00D+00 WtEn= 0.00D+00
 Coeff-Com: -0.481D-02-0.300D-02-0.786D-02 0.156D-01 0.748D-01 0.335D+00
 Coeff-Com:  0.590D+00
 Coeff:     -0.481D-02-0.300D-02-0.786D-02 0.156D-01 0.748D-01 0.335D+00
 Coeff:      0.590D+00
 Gap=     0.146 Goal=   None    Shift=    0.000
 RMSDP=2.33D-08 MaxDP=6.49D-07 DE=-6.64D-11 OVMax= 1.39D-06

 Cycle  17  Pass 1  IDiag  1:
 E= -3129.11439603643     Delta-E=        0.000000000014 Rises=F Damp=F
 DIIS: error= 3.11D-08 at cycle   8 NSaved=   8.
 NSaved= 8 IEnMin= 7 EnMin= -3129.11439603644     IErMin= 8 ErrMin= 3.11D-08
 ErrMax= 3.11D-08  0.00D+00 EMaxC= 1.00D-01 BMatC= 4.06D-13 BMatP= 1.18D-11
 IDIUse=1 WtCom= 1.00D+00 WtEn= 0.00D+00
 Coeff-Com: -0.663D-03-0.353D-03-0.516D-02-0.476D-02 0.847D-02 0.906D-01
 Coeff-Com:  0.216D+00 0.696D+00
 Coeff:     -0.663D-03-0.353D-03-0.516D-02-0.476D-02 0.847D-02 0.906D-01
 Coeff:      0.216D+00 0.696D+00
 Gap=     0.146 Goal=   None    Shift=    0.000
 RMSDP=5.08D-09 MaxDP=1.47D-07 DE= 1.36D-11 OVMax= 4.38D-07

 SCF Done:  E(RPBE1PBE) =  -3129.11439604     A.U. after   17 cycles
            NFock= 17  Conv=0.51D-08     -V/T= 2.0011
 KE= 3.125561994204D+03 PE=-9.724422165367D+03 EE= 2.340319734982D+03
 Leave Link  502 at Mon Mar  6 10:24:00 2023, MaxMem=  1048576000 cpu:             131.6 elap:             132.9
 (Enter /ssoft/spack/external/gaussian/g16-C.01/avx2/g16/l801.exe)
 DoSCS=F DFT=T ScalE2(SS,OS)=  1.000000  1.000000
 Range of M.O.s used for correlation:     1   279
 NBasis=   279 NAE=    65 NBE=    65 NFC=     0 NFV=     0
 NROrb=    279 NOA=    65 NOB=    65 NVA=   214 NVB=   214

 **** Warning!!: The largest alpha MO coefficient is  0.12233671D+02

 Leave Link  801 at Mon Mar  6 10:24:00 2023, MaxMem=  1048576000 cpu:               0.0 elap:               0.1
 (Enter /ssoft/spack/external/gaussian/g16-C.01/avx2/g16/l1101.exe)
 Using compressed storage, NAtomX=    27.
 Will process     28 centers per pass.
   1 Symmetry operations used in ECPInt.
 ECPInt:  NShTT=    8385 NPrTT=   31874 LenC2=    7712 LenP2D=   21010.
 LDataN:  DoStor=T MaxTD1= 5 Len=  102
 R6Disp: Adding Grimme-D3(BJ) dispersion energy 1st derivatives to the gradient.
 Leave Link 1101 at Mon Mar  6 10:24:01 2023, MaxMem=  1048576000 cpu:               0.3 elap:               0.4
 (Enter /ssoft/spack/external/gaussian/g16-C.01/avx2/g16/l1102.exe)
 Symmetrizing basis deriv contribution to polar:
 IMax=3 JMax=2 DiffMx= 0.00D+00
 Leave Link 1102 at Mon Mar  6 10:24:01 2023, MaxMem=  1048576000 cpu:               0.1 elap:               0.1
 (Enter /ssoft/spack/external/gaussian/g16-C.01/avx2/g16/l1110.exe)
 Forming Gx(P) for the SCF density, NAtomX=    27.
 Integral derivatives from FoFJK, PRISM(SPDF).
 Do as many integral derivatives as possible in FoFJK.
 G2DrvN: MDV=    1048573083.
 G2DrvN: will do    28 centers at a time, making    1 passes.
 Calling FoFCou, ICntrl=  3107 FMM=F I1Cent=   0 AccDes= 0.00D+00.
 FoFJK:  IHMeth= 1 ICntrl=    3107 DoSepK=F KAlg= 0 I1Cent=           0 FoldK=F
 IRaf=         0 NMat=       1 IRICut=       1 DoRegI=T DoRafI=F ISym2E= 0 IDoP0=0 IntGTp=1.
 FoFCou: FMM=F IPFlag=           0 FMFlag=      100000 FMFlg1=           0
         NFxFlg=           0 DoJE=F BraDBF=F KetDBF=F FulRan=T
         wScrn=  0.000000 ICntrl=      3107 IOpCl=  0 I1Cent=           0 NGrid=           0
         NMat0=    1 NMatS0=      1 NMatT0=    0 NMatD0=    1 NMtDS0=    0 NMtDT0=    0
 Symmetry not used in FoFCou.
 End of G2Drv F.D. properties file   721 does not exist.
 End of G2Drv F.D. properties file   722 does not exist.
 End of G2Drv F.D. properties file   788 does not exist.
 Leave Link 1110 at Mon Mar  6 10:30:33 2023, MaxMem=  1048576000 cpu:             390.8 elap:             392.5
 (Enter /ssoft/spack/external/gaussian/g16-C.01/avx2/g16/l1002.exe)
 Minotr:  Closed shell wavefunction.
          IDoAtm=111111111111111111111111111
          Direct CPHF calculation.
          Differentiating once with respect to electric field.
                with respect to dipole field.
          Differentiating once with respect to nuclear coordinates.
          Requested convergence is 1.0D-08 RMS, and 1.0D-07 maximum.
          Secondary convergence is 1.0D-12 RMS, and 1.0D-12 maximum.
          NewPWx=T KeepS1=F KeepF1=F KeepIn=T MapXYZ=F SortEE=F KeepMc=T.
         8131 words used for storage of precomputed grid.
 Keep R1 ints in memory in canonical form, NReq=775842293.
 FoFCou: FMM=F IPFlag=           0 FMFlag=           0 FMFlg1=           0
         NFxFlg=           0 DoJE=F BraDBF=F KetDBF=F FulRan=T
         wScrn=  0.000000 ICntrl=       600 IOpCl=  0 I1Cent=           0 NGrid=           0
         NMat0=    1 NMatS0=  39060 NMatT0=    0 NMatD0=    1 NMtDS0=    0 NMtDT0=    0
 Symmetry not used in FoFCou.
 Two-electron integral symmetry not used.
          MDV=    1048576000 using IRadAn=       1.
          Solving linear equations simultaneously, MaxMat=       0.
          There are    84 degrees of freedom in the 1st order CPHF.  IDoFFX=6 NUNeed=     3.
     81 vectors produced by pass  0 Test12= 1.66D-14 1.19D-09 XBig12= 2.78D+02 8.49D+00.
 AX will form    81 AO Fock derivatives at one time.
     81 vectors produced by pass  1 Test12= 1.66D-14 1.19D-09 XBig12= 6.35D+01 1.09D+00.
     81 vectors produced by pass  2 Test12= 1.66D-14 1.19D-09 XBig12= 8.83D-01 1.03D-01.
     81 vectors produced by pass  3 Test12= 1.66D-14 1.19D-09 XBig12= 1.11D-02 1.58D-02.
     81 vectors produced by pass  4 Test12= 1.66D-14 1.19D-09 XBig12= 3.34D-05 6.24D-04.
     67 vectors produced by pass  5 Test12= 1.66D-14 1.19D-09 XBig12= 5.45D-08 2.20D-05.
     26 vectors produced by pass  6 Test12= 1.66D-14 1.19D-09 XBig12= 6.61D-11 9.71D-07.
      3 vectors produced by pass  7 Test12= 1.66D-14 1.19D-09 XBig12= 8.07D-14 3.51D-08.
      1 vectors produced by pass  8 Test12= 1.66D-14 1.19D-09 XBig12= 1.06D-16 1.43D-09.
 InvSVY:  IOpt=1 It=  1 EMax= 7.11D-15
 Solved reduced A of dimension   502 with    84 vectors.
 FullF1:  Do perturbations      1 to       3.
 Isotropic polarizability for W=    0.000000      150.77 Bohr**3.
 End of Minotr F.D. properties file   721 does not exist.
 End of Minotr F.D. properties file   722 does not exist.
 End of Minotr F.D. properties file   788 does not exist.
 Leave Link 1002 at Mon Mar  6 10:37:50 2023, MaxMem=  1048576000 cpu:             434.8 elap:             437.1
 (Enter /ssoft/spack/external/gaussian/g16-C.01/avx2/g16/l601.exe)
 Copying SCF densities to generalized density rwf, IOpCl= 0 IROHF=0.

 **********************************************************************

            Population analysis using the SCF Density.

 **********************************************************************

 Orbital symmetries:
       Occupied  (A) (A) (A) (A) (A) (A) (A) (A) (A) (A) (A) (A)
                 (A) (A) (A) (A) (A) (A) (A) (A) (A) (A) (A) (A)
                 (A) (A) (A) (A) (A) (A) (A) (A) (A) (A) (A) (A)
                 (A) (A) (A) (A) (A) (A) (A) (A) (A) (A) (A) (A)
                 (A) (A) (A) (A) (A) (A) (A) (A) (A) (A) (A) (A)
                 (A) (A) (A) (A) (A)
       Virtual   (A) (A) (A) (A) (A) (A) (A) (A) (A) (A) (A) (A)
                 (A) (A) (A) (A) (A) (A) (A) (A) (A) (A) (A) (A)
                 (A) (A) (A) (A) (A) (A) (A) (A) (A) (A) (A) (A)
                 (A) (A) (A) (A) (A) (A) (A) (A) (A) (A) (A) (A)
                 (A) (A) (A) (A) (A) (A) (A) (A) (A) (A) (A) (A)
                 (A) (A) (A) (A) (A) (A) (A) (A) (A) (A) (A) (A)
                 (A) (A) (A) (A) (A) (A) (A) (A) (A) (A) (A) (A)
                 (A) (A) (A) (A) (A) (A) (A) (A) (A) (A) (A) (A)
                 (A) (A) (A) (A) (A) (A) (A) (A) (A) (A) (A) (A)
                 (A) (A) (A) (A) (A) (A) (A) (A) (A) (A) (A) (A)
                 (A) (A) (A) (A) (A) (A) (A) (A) (A) (A) (A) (A)
                 (A) (A) (A) (A) (A) (A) (A) (A) (A) (A) (A) (A)
                 (A) (A) (A) (A) (A) (A) (A) (A) (A) (A) (A) (A)
                 (A) (A) (A) (A) (A) (A) (A) (A) (A) (A) (A) (A)
                 (A) (A) (A) (A) (A) (A) (A) (A) (A) (A) (A) (A)
                 (A) (A) (A) (A) (A) (A) (A) (A) (A) (A) (A) (A)
                 (A) (A) (A) (A) (A) (A) (A) (A) (A) (A) (A) (A)
                 (A) (A) (A) (A) (A) (A) (A) (A) (A) (A)
 The electronic state is 1-A.
 Alpha  occ. eigenvalues -- -483.05904 -62.49269 -56.28232 -56.27928 -56.27920
 Alpha  occ. eigenvalues --  -18.96100 -14.21561 -10.11721 -10.11137 -10.10656
 Alpha  occ. eigenvalues --  -10.09156 -10.08755 -10.07849 -10.07758 -10.06420
 Alpha  occ. eigenvalues --  -10.06333 -10.05636 -10.04829  -8.63876  -6.45260
 Alpha  occ. eigenvalues --   -6.44134  -6.44099  -2.53838  -2.53509  -2.53482
 Alpha  occ. eigenvalues --   -2.52577  -2.52577  -0.81503  -0.80512  -0.74130
 Alpha  occ. eigenvalues --   -0.73062  -0.68421  -0.66847  -0.63850  -0.59830
 Alpha  occ. eigenvalues --   -0.56376  -0.52080  -0.48589  -0.48112  -0.44599
 Alpha  occ. eigenvalues --   -0.40914  -0.39896  -0.37929  -0.35940  -0.34424
 Alpha  occ. eigenvalues --   -0.33977  -0.32551  -0.31703  -0.30286  -0.29006
 Alpha  occ. eigenvalues --   -0.26556  -0.25729  -0.25470  -0.23205  -0.22899
 Alpha  occ. eigenvalues --   -0.20826  -0.20338  -0.17723  -0.17039  -0.15845
 Alpha  occ. eigenvalues --   -0.14630  -0.11156  -0.08838  -0.04162  -0.03065
 Alpha virt. eigenvalues --    0.11544   0.16236   0.17049   0.17822   0.19869
 Alpha virt. eigenvalues --    0.20705   0.22920   0.24203   0.25174   0.25760
 Alpha virt. eigenvalues --    0.26077   0.27551   0.28202   0.28882   0.30299
 Alpha virt. eigenvalues --    0.30698   0.34229   0.35520   0.35568   0.36396
 Alpha virt. eigenvalues --    0.38673   0.40896   0.42437   0.43973   0.46082
 Alpha virt. eigenvalues --    0.46680   0.47308   0.48957   0.50879   0.51369
 Alpha virt. eigenvalues --    0.52319   0.54521   0.56424   0.56967   0.58936
 Alpha virt. eigenvalues --    0.60227   0.60722   0.62016   0.62085   0.63394
 Alpha virt. eigenvalues --    0.64824   0.65039   0.65348   0.65501   0.66032
 Alpha virt. eigenvalues --    0.67425   0.68882   0.70125   0.71433   0.71851
 Alpha virt. eigenvalues --    0.74715   0.77480   0.77740   0.78526   0.79207
 Alpha virt. eigenvalues --    0.79535   0.80424   0.80896   0.81300   0.81914
 Alpha virt. eigenvalues --    0.82373   0.83294   0.84515   0.85192   0.86592
 Alpha virt. eigenvalues --    0.87213   0.88075   0.88264   0.89433   0.90044
 Alpha virt. eigenvalues --    0.90436   0.91630   0.92230   0.92367   0.93230
 Alpha virt. eigenvalues --    0.93687   0.94187   0.95010   0.96438   0.98183
 Alpha virt. eigenvalues --    0.99096   1.01081   1.02967   1.03632   1.05750
 Alpha virt. eigenvalues --    1.07221   1.07994   1.12615   1.15469   1.16993
 Alpha virt. eigenvalues --    1.17269   1.22640   1.24372   1.25031   1.27216
 Alpha virt. eigenvalues --    1.29342   1.30252   1.31473   1.36021   1.37298
 Alpha virt. eigenvalues --    1.39116   1.39901   1.41195   1.42089   1.43039
 Alpha virt. eigenvalues --    1.43827   1.47912   1.50553   1.54673   1.56609
 Alpha virt. eigenvalues --    1.59499   1.60656   1.62119   1.63533   1.67619
 Alpha virt. eigenvalues --    1.68105   1.73152   1.74760   1.77891   1.79271
 Alpha virt. eigenvalues --    1.83021   1.84742   1.85009   1.88920   1.92210
 Alpha virt. eigenvalues --    1.93412   1.94509   1.96216   1.96638   1.97922
 Alpha virt. eigenvalues --    1.99282   2.00249   2.02918   2.03472   2.04287
 Alpha virt. eigenvalues --    2.05435   2.07602   2.07916   2.09541   2.12482
 Alpha virt. eigenvalues --    2.13626   2.16040   2.17698   2.18510   2.20250
 Alpha virt. eigenvalues --    2.21681   2.25041   2.25502   2.28826   2.29451
 Alpha virt. eigenvalues --    2.30872   2.32689   2.33790   2.34170   2.37064
 Alpha virt. eigenvalues --    2.38013   2.39793   2.40448   2.42441   2.42923
 Alpha virt. eigenvalues --    2.48628   2.49909   2.51683   2.53589   2.57451
 Alpha virt. eigenvalues --    2.57500   2.60608   2.61810   2.63355   2.69901
 Alpha virt. eigenvalues --    2.70127   2.73726   2.75188   2.77682   2.78600
 Alpha virt. eigenvalues --    2.83475   2.83827   2.86062   2.88432   2.89866
 Alpha virt. eigenvalues --    2.92324   2.95829   2.97244   2.98650   2.99521
 Alpha virt. eigenvalues --    3.06567   3.09593   3.11118   3.16950   3.19988
 Alpha virt. eigenvalues --    3.22327   3.22515   3.25631   3.30079   3.31306
 Alpha virt. eigenvalues --    3.31771   3.35069   3.35440   3.38958   3.43089
 Alpha virt. eigenvalues --    3.50071   3.53614   3.57236   3.58336   3.58772
 Alpha virt. eigenvalues --    3.62368   3.67371   3.71839   3.74054   3.76649
 Alpha virt. eigenvalues --    3.81151   3.86175   3.95949   4.00223
     Molecular Orbital Coefficients:
                          61        62        63        64        65
                           O         O         O         O         O
     Eigenvalues --    -0.14630  -0.11156  -0.08838  -0.04162  -0.03065
   1 1   Br 1S          0.00004   0.00004   0.00013  -0.00013   0.00006
   2        2S         -0.00010  -0.00012  -0.00035   0.00035  -0.00016
   3        3S          0.00054   0.00061   0.00186  -0.00185   0.00083
   4        4S         -0.00109  -0.00139  -0.00415   0.00397  -0.00123
   5        5S         -0.00144   0.00184   0.00097  -0.00542  -0.00486
   6        6PX         0.00367  -0.00089  -0.00251  -0.00021  -0.00203
   7        6PY         0.00316  -0.00071   0.00098   0.00195  -0.00163
   8        6PZ         0.07346  -0.00725   0.00301  -0.00131  -0.02745
   9        7PX        -0.01129   0.00275   0.00777   0.00066   0.00627
  10        7PY        -0.00974   0.00219  -0.00302  -0.00603   0.00503
  11        7PZ        -0.22630   0.02234  -0.00929   0.00405   0.08481
  12        8PX         0.01688  -0.00422  -0.01224  -0.00110  -0.00959
  13        8PY         0.01454  -0.00333   0.00457   0.00951  -0.00776
  14        8PZ         0.34047  -0.03364   0.01406  -0.00617  -0.12895
  15        9PX         0.01990  -0.00401  -0.01331  -0.00392  -0.01677
  16        9PY         0.01741  -0.00374   0.00530   0.00919  -0.01241
  17        9PZ         0.41491  -0.04449   0.01889  -0.00848  -0.18995
  18       10D 0       -0.00079   0.00022  -0.00003  -0.00008   0.00215
  19       10D+1        0.00506  -0.00251   0.00104  -0.00061  -0.01360
  20       10D-1        0.00348   0.00045   0.00025  -0.00034  -0.00927
  21       10D+2        0.00011  -0.00012  -0.00020  -0.00000  -0.00046
  22       10D-2        0.00051  -0.00007   0.00004  -0.00006  -0.00132
  23       11D 0       -0.00002   0.00002   0.00003  -0.00003  -0.00003
  24       11D+1        0.00011  -0.00026   0.00008  -0.00004  -0.00030
  25       11D-1        0.00004   0.00039  -0.00007  -0.00000  -0.00014
  26       11D+2        0.00001  -0.00007  -0.00005   0.00012   0.00005
  27       11D-2        0.00003  -0.00002  -0.00003   0.00011   0.00003
  28       12D 0        0.00135  -0.00049   0.00007   0.00032  -0.00407
  29       12D+1       -0.00761   0.00582  -0.00228   0.00143   0.02885
  30       12D-1       -0.00508  -0.00276  -0.00010   0.00066   0.01938
  31       12D+2       -0.00026   0.00056   0.00039  -0.00082   0.00059
  32       12D-2       -0.00105   0.00017  -0.00015  -0.00030   0.00229
  33 2   O  1S         -0.00077   0.00377   0.00957  -0.00986   0.00034
  34        2S         -0.00204   0.00824   0.02010  -0.01861  -0.00038
  35        3S          0.00229   0.00843   0.03157  -0.06191   0.01230
  36        4PX         0.01825  -0.01688  -0.14415  -0.35592   0.03170
  37        4PY         0.00891   0.04425   0.20245   0.40799   0.00679
  38        4PZ         0.29406   0.08548  -0.03732   0.02586   0.35751
  39        5PX         0.01163  -0.01428  -0.11240  -0.24599   0.02234
  40        5PY         0.00600   0.03164   0.14638   0.31131   0.00509
  41        5PZ         0.20188   0.05848  -0.02557   0.01799   0.28708
  42        6D 0        0.00196   0.00089   0.00042  -0.00096   0.00135
  43        6D+1       -0.01125  -0.00314   0.00105  -0.00145  -0.00739
  44        6D-1       -0.00834  -0.00242   0.00122   0.00061  -0.00554
  45        6D+2       -0.00039   0.00100   0.00615   0.01349  -0.00045
  46        6D-2       -0.00096  -0.00037  -0.00067  -0.00499  -0.00054
  47 3   N  1S          0.00079  -0.01973  -0.06822   0.04839  -0.00425
  48        2S          0.00229  -0.03926  -0.13482   0.10138  -0.00776
  49        3S         -0.00297  -0.05446  -0.22602   0.18966  -0.02807
  50        4PX        -0.00283   0.04004  -0.00031  -0.00579  -0.02802
  51        4PY        -0.00830   0.14793   0.38998  -0.24107  -0.00376
  52        4PZ        -0.02310   0.25380  -0.11551   0.03170  -0.19576
  53        5PX         0.00745  -0.03356  -0.03000   0.03465   0.02328
  54        5PY         0.00532  -0.10150  -0.28278   0.13541   0.00521
  55        5PZ         0.02320  -0.18118   0.09429  -0.02800   0.17177
  56        6D 0        0.00050  -0.00753  -0.00817   0.00707   0.00150
  57        6D+1       -0.00061   0.00632  -0.00507   0.00121  -0.00051
  58        6D-1       -0.00031   0.01032  -0.00584   0.00186  -0.00635
  59        6D+2        0.00041  -0.00379  -0.00636   0.00687   0.00056
  60        6D-2        0.00010   0.00246   0.00315   0.00239  -0.00065
  61 4   C  1S          0.00061   0.00142   0.00461  -0.00195  -0.00090
  62        2S         -0.00288  -0.00218  -0.00817   0.00569  -0.00043
  63        3S          0.02911  -0.04872  -0.10256  -0.15672   0.06825
  64        4PX         0.01714   0.00596   0.02402   0.06160  -0.00834
  65        4PY         0.01213  -0.00424  -0.03752  -0.06630  -0.00114
  66        4PZ         0.19786   0.05498  -0.01710  -0.00001  -0.07171
  67        5PX         0.00436  -0.00103  -0.05923  -0.00234  -0.01943
  68        5PY        -0.00889   0.02601   0.08286   0.20330  -0.03538
  69        5PZ         0.15699   0.03921  -0.01593  -0.00795   0.03603
  70        6D 0       -0.00283  -0.00049   0.00112  -0.00027  -0.00575
  71        6D+1        0.01457   0.01151  -0.00140   0.00380   0.02604
  72        6D-1        0.01143  -0.00708  -0.00158  -0.00203   0.02152
  73        6D+2        0.00065  -0.00215  -0.01994  -0.04160   0.00178
  74        6D-2        0.00151   0.00078   0.00421   0.01340   0.00230
  75 5   C  1S          0.00073   0.00565   0.01766   0.04514   0.00078
  76        2S         -0.00139  -0.01446  -0.04622  -0.10978  -0.00168
  77        3S         -0.02090  -0.00590  -0.13428  -0.28090  -0.04593
  78        4PX        -0.00166  -0.02892  -0.06750  -0.15534  -0.01430
  79        4PY        -0.00155  -0.01357   0.01645   0.03333  -0.01655
  80        4PZ        -0.03457  -0.22609   0.04745   0.00047  -0.21868
  81        5PX        -0.00053  -0.01376  -0.02508  -0.05531  -0.01212
  82        5PY         0.01462  -0.02363   0.00731   0.00641   0.01757
  83        5PZ        -0.03187  -0.15388   0.03425  -0.00062  -0.21899
  84        6D 0       -0.00195  -0.00194  -0.00050  -0.00215   0.00050
  85        6D+1        0.01242   0.01161  -0.00242   0.00018  -0.00228
  86        6D-1        0.00388   0.00538  -0.00112  -0.00014   0.00365
  87        6D+2        0.00086   0.00056  -0.00076  -0.00108  -0.00018
  88        6D-2        0.00095   0.00118   0.00109   0.00205   0.00034
  89 6   C  1S         -0.00188  -0.00420  -0.00800  -0.01491   0.00029
  90        2S          0.00455   0.00969   0.01871   0.03636  -0.00110
  91        3S          0.02086  -0.00160   0.06277   0.10933   0.05358
  92        4PX        -0.01517  -0.01441   0.03353   0.05270   0.00223
  93        4PY        -0.00976  -0.01281   0.00273   0.01476   0.00391
  94        4PZ        -0.17849  -0.25213   0.04166  -0.00881   0.02044
  95        5PX         0.00077  -0.02227   0.02535   0.04099   0.02432
  96        5PY        -0.00734  -0.00435   0.01038   0.04153  -0.00794
  97        5PZ        -0.11941  -0.19498   0.03471  -0.01020   0.00182
  98        6D 0       -0.00050   0.00148  -0.00018   0.00022   0.00277
  99        6D+1       -0.00366  -0.00714   0.00154   0.00015  -0.00789
 100        6D-1        0.00598  -0.00767   0.00168  -0.00137  -0.01858
 101        6D+2       -0.00059  -0.00053  -0.00327  -0.00667   0.00080
 102        6D-2        0.00001  -0.00060   0.00204   0.00275  -0.00164
 103 7   C  1S          0.00115  -0.00031  -0.00160   0.00077  -0.00259
 104        2S         -0.00263   0.00081   0.00407   0.00148   0.00645
 105        3S         -0.01265   0.00311  -0.02725   0.04262  -0.03278
 106        4PX        -0.01028   0.00263  -0.00866  -0.01464   0.02035
 107        4PY        -0.01075   0.00273   0.01096   0.02449   0.01400
 108        4PZ        -0.18181   0.04341  -0.02095   0.01231   0.29669
 109        5PX        -0.01260   0.00239  -0.01472  -0.00209   0.00179
 110        5PY        -0.00913   0.00820   0.00292   0.00671  -0.00210
 111        5PZ        -0.11315   0.03288  -0.01570   0.01019   0.27915
 112        6D 0        0.00264  -0.00003   0.00030   0.00000  -0.00019
 113        6D+1       -0.01314   0.01238  -0.00238   0.00040   0.00165
 114        6D-1       -0.00849  -0.01460   0.00265  -0.00053  -0.00062
 115        6D+2       -0.00037   0.00127  -0.00224  -0.00120   0.00018
 116        6D-2       -0.00146  -0.00063  -0.00050   0.00121   0.00000
 117 8   C  1S         -0.00085   0.00158   0.00605   0.01232   0.00085
 118        2S          0.00171  -0.00256  -0.01195  -0.02898  -0.00287
 119        3S          0.00996  -0.00478   0.01120  -0.10741   0.03628
 120        4PX        -0.01629   0.01654  -0.02210  -0.01704   0.00428
 121        4PY        -0.00954   0.00632  -0.04298  -0.03004   0.00350
 122        4PZ        -0.18414   0.27494  -0.05152   0.01133   0.04969
 123        5PX        -0.01199   0.00534  -0.03033   0.01066   0.00135
 124        5PY        -0.00210   0.00702  -0.00843  -0.05194   0.02206
 125        5PZ        -0.12096   0.20752  -0.04279   0.01135   0.02434
 126        6D 0       -0.00026  -0.00119  -0.00015  -0.00017   0.00316
 127        6D+1        0.00529   0.00428   0.00054  -0.00045  -0.02229
 128        6D-1       -0.00495   0.00494  -0.00104  -0.00056  -0.00154
 129        6D+2        0.00062  -0.00014  -0.00214  -0.00659  -0.00092
 130        6D-2       -0.00018   0.00080   0.00066   0.00122  -0.00149
 131 9   C  1S          0.00124  -0.00929  -0.03517  -0.02910  -0.00054
 132        2S         -0.00244   0.02159   0.08577   0.07225   0.00262
 133        3S         -0.03732   0.09760   0.30408   0.22840  -0.06691
 134        4PX        -0.00369   0.03393   0.05218  -0.02524  -0.01511
 135        4PY        -0.00138   0.02028   0.05858   0.16041  -0.02472
 136        4PZ        -0.02565   0.18913  -0.02375  -0.01820  -0.25718
 137        5PX        -0.00430   0.03911   0.10534  -0.13847   0.00205
 138        5PY        -0.01461   0.02530   0.06894   0.26343  -0.05326
 139        5PZ        -0.03295   0.12907  -0.01930  -0.02115  -0.26140
 140        6D 0       -0.00204   0.00236   0.00044   0.00160   0.00017
 141        6D+1        0.00723  -0.01358   0.00418   0.00000   0.00026
 142        6D-1        0.01045  -0.00340   0.00031  -0.00022  -0.00174
 143        6D+2       -0.00003  -0.00056   0.00135  -0.00408   0.00002
 144        6D-2        0.00142  -0.00165  -0.00082  -0.00064  -0.00027
 145 10  C  1S         -0.00078  -0.00512  -0.03636   0.02105  -0.00229
 146        2S          0.00095   0.01590   0.09589  -0.04543   0.00401
 147        3S          0.01332  -0.02768  -0.04757   0.02219   0.00588
 148        4PX         0.00161   0.00210   0.09667  -0.01580   0.00061
 149        4PY        -0.00309   0.01193   0.07452  -0.04404  -0.00443
 150        4PZ         0.00346  -0.16052   0.04785   0.00001  -0.03253
 151        5PX         0.00102   0.00763   0.08468  -0.08971   0.01016
 152        5PY         0.00933  -0.04023  -0.09535   0.02607   0.00478
 153        5PZ         0.00955  -0.12110   0.05358  -0.00122   0.00431
 154        6D 0       -0.00061   0.00452   0.00039   0.00036  -0.00338
 155        6D+1        0.00230  -0.02111   0.00245   0.00168   0.01933
 156        6D-1        0.00136  -0.00152   0.00547  -0.00289   0.00008
 157        6D+2       -0.00050   0.00477   0.01929  -0.01495   0.00238
 158        6D-2        0.00069  -0.00667  -0.01088   0.00459   0.00183
 159 11  C  1S         -0.00064  -0.00923  -0.03897   0.02405  -0.00101
 160        2S          0.00143   0.02437   0.09711  -0.06180   0.00259
 161        3S         -0.00914  -0.09980   0.12369  -0.11794   0.05221
 162        4PX         0.00945  -0.02338   0.03303   0.02840   0.00186
 163        4PY         0.00385   0.03363   0.20348  -0.09976   0.01420
 164        4PZ        -0.00797   0.04606  -0.09633   0.03168  -0.03109
 165        5PX         0.00082  -0.06909  -0.03795   0.08431   0.00719
 166        5PY        -0.00417  -0.02811   0.09400  -0.02024   0.02119
 167        5PZ        -0.01853  -0.10596  -0.03604   0.03580   0.04342
 168        6D 0        0.00032  -0.00122   0.00228  -0.00002   0.00019
 169        6D+1       -0.00061   0.00897   0.00302  -0.00160  -0.00716
 170        6D-1        0.00121  -0.00753   0.01179  -0.00431   0.00746
 171        6D+2       -0.00053   0.00676   0.01744  -0.01166  -0.00068
 172        6D-2       -0.00055   0.00136  -0.01286   0.00475  -0.00274
 173 12  H  1S         -0.00098   0.00120   0.00338   0.00600  -0.00137
 174        2S         -0.00677   0.01186   0.05269   0.12241  -0.01522
 175        3PX        -0.00020  -0.00092  -0.00035  -0.00148  -0.00077
 176        3PY        -0.00017  -0.00072   0.00023   0.00092  -0.00110
 177        3PZ        -0.00048  -0.00890   0.00175  -0.00036  -0.00790
 178 13  H  1S          0.00112  -0.00549  -0.02362  -0.04097   0.00146
 179        2S          0.00452  -0.00843  -0.02918  -0.06210   0.00526
 180        3PX        -0.00074  -0.00087   0.00061   0.00106  -0.00005
 181        3PY        -0.00031  -0.00046   0.00035   0.00069   0.00002
 182        3PZ        -0.00599  -0.00977   0.00174  -0.00022   0.00118
 183 14  H  1S         -0.00018   0.00609   0.02806   0.03418  -0.00310
 184        2S          0.00108   0.00134   0.01506   0.04695   0.00090
 185        3PX        -0.00051   0.00051  -0.00144  -0.00028   0.00017
 186        3PY        -0.00044   0.00072  -0.00004  -0.00058  -0.00001
 187        3PZ        -0.00645   0.01056  -0.00201   0.00038   0.00237
 188 15  H  1S          0.00477  -0.03855  -0.09313   0.07385  -0.00016
 189        2S          0.00495  -0.04626  -0.15195   0.11051  -0.00124
 190        3PX        -0.00007  -0.00009  -0.00076   0.00224  -0.00067
 191        3PY         0.00001  -0.00030   0.00413  -0.00252   0.00009
 192        3PZ        -0.00073  -0.00508   0.00103   0.00017  -0.00282
 193 16  C  1S         -0.00231   0.01860  -0.01222   0.00179  -0.01247
 194        2S          0.00512  -0.04839   0.02691  -0.00261   0.03237
 195        3S         -0.00565  -0.12829   0.07875   0.00429   0.08300
 196        4PX        -0.00604   0.04141  -0.02912   0.00264  -0.01655
 197        4PY         0.00286  -0.04075  -0.02284   0.01422   0.02106
 198        4PZ         0.00826  -0.04296   0.04948  -0.00382   0.02758
 199        5PX         0.00044   0.02463   0.01673  -0.02287   0.00769
 200        5PY        -0.00130  -0.02302   0.01287   0.00183   0.01095
 201        5PZ         0.00402  -0.03119   0.01673   0.01947   0.02546
 202        6D 0       -0.00016  -0.00195  -0.01112   0.00561  -0.00044
 203        6D+1        0.00075  -0.00092   0.00951  -0.00269   0.00125
 204        6D-1        0.00047  -0.00094   0.00912  -0.00377   0.00126
 205        6D+2       -0.00010  -0.00085  -0.00540   0.00253  -0.00005
 206        6D-2        0.00029  -0.00303  -0.00438   0.00315   0.00133
 207 17  H  1S         -0.00624   0.01140  -0.09431   0.03157  -0.01010
 208        2S         -0.00586   0.02467  -0.14272   0.06427  -0.03539
 209        3PX        -0.00016   0.00095  -0.00044   0.00020  -0.00062
 210        3PY         0.00031  -0.00237   0.00145  -0.00000   0.00136
 211        3PZ         0.00008  -0.00067   0.00207  -0.00097   0.00079
 212 18  H  1S         -0.00166   0.03806   0.05259  -0.03050  -0.01295
 213        2S         -0.00225   0.04671   0.04644  -0.03548  -0.03219
 214        3PX        -0.00032   0.00126  -0.00226   0.00059  -0.00088
 215        3PY         0.00000   0.00021  -0.00195   0.00094  -0.00006
 216        3PZ         0.00028  -0.00214   0.00111   0.00011   0.00121
 217 19  C  1S          0.00040  -0.01341  -0.01041   0.00576   0.00797
 218        2S         -0.00097   0.03144   0.03102  -0.01700  -0.01996
 219        3S          0.02542   0.26093   0.01509  -0.06138  -0.11171
 220        4PX        -0.00324  -0.04289  -0.05033   0.01174   0.02378
 221        4PY        -0.00319   0.00608  -0.06583   0.02134  -0.00996
 222        4PZ         0.00323  -0.02184   0.00862   0.00089   0.01302
 223        5PX        -0.00713  -0.07285   0.02368  -0.01450   0.04180
 224        5PY         0.00283  -0.00057  -0.03544   0.01327   0.00637
 225        5PZ        -0.00406  -0.05319  -0.06926   0.04771   0.00562
 226        6D 0        0.00061   0.00068   0.00754  -0.00157  -0.00037
 227        6D+1        0.00023   0.00133   0.00230  -0.00100  -0.00004
 228        6D-1        0.00001  -0.00008  -0.00436   0.00317  -0.00122
 229        6D+2       -0.00029   0.00147  -0.00344   0.00027  -0.00064
 230        6D-2       -0.00085   0.00151  -0.01559   0.00630  -0.00348
 231 20  C  1S         -0.00010  -0.00700  -0.00819   0.00251   0.00465
 232        2S          0.00188   0.01679   0.01166  -0.00659  -0.01012
 233        3S         -0.02157   0.00693   0.18798  -0.05778  -0.01577
 234        4PX         0.00379  -0.01221   0.00481   0.00614   0.00389
 235        4PY        -0.00218   0.01063   0.02037  -0.00852  -0.00618
 236        4PZ        -0.00264  -0.00540  -0.02157   0.00079   0.00645
 237        5PX         0.00498   0.01593  -0.01814   0.00360  -0.01073
 238        5PY        -0.01147   0.01653   0.00449   0.01205  -0.03289
 239        5PZ        -0.00057   0.03911  -0.03650   0.00034  -0.02225
 240        6D 0        0.00007   0.00112  -0.00089   0.00014  -0.00080
 241        6D+1        0.00038  -0.00020   0.00434  -0.00111   0.00059
 242        6D-1        0.00014   0.00043   0.00405  -0.00149  -0.00001
 243        6D+2        0.00011  -0.00095  -0.00320   0.00105   0.00048
 244        6D-2       -0.00007   0.00076  -0.00499   0.00170  -0.00102
 245 21  H  1S          0.00229  -0.01375   0.07335  -0.03020   0.01933
 246        2S          0.00103  -0.03129   0.05669  -0.02019   0.03663
 247        3PX         0.00012  -0.00167   0.00112  -0.00113   0.00194
 248        3PY        -0.00009   0.00047   0.00099  -0.00046  -0.00023
 249        3PZ         0.00018  -0.00089   0.00445  -0.00219   0.00134
 250 22  H  1S         -0.00709  -0.00505  -0.09535   0.02613  -0.00662
 251        2S         -0.00839  -0.02444  -0.13864   0.06201  -0.00647
 252        3PX        -0.00002  -0.00149  -0.00207   0.00133   0.00064
 253        3PY        -0.00005   0.00007  -0.00125   0.00098  -0.00078
 254        3PZ         0.00002  -0.00081  -0.00285   0.00114   0.00034
 255 23  H  1S         -0.00299   0.00314  -0.04462   0.01107  -0.00376
 256        2S         -0.00439  -0.01164  -0.06871   0.02982  -0.01141
 257        3PX        -0.00030   0.00061   0.00032   0.00010  -0.00062
 258        3PY         0.00005   0.00043   0.00066  -0.00087   0.00014
 259        3PZ        -0.00005   0.00010  -0.00190   0.00068   0.00011
 260 24  H  1S         -0.00119   0.01146   0.02796  -0.01331  -0.00225
 261        2S          0.02350  -0.03117  -0.05422  -0.00143   0.05362
 262        3PX         0.00008   0.00176   0.00111  -0.00079  -0.00090
 263        3PY        -0.00031  -0.00074   0.00106   0.00024   0.00010
 264        3PZ        -0.00023   0.00210   0.00085  -0.00125  -0.00117
 265 25  H  1S         -0.01052   0.00545  -0.21337   0.08156  -0.02984
 266        2S         -0.00769  -0.01463  -0.21772   0.14486  -0.03678
 267        3PX        -0.00015   0.00092  -0.00655   0.00305  -0.00175
 268        3PY        -0.00031   0.00215   0.00455  -0.00486   0.00011
 269        3PZ         0.00024   0.00278   0.00114  -0.00059  -0.00131
 270 26  H  1S          0.00178  -0.00622   0.00177   0.00364   0.00294
 271        2S          0.00274  -0.02601  -0.00476   0.00944   0.02186
 272        3PX         0.00022  -0.00078   0.00053  -0.00014   0.00060
 273        3PY         0.00022   0.00031   0.00110  -0.00083   0.00025
 274        3PZ        -0.00004  -0.00104  -0.00108   0.00012   0.00069
 275 27  H  1S          0.00449  -0.02639   0.03177  -0.00500   0.01433
 276        2S          0.00731   0.01727   0.02615  -0.00199   0.00619
 277        3PX         0.00020  -0.00138  -0.00065   0.00038   0.00069
 278        3PY        -0.00007   0.00028  -0.00211   0.00076  -0.00040
 279        3PZ         0.00023  -0.00127   0.00282  -0.00081   0.00089
                          66        67        68        69        70
                           V         V         V         V         V
     Eigenvalues --     0.11544   0.16236   0.17049   0.17822   0.19869
   1 1   Br 1S         -0.00013   0.01139  -0.00390   0.00048   0.00034
   2        2S          0.00034  -0.03035   0.01039  -0.00130  -0.00092
   3        3S         -0.00177   0.15806  -0.05403   0.00661   0.00465
   4        4S          0.00334  -0.20633   0.06704  -0.00393  -0.00224
   5        5S         -0.00179  -0.60818   0.22523  -0.05061  -0.03583
   6        6PX         0.00028  -0.04908   0.01631  -0.00170  -0.00125
   7        6PY         0.00038  -0.03334   0.01096  -0.00143  -0.00033
   8        6PZ        -0.00346   0.00308  -0.00150   0.01129   0.00925
   9        7PX        -0.00087   0.15162  -0.05033   0.00524   0.00386
  10        7PY        -0.00118   0.10297  -0.03384   0.00443   0.00100
  11        7PZ         0.01074  -0.00951   0.00462  -0.03486  -0.02860
  12        8PX         0.00099  -0.20496   0.06642  -0.00625  -0.00437
  13        8PY         0.00186  -0.13876   0.04451  -0.00570  -0.00042
  14        8PZ        -0.01749   0.01264  -0.00607   0.04783   0.04011
  15        9PX         0.00319  -0.76051   0.26641  -0.04098  -0.02989
  16        9PY        -0.00073  -0.51848   0.18942  -0.02865  -0.01523
  17        9PZ        -0.02173   0.05237  -0.02495   0.14758   0.11708
  18       10D 0        0.00034   0.03298  -0.01183  -0.00105  -0.00117
  19       10D+1       -0.00109   0.00559  -0.00231   0.01914   0.02125
  20       10D-1       -0.00546   0.00339  -0.00253   0.01709   0.00970
  21       10D+2        0.00040  -0.02420   0.00799  -0.00111  -0.00093
  22       10D-2        0.00007  -0.06250   0.02216  -0.00247  -0.00131
  23       11D 0        0.00002  -0.00485   0.00196  -0.00036  -0.00027
  24       11D+1        0.00021  -0.00090   0.00052  -0.00099   0.00090
  25       11D-1       -0.00129  -0.00073   0.00013   0.00041  -0.00078
  26       11D+2       -0.00012   0.00275  -0.00059   0.00022   0.00026
  27       11D-2        0.00008   0.00696  -0.00281   0.00054   0.00040
  28       12D 0       -0.00085  -0.04840   0.01655   0.00465   0.00441
  29       12D+1        0.00166  -0.00759   0.00256  -0.04061  -0.05625
  30       12D-1        0.01864  -0.00364   0.00505  -0.04260  -0.01989
  31       12D+2       -0.00016   0.04010  -0.01553   0.00126   0.00080
  32       12D-2       -0.00074   0.10476  -0.03552   0.00263   0.00094
  33 2   O  1S          0.00037   0.00016   0.00022  -0.00047  -0.00013
  34        2S          0.00099  -0.00023  -0.00105  -0.00258  -0.00091
  35        3S          0.00106   0.00571   0.01079   0.01157   0.00525
  36        4PX         0.01114   0.00168  -0.00655   0.02081   0.00440
  37        4PY         0.00368   0.01140   0.00137   0.01390   0.00608
  38        4PZ         0.13952  -0.02080  -0.00361   0.25061   0.08549
  39        5PX         0.01000   0.00296  -0.00742   0.02016   0.00506
  40        5PY         0.00301   0.00648  -0.00103   0.01105   0.00539
  41        5PZ         0.12993  -0.02223  -0.00509   0.26786   0.09074
  42        6D 0        0.00021   0.00023  -0.00013  -0.00026  -0.00018
  43        6D+1       -0.00029  -0.00006   0.00004   0.00057   0.00218
  44        6D-1       -0.00124  -0.00020  -0.00036   0.00299  -0.00092
  45        6D+2        0.00001   0.00032  -0.00019  -0.00014   0.00025
  46        6D-2       -0.00009   0.00045   0.00003   0.00030   0.00016
  47 3   N  1S         -0.00230   0.02228   0.03700   0.00217   0.00458
  48        2S         -0.00867   0.05096   0.09467   0.00069   0.01466
  49        3S          0.03293   0.09732   0.05351   0.06477  -0.03359
  50        4PX         0.04657  -0.00932  -0.06243   0.00805  -0.02325
  51        4PY         0.03078  -0.00715  -0.00687   0.00677  -0.00815
  52        4PZ         0.32532   0.00344  -0.00796   0.07960  -0.18378
  53        5PX        -0.03918  -0.01361  -0.00887  -0.03363   0.03793
  54        5PY        -0.04462   0.02293   0.06427  -0.02347   0.03397
  55        5PZ        -0.33588   0.00152   0.02272  -0.12336   0.24462
  56        6D 0       -0.00052   0.00157   0.00126  -0.00007  -0.00027
  57        6D+1       -0.00975   0.00076   0.00251  -0.00319   0.01068
  58        6D-1        0.00690  -0.00028  -0.00038   0.00012   0.00007
  59        6D+2       -0.00122  -0.00348  -0.00448  -0.00027  -0.00049
  60        6D-2       -0.00048   0.00147  -0.00239  -0.00051   0.00199
  61 4   C  1S          0.00105  -0.01761  -0.00192  -0.00220  -0.00471
  62        2S         -0.00405   0.03936   0.00272  -0.00006   0.01231
  63        3S         -0.00495   0.07189  -0.08978   0.05565   0.06879
  64        4PX        -0.01217  -0.01717   0.01006  -0.02566  -0.01016
  65        4PY         0.00112  -0.01770  -0.01852  -0.01778  -0.01255
  66        4PZ        -0.11343   0.02787   0.01102  -0.32538  -0.10543
  67        5PX        -0.00903  -0.03827  -0.00034  -0.06286  -0.02904
  68        5PY        -0.00035  -0.00024   0.02260  -0.02595  -0.02550
  69        5PZ        -0.09083   0.02816   0.00662  -0.32697  -0.10708
  70        6D 0       -0.00244   0.00254   0.00019  -0.00248  -0.00056
  71        6D+1        0.01988  -0.00002   0.00180   0.00599   0.01579
  72        6D-1       -0.00380  -0.00205  -0.00348   0.02421  -0.01604
  73        6D+2        0.00239  -0.00071  -0.00011  -0.00089   0.00194
  74        6D-2        0.00077   0.00027   0.00173   0.00146  -0.00007
  75 5   C  1S          0.00102  -0.01971   0.01136  -0.00291   0.00210
  76        2S         -0.00224   0.04033  -0.02677   0.00515  -0.00415
  77        3S         -0.03085   0.04211   0.01182  -0.03025  -0.05071
  78        4PX        -0.01590  -0.05428   0.00645   0.00895  -0.02386
  79        4PY        -0.01423  -0.02006   0.00579   0.01312  -0.01446
  80        4PZ        -0.20061  -0.00958  -0.04101   0.18186  -0.20406
  81        5PX        -0.01379  -0.04627  -0.02162   0.00312  -0.04249
  82        5PY        -0.00144   0.04385  -0.05650   0.07071  -0.01166
  83        5PZ        -0.28547  -0.02287  -0.05487   0.25653  -0.35147
  84        6D 0        0.00237   0.00211  -0.00113   0.00261   0.00333
  85        6D+1       -0.01474   0.00139  -0.00077  -0.02038  -0.02109
  86        6D-1       -0.00284   0.00065  -0.00181   0.00826  -0.00749
  87        6D+2       -0.00113   0.01003  -0.00411  -0.00123  -0.00129
  88        6D-2       -0.00082  -0.00311  -0.00013  -0.00044  -0.00213
  89 6   C  1S          0.00126   0.00068  -0.00010  -0.00016   0.00177
  90        2S         -0.00302  -0.00526   0.00232  -0.00134  -0.00167
  91        3S          0.01107   0.32367  -0.15283   0.08988  -0.00645
  92        4PX         0.02052  -0.03825   0.01803   0.00031   0.02510
  93        4PY         0.01304   0.08119  -0.03196   0.00608   0.01960
  94        4PZ         0.23059  -0.00795   0.03215   0.06558   0.30511
  95        5PX         0.05514  -0.03696  -0.02404   0.03304   0.05346
  96        5PY         0.01978   0.12682  -0.08054  -0.01054   0.03206
  97        5PZ         0.31297  -0.00270   0.05432   0.10053   0.54329
  98        6D 0        0.00220   0.00149   0.00008  -0.00359   0.00025
  99        6D+1       -0.01099  -0.00122  -0.00180   0.00788  -0.01146
 100        6D-1       -0.00955  -0.00384  -0.00122   0.02385   0.00587
 101        6D+2        0.00009  -0.00905   0.00241  -0.00150  -0.00157
 102        6D-2       -0.00148   0.02079  -0.00734   0.00353   0.00014
 103 7   C  1S          0.00161  -0.11360   0.03733  -0.00553  -0.00624
 104        2S         -0.00313   0.27026  -0.08733   0.01422   0.01675
 105        3S         -0.06162   0.83742  -0.15501  -0.01139   0.05494
 106        4PX         0.00257  -0.31979   0.11635  -0.03722  -0.02630
 107        4PY         0.00811  -0.22926   0.07997  -0.02835  -0.02215
 108        4PZ         0.05252   0.05862  -0.01024  -0.26889  -0.24790
 109        5PX        -0.03575  -0.56534   0.30706  -0.08713  -0.04294
 110        5PY         0.01607  -0.44783   0.10037  -0.07887  -0.05045
 111        5PZ         0.04074   0.09675  -0.01746  -0.47905  -0.39151
 112        6D 0        0.00014   0.00577  -0.00231  -0.00121  -0.00231
 113        6D+1       -0.01605  -0.00038  -0.00247   0.01772   0.00125
 114        6D-1        0.01824   0.00170   0.00260  -0.00515   0.02026
 115        6D+2       -0.00229  -0.00408   0.00031   0.00153  -0.00135
 116        6D-2        0.00090  -0.00869   0.00164   0.00013   0.00157
 117 8   C  1S         -0.00294   0.00757   0.00061  -0.00185   0.00333
 118        2S          0.00734  -0.02121  -0.00124   0.00447  -0.00754
 119        3S          0.06741   0.35300  -0.07572   0.12201  -0.04306
 120        4PX        -0.01308   0.05291  -0.03585   0.02870  -0.00006
 121        4PY        -0.01354  -0.07310   0.00329   0.01147   0.00175
 122        4PZ        -0.23924  -0.03554  -0.02647   0.30285   0.05215
 123        5PX        -0.05123   0.19300   0.09671   0.06779   0.02007
 124        5PY        -0.00830  -0.09070  -0.04487   0.03590   0.00934
 125        5PZ        -0.27966  -0.06125  -0.06149   0.55100   0.01975
 126        6D 0       -0.00102   0.00040  -0.00200  -0.00011  -0.00462
 127        6D+1        0.00622  -0.00285   0.00227   0.01005   0.02490
 128        6D-1        0.00271   0.00140   0.00153  -0.01347   0.00585
 129        6D+2       -0.00032   0.02158  -0.00673   0.00301   0.00262
 130        6D-2        0.00060   0.01255  -0.00357  -0.00001   0.00195
 131 9   C  1S          0.00259  -0.02218   0.00794   0.00010  -0.00104
 132        2S         -0.00759   0.05527  -0.00696  -0.00004   0.00404
 133        3S         -0.02336  -0.09072  -0.04004  -0.06569  -0.03899
 134        4PX         0.00258  -0.05169   0.01919  -0.01376   0.01993
 135        4PY         0.00754  -0.04043   0.01701  -0.01545   0.01459
 136        4PZ         0.12112   0.02557   0.03832  -0.14026   0.24938
 137        5PX        -0.00605   0.00715   0.07327   0.01111   0.03026
 138        5PY         0.02348   0.07043   0.13175   0.01082  -0.00585
 139        5PZ         0.14216   0.02373   0.04952  -0.28541   0.37257
 140        6D 0       -0.00148   0.00196  -0.00211   0.00486   0.00142
 141        6D+1        0.02360   0.00257   0.00081  -0.00543  -0.01233
 142        6D-1       -0.00805   0.00187   0.00192  -0.03319  -0.00123
 143        6D+2        0.00388  -0.01210  -0.00206   0.00100  -0.00316
 144        6D-2        0.00243   0.00101  -0.00567  -0.00223  -0.00242
 145 10  C  1S         -0.00251   0.00680  -0.01220  -0.00127   0.00421
 146        2S          0.00284  -0.02545   0.02471  -0.00081  -0.00668
 147        3S          0.03353   0.16304   0.29067   0.01483  -0.02459
 148        4PX         0.03283   0.01536  -0.06030   0.01132  -0.03370
 149        4PY         0.04372  -0.07381  -0.08407   0.00336  -0.03752
 150        4PZ         0.29522   0.00767  -0.00434   0.10662  -0.26143
 151        5PX         0.00611  -0.02693  -0.04043  -0.01449  -0.02812
 152        5PY         0.04885  -0.17786  -0.27405  -0.02423  -0.02698
 153        5PZ         0.32616   0.01169  -0.01095   0.24162  -0.39891
 154        6D 0        0.00580  -0.00283  -0.00429   0.00194  -0.00286
 155        6D+1       -0.02241  -0.00203  -0.00265  -0.00129  -0.00442
 156        6D-1       -0.00600   0.00073   0.00139  -0.01142   0.01460
 157        6D+2       -0.00204   0.00516   0.00016   0.00073   0.00143
 158        6D-2       -0.00386   0.00229   0.00339  -0.00114   0.00246
 159 11  C  1S         -0.00468   0.00476  -0.00710  -0.00297   0.00736
 160        2S          0.01185  -0.02437  -0.00779   0.00781  -0.02699
 161        3S         -0.09064   0.11373   0.39903  -0.00025   0.06689
 162        4PX         0.01407   0.00852  -0.04396   0.00359  -0.01410
 163        4PY         0.00913  -0.06616  -0.14376  -0.00341  -0.02836
 164        4PZ         0.00922   0.02678   0.06960  -0.00154   0.02079
 165        5PX         0.03128  -0.09009  -0.36221   0.02274  -0.12830
 166        5PY        -0.03741  -0.10549  -0.24931  -0.00468  -0.06160
 167        5PZ        -0.21031   0.04493   0.11029  -0.01558   0.10078
 168        6D 0        0.00083  -0.00151  -0.00405   0.00095  -0.00306
 169        6D+1        0.01404   0.00160   0.00404   0.00402  -0.01002
 170        6D-1       -0.01418   0.00053   0.00243  -0.00371   0.00963
[...]
 00024088,0.00040983,-0.00016422,-0.01964080,-0.18190882,0.18068393,-0.
 10500097,1.16673360,-0.00008032,-0.00004973,-0.00001340,0.00017808,-0.
 00011978,-0.00008794,-0.00116611,0.00252897,-0.00081961,-0.00006309,0.
 00003768,0.00008153,0.00007617,0.00004618,0.00006225,-0.00019269,-0.00
 000124,-0.00006021,0.00013600,-0.00022002,0.00002965,0.00019972,0.0002
 4091,0.00003108,0.00009479,-0.00015635,-0.00057221,0.00060688,0.001187
 62,-0.00011562,0.00413913,0.01627925,-0.02404977,0.00001258,-0.0000098
 7,-0.00000530,-0.00000705,-0.00001585,-0.00000433,0.00002992,0.0000307
 3,0.00001576,0.00009675,-0.00026428,0.00057001,0.00158707,-0.00214665,
 -0.00068299,-0.00038028,-0.00006980,-0.00067515,-0.00024468,0.00015493
 ,0.00010379,0.02820960,0.19679230,-0.41115063,0.08749680,0.45598219,1.
 26538974,0.00002095,0.00001565,0.00000353,0.00006816,0.00004258,0.0001
 1084,0.00253905,-0.00308087,-0.00187388,-0.00006384,-0.00006745,-0.000
 06100,0.00002360,0.00005545,-0.00003930,-0.00002235,-0.00000361,0.0000
 1123,-0.00000354,-0.00000309,-0.00001234,-0.00002771,-0.00000884,-0.00
 001503,0.00000018,0.00000017,0.00033610,-0.00020746,-0.00005826,0.0001
 1346,0.00255709,-0.00802368,-0.00738355,-0.00000113,0.00000317,-0.0000
 0032,-0.00000148,0.00000504,0.00000580,-0.00001264,-0.00000511,-0.0000
 0181,-0.00004078,0.00006861,-0.00041011,-0.00033394,-0.00070810,-0.001
 06041,-0.00038124,0.00013437,0.00029538,0.00020547,0.00007431,0.000689
 33,-0.33253745,0.33208674,0.05882982,0.00424159,-0.00451872,0.00162655
 ,0.32629846,-0.00014673,-0.00005994,-0.00006508,0.00035982,0.00012283,
 0.00015334,-0.00209556,-0.00063743,-0.00513975,-0.00033178,-0.00015842
 ,-0.00019623,0.00015921,0.00032269,0.00002550,-0.00053555,-0.00003472,
 -0.00010411,0.00033389,-0.00060546,-0.00003557,0.00048181,0.00039983,0
 .00022580,-0.00071652,-0.00106081,0.00035212,0.00215745,0.00059157,-0.
 00024263,0.01442202,-0.02177176,-0.00277853,0.00001617,-0.00000426,0.0
 0000136,-0.00001657,-0.00001682,0.00000481,-0.00001282,0.00003457,0.00
 003141,-0.00020629,0.00026997,-0.00027831,-0.00008611,0.00206156,0.001
 65362,0.00021124,-0.00017306,0.00012580,-0.00007024,0.00027910,-0.0008
 7009,0.32899472,-0.33480679,-0.06617589,0.02119953,-0.02768693,0.00506
 498,-0.34492711,0.36370447,-0.00011325,-0.00005244,-0.00005859,0.00039
 147,0.00007035,0.00023853,-0.00134971,-0.00139284,-0.00519247,-0.00034
 416,-0.00016771,-0.00021169,0.00016820,0.00028896,0.00000675,-0.000467
 26,-0.00003197,-0.00007852,0.00027777,-0.00049111,-0.00004789,0.000366
 09,0.00026358,0.00018814,-0.00067549,-0.00083211,0.00041024,0.00216798
 ,0.00022395,-0.00023033,0.02035080,-0.03997968,-0.01432071,0.00001562,
 -0.00000665,-0.00000405,-0.00001440,-0.00001366,0.00000739,-0.00000569
 ,0.00003300,0.00004262,-0.00018693,0.00037714,-0.00027216,0.00058205,-
 0.00051723,0.00128223,0.00004584,0.00021629,0.00018908,-0.00027904,0.0
 0076376,-0.00046564,0.05826131,-0.06424697,0.00354591,-0.02565129,0.04
 082585,-0.00936791,-0.05275342,0.06330256,0.03644796,-0.00011261,-0.00
 005795,-0.00003415,0.00033024,-0.00006349,0.00006196,-0.00095326,-0.00
 301518,-0.00072266,-0.00021602,-0.00008679,-0.00005841,0.00011971,0.00
 018676,0.00006112,-0.00036757,-0.00002828,-0.00008909,0.00024593,-0.00
 040842,0.00001214,0.00030684,0.00029580,0.00008240,-0.00022488,-0.0005
 2623,-0.00012552,0.00075831,0.00048753,0.00000151,-0.00512195,-0.00432
 395,-0.00635896,0.00001384,-0.00001015,-0.00000147,-0.00001184,-0.0000
 1678,-0.00000192,0.00001742,0.00003827,0.00000651,-0.00005976,0.000400
 57,0.00014649,0.00227794,0.00022719,0.00007596,-0.00072264,0.00061864,
 -0.00143955,-0.00038966,0.00016899,-0.00001225,-0.93289191,-0.35682391
 ,-0.05212597,-0.00458620,-0.00313449,0.00029290,-0.01227230,-0.0174195
 6,-0.00118002,0.94472789,0.00002609,0.00000513,0.00000571,0.00016408,0
 .00015060,0.00009545,0.00019725,0.00268861,0.00091669,-0.00025716,-0.0
 0010121,-0.00004053,0.00005487,0.00001936,-0.00001036,0.00001400,0.000
 02051,0.00000434,-0.00000782,0.00005764,-0.00000968,-0.00003963,-0.000
 01489,-0.00003127,0.00024653,-0.00011524,0.00023665,-0.00061097,-0.000
 52716,0.00018995,-0.02716623,-0.00664402,-0.00349147,-0.00000342,-0.00
 001029,0.00000636,0.00000154,0.00000255,0.00000283,0.00000958,0.000001
 26,0.00001175,0.00046306,-0.00009077,-0.00022460,0.00221077,0.00104330
 ,-0.00031953,-0.00000491,0.00040870,-0.00106871,0.00018795,-0.00019163
 ,0.00000947,-0.35251805,-0.06293185,-0.02689333,-0.03414486,-0.0165882
 9,0.00730207,0.03393624,0.01927817,0.00248709,0.38450980,0.06080435,-0
 .00002290,-0.00001375,-0.00000590,0.00007704,-0.00000668,0.00001993,0.
 00158201,0.00099900,0.00059914,-0.00010169,-0.00009013,-0.00003482,0.0
 0005747,0.00001209,0.00000853,-0.00005328,-0.00000721,-0.00001261,0.00
 004343,-0.00005625,0.00000959,0.00003467,0.00007545,0.00000458,0.00026
 386,-0.00019030,0.00011936,-0.00022276,-0.00056012,0.00003447,-0.06205
 630,-0.02878693,-0.01698235,0.00000034,-0.00001262,-0.00000102,-0.0000
 0107,-0.00000419,-0.00000007,0.00000942,0.00002011,-0.00000247,0.00044
 604,0.00026423,-0.00005301,0.00170909,0.00037360,0.00500490,0.00125672
 ,0.00122563,-0.00125246,-0.00010056,-0.00002677,-0.00006055,-0.0531892
 7,-0.02516447,0.08262439,0.04438750,0.02953898,-0.01541641,0.00441776,
 0.00269574,-0.00511716,0.06483592,0.02156289,-0.03619844,0.00002098,0.
 00000121,-0.00000056,0.00014469,0.00011393,-0.00002698,0.00028973,0.00
 108276,0.00005609,-0.00016398,-0.00003488,0.00002110,0.00003119,0.0000
 1414,-0.00001435,0.00002540,0.00001680,0.00000428,0.00000981,0.0000863
 5,-0.00001751,-0.00006500,-0.00002001,-0.00002866,0.00020254,0.0002385
 4,-0.00004755,-0.00014522,-0.00008472,-0.00019796,0.00344471,0.0003048
 9,-0.00023044,-0.00000272,-0.00000486,0.00000743,0.00000072,0.00000004
 ,0.00000570,0.00001496,-0.00000979,0.00003508,0.00020964,-0.00024434,0
 .00019714,-0.00028203,0.00050028,0.00004863,-0.00012943,-0.00025148,0.
 00007427,-0.00005155,0.00001849,-0.00011342,-0.00929984,-0.00512517,0.
 00286165,-0.32507518,-0.11403576,0.00439248,0.00225256,0.00018399,0.00
 024810,0.00336058,-0.00314386,0.00237806,0.35656217,0.00003941,0.00001
 556,0.00001031,-0.00006210,-0.00000269,0.00000708,0.00028536,-0.000071
 67,0.00008243,0.00004156,0.00001373,0.00001021,-0.00003047,-0.00004634
 ,-0.00000972,0.00009015,0.00000732,0.00002640,-0.00006807,0.00010852,-
 0.00000999,-0.00010396,-0.00009716,-0.00002102,0.00005635,0.00010535,0
 .00002642,-0.00026912,-0.00005718,0.00000591,0.00220078,0.00136596,-0.
 00103882,-0.00000214,0.00000331,-0.00000250,0.00000250,0.00000466,0.00
 000029,0.00000157,-0.00001025,0.00000138,0.00000942,-0.00004431,-0.000
 00846,0.00005852,0.00013728,-0.00027550,-0.00012671,-0.00010099,-0.000
 05896,-0.00003598,-0.00006036,-0.00000568,-0.02690645,-0.01231792,0.00
 506898,-0.11120768,-0.08697088,-0.00438660,-0.00100677,0.00060130,-0.0
 0032697,-0.00057992,-0.00196561,0.00574472,0.13101538,0.09453577,0.000
 04901,0.00002331,0.00001230,-0.00011993,0.00001280,-0.00002172,0.00020
 197,0.00048198,0.00005413,0.00008413,0.00003995,0.00003205,-0.00005040
 ,-0.00007571,-0.00002511,0.00015746,0.00001548,0.00003992,-0.00010262,
 0.00018181,-0.00001109,-0.00013345,-0.00013854,-0.00003154,0.00008875,
 0.00016488,0.00002160,-0.00024513,-0.00085237,-0.00010378,0.00189629,-
 0.00074449,0.00371070,-0.00000672,0.00000359,0.00000023,0.00000460,0.0
 0000747,0.00000149,-0.00000704,-0.00001495,-0.00000195,0.00005423,-0.0
 0001790,-0.00005889,-0.00029788,0.00031180,0.00009896,0.00005131,-0.00
 013544,0.00031536,0.00008596,-0.00003540,0.00002665,0.04159222,0.01977
 750,-0.00674161,0.01051053,-0.00207528,-0.04272148,0.00026203,-0.00150
 880,0.00065532,0.00135035,0.00623004,-0.00754777,-0.01885005,-0.011510
 73,0.04764685,0.00003656,0.00001598,0.00000820,-0.00025606,-0.00003746
 ,0.00005285,-0.00015170,0.00006781,0.00094566,0.00013597,0.00000095,-0
 .00008273,-0.00005021,-0.00008838,-0.00001929,0.00012149,0.00000391,0.
 00002928,-0.00009471,0.00011682,0.00000849,-0.00011807,-0.00010338,-0.
 00002318,0.00001867,0.00009434,0.00016572,-0.00071057,-0.00039406,-0.0
 0021069,0.00080325,0.00120143,0.00099122,-0.00000296,0.00000275,-0.000
 00463,0.00000387,0.00000400,-0.00000175,0.00000115,-0.00000639,-0.0000
 0667,0.00000661,0.00000546,-0.00008591,0.00007319,0.00004948,-0.000090
 59,-0.00000885,-0.00000444,0.00000881,0.00001293,-0.00007712,-0.000015
 72,0.00469818,-0.00655919,-0.00025219,-0.20819826,0.33785858,0.0078368
 2,0.00241101,-0.00031950,0.00025116,0.00115860,-0.00071804,-0.00073396
 ,-0.02425517,0.03042151,-0.00120102,0.21717993,0.00004870,0.00002332,0
 .00001955,0.00003161,0.00017147,0.00030792,0.00006030,0.00027837,-0.00
 026283,-0.00025088,-0.00009176,-0.00008591,0.00001905,-0.00000659,0.00
 000117,0.00007613,0.00002409,0.00000561,-0.00006641,0.00011070,0.00001
 319,-0.00010671,-0.00010008,-0.00006054,0.00019406,0.00010611,0.000008
 62,-0.00033608,0.00006745,-0.00013692,-0.00016794,0.00070472,-0.001277
 74,-0.00000766,-0.00000217,0.00000336,0.00000622,0.00000816,0.00000035
 ,0.00000466,-0.00000851,-0.00000762,-0.00005631,0.00002932,0.00010337,
 0.00012780,0.00002198,0.00006839,-0.00003959,-0.00001922,0.00001484,-0
 .00003581,0.00002860,-0.00005252,0.01400064,-0.01688919,0.00196348,0.3
 3423998,-0.50327246,-0.02387808,-0.00059932,-0.00173222,0.00397458,-0.
 00009257,0.00088455,-0.00081858,-0.01316755,0.01203556,0.00002897,-0.3
 4662331,0.51859883,0.00011989,0.00004877,0.00003131,-0.00011486,0.0001
 6609,0.00014120,0.00047836,-0.00013757,0.00086287,-0.00001732,0.000029
 02,-0.00001532,-0.00005646,-0.00017326,-0.00008492,0.00041059,0.000030
 80,0.00008656,-0.00025523,0.00052963,0.00000963,-0.00042246,-0.0004636
 0,-0.00014223,0.00018622,0.00077175,0.00029112,-0.00045189,-0.00189672
 ,-0.00040156,-0.00061582,0.00106731,0.00358043,-0.00002122,0.00000031,
 0.00001347,0.00001604,0.00001836,0.00000768,0.00000147,-0.00002408,-0.
 00000837,0.00015606,0.00011605,-0.00023016,-0.00002139,-0.00016166,-0.
 00043655,-0.00003114,-0.00005934,0.00008363,0.00008577,-0.00019310,0.0
 0023860,-0.02689881,0.03790974,-0.00559378,0.00916930,-0.02380584,0.00
 165014,0.00065507,0.00622910,-0.00674175,-0.00052933,-0.00198832,0.001
 73296,0.00185018,-0.00266307,-0.00117158,-0.00892618,0.00834822,-0.000
 46163,0.00014327,0.00003223,0.00004364,-0.00001148,0.00073834,-0.00008
 523,-0.01914210,0.02634539,0.00361117,-0.00036174,-0.00061757,-0.00015
 994,0.00010962,-0.00006840,0.00027243,0.00026174,0.00005175,0.00003963
 ,-0.00015787,0.00047215,0.00001661,-0.00057573,-0.00032418,0.00002559,
 0.00124298,0.00097469,-0.00113885,0.00638588,-0.01343671,-0.00252172,-
 0.51182529,-0.09137885,0.05795566,-0.00001963,-0.00002991,-0.00004350,
 0.00002478,0.00001742,-0.00003133,0.00004054,-0.00002646,-0.00000841,0
 .00201756,0.00155256,0.00264890,-0.00734978,-0.00471270,0.00384922,0.0
 0491965,-0.00033449,0.00015703,0.00146056,-0.00042897,-0.00174429,-0.0
 2835129,-0.01034270,-0.00640628,0.00301267,0.00320146,0.00173522,0.005
 11643,-0.00067352,-0.00006585,0.00386554,-0.00449784,-0.00533291,-0.00
 053485,0.00125258,-0.00292309,-0.00045852,-0.00039006,0.00010996,0.538
 73700,0.00005644,0.00003656,0.00000110,-0.00029431,-0.00073234,0.00008
 782,0.04096333,-0.03893603,-0.01145782,0.00086303,0.00034165,0.0000469
 5,-0.00013737,-0.00000828,-0.00012495,0.00010020,-0.00003413,0.0000763
 6,-0.00007118,0.00009647,-0.00001220,-0.00024454,0.00000490,0.00002581
 ,-0.00028996,0.00071818,0.00022346,0.00825521,-0.00743542,-0.00229930,
 -0.08657765,0.00144145,0.01291847,-0.00000186,0.00003502,-0.00002915,-
 0.00000442,0.00000477,0.00001276,-0.00003610,-0.00006113,-0.00002369,-
 0.00195810,0.00044992,-0.00022030,-0.02614818,-0.01141710,0.02096901,0
 .00041060,-0.00193112,0.00600099,-0.00061972,-0.00019019,-0.00033824,-
 0.02429461,-0.00678169,-0.01075477,0.00223995,0.00083302,0.00059617,-0
 .00312779,-0.00165105,-0.00417951,-0.00130833,0.00128962,-0.00483726,0
 .00025616,0.00049493,-0.00092527,-0.00003440,-0.00022507,0.00035422,0.
 09080955,0.06218789,-0.00001609,0.00001465,-0.00000748,-0.00000094,-0.
 00005070,0.00005282,0.00528500,-0.00607030,0.00418748,0.00017103,0.000
 04379,-0.00003295,-0.00002608,0.00017613,-0.00010577,-0.00017841,-0.00
 001818,0.00000761,0.00006161,-0.00022556,-0.00000288,0.00015808,0.0001
 2928,-0.00001583,-0.00068524,-0.00019826,0.00009178,0.00199056,-0.0010
 2401,0.00030949,0.06816461,0.01240849,-0.00394180,0.00000562,0.0000270
 7,-0.00001366,-0.00001125,0.00000229,0.00001735,-0.00004298,-0.0000274
 7,-0.00001540,-0.00121231,-0.00033373,-0.00061594,0.03610027,0.0225147
 2,-0.02884302,0.00060007,0.00646019,-0.00799307,-0.00068910,-0.0003252
 4,0.00172963,-0.05510201,-0.02219049,-0.01899929,-0.00214015,-0.001908
 08,0.00363067,-0.00326679,-0.00175991,-0.00316519,-0.00421948,-0.00313
 211,-0.00967911,0.00246878,0.00116239,0.00049511,0.00009899,-0.0000419
 5,0.00044508,-0.04888909,-0.00484270,0.06180928,-0.00000131,-0.0000015
 8,-0.00000173,-0.00000630,0.00001765,0.00003744,0.00027115,0.00011033,
 0.00027761,-0.00003188,-0.00001771,-0.00000583,0.00001063,-0.00001122,
 -0.00002129,0.00002100,-0.00000109,0.00000978,0.00000026,0.00004142,-0
 .00000274,-0.00002858,-0.00001869,-0.00000756,0.00006870,0.00009496,0.
 00006467,-0.00026112,-0.00003301,-0.00001324,0.00086234,-0.00082851,-0
 .00014941,-0.00000113,-0.00000128,0.00000079,0.00000137,-0.00000061,0.
 00000291,0.00000733,0.00000136,0.00001072,0.00012561,-0.00004288,-0.00
 005747,0.00042001,0.00011417,0.00011330,-0.00006468,0.00002778,-0.0000
 6929,-0.00003994,0.00004494,0.00000564,-0.00336369,0.00340620,0.006887
 06,0.10416499,-0.09451518,-0.13664637,-0.00013821,-0.00054190,-0.00018
 465,0.00084325,0.00126392,-0.00009278,-0.00658586,-0.02509858,-0.03246
 047,0.00766794,0.01318078,0.02506608,0.00063747,0.00016033,0.00053067,
 -0.10460168,-0.00003949,-0.00001853,-0.00001016,0.00005605,-0.00003693
 ,-0.00005612,-0.00030278,-0.00030109,-0.00116486,-0.00000779,0.0000078
 3,0.00001358,0.00002087,0.00004166,0.00002468,-0.00010615,-0.00000945,
 -0.00002953,0.00007429,-0.00013449,0.00000758,0.00012406,0.00012558,0.
 00002390,-0.00004554,-0.00013887,-0.00006090,0.00033468,0.00045565,-0.
 00006125,-0.00112983,-0.00427601,0.00406629,0.00000534,-0.00000204,-0.
 00000034,-0.00000420,-0.00000625,-0.00000237,0.00000065,0.00000836,0.0
 0000542,-0.00001101,-0.00005825,0.00010757,0.00027552,0.00057651,0.000
 79171,0.00001241,0.00000268,0.00004637,0.00004879,-0.00000178,-0.00001
 077,0.00656608,0.01703355,0.03475440,-0.09689737,-0.37176309,-0.655545
 19,0.00005469,0.00256294,-0.00047272,0.00104736,0.00261771,-0.00170953
 ,0.00229321,-0.00771762,-0.00918643,-0.01491429,-0.01075730,-0.0239876
 3,-0.00024279,-0.00032883,-0.00046769,0.10273351,0.37228807,-0.0000103
 4,-0.00000385,-0.00000227,0.00007256,0.00003275,0.00006967,-0.00013504
 ,0.00029563,0.00021271,-0.00009393,-0.00005364,-0.00004340,0.00002468,
 0.00004769,0.00001617,-0.00007049,-0.00000136,-0.00001465,0.00003663,-
 0.00007583,0.00000203,0.00005631,0.00003914,0.00001590,-0.00001513,-0.
 00010046,0.00002581,0.00010139,0.00020532,0.00006986,0.00102176,0.0044
 6385,-0.00244222,0.00000170,-0.00000094,-0.00000201,-0.00000143,-0.000
 00075,-0.00000114,0.00000140,0.00000432,-0.00000564,-0.00002546,0.0000
 6086,-0.00001790,-0.00017648,-0.00100106,-0.00063226,0.00001993,0.0000
 3533,-0.00009122,-0.00003293,0.00001742,0.00004829,-0.00677195,-0.0218
 6231,-0.02394545,-0.13645323,-0.65194784,-0.76549046,-0.00050393,-0.00
 125044,0.00149596,0.00006777,-0.00189941,0.00236050,0.00472518,0.00816
 443,0.00524876,0.00129994,0.01170596,0.00622353,0.00025479,0.00022832,
 0.00056342,0.13664610,0.65265923,0.77664537,-0.00002095,-0.00000078,-0
 .00000841,-0.00006122,-0.00000182,0.00007701,-0.00023147,-0.00165078,-
 0.00010398,0.00007376,0.00004262,0.00003493,-0.00000418,0.00005618,-0.
 00002985,-0.00005416,-0.00000567,-0.00001261,0.00003415,-0.00007248,0.
 00000354,0.00006855,0.00004207,0.00000463,-0.00032866,0.00003714,0.000
 07233,0.00162924,0.00061963,0.00070950,-0.00295789,0.00074241,-0.00227
 917,0.,0.00000662,0.00000106,-0.00000331,-0.00000041,0.00000620,-0.000
 01517,-0.00000714,0.00000246,-0.00034259,0.00014346,-0.00038605,-0.118
 53842,-0.13302991,-0.17571876,-0.01770446,-0.02339901,-0.02340584,0.01
 251471,0.01580101,0.01718448,0.00010066,0.00091556,0.00132771,0.000117
 85,-0.00028245,0.00003314,0.00030954,-0.00042010,0.00014476,-0.0000955
 1,-0.00017287,0.00040818,0.00002114,0.00002288,0.00000895,-0.00002426,
 -0.00004974,0.00005712,0.00081259,0.00103370,0.00084466,0.00002233,0.0
 0005374,-0.00003979,0.12467774,0.00008112,0.00003502,0.00002228,-0.000
 15341,-0.00001592,-0.00005151,0.00212431,0.00059624,0.00052146,0.00014
 963,0.00007279,0.00005847,-0.00006596,-0.00008838,-0.00005763,0.000199
 73,0.00001430,0.00005563,-0.00014232,0.00023726,-0.00001783,-0.0002110
 6,-0.00018759,-0.00003874,0.00001770,0.00023553,0.00007418,0.00009834,
 -0.00043359,0.00081714,0.00956498,0.01196095,0.01986681,-0.00000702,0.
 00001080,0.00000450,0.00000512,0.00001001,0.00000349,-0.00000332,-0.00
 002259,0.00000280,-0.00034354,0.00007759,0.00005864,-0.13059799,-0.175
 26743,-0.21230137,-0.00443470,-0.00831880,-0.00891670,-0.01811141,-0.0
 1691341,-0.02037693,0.00038065,-0.00371031,0.00278348,0.00029115,0.000
 72465,0.00061947,-0.00033833,0.00017068,-0.00011552,-0.00008490,-0.000
 09108,-0.00022765,-0.00000375,0.00003373,-0.00005825,0.00003694,0.0000
 1135,-0.00006516,0.00205700,0.00179800,-0.00032262,-0.00008514,-0.0001
 7004,0.00023762,0.13957618,0.18923025,-0.00003905,-0.00002216,-0.00000
 687,0.00014264,0.00007622,0.00006037,0.00043911,-0.00290115,0.00164303
 ,-0.00017071,-0.00014333,-0.00005712,0.00008790,0.00009892,0.00002884,
 -0.00016869,-0.00002396,-0.00004729,0.00012478,-0.00016311,0.00001810,
 0.00004047,0.00016212,0.00000942,0.00022767,0.00005551,-0.00003291,-0.
 00009393,0.00085825,0.00077693,-0.00765425,-0.01619489,-0.02028024,0.0
 0000489,-0.00000943,0.,-0.00000462,-0.00000749,0.00000182,0.00002552,0
 .00002063,-0.00000709,0.00037051,0.00002828,-0.00040631,-0.17579824,-0
 .21290153,-0.29580545,0.00924771,0.01245376,0.01106551,-0.00410509,-0.
 00136330,-0.00429611,-0.00164279,0.00407008,-0.00333856,-0.00082780,-0
 .00093519,-0.00033118,0.00002500,0.00053919,0.00076396,-0.00009624,0.0
 0004802,-0.00015424,0.00015331,0.00000708,0.00007709,-0.00004263,0.000
 05509,-0.00011037,-0.00136935,-0.00149630,0.00009167,0.00006005,0.0002
 6475,-0.00030935,0.18106381,0.21742393,0.31064633\\-0.00766958,-0.0022
 7017,-0.00131822,-0.03922754,-0.02040894,-0.01192883,-0.01185769,-0.02
 388587,-0.01595029,0.07570775,0.02990497,0.02346846,-0.06695656,0.0702
 2845,-0.00678748,-0.03316403,0.09198896,0.00733852,-0.00059446,-0.0076
 0114,-0.00371829,0.08249438,-0.07814140,0.00691487,0.00598895,0.027829
 76,0.00698171,0.17026566,-0.02443159,0.01106907,-0.08093844,-0.1867134
 1,-0.14544492,0.11159645,-0.07489184,0.01086336,-0.00983422,-0.1235762
 4,-0.01651512,-0.12059526,0.08563751,-0.01211763,-0.11175251,0.0562092
 2,-0.00674429,0.09475262,-0.02272747,-0.00791936,0.06653042,0.02884833
 ,-0.03880177,-0.07571492,0.11127669,0.02737475,-0.05255788,0.01951540,
 0.07882949,-0.12812713,-0.18032264,-0.17420279,-0.07143624,0.11601370,
 0.00936640,0.25437548,0.12231196,0.01891908,-0.03389486,-0.01438154,0.
 01240838,0.08388951,-0.11297273,0.00998515,-0.10907529,-0.02092243,0.0
 1445048,0.04740143,0.19049558,0.25243999,-0.03960606,-0.05701312,-0.04
 896073\\\@
 The archive entry for this job was punched.

 Writing a WFNX file to "TAYNOX_Complex_0_Ligand_1_ON_Cu_oriented.wfx"


 ERWIN WITH HIS PSI CAN DO
 CALCULATIONS QUITE A FEW.
 BUT ONE THING HAS NOT BEEN SEEN
 JUST WHAT DOES PSI REALLY MEAN.
 -- WALTER HUCKEL, TRANS. BY FELIX BLOCH
 Job cpu time:       0 days  0 hours 26 minutes 29.8 seconds.
 Elapsed time:       0 days  0 hours 26 minutes 37.1 seconds.
 File lengths (MBytes):  RWF=    464 Int=      0 D2E=      0 Chk=     12 Scr=      8
 Normal termination of Gaussian 16 at Mon Mar  6 10:48:17 2023.
