 Entering Gaussian System, Link 0=g16
 Initial command:
 /ssoft/spack/external/gaussian/g16-C.01/avx2/g16/l1.exe "/scratch/lcmd/2316143/Gau-1618140.inp" -scrdir="/scratch/lcmd/2316143/"
 Entering Link 1 = /ssoft/spack/external/gaussian/g16-C.01/avx2/g16/l1.exe PID=   1618142.
  
 Copyright (c) 1988-2019, Gaussian, Inc.  All Rights Reserved.
  
 This is part of the Gaussian(R) 16 program.  It is based on
 the Gaussian(R) 09 system (copyright 2009, Gaussian, Inc.),
 the Gaussian(R) 03 system (copyright 2003, Gaussian, Inc.),
 the Gaussian(R) 98 system (copyright 1998, Gaussian, Inc.),
 the Gaussian(R) 94 system (copyright 1995, Gaussian, Inc.),
 the Gaussian 92(TM) system (copyright 1992, Gaussian, Inc.),
 the Gaussian 90(TM) system (copyright 1990, Gaussian, Inc.),
 the Gaussian 88(TM) system (copyright 1988, Gaussian, Inc.),
 the Gaussian 86(TM) system (copyright 1986, Carnegie Mellon
 University), and the Gaussian 82(TM) system (copyright 1983,
 Carnegie Mellon University). Gaussian is a federally registered
 trademark of Gaussian, Inc.
  
 This software contains proprietary and confidential information,
 including trade secrets, belonging to Gaussian, Inc.
  
 This software is provided under written license and may be
 used, copied, transmitted, or stored only in accord with that
 written license.
  
 The following legend is applicable only to US Government
 contracts under FAR:
  
                    RESTRICTED RIGHTS LEGEND
  
 Use, reproduction and disclosure by the US Government is
 subject to restrictions as set forth in subparagraphs (a)
 and (c) of the Commercial Computer Software - Restricted
 Rights clause in FAR 52.227-19.
  
 Gaussian, Inc.
 340 Quinnipiac St., Bldg. 40, Wallingford CT 06492
  
  
 ---------------------------------------------------------------
 Warning -- This program may not be used in any manner that
 competes with the business of Gaussian, Inc. or will provide
 assistance to any competitor of Gaussian, Inc.  The licensee
 of this program is prohibited from giving any competitor of
 Gaussian, Inc. access to this program.  By using this program,
 the user acknowledges that Gaussian, Inc. is engaged in the
 business of creating and licensing software in the field of
 computational chemistry and represents and warrants to the
 licensee that it is not a competitor of Gaussian, Inc. and that
 it will not use this program in any manner prohibited above.
 ---------------------------------------------------------------
  

 Cite this work as:
 Gaussian 16, Revision C.01,
 M. J. Frisch, G. W. Trucks, H. B. Schlegel, G. E. Scuseria, 
 M. A. Robb, J. R. Cheeseman, G. Scalmani, V. Barone, 
 G. A. Petersson, H. Nakatsuji, X. Li, M. Caricato, A. V. Marenich, 
 J. Bloino, B. G. Janesko, R. Gomperts, B. Mennucci, H. P. Hratchian, 
 J. V. Ortiz, A. F. Izmaylov, J. L. Sonnenberg, D. Williams-Young, 
 F. Ding, F. Lipparini, F. Egidi, J. Goings, B. Peng, A. Petrone, 
 T. Henderson, D. Ranasinghe, V. G. Zakrzewski, J. Gao, N. Rega, 
 G. Zheng, W. Liang, M. Hada, M. Ehara, K. Toyota, R. Fukuda, 
 J. Hasegawa, M. Ishida, T. Nakajima, Y. Honda, O. Kitao, H. Nakai, 
 T. Vreven, K. Throssell, J. A. Montgomery, Jr., J. E. Peralta, 
 F. Ogliaro, M. J. Bearpark, J. J. Heyd, E. N. Brothers, K. N. Kudin, 
 V. N. Staroverov, T. A. Keith, R. Kobayashi, J. Normand, 
 K. Raghavachari, A. P. Rendell, J. C. Burant, S. S. Iyengar, 
 J. Tomasi, M. Cossi, J. M. Millam, M. Klene, C. Adamo, R. Cammi, 
 J. W. Ochterski, R. L. Martin, K. Morokuma, O. Farkas, 
 J. B. Foresman, and D. J. Fox, Gaussian, Inc., Wallingford CT, 2019.
 
 ******************************************
 Gaussian 16:  ES64L-G16RevC.01  3-Jul-2019
                 4-Mar-2023 
 ******************************************
 %nprocshared=1
 Will use up to    1 processors via shared memory.
 %mem=8000MB
 %chk=TEFCEP_Complex_3_Ligand_1_NN_Cu_oriented.chk
 ----------------------------------------------------------------------
 #p pop=(regular,nbo,savenbos) freq=noraman def2svp empiricaldispersion
 =gd3bj output=wfx pbe1pbe
 ----------------------------------------------------------------------
 1/10=4,30=1,38=1/1,3;
 2/12=2,17=6,18=5,40=1/2;
 3/5=43,7=101,11=2,25=1,30=1,71=2,74=-13,124=41,140=1/1,2,3;
 4//1;
 5/5=2,38=5,98=1/2;
 8/6=4,10=90,11=11/1;
 11/6=1,8=1,9=11,15=111,16=1/1,2,10;
 10/6=1/2;
 6/28=1,40=1,73=1/1,7;
 7/8=1,10=1,25=1/1,2,3,16;
 1/10=4,30=1/3;
 99/6=200/99;
 Leave Link    1 at Sat Mar  4 11:36:53 2023, MaxMem=  1048576000 cpu:               0.0 elap:               0.1
 (Enter /ssoft/spack/external/gaussian/g16-C.01/avx2/g16/l101.exe)
 ----------------------------------------
 TEFCEP_Complex_3_Ligand_1_NN_Cu_oriented
 ----------------------------------------
 Symbolic Z-matrix:
 Charge =  0 Multiplicity = 1
 C                     2.44851   1.41913  -0.03725 
 C                     2.87303  -0.02834  -0.14196 
 H                     3.30585  -0.17556  -1.01969 
 H                     3.54118  -0.22099   0.56263 
 C                     2.05321  -2.19371   0.0764 
 C                     3.44413  -2.79217   0.02216 
 H                     4.02084  -2.42836   0.73923 
 H                     3.87219  -2.62906  -0.85567 
 C                     3.15918  -4.29201   0.23757 
 H                     3.8913   -4.90316  -0.0645 
 C                     1.81812  -4.48826  -0.48476 
 C                     1.90535  -4.22826  -1.99224 
 C                     1.18369  -5.87284  -0.27837 
 H                     1.73632  -6.554    -0.71543 
 H                     0.28451  -5.88169  -0.66945 
 H                     1.12398  -6.06506   0.68011 
 C                     2.77595  -4.43159   1.7207 
 H                     3.42318  -3.96274   2.30513 
 H                     2.72439  -5.38256   1.99014 
 C                     1.38137  -3.75711   1.77273 
 H                     1.39482  -2.95927   2.35909 
 H                     0.69465  -4.38792   2.10461 
 C                     1.10321  -3.35671   0.29514 
 C                    -0.36121  -3.11197  -0.00365 
 H                    -0.71736  -2.45078   0.62612 
 H                    -0.85818  -3.95182   0.08771 
 H                    -0.45629  -2.77424  -0.91889 
 N                     1.14618   1.68526   0. 
 N                     1.73978  -0.96368   0. 
 C                     0.7508    2.9681    0.08689 
 H                    -0.18019   3.15903   0.1183 
 C                     1.64588   4.01197   0.13339 
 H                     1.33873   4.90879   0.18232 
 C                     3.00022   3.73378   0.10762 
 H                     3.63847   4.43353   0.17579 
 C                     3.41047   2.4181   -0.01834 
 H                     4.33353   2.2035   -0.09091 
 H                     2.58155  -4.81684  -2.387 
 H                     2.15455  -3.29324  -2.14885 
 H                     1.03464  -4.40809  -2.40555 
 
 ITRead=  0  0  0  0  0  0  0  0  0  0  0  0  0  0  0  0  0  0  0  0
 ITRead=  0  0  0  0  0  0  0  0  0  0  0  0  0  0  0  0  0  0  0  0
 MicOpt= -1 -1 -1 -1 -1 -1 -1 -1 -1 -1 -1 -1 -1 -1 -1 -1 -1 -1 -1 -1
 MicOpt= -1 -1 -1 -1 -1 -1 -1 -1 -1 -1 -1 -1 -1 -1 -1 -1 -1 -1 -1 -1
 NAtoms=     40 NQM=       40 NQMF=       0 NMMI=      0 NMMIF=      0
                NMic=       0 NMicF=      0.
                    Isotopes and Nuclear Properties:
 (Nuclear quadrupole moments (NQMom) in fm**2, nuclear magnetic moments (NMagM)
  in nuclear magnetons)

  Atom         1           2           3           4           5           6           7           8           9          10
 IAtWgt=          12          12           1           1          12          12           1           1          12           1
 AtmWgt=  12.0000000  12.0000000   1.0078250   1.0078250  12.0000000  12.0000000   1.0078250   1.0078250  12.0000000   1.0078250
 NucSpn=           0           0           1           1           0           0           1           1           0           1
 AtZEff=  -0.0000000  -0.0000000  -0.0000000  -0.0000000  -0.0000000  -0.0000000  -0.0000000  -0.0000000  -0.0000000  -0.0000000
 NQMom=    0.0000000   0.0000000   0.0000000   0.0000000   0.0000000   0.0000000   0.0000000   0.0000000   0.0000000   0.0000000
 NMagM=    0.0000000   0.0000000   2.7928460   2.7928460   0.0000000   0.0000000   2.7928460   2.7928460   0.0000000   2.7928460
 AtZNuc=   6.0000000   6.0000000   1.0000000   1.0000000   6.0000000   6.0000000   1.0000000   1.0000000   6.0000000   1.0000000

  Atom        11          12          13          14          15          16          17          18          19          20
 IAtWgt=          12          12          12           1           1           1          12           1           1          12
 AtmWgt=  12.0000000  12.0000000  12.0000000   1.0078250   1.0078250   1.0078250  12.0000000   1.0078250   1.0078250  12.0000000
 NucSpn=           0           0           0           1           1           1           0           1           1           0
 AtZEff=  -0.0000000  -0.0000000  -0.0000000  -0.0000000  -0.0000000  -0.0000000  -0.0000000  -0.0000000  -0.0000000  -0.0000000
 NQMom=    0.0000000   0.0000000   0.0000000   0.0000000   0.0000000   0.0000000   0.0000000   0.0000000   0.0000000   0.0000000
 NMagM=    0.0000000   0.0000000   0.0000000   2.7928460   2.7928460   2.7928460   0.0000000   2.7928460   2.7928460   0.0000000
 AtZNuc=   6.0000000   6.0000000   6.0000000   1.0000000   1.0000000   1.0000000   6.0000000   1.0000000   1.0000000   6.0000000

  Atom        21          22          23          24          25          26          27          28          29          30
 IAtWgt=           1           1          12          12           1           1           1          14          14          12
 AtmWgt=   1.0078250   1.0078250  12.0000000  12.0000000   1.0078250   1.0078250   1.0078250  14.0030740  14.0030740  12.0000000
 NucSpn=           1           1           0           0           1           1           1           2           2           0
 AtZEff=  -0.0000000  -0.0000000  -0.0000000  -0.0000000  -0.0000000  -0.0000000  -0.0000000  -0.0000000  -0.0000000  -0.0000000
 NQMom=    0.0000000   0.0000000   0.0000000   0.0000000   0.0000000   0.0000000   0.0000000   2.0440000   2.0440000   0.0000000
 NMagM=    2.7928460   2.7928460   0.0000000   0.0000000   2.7928460   2.7928460   2.7928460   0.4037610   0.4037610   0.0000000
 AtZNuc=   1.0000000   1.0000000   6.0000000   6.0000000   1.0000000   1.0000000   1.0000000   7.0000000   7.0000000   6.0000000

  Atom        31          32          33          34          35          36          37          38          39          40
 IAtWgt=           1          12           1          12           1          12           1           1           1           1
 AtmWgt=   1.0078250  12.0000000   1.0078250  12.0000000   1.0078250  12.0000000   1.0078250   1.0078250   1.0078250   1.0078250
 NucSpn=           1           0           1           0           1           0           1           1           1           1
 AtZEff=  -0.0000000  -0.0000000  -0.0000000  -0.0000000  -0.0000000  -0.0000000  -0.0000000  -0.0000000  -0.0000000  -0.0000000
 NQMom=    0.0000000   0.0000000   0.0000000   0.0000000   0.0000000   0.0000000   0.0000000   0.0000000   0.0000000   0.0000000
 NMagM=    2.7928460   0.0000000   2.7928460   0.0000000   2.7928460   0.0000000   2.7928460   2.7928460   2.7928460   2.7928460
 AtZNuc=   1.0000000   6.0000000   1.0000000   6.0000000   1.0000000   6.0000000   1.0000000   1.0000000   1.0000000   1.0000000
 Leave Link  101 at Sat Mar  4 11:36:53 2023, MaxMem=  1048576000 cpu:               0.1 elap:               0.1
 (Enter /ssoft/spack/external/gaussian/g16-C.01/avx2/g16/l103.exe)

 GradGradGradGradGradGradGradGradGradGradGradGradGradGradGradGradGradGrad
 Berny optimization.
 Initialization pass.
 Trust Radius=3.00D-01 FncErr=1.00D-07 GrdErr=1.00D-07 EigMax=2.50D+02 EigMin=1.00D-04
 Number of steps in this run=      2 maximum allowed number of steps=      2.
 GradGradGradGradGradGradGradGradGradGradGradGradGradGradGradGradGradGrad

 Leave Link  103 at Sat Mar  4 11:36:53 2023, MaxMem=  1048576000 cpu:               0.0 elap:               0.0
 (Enter /ssoft/spack/external/gaussian/g16-C.01/avx2/g16/l202.exe)
                          Input orientation:                          
 ---------------------------------------------------------------------
 Center     Atomic      Atomic             Coordinates (Angstroms)
 Number     Number       Type             X           Y           Z
 ---------------------------------------------------------------------
      1          6           0        2.448512    1.419132   -0.037249
      2          6           0        2.873030   -0.028341   -0.141963
      3          1           0        3.305849   -0.175556   -1.019692
      4          1           0        3.541183   -0.220993    0.562627
      5          6           0        2.053211   -2.193709    0.076400
      6          6           0        3.444129   -2.792168    0.022160
      7          1           0        4.020841   -2.428360    0.739229
      8          1           0        3.872191   -2.629062   -0.855670
      9          6           0        3.159177   -4.292013    0.237571
     10          1           0        3.891305   -4.903165   -0.064501
     11          6           0        1.818115   -4.488263   -0.484756
     12          6           0        1.905347   -4.228259   -1.992241
     13          6           0        1.183691   -5.872839   -0.278370
     14          1           0        1.736324   -6.554000   -0.715433
     15          1           0        0.284509   -5.881688   -0.669453
     16          1           0        1.123983   -6.065064    0.680106
     17          6           0        2.775947   -4.431593    1.720702
     18          1           0        3.423182   -3.962736    2.305129
     19          1           0        2.724388   -5.382563    1.990135
     20          6           0        1.381372   -3.757113    1.772732
     21          1           0        1.394820   -2.959273    2.359088
     22          1           0        0.694653   -4.387919    2.104605
     23          6           0        1.103213   -3.356714    0.295144
     24          6           0       -0.361214   -3.111966   -0.003646
     25          1           0       -0.717362   -2.450775    0.626115
     26          1           0       -0.858176   -3.951822    0.087714
     27          1           0       -0.456289   -2.774238   -0.918890
     28          7           0        1.146180    1.685258    0.000000
     29          7           0        1.739778   -0.963684    0.000000
     30          6           0        0.750795    2.968101    0.086889
     31          1           0       -0.180194    3.159028    0.118299
     32          6           0        1.645875    4.011975    0.133389
     33          1           0        1.338728    4.908793    0.182322
     34          6           0        3.000217    3.733785    0.107616
     35          1           0        3.638474    4.433531    0.175786
     36          6           0        3.410467    2.418099   -0.018339
     37          1           0        4.333525    2.203500   -0.090911
     38          1           0        2.581545   -4.816837   -2.386998
     39          1           0        2.154547   -3.293237   -2.148851
     40          1           0        1.034635   -4.408092   -2.405554
 ---------------------------------------------------------------------
                    Distance matrix (angstroms):
                    1          2          3          4          5
     1  C    0.000000
     2  C    1.512071   0.000000
     3  H    2.059915   0.989652   0.000000
     4  H    2.060046   0.989945   1.600369   0.000000
     5  C    3.636180   2.325641   2.616001   2.518351   0.000000
     6  C    4.327797   2.826982   2.819793   2.629156   1.515173
     7  H    4.228277   2.802509   2.946208   2.265773   2.089491
     8  H    4.368586   2.876012   2.523358   2.814237   2.089731
     9  C    5.761749   4.290084   4.306674   4.101804   2.377397
    10  H    6.484892   4.980641   4.858542   4.736941   3.277132
    11  C    5.957767   4.595787   4.593359   4.719700   2.373846
    12  C    6.000838   4.690336   4.396778   5.026082   2.905259
    13  C    7.404779   6.085280   6.124716   6.181295   3.797094
    14  H    8.033553   6.648698   6.575752   6.708049   4.442921
    15  H    7.640979   6.421865   6.466150   6.645857   4.157618
    16  H    7.634276   6.338532   6.506624   6.325332   4.026824
    17  C    6.117891   4.782005   5.089637   4.433495   2.869530
    18  H    5.949893   4.665875   5.040926   4.129271   3.158087
    19  H    7.102778   5.765035   6.042357   5.417264   3.779107
    20  C    5.586442   4.449139   4.932423   4.316629   2.402736
    21  H    5.101288   4.126830   4.776743   3.915652   2.496044
    22  H    6.433149   5.366406   5.858633   5.276714   3.282355
    23  C    4.972828   3.794915   4.086583   3.980954   1.517539
    24  C    5.331655   4.470818   4.806475   4.889488   2.584386
    25  H    5.043709   4.398755   4.906274   4.807408   2.836255
    26  H    6.308483   5.419258   5.729366   5.787831   3.401068
    27  H    5.176825   4.384967   4.573510   4.969280   2.761377
    28  N    1.329767   2.436921   3.027634   3.112295   3.984335
    29  N    2.486264   1.476239   2.028175   2.028103   1.271628
    30  C    2.301512   3.678984   4.199452   4.264143   5.323597
    31  H    3.156189   4.421451   4.956507   5.046842   5.800142
    32  C    2.719591   4.231534   4.649787   4.657730   6.219299
    33  H    3.668456   5.180207   5.582563   5.595547   7.139135
    34  C    2.383900   3.772540   4.080096   4.017455   6.002748
    35  H    3.247767   4.538191   4.773206   4.671585   6.814929
    36  C    1.386957   2.507826   2.782211   2.705441   4.808315
    37  H    2.042397   2.667727   2.752937   2.633075   4.956135
    38  H    6.665308   5.296682   4.892405   5.544635   3.637068
    39  H    5.172205   3.899149   3.510047   4.325917   2.484144
    40  H    6.447051   5.261726   4.999339   5.711802   3.478661
                    6          7          8          9         10
     6  C    0.000000
     7  H    0.989515   0.000000
     8  H    0.990165   1.614336   0.000000
     9  C    1.541797   2.113606   2.113995   0.000000
    10  H    2.159580   2.605268   2.407874   1.000382   0.000000
    11  C    2.403669   3.254741   2.795252   1.535811   2.155661
    12  C    2.913421   3.895623   2.778075   2.558949   2.848809
    13  C    3.832811   4.577048   4.252458   2.582199   2.883953
    14  H    4.196668   4.935176   4.470652   2.837130   2.791578
    15  H    4.472881   5.279208   4.846206   3.407855   3.785823
    16  H    4.065443   4.649828   4.660190   2.735244   3.092332
    17  C    2.453411   2.554603   3.329950   1.538188   2.157162
    18  H    2.565661   2.272345   3.459906   2.110194   2.592043
    19  H    3.331832   3.460184   4.122843   2.109460   2.411026
    20  C    2.872384   3.130577   3.792780   2.409031   3.314909
    21  H    3.112688   3.130783   4.071987   3.064308   3.985591
    22  H    3.800345   4.094832   4.685463   3.093363   3.897317
    23  C    2.423453   3.093801   3.085627   2.259444   3.208475
    24  C    3.818845   4.496842   4.345211   3.720732   4.614760
    25  H    4.218924   4.739606   4.826124   4.309139   5.266021
    26  H    4.456336   5.152690   5.001604   4.034515   4.846214
    27  H    4.012376   4.786824   4.331375   4.088109   4.915677
    28  N    5.032733   5.072670   5.174617   6.311605   7.137729
    29  N    2.499731   2.809801   2.837752   3.626142   4.489180
    30  C    6.359162   6.343543   6.477636   7.650639   8.475998
    31  H    6.968621   7.018058   7.132490   8.166004   9.033795
    32  C    7.038639   6.890966   7.073760   8.441395   9.195696
    33  H    7.985184   7.831838   8.019671   9.379335  10.141553
    34  C    6.541591   6.277948   6.494157   8.028424   8.684501
    35  H    7.229944   6.895594   7.141340   8.738917   9.343209
    36  C    5.210533   4.943139   5.136939   6.719690   7.337182
    37  H    5.075480   4.716039   4.914401   6.608985   7.120459
    38  H    3.263032   4.189235   2.965989   2.738149   2.667755
    39  H    2.574370   3.545711   2.250276   2.775220   3.154791
    40  H    3.782945   4.767224   3.690368   3.393120   3.726418
                   11         12         13         14         15
    11  C    0.000000
    12  C    1.532228   0.000000
    13  C    1.536925   2.482496   0.000000
    14  H    2.080184   2.658548   0.980004   0.000000
    15  H    2.080311   2.666591   0.980588   1.600589   0.000000
    16  H    2.079669   3.335539   0.979383   1.600484   1.599892
    17  C    2.405140   3.819062   2.934068   3.394138   3.744713
    18  H    3.261269   4.565273   3.916412   4.322491   4.730939
    19  H    2.783198   4.226413   2.785719   3.109442   3.643562
    20  C    2.412795   3.830347   2.953370   3.760257   3.417777
    21  H    3.256446   4.561254   3.935686   4.742506   4.352627
    22  H    2.824364   4.274976   2.850038   3.705347   3.177257
    23  C    1.549108   2.575877   2.581914   3.412438   2.824220
    24  C    2.622048   3.215264   3.175629   4.093153   2.920893
    25  H    3.437156   4.110212   4.017787   4.965559   3.801763
    26  H    2.788912   3.469826   2.827286   3.761357   2.367153
    27  H    2.880845   2.973817   3.563864   4.374419   3.204254
    28  N    6.228872   6.286099   7.563314   8.291289   7.645215
    29  N    3.558621   3.828040   4.948386   5.635910   5.172304
    30  C    7.554027   7.579141   8.859065   9.606529   8.894282
    31  H    7.927041   7.960896   9.142874   9.935343   9.086861
    32  C    8.524425   8.513935   9.904176  10.600401  10.019103
    33  H    9.432893   9.409331  10.792584  11.504767  10.875265
    34  C    8.327686   8.306762   9.784476  10.397757  10.021787
    35  H    9.129536   9.095641  10.604408  11.186522  10.879671
    36  C    7.102884   7.094770   8.588702   9.153537   8.892807
    37  H    7.159755   7.132926   8.670862   9.155833   9.060878
    38  H    2.075888   0.979541   2.741432   2.554655   3.059451
    39  H    2.076171   0.980252   3.331007   3.586387   3.519338
    40  H    2.075990   0.980462   2.587008   2.820247   2.397544
                   16         17         18         19         20
    16  H    0.000000
    17  C    2.545594   0.000000
    18  H    3.513801   0.990099   0.000000
    19  H    2.177907   0.989746   1.613519   0.000000
    20  C    2.566461   1.549991   2.120075   2.119681   0.000000
    21  H    3.540942   2.117257   2.263648   2.788586   0.990223
    22  H    2.241949   2.116855   2.768730   2.263238   0.989767
    23  C    2.735651   2.446553   3.128828   3.099237   1.555943
    24  C    3.375517   3.815307   4.513968   4.318763   2.570669
    25  H    4.056667   4.162327   4.716908   4.722454   2.725056
    26  H    2.957309   4.012939   4.821522   4.301278   2.809408
    27  H    3.985421   4.490169   5.182386   5.038104   3.404096
    28  N    7.780136   6.559941   6.511389   7.510358   5.728638
    29  N    5.183225   4.007599   4.140264   4.945360   3.327803
    30  C    9.060312   7.843855   7.752339   8.789256   6.961911
    31  H    9.332758   8.302047   8.275631   9.214073   7.280703
    32  C   10.105344   8.665476   8.454070   9.636807   7.944566
    33  H   10.987240   9.574708   9.357099  10.540411   8.810740
    34  C    9.993270   8.326208   8.015261   9.312774   7.842628
    35  H   10.807289   9.039975   8.664742  10.024127   8.644732
    36  C    8.813619   7.095433   6.790708   8.084244   6.742285
    37  H    8.903077   7.052124   6.677739   8.029223   6.907769
    38  H    3.617967   4.130302   4.842922   4.415851   4.457217
    39  H    4.092442   4.081106   4.679273   4.671317   4.023903
    40  H    3.503546   4.478694   5.300380   4.809048   4.242885
                   21         22         23         24         25
    21  H    0.000000
    22  H    1.611218   0.000000
    23  C    2.121994   2.122370   0.000000
    24  C    2.947793   2.680976   1.514504   0.000000
    25  H    2.779043   2.816424   2.060281   0.980109   0.000000
    26  H    3.349669   2.582500   2.060152   0.980140   1.600889
    27  H    3.769083   3.615267   2.060389   0.980190   1.599947
    28  N    5.215246   6.443347   5.050785   5.028480   4.579474
    29  N    3.109127   4.152955   2.493775   3.004879   2.939557
    30  C    6.380551   7.627933   6.338048   6.181584   5.640078
    31  H    6.703388   7.852845   6.643289   6.274791   5.658296
    32  C    7.322231   8.680365   7.390414   7.402548   6.898899
    33  H    8.163818   9.515191   8.269631   8.201035   7.654261
    34  C    7.241786   8.675579   7.342272   7.627313   7.234502
    35  H    8.028347   9.497600   8.193272   8.541910   8.159030
    36  C    6.215394   7.629182   6.226568   6.693834   6.415624
    37  H    6.425941   7.842735   6.442044   7.092416   6.905640
    38  H    5.232991   4.890688   3.392833   4.152925   5.055679
    39  H    4.583692   4.628337   2.661286   3.311166   4.081426
    40  H    4.993058   4.523000   2.898943   3.065534   4.011434
                   26         27         28         29         30
    26  H    0.000000
    27  H    1.600459   0.000000
    28  N    5.983461   4.826943   0.000000
    29  N    3.960559   2.990849   2.714637   0.000000
    30  C    7.104515   5.953412   1.345201   4.055191   0.000000
    31  H    7.143163   6.029564   1.986268   4.549400   0.950884
    32  C    8.348318   7.181857   2.383506   4.978332   1.375864
    33  H    9.129394   7.966413   3.234424   5.888979   2.030039
    34  C    8.599776   7.440129   2.765049   4.864823   2.376257
    35  H    9.515343   8.361659   3.714220   5.724149   3.239455
    36  C    7.668667   6.536296   2.379997   3.772002   2.717983
    37  H    8.054418   6.957424   3.230481   4.094734   3.667722
    38  H    4.324828   3.944108   7.073561   4.610110   8.371202
    39  H    3.809522   2.932342   5.515412   3.196312   6.795102
    40  H    3.163433   2.665052   6.551950   4.260031   7.791089
                   31         32         33         34         35
    31  H    0.000000
    32  C    2.015508   0.000000
    33  H    2.317952   0.949219   0.000000
    34  C    3.231946   1.382858   2.036362   0.000000
    35  H    4.026150   2.037144   2.348350   0.949560   0.000000
    36  C    3.668854   2.382698   3.245909   1.383907   2.037557
    37  H    4.618491   3.247207   4.045007   2.039337   2.351013
    38  H    8.804438   9.229071  10.135773   8.916923   9.656825
    39  H    7.226528   7.670299   8.565818   7.428717   8.204201
    40  H    8.068888   8.815746   9.674396   8.744696   9.571708
                   36         37         38         39         40
    36  C    0.000000
    37  H    0.950450   0.000000
    38  H    7.657804   7.591217   0.000000
    39  H    6.223807   6.260765   1.600125   0.000000
    40  H    7.611850   7.742958   1.600109   1.600938   0.000000
 Stoichiometry    C16H22N2
 Framework group  C1[X(C16H22N2)]
 Deg. of freedom   114
 Full point group                 C1      NOp   1
 Largest Abelian subgroup         C1      NOp   1
 Largest concise Abelian subgroup C1      NOp   1
                         Standard orientation:                         
 ---------------------------------------------------------------------
 Center     Atomic      Atomic             Coordinates (Angstroms)
 Number     Number       Type             X           Y           Z
 ---------------------------------------------------------------------
      1          6           0       -2.891343   -0.333073    0.130062
      2          6           0       -1.467600   -0.819354    0.281212
      3          1           0       -1.345267   -1.182640    1.193610
      4          1           0       -1.306893   -1.553966   -0.362612
      5          6           0        0.737236   -0.131033    0.010069
      6          6           0        1.264197   -1.540590    0.186732
      7          1           0        0.873842   -2.157296   -0.481426
      8          1           0        1.076852   -1.883533    1.096522
      9          6           0        2.777231   -1.350800   -0.040968
     10          1           0        3.349514   -2.084315    0.326746
     11          6           0        3.039000    0.035377    0.566244
     12          6           0        2.770208    0.090129    2.073717
     13          6           0        4.454611    0.579488    0.316987
     14          1           0        5.105497    0.032572    0.804470
     15          1           0        4.507840    1.507144    0.630314
     16          1           0        4.652605    0.547547   -0.641642
     17          6           0        2.940693   -1.102876   -1.550218
     18          1           0        2.441433   -1.773174   -2.081006
     19          1           0        3.893890   -1.122345   -1.815989
     20          6           0        2.337986    0.314329   -1.725556
     21          1           0        1.542323    0.291083   -2.314557
     22          1           0        3.003845    0.937678   -2.109882
     23          6           0        1.947607    0.737188   -0.279958
     24          6           0        1.776527    2.232199   -0.108497
     25          1           0        1.136220    2.566165   -0.771133
     26          1           0        2.640791    2.676711   -0.235512
     27          1           0        1.441205    2.421793    0.792827
     28          7           0       -3.090948    0.973072   -0.019678
     29          7           0       -0.475539    0.249212    0.050426
     30          6           0       -4.351808    1.423606   -0.149369
     31          1           0       -4.495165    2.356948   -0.261183
     32          6           0       -5.439590    0.581437   -0.127402
     33          1           0       -6.319517    0.927994   -0.208912
     34          6           0       -5.230539   -0.778047    0.015413
     35          1           0       -5.961543   -1.383802   -0.003477
     36          6           0       -3.937755   -1.241695    0.185535
     37          1           0       -3.770481   -2.164826    0.337862
     38          1           0        3.322495   -0.578696    2.528858
     39          1           0        1.823265   -0.097492    2.243986
     40          1           0        2.992687    0.982753    2.412880
 ---------------------------------------------------------------------
 Rotational constants (GHZ):           1.1512157           0.1944592           0.1867525
 Leave Link  202 at Sat Mar  4 11:36:53 2023, MaxMem=  1048576000 cpu:               0.0 elap:               0.0
 (Enter /ssoft/spack/external/gaussian/g16-C.01/avx2/g16/l301.exe)
 Standard basis: def2SVP (5D, 7F)
 Ernie: Thresh=  0.10000D-02 Tol=  0.10000D-05 Strict=F.
 There are   380 symmetry adapted cartesian basis functions of A   symmetry.
 There are   362 symmetry adapted basis functions of A   symmetry.
   362 basis functions,   604 primitive gaussians,   380 cartesian basis functions
    66 alpha electrons       66 beta electrons
       nuclear repulsion energy      1338.0199197635 Hartrees.
 IExCor= 1009 DFT=T Ex+Corr=PBE1PBE ExCW=0 ScaHFX=  0.250000
 ScaDFX=  0.750000  0.750000  1.000000  1.000000 ScalE2=  1.000000  1.000000
 IRadAn=      5 IRanWt=     -1 IRanGd=            0 ICorTp=0 IEmpDi=141
 NAtoms=   40 NActive=   40 NUniq=   40 SFac= 1.00D+00 NAtFMM=   60 NAOKFM=F Big=F
 Integral buffers will be    131072 words long.
 Raffenetti 2 integral format.
 Two-electron integral symmetry is turned on.
 R6Disp:  Grimme-D3(BJ) Dispersion energy=       -0.0455884432 Hartrees.
 Nuclear repulsion after empirical dispersion term =     1337.9743313203 Hartrees.
 Leave Link  301 at Sat Mar  4 11:36:53 2023, MaxMem=  1048576000 cpu:               0.1 elap:               0.1
 (Enter /ssoft/spack/external/gaussian/g16-C.01/avx2/g16/l302.exe)
 NPDir=0 NMtPBC=     1 NCelOv=     1 NCel=       1 NClECP=     1 NCelD=      1
         NCelK=      1 NCelE2=     1 NClLst=     1 CellRange=     0.0.
 One-electron integrals computed using PRISM.
 One-electron integral symmetry used in STVInt
   1 Symmetry operations used in ECPInt.
 ECPInt:  NShTT=   15225 NPrTT=   53601 LenC2=   13787 LenP2D=   35473.
 LDataN:  DoStor=T MaxTD1= 4 Len=   56
 NBasis=   362 RedAO= T EigKep=  3.85D-04  NBF=   362
 NBsUse=   362 1.00D-06 EigRej= -1.00D+00 NBFU=   362
 Precomputing XC quadrature grid using
 IXCGrd= 4 IRadAn=           5 IRanWt=          -1 IRanGd=           0 AccXCQ= 0.00D+00.
 Generated NRdTot=       0 NPtTot=           0 NUsed=           0 NTot=          32
 NSgBfM=   378   378   378   378   378 MxSgAt=    40 MxSgA2=    40.
 Leave Link  302 at Sat Mar  4 11:36:54 2023, MaxMem=  1048576000 cpu:               1.4 elap:               1.4
 (Enter /ssoft/spack/external/gaussian/g16-C.01/avx2/g16/l303.exe)
 DipDrv:  MaxL=1.
 Leave Link  303 at Sat Mar  4 11:36:54 2023, MaxMem=  1048576000 cpu:               0.1 elap:               0.1
 (Enter /ssoft/spack/external/gaussian/g16-C.01/avx2/g16/l401.exe)
 ExpMin= 1.22D-01 ExpMax= 1.71D+03 ExpMxC= 2.58D+02 IAcc=3 IRadAn=         5 AccDes= 0.00D+00
 Harris functional with IExCor= 1009 and IRadAn=       5 diagonalized for initial guess.
 HarFok:  IExCor= 1009 AccDes= 0.00D+00 IRadAn=         5 IDoV= 1 UseB2=F ITyADJ=14
 ICtDFT=  3500011 ScaDFX=  1.000000  1.000000  1.000000  1.000000
 FoFCou: FMM=F IPFlag=           0 FMFlag=      100000 FMFlg1=           0
         NFxFlg=           0 DoJE=T BraDBF=F KetDBF=T FulRan=T
         wScrn=  0.000000 ICntrl=       500 IOpCl=  0 I1Cent=   200000004 NGrid=           0
         NMat0=    1 NMatS0=      1 NMatT0=    0 NMatD0=    1 NMtDS0=    0 NMtDT0=    0
 Petite list used in FoFCou.
 Harris En= -731.229483838102    
 JPrj=0 DoOrth=F DoCkMO=F.
 Leave Link  401 at Sat Mar  4 11:37:06 2023, MaxMem=  1048576000 cpu:              11.4 elap:              11.4
 (Enter /ssoft/spack/external/gaussian/g16-C.01/avx2/g16/l502.exe)
 Integral symmetry usage will be decided dynamically.
 Closed shell SCF:
 Using DIIS extrapolation, IDIIS=  1040.
 NGot=  1048576000 LenX=  1048279778 LenY=  1048134937
 Requested convergence on RMS density matrix=1.00D-08 within 128 cycles.
 Requested convergence on MAX density matrix=1.00D-06.
 Requested convergence on             energy=1.00D-06.
 No special actions if energy rises.
 Fock matrices will be formed incrementally for  20 cycles.
 Integral accuracy reduced to 1.0D-05 until final iterations.

 Cycle   1  Pass 0  IDiag  1:
 FoFJK:  IHMeth= 1 ICntrl=       0 DoSepK=F KAlg= 0 I1Cent=           0 FoldK=F
 IRaf= 850000000 NMat=       1 IRICut=       1 DoRegI=T DoRafI=F ISym2E= 0 IDoP0=0 IntGTp=1.
 FoFCou: FMM=F IPFlag=           0 FMFlag=      100000 FMFlg1=           0
         NFxFlg=           0 DoJE=F BraDBF=F KetDBF=F FulRan=T
         wScrn=  0.000000 ICntrl=         0 IOpCl=  0 I1Cent=           0 NGrid=           0
         NMat0=    1 NMatS0=      1 NMatT0=    0 NMatD0=    1 NMtDS0=    0 NMtDT0=    0
 Symmetry not used in FoFCou.
 E= -730.333167385963    
 DIIS: error= 3.85D-02 at cycle   1 NSaved=   1.
 NSaved= 1 IEnMin= 1 EnMin= -730.333167385963     IErMin= 1 ErrMin= 3.85D-02
 ErrMax= 3.85D-02  0.00D+00 EMaxC= 1.00D-01 BMatC= 4.62D-01 BMatP= 4.62D-01
 IDIUse=3 WtCom= 6.15D-01 WtEn= 3.85D-01
 Coeff-Com:  0.100D+01
 Coeff-En:   0.100D+01
 Coeff:      0.100D+01
 Gap=     0.227 Goal=   None    Shift=    0.000
 GapD=    0.227 DampG=1.000 DampE=0.500 DampFc=0.5000 IDamp=-1.
 Damping current iteration by 5.00D-01
 RMSDP=4.63D-03 MaxDP=1.62D-01              OVMax= 1.59D-01

 Cycle   2  Pass 0  IDiag  1:
 RMSU=  2.23D-03    CP:  9.64D-01
 E= -730.587994337393     Delta-E=       -0.254826951430 Rises=F Damp=T
 DIIS: error= 5.30D-03 at cycle   2 NSaved=   2.
 NSaved= 2 IEnMin= 2 EnMin= -730.587994337393     IErMin= 2 ErrMin= 5.30D-03
 ErrMax= 5.30D-03  0.00D+00 EMaxC= 1.00D-01 BMatC= 1.92D-02 BMatP= 4.62D-01
 IDIUse=3 WtCom= 9.47D-01 WtEn= 5.30D-02
 Coeff-Com: -0.531D-01 0.105D+01
 Coeff-En:   0.000D+00 0.100D+01
 Coeff:     -0.503D-01 0.105D+01
 Gap=     0.219 Goal=   None    Shift=    0.000
 RMSDP=1.76D-03 MaxDP=7.48D-02 DE=-2.55D-01 OVMax= 1.11D-01

 Cycle   3  Pass 0  IDiag  1:
 RMSU=  1.71D-03    CP:  9.48D-01  1.15D+00
 E= -730.827463788131     Delta-E=       -0.239469450738 Rises=F Damp=F
 DIIS: error= 3.98D-03 at cycle   3 NSaved=   3.
 NSaved= 3 IEnMin= 3 EnMin= -730.827463788131     IErMin= 3 ErrMin= 3.98D-03
 ErrMax= 3.98D-03  0.00D+00 EMaxC= 1.00D-01 BMatC= 8.32D-03 BMatP= 1.92D-02
 IDIUse=3 WtCom= 9.60D-01 WtEn= 3.98D-02
 Coeff-Com: -0.464D-01 0.413D+00 0.634D+00
 Coeff-En:   0.000D+00 0.000D+00 0.100D+01
 Coeff:     -0.445D-01 0.396D+00 0.648D+00
 Gap=     0.224 Goal=   None    Shift=    0.000
 RMSDP=6.28D-04 MaxDP=3.43D-02 DE=-2.39D-01 OVMax= 4.42D-02

 Cycle   4  Pass 0  IDiag  1:
 RMSU=  4.51D-04    CP:  9.46D-01  1.17D+00  7.46D-01
 E= -730.832166739425     Delta-E=       -0.004702951294 Rises=F Damp=F
 DIIS: error= 3.83D-03 at cycle   4 NSaved=   4.
 NSaved= 4 IEnMin= 4 EnMin= -730.832166739425     IErMin= 4 ErrMin= 3.83D-03
 ErrMax= 3.83D-03  0.00D+00 EMaxC= 1.00D-01 BMatC= 3.72D-03 BMatP= 8.32D-03
 IDIUse=3 WtCom= 9.62D-01 WtEn= 3.83D-02
 Coeff-Com: -0.207D-01 0.124D+00 0.408D+00 0.488D+00
 Coeff-En:   0.000D+00 0.000D+00 0.334D+00 0.666D+00
 Coeff:     -0.199D-01 0.119D+00 0.406D+00 0.495D+00
 Gap=     0.214 Goal=   None    Shift=    0.000
 RMSDP=2.45D-04 MaxDP=9.17D-03 DE=-4.70D-03 OVMax= 2.66D-02

 Cycle   5  Pass 0  IDiag  1:
 RMSU=  1.24D-04    CP:  9.46D-01  1.17D+00  8.00D-01  5.82D-01
 E= -730.835933837387     Delta-E=       -0.003767097962 Rises=F Damp=F
 DIIS: error= 9.68D-04 at cycle   5 NSaved=   5.
 NSaved= 5 IEnMin= 5 EnMin= -730.835933837387     IErMin= 5 ErrMin= 9.68D-04
 ErrMax= 9.68D-04  0.00D+00 EMaxC= 1.00D-01 BMatC= 2.73D-04 BMatP= 3.72D-03
 IDIUse=3 WtCom= 9.90D-01 WtEn= 9.68D-03
 Coeff-Com: -0.651D-02 0.287D-01 0.165D+00 0.280D+00 0.534D+00
 Coeff-En:   0.000D+00 0.000D+00 0.000D+00 0.000D+00 0.100D+01
 Coeff:     -0.645D-02 0.284D-01 0.163D+00 0.277D+00 0.538D+00
 Gap=     0.216 Goal=   None    Shift=    0.000
 RMSDP=6.75D-05 MaxDP=3.53D-03 DE=-3.77D-03 OVMax= 5.29D-03

 Cycle   6  Pass 0  IDiag  1:
 RMSU=  4.68D-05    CP:  9.46D-01  1.17D+00  8.00D-01  6.29D-01  6.56D-01
 E= -730.836161198063     Delta-E=       -0.000227360676 Rises=F Damp=F
 DIIS: error= 2.13D-04 at cycle   6 NSaved=   6.
 NSaved= 6 IEnMin= 6 EnMin= -730.836161198063     IErMin= 6 ErrMin= 2.13D-04
 ErrMax= 2.13D-04  0.00D+00 EMaxC= 1.00D-01 BMatC= 3.34D-05 BMatP= 2.73D-04
 IDIUse=3 WtCom= 9.98D-01 WtEn= 2.13D-03
 Coeff-Com: -0.133D-02 0.191D-02 0.457D-01 0.104D+00 0.318D+00 0.532D+00
 Coeff-En:   0.000D+00 0.000D+00 0.000D+00 0.000D+00 0.616D-01 0.938D+00
 Coeff:     -0.132D-02 0.190D-02 0.456D-01 0.104D+00 0.317D+00 0.533D+00
 Gap=     0.215 Goal=   None    Shift=    0.000
 RMSDP=2.17D-05 MaxDP=1.49D-03 DE=-2.27D-04 OVMax= 1.70D-03

 Cycle   7  Pass 0  IDiag  1:
 RMSU=  9.18D-06    CP:  9.46D-01  1.17D+00  8.04D-01  6.27D-01  6.74D-01
                    CP:  6.14D-01
 E= -730.836189175448     Delta-E=       -0.000027977385 Rises=F Damp=F
 DIIS: error= 6.35D-05 at cycle   7 NSaved=   7.
 NSaved= 7 IEnMin= 7 EnMin= -730.836189175448     IErMin= 7 ErrMin= 6.35D-05
 ErrMax= 6.35D-05  0.00D+00 EMaxC= 1.00D-01 BMatC= 1.82D-06 BMatP= 3.34D-05
 IDIUse=1 WtCom= 1.00D+00 WtEn= 0.00D+00
 Coeff-Com: -0.468D-03-0.198D-03 0.192D-01 0.478D-01 0.161D+00 0.307D+00
 Coeff-Com:  0.465D+00
 Coeff:     -0.468D-03-0.198D-03 0.192D-01 0.478D-01 0.161D+00 0.307D+00
 Coeff:      0.465D+00
 Gap=     0.216 Goal=   None    Shift=    0.000
 RMSDP=5.50D-06 MaxDP=2.62D-04 DE=-2.80D-05 OVMax= 4.11D-04

 Initial convergence to 1.0D-05 achieved.  Increase integral accuracy.
 Cycle   8  Pass 1  IDiag  1:
 E= -730.836259771463     Delta-E=       -0.000070596015 Rises=F Damp=F
 DIIS: error= 6.71D-05 at cycle   1 NSaved=   1.
 NSaved= 1 IEnMin= 1 EnMin= -730.836259771463     IErMin= 1 ErrMin= 6.71D-05
 ErrMax= 6.71D-05  0.00D+00 EMaxC= 1.00D-01 BMatC= 1.45D-06 BMatP= 1.45D-06
 IDIUse=1 WtCom= 1.00D+00 WtEn= 0.00D+00
 Coeff-Com:  0.100D+01
 Coeff:      0.100D+01
 Gap=     0.215 Goal=   None    Shift=    0.000
 RMSDP=5.50D-06 MaxDP=2.62D-04 DE=-7.06D-05 OVMax= 2.82D-04

 Cycle   9  Pass 1  IDiag  1:
 RMSU=  5.88D-05    CP:  1.00D+00
 E= -730.836261181052     Delta-E=       -0.000001409589 Rises=F Damp=F
 DIIS: error= 2.29D-05 at cycle   2 NSaved=   2.
 NSaved= 2 IEnMin= 2 EnMin= -730.836261181052     IErMin= 2 ErrMin= 2.29D-05
 ErrMax= 2.29D-05  0.00D+00 EMaxC= 1.00D-01 BMatC= 2.71D-07 BMatP= 1.45D-06
 IDIUse=1 WtCom= 1.00D+00 WtEn= 0.00D+00
 Coeff-Com:  0.202D+00 0.798D+00
 Coeff:      0.202D+00 0.798D+00
 Gap=     0.216 Goal=   None    Shift=    0.000
 RMSDP=4.38D-06 MaxDP=2.75D-04 DE=-1.41D-06 OVMax= 3.13D-04

 Cycle  10  Pass 1  IDiag  1:
 RMSU=  4.24D-06    CP:  1.00D+00  1.02D+00
 E= -730.836261027753     Delta-E=        0.000000153299 Rises=F Damp=F
 DIIS: error= 2.55D-05 at cycle   3 NSaved=   3.
 NSaved= 3 IEnMin= 2 EnMin= -730.836261181052     IErMin= 2 ErrMin= 2.29D-05
 ErrMax= 2.55D-05  0.00D+00 EMaxC= 1.00D-01 BMatC= 4.42D-07 BMatP= 2.71D-07
 IDIUse=1 WtCom= 1.00D+00 WtEn= 0.00D+00
 Coeff-Com: -0.387D-02 0.563D+00 0.441D+00
 Coeff:     -0.387D-02 0.563D+00 0.441D+00
 Gap=     0.215 Goal=   None    Shift=    0.000
 RMSDP=2.37D-06 MaxDP=1.55D-04 DE= 1.53D-07 OVMax= 1.99D-04

 Cycle  11  Pass 1  IDiag  1:
 RMSU=  5.33D-07    CP:  1.00D+00  1.02D+00  4.60D-01
 E= -730.836261426510     Delta-E=       -0.000000398757 Rises=F Damp=F
 DIIS: error= 2.76D-06 at cycle   4 NSaved=   4.
 NSaved= 4 IEnMin= 4 EnMin= -730.836261426510     IErMin= 4 ErrMin= 2.76D-06
 ErrMax= 2.76D-06  0.00D+00 EMaxC= 1.00D-01 BMatC= 5.85D-09 BMatP= 2.71D-07
 IDIUse=1 WtCom= 1.00D+00 WtEn= 0.00D+00
 Coeff-Com: -0.524D-02 0.330D+00 0.267D+00 0.408D+00
 Coeff:     -0.524D-02 0.330D+00 0.267D+00 0.408D+00
 Gap=     0.215 Goal=   None    Shift=    0.000
 RMSDP=2.71D-07 MaxDP=1.38D-05 DE=-3.99D-07 OVMax= 1.96D-05

 Cycle  12  Pass 1  IDiag  1:
 RMSU=  1.77D-07    CP:  1.00D+00  1.02D+00  4.68D-01  6.23D-01
 E= -730.836261431717     Delta-E=       -0.000000005208 Rises=F Damp=F
 DIIS: error= 7.84D-07 at cycle   5 NSaved=   5.
 NSaved= 5 IEnMin= 5 EnMin= -730.836261431717     IErMin= 5 ErrMin= 7.84D-07
 ErrMax= 7.84D-07  0.00D+00 EMaxC= 1.00D-01 BMatC= 1.46D-10 BMatP= 5.85D-09
 IDIUse=1 WtCom= 1.00D+00 WtEn= 0.00D+00
 Coeff-Com: -0.266D-02 0.155D+00 0.126D+00 0.220D+00 0.502D+00
 Coeff:     -0.266D-02 0.155D+00 0.126D+00 0.220D+00 0.502D+00
 Gap=     0.215 Goal=   None    Shift=    0.000
 RMSDP=5.22D-08 MaxDP=2.13D-06 DE=-5.21D-09 OVMax= 5.62D-06

 Cycle  13  Pass 1  IDiag  1:
 RMSU=  4.71D-08    CP:  1.00D+00  1.02D+00  4.66D-01  6.31D-01  8.83D-01
 E= -730.836261431846     Delta-E=       -0.000000000128 Rises=F Damp=F
 DIIS: error= 2.52D-07 at cycle   6 NSaved=   6.
 NSaved= 6 IEnMin= 6 EnMin= -730.836261431846     IErMin= 6 ErrMin= 2.52D-07
 ErrMax= 2.52D-07  0.00D+00 EMaxC= 1.00D-01 BMatC= 1.60D-11 BMatP= 1.46D-10
 IDIUse=1 WtCom= 1.00D+00 WtEn= 0.00D+00
 Coeff-Com: -0.752D-03 0.403D-01 0.328D-01 0.632D-01 0.275D+00 0.590D+00
 Coeff:     -0.752D-03 0.403D-01 0.328D-01 0.632D-01 0.275D+00 0.590D+00
 Gap=     0.215 Goal=   None    Shift=    0.000
 RMSDP=1.85D-08 MaxDP=6.17D-07 DE=-1.28D-10 OVMax= 1.65D-06

 Cycle  14  Pass 1  IDiag  1:
 RMSU=  1.44D-08    CP:  1.00D+00  1.02D+00  4.67D-01  6.33D-01  9.19D-01
                    CP:  8.28D-01
 E= -730.836261431855     Delta-E=       -0.000000000010 Rises=F Damp=F
 DIIS: error= 5.65D-08 at cycle   7 NSaved=   7.
 NSaved= 7 IEnMin= 7 EnMin= -730.836261431855     IErMin= 7 ErrMin= 5.65D-08
 ErrMax= 5.65D-08  0.00D+00 EMaxC= 1.00D-01 BMatC= 1.32D-12 BMatP= 1.60D-11
 IDIUse=1 WtCom= 1.00D+00 WtEn= 0.00D+00
 Coeff-Com:  0.413D-06-0.162D-02-0.132D-02-0.182D-03 0.637D-01 0.278D+00
 Coeff-Com:  0.662D+00
 Coeff:      0.413D-06-0.162D-02-0.132D-02-0.182D-03 0.637D-01 0.278D+00
 Coeff:      0.662D+00
 Gap=     0.215 Goal=   None    Shift=    0.000
 RMSDP=5.96D-09 MaxDP=1.91D-07 DE=-9.55D-12 OVMax= 5.16D-07

 SCF Done:  E(RPBE1PBE) =  -730.836261432     A.U. after   14 cycles
            NFock= 14  Conv=0.60D-08     -V/T= 2.0051
 KE= 7.271064541746D+02 PE=-4.371601240572D+03 EE= 1.575684193645D+03
 Leave Link  502 at Sat Mar  4 11:43:30 2023, MaxMem=  1048576000 cpu:             381.6 elap:             383.7
 (Enter /ssoft/spack/external/gaussian/g16-C.01/avx2/g16/l801.exe)
 DoSCS=F DFT=T ScalE2(SS,OS)=  1.000000  1.000000
 Range of M.O.s used for correlation:     1   362
 NBasis=   362 NAE=    66 NBE=    66 NFC=     0 NFV=     0
 NROrb=    362 NOA=    66 NOB=    66 NVA=   296 NVB=   296
 Leave Link  801 at Sat Mar  4 11:43:30 2023, MaxMem=  1048576000 cpu:               0.0 elap:               0.0
 (Enter /ssoft/spack/external/gaussian/g16-C.01/avx2/g16/l1101.exe)
 Using compressed storage, NAtomX=    40.
 Will process     41 centers per pass.
   1 Symmetry operations used in ECPInt.
 ECPInt:  NShTT=   15225 NPrTT=   53601 LenC2=   13787 LenP2D=   35473.
 LDataN:  DoStor=T MaxTD1= 5 Len=  102
 R6Disp: Adding Grimme-D3(BJ) dispersion energy 1st derivatives to the gradient.
 Leave Link 1101 at Sat Mar  4 11:43:30 2023, MaxMem=  1048576000 cpu:               0.6 elap:               0.7
 (Enter /ssoft/spack/external/gaussian/g16-C.01/avx2/g16/l1102.exe)
 Symmetrizing basis deriv contribution to polar:
 IMax=3 JMax=2 DiffMx= 0.00D+00
 Leave Link 1102 at Sat Mar  4 11:43:31 2023, MaxMem=  1048576000 cpu:               0.1 elap:               0.1
 (Enter /ssoft/spack/external/gaussian/g16-C.01/avx2/g16/l1110.exe)
 Forming Gx(P) for the SCF density, NAtomX=    40.
 Integral derivatives from FoFJK, PRISM(SPDF).
 Do as many integral derivatives as possible in FoFJK.
 G2DrvN: MDV=    1048571744.
 G2DrvN: will do    41 centers at a time, making    1 passes.
 Calling FoFCou, ICntrl=  3107 FMM=F I1Cent=   0 AccDes= 0.00D+00.
 FoFJK:  IHMeth= 1 ICntrl=    3107 DoSepK=F KAlg= 0 I1Cent=           0 FoldK=F
 IRaf=         0 NMat=       1 IRICut=       1 DoRegI=T DoRafI=F ISym2E= 0 IDoP0=0 IntGTp=1.
 FoFCou: FMM=F IPFlag=           0 FMFlag=      100000 FMFlg1=           0
         NFxFlg=           0 DoJE=F BraDBF=F KetDBF=F FulRan=T
         wScrn=  0.000000 ICntrl=      3107 IOpCl=  0 I1Cent=           0 NGrid=           0
         NMat0=    1 NMatS0=      1 NMatT0=    0 NMatD0=    1 NMtDS0=    0 NMtDT0=    0
 Symmetry not used in FoFCou.
 End of G2Drv F.D. properties file   721 does not exist.
 End of G2Drv F.D. properties file   722 does not exist.
 End of G2Drv F.D. properties file   788 does not exist.
 Leave Link 1110 at Sat Mar  4 12:01:19 2023, MaxMem=  1048576000 cpu:            1062.7 elap:            1068.0
 (Enter /ssoft/spack/external/gaussian/g16-C.01/avx2/g16/l1002.exe)
 Minotr:  Closed shell wavefunction.
          IDoAtm=1111111111111111111111111111111111111111
          Direct CPHF calculation.
          Differentiating once with respect to electric field.
                with respect to dipole field.
          Differentiating once with respect to nuclear coordinates.
          Requested convergence is 1.0D-08 RMS, and 1.0D-07 maximum.
          Secondary convergence is 1.0D-12 RMS, and 1.0D-12 maximum.
          NewPWx=T KeepS1=F KeepF1=F KeepIn=T MapXYZ=F SortEE=F KeepMc=T.
        12103 words used for storage of precomputed grid.
 Two-electron integrals replicated using symmetry.
          MDV=    1048576000 using IRadAn=       1.
          Solving linear equations simultaneously, MaxMat=     384.
 FoF2E skips out because all densities are zero.
 CalDSu exits because no D1Ps are significant.
 FoFJK:  IHMeth= 1 ICntrl=       0 DoSepK=F KAlg= 0 I1Cent=           0 FoldK=F
 IRaf= 830000000 NMat=     120 IRICut=     300 DoRegI=T DoRafI=T ISym2E= 2 IDoP0=3 IntGTp=3.
 FoFCou: FMM=F IPFlag=           0 FMFlag=      100000 FMFlg1=           0
         NFxFlg=           0 DoJE=F BraDBF=F KetDBF=F FulRan=T
         wScrn=  0.000000 ICntrl=         0 IOpCl=  0 I1Cent=           0 NGrid=           0
         NMat0=  120 NMatS0=    120 NMatT0=    0 NMatD0=  120 NMtDS0=    0 NMtDT0=    0
 Integrals replicated using symmetry in FoFCou.
 Raff kept on since  78.19% of shell-pairs survive, threshold=   0.20 IRatSp=78.
          There are   123 degrees of freedom in the 1st order CPHF.  IDoFFX=6 NUNeed=     3.
    120 vectors produced by pass  0 Test12= 1.95D-14 1.00D-09 XBig12= 1.50D+02 4.86D+00.
 AX will form   120 AO Fock derivatives at one time.
    120 vectors produced by pass  1 Test12= 1.95D-14 1.00D-09 XBig12= 2.95D+01 1.51D+00.
    120 vectors produced by pass  2 Test12= 1.95D-14 1.00D-09 XBig12= 2.24D-01 5.52D-02.
    120 vectors produced by pass  3 Test12= 1.95D-14 1.00D-09 XBig12= 7.47D-04 3.34D-03.
    120 vectors produced by pass  4 Test12= 1.95D-14 1.00D-09 XBig12= 1.54D-06 1.29D-04.
     97 vectors produced by pass  5 Test12= 1.95D-14 1.00D-09 XBig12= 1.88D-09 3.94D-06.
     11 vectors produced by pass  6 Test12= 1.95D-14 1.00D-09 XBig12= 1.96D-12 1.21D-07.
      3 vectors produced by pass  7 Test12= 1.95D-14 1.00D-09 XBig12= 1.89D-15 3.58D-09.
 InvSVY:  IOpt=1 It=  1 EMax= 2.31D-14
 Solved reduced A of dimension   711 with   123 vectors.
 FullF1:  Do perturbations      1 to       3.
 Isotropic polarizability for W=    0.000000      159.48 Bohr**3.
 End of Minotr F.D. properties file   721 does not exist.
 End of Minotr F.D. properties file   722 does not exist.
 End of Minotr F.D. properties file   788 does not exist.
 Leave Link 1002 at Sat Mar  4 12:32:47 2023, MaxMem=  1048576000 cpu:            1879.5 elap:            1888.1
 (Enter /ssoft/spack/external/gaussian/g16-C.01/avx2/g16/l601.exe)
 Copying SCF densities to generalized density rwf, IOpCl= 0 IROHF=0.

 **********************************************************************

            Population analysis using the SCF Density.

 **********************************************************************

 Orbital symmetries:
       Occupied  (A) (A) (A) (A) (A) (A) (A) (A) (A) (A) (A) (A)
                 (A) (A) (A) (A) (A) (A) (A) (A) (A) (A) (A) (A)
                 (A) (A) (A) (A) (A) (A) (A) (A) (A) (A) (A) (A)
                 (A) (A) (A) (A) (A) (A) (A) (A) (A) (A) (A) (A)
                 (A) (A) (A) (A) (A) (A) (A) (A) (A) (A) (A) (A)
                 (A) (A) (A) (A) (A) (A)
       Virtual   (A) (A) (A) (A) (A) (A) (A) (A) (A) (A) (A) (A)
                 (A) (A) (A) (A) (A) (A) (A) (A) (A) (A) (A) (A)
                 (A) (A) (A) (A) (A) (A) (A) (A) (A) (A) (A) (A)
                 (A) (A) (A) (A) (A) (A) (A) (A) (A) (A) (A) (A)
                 (A) (A) (A) (A) (A) (A) (A) (A) (A) (A) (A) (A)
                 (A) (A) (A) (A) (A) (A) (A) (A) (A) (A) (A) (A)
                 (A) (A) (A) (A) (A) (A) (A) (A) (A) (A) (A) (A)
                 (A) (A) (A) (A) (A) (A) (A) (A) (A) (A) (A) (A)
                 (A) (A) (A) (A) (A) (A) (A) (A) (A) (A) (A) (A)
                 (A) (A) (A) (A) (A) (A) (A) (A) (A) (A) (A) (A)
                 (A) (A) (A) (A) (A) (A) (A) (A) (A) (A) (A) (A)
                 (A) (A) (A) (A) (A) (A) (A) (A) (A) (A) (A) (A)
                 (A) (A) (A) (A) (A) (A) (A) (A) (A) (A) (A) (A)
                 (A) (A) (A) (A) (A) (A) (A) (A) (A) (A) (A) (A)
                 (A) (A) (A) (A) (A) (A) (A) (A) (A) (A) (A) (A)
                 (A) (A) (A) (A) (A) (A) (A) (A) (A) (A) (A) (A)
                 (A) (A) (A) (A) (A) (A) (A) (A) (A) (A) (A) (A)
                 (A) (A) (A) (A) (A) (A) (A) (A) (A) (A) (A) (A)
                 (A) (A) (A) (A) (A) (A) (A) (A) (A) (A) (A) (A)
                 (A) (A) (A) (A) (A) (A) (A) (A) (A) (A) (A) (A)
                 (A) (A) (A) (A) (A) (A) (A) (A) (A) (A) (A) (A)
                 (A) (A) (A) (A) (A) (A) (A) (A) (A) (A) (A) (A)
                 (A) (A) (A) (A) (A) (A) (A) (A) (A) (A) (A) (A)
                 (A) (A) (A) (A) (A) (A) (A) (A) (A) (A) (A) (A)
                 (A) (A) (A) (A) (A) (A) (A) (A)
 The electronic state is 1-A.
 Alpha  occ. eigenvalues --  -14.36944 -14.36037 -10.26295 -10.25848 -10.24520
 Alpha  occ. eigenvalues --  -10.23323 -10.23268 -10.23197 -10.22844 -10.22284
 Alpha  occ. eigenvalues --  -10.21954 -10.21891 -10.20810 -10.20155 -10.20116
 Alpha  occ. eigenvalues --  -10.18489 -10.18289 -10.17425  -0.95774  -0.93592
 Alpha  occ. eigenvalues --   -0.89218  -0.82222  -0.80208  -0.79310  -0.78445
 Alpha  occ. eigenvalues --   -0.75932  -0.72184  -0.71758  -0.68671  -0.66762
 Alpha  occ. eigenvalues --   -0.66067  -0.62938  -0.60013  -0.55893  -0.54884
 Alpha  occ. eigenvalues --   -0.52090  -0.50931  -0.50799  -0.50274  -0.49492
 Alpha  occ. eigenvalues --   -0.48164  -0.47439  -0.46324  -0.44707  -0.44282
 Alpha  occ. eigenvalues --   -0.43908  -0.42703  -0.41954  -0.41848  -0.41516
 Alpha  occ. eigenvalues --   -0.41133  -0.40162  -0.39740  -0.38818  -0.37226
 Alpha  occ. eigenvalues --   -0.35506  -0.33982  -0.33170  -0.32866  -0.32190
 Alpha  occ. eigenvalues --   -0.30571  -0.29319  -0.28096  -0.26189  -0.25416
 Alpha  occ. eigenvalues --   -0.23159
 Alpha virt. eigenvalues --   -0.01611  -0.00124   0.02521   0.06915   0.08905
 Alpha virt. eigenvalues --    0.10296   0.10636   0.11265   0.11635   0.12804
 Alpha virt. eigenvalues --    0.14051   0.14159   0.14938   0.15149   0.15730
 Alpha virt. eigenvalues --    0.16402   0.16943   0.17554   0.18061   0.18329
 Alpha virt. eigenvalues --    0.18635   0.19587   0.20544   0.20599   0.20805
 Alpha virt. eigenvalues --    0.22096   0.22292   0.22549   0.23593   0.24748
 Alpha virt. eigenvalues --    0.25198   0.25687   0.26085   0.27090   0.27975
 Alpha virt. eigenvalues --    0.29552   0.30105   0.30494   0.31581   0.32112
 Alpha virt. eigenvalues --    0.32848   0.33557   0.34898   0.37885   0.40239
 Alpha virt. eigenvalues --    0.41542   0.42310   0.43443   0.44369   0.45431
 Alpha virt. eigenvalues --    0.46620   0.47031   0.47976   0.48987   0.49553
 Alpha virt. eigenvalues --    0.50517   0.52163   0.52564   0.54102   0.54912
 Alpha virt. eigenvalues --    0.55219   0.55759   0.56299   0.57999   0.58911
 Alpha virt. eigenvalues --    0.60417   0.60609   0.61813   0.63020   0.63918
 Alpha virt. eigenvalues --    0.64731   0.65632   0.65892   0.66426   0.67502
 Alpha virt. eigenvalues --    0.67977   0.68644   0.69200   0.69468   0.70411
 Alpha virt. eigenvalues --    0.70908   0.71647   0.72527   0.72704   0.73075
 Alpha virt. eigenvalues --    0.73749   0.74189   0.74596   0.74711   0.75155
 Alpha virt. eigenvalues --    0.75443   0.76146   0.76327   0.76827   0.77269
 Alpha virt. eigenvalues --    0.77572   0.78149   0.78502   0.79109   0.79638
 Alpha virt. eigenvalues --    0.79822   0.80235   0.80479   0.81236   0.81541
 Alpha virt. eigenvalues --    0.82081   0.82609   0.83431   0.83699   0.84541
 Alpha virt. eigenvalues --    0.86035   0.86491   0.88017   0.90091   0.92049
 Alpha virt. eigenvalues --    0.93273   0.94209   0.95178   0.99416   0.99502
 Alpha virt. eigenvalues --    1.00660   1.04047   1.05678   1.06761   1.08745
 Alpha virt. eigenvalues --    1.11836   1.12824   1.13815   1.17623   1.18000
 Alpha virt. eigenvalues --    1.20354   1.21848   1.23006   1.24459   1.25560
 Alpha virt. eigenvalues --    1.26258   1.27786   1.28262   1.28721   1.31787
 Alpha virt. eigenvalues --    1.32496   1.34264   1.35599   1.36941   1.37243
 Alpha virt. eigenvalues --    1.39559   1.40951   1.44387   1.45666   1.47609
 Alpha virt. eigenvalues --    1.49815   1.50565   1.51141   1.55907   1.56932
 Alpha virt. eigenvalues --    1.59643   1.62849   1.63363   1.63688   1.65230
 Alpha virt. eigenvalues --    1.66147   1.66773   1.67397   1.69551   1.70918
 Alpha virt. eigenvalues --    1.72538   1.74118   1.75100   1.75285   1.75826
 Alpha virt. eigenvalues --    1.77742   1.78344   1.79259   1.79687   1.80509
 Alpha virt. eigenvalues --    1.81014   1.81890   1.82892   1.83421   1.84205
 Alpha virt. eigenvalues --    1.85120   1.86415   1.86750   1.87424   1.87909
 Alpha virt. eigenvalues --    1.88474   1.90850   1.92118   1.93165   1.93867
 Alpha virt. eigenvalues --    1.94312   1.95009   1.97473   1.97880   1.98017
 Alpha virt. eigenvalues --    1.98173   2.00413   2.01291   2.01901   2.04022
 Alpha virt. eigenvalues --    2.04361   2.06209   2.06290   2.07068   2.09298
 Alpha virt. eigenvalues --    2.10003   2.12112   2.13775   2.14259   2.14468
 Alpha virt. eigenvalues --    2.16372   2.17053   2.17727   2.18806   2.19166
 Alpha virt. eigenvalues --    2.21115   2.21836   2.22486   2.23748   2.24589
 Alpha virt. eigenvalues --    2.26605   2.27422   2.29074   2.30569   2.31651
 Alpha virt. eigenvalues --    2.34288   2.35265   2.36458   2.38284   2.39030
 Alpha virt. eigenvalues --    2.41798   2.42294   2.43437   2.45244   2.47530
 Alpha virt. eigenvalues --    2.48855   2.51646   2.53013   2.53983   2.54158
 Alpha virt. eigenvalues --    2.55516   2.56518   2.58561   2.58898   2.60768
 Alpha virt. eigenvalues --    2.62560   2.64253   2.65991   2.67409   2.68521
 Alpha virt. eigenvalues --    2.69097   2.73709   2.75150   2.75865   2.76099
 Alpha virt. eigenvalues --    2.77941   2.79530   2.81223   2.83227   2.83492
 Alpha virt. eigenvalues --    2.86156   2.86847   2.87780   2.88239   2.90853
 Alpha virt. eigenvalues --    2.94943   2.96862   3.02265   3.03984   3.09707
 Alpha virt. eigenvalues --    3.11008   3.13182   3.14422   3.15072   3.16674
 Alpha virt. eigenvalues --    3.17763   3.19147   3.19409   3.20293   3.20789
 Alpha virt. eigenvalues --    3.21997   3.23025   3.23128   3.25298   3.26080
 Alpha virt. eigenvalues --    3.27955   3.28484   3.30027   3.30346   3.34196
 Alpha virt. eigenvalues --    3.35820   3.37920   3.42002   3.44286   3.51393
 Alpha virt. eigenvalues --    3.88480
     Molecular Orbital Coefficients:
                          62        63        64        65        66
                           O         O         O         O         O
     Eigenvalues --    -0.29319  -0.28096  -0.26189  -0.25416  -0.23159
   1 1   C  1S         -0.00491   0.00234  -0.00254  -0.03752  -0.00264
   2        2S          0.01246  -0.00546   0.00634   0.09867   0.00296
   3        3S          0.01140  -0.00510   0.00638  -0.01072   0.16541
   4        4PX         0.00775  -0.02152   0.01312   0.10556   0.02536
   5        4PY        -0.01020   0.02449  -0.01381   0.12535  -0.09191
   6        4PZ        -0.10862   0.16168  -0.24927   0.00759   0.00687
   7        5PX         0.00161  -0.02467   0.00723  -0.01002   0.11705
   8        5PY        -0.01237   0.03793  -0.01347  -0.04670  -0.09311
   9        5PZ        -0.09181   0.11251  -0.16405   0.01870   0.01937
  10        6D 0        0.00424   0.00111   0.00086  -0.00084   0.00099
  11        6D+1       -0.00278  -0.00243   0.01310   0.00270  -0.00199
  12        6D-1       -0.02333  -0.00527   0.00155   0.00070   0.00084
  13        6D+2        0.00363   0.00146  -0.00087   0.01040   0.00071
  14        6D-2       -0.00051  -0.00022   0.00023  -0.02428   0.01790
  15 2   C  1S         -0.00117  -0.00150  -0.00190  -0.03875  -0.01698
  16        2S          0.00316   0.00255   0.00411   0.09872   0.05377
  17        3S          0.00453   0.02219   0.00357   0.16006  -0.10347
  18        4PX        -0.00893   0.00528  -0.00085  -0.06217   0.11836
  19        4PY         0.00651   0.01636   0.03393   0.13974   0.12126
  20        4PZ         0.02807   0.04789   0.13261  -0.04209  -0.01798
  21        5PX        -0.00747  -0.01351   0.00014  -0.03413   0.17828
  22        5PY        -0.00319  -0.00420   0.01270   0.09322   0.02401
  23        5PZ         0.01223  -0.01417   0.04753  -0.02788  -0.00122
  24        6D 0        0.00192   0.00404   0.00787  -0.00458  -0.00571
  25        6D+1        0.00363  -0.01468   0.00479  -0.00022  -0.00174
  26        6D-1       -0.00443  -0.01042  -0.01609   0.00090  -0.00064
  27        6D+2        0.00112   0.00119   0.00286   0.01025   0.01645
  28        6D-2        0.00023  -0.00221   0.00027  -0.00114   0.00658
  29 3   H  1S          0.03100   0.05730   0.13799  -0.05821  -0.03998
  30        2S          0.02238   0.04398   0.07816  -0.05753  -0.04098
  31        3PX        -0.00046  -0.00308   0.00036  -0.00208   0.00122
  32        3PY         0.00040   0.00050   0.00187   0.00355   0.00446
  33        3PZ        -0.00004  -0.00046  -0.00077   0.00217   0.00228
  34 4   H  1S         -0.03139  -0.05509  -0.13109  -0.04665  -0.06242
  35        2S         -0.03086  -0.05065  -0.07303  -0.05304  -0.06034
  36        3PX         0.00044   0.00405  -0.00016  -0.00172   0.00164
  37        3PY        -0.00037  -0.00022  -0.00175   0.00234   0.00300
  38        3PZ         0.00009   0.00007   0.00030  -0.00350  -0.00379
  39 5   C  1S         -0.00017  -0.00609  -0.00464  -0.01960  -0.03059
  40        2S          0.00036   0.01423   0.01154   0.04908   0.07950
  41        3S          0.00088  -0.00464   0.00285  -0.03277  -0.05381
  42        4PX        -0.00711   0.00204  -0.01631  -0.03277  -0.04828
  43        4PY        -0.00396  -0.02471  -0.01897   0.08611   0.14917
  44        4PZ         0.00192  -0.22083  -0.15756   0.01186  -0.02448
  45        5PX        -0.00735  -0.01127  -0.01334  -0.01198  -0.00164
  46        5PY         0.00054  -0.02922  -0.01975  -0.00169  -0.06991
  47        5PZ         0.00468  -0.17198  -0.11874   0.02250   0.00969
  48        6D 0        0.00006  -0.00288  -0.00133   0.00022  -0.00015
  49        6D+1       -0.00058   0.02435   0.01315  -0.00406  -0.00527
  50        6D-1        0.00016  -0.00543  -0.00357   0.00070  -0.00003
  51        6D+2       -0.00002   0.00325   0.00202   0.00819   0.01710
  52        6D-2       -0.00058   0.00506   0.00240   0.01039   0.02511
  53 6   C  1S         -0.00063   0.00708   0.00277   0.01024   0.02764
  54        2S          0.00158  -0.01738  -0.00633  -0.02609  -0.06209
  55        3S          0.00005  -0.01345  -0.00874  -0.05318  -0.19497
  56        4PX        -0.00163  -0.02910  -0.01473   0.03867   0.09322
  57        4PY         0.00054  -0.00070  -0.00456  -0.09277  -0.17301
  58        4PZ        -0.00719   0.09275   0.03520   0.00510   0.01846
  59        5PX        -0.00128  -0.01239  -0.00218   0.02546   0.07397
  60        5PY         0.00195   0.00574  -0.00031  -0.06136  -0.14923
  61        5PZ        -0.00374   0.04684   0.01436   0.00319   0.01628
  62        6D 0       -0.00020   0.00467   0.00257   0.00075   0.00102
  63        6D+1        0.00026  -0.00254  -0.00034  -0.00025  -0.00127
  64        6D-1        0.00025  -0.01076  -0.00662   0.00134   0.00040
  65        6D+2       -0.00002  -0.00010   0.00037   0.00051   0.00337
  66        6D-2       -0.00011  -0.00175  -0.00070   0.00202   0.00367
  67 7   H  1S          0.00447  -0.07371  -0.03208   0.02568   0.02388
  68        2S          0.00372  -0.03359  -0.03044   0.01996   0.02943
  69        3PX         0.00035  -0.00221  -0.00022   0.00241   0.00319
  70        3PY         0.00025  -0.00072  -0.00026  -0.00190  -0.00415
  71        3PZ         0.00008   0.00129   0.00051   0.00138   0.00162
  72 8   H  1S         -0.00532   0.09648   0.04605   0.01393   0.02772
  73        2S         -0.00137   0.06255   0.04715   0.01032   0.03305
  74        3PX        -0.00021   0.00050  -0.00040   0.00164   0.00223
  75        3PY        -0.00008   0.00018  -0.00011  -0.00228  -0.00437
  76        3PZ         0.00006  -0.00098  -0.00064  -0.00109  -0.00067
  77 9   C  1S          0.00010  -0.00208  -0.00174  -0.00256  -0.00777
  78        2S         -0.00079   0.00895   0.00605   0.00838   0.02368
  79        3S          0.00521  -0.04428  -0.01861   0.00793   0.02708
  80        4PX         0.00024   0.03514   0.01645  -0.02027  -0.05516
  81        4PY         0.00115  -0.03410  -0.00472   0.02231   0.02529
  82        4PZ         0.00602  -0.09835  -0.03267   0.00036  -0.00551
  83        5PX        -0.00075   0.02590   0.01384  -0.01746  -0.04517
  84        5PY         0.00225  -0.03712  -0.01148   0.00043  -0.00304
  85        5PZ         0.00224  -0.04711  -0.01871   0.00459   0.00665
  86        6D 0       -0.00029   0.00244   0.00084   0.00020   0.00043
  87        6D+1        0.00018  -0.00261  -0.00095  -0.00043  -0.00115
  88        6D-1        0.00016  -0.00403  -0.00137   0.00091   0.00103
  89        6D+2       -0.00009  -0.00224  -0.00134  -0.00055  -0.00090
  90        6D-2       -0.00004  -0.00337  -0.00128   0.00463   0.00820
  91 10  H  1S          0.00153   0.01753   0.00582  -0.03198  -0.05679
  92        2S          0.00083   0.01408   0.00424  -0.02533  -0.04844
  93        3PX        -0.00003   0.00040   0.00024   0.00016  -0.00043
  94        3PY         0.00010  -0.00079  -0.00015  -0.00021  -0.00102
  95        3PZ         0.00014  -0.00297  -0.00084   0.00055   0.00078
  96 11  C  1S         -0.00049  -0.00778  -0.00637  -0.00180  -0.00277
  97        2S          0.00146   0.01445   0.01264   0.00613   0.01169
  98        3S         -0.00043   0.05499   0.04956  -0.00982  -0.02821
  99        4PX        -0.00367  -0.07804  -0.04111   0.02403   0.04127
 100        4PY        -0.00288   0.10900   0.03880  -0.03099  -0.03935
 101        4PZ        -0.00092  -0.05209  -0.02635  -0.00438  -0.00755
 102        5PX         0.00041  -0.06646  -0.03281   0.02787   0.04755
 103        5PY        -0.00013   0.05853   0.02558  -0.02255  -0.03208
 104        5PZ         0.00144  -0.03871  -0.01638  -0.01485  -0.02352
 105        6D 0        0.00008  -0.00182  -0.00093  -0.00097  -0.00244
 106        6D+1        0.00007   0.00241   0.00100  -0.00027  -0.00029
 107        6D-1       -0.00014  -0.00052  -0.00002   0.00180   0.00307
 108        6D+2       -0.00034   0.00285   0.00027   0.00112   0.00314
 109        6D-2       -0.00006  -0.00624  -0.00283   0.00162   0.00289
 110 12  C  1S         -0.00008   0.00152  -0.00001   0.00143   0.00262
 111        2S          0.00023  -0.00597  -0.00107  -0.00365  -0.00635
 112        3S          0.00017   0.00624  -0.00106   0.01148   0.01881
 113        4PX         0.00020   0.00163  -0.00643  -0.00507  -0.01205
 114        4PY         0.00087  -0.03111  -0.01057   0.00489   0.00422
 115        4PZ        -0.00026   0.03369   0.01467   0.00920   0.01975
 116        5PX        -0.00095  -0.00846  -0.00999  -0.00536  -0.01001
 117        5PY         0.00044  -0.01955  -0.00794  -0.00002  -0.00471
 118        5PZ         0.00046   0.02633   0.01611  -0.00039   0.00468
 119        6D 0        0.00002   0.00067   0.00034  -0.00037  -0.00056
 120        6D+1        0.00011   0.00278   0.00111  -0.00073  -0.00133
 121        6D-1        0.00016  -0.00572  -0.00204   0.00104   0.00104
 122        6D+2       -0.00011   0.00062   0.00010   0.00033   0.00083
 123        6D-2        0.00001  -0.00167  -0.00047   0.00032   0.00040
 124 13  C  1S          0.00049   0.00203   0.00195  -0.00312  -0.00744
 125        2S         -0.00106  -0.00590  -0.00461   0.00585   0.01410
 126        3S         -0.00315   0.00353  -0.00924   0.00756   0.02826
 127        4PX         0.00367   0.03002   0.01881  -0.02058  -0.04171
 128        4PY         0.00184  -0.02047  -0.00452   0.00106  -0.00573
 129        4PZ        -0.00026   0.01192   0.00524   0.00322   0.00656
 130        5PX         0.00278   0.01216   0.01163  -0.01217  -0.02844
 131        5PY         0.00102  -0.00943  -0.00104   0.00090  -0.00269
 132        5PZ        -0.00076   0.01102   0.00330   0.00200   0.00571
 133        6D 0        0.00000  -0.00107  -0.00063  -0.00021  -0.00035
 134        6D+1        0.00012   0.00243   0.00129  -0.00057  -0.00109
 135        6D-1        0.00002  -0.00051  -0.00007   0.00042   0.00055
 136        6D+2       -0.00009   0.00314   0.00112  -0.00089  -0.00103
 137        6D-2       -0.00006  -0.00365  -0.00156   0.00159   0.00254
 138 14  H  1S          0.00076   0.04068   0.01828  -0.01184  -0.01804
 139        2S          0.00084   0.02745   0.01382  -0.01086  -0.02085
 140        3PX         0.00009   0.00009   0.00022  -0.00047  -0.00109
 141        3PY         0.00008   0.00050   0.00038  -0.00005  -0.00020
 142        3PZ        -0.00000  -0.00085  -0.00034   0.00032   0.00044
 143 15  H  1S          0.00131  -0.02143  -0.00586   0.00673   0.00611
 144        2S          0.00110  -0.01798  -0.00461   0.00553   0.00320
 145        3PX         0.00011   0.00089   0.00054  -0.00048  -0.00098
 146        3PY        -0.00002  -0.00005  -0.00003  -0.00020  -0.00037
 147        3PZ        -0.00001   0.00063   0.00027  -0.00002   0.00008
 148 16  H  1S          0.00025  -0.00975  -0.00476  -0.00347  -0.00508
 149        2S         -0.00006  -0.00306  -0.00159  -0.00302  -0.00549
 150        3PX         0.00009   0.00112   0.00059  -0.00051  -0.00102
 151        3PY         0.00003  -0.00052  -0.00009   0.00012  -0.00007
 152        3PZ         0.00002   0.00031   0.00012  -0.00012  -0.00011
 153 17  C  1S          0.00068  -0.00754  -0.00257   0.00000  -0.00055
 154        2S         -0.00172   0.01953   0.00650   0.00031   0.00119
 155        3S         -0.00523   0.07450   0.02637  -0.00047   0.00804
 156        4PX         0.00238  -0.04157  -0.01725   0.00098   0.00075
 157        4PY         0.00043   0.00747   0.00276  -0.00259   0.00008
 158        4PZ        -0.00530   0.07701   0.02448   0.00097   0.00478
 159        5PX         0.00093  -0.01942  -0.00938   0.00448   0.00362
 160        5PY        -0.00088   0.01749   0.00919   0.00152   0.00444
 161        5PZ        -0.00402   0.04337   0.01410   0.00237   0.00774
 162        6D 0       -0.00019   0.00402   0.00177   0.00045   0.00093
 163        6D+1       -0.00001   0.00259   0.00124  -0.00051  -0.00151
 164        6D-1        0.00022  -0.00621  -0.00243   0.00054  -0.00023
 165        6D+2        0.00015  -0.00326  -0.00143  -0.00020  -0.00048
 166        6D-2       -0.00002   0.00022   0.00047   0.00099   0.00186
 167 18  H  1S          0.00078  -0.02122  -0.00503   0.00294  -0.00128
 168        2S         -0.00014  -0.02262  -0.00473   0.00652   0.00463
 169        3PX         0.00006  -0.00206  -0.00075   0.00001   0.00010
 170        3PY         0.00001  -0.00032   0.00000  -0.00038  -0.00060
 171        3PZ        -0.00014   0.00141   0.00053   0.00031   0.00052
 172 19  H  1S          0.00306  -0.05874  -0.02382   0.00028  -0.00017
 173        2S          0.00238  -0.04270  -0.01721  -0.00231  -0.00318
 174        3PX        -0.00010   0.00150   0.00043  -0.00013  -0.00018
 175        3PY         0.00001   0.00034   0.00015   0.00001   0.00036
 176        3PZ        -0.00008   0.00154   0.00039  -0.00015  -0.00037
 177 20  C  1S         -0.00040   0.02099   0.01296   0.00136   0.00619
 178        2S          0.00058  -0.04350  -0.02750  -0.00599  -0.01776
 179        3S          0.00156  -0.12094  -0.07246   0.01171  -0.00918
 180        4PX        -0.00281   0.07582   0.04252   0.00768   0.02464
 181        4PY        -0.00001  -0.03406  -0.01407   0.00796   0.00695
 182        4PZ         0.00407  -0.15368  -0.07301  -0.00866  -0.03479
 183        5PX        -0.00059   0.04101   0.02481  -0.00250   0.01115
 184        5PY        -0.00112  -0.00988  -0.00761   0.00394   0.00128
 185        5PZ         0.00345  -0.09016  -0.04267  -0.00507  -0.02470
 186        6D 0        0.00015  -0.00291  -0.00163  -0.00026  -0.00105
 187        6D+1        0.00012   0.00188   0.00006  -0.00192  -0.00441
 188        6D-1        0.00034  -0.00662  -0.00301  -0.00111  -0.00302
 189        6D+2       -0.00002   0.00057   0.00042   0.00075   0.00172
 190        6D-2       -0.00019   0.00454   0.00239   0.00011   0.00061
 191 21  H  1S          0.00044   0.01708   0.00043  -0.00812  -0.01625
 192        2S          0.00200   0.04729   0.02531  -0.02128  -0.03249
 193        3PX        -0.00001   0.00165   0.00043   0.00032   0.00063
 194        3PY         0.00001  -0.00128  -0.00054   0.00036   0.00055
 195        3PZ         0.00013  -0.00291  -0.00147  -0.00062  -0.00142
 196 22  H  1S         -0.00339   0.06847   0.03614   0.01472   0.03508
 197        2S         -0.00185   0.04646   0.02854   0.01462   0.03498
 198        3PX        -0.00003   0.00011   0.00024  -0.00025  -0.00031
 199        3PY         0.00007  -0.00274  -0.00129  -0.00041  -0.00100
 200        3PZ         0.00002  -0.00358  -0.00180   0.00007  -0.00058
 201 23  C  1S         -0.00007  -0.00225  -0.00078  -0.00696  -0.01877
 202        2S          0.00028   0.00188   0.00043   0.01255   0.03458
 203        3S          0.00154   0.02816   0.01051   0.09223   0.23384
 204        4PX         0.00650   0.02004   0.00873  -0.07335  -0.15194
 205        4PY         0.00177  -0.00992   0.00166  -0.03060  -0.06186
 206        4PZ        -0.00405   0.18697   0.08272   0.00393   0.03037
 207        5PX         0.00349   0.00028  -0.00376  -0.07674  -0.17136
 208        5PY        -0.00116  -0.00124   0.00594  -0.02172  -0.03606
 209        5PZ        -0.00352   0.10265   0.03949   0.02228   0.05345
 210        6D 0        0.00023  -0.00791  -0.00464  -0.00115  -0.00340
 211        6D+1        0.00011   0.00960   0.00588  -0.00207  -0.00213
 212        6D-1        0.00009  -0.00360  -0.00081  -0.00054  -0.00080
 213        6D+2       -0.00015   0.00207   0.00076   0.00213   0.00407
 214        6D-2       -0.00033   0.00035   0.00013   0.00183   0.00382
 215 24  C  1S         -0.00015  -0.00348  -0.00298   0.00022  -0.00036
 216        2S          0.00041   0.00791   0.00690  -0.00250   0.00143
 217        3S          0.00219   0.00274   0.00620   0.01295  -0.03676
 218        4PX        -0.00192  -0.01370  -0.00694   0.00271   0.00498
 219        4PY        -0.00111  -0.00861  -0.01159   0.02122   0.03412
 220        4PZ         0.00157  -0.04331  -0.01298  -0.00089  -0.00373
 221        5PX         0.00021  -0.00335   0.00134   0.00702   0.02230
 222        5PY        -0.00085   0.00327  -0.00043   0.03799   0.06896
 223        5PZ         0.00251  -0.01411   0.00102  -0.00863  -0.00672
 224        6D 0        0.00018  -0.00255  -0.00101  -0.00003  -0.00050
 225        6D+1       -0.00009   0.00441   0.00190   0.00001   0.00030
 226        6D-1        0.00018  -0.00627  -0.00260  -0.00023  -0.00097
 227        6D+2       -0.00004  -0.00019  -0.00028  -0.00002  -0.00055
 228        6D-2       -0.00025  -0.00214  -0.00116   0.00222   0.00434
 229 25  H  1S          0.00013   0.04806   0.01819   0.00028   0.00215
 230        2S          0.00194   0.03832   0.01827  -0.03966  -0.03410
 231        3PX        -0.00003   0.00084   0.00007   0.00040   0.00162
 232        3PY        -0.00008  -0.00089  -0.00068   0.00117   0.00195
 233        3PZ         0.00009  -0.00024  -0.00014  -0.00069  -0.00069
 234 26  H  1S         -0.00262  -0.00701  -0.00701   0.01383   0.02634
 235        2S         -0.00234  -0.00694  -0.00783   0.00365   0.01259
 236        3PX         0.00004  -0.00037  -0.00001  -0.00053  -0.00110
 237        3PY         0.00001  -0.00031  -0.00036   0.00003   0.00029
 238        3PZ        -0.00002  -0.00195  -0.00077   0.00024   0.00003
 239 27  H  1S          0.00222  -0.04473  -0.01533   0.00054  -0.00432
 240        2S         -0.00130  -0.04932  -0.02786  -0.01611  -0.02442
 241        3PX        -0.00010  -0.00060  -0.00012   0.00049   0.00098
 242        3PY        -0.00001   0.00048   0.00010   0.00053   0.00124
 243        3PZ         0.00002  -0.00000  -0.00008   0.00052   0.00055
 244 28  N  1S         -0.00638  -0.00379  -0.00747  -0.08585   0.05023
 245        2S         -0.01341  -0.00664  -0.01502  -0.18103   0.10671
 246        3S         -0.01558  -0.02701  -0.02240  -0.16281   0.13367
 247        4PX         0.00041   0.01484   0.02377   0.34400  -0.19987
 248        4PY         0.04995   0.00833   0.03058   0.25625  -0.18171
 249        4PZ         0.34279  -0.00564   0.04548  -0.02410   0.01608
 250        5PX        -0.00028  -0.01089  -0.01916  -0.26094   0.13067
 251        5PY        -0.03429   0.00180  -0.01951  -0.20149   0.10463
 252        5PZ        -0.23906  -0.00673  -0.03970   0.01837  -0.00886
 253        6D 0       -0.00109   0.00144  -0.00401  -0.01199   0.00716
 254        6D+1        0.01341   0.00457  -0.00716   0.00042   0.00065
 255        6D-1        0.00963  -0.00661   0.01184  -0.00249   0.00079
 256        6D+2       -0.00163   0.00068  -0.00083   0.00211  -0.00298
 257        6D-2        0.00167   0.00170  -0.00048   0.00923  -0.00886
 258 29  N  1S         -0.00112  -0.00119  -0.00576  -0.04040  -0.08261
 259        2S         -0.00265  -0.00314  -0.01181  -0.07462  -0.17189
 260        3S         -0.00314   0.00433  -0.02111  -0.17583  -0.22342
 261        4PX        -0.00699   0.03557   0.00400  -0.06050  -0.08741
 262        4PY        -0.00040   0.05332   0.04018   0.19692   0.40756
 263        4PZ        -0.00292   0.32751   0.18867  -0.05037  -0.05130
 264        5PX         0.00022  -0.02078  -0.00317   0.06807   0.07539
 265        5PY        -0.00228  -0.03917  -0.02846  -0.13971  -0.27276
 266        5PZ        -0.00397  -0.22790  -0.13362   0.03357   0.03173
 267        6D 0        0.00026  -0.00158  -0.00002  -0.00557  -0.01140
 268        6D+1        0.00045  -0.01344  -0.00992   0.00094  -0.00033
 269        6D-1       -0.00099   0.01260   0.00461  -0.00218  -0.00404
 270        6D+2        0.00042  -0.00306  -0.00113  -0.00156  -0.00879
 271        6D-2       -0.00035  -0.00019  -0.00133  -0.00029  -0.00547
 272 30  C  1S         -0.00327  -0.00075  -0.00270  -0.03007   0.01565
 273        2S          0.00790   0.00217   0.00603   0.07019  -0.04088
 274        3S          0.00700  -0.00228   0.00449   0.00919  -0.02646
 275        4PX         0.01633   0.01528  -0.00437   0.15926  -0.07821
 276        4PY        -0.01850  -0.01476   0.03193   0.03766  -0.02669
 277        4PZ        -0.14965  -0.14865   0.24052  -0.00329  -0.00728
 278        5PX         0.00352   0.00323  -0.01439  -0.02208   0.04398
 279        5PY        -0.01519  -0.00919   0.01694   0.00944   0.01519
 280        5PZ        -0.11607  -0.09513   0.15937  -0.00738  -0.00408
 281        6D 0       -0.00270  -0.00017  -0.00020  -0.00137   0.00093
 282        6D+1       -0.02094   0.00564  -0.01052   0.00324  -0.00166
 283        6D-1        0.00137   0.00390  -0.00630  -0.00293   0.00244
 284        6D+2        0.00050  -0.00123  -0.00074  -0.01509   0.01147
 285        6D-2       -0.00364  -0.00070  -0.00257  -0.02106   0.01458
 286 31  H  1S          0.00295   0.00267   0.01139   0.09105  -0.06338
 287        2S          0.00084   0.00135   0.00673   0.04762  -0.04685
 288        3PX         0.00058   0.00057  -0.00009   0.00558  -0.00354
 289        3PY        -0.00049  -0.00051   0.00112   0.00083  -0.00139
 290        3PZ        -0.00465  -0.00553   0.00916  -0.00014  -0.00023
 291 32  C  1S          0.00295   0.00181   0.00096   0.02425  -0.01710
 292        2S         -0.00715  -0.00458  -0.00223  -0.06546   0.04406
 293        3S         -0.01406  -0.00346  -0.00656  -0.03467   0.06629
 294        4PX        -0.01471   0.00233  -0.02161  -0.11667   0.06868
 295        4PY         0.01837  -0.01526   0.01068  -0.09037   0.04957
 296        4PZ         0.17326  -0.15997   0.26373  -0.02358   0.00490
 297        5PX        -0.01015   0.00484  -0.01488  -0.01752   0.03344
 298        5PY         0.00961  -0.01396   0.00595  -0.11967   0.08454
 299        5PZ         0.12083  -0.11212   0.19531  -0.00902  -0.00167
 300        6D 0        0.00261  -0.00008  -0.00038  -0.00156   0.00101
 301        6D+1       -0.00184  -0.00495   0.00769   0.00031  -0.00046
 302        6D-1       -0.01673  -0.00275   0.00599   0.00017  -0.00042
 303        6D+2        0.00191   0.00092  -0.00123   0.00403  -0.00199
 304        6D-2        0.00155  -0.00058   0.00066  -0.00373   0.00170
[...]
 02237,-0.00004908,0.00003098,-0.00038312,-0.00028450,-0.00007135,0.000
 04150,0.00005774,-0.00009157,0.00003574,-0.00012476,0.00016274,0.00059
 374,-0.00033613,0.00029907,0.00002309,-0.00013975,0.00001800,0.0000572
 6,0.00003453,0.00000696,-0.00008945,-0.00003257,-0.00000323,0.00005104
 ,0.00003437,-0.00001358,-0.06617962,0.06601376,0.00354120,0.00279497,-
 0.00587814,-0.00046619,-0.01099708,-0.07557807,-0.00385377,-0.00049331
 ,-0.00101085,0.00007645,0.08679809,0.01340349,-0.00241823,0.00053782,0
 .00192178,-0.00014294,0.02995876,-0.36961597,-0.02947929,0.01486220,-0
 .01554118,-0.00104494,-0.13139500,0.70470143,0.00369961,-0.00454517,-0
 .07843390,-0.00193963,-0.00258965,0.00791719,-0.00057883,0.00174747,0.
 00100597,0.00065794,-0.00138283,0.00082597,-0.00025021,-0.00005904,0.0
 0013552,-0.00000406,-0.00004535,0.00003981,0.00000347,0.00003072,0.000
 00557,-0.00000286,-0.00001921,0.00000667,0.00001358,0.00001108,-0.0000
 1064,-0.00000098,-0.00001107,0.00000110,-0.00005936,-0.00004936,0.0000
 2507,-0.00000194,0.00000078,0.00001307,0.00001974,-0.00001647,-0.00001
 423,-0.00000414,-0.00000934,0.00000090,-0.00000074,0.00000157,-0.00000
 016,-0.00000050,0.00000063,0.00000223,-0.00000344,-0.00000502,-0.00000
 364,0.00000480,0.00000218,-0.00000004,-0.00000088,-0.00000268,0.000001
 64,0.00002007,0.00003852,-0.00001993,0.00000059,0.00000288,-0.00000052
 ,-0.00000450,0.00000135,-0.00000755,0.00003987,-0.00008107,-0.00024039
 ,-0.00000586,-0.00001132,0.00001494,0.00000565,0.00000829,-0.00000049,
 -0.00000791,-0.00000090,-0.00000481,0.00000505,-0.00000490,-0.00000272
 ,-0.00221778,0.00329326,0.02511052,0.00069890,-0.00036126,0.00128608,-
 0.00114480,-0.00349248,-0.01084734,-0.00004933,0.00004064,-0.00075053,
 0.00457229,-0.00088591,0.00692795,0.00018688,-0.00026133,0.00927312,0.
 00814427,-0.03095240,-0.07379273,0.00099304,-0.00169916,0.00865220,-0.
 07130649,0.05654095,0.07709361,-0.01186350,0.01095248,0.00115224,0.000
 69627,0.00145538,-0.00024812,0.00000415,-0.00045252,-0.00011620,0.0000
 7729,-0.00051245,0.00009831,0.00014568,-0.00003076,0.00001048,-0.00000
 825,0.00000090,0.00000523,0.00000336,-0.00001044,0.00000899,-0.0000060
 5,-0.00000545,-0.00000554,0.00000952,-0.00001902,0.00000327,0.00000104
 ,0.00000580,0.00000054,0.00001290,0.00000847,-0.00000942,0.00000231,-0
 .00000166,0.00000213,-0.00000062,0.00000597,0.00000533,0.00000014,0.00
 000310,0.00000026,0.00000262,0.00000135,0.00000113,-0.00000124,-0.0000
 0154,-0.00000196,0.00000044,0.00000405,0.00000087,0.00000142,-0.000003
 98,0.00000322,0.00000347,0.00000363,-0.00000295,0.00002335,0.00001725,
 0.00000310,-0.00000549,-0.00000379,0.00000444,-0.00000123,0.00000845,-
 0.00000937,-0.00003931,0.00002745,-0.00001835,-0.00000429,0.00000520,0
 .00000032,-0.00000202,0.00000203,-0.00000644,0.00000675,-0.00000034,0.
 00000042,-0.00000429,0.00000225,0.00000493,-0.00293967,-0.00343911,0.0
 0057235,-0.00012175,-0.00007891,0.00005168,0.00086678,-0.00133459,-0.0
 0013760,-0.00008704,0.00011274,-0.00016339,0.00202716,0.00104375,0.000
 79602,-0.00007619,-0.00019690,0.00004892,-0.00033190,-0.00404839,0.000
 02453,0.00069640,0.00029910,-0.00048494,-0.74065782,0.17281842,0.05851
 693,0.75157148,-0.02649739,0.01332336,0.00181037,0.00030770,0.00050056
 ,0.00005647,-0.00015197,-0.00023435,-0.00018142,0.00001253,-0.00039135
 ,0.00026570,0.00012670,-0.00020137,0.00002826,-0.00004023,0.00002101,0
 .00000275,-0.00000182,-0.00000636,0.00003049,-0.00001657,-0.00001207,-
 0.00002076,0.00000957,-0.00003961,0.00001083,0.00000071,0.00001496,-0.
 00000033,0.00002487,0.00000962,-0.00002743,0.00000278,-0.00000042,0.00
 000868,-0.00000070,0.00001316,0.00001519,-0.00000093,0.00000752,0.0000
 0046,0.00000593,0.00000188,0.00000091,-0.00000218,-0.00000460,-0.00000
 405,0.00000437,0.00001068,0.00000470,-0.00000023,-0.00000770,0.0000070
 5,0.00000608,0.00000874,-0.00000700,0.00004583,0.00003289,0.00001093,-
 0.00000662,-0.00000876,0.00001265,-0.00000221,0.00001698,-0.00001974,-
 0.00005623,0.00004278,-0.00003910,-0.00000474,0.00001832,-0.00000317,-
 0.00000802,-0.00000170,-0.00000432,0.00001251,0.00000442,0.00000077,-0
 .00000848,-0.00000294,0.00000353,-0.00684054,-0.00352397,-0.00081652,0
 .00031600,0.00051199,0.00003338,0.00016559,-0.00222203,-0.00011349,-0.
 00005154,0.00018921,0.00022481,0.00119314,-0.00624066,-0.00138631,0.00
 173636,0.00008154,0.00004875,0.03594363,-0.00176734,-0.00196163,-0.001
 22012,0.00209591,0.00076712,0.17164048,-0.03512827,-0.01523781,-0.1766
 4291,0.03287859,-0.00144584,0.00029773,0.00295035,0.00035693,-0.000115
 70,-0.00198547,0.00046298,-0.00033952,-0.00041421,-0.00070866,0.000250
 15,-0.00022941,0.00005316,-0.00000455,0.00001275,-0.00000914,0.0000063
 8,-0.00001246,-0.00001840,0.00001617,-0.00000183,0.00000929,-0.0000039
 2,-0.00000490,-0.00000753,-0.00000127,-0.00001168,0.00000064,-0.000000
 44,0.00000048,0.00001047,0.00000713,0.00000382,-0.00000142,-0.00000532
 ,-0.00000851,-0.00000534,0.00000323,-0.00000416,0.00000116,0.00000039,
 0.00000057,-0.00000150,-0.00000138,0.00000077,0.00000160,0.00000287,-0
 .00000161,0.00000349,0.00000687,0.00000322,-0.00000523,0.00000097,-0.0
 0000289,-0.00000023,-0.00000052,-0.00000234,0.00000111,-0.00000312,0.0
 0000838,0.00000324,-0.00000211,-0.00000075,-0.00000098,-0.00000106,0.0
 0000045,-0.00000505,0.00001649,0.00005463,-0.00000082,0.00000057,-0.00
 000281,0.00000074,-0.00000224,0.00000148,0.00000047,0.00000025,0.00000
 091,-0.00000153,0.00000117,-0.00000101,-0.00023970,-0.00052579,0.00883
 578,-0.00010508,0.00016020,-0.00036045,-0.00038679,-0.00021880,-0.0002
 0689,-0.00004715,0.00015607,-0.00262687,0.00038769,-0.00138377,0.01015
 684,0.00021901,0.00004146,0.00047325,0.00229287,0.00049052,0.00626782,
 -0.00007064,0.00091330,-0.00657910,0.05936530,-0.01625569,0.02579226,-
 0.06010773,0.01649440,-0.04211104,0.00000231,-0.00004178,-0.00000500,-
 0.00001403,-0.00002022,-0.00001999,0.00002285,0.00000788,0.00001032,0.
 00000742,-0.00000675,-0.00000266,0.00009591,-0.00027322,0.00000526,0.0
 0009095,0.00007285,0.00026124,-0.00006409,0.00001585,0.00004992,-0.000
 06597,-0.00009478,0.00002981,0.00122221,-0.00079177,-0.00092007,0.0002
 0527,0.00026932,0.00029280,0.00014679,-0.00085080,-0.00258078,-0.31515
 031,0.27170084,0.17716655,-0.00014536,0.00015101,-0.00037029,0.0000871
 8,-0.00039971,0.00035099,-0.00002743,0.00020419,0.00008379,0.00014201,
 -0.00022566,-0.00011824,-0.00001630,-0.00003272,0.00004888,-0.00000198
 ,-0.00001040,0.00001018,-0.00001283,-0.00001602,0.00003060,0.00020080,
 -0.00003259,-0.00017653,0.00005039,-0.00002986,-0.00004314,-0.00004817
 ,0.00001827,-0.00004808,0.00029179,-0.00036742,-0.00096363,0.00009014,
 0.00015104,-0.00005068,0.00003875,-0.00004644,0.00008731,0.00001761,-0
 .00002268,-0.00006632,0.00012707,-0.00024308,0.00006143,-0.00001046,0.
 00002570,-0.00000086,-0.00005245,0.00026295,-0.00005550,0.00000756,-0.
 00000745,-0.00000022,-0.00000193,-0.00000036,-0.00000010,-0.00000492,0
 .00000793,0.00000104,-0.00000002,0.00000137,0.00000055,0.00000647,-0.0
 0000258,-0.00000111,0.00000020,0.00000136,0.00000044,-0.00000092,0.000
 02114,0.00000121,-0.00000132,-0.00000422,0.00000040,0.32160116,-0.0000
 2152,0.00004372,0.00000448,0.00003630,0.00009109,-0.00001570,0.0000232
 4,-0.00001246,0.00002881,-0.00001952,-0.00004297,-0.00001175,0.0003360
 9,-0.00012186,0.00038319,0.00020499,-0.00000365,0.00016412,-0.00007370
 ,0.00001910,0.00002481,-0.00006031,-0.00027099,-0.00008344,0.00016769,
 0.00055670,-0.00035788,-0.00012499,0.00005688,-0.00032019,-0.00776664,
 0.00421676,0.00460338,0.27060568,-0.24101089,-0.15447681,-0.00049360,0
 .00076071,-0.00003085,0.00012662,-0.00014337,0.00018527,0.00000181,-0.
 00000183,0.00007195,0.00012887,0.00004657,-0.00016698,-0.00022930,-0.0
 0003954,-0.00004595,-0.00001452,-0.00000945,-0.00005292,0.00002145,-0.
 00000895,0.00003864,0.00012152,0.00035788,0.00028587,0.00000176,0.0000
 0938,0.00010921,-0.00005082,0.00000838,-0.00008546,-0.00024298,0.00017
 745,0.00113478,0.00002947,-0.00002297,0.00005826,0.00000825,0.00000209
 ,-0.00000270,0.00000774,0.00001325,-0.00007537,-0.00014362,-0.00003324
 ,0.00001218,0.00000433,-0.00002609,-0.00000740,-0.00015128,0.00024701,
 -0.00024340,-0.00001186,0.00001535,0.00000167,0.00000222,0.00000025,-0
 .00000015,0.00000139,-0.00001171,0.00000012,-0.00000064,-0.00000164,-0
 .00000091,-0.00001054,-0.00000351,0.00000190,0.00000121,-0.00000352,-0
 .00000172,0.00001214,-0.00002895,0.00000136,0.00000001,0.00000243,-0.0
 0000291,-0.28180038,0.24557358,-0.00002498,0.00000685,-0.00000087,-0.0
 0001180,-0.00002056,0.00002799,-0.00002237,-0.00003627,0.00000685,-0.0
 0000317,-0.00001905,-0.00001256,0.00072665,0.00116504,-0.00009850,-0.0
 0016361,-0.00010115,0.00012973,-0.00005555,0.00003857,0.00003674,-0.00
 005465,-0.00015565,-0.00006689,0.00086585,-0.00072593,0.00257204,-0.00
 085071,0.00021163,-0.00032995,0.02508894,-0.02361660,-0.01697175,0.180
 21335,-0.15811228,-0.09792954,-0.00041576,-0.00107252,0.00165570,0.000
 17516,0.00082843,0.00007437,-0.00015117,0.00001092,-0.00000715,-0.0005
 3628,-0.00008532,0.00015793,0.00050305,0.00024712,0.00033751,-0.000116
 28,0.00001035,0.00020635,-0.00004897,0.00004001,-0.00004796,0.00066175
 ,-0.00191164,-0.00108822,-0.00012167,0.00031448,-0.00075434,-0.0000045
 5,0.00004372,-0.00001526,-0.00088955,0.00307554,-0.00588741,-0.0004056
 8,0.00026523,-0.00000481,0.00012337,-0.00008034,0.00012888,0.00005828,
 0.00000485,-0.00002534,0.00009359,-0.00010341,0.00012879,0.00000164,-0
 .00000179,0.00001232,-0.00014832,-0.00023015,0.00013796,-0.00000356,0.
 00000258,-0.00000112,0.00000057,-0.00000010,-0.00000023,0.00000140,-0.
 00000212,-0.00000142,-0.00000015,-0.00000042,-0.00000024,-0.00000496,-
 0.00000095,0.00000028,0.00000057,-0.00000124,-0.00000002,0.00000664,-0
 .00001343,-0.00000239,0.00000045,0.00000059,0.00000018,-0.18407563,0.1
 6063378,0.10837031,0.00000651,-0.00003792,0.00002008,0.00004550,0.0001
 0391,-0.00001794,0.00001102,-0.00006505,0.00006323,-0.00002209,-0.0000
 4743,-0.00001057,0.00126006,-0.00049660,0.00011549,-0.00056452,-0.0003
 7789,-0.00099650,-0.00005534,0.00007281,0.00007537,-0.00098675,-0.0006
 1659,-0.00096426,0.00001630,0.00061192,0.00002413,-0.00002727,0.000047
 09,-0.00004170,-0.00254536,-0.00084259,0.00055031,-0.04730878,-0.15598
 572,0.02393302,0.00033544,-0.00013354,0.00132027,-0.00005294,-0.000252
 65,-0.00012557,0.00043739,0.00036098,-0.00010122,0.00043070,-0.0005417
 6,0.00009676,-0.00002089,-0.00014436,0.00004700,-0.00002972,0.00002125
 ,0.00001035,-0.00007060,0.00001026,0.00004364,0.00005528,0.00002623,-0
 .00002467,0.00000069,0.00003009,-0.00000490,-0.00001270,0.00000378,-0.
 00005597,0.00019026,-0.00072634,0.00001857,-0.00003894,-0.00015685,0.0
 0016223,0.00001647,0.00009585,-0.00011679,0.00006371,0.00003132,-0.000
 11410,-0.00033257,0.00004489,-0.00000183,-0.00003629,-0.00000653,-0.00
 002442,-0.00041523,0.00035949,-0.00042702,-0.00000408,0.00003038,0.000
 00167,0.00000106,0.00000510,0.00000173,-0.00001474,-0.00000453,0.00000
 167,-0.00000069,-0.00000097,0.00000105,-0.00000005,-0.00001174,-0.0000
 0171,0.00000079,-0.00000163,-0.00000006,0.00000623,0.00000408,0.000000
 68,-0.00000325,-0.00000383,-0.00000063,0.00924874,0.02889099,-0.007124
 81,0.04496440,0.00001187,-0.00001092,0.00001303,-0.00007051,-0.0000199
 7,-0.00016414,-0.00000723,0.00001237,0.00002820,-0.00000604,0.00002844
 ,0.00004712,-0.00046648,0.00031090,-0.00035833,-0.00153394,-0.00052724
 ,-0.00108015,0.00020053,0.00023296,-0.00046739,-0.00004539,0.00001356,
 -0.00109865,-0.00038499,-0.00041174,0.00015935,-0.00000899,-0.00004217
 ,0.00002415,-0.00034554,-0.00237015,-0.00064553,-0.15611710,-0.5925645
 6,0.09277094,0.00028426,0.00076580,0.00148215,0.00003961,0.00042333,-0
 .00020574,0.00007384,0.00005832,-0.00016322,-0.00030095,-0.00020937,-0
 .00005177,0.00007164,0.00003654,0.00006447,0.00000478,0.00001429,0.000
 06155,0.00000777,0.00000871,-0.00004288,0.00006091,-0.00002065,0.00003
 007,0.00001310,0.00004300,0.00000687,0.00002340,-0.00002045,-0.0000523
 3,0.00060461,0.00035887,-0.00095583,-0.00012022,0.00011023,0.00012185,
 -0.00003587,0.00000455,0.00000281,0.00004016,-0.00000948,-0.00003711,-
 0.00004550,-0.00002618,0.00006285,0.00000181,0.00001034,-0.00000906,0.
 00013358,-0.00030992,-0.00012636,0.00000605,-0.00000760,-0.00000108,-0
 .00000107,-0.00000011,0.00000022,0.00000131,0.00000547,0.00000106,0.00
 000058,0.00000068,0.00000134,0.00000438,0.00000438,-0.00000238,-0.0000
 0082,0.00000185,0.00000086,-0.00000794,0.00001197,0.00000216,0.0000015
 4,0.00000121,0.00000230,-0.01024743,-0.01584316,0.00620944,0.16419095,
 0.61205530,0.00007860,-0.00021941,0.00000057,-0.00014394,-0.00029973,-
 0.00004648,0.00007260,0.00005545,-0.00001568,0.00005252,0.00007831,-0.
 00000299,0.00059047,-0.00100888,-0.00163063,-0.00133170,-0.00047073,-0
 .00045656,0.00003537,-0.00004499,0.00019344,-0.00080489,-0.00050864,-0
 .00035412,0.00007684,0.00049193,0.00092195,-0.00000568,-0.00010938,-0.
 00001735,0.01034329,0.03619568,-0.00646977,0.02483333,0.09579992,-0.01
 444067,0.00012367,0.00099836,-0.00779971,-0.00032300,-0.00030403,0.000
 03105,-0.00000088,-0.00039152,0.00003713,0.00108871,0.00221661,-0.0002
 9847,0.00004706,-0.00004507,0.00036437,-0.00004736,-0.00010032,0.00002
 720,0.00003615,-0.00004355,0.00017458,-0.00025098,0.00017768,0.0005289
 8,-0.00000750,-0.00008222,0.00010452,-0.00001416,0.00000638,0.00021340
 ,0.00051775,0.00059312,0.00189354,0.00009140,-0.00020605,-0.00005532,0
 .00004594,-0.00001963,0.00002899,-0.00015607,0.00000674,0.00003067,0.0
 0012809,0.00002890,-0.00000600,-0.00007838,0.00009371,-0.00001929,-0.0
 0028966,-0.00037997,0.00023388,0.00004316,-0.00000971,0.00000036,-0.00
 000739,0.00000804,0.00000091,-0.00003135,0.00003637,0.00000550,0.00000
 141,0.00000563,0.00000310,0.00003803,-0.00000873,-0.00000712,-0.000001
 90,0.00000882,0.00000372,-0.00002846,0.00011266,0.00000065,-0.00000517
 ,-0.00001652,0.00000531,-0.00645354,-0.01650369,0.00203310,-0.02567314
 ,-0.09771765,0.02255043,-0.00002271,0.00007271,0.00000038,0.00002099,0
 .00003534,-0.00001080,-0.00001820,0.00000116,-0.00000774,-0.00001183,-
 0.00000400,0.00000883,-0.00013600,0.00016726,-0.00006576,0.00000763,0.
 00003817,0.00007803,0.00002765,0.00000621,-0.00002783,0.00017513,0.000
 13840,0.00001620,0.00077961,-0.00006232,0.00094807,0.00014247,-0.00008
 448,0.00019803,0.00529870,0.00057525,0.00421564,-0.51783340,-0.1064069
 9,-0.23776789,0.00085023,-0.00025174,0.00118447,-0.00021376,0.00004214
 ,-0.00020324,0.00027344,0.00016524,-0.00006823,0.00023652,0.00002533,0
 .00010018,0.00009078,-0.00002378,0.00029892,0.00001910,0.00003410,0.00
 004470,0.00001669,0.00001583,-0.00006358,0.00002023,-0.00014489,0.0000
 3343,-0.00000634,0.00002142,-0.00005259,0.00001003,-0.00000354,-0.0000
 0076,0.00019383,0.00019037,-0.00000051,-0.00000242,0.00006955,-0.00010
 879,0.00007720,-0.00004338,0.00004282,-0.00003329,-0.00003121,0.000022
 83,-0.00011036,0.00010603,0.00029214,0.00002955,-0.00003045,0.00000855
 ,0.00006833,-0.00009396,0.00001101,-0.00001263,0.00000036,-0.00000040,
 0.00000230,-0.00000255,-0.00000104,0.00001240,-0.00001076,-0.00000143,
 -0.00000017,-0.00000175,-0.00000128,-0.00001152,0.00000578,0.00000224,
 0.00000005,-0.00000211,-0.00000115,0.00000528,-0.00003558,-0.00000032,
 0.00000271,0.00000668,-0.00000116,-0.01808513,-0.00951755,-0.01328707,
 -0.00454775,0.00396935,-0.00258922,0.53268465,-0.00003453,0.00007587,-
 0.00001070,0.00002333,0.00002625,0.00002018,-0.00000669,0.00003015,0.0
 0000247,-0.00000002,0.00000427,0.00001432,-0.00061084,0.00009641,0.000
 38110,-0.00050618,-0.00022734,-0.00025095,0.00011065,0.00014317,-0.000
 21563,0.00046509,0.00005931,-0.00026941,-0.00037551,-0.00046054,0.0020
 8975,-0.00030463,0.00000400,-0.00022528,0.00726023,-0.00072118,0.00393
 329,-0.10644895,-0.02686021,-0.05090171,0.00096434,0.00021025,0.000453
 90,0.00025742,-0.00016313,0.00013211,-0.00033768,0.00012147,0.00044708
 ,0.00003338,-0.00002953,-0.00024317,0.00053319,0.00039148,0.00024724,-
 0.00004592,0.00000988,0.00022616,0.00005917,-0.00002099,-0.00006154,0.
 00013501,-0.00000589,-0.00009746,-0.00003373,-0.00002376,0.00000024,-0
 .00003587,0.00002275,0.00001602,-0.00078587,0.00016285,-0.00020987,-0.
 00003280,0.00040842,-0.00020180,-0.00002530,-0.00010872,0.00019585,-0.
 00003550,-0.00002285,0.00002462,0.00030513,-0.00036261,-0.00011282,0.0
 0004457,-0.00001134,0.00001949,0.00018441,-0.00004507,-0.00003962,-0.0
 0000897,-0.00001910,-0.00000103,0.00000064,-0.00000667,-0.00000174,0.0
 0001769,-0.00000547,-0.00000191,-0.00000015,-0.00000055,-0.00000133,-0
 .00001004,0.00000900,0.00000227,0.00000047,-0.00000145,-0.00000094,0.0
 0000689,-0.00002981,-0.00000014,0.00000346,0.00000573,-0.00000049,0.02
 265663,0.00544217,0.01318177,-0.03448687,-0.00211942,-0.01842392,0.111
 06434,0.02402219,-0.00000237,0.00001048,0.00000711,0.00000491,-0.00001
 585,-0.00000177,-0.00000764,-0.00000363,-0.00000899,0.00001313,0.00001
 812,0.00000859,-0.00026489,0.00014646,0.00007069,0.00072558,0.00072625
 ,0.00011713,-0.00001346,-0.00007937,0.00007223,-0.00007992,-0.00007969
 ,0.00008449,0.00259153,0.00145262,-0.00584556,0.00004319,0.00011466,0.
 00010204,-0.03326558,-0.00609243,-0.01650956,-0.24174634,-0.05140001,-
 0.10850309,-0.00108369,-0.00120809,0.00220748,0.00006141,0.00009597,-0
 .00005535,0.00073670,0.00075886,-0.00012448,0.00016836,-0.00061888,0.0
 0031716,-0.00171171,-0.00073474,-0.00111645,0.00027179,0.00013015,-0.0
 0074303,0.00001143,0.00004710,0.00000230,-0.00027283,0.00041812,-0.000
 01461,0.00007574,-0.00006930,0.00007549,0.00007597,-0.00001182,-0.0000
 7937,-0.00086173,0.00017591,0.00145522,0.00017683,0.00005619,0.0000388
 0,0.00008940,-0.00002126,0.00020289,0.00012814,-0.00001630,-0.00015399
 ,0.00038737,-0.00050130,-0.00006034,0.00001435,0.00000290,0.00000148,0
 .00017527,-0.00000924,-0.00000527,-0.00000141,-0.00000837,-0.00000157,
 -0.00000087,-0.00000275,0.00000026,0.00000430,0.00000168,-0.00000032,-
 0.00000005,0.00000032,0.00000038,0.00000017,0.00000336,0.00000009,0.00
 000007,0.00000044,0.00000003,0.00000122,-0.00000017,-0.00000004,0.0000
 0108,0.00000080,-0.00000086,0.01745964,0.00474239,0.00722899,0.0093405
 6,0.00208680,0.00223282,0.24675434,0.04988358,0.11899898\\0.01683389,0
 .00774426,0.00534894,0.12649897,-0.02198142,-0.02184894,-0.04517163,0.
 01387178,0.09133233,-0.07018480,0.01692385,-0.07155834,0.00119728,-0.0
 0827531,0.00182086,0.09471387,0.06297453,-0.01492752,-0.05966380,-0.03
 803313,-0.07121669,-0.04262343,-0.01894757,0.08823994,0.06034335,-0.05
 417772,-0.03035799,-0.06513784,0.05242472,0.02588162,0.00348548,0.0043
 4084,0.00554953,0.00620236,0.01366023,-0.11307161,-0.04925999,-0.10654
 741,0.00908285,-0.06254743,0.07780404,0.04961630,0.10099185,0.00174415
 ,0.04407878,0.00879676,0.02605679,-0.10726628,0.05888671,-0.04637868,0
 .08443227,-0.06561851,-0.04509433,-0.05792936,0.00482171,0.09468448,-0
 .02739635,-0.07079432,0.01681453,0.08878878,0.00161092,-0.07974980,-0.
 05737933,0.07016671,0.06276625,-0.03137508,0.00570651,-0.00242484,-0.0
 0452616,-0.10982782,0.01615203,-0.01996083,0.04079376,-0.07620669,-0.0
 6925290,0.05691857,0.09482455,-0.01119792,0.01255132,-0.03984499,0.102
 88740,0.00770717,-0.00885002,-0.00389467,-0.00898329,0.00348068,0.0011
 2707,-0.14966062,0.04649258,0.00766964,0.14924397,-0.02334045,-0.00367
 004,-0.04818531,0.12483397,0.00481311,0.04945308,-0.14263904,-0.009590
 20,0.09171535,0.10763637,0.01241872,-0.10169552,-0.11129726,-0.0081280
 9,0.13224339,-0.03758150,-0.01310114,-0.14542233,0.03423449,0.00853672
 ,-0.07669660,0.06778967,0.04606082,-0.02708935,-0.10475901,0.02228564,
 0.09767962,0.01887437,0.04767808\\\@
 The archive entry for this job was punched.

 Writing a WFNX file to "TEFCEP_Complex_3_Ligand_1_NN_Cu_oriented.wfx"


 MEN HAVE BECOME THE TOOLS OF THEIR TOOLS... THOREAU   
 Job cpu time:       0 days  1 hours 21 minutes 10.2 seconds.
 Elapsed time:       0 days  1 hours 21 minutes 32.4 seconds.
 File lengths (MBytes):  RWF=    636 Int=      0 D2E=      0 Chk=     16 Scr=      8
 Normal termination of Gaussian 16 at Sat Mar  4 12:58:26 2023.
