 Entering Gaussian System, Link 0=g16
 Initial command:
 /ssoft/spack/external/gaussian/g16-C.01/avx2/g16/l1.exe "/scratch/lcmd/2387832/Gau-3436052.inp" -scrdir="/scratch/lcmd/2387832/"
 Entering Link 1 = /ssoft/spack/external/gaussian/g16-C.01/avx2/g16/l1.exe PID=   3436066.
  
 Copyright (c) 1988-2019, Gaussian, Inc.  All Rights Reserved.
  
 This is part of the Gaussian(R) 16 program.  It is based on
 the Gaussian(R) 09 system (copyright 2009, Gaussian, Inc.),
 the Gaussian(R) 03 system (copyright 2003, Gaussian, Inc.),
 the Gaussian(R) 98 system (copyright 1998, Gaussian, Inc.),
 the Gaussian(R) 94 system (copyright 1995, Gaussian, Inc.),
 the Gaussian 92(TM) system (copyright 1992, Gaussian, Inc.),
 the Gaussian 90(TM) system (copyright 1990, Gaussian, Inc.),
 the Gaussian 88(TM) system (copyright 1988, Gaussian, Inc.),
 the Gaussian 86(TM) system (copyright 1986, Carnegie Mellon
 University), and the Gaussian 82(TM) system (copyright 1983,
 Carnegie Mellon University). Gaussian is a federally registered
 trademark of Gaussian, Inc.
  
 This software contains proprietary and confidential information,
 including trade secrets, belonging to Gaussian, Inc.
  
 This software is provided under written license and may be
 used, copied, transmitted, or stored only in accord with that
 written license.
  
 The following legend is applicable only to US Government
 contracts under FAR:
  
                    RESTRICTED RIGHTS LEGEND
  
 Use, reproduction and disclosure by the US Government is
 subject to restrictions as set forth in subparagraphs (a)
 and (c) of the Commercial Computer Software - Restricted
 Rights clause in FAR 52.227-19.
  
 Gaussian, Inc.
 340 Quinnipiac St., Bldg. 40, Wallingford CT 06492
  
  
 ---------------------------------------------------------------
 Warning -- This program may not be used in any manner that
 competes with the business of Gaussian, Inc. or will provide
 assistance to any competitor of Gaussian, Inc.  The licensee
 of this program is prohibited from giving any competitor of
 Gaussian, Inc. access to this program.  By using this program,
 the user acknowledges that Gaussian, Inc. is engaged in the
 business of creating and licensing software in the field of
 computational chemistry and represents and warrants to the
 licensee that it is not a competitor of Gaussian, Inc. and that
 it will not use this program in any manner prohibited above.
 ---------------------------------------------------------------
  

 Cite this work as:
 Gaussian 16, Revision C.01,
 M. J. Frisch, G. W. Trucks, H. B. Schlegel, G. E. Scuseria, 
 M. A. Robb, J. R. Cheeseman, G. Scalmani, V. Barone, 
 G. A. Petersson, H. Nakatsuji, X. Li, M. Caricato, A. V. Marenich, 
 J. Bloino, B. G. Janesko, R. Gomperts, B. Mennucci, H. P. Hratchian, 
 J. V. Ortiz, A. F. Izmaylov, J. L. Sonnenberg, D. Williams-Young, 
 F. Ding, F. Lipparini, F. Egidi, J. Goings, B. Peng, A. Petrone, 
 T. Henderson, D. Ranasinghe, V. G. Zakrzewski, J. Gao, N. Rega, 
 G. Zheng, W. Liang, M. Hada, M. Ehara, K. Toyota, R. Fukuda, 
 J. Hasegawa, M. Ishida, T. Nakajima, Y. Honda, O. Kitao, H. Nakai, 
 T. Vreven, K. Throssell, J. A. Montgomery, Jr., J. E. Peralta, 
 F. Ogliaro, M. J. Bearpark, J. J. Heyd, E. N. Brothers, K. N. Kudin, 
 V. N. Staroverov, T. A. Keith, R. Kobayashi, J. Normand, 
 K. Raghavachari, A. P. Rendell, J. C. Burant, S. S. Iyengar, 
 J. Tomasi, M. Cossi, J. M. Millam, M. Klene, C. Adamo, R. Cammi, 
 J. W. Ochterski, R. L. Martin, K. Morokuma, O. Farkas, 
 J. B. Foresman, and D. J. Fox, Gaussian, Inc., Wallingford CT, 2019.
 
 ******************************************
 Gaussian 16:  ES64L-G16RevC.01  3-Jul-2019
                 6-Mar-2023 
 ******************************************
 %nprocshared=1
 Will use up to    1 processors via shared memory.
 %mem=8000MB
 %chk=TEHYUB_Complex_3_Ligand_1_ON_Cu_oriented.chk
 ----------------------------------------------------------------------
 #p pop=(regular,nbo,savenbos) freq=noraman def2svp empiricaldispersion
 =gd3bj output=wfx pbe1pbe
 ----------------------------------------------------------------------
 1/10=4,30=1,38=1/1,3;
 2/12=2,17=6,18=5,40=1/2;
 3/5=43,7=101,11=2,25=1,30=1,71=2,74=-13,124=41,140=1/1,2,3;
 4//1;
 5/5=2,38=5,98=1/2;
 8/6=4,10=90,11=11/1;
 11/6=1,8=1,9=11,15=111,16=1/1,2,10;
 10/6=1/2;
 6/28=1,40=1,73=1/1,7;
 7/8=1,10=1,25=1/1,2,3,16;
 1/10=4,30=1/3;
 99/6=200/99;
 Leave Link    1 at Mon Mar  6 10:21:40 2023, MaxMem=  1048576000 cpu:               0.0 elap:               0.1
 (Enter /ssoft/spack/external/gaussian/g16-C.01/avx2/g16/l101.exe)
 ----------------------------------------
 TEHYUB_Complex_3_Ligand_1_ON_Cu_oriented
 ----------------------------------------
 Symbolic Z-matrix:
 Charge = -1 Multiplicity = 1
 O                    -1.367     1.29748   0. 
 N                     1.42147   1.39265   0. 
 C                    -0.0681    3.14759   0.78276 
 C                    -1.31235   2.50429   0.52554 
 C                    -2.46848   3.19715   0.84749 
 C                    -2.43585   4.40441   1.46246 
 C                    -1.21838   5.00505   1.78009 
 C                    -0.03354   4.41506   1.38713 
 C                     1.21939   2.56297   0.47489 
 C                     2.84913   1.03469  -0.33964 
 C                     3.53338   2.09382  -1.14315 
 H                    -3.31701   2.80436   0.64897 
 H                    -3.25311   4.85221   1.68215 
 H                    -1.2036    5.82782   2.26681 
 H                     0.80314   4.8552    1.51435 
 H                     1.98975   3.09844   0.63734 
 H                     2.81268   0.26127  -0.89507 
 H                     2.91219   2.43157  -1.7827 
 H                     3.78822   2.79712  -0.55439 
 C                     4.78283   1.61237  -1.89535 
 C                     4.7745    1.53816  -3.27995 
 C                     5.8998    1.12717  -3.96169 
 C                     7.04395   0.81831  -3.30516 
 H                     3.96342   1.76446  -3.75259 
 H                     5.86975   1.08635  -4.93032 
 H                     7.8247    0.53385  -3.77087 
 C                     3.62207   0.6169    0.94076 
 C                     4.02755   1.54827   1.84822 
 C                     4.76445   1.19679   2.96117 
 C                     5.04165  -0.12358   3.14899 
 C                     4.65462  -1.07637   2.28611 
 C                     3.93435  -0.69857   1.14579 
 H                     3.82073   2.49934   1.70215 
 H                     5.04824   1.86484   3.5904 
 H                     5.5711   -0.38785   3.94409 
 C                     7.06248   0.87425  -1.92629 
 C                     5.95731   1.2989   -1.21693 
 H                     7.87611   0.65899  -1.43576 
 H                     5.96978   1.3371   -0.25802 
 H                     4.86923  -2.00651   2.40747 
 H                     3.64166  -1.37303   0.51939 
 
 ITRead=  0  0  0  0  0  0  0  0  0  0  0  0  0  0  0  0  0  0  0  0
 ITRead=  0  0  0  0  0  0  0  0  0  0  0  0  0  0  0  0  0  0  0  0
 ITRead=  0
 MicOpt= -1 -1 -1 -1 -1 -1 -1 -1 -1 -1 -1 -1 -1 -1 -1 -1 -1 -1 -1 -1
 MicOpt= -1 -1 -1 -1 -1 -1 -1 -1 -1 -1 -1 -1 -1 -1 -1 -1 -1 -1 -1 -1
 MicOpt= -1
 NAtoms=     41 NQM=       41 NQMF=       0 NMMI=      0 NMMIF=      0
                NMic=       0 NMicF=      0.
                    Isotopes and Nuclear Properties:
 (Nuclear quadrupole moments (NQMom) in fm**2, nuclear magnetic moments (NMagM)
  in nuclear magnetons)

  Atom         1           2           3           4           5           6           7           8           9          10
 IAtWgt=          16          14          12          12          12          12          12          12          12          12
 AtmWgt=  15.9949146  14.0030740  12.0000000  12.0000000  12.0000000  12.0000000  12.0000000  12.0000000  12.0000000  12.0000000
 NucSpn=           0           2           0           0           0           0           0           0           0           0
 AtZEff=  -0.0000000  -0.0000000  -0.0000000  -0.0000000  -0.0000000  -0.0000000  -0.0000000  -0.0000000  -0.0000000  -0.0000000
 NQMom=    0.0000000   2.0440000   0.0000000   0.0000000   0.0000000   0.0000000   0.0000000   0.0000000   0.0000000   0.0000000
 NMagM=    0.0000000   0.4037610   0.0000000   0.0000000   0.0000000   0.0000000   0.0000000   0.0000000   0.0000000   0.0000000
 AtZNuc=   8.0000000   7.0000000   6.0000000   6.0000000   6.0000000   6.0000000   6.0000000   6.0000000   6.0000000   6.0000000

  Atom        11          12          13          14          15          16          17          18          19          20
 IAtWgt=          12           1           1           1           1           1           1           1           1          12
 AtmWgt=  12.0000000   1.0078250   1.0078250   1.0078250   1.0078250   1.0078250   1.0078250   1.0078250   1.0078250  12.0000000
 NucSpn=           0           1           1           1           1           1           1           1           1           0
 AtZEff=  -0.0000000  -0.0000000  -0.0000000  -0.0000000  -0.0000000  -0.0000000  -0.0000000  -0.0000000  -0.0000000  -0.0000000
 NQMom=    0.0000000   0.0000000   0.0000000   0.0000000   0.0000000   0.0000000   0.0000000   0.0000000   0.0000000   0.0000000
 NMagM=    0.0000000   2.7928460   2.7928460   2.7928460   2.7928460   2.7928460   2.7928460   2.7928460   2.7928460   0.0000000
 AtZNuc=   6.0000000   1.0000000   1.0000000   1.0000000   1.0000000   1.0000000   1.0000000   1.0000000   1.0000000   6.0000000

  Atom        21          22          23          24          25          26          27          28          29          30
 IAtWgt=          12          12          12           1           1           1          12          12          12          12
 AtmWgt=  12.0000000  12.0000000  12.0000000   1.0078250   1.0078250   1.0078250  12.0000000  12.0000000  12.0000000  12.0000000
 NucSpn=           0           0           0           1           1           1           0           0           0           0
 AtZEff=  -0.0000000  -0.0000000  -0.0000000  -0.0000000  -0.0000000  -0.0000000  -0.0000000  -0.0000000  -0.0000000  -0.0000000
 NQMom=    0.0000000   0.0000000   0.0000000   0.0000000   0.0000000   0.0000000   0.0000000   0.0000000   0.0000000   0.0000000
 NMagM=    0.0000000   0.0000000   0.0000000   2.7928460   2.7928460   2.7928460   0.0000000   0.0000000   0.0000000   0.0000000
 AtZNuc=   6.0000000   6.0000000   6.0000000   1.0000000   1.0000000   1.0000000   6.0000000   6.0000000   6.0000000   6.0000000

  Atom        31          32          33          34          35          36          37          38          39          40
 IAtWgt=          12          12           1           1           1          12          12           1           1           1
 AtmWgt=  12.0000000  12.0000000   1.0078250   1.0078250   1.0078250  12.0000000  12.0000000   1.0078250   1.0078250   1.0078250
 NucSpn=           0           0           1           1           1           0           0           1           1           1
 AtZEff=  -0.0000000  -0.0000000  -0.0000000  -0.0000000  -0.0000000  -0.0000000  -0.0000000  -0.0000000  -0.0000000  -0.0000000
 NQMom=    0.0000000   0.0000000   0.0000000   0.0000000   0.0000000   0.0000000   0.0000000   0.0000000   0.0000000   0.0000000
 NMagM=    0.0000000   0.0000000   2.7928460   2.7928460   2.7928460   0.0000000   0.0000000   2.7928460   2.7928460   2.7928460
 AtZNuc=   6.0000000   6.0000000   1.0000000   1.0000000   1.0000000   6.0000000   6.0000000   1.0000000   1.0000000   1.0000000

  Atom        41
 IAtWgt=           1
 AtmWgt=   1.0078250
 NucSpn=           1
 AtZEff=  -0.0000000
 NQMom=    0.0000000
 NMagM=    2.7928460
 AtZNuc=   1.0000000
 Leave Link  101 at Mon Mar  6 10:21:40 2023, MaxMem=  1048576000 cpu:               0.1 elap:               0.1
 (Enter /ssoft/spack/external/gaussian/g16-C.01/avx2/g16/l103.exe)

 GradGradGradGradGradGradGradGradGradGradGradGradGradGradGradGradGradGrad
 Berny optimization.
 Initialization pass.
 Trust Radius=3.00D-01 FncErr=1.00D-07 GrdErr=1.00D-07 EigMax=2.50D+02 EigMin=1.00D-04
 Number of steps in this run=      2 maximum allowed number of steps=      2.
 GradGradGradGradGradGradGradGradGradGradGradGradGradGradGradGradGradGrad

 Leave Link  103 at Mon Mar  6 10:21:40 2023, MaxMem=  1048576000 cpu:               0.0 elap:               0.1
 (Enter /ssoft/spack/external/gaussian/g16-C.01/avx2/g16/l202.exe)
                          Input orientation:                          
 ---------------------------------------------------------------------
 Center     Atomic      Atomic             Coordinates (Angstroms)
 Number     Number       Type             X           Y           Z
 ---------------------------------------------------------------------
      1          8           0       -1.366996    1.297476    0.000000
      2          7           0        1.421471    1.392655    0.000000
      3          6           0       -0.068097    3.147588    0.782759
      4          6           0       -1.312354    2.504287    0.525543
      5          6           0       -2.468484    3.197150    0.847491
      6          6           0       -2.435855    4.404407    1.462455
      7          6           0       -1.218379    5.005046    1.780085
      8          6           0       -0.033541    4.415061    1.387127
      9          6           0        1.219385    2.562966    0.474892
     10          6           0        2.849130    1.034689   -0.339643
     11          6           0        3.533385    2.093819   -1.143153
     12          1           0       -3.317012    2.804360    0.648975
     13          1           0       -3.253111    4.852215    1.682152
     14          1           0       -1.203601    5.827821    2.266811
     15          1           0        0.803144    4.855197    1.514350
     16          1           0        1.989747    3.098445    0.637335
     17          1           0        2.812681    0.261267   -0.895072
     18          1           0        2.912187    2.431567   -1.782704
     19          1           0        3.788221    2.797116   -0.554387
     20          6           0        4.782835    1.612367   -1.895351
     21          6           0        4.774496    1.538159   -3.279953
     22          6           0        5.899795    1.127175   -3.961692
     23          6           0        7.043946    0.818312   -3.305161
     24          1           0        3.963422    1.764458   -3.752585
     25          1           0        5.869750    1.086348   -4.930321
     26          1           0        7.824705    0.533855   -3.770872
     27          6           0        3.622074    0.616898    0.940760
     28          6           0        4.027550    1.548273    1.848222
     29          6           0        4.764446    1.196790    2.961170
     30          6           0        5.041651   -0.123579    3.148994
     31          6           0        4.654623   -1.076366    2.286112
     32          6           0        3.934351   -0.698566    1.145786
     33          1           0        3.820728    2.499341    1.702154
     34          1           0        5.048237    1.864837    3.590395
     35          1           0        5.571097   -0.387846    3.944089
     36          6           0        7.062483    0.874248   -1.926290
     37          6           0        5.957311    1.298901   -1.216925
     38          1           0        7.876111    0.658994   -1.435755
     39          1           0        5.969783    1.337103   -0.258020
     40          1           0        4.869229   -2.006507    2.407472
     41          1           0        3.641662   -1.373026    0.519390
 ---------------------------------------------------------------------
                    Distance matrix (angstroms):
                    1          2          3          4          5
     1  O    0.000000
     2  N    2.790090   0.000000
     3  C    2.392230   2.431319   0.000000
     4  C    1.317412   2.997618   1.424139   0.000000
     5  C    2.353780   4.371063   2.401771   1.385766   0.000000
     6  C    3.596423   5.107679   2.765476   2.398024   1.355255
     7  C    4.115442   4.815275   2.401657   2.799376   2.387673
     8  C    3.663545   3.629893   1.404615   2.455351   2.775511
     9  C    2.918280   1.279058   1.447127   2.532926   3.760505
    10  C    4.237940   1.510533   3.772843   4.497356   5.861957
    11  C    5.094575   2.501722   4.217848   5.141421   6.418912
    12  H    2.548418   4.986712   3.269732   2.030747   0.955873
    13  H    4.361564   6.053917   3.722765   3.258382   2.012843
    14  H    5.068447   5.630287   3.267327   3.753628   3.245739
    15  H    4.433976   3.829462   2.051881   3.313585   3.727917
    16  H    3.862306   1.907578   2.063561   3.356991   4.464272
    17  H    4.398247   2.004160   4.409631   4.905628   6.288612
    18  H    4.772379   2.545507   3.997046   4.814565   6.037852
    19  H    5.397456   2.807377   4.096582   5.221864   6.424301
    20  C    6.442975   3.865152   5.749845   6.618729   7.913049
    21  C    6.966631   4.692765   6.522776   7.243269   8.499930
    22  C    8.278301   5.985055   7.887181   8.605046   9.871228
    23  C    9.049731   6.547228   8.527472   9.345831  10.648461
    24  H    6.535543   4.547708   6.223789   6.832535   8.036338
    25  H    8.759174   6.647486   8.493881   9.130148  10.361696
    26  H    9.964434   7.480536   9.479635  10.287255  11.591900
    27  C    5.122405   2.515847   4.477356   5.299360   6.615232
    28  C    5.707885   3.198718   4.524085   5.583728   6.776335
    29  C    6.809791   4.470165   5.648413   6.676026   7.796433
    30  C    7.280544   5.031981   6.512229   7.359453   8.527971
    31  C    6.864497   4.666438   6.511984   7.178125   8.430375
    32  C    5.779385   3.464188   5.562759   6.178258   7.500792
    33  H    5.590553   3.143010   4.048267   5.266209   6.385262
    34  H    7.373469   5.125166   5.975378   7.089381   8.111700
    35  H    8.156793   5.995450   7.368433   8.211746   9.331451
    36  C    8.657126   5.983340   7.959409   8.877297  10.194560
    37  C    7.424715   4.697185   6.612256   7.572132   8.880270
    38  H    9.375717   6.652971   8.615413   9.574950  10.893397
    39  H    7.341422   4.555964   6.388824   7.416590   8.711273
    40  H    7.456723   5.407149   7.319943   7.880411   9.129820
    41  H    5.699824   3.584412   5.853856   6.290935   7.637280
                    6          7          8          9         10
     6  C    0.000000
     7  C    1.394239   0.000000
     8  C    2.403518   1.380702   0.000000
     9  C    4.210341   3.689170   2.415006   0.000000
    10  C    6.521781   6.066433   4.766387   2.378059   0.000000
    11  C    6.910849   6.292839   4.951105   2.862300   1.495188
    12  H    1.999585   3.244486   3.731006   4.546150   6.490794
    13  H    0.957448   2.042813   3.262480   5.167336   7.476531
    14  H    2.047326   0.956075   2.034398   4.443097   6.796495
    15  H    3.270629   2.044412   0.953911   2.551088   4.713770
    16  H    4.687463   3.902957   2.527718   0.952146   2.439696
    17  H    7.090181   6.775643   5.528419   3.116603   0.952896
    18  H    6.559322   6.031403   4.760188   2.824815   2.009395
    19  H    6.737222   5.949013   4.581822   2.777257   2.008521
    20  C    8.436815   7.812405   6.467398   4.384047   2.548167
    21  C    9.093678   8.575421   7.292148   5.271424   3.550484
    22  C   10.471136   9.933493   8.638550   6.606892   4.736491
    23  C   11.200754  10.566669   9.221985   7.159479   5.141750
    24  H    8.666991   8.243962   7.029798   5.102835   3.663657
    25  H   10.993642  10.517952   9.264951   7.281663   5.495555
    26  H   12.151048  11.514427  10.169599   8.110120   6.064693
    27  C    7.163511   6.587131   5.290445   3.126840   1.552877
    28  C    7.076859   6.282809   4.992349   3.286553   2.537558
    29  C    8.023671   7.189713   5.987952   4.540426   3.819696
    30  C    8.902818   8.207599   7.032852   5.383127   4.280108
    31  C    8.999564   8.469462   7.276182   5.322228   3.822427
    32  C    8.168240   7.712597   6.477005   4.296362   2.527524
    33  H    6.544582   5.628252   4.315624   2.877012   2.694094
    34  H    8.184692   7.239379   6.097745   4.985363   4.579347
    35  H    9.655852   8.936620   7.811398   6.299207   5.270965
    36  C   10.684757   9.968620   8.594745   6.539054   4.505056
    37  C    9.341761   8.614413   7.237531   5.187297   3.240405
    38  H   11.347439  10.580148   9.199962   7.182456   5.158793
    39  H    9.111703   8.323301   6.944079   4.960462   3.136334
    40  H    9.765097   9.306688   8.143389   6.159245   4.569061
    41  H    8.438265   8.117213   6.911009   4.621844   2.676404
                   11         12         13         14         15
    11  C    0.000000
    12  H    7.116497   0.000000
    13  H    7.851600   2.294612   0.000000
    14  H    6.928900   4.028053   2.343955   0.000000
    15  H    4.705502   4.683000   4.059726   2.353555   0.000000
    16  H    2.561685   5.314914   5.626270   4.505791   2.294201
    17  H    1.984744   6.813555   8.031981   7.557416   5.563070
    18  H    0.953408   6.697384   7.475002   6.698718   4.603543
    19  H    0.951953   7.206419   7.668500   6.485570   4.174453
    20  C    1.535814   8.573329   9.373984   8.422058   6.162788
    21  C    2.532791   9.083625  10.002397   9.214415   7.054058
    22  C    3.805058  10.441300  11.380009  10.552183   8.358292
    23  C    4.315697  11.266279  12.131573  11.142894   8.858428
    24  H    2.665060   8.570872   9.547197   8.913034   6.876092
    25  H    4.562482  10.884700  11.879947  11.149555   9.022666
    26  H    5.268190  12.199512  13.080585  12.082632   9.793360
    27  C    2.555749   7.281555   8.108992   7.224906   5.122358
    28  C    3.080608   7.547089   7.996977   6.771609   4.630768
    29  C    4.377858   8.558066   8.903890   7.585919   5.582934
    30  C    5.061052   9.202726   9.783314   8.671827   6.739823
    31  C    4.802822   9.015942   9.901772   9.054665   7.114277
    32  C    3.632827   8.068431   9.097169   8.381466   6.386281
    33  H    2.888388   7.221465   7.454905   6.053222   3.832902
    34  H    4.975308   8.916953   9.026528   7.519481   5.592230
    35  H    6.015892  10.002322  10.509103   9.345818   7.491763
    36  C    3.815126  10.866979  11.629985  10.509430   8.177120
    37  C    2.552010   9.579200  10.288954   9.161124   6.831731
    38  H    4.582969  11.585970  12.294878  11.084536   8.737168
    39  H    2.700392   9.445636  10.058929   8.831690   6.497110
    40  H    5.586062   9.656671  10.655541   9.913412   8.025814
    41  H    3.846399   8.117296   9.361813   8.853375   6.916494
                   16         17         18         19         20
    16  H    0.000000
    17  H    3.327923   0.000000
    18  H    2.674362   2.346912   0.000000
    19  H    2.178419   2.738298   1.552361   0.000000
    20  C    4.052687   2.589892   2.045264   2.047211   0.000000
    21  C    5.053164   3.341681   2.551104   3.160130   1.386614
    22  C    6.350232   4.436692   3.921127   4.342485   2.398495
    23  C    6.803471   4.901269   4.689553   4.699167   2.780416
    24  H    4.994629   3.427707   2.330357   3.365345   2.035654
    25  H    7.078259   5.129295   4.523747   5.138899   3.266362
    26  H    7.749590   5.784887   5.629117   5.635719   3.732792
    27  C    2.985738   2.037614   3.348764   2.648852   3.222088
    28  C    2.832300   3.264653   3.899727   2.718349   3.819543
    29  C    4.088454   4.422125   5.240217   3.984118   4.874304
    30  C    5.099411   4.633668   5.948532   4.880223   5.340966
    31  C    5.220065   3.911770   5.647737   4.880876   4.972962
    32  C    4.296196   2.518834   4.406655   3.889953   3.912653
    33  H    2.201194   3.573613   3.601982   2.276335   3.828109
    34  H    4.426818   5.261993   5.809827   4.431253   5.497963
    35  H    5.992906   5.607824   6.914843   5.793006   6.222642
    36  C    6.103432   4.415878   4.435180   4.037367   2.396366
    37  C    4.734787   3.327007   3.297851   2.718190   1.392091
    38  H    6.700590   5.107725   5.282322   4.696724   3.269328
    39  H    4.443498   3.395667   3.587675   2.641720   2.040949
    40  H    6.122527   4.503219   6.409687   5.745953   5.622988
    41  H    4.768311   2.314914   4.506296   4.308661   4.005724
                   21         22         23         24         25
    21  C    0.000000
    22  C    1.378396   0.000000
    23  C    2.381012   1.354810   0.000000
    24  H    0.965626   2.049243   3.253461   0.000000
    25  H    2.031607   0.969954   2.022801   2.341149   0.000000
    26  H    3.248600   2.023294   0.952568   4.052681   2.339107
    27  C    4.471154   5.429773   5.456888   4.843646   6.304127
    28  C    5.182298   6.118638   6.015717   5.605345   7.039582
    29  C    6.250460   7.015688   6.678792   6.785160   7.969286
    30  C    6.645608   7.270671   6.822937   7.235956   8.211272
    31  C    6.150706   6.741002   6.368752   6.709240   7.630908
    32  C    5.029508   5.769110   5.637502   5.482825   6.621990
    33  H    5.162842   6.187448   6.187746   5.505869   7.084120
    34  H    6.883556   7.635661   7.254431   7.423359   8.595553
    35  H    7.518700   8.056346   7.495047   8.152044   9.000977
    36  C    2.740085   2.357685   1.380130   3.705672   3.239105
    37  C    2.390059   2.750735   2.402597   3.259127   3.720504
    38  H    3.714028   3.241199   2.052451   4.679624   4.052172
    39  H    3.255951   3.710277   3.272314   4.052173   4.680094
    40  H    6.702271   7.172746   6.733734   7.279214   8.025584
    41  H    4.918670   5.606271   5.568186   5.310095   6.380614
                   26         27         28         29         30
    26  H    0.000000
    27  C    6.314149   0.000000
    28  C    6.857233   1.362115   0.000000
    29  C    7.424624   2.392351   1.380293   0.000000
    30  C    7.487466   2.727600   2.348509   1.362165   0.000000
    31  C    7.023480   2.396512   2.733806   2.373816   1.342445
    32  C    6.389619   1.367479   2.355927   2.752645   2.359993
    33  H    7.060381   2.040287   0.984196   2.042637   3.234766
    34  H    7.979257   3.257584   2.043815   0.960598   2.036830
    35  H    8.090049   3.718626   3.244033   2.031720   0.991124
    36  C    2.024681   4.485824   4.889997   5.410385   5.553191
    37  C    3.255011   3.251779   3.630605   4.346243   4.682215
    38  H    2.339032   4.873030   5.136803   5.413375   5.446697
    39  H    4.052909   2.732674   2.872824   3.440306   3.821356
    40  H    7.304807   3.254058   3.695625   3.252487   2.031010
    41  H    6.288115   2.034143   3.232444   3.718453   3.230466
                   31         32         33         34         35
    31  C    0.000000
    32  C    1.400667   0.000000
    33  H    3.717804   3.247932   0.000000
    34  H    3.241414   3.713206   2.339836   0.000000
    35  H    2.015657   3.256683   4.052890   2.339458   0.000000
    36  C    5.229437   4.657961   5.129864   5.955860   6.186959
    37  C    4.428336   3.696572   3.811439   4.925143   5.443376
    38  H    5.219363   4.903549   5.447888   5.891784   5.945729
    39  H    3.745275   3.202749   3.132334   3.992249   4.559838
    40  H    0.962261   2.043663   4.679689   4.051994   2.339631
    41  H    2.058010   0.965886   4.052927   4.679027   4.052390
                   36         37         38         39         40
    36  C    0.000000
    37  C    1.380193   0.000000
    38  H    0.974140   2.034492   0.000000
    39  H    2.047279   0.959747   2.341149   0.000000
    40  H    5.647176   5.024530   5.560272   4.415404   0.000000
    41  H    4.767977   3.939063   5.087461   3.656408   2.339460
                   41
    41  H    0.000000
 Stoichiometry    C21H18NO(1-)
 Framework group  C1[X(C21H18NO)]
 Deg. of freedom   117
 Full point group                 C1      NOp   1
 Largest Abelian subgroup         C1      NOp   1
 Largest concise Abelian subgroup C1      NOp   1
                         Standard orientation:                         
 ---------------------------------------------------------------------
 Center     Atomic      Atomic             Coordinates (Angstroms)
 Number     Number       Type             X           Y           Z
 ---------------------------------------------------------------------
      1          8           0       -3.423064   -0.696915    2.112133
      2          7           0       -0.978699   -0.213198    0.856863
      3          6           0       -3.141114   -0.379264   -0.242090
      4          6           0       -3.947786   -0.622858    0.906001
      5          6           0       -5.310051   -0.781829    0.707730
      6          6           0       -5.882011   -0.629807   -0.511478
      7          6           0       -5.103182   -0.320823   -1.625864
      8          6           0       -3.728629   -0.257541   -1.512111
      9          6           0       -1.703416   -0.220603   -0.197044
     10          6           0        0.516018   -0.136496    0.652783
     11          6           0        1.010101   -1.116184   -0.362934
     12          1           0       -5.868705   -0.985137    1.456237
     13          1           0       -6.828244   -0.734852   -0.613035
     14          1           0       -5.520430   -0.156446   -2.470235
     15          1           0       -3.174686   -0.138408   -2.279509
     16          1           0       -1.251734   -0.114503   -1.028492
     17          1           0        0.918344   -0.385185    1.480006
     18          1           0        0.540097   -1.936524   -0.239956
     19          1           0        0.815397   -0.772019   -1.228875
     20          6           0        2.515651   -1.408855   -0.283016
     21          6           0        2.959861   -2.657412    0.125006
     22          6           0        4.309416   -2.932799    0.178265
     23          6           0        5.228849   -2.009965   -0.193933
     24          1           0        2.307805   -3.320792    0.384204
     25          1           0        4.594886   -3.814592    0.464198
     26          1           0        6.162719   -2.194569   -0.159376
     27          6           0        0.950780    1.328870    0.378719
     28          6           0        0.713994    1.914692   -0.827972
     29          6           0        1.145690    3.196412   -1.103725
     30          6           0        1.784243    3.879057   -0.112896
     31          6           0        2.030989    3.345071    1.093808
     32          6           0        1.613516    2.032124    1.346301
     33          1           0        0.251009    1.411747   -1.536020
     34          1           0        0.976265    3.595379   -1.960970
     35          1           0        2.099805    4.799854   -0.299657
     36          6           0        4.801692   -0.758439   -0.588873
     37          6           0        3.456848   -0.458675   -0.669312
     38          1           0        5.446738   -0.081966   -0.863186
     39          1           0        3.159657    0.411835   -0.943179
     40          1           0        2.501360    3.819477    1.786365
     41          1           0        1.776353    1.636336    2.212194
 ---------------------------------------------------------------------
 Rotational constants (GHZ):           0.4094838           0.1398452           0.1175876
 Leave Link  202 at Mon Mar  6 10:21:40 2023, MaxMem=  1048576000 cpu:               0.0 elap:               0.0
 (Enter /ssoft/spack/external/gaussian/g16-C.01/avx2/g16/l301.exe)
 Standard basis: def2SVP (5D, 7F)
 Ernie: Thresh=  0.10000D-02 Tol=  0.10000D-05 Strict=F.
 There are   435 symmetry adapted cartesian basis functions of A   symmetry.
 There are   412 symmetry adapted basis functions of A   symmetry.
   412 basis functions,   701 primitive gaussians,   435 cartesian basis functions
    80 alpha electrons       80 beta electrons
       nuclear repulsion energy      1724.1054897933 Hartrees.
 IExCor= 1009 DFT=T Ex+Corr=PBE1PBE ExCW=0 ScaHFX=  0.250000
 ScaDFX=  0.750000  0.750000  1.000000  1.000000 ScalE2=  1.000000  1.000000
 IRadAn=      5 IRanWt=     -1 IRanGd=            0 ICorTp=0 IEmpDi=141
 NAtoms=   41 NActive=   41 NUniq=   41 SFac= 1.00D+00 NAtFMM=   60 NAOKFM=F Big=F
 Integral buffers will be    131072 words long.
 Raffenetti 2 integral format.
 Two-electron integral symmetry is turned on.
 R6Disp:  Grimme-D3(BJ) Dispersion energy=       -0.0498953979 Hartrees.
 Nuclear repulsion after empirical dispersion term =     1724.0555943954 Hartrees.
 Leave Link  301 at Mon Mar  6 10:21:40 2023, MaxMem=  1048576000 cpu:               0.1 elap:               0.1
 (Enter /ssoft/spack/external/gaussian/g16-C.01/avx2/g16/l302.exe)
 NPDir=0 NMtPBC=     1 NCelOv=     1 NCel=       1 NClECP=     1 NCelD=      1
         NCelK=      1 NCelE2=     1 NClLst=     1 CellRange=     0.0.
 One-electron integrals computed using PRISM.
 One-electron integral symmetry used in STVInt
   1 Symmetry operations used in ECPInt.
 ECPInt:  NShTT=   18528 NPrTT=   67514 LenC2=   16157 LenP2D=   40344.
 LDataN:  DoStor=T MaxTD1= 4 Len=   56
 NBasis=   412 RedAO= T EigKep=  2.42D-04  NBF=   412
 NBsUse=   412 1.00D-06 EigRej= -1.00D+00 NBFU=   412
 Precomputing XC quadrature grid using
 IXCGrd= 4 IRadAn=           5 IRanWt=          -1 IRanGd=           0 AccXCQ= 0.00D+00.
 Generated NRdTot=       0 NPtTot=           0 NUsed=           0 NTot=          32
 NSgBfM=   430   430   430   430   430 MxSgAt=    41 MxSgA2=    41.
 Leave Link  302 at Mon Mar  6 10:21:42 2023, MaxMem=  1048576000 cpu:               1.6 elap:               1.6
 (Enter /ssoft/spack/external/gaussian/g16-C.01/avx2/g16/l303.exe)
 DipDrv:  MaxL=1.
 Leave Link  303 at Mon Mar  6 10:21:42 2023, MaxMem=  1048576000 cpu:               0.1 elap:               0.1
 (Enter /ssoft/spack/external/gaussian/g16-C.01/avx2/g16/l401.exe)
 ExpMin= 1.22D-01 ExpMax= 2.27D+03 ExpMxC= 3.41D+02 IAcc=3 IRadAn=         5 AccDes= 0.00D+00
 Harris functional with IExCor= 1009 and IRadAn=       5 diagonalized for initial guess.
 HarFok:  IExCor= 1009 AccDes= 0.00D+00 IRadAn=         5 IDoV= 1 UseB2=F ITyADJ=14
 ICtDFT=  3500011 ScaDFX=  1.000000  1.000000  1.000000  1.000000
 FoFCou: FMM=F IPFlag=           0 FMFlag=      100000 FMFlg1=           0
         NFxFlg=           0 DoJE=T BraDBF=F KetDBF=T FulRan=T
         wScrn=  0.000000 ICntrl=       500 IOpCl=  0 I1Cent=   200000004 NGrid=           0
         NMat0=    1 NMatS0=      1 NMatT0=    0 NMatD0=    1 NMtDS0=    0 NMtDT0=    0
 Petite list used in FoFCou.
 Harris En= -939.651646178645    
 JPrj=0 DoOrth=F DoCkMO=F.
 Leave Link  401 at Mon Mar  6 10:21:55 2023, MaxMem=  1048576000 cpu:              13.2 elap:              13.2
 (Enter /ssoft/spack/external/gaussian/g16-C.01/avx2/g16/l502.exe)
 Integral symmetry usage will be decided dynamically.
 Closed shell SCF:
 Using DIIS extrapolation, IDIIS=  1040.
 NGot=  1048576000 LenX=  1048189346 LenY=  1047999680
 Requested convergence on RMS density matrix=1.00D-08 within 128 cycles.
 Requested convergence on MAX density matrix=1.00D-06.
 Requested convergence on             energy=1.00D-06.
 No special actions if energy rises.
 Fock matrices will be formed incrementally for  20 cycles.
 Integral accuracy reduced to 1.0D-05 until final iterations.

 Cycle   1  Pass 0  IDiag  1:
 FoFJK:  IHMeth= 1 ICntrl=       0 DoSepK=F KAlg= 0 I1Cent=           0 FoldK=F
 IRaf= 790000000 NMat=       1 IRICut=       1 DoRegI=T DoRafI=F ISym2E= 0 IDoP0=0 IntGTp=1.
 FoFCou: FMM=F IPFlag=           0 FMFlag=      100000 FMFlg1=           0
         NFxFlg=           0 DoJE=F BraDBF=F KetDBF=F FulRan=T
         wScrn=  0.000000 ICntrl=         0 IOpCl=  0 I1Cent=           0 NGrid=           0
         NMat0=    1 NMatS0=      1 NMatT0=    0 NMatD0=    1 NMtDS0=    0 NMtDT0=    0
 Symmetry not used in FoFCou.
 E= -938.475586456756    
 DIIS: error= 2.80D-02 at cycle   1 NSaved=   1.
 NSaved= 1 IEnMin= 1 EnMin= -938.475586456756     IErMin= 1 ErrMin= 2.80D-02
 ErrMax= 2.80D-02  0.00D+00 EMaxC= 1.00D-01 BMatC= 4.90D-01 BMatP= 4.90D-01
 IDIUse=3 WtCom= 7.20D-01 WtEn= 2.80D-01
 Coeff-Com:  0.100D+01
 Coeff-En:   0.100D+01
 Coeff:      0.100D+01
 Gap=     0.098 Goal=   None    Shift=    0.000
 GapD=    0.098 DampG=0.500 DampE=0.500 DampFc=0.2500 IDamp=-1.
 Damping current iteration by 2.50D-01
 RMSDP=7.51D-03 MaxDP=3.87D-01              OVMax= 9.90D-01

 Cycle   2  Pass 0  IDiag  1:
 RMSU=  1.80D-03    CP:  9.72D-01
 E= -938.558783233203     Delta-E=       -0.083196776448 Rises=F Damp=T
 DIIS: error= 1.59D-02 at cycle   2 NSaved=   2.
 NSaved= 2 IEnMin= 2 EnMin= -938.558783233203     IErMin= 2 ErrMin= 1.59D-02
 ErrMax= 1.59D-02  0.00D+00 EMaxC= 1.00D-01 BMatC= 1.67D-01 BMatP= 4.90D-01
 IDIUse=3 WtCom= 8.41D-01 WtEn= 1.59D-01
 Coeff-Com: -0.341D+00 0.134D+01
 Coeff-En:   0.277D+00 0.723D+00
 Coeff:     -0.243D+00 0.124D+01
 Gap=     0.021 Goal=   None    Shift=    0.000
 RMSDP=3.63D-03 MaxDP=1.34D-01 DE=-8.32D-02 OVMax= 5.08D-01

 Cycle   3  Pass 0  IDiag  1:
 RMSU=  3.33D-03    CP:  8.97D-01  9.94D-01
 E= -938.587025603367     Delta-E=       -0.028242370164 Rises=F Damp=F
 DIIS: error= 5.12D-02 at cycle   3 NSaved=   3.
 NSaved= 3 IEnMin= 3 EnMin= -938.587025603367     IErMin= 2 ErrMin= 1.59D-02
 ErrMax= 5.12D-02  0.00D+00 EMaxC= 1.00D-01 BMatC= 4.46D-01 BMatP= 1.67D-01
 IDIUse=2 WtCom= 0.00D+00 WtEn= 1.00D+00
 Coeff-En:   0.000D+00 0.480D+00 0.520D+00
 Coeff:      0.000D+00 0.480D+00 0.520D+00
 Gap=     0.301 Goal=   None    Shift=    0.000
 RMSDP=5.26D-03 MaxDP=4.22D-01 DE=-2.82D-02 OVMax= 9.96D-01

 Cycle   4  Pass 0  IDiag  1:
 RMSU=  2.27D-03    CP:  9.08D-01  2.78D+00 -4.58D-02
 E= -936.843856574863     Delta-E=        1.743169028504 Rises=F Damp=F
 DIIS: error= 8.73D-02 at cycle   4 NSaved=   4.
 NSaved= 4 IEnMin= 3 EnMin= -938.587025603367     IErMin= 2 ErrMin= 1.59D-02
 ErrMax= 8.73D-02  0.00D+00 EMaxC= 1.00D-01 BMatC= 1.26D+00 BMatP= 1.67D-01
 IDIUse=2 WtCom= 0.00D+00 WtEn= 1.00D+00
 EnCoef did     1 forward-backward iterations
 Coeff-En:   0.138D-01 0.000D+00 0.734D+00 0.252D+00
 Coeff:      0.138D-01 0.000D+00 0.734D+00 0.252D+00
 Gap=     0.016 Goal=   None    Shift=    0.000
 RMSDP=4.71D-03 MaxDP=3.09D-01 DE= 1.74D+00 OVMax= 9.94D-01

 Cycle   5  Pass 0  IDiag  1:
 RMSU=  2.29D-03    CP:  9.25D-01  9.18D-01  4.58D-01  2.53D-01
 E= -938.997873655399     Delta-E=       -2.154017080536 Rises=F Damp=F
 DIIS: error= 8.54D-03 at cycle   5 NSaved=   5.
 NSaved= 5 IEnMin= 5 EnMin= -938.997873655399     IErMin= 5 ErrMin= 8.54D-03
 ErrMax= 8.54D-03  0.00D+00 EMaxC= 1.00D-01 BMatC= 4.48D-02 BMatP= 1.67D-01
 IDIUse=3 WtCom= 9.15D-01 WtEn= 8.54D-02
 Coeff-Com: -0.341D+00 0.591D+00 0.262D+00-0.437D-01 0.532D+00
 Coeff-En:   0.000D+00 0.000D+00 0.279D-01 0.000D+00 0.972D+00
 Coeff:     -0.312D+00 0.540D+00 0.242D+00-0.400D-01 0.570D+00
 Gap=     0.166 Goal=   None    Shift=    0.000
 RMSDP=1.02D-03 MaxDP=4.87D-02 DE=-2.15D+00 OVMax= 1.18D-01

 Cycle   6  Pass 0  IDiag  1:
 RMSU=  6.88D-04    CP:  9.15D-01  1.03D+00  5.90D-01  1.60D-01  7.78D-01
 E= -939.032894071177     Delta-E=       -0.035020415778 Rises=F Damp=F
 DIIS: error= 9.71D-03 at cycle   6 NSaved=   6.
 NSaved= 6 IEnMin= 6 EnMin= -939.032894071177     IErMin= 5 ErrMin= 8.54D-03
 ErrMax= 9.71D-03  0.00D+00 EMaxC= 1.00D-01 BMatC= 1.19D-02 BMatP= 4.48D-02
 IDIUse=3 WtCom= 9.15D-01 WtEn= 8.54D-02
 Coeff-Com: -0.197D+00 0.294D+00 0.432D-01-0.169D-01 0.255D+00 0.622D+00
 Coeff-En:   0.000D+00 0.000D+00 0.000D+00 0.000D+00 0.167D+00 0.833D+00
 Coeff:     -0.180D+00 0.268D+00 0.395D-01-0.154D-01 0.247D+00 0.640D+00
 Gap=     0.114 Goal=   None    Shift=    0.000
 RMSDP=4.23D-04 MaxDP=3.07D-02 DE=-3.50D-02 OVMax= 5.96D-02

 Cycle   7  Pass 0  IDiag  1:
 RMSU=  2.26D-04    CP:  9.16D-01  1.06D+00  5.48D-01  1.72D-01  9.13D-01
                    CP:  8.85D-01
 E= -939.044636511499     Delta-E=       -0.011742440322 Rises=F Damp=F
 DIIS: error= 2.06D-03 at cycle   7 NSaved=   7.
 NSaved= 7 IEnMin= 7 EnMin= -939.044636511499     IErMin= 7 ErrMin= 2.06D-03
 ErrMax= 2.06D-03  0.00D+00 EMaxC= 1.00D-01 BMatC= 9.59D-04 BMatP= 1.19D-02
 IDIUse=3 WtCom= 9.79D-01 WtEn= 2.06D-02
 Coeff-Com: -0.753D-01 0.108D+00-0.222D-01-0.384D-03 0.480D-01 0.338D+00
 Coeff-Com:  0.604D+00
 Coeff-En:   0.000D+00 0.000D+00 0.000D+00 0.000D+00 0.000D+00 0.000D+00
 Coeff-En:   0.100D+01
 Coeff:     -0.738D-01 0.105D+00-0.218D-01-0.376D-03 0.470D-01 0.331D+00
 Coeff:      0.612D+00
 Gap=     0.106 Goal=   None    Shift=    0.000
 RMSDP=1.27D-04 MaxDP=3.32D-03 DE=-1.17D-02 OVMax= 9.97D-03

 Cycle   8  Pass 0  IDiag  1:
 RMSU=  7.76D-05    CP:  9.16D-01  1.07D+00  5.40D-01  1.72D-01  9.28D-01
                    CP:  1.01D+00  9.21D-01
 E= -939.045504970626     Delta-E=       -0.000868459127 Rises=F Damp=F
 DIIS: error= 1.75D-03 at cycle   8 NSaved=   8.
 NSaved= 8 IEnMin= 8 EnMin= -939.045504970626     IErMin= 8 ErrMin= 1.75D-03
 ErrMax= 1.75D-03  0.00D+00 EMaxC= 1.00D-01 BMatC= 4.13D-04 BMatP= 9.59D-04
 IDIUse=3 WtCom= 9.82D-01 WtEn= 1.75D-02
 Coeff-Com: -0.365D-01 0.538D-01-0.183D-01 0.129D-02-0.405D-02 0.787D-01
 Coeff-Com:  0.258D+00 0.667D+00
 Coeff-En:   0.000D+00 0.000D+00 0.000D+00 0.000D+00 0.000D+00 0.000D+00
 Coeff-En:   0.000D+00 0.100D+01
 Coeff:     -0.358D-01 0.528D-01-0.180D-01 0.127D-02-0.398D-02 0.774D-01
 Coeff:      0.254D+00 0.672D+00
 Gap=     0.103 Goal=   None    Shift=    0.000
 RMSDP=6.78D-05 MaxDP=3.61D-03 DE=-8.68D-04 OVMax= 8.75D-03

 Cycle   9  Pass 0  IDiag  1:
 RMSU=  4.14D-05    CP:  9.17D-01  1.08D+00  5.34D-01  1.73D-01  9.41D-01
                    CP:  1.05D+00  1.03D+00  8.97D-01
 E= -939.045834651508     Delta-E=       -0.000329680882 Rises=F Damp=F
 DIIS: error= 1.05D-03 at cycle   9 NSaved=   9.
 NSaved= 9 IEnMin= 9 EnMin= -939.045834651508     IErMin= 9 ErrMin= 1.05D-03
 ErrMax= 1.05D-03  0.00D+00 EMaxC= 1.00D-01 BMatC= 1.46D-04 BMatP= 4.13D-04
 IDIUse=3 WtCom= 9.90D-01 WtEn= 1.05D-02
 Coeff-Com: -0.143D-01 0.222D-01 0.788D-03-0.274D-03 0.514D-03-0.761D-01
 Coeff-Com: -0.174D+00 0.362D+00 0.879D+00
 Coeff-En:   0.000D+00 0.000D+00 0.000D+00 0.000D+00 0.000D+00 0.000D+00
 Coeff-En:   0.000D+00 0.000D+00 0.100D+01
 Coeff:     -0.141D-01 0.219D-01 0.779D-03-0.272D-03 0.508D-03-0.753D-01
 Coeff:     -0.172D+00 0.359D+00 0.880D+00
 Gap=     0.101 Goal=   None    Shift=    0.000
 RMSDP=4.35D-05 MaxDP=2.58D-03 DE=-3.30D-04 OVMax= 7.71D-03

 Cycle  10  Pass 0  IDiag  1:
 RMSU=  1.58D-05    CP:  9.17D-01  1.09D+00  5.30D-01  1.73D-01  9.51D-01
                    CP:  1.07D+00  1.08D+00  1.19D+00  9.72D-01
 E= -939.045992726252     Delta-E=       -0.000158074744 Rises=F Damp=F
 DIIS: error= 3.49D-04 at cycle  10 NSaved=  10.
 NSaved=10 IEnMin=10 EnMin= -939.045992726252     IErMin=10 ErrMin= 3.49D-04
 ErrMax= 3.49D-04  0.00D+00 EMaxC= 1.00D-01 BMatC= 1.96D-05 BMatP= 1.46D-04
 IDIUse=3 WtCom= 9.97D-01 WtEn= 3.49D-03
 Coeff-Com: -0.611D-02 0.937D-02 0.270D-02-0.260D-03 0.297D-02-0.579D-01
 Coeff-Com: -0.157D+00 0.119D+00 0.524D+00 0.564D+00
 Coeff-En:   0.000D+00 0.000D+00 0.000D+00 0.000D+00 0.000D+00 0.000D+00
 Coeff-En:   0.000D+00 0.000D+00 0.000D+00 0.100D+01
 Coeff:     -0.609D-02 0.934D-02 0.269D-02-0.260D-03 0.296D-02-0.577D-01
 Coeff:     -0.156D+00 0.118D+00 0.522D+00 0.565D+00
 Gap=     0.100 Goal=   None    Shift=    0.000
 RMSDP=1.93D-05 MaxDP=1.05D-03 DE=-1.58D-04 OVMax= 2.21D-03

 Cycle  11  Pass 0  IDiag  1:
 RMSU=  7.40D-06    CP:  9.17D-01  1.09D+00  5.28D-01  1.74D-01  9.55D-01
                    CP:  1.08D+00  1.10D+00  1.25D+00  1.14D+00  8.59D-01
 E= -939.046013595679     Delta-E=       -0.000020869427 Rises=F Damp=F
 DIIS: error= 1.39D-04 at cycle  11 NSaved=  11.
 NSaved=11 IEnMin=11 EnMin= -939.046013595679     IErMin=11 ErrMin= 1.39D-04
 ErrMax= 1.39D-04  0.00D+00 EMaxC= 1.00D-01 BMatC= 2.71D-06 BMatP= 1.96D-05
 IDIUse=3 WtCom= 9.99D-01 WtEn= 1.39D-03
 Coeff-Com: -0.239D-02 0.350D-02 0.128D-02-0.164D-03 0.262D-02-0.179D-01
 Coeff-Com: -0.635D-01-0.196D-02 0.132D+00 0.289D+00 0.657D+00
 Coeff-En:   0.000D+00 0.000D+00 0.000D+00 0.000D+00 0.000D+00 0.000D+00
 Coeff-En:   0.000D+00 0.000D+00 0.000D+00 0.000D+00 0.100D+01
 Coeff:     -0.238D-02 0.350D-02 0.128D-02-0.164D-03 0.262D-02-0.179D-01
 Coeff:     -0.634D-01-0.196D-02 0.132D+00 0.289D+00 0.658D+00
 Gap=     0.100 Goal=   None    Shift=    0.000
 RMSDP=7.00D-06 MaxDP=3.71D-04 DE=-2.09D-05 OVMax= 1.32D-03

 Initial convergence to 1.0D-05 achieved.  Increase integral accuracy.
 Cycle  12  Pass 1  IDiag  1:
 E= -939.046038485207     Delta-E=       -0.000024889528 Rises=F Damp=F
 DIIS: error= 1.41D-04 at cycle   1 NSaved=   1.
 NSaved= 1 IEnMin= 1 EnMin= -939.046038485207     IErMin= 1 ErrMin= 1.41D-04
 ErrMax= 1.41D-04  0.00D+00 EMaxC= 1.00D-01 BMatC= 4.35D-06 BMatP= 4.35D-06
 IDIUse=3 WtCom= 9.99D-01 WtEn= 1.41D-03
 Coeff-Com:  0.100D+01
 Coeff-En:   0.100D+01
 Coeff:      0.100D+01
 Gap=     0.099 Goal=   None    Shift=    0.000
 RMSDP=7.00D-06 MaxDP=3.71D-04 DE=-2.49D-05 OVMax= 8.99D-04

 Cycle  13  Pass 1  IDiag  1:
 RMSU=  1.53D-04    CP:  1.00D+00
 E= -939.046041743037     Delta-E=       -0.000003257830 Rises=F Damp=F
 DIIS: error= 8.80D-05 at cycle   2 NSaved=   2.
 NSaved= 2 IEnMin= 2 EnMin= -939.046041743037     IErMin= 2 ErrMin= 8.80D-05
 ErrMax= 8.80D-05  0.00D+00 EMaxC= 1.00D-01 BMatC= 1.67D-06 BMatP= 4.35D-06
 IDIUse=1 WtCom= 1.00D+00 WtEn= 0.00D+00
 Coeff-Com:  0.318D+00 0.682D+00
 Coeff:      0.318D+00 0.682D+00
 Gap=     0.100 Goal=   None    Shift=    0.000
 RMSDP=1.20D-05 MaxDP=8.50D-04 DE=-3.26D-06 OVMax= 1.14D-03

 Cycle  14  Pass 1  IDiag  1:
 RMSU=  1.18D-05    CP:  1.00D+00  1.01D+00
 E= -939.046040984665     Delta-E=        0.000000758372 Rises=F Damp=F
 DIIS: error= 1.13D-04 at cycle   3 NSaved=   3.
 NSaved= 3 IEnMin= 2 EnMin= -939.046041743037     IErMin= 2 ErrMin= 8.80D-05
 ErrMax= 1.13D-04  0.00D+00 EMaxC= 1.00D-01 BMatC= 2.51D-06 BMatP= 1.67D-06
 IDIUse=3 WtCom= 4.84D-01 WtEn= 5.16D-01
 Coeff-Com: -0.847D-03 0.551D+00 0.450D+00
 Coeff-En:   0.000D+00 0.572D+00 0.428D+00
 Coeff:     -0.410D-03 0.562D+00 0.439D+00
 Gap=     0.100 Goal=   None    Shift=    0.000
 RMSDP=6.26D-06 MaxDP=4.59D-04 DE= 7.58D-07 OVMax= 6.29D-04

 Cycle  15  Pass 1  IDiag  1:
 RMSU=  1.22D-06    CP:  1.00D+00  1.01D+00  5.00D-01
 E= -939.046043284804     Delta-E=       -0.000002300138 Rises=F Damp=F
 DIIS: error= 5.71D-06 at cycle   4 NSaved=   4.
 NSaved= 4 IEnMin= 4 EnMin= -939.046043284804     IErMin= 4 ErrMin= 5.71D-06
 ErrMax= 5.71D-06  0.00D+00 EMaxC= 1.00D-01 BMatC= 2.24D-08 BMatP= 1.67D-06
 IDIUse=1 WtCom= 1.00D+00 WtEn= 0.00D+00
 Coeff-Com: -0.457D-02 0.318D+00 0.250D+00 0.436D+00
 Coeff:     -0.457D-02 0.318D+00 0.250D+00 0.436D+00
 Gap=     0.100 Goal=   None    Shift=    0.000
 RMSDP=6.41D-07 MaxDP=2.45D-05 DE=-2.30D-06 OVMax= 4.14D-05

 Cycle  16  Pass 1  IDiag  1:
 RMSU=  3.58D-07    CP:  1.00D+00  1.01D+00  4.80D-01  6.10D-01
 E= -939.046043308821     Delta-E=       -0.000000024018 Rises=F Damp=F
 DIIS: error= 1.31D-06 at cycle   5 NSaved=   5.
 NSaved= 5 IEnMin= 5 EnMin= -939.046043308821     IErMin= 5 ErrMin= 1.31D-06
 ErrMax= 1.31D-06  0.00D+00 EMaxC= 1.00D-01 BMatC= 8.39D-10 BMatP= 2.24D-08
 IDIUse=1 WtCom= 1.00D+00 WtEn= 0.00D+00
 Coeff-Com: -0.247D-02 0.161D+00 0.127D+00 0.246D+00 0.468D+00
 Coeff:     -0.247D-02 0.161D+00 0.127D+00 0.246D+00 0.468D+00
 Gap=     0.100 Goal=   None    Shift=    0.000
 RMSDP=1.12D-07 MaxDP=4.67D-06 DE=-2.40D-08 OVMax= 1.75D-05

 Cycle  17  Pass 1  IDiag  1:
 RMSU=  9.68D-08    CP:  1.00D+00  1.01D+00  4.80D-01  6.18D-01  8.50D-01
 E= -939.046043309810     Delta-E=       -0.000000000988 Rises=F Damp=F
 DIIS: error= 3.07D-07 at cycle   6 NSaved=   6.
 NSaved= 6 IEnMin= 6 EnMin= -939.046043309810     IErMin= 6 ErrMin= 3.07D-07
 ErrMax= 3.07D-07  0.00D+00 EMaxC= 1.00D-01 BMatC= 4.30D-11 BMatP= 8.39D-10
 IDIUse=1 WtCom= 1.00D+00 WtEn= 0.00D+00
 Coeff-Com: -0.304D-03 0.155D-01 0.127D-01 0.251D-01 0.190D+00 0.757D+00
 Coeff:     -0.304D-03 0.155D-01 0.127D-01 0.251D-01 0.190D+00 0.757D+00
 Gap=     0.100 Goal=   None    Shift=    0.000
 RMSDP=4.15D-08 MaxDP=1.59D-06 DE=-9.88D-10 OVMax= 2.70D-06

 Cycle  18  Pass 1  IDiag  1:
 RMSU=  3.13D-08    CP:  1.00D+00  1.01D+00  4.80D-01  6.19D-01  9.21D-01
                    CP:  9.20D-01
 E= -939.046043309848     Delta-E=       -0.000000000039 Rises=F Damp=F
 DIIS: error= 8.91D-08 at cycle   7 NSaved=   7.
 NSaved= 7 IEnMin= 7 EnMin= -939.046043309848     IErMin= 7 ErrMin= 8.91D-08
 ErrMax= 8.91D-08  0.00D+00 EMaxC= 1.00D-01 BMatC= 1.07D-11 BMatP= 4.30D-11
 IDIUse=1 WtCom= 1.00D+00 WtEn= 0.00D+00
 Coeff-Com:  0.923D-04-0.779D-02-0.558D-02-0.114D-01 0.729D-01 0.425D+00
 Coeff-Com:  0.527D+00
 Coeff:      0.923D-04-0.779D-02-0.558D-02-0.114D-01 0.729D-01 0.425D+00
 Coeff:      0.527D+00
 Gap=     0.100 Goal=   None    Shift=    0.000
 RMSDP=1.58D-08 MaxDP=9.85D-07 DE=-3.87D-11 OVMax= 2.41D-06

 Cycle  19  Pass 1  IDiag  1:
 RMSU=  1.19D-08    CP:  1.00D+00  1.01D+00  4.81D-01  6.20D-01  9.23D-01
                    CP:  9.46D-01  7.09D-01
 E= -939.046043309854     Delta-E=       -0.000000000006 Rises=F Damp=F
 DIIS: error= 8.61D-08 at cycle   8 NSaved=   8.
 NSaved= 8 IEnMin= 8 EnMin= -939.046043309854     IErMin= 8 ErrMin= 8.61D-08
 ErrMax= 8.61D-08  0.00D+00 EMaxC= 1.00D-01 BMatC= 2.30D-12 BMatP= 1.07D-11
 IDIUse=1 WtCom= 1.00D+00 WtEn= 0.00D+00
 Coeff-Com:  0.112D-03-0.802D-02-0.590D-02-0.121D-01 0.173D-01 0.116D+00
 Coeff-Com:  0.340D+00 0.553D+00
 Coeff:      0.112D-03-0.802D-02-0.590D-02-0.121D-01 0.173D-01 0.116D+00
 Coeff:      0.340D+00 0.553D+00
 Gap=     0.100 Goal=   None    Shift=    0.000
 RMSDP=6.79D-09 MaxDP=3.52D-07 DE=-5.91D-12 OVMax= 4.53D-07

 SCF Done:  E(RPBE1PBE) =  -939.046043310     A.U. after   19 cycles
            NFock= 19  Conv=0.68D-08     -V/T= 2.0050
 KE= 9.344171142091D+02 PE=-5.650257436679D+03 EE= 2.052738684764D+03
 Leave Link  502 at Mon Mar  6 10:31:03 2023, MaxMem=  1048576000 cpu:             544.1 elap:             548.4
 (Enter /ssoft/spack/external/gaussian/g16-C.01/avx2/g16/l801.exe)
 DoSCS=F DFT=T ScalE2(SS,OS)=  1.000000  1.000000
 Range of M.O.s used for correlation:     1   412
 NBasis=   412 NAE=    80 NBE=    80 NFC=     0 NFV=     0
 NROrb=    412 NOA=    80 NOB=    80 NVA=   332 NVB=   332

 **** Warning!!: The largest alpha MO coefficient is  0.11816270D+02


 **** Warning!!: The smallest alpha delta epsilon is  0.99514281D-01

 Leave Link  801 at Mon Mar  6 10:31:03 2023, MaxMem=  1048576000 cpu:               0.0 elap:               0.0
 (Enter /ssoft/spack/external/gaussian/g16-C.01/avx2/g16/l1101.exe)
 Using compressed storage, NAtomX=    41.
 Will process     42 centers per pass.
   1 Symmetry operations used in ECPInt.
 ECPInt:  NShTT=   18528 NPrTT=   67514 LenC2=   16157 LenP2D=   40344.
 LDataN:  DoStor=T MaxTD1= 5 Len=  102
 R6Disp: Adding Grimme-D3(BJ) dispersion energy 1st derivatives to the gradient.
 Leave Link 1101 at Mon Mar  6 10:31:04 2023, MaxMem=  1048576000 cpu:               0.7 elap:               0.8
 (Enter /ssoft/spack/external/gaussian/g16-C.01/avx2/g16/l1102.exe)
 Symmetrizing basis deriv contribution to polar:
 IMax=3 JMax=2 DiffMx= 0.00D+00
 Leave Link 1102 at Mon Mar  6 10:31:04 2023, MaxMem=  1048576000 cpu:               0.1 elap:               0.1
 (Enter /ssoft/spack/external/gaussian/g16-C.01/avx2/g16/l1110.exe)
 Forming Gx(P) for the SCF density, NAtomX=    41.
 Integral derivatives from FoFJK, PRISM(SPDF).
 Do as many integral derivatives as possible in FoFJK.
 G2DrvN: MDV=    1048571641.
 G2DrvN: will do    42 centers at a time, making    1 passes.
 Calling FoFCou, ICntrl=  3107 FMM=F I1Cent=   0 AccDes= 0.00D+00.
 FoFJK:  IHMeth= 1 ICntrl=    3107 DoSepK=F KAlg= 0 I1Cent=           0 FoldK=F
 IRaf=         0 NMat=       1 IRICut=       1 DoRegI=T DoRafI=F ISym2E= 0 IDoP0=0 IntGTp=1.
 FoFCou: FMM=F IPFlag=           0 FMFlag=      100000 FMFlg1=           0
         NFxFlg=           0 DoJE=F BraDBF=F KetDBF=F FulRan=T
         wScrn=  0.000000 ICntrl=      3107 IOpCl=  0 I1Cent=           0 NGrid=           0
         NMat0=    1 NMatS0=      1 NMatT0=    0 NMatD0=    1 NMtDS0=    0 NMtDT0=    0
 Symmetry not used in FoFCou.
 End of G2Drv F.D. properties file   721 does not exist.
 End of G2Drv F.D. properties file   722 does not exist.
 End of G2Drv F.D. properties file   788 does not exist.
 Leave Link 1110 at Mon Mar  6 10:50:06 2023, MaxMem=  1048576000 cpu:            1137.6 elap:            1141.4
 (Enter /ssoft/spack/external/gaussian/g16-C.01/avx2/g16/l1002.exe)
 Minotr:  Closed shell wavefunction.
          IDoAtm=11111111111111111111111111111111111111111
          Direct CPHF calculation.
          Differentiating once with respect to electric field.
                with respect to dipole field.
          Differentiating once with respect to nuclear coordinates.
          Requested convergence is 1.0D-08 RMS, and 1.0D-07 maximum.
          Secondary convergence is 1.0D-12 RMS, and 1.0D-12 maximum.
          NewPWx=T KeepS1=F KeepF1=F KeepIn=T MapXYZ=F SortEE=F KeepMc=T.
        12464 words used for storage of precomputed grid.
 Two-electron integrals replicated using symmetry.
          MDV=    1048576000 using IRadAn=       1.
          Solving linear equations simultaneously, MaxMat=     384.
 FoF2E skips out because all densities are zero.
 CalDSu exits because no D1Ps are significant.
 FoFJK:  IHMeth= 1 ICntrl=       0 DoSepK=F KAlg= 0 I1Cent=           0 FoldK=F
 IRaf= 760000000 NMat=     123 IRICut=     307 DoRegI=T DoRafI=T ISym2E= 2 IDoP0=3 IntGTp=3.
 FoFCou: FMM=F IPFlag=           0 FMFlag=      100000 FMFlg1=           0
         NFxFlg=           0 DoJE=F BraDBF=F KetDBF=F FulRan=T
         wScrn=  0.000000 ICntrl=         0 IOpCl=  0 I1Cent=           0 NGrid=           0
         NMat0=  123 NMatS0=    123 NMatT0=    0 NMatD0=  123 NMtDS0=    0 NMtDT0=    0
 Integrals replicated using symmetry in FoFCou.
 Raff kept on since  70.91% of shell-pairs survive, threshold=   0.20 IRatSp=71.
          There are   126 degrees of freedom in the 1st order CPHF.  IDoFFX=6 NUNeed=     3.
    123 vectors produced by pass  0 Test12= 2.66D-14 1.00D-09 XBig12= 3.98D+02 8.23D+00.
 AX will form   123 AO Fock derivatives at one time.
    123 vectors produced by pass  1 Test12= 2.66D-14 1.00D-09 XBig12= 5.82D+01 1.29D+00.
    123 vectors produced by pass  2 Test12= 2.66D-14 1.00D-09 XBig12= 4.74D-01 7.38D-02.
    123 vectors produced by pass  3 Test12= 2.66D-14 1.00D-09 XBig12= 1.96D-03 6.42D-03.
    123 vectors produced by pass  4 Test12= 2.66D-14 1.00D-09 XBig12= 5.16D-06 2.66D-04.
    117 vectors produced by pass  5 Test12= 2.66D-14 1.00D-09 XBig12= 7.87D-09 6.99D-06.
     38 vectors produced by pass  6 Test12= 2.66D-14 1.00D-09 XBig12= 9.80D-12 2.41D-07.
      3 vectors produced by pass  7 Test12= 2.66D-14 1.00D-09 XBig12= 9.98D-15 7.08D-09.
      2 vectors produced by pass  8 Test12= 2.66D-14 1.00D-09 XBig12= 1.12D-15 2.58D-09.
 InvSVY:  IOpt=1 It=  1 EMax= 1.24D-14
 Solved reduced A of dimension   775 with   126 vectors.
 FullF1:  Do perturbations      1 to       3.
 Isotropic polarizability for W=    0.000000      236.04 Bohr**3.
 End of Minotr F.D. properties file   721 does not exist.
 End of Minotr F.D. properties file   722 does not exist.
 End of Minotr F.D. properties file   788 does not exist.
 Leave Link 1002 at Mon Mar  6 11:28:19 2023, MaxMem=  1048576000 cpu:            2285.7 elap:            2293.2
 (Enter /ssoft/spack/external/gaussian/g16-C.01/avx2/g16/l601.exe)
 Copying SCF densities to generalized density rwf, IOpCl= 0 IROHF=0.

 **********************************************************************

            Population analysis using the SCF Density.

 **********************************************************************

 Orbital symmetries:
       Occupied  (A) (A) (A) (A) (A) (A) (A) (A) (A) (A) (A) (A)
                 (A) (A) (A) (A) (A) (A) (A) (A) (A) (A) (A) (A)
                 (A) (A) (A) (A) (A) (A) (A) (A) (A) (A) (A) (A)
                 (A) (A) (A) (A) (A) (A) (A) (A) (A) (A) (A) (A)
                 (A) (A) (A) (A) (A) (A) (A) (A) (A) (A) (A) (A)
                 (A) (A) (A) (A) (A) (A) (A) (A) (A) (A) (A) (A)
                 (A) (A) (A) (A) (A) (A) (A) (A)
       Virtual   (A) (A) (A) (A) (A) (A) (A) (A) (A) (A) (A) (A)
                 (A) (A) (A) (A) (A) (A) (A) (A) (A) (A) (A) (A)
                 (A) (A) (A) (A) (A) (A) (A) (A) (A) (A) (A) (A)
                 (A) (A) (A) (A) (A) (A) (A) (A) (A) (A) (A) (A)
                 (A) (A) (A) (A) (A) (A) (A) (A) (A) (A) (A) (A)
                 (A) (A) (A) (A) (A) (A) (A) (A) (A) (A) (A) (A)
                 (A) (A) (A) (A) (A) (A) (A) (A) (A) (A) (A) (A)
                 (A) (A) (A) (A) (A) (A) (A) (A) (A) (A) (A) (A)
                 (A) (A) (A) (A) (A) (A) (A) (A) (A) (A) (A) (A)
                 (A) (A) (A) (A) (A) (A) (A) (A) (A) (A) (A) (A)
                 (A) (A) (A) (A) (A) (A) (A) (A) (A) (A) (A) (A)
                 (A) (A) (A) (A) (A) (A) (A) (A) (A) (A) (A) (A)
                 (A) (A) (A) (A) (A) (A) (A) (A) (A) (A) (A) (A)
                 (A) (A) (A) (A) (A) (A) (A) (A) (A) (A) (A) (A)
                 (A) (A) (A) (A) (A) (A) (A) (A) (A) (A) (A) (A)
                 (A) (A) (A) (A) (A) (A) (A) (A) (A) (A) (A) (A)
                 (A) (A) (A) (A) (A) (A) (A) (A) (A) (A) (A) (A)
                 (A) (A) (A) (A) (A) (A) (A) (A) (A) (A) (A) (A)
                 (A) (A) (A) (A) (A) (A) (A) (A) (A) (A) (A) (A)
                 (A) (A) (A) (A) (A) (A) (A) (A) (A) (A) (A) (A)
                 (A) (A) (A) (A) (A) (A) (A) (A) (A) (A) (A) (A)
                 (A) (A) (A) (A) (A) (A) (A) (A) (A) (A) (A) (A)
                 (A) (A) (A) (A) (A) (A) (A) (A) (A) (A) (A) (A)
                 (A) (A) (A) (A) (A) (A) (A) (A) (A) (A) (A) (A)
                 (A) (A) (A) (A) (A) (A) (A) (A) (A) (A) (A) (A)
                 (A) (A) (A) (A) (A) (A) (A) (A) (A) (A) (A) (A)
                 (A) (A) (A) (A) (A) (A) (A) (A) (A) (A) (A) (A)
                 (A) (A) (A) (A) (A) (A) (A) (A)
 The electronic state is 1-A.
 Alpha  occ. eigenvalues --  -18.94654 -14.21662 -10.15194 -10.14056 -10.13889
 Alpha  occ. eigenvalues --  -10.13616 -10.13503 -10.13447 -10.13267 -10.12981
 Alpha  occ. eigenvalues --  -10.12904 -10.12851 -10.12726 -10.12488 -10.12441
 Alpha  occ. eigenvalues --  -10.10350 -10.10162 -10.09406 -10.06958 -10.06454
 Alpha  occ. eigenvalues --  -10.05695 -10.05098 -10.03733  -0.81092  -0.80068
 Alpha  occ. eigenvalues --   -0.78777  -0.77489  -0.72143  -0.70292  -0.69334
 Alpha  occ. eigenvalues --   -0.68957  -0.68472  -0.65206  -0.62311  -0.58524
 Alpha  occ. eigenvalues --   -0.56871  -0.55861  -0.55147  -0.53382  -0.52059
 Alpha  occ. eigenvalues --   -0.49145  -0.47585  -0.47193  -0.46190  -0.42177
 Alpha  occ. eigenvalues --   -0.41254  -0.40949  -0.39962  -0.39043  -0.37962
 Alpha  occ. eigenvalues --   -0.36863  -0.36580  -0.36062  -0.35683  -0.34349
 Alpha  occ. eigenvalues --   -0.33180  -0.31469  -0.30979  -0.30113  -0.29903
 Alpha  occ. eigenvalues --   -0.29453  -0.28775  -0.27833  -0.27246  -0.26084
 Alpha  occ. eigenvalues --   -0.25402  -0.24312  -0.23621  -0.21447  -0.18902
 Alpha  occ. eigenvalues --   -0.18673  -0.18225  -0.17802  -0.17504  -0.16980
 Alpha  occ. eigenvalues --   -0.14775  -0.10354  -0.09953  -0.03196  -0.02258
 Alpha virt. eigenvalues --    0.07693   0.08382   0.08822   0.10034   0.12658
 Alpha virt. eigenvalues --    0.17069   0.17533   0.18668   0.19586   0.20015
 Alpha virt. eigenvalues --    0.21003   0.21290   0.21693   0.23020   0.23160
 Alpha virt. eigenvalues --    0.23420   0.24549   0.24762   0.25535   0.26181
 Alpha virt. eigenvalues --    0.26610   0.28469   0.29422   0.29766   0.30680
 Alpha virt. eigenvalues --    0.31401   0.31904   0.33683   0.35415   0.35906
 Alpha virt. eigenvalues --    0.37825   0.38432   0.38823   0.39934   0.40416
 Alpha virt. eigenvalues --    0.40517   0.40871   0.41800   0.42573   0.43427
 Alpha virt. eigenvalues --    0.44704   0.45280   0.45976   0.46939   0.48418
 Alpha virt. eigenvalues --    0.48607   0.49181   0.49495   0.50267   0.51284
 Alpha virt. eigenvalues --    0.52363   0.52647   0.53759   0.54602   0.55343
 Alpha virt. eigenvalues --    0.56552   0.57029   0.57406   0.58242   0.59175
 Alpha virt. eigenvalues --    0.59580   0.60595   0.60897   0.61306   0.62051
 Alpha virt. eigenvalues --    0.62314   0.62519   0.63238   0.64170   0.64330
 Alpha virt. eigenvalues --    0.65358   0.65989   0.66136   0.66995   0.67558
 Alpha virt. eigenvalues --    0.68513   0.68883   0.69784   0.70056   0.71426
 Alpha virt. eigenvalues --    0.72194   0.72765   0.73417   0.74311   0.74893
 Alpha virt. eigenvalues --    0.75416   0.76487   0.78149   0.78751   0.79169
 Alpha virt. eigenvalues --    0.79348   0.80077   0.80375   0.81071   0.81223
 Alpha virt. eigenvalues --    0.81525   0.81874   0.82795   0.83087   0.83570
 Alpha virt. eigenvalues --    0.84839   0.85374   0.86112   0.86751   0.86823
 Alpha virt. eigenvalues --    0.87499   0.87782   0.88079   0.88660   0.88815
 Alpha virt. eigenvalues --    0.89292   0.89930   0.90751   0.91153   0.91498
 Alpha virt. eigenvalues --    0.91576   0.92484   0.92709   0.93744   0.94453
 Alpha virt. eigenvalues --    0.94538   0.95328   0.95400   0.97647   0.98305
 Alpha virt. eigenvalues --    0.98484   0.99291   0.99960   1.00377   1.02611
 Alpha virt. eigenvalues --    1.03222   1.03747   1.05573   1.07213   1.08313
 Alpha virt. eigenvalues --    1.09927   1.11008   1.12878   1.13851   1.16488
 Alpha virt. eigenvalues --    1.18045   1.19143   1.20844   1.22903   1.24722
 Alpha virt. eigenvalues --    1.27075   1.27866   1.28943   1.29911   1.30071
 Alpha virt. eigenvalues --    1.31865   1.33949   1.34931   1.35203   1.36157
 Alpha virt. eigenvalues --    1.37033   1.37977   1.38737   1.39443   1.40176
 Alpha virt. eigenvalues --    1.40715   1.41382   1.42351   1.42789   1.43249
 Alpha virt. eigenvalues --    1.43843   1.44863   1.46119   1.46829   1.47664
 Alpha virt. eigenvalues --    1.49237   1.49685   1.51704   1.52789   1.57603
 Alpha virt. eigenvalues --    1.61059   1.63163   1.63730   1.64291   1.65369
 Alpha virt. eigenvalues --    1.65921   1.69584   1.75480   1.76503   1.77201
 Alpha virt. eigenvalues --    1.78573   1.81611   1.83050   1.84407   1.84893
 Alpha virt. eigenvalues --    1.85447   1.86043   1.86691   1.87206   1.88377
 Alpha virt. eigenvalues --    1.88706   1.89179   1.89750   1.90406   1.91741
 Alpha virt. eigenvalues --    1.91979   1.92603   1.93328   1.93490   1.94362
 Alpha virt. eigenvalues --    1.95087   1.95868   1.96972   1.97041   1.97776
 Alpha virt. eigenvalues --    1.99152   1.99437   2.00428   2.00450   2.01478
 Alpha virt. eigenvalues --    2.01903   2.02738   2.05269   2.06884   2.08415
 Alpha virt. eigenvalues --    2.09381   2.10298   2.10670   2.11643   2.13544
 Alpha virt. eigenvalues --    2.14109   2.15817   2.17326   2.18068   2.18764
 Alpha virt. eigenvalues --    2.19427   2.19618   2.20597   2.22264   2.22381
 Alpha virt. eigenvalues --    2.23963   2.24944   2.25512   2.26700   2.27427
 Alpha virt. eigenvalues --    2.29116   2.29152   2.29906   2.31871   2.32854
 Alpha virt. eigenvalues --    2.33957   2.35280   2.35899   2.36851   2.37312
 Alpha virt. eigenvalues --    2.38611   2.39303   2.40458   2.42017   2.42859
 Alpha virt. eigenvalues --    2.43552   2.44529   2.44995   2.46252   2.46325
 Alpha virt. eigenvalues --    2.47542   2.48496   2.49853   2.50738   2.53845
 Alpha virt. eigenvalues --    2.54574   2.55028   2.55712   2.55862   2.56705
 Alpha virt. eigenvalues --    2.58113   2.61089   2.61640   2.63254   2.66704
 Alpha virt. eigenvalues --    2.67269   2.69897   2.72445   2.73722   2.77311
 Alpha virt. eigenvalues --    2.78585   2.79364   2.79544   2.80519   2.81500
 Alpha virt. eigenvalues --    2.83096   2.83345   2.84274   2.85678   2.89183
 Alpha virt. eigenvalues --    2.89893   2.91334   2.92682   2.97181   2.98162
 Alpha virt. eigenvalues --    3.01672   3.02448   3.09180   3.11476   3.12266
 Alpha virt. eigenvalues --    3.13472   3.14358   3.14855   3.15999   3.16743
 Alpha virt. eigenvalues --    3.17840   3.19174   3.20505   3.21001   3.25084
 Alpha virt. eigenvalues --    3.27389   3.28800   3.29807   3.37297   3.38363
 Alpha virt. eigenvalues --    3.39319   3.41472   3.43973   3.45832   3.46915
 Alpha virt. eigenvalues --    3.49022   3.53175   3.53661   3.56029   3.56899
 Alpha virt. eigenvalues --    3.61050   3.62450   3.76265   3.79413   3.98986
 Alpha virt. eigenvalues --    4.00215   4.05717
     Molecular Orbital Coefficients:
                          76        77        78        79        80
                           O         O         O         O         O
     Eigenvalues --    -0.14775  -0.10354  -0.09953  -0.03196  -0.02258
   1 1   O  1S         -0.00061   0.01128  -0.00746   0.00760   0.00150
   2        2S         -0.00121   0.02324  -0.01506   0.01379   0.00342
   3        3S         -0.00095   0.03463  -0.02491   0.05106   0.00570
   4        4PX        -0.05270  -0.11672   0.08377   0.53484  -0.02037
   5        4PY         0.32988   0.01512   0.09668   0.06997   0.39819
   6        4PZ         0.03533   0.08704  -0.05466  -0.20599   0.03188
   7        5PX        -0.03584  -0.08869   0.06462   0.38921  -0.01852
   8        5PY         0.22351   0.00938   0.06747   0.05145   0.31805
   9        5PZ         0.02348   0.05731  -0.03607  -0.16871   0.02487
  10        6D 0       -0.00306  -0.00283   0.00138   0.00960  -0.00121
  11        6D+1        0.00149   0.00261  -0.00181  -0.00904   0.00027
  12        6D-1       -0.01494  -0.00098  -0.00383  -0.00169  -0.00949
  13        6D+2        0.00039   0.00040  -0.00058  -0.00650  -0.00038
  14        6D-2       -0.00744  -0.00082  -0.00115  -0.00047  -0.00458
  15 2   N  1S         -0.00182  -0.07703   0.04570  -0.03960  -0.00234
  16        2S         -0.00406  -0.15862   0.09247  -0.08647  -0.00484
  17        3S          0.00108  -0.21083   0.14610  -0.16114  -0.00902
  18        4PX        -0.00179  -0.16994   0.09271  -0.06355   0.00579
  19        4PY         0.04537   0.09497   0.22967  -0.00833  -0.17380
  20        4PZ         0.01076   0.36196  -0.21315   0.15271   0.00880
  21        5PX        -0.00204   0.09196  -0.04822   0.00958  -0.00785
  22        5PY        -0.02104  -0.07569  -0.17138  -0.00343   0.15708
  23        5PZ        -0.00814  -0.26883   0.15435  -0.08162  -0.00196
  24        6D 0        0.00072   0.01198  -0.00586   0.00355   0.00001
  25        6D+1       -0.00022  -0.00718   0.00336  -0.00644  -0.00008
  26        6D-1        0.00350   0.00429   0.01214  -0.00165  -0.00496
  27        6D+2        0.00011   0.00711  -0.00428   0.00473  -0.00002
  28        6D-2        0.00030   0.00049  -0.00054   0.00092   0.00301
  29 3   C  1S         -0.00361  -0.03213   0.02592   0.03220   0.00313
  30        2S          0.00758   0.07625  -0.06057  -0.08056  -0.01071
  31        3S          0.03447   0.23826  -0.21957  -0.28659   0.01765
  32        4PX        -0.00284   0.06172  -0.07386   0.09596   0.04322
  33        4PY        -0.00906   0.14120   0.18427   0.03926  -0.24538
  34        4PZ        -0.01335   0.06550  -0.01257  -0.12476  -0.03730
  35        5PX        -0.00353   0.09006  -0.09955   0.23145   0.06396
  36        5PY        -0.01030   0.09481   0.12553   0.06056  -0.25442
  37        5PZ        -0.00570   0.11614  -0.03594  -0.15807  -0.03792
  38        6D 0        0.00348  -0.00380   0.00075   0.00055  -0.00051
  39        6D+1       -0.00147   0.00186  -0.00170   0.00470   0.00065
  40        6D-1        0.01566  -0.00489  -0.00820   0.00070  -0.00105
  41        6D+2        0.00325   0.00053  -0.00080   0.00133   0.00003
  42        6D-2       -0.00279  -0.00323  -0.00657   0.00065  -0.00017
  43 4   C  1S          0.00048   0.00880  -0.00687   0.00101   0.00119
  44        2S          0.00036  -0.01903   0.01479  -0.00370  -0.00270
  45        3S         -0.02515  -0.09557   0.06432   0.16266  -0.00091
  46        4PX        -0.04084  -0.00594  -0.00681  -0.09049   0.00220
  47        4PY         0.29153   0.02916   0.04735  -0.01439  -0.06117
  48        4PZ         0.04239  -0.00405   0.00967   0.03142  -0.00237
  49        5PX        -0.02852  -0.07633   0.04371   0.12860  -0.00577
  50        5PY         0.20309   0.00710   0.04849   0.03273   0.05384
  51        5PZ         0.03309   0.03735  -0.01559  -0.17806  -0.00101
  52        6D 0        0.00397   0.00333  -0.00372  -0.02891   0.00505
  53        6D+1       -0.00185  -0.00639   0.00848   0.02784  -0.00014
  54        6D-1        0.01535  -0.00268   0.00073   0.00574   0.03224
  55        6D+2        0.00100  -0.00561  -0.00054   0.01760   0.00095
  56        6D-2        0.00279   0.00841   0.01242   0.00014   0.01377
  57 5   C  1S         -0.00122   0.00463  -0.00636  -0.04488  -0.00186
  58        2S          0.00179  -0.01454   0.01762   0.11021   0.00231
  59        3S          0.02493  -0.05620   0.05595   0.29657   0.02871
  60        4PX        -0.01702   0.00435   0.04240   0.14169   0.04023
  61        4PY         0.09686  -0.13324  -0.19710   0.03229  -0.21990
  62        4PZ         0.01055  -0.03492  -0.02440   0.05193  -0.03159
  63        5PX        -0.00691   0.01331   0.01479   0.04343   0.03212
  64        5PY         0.06280  -0.09117  -0.14196   0.01929  -0.22242
  65        5PZ         0.00230  -0.02764  -0.02091   0.03773  -0.03782
  66        6D 0        0.00171   0.00274   0.00252  -0.00297   0.00064
  67        6D+1        0.00092   0.00045  -0.00085   0.00050  -0.00068
  68        6D-1        0.00681   0.00582   0.00870   0.00020   0.00236
  69        6D+2       -0.00189   0.00015  -0.00013  -0.00106   0.00126
  70        6D-2        0.01153   0.00413   0.00636  -0.00047  -0.00332
  71 6   C  1S          0.00324  -0.00694   0.00319   0.01492   0.00014
  72        2S         -0.00708   0.01560  -0.00614  -0.03511  -0.00008
  73        3S         -0.02875   0.04822  -0.03262  -0.10892   0.00323
  74        4PX         0.01232   0.03739   0.02334  -0.03954  -0.00452
  75        4PY        -0.11850  -0.15389  -0.22313   0.01307   0.00987
  76        4PZ        -0.01120  -0.02974  -0.05326  -0.03578  -0.00492
  77        5PX         0.00016   0.02867   0.01704  -0.01030   0.00031
  78        5PY        -0.08257  -0.11829  -0.17232   0.02092  -0.00106
  79        5PZ        -0.01178  -0.02242  -0.04756  -0.05431  -0.01394
  80        6D 0        0.00459  -0.00086  -0.00285  -0.00388  -0.00757
  81        6D+1       -0.00156  -0.00012   0.00127   0.00354   0.00231
  82        6D-1        0.01052  -0.00520  -0.00775   0.00310  -0.01797
  83        6D+2        0.00240  -0.00115  -0.00069   0.00336  -0.00301
  84        6D-2       -0.00381  -0.00176  -0.00230  -0.00002   0.00105
  85 7   C  1S          0.00048  -0.00090   0.00230  -0.00051  -0.00166
  86        2S         -0.00305   0.00258  -0.00511  -0.00203   0.00678
  87        3S          0.01762  -0.04425   0.01613  -0.04033  -0.02850
  88        4PX         0.01365  -0.00065  -0.01320   0.02450  -0.01180
  89        4PY        -0.24965  -0.00148   0.01509  -0.01791   0.26096
  90        4PZ        -0.07020   0.01086   0.00026  -0.01265   0.06210
  91        5PX         0.01282  -0.00980   0.00040   0.00610  -0.01872
  92        5PY        -0.17227   0.00203   0.01203  -0.01890   0.25658
  93        5PZ        -0.03514  -0.01007   0.00586  -0.00980   0.04994
  94        6D 0       -0.00066  -0.00129  -0.00183  -0.00187  -0.00063
  95        6D+1        0.00130  -0.00050   0.00414   0.00067  -0.00032
  96        6D-1       -0.00405  -0.00402  -0.00572   0.00082  -0.00089
  97        6D+2       -0.00079  -0.00284  -0.00339   0.00143  -0.00004
  98        6D-2       -0.00624   0.00953   0.01338  -0.00066   0.00140
  99 8   C  1S          0.00113   0.00469  -0.00299  -0.01514  -0.00134
 100        2S         -0.00123  -0.00916   0.00459   0.03459   0.00256
 101        3S         -0.02016   0.04296  -0.00378   0.12182   0.02763
 102        4PX         0.01606  -0.00680   0.00161   0.00144  -0.00546
 103        4PY        -0.22108   0.15884   0.22320  -0.02067   0.04987
 104        4PZ        -0.01567  -0.02185   0.05700   0.03924   0.00355
 105        5PX         0.01211  -0.03413   0.02036  -0.02323  -0.01382
 106        5PY        -0.15165   0.11803   0.17771  -0.02202   0.03081
 107        5PZ        -0.02176   0.01506   0.03531   0.04623   0.00402
 108        6D 0        0.00047   0.00099   0.00176  -0.00340  -0.00371
 109        6D+1        0.00336  -0.00022  -0.00093   0.00491  -0.00244
 110        6D-1        0.00085   0.00454   0.00577   0.00157  -0.01159
 111        6D+2       -0.00120   0.00034   0.00000   0.00170   0.00111
 112        6D-2        0.00895   0.00275   0.00288   0.00086  -0.01656
 113 9   C  1S         -0.00104  -0.02617   0.01693  -0.01040  -0.00082
 114        2S          0.00370   0.07170  -0.04762   0.01890   0.00250
 115        3S         -0.01313  -0.07597   0.07771  -0.02184  -0.03167
 116        4PX         0.00748  -0.00660   0.02766  -0.01733   0.00046
 117        4PY        -0.05801  -0.05324  -0.09023   0.01104  -0.05045
 118        4PZ         0.00033   0.12390  -0.08703   0.03653   0.00337
 119        5PX         0.00419   0.07945  -0.06956   0.05880   0.02024
 120        5PY        -0.03766  -0.01798  -0.08028   0.01195  -0.01144
 121        5PZ        -0.00524  -0.05528   0.01350   0.04394   0.00823
 122        6D 0       -0.00022  -0.02275   0.01349  -0.00749  -0.00029
 123        6D+1        0.00053   0.01053  -0.00766   0.00767   0.00214
 124        6D-1       -0.00019  -0.00431  -0.01303   0.00073   0.00987
 125        6D+2        0.00046   0.01375  -0.00545   0.00561  -0.00221
 126        6D-2       -0.00174  -0.00899  -0.01675  -0.00008   0.01626
 127 10  C  1S         -0.00008  -0.02877   0.01931  -0.01782  -0.00165
 128        2S          0.00045   0.06301  -0.04106   0.04108   0.00432
 129        3S          0.00564   0.18781  -0.14915   0.16437   0.01902
 130        4PX        -0.00061  -0.14335   0.08929  -0.06967  -0.00375
 131        4PY         0.01249   0.01004   0.04805  -0.00727  -0.01638
 132        4PZ         0.00312   0.08043  -0.04709   0.02225   0.00309
 133        5PX         0.00315  -0.05348   0.03069  -0.04199   0.00947
 134        5PY        -0.00433   0.00735  -0.02203   0.00886   0.03388
 135        5PZ         0.00202  -0.04912   0.03381  -0.06693   0.00664
 136        6D 0       -0.00047  -0.00421  -0.00016  -0.00183   0.00144
 137        6D+1        0.00053   0.01604  -0.00961   0.00764   0.00077
 138        6D-1       -0.00053  -0.00397  -0.00142  -0.00038   0.00275
 139        6D+2       -0.00052   0.00727  -0.00745   0.00259   0.00174
 140        6D-2        0.00183   0.00541   0.01020  -0.00041  -0.00953
 141 11  C  1S          0.00250   0.02108   0.00140   0.00558  -0.00790
 142        2S         -0.00527  -0.04479  -0.00803  -0.00992   0.01981
 143        3S         -0.03298  -0.18901   0.02940  -0.08626   0.03966
 144        4PX         0.00841   0.05018   0.00403   0.00950  -0.01310
 145        4PY        -0.00404  -0.05694   0.01080  -0.01735   0.01296
 146        4PZ        -0.00820  -0.09297   0.01856  -0.02809   0.02127
 147        5PX        -0.01284  -0.02224  -0.02216   0.01441  -0.00603
 148        5PY         0.00183  -0.09289   0.07429  -0.06687  -0.00182
 149        5PZ        -0.00761  -0.06874   0.00182  -0.02793   0.03008
 150        6D 0       -0.00027   0.00100  -0.00271   0.00053   0.00124
 151        6D+1        0.00041  -0.00145   0.00135  -0.00159   0.00062
 152        6D-1       -0.00024  -0.00256   0.00077  -0.00067   0.00018
 153        6D+2        0.00035   0.00588  -0.00219   0.00254  -0.00058
 154        6D-2        0.00009  -0.00242   0.00170  -0.00177   0.00004
 155 12  H  1S         -0.00100  -0.00515   0.00551  -0.00371  -0.00037
 156        2S         -0.00258   0.02582  -0.02110  -0.13954  -0.01116
 157        3PX        -0.00077   0.00093   0.00107   0.00144   0.00116
 158        3PY         0.00389  -0.00521  -0.00774   0.00094  -0.00779
 159        3PZ         0.00054  -0.00059  -0.00138  -0.00056  -0.00138
 160 13  H  1S         -0.00392  -0.00981   0.00372   0.03794   0.00701
 161        2S         -0.00218  -0.01486   0.00759   0.06682   0.00594
 162        3PX         0.00060   0.00100   0.00108  -0.00081  -0.00038
 163        3PY        -0.00438  -0.00628  -0.00904   0.00057   0.00080
 164        3PZ        -0.00056  -0.00114  -0.00202  -0.00116   0.00031
 165 14  H  1S          0.01595  -0.01221   0.00701  -0.00332  -0.00485
 166        2S          0.01221  -0.01007   0.00573   0.00059  -0.00535
 167        3PX         0.00063   0.00032  -0.00041   0.00064  -0.00061
 168        3PY        -0.00969   0.00006   0.00058  -0.00088   0.01179
 169        3PZ        -0.00228   0.00015   0.00011  -0.00025   0.00265
 170 15  H  1S         -0.01051   0.02146  -0.00643  -0.03419   0.00180
 171        2S         -0.00798   0.01429  -0.00129  -0.05178  -0.00632
 172        3PX         0.00053  -0.00185   0.00079   0.00001   0.00027
 173        3PY        -0.00855   0.00612   0.00910  -0.00079   0.00261
 174        3PZ        -0.00082   0.00021   0.00159   0.00071   0.00032
 175 16  H  1S         -0.00323  -0.13571   0.09400  -0.06009  -0.01333
 176        2S         -0.00088  -0.18830   0.10776  -0.07304   0.00334
 177        3PX         0.00036   0.00136   0.00051  -0.00162  -0.00033
 178        3PY        -0.00268  -0.00129  -0.00309   0.00061  -0.00357
 179        3PZ        -0.00001   0.00167  -0.00151   0.00065   0.00015
 180 17  H  1S         -0.00106   0.07008  -0.06272   0.03221   0.01386
 181        2S         -0.00520   0.03336  -0.03338   0.03092   0.00505
 182        3PX         0.00002  -0.00292   0.00160  -0.00156   0.00034
 183        3PY         0.00071   0.00116   0.00175   0.00002  -0.00123
 184        3PZ         0.00028   0.00152   0.00011   0.00072  -0.00028
 185 18  H  1S         -0.00327  -0.02621   0.00664  -0.01052   0.00212
 186        2S          0.00573  -0.03946   0.06773  -0.03667  -0.02752
 187        3PX         0.00017   0.00030  -0.00031  -0.00032   0.00080
 188        3PY        -0.00052  -0.00179  -0.00046  -0.00002   0.00041
 189        3PZ        -0.00010  -0.00182   0.00133  -0.00063  -0.00049
 190 19  H  1S          0.00021   0.02474  -0.02016   0.00795   0.00204
 191        2S          0.00453   0.04024  -0.04567   0.01575   0.01920
 192        3PX         0.00064   0.00418  -0.00042   0.00136  -0.00054
 193        3PY        -0.00032  -0.00162  -0.00071  -0.00018   0.00081
 194        3PZ        -0.00025  -0.00240  -0.00036  -0.00072   0.00083
 195 20  C  1S         -0.00155  -0.01177   0.00046  -0.00419   0.00270
 196        2S          0.00385   0.02492   0.00171   0.00896  -0.00760
 197        3S          0.01563   0.09759   0.00184   0.02144  -0.01324
 198        4PX        -0.00683  -0.05009   0.00185  -0.01554   0.01141
 199        4PY         0.00342   0.01942  -0.00324   0.00236  -0.00024
 200        4PZ         0.00618   0.01520   0.00038  -0.00614   0.00381
 201        5PX        -0.02036  -0.07444  -0.01601  -0.00987   0.00864
 202        5PY         0.00602   0.04453  -0.01751   0.01954  -0.00117
 203        5PZ         0.00284   0.00088  -0.00001  -0.01180   0.00864
 204        6D 0       -0.00009   0.00060  -0.00062   0.00053  -0.00002
 205        6D+1        0.00058   0.00546  -0.00097   0.00173  -0.00130
 206        6D-1       -0.00008  -0.00109   0.00030  -0.00047   0.00015
 207        6D+2        0.00033   0.00220  -0.00045   0.00057   0.00002
 208        6D-2        0.00004   0.00191  -0.00064   0.00098  -0.00053
[...]
 610975,0.00004367,0.00006744,0.00001275,0.00028927,-0.00016284,-0.0007
 4822,0.00009391,-0.00008532,-0.00003655,0.00000316,-0.00008265,-0.0000
 3350,-0.00002591,0.00005481,0.00002570,-0.00003248,-0.00008977,-0.0000
 4511,0.00013365,-0.00002129,-0.00002213,-0.00003647,0.00012545,0.00006
 112,-0.00017611,0.00044941,0.00004182,0.00052411,-0.00009504,0.0006285
 8,0.01401963,-0.00457429,0.01501741,0.00000593,0.00000327,0.00000105,0
 .00000579,-0.00000539,-0.00000354,0.00000751,-0.00000969,-0.00000610,-
 0.00000742,0.00000700,0.00001676,0.00001735,0.00001300,0.00011377,-0.0
 0020253,0.00013107,-0.00005150,0.00370968,-0.00153114,-0.00256999,-0.0
 0005916,0.00026226,0.00101120,-0.13329299,0.03239931,-0.19565859,-0.03
 213342,0.00721932,-0.02530659,0.00244109,-0.00003028,-0.00113186,0.028
 52554,-0.01264113,-0.02785831,0.00072776,-0.00112826,-0.00666500,0.000
 09331,0.00018621,0.00086167,-0.00120702,-0.00036162,-0.00651520,0.0007
 9906,-0.00028304,0.00025672,-0.00013682,0.00007036,0.00007313,-0.00026
 942,-0.00014861,0.00000656,-0.00006387,0.00008881,-0.00010119,0.000003
 91,0.00007781,-0.00007180,-0.00029402,0.00016942,-0.00007541,0.0001641
 9,-0.00008128,0.00001030,0.00001976,0.00000980,-0.00004659,0.00000660,
 -0.00000485,0.00001211,0.14526794,-0.05863807,-0.20956502,-0.00126812,
 0.06258524,1.18804385,-0.00001982,-0.00002215,-0.00000498,-0.00008603,
 0.00002339,0.00017396,-0.00005016,0.00004585,0.00001398,0.00000211,0.0
 0001923,0.00000779,0.00000937,-0.00001786,-0.00000370,0.00001511,0.000
 03175,0.00001603,-0.00005068,0.00001252,0.00001100,0.00001501,-0.00005
 088,-0.00002489,0.00007354,-0.00013225,-0.00003189,0.00005087,0.000167
 55,-0.00014344,-0.00060523,0.00017203,-0.00105595,-0.00000193,-0.00000
 135,-0.00000143,-0.00000264,0.00000284,0.00000062,-0.00000253,0.000003
 61,0.00000229,0.00000337,-0.00000180,-0.00000519,0.00000708,-0.0000064
 8,-0.00001312,-0.00000114,-0.00002035,0.00001354,-0.00033713,0.0000630
 0,0.00027092,0.00007094,-0.00001177,-0.00000864,-0.00196029,0.00380988
 ,0.00344815,0.00008878,-0.00030794,0.00109706,0.00234411,0.00191028,0.
 00056375,0.00636079,-0.00002146,0.00658616,-0.00016007,-0.00037819,-0.
 00001887,0.00020377,0.00005594,0.00020264,0.00003285,-0.00182730,-0.00
 062301,-0.00010633,0.00003591,-0.00008840,0.00004592,-0.00000510,0.000
 00074,0.00000491,0.00002120,-0.00001583,0.00006932,-0.00000803,0.00003
 126,0.00004912,-0.00003222,-0.00002460,0.00003476,-0.00000479,0.000005
 73,-0.00000833,-0.00001438,-0.00002126,-0.00000506,0.00000044,0.000012
 51,-0.00000762,-0.00000447,0.00001632,-0.47943349,0.13231159,-0.283208
 54,-0.01611886,0.00573831,-0.01731786,0.48848013,0.00000077,-0.0000035
 7,-0.00000364,0.00003150,-0.00006901,-0.00002686,0.00001276,-0.0000145
 7,-0.00001438,-0.00000085,0.00000124,0.00000112,-0.00000161,0.00000131
 ,0.00000437,-0.00000271,-0.00000797,-0.00000446,0.00001460,-0.00000787
 ,-0.00000170,-0.00000280,0.00001850,0.00000729,-0.00000930,0.00003934,
 0.00001077,-0.00010603,0.00003015,0.00007511,0.00014265,-0.00006154,0.
 00041347,0.00000033,0.00000035,-0.00000008,0.00000083,-0.00000013,-0.0
 0000113,0.00000140,-0.00000178,-0.00000133,-0.00000243,0.00000133,-0.0
 0000008,-0.00000142,0.00000327,0.00001119,-0.00000901,-0.00000179,-0.0
 0001908,0.00002581,-0.00018807,-0.00006084,0.00004526,-0.00003356,-0.0
 0005699,0.00400652,0.00770586,-0.00196614,-0.00034950,-0.00089086,-0.0
 0042911,0.00172781,0.00769288,-0.00090790,-0.00122475,0.00690972,-0.00
 239888,-0.00038225,-0.00127818,0.00009899,-0.00004361,0.00031317,-0.00
 012203,-0.00199328,-0.00538605,0.00075165,-0.00004181,-0.00000378,0.00
 005947,-0.00003391,-0.00002534,0.00000381,-0.00001841,-0.00000439,-0.0
 0001000,0.00001093,0.00000187,0.00000602,0.00002728,-0.00000313,-0.000
 00663,-0.00000126,0.00001584,-0.00002669,0.00000838,-0.00000121,0.0000
 0578,0.00000630,-0.00000222,-0.00001104,-0.00000212,0.00000415,-0.0000
 0070,0.13008709,-0.02481107,0.07306750,0.00975035,0.00523480,0.0063144
 1,-0.13926159,0.01053107,-0.00000641,-0.00000039,-0.00000157,0.0000137
 5,0.00001806,-0.00004941,-0.00001104,0.00000776,0.00000601,0.00000096,
 -0.00000041,-0.00000069,0.00000051,-0.00000103,-0.00000097,0.00000325,
 0.00000527,0.00000262,-0.00001005,0.00000413,0.00000043,0.00000431,-0.
 00001014,-0.00000558,0.00002032,0.00000995,-0.00001209,-0.00003472,-0.
 00002027,0.00005081,0.00066513,-0.00020517,0.00075236,-0.00000038,-0.0
 0000077,-0.00000033,-0.00000098,0.00000067,0.00000061,-0.00000002,0.00
 000045,0.00000088,0.00000057,-0.00000107,0.00000080,-0.00000400,0.0000
 0002,0.00000939,0.00000748,0.00000779,-0.00001251,0.00022031,-0.000064
 26,-0.00015799,-0.00008025,-0.00000233,0.00000091,0.00363008,-0.001961
 22,-0.00127047,0.00102104,-0.00032066,-0.00070889,0.00079796,-0.001061
 89,-0.00677619,-0.03137516,0.00834595,-0.00970258,-0.00001527,0.000100
 53,0.00002911,-0.00154854,0.00044932,-0.00059354,0.00076555,0.00033842
 ,0.00215649,0.00004154,-0.00000635,0.00004103,-0.00003899,-0.00002720,
 0.00002486,-0.00002887,-0.00001780,-0.00000427,-0.00004177,0.00000316,
 -0.00001616,-0.00002412,0.00002053,0.00001775,-0.00000905,0.00002254,-
 0.00000271,0.00001080,0.00000266,0.00000263,0.00000843,-0.00000108,-0.
 00001031,0.00000808,0.00000288,-0.00000830,-0.28326256,0.07436916,-0.1
 8321877,0.02014959,-0.00608286,0.01372865,0.29010843,-0.07483561,0.184
 79244,0.00004912,0.00003204,0.00001696,-0.00000681,-0.00021606,0.00014
 611,0.00009201,-0.00006338,-0.00007685,-0.00000463,-0.00002959,-0.0000
 0764,-0.00001526,0.00002072,0.00002965,-0.00002717,-0.00006006,-0.0000
 3335,0.00009814,-0.00003208,-0.00000700,-0.00002717,0.00009792,0.00004
 568,-0.00013606,0.00013945,0.00009878,-0.00078806,0.00019131,-0.000239
 92,0.00108455,-0.00192865,0.00071492,0.00000423,0.00000437,0.00000020,
 0.00000585,-0.00000306,-0.00000647,0.00000476,-0.00000714,-0.00000493,
 -0.00000691,0.00000967,-0.00000017,-0.00001115,-0.00000680,0.00003065,
 0.00001234,0.00002573,0.00000364,0.00036597,-0.00000664,-0.00003892,-0
 .00020555,0.00035809,-0.00007993,0.00406870,-0.00136576,-0.03239254,-0
 .00453545,0.00372679,-0.00313489,-0.00133846,0.00014586,0.00006538,-0.
 00371601,0.00435815,0.00239808,0.00019184,-0.00019913,-0.00164241,-0.0
 0007844,-0.00046973,0.00002227,0.00024696,0.00008161,0.00148339,-0.000
 87137,-0.00032236,0.00036465,-0.00007772,0.00023465,0.00036075,0.00004
 799,-0.00020868,0.00020015,-0.00012665,0.00022374,0.00000078,-0.000091
 95,0.00008116,-0.00010904,-0.00002746,-0.00038422,0.00017887,-0.000040
 07,0.00004226,0.00005473,0.00001577,-0.00001634,-0.00005063,0.00001132
 ,0.00003317,-0.00005962,0.00563822,0.00189923,0.03111686,0.00052548,0.
 00690789,-0.01030544,0.00103713,-0.00238018,-0.00099614,-0.00138110,0.
 00000153,-0.00003227,-0.00002123,-0.00012482,-0.00013717,0.00022291,-0
 .00003627,0.00002022,-0.00002298,0.00000255,0.00002651,0.00002273,0.00
 000715,-0.00001599,-0.00000112,0.00001093,0.00001563,0.00000600,-0.000
 01909,-0.00000716,0.00000329,0.00001406,-0.00000274,-0.00000901,0.0000
 1993,-0.00004812,0.00001976,-0.00031515,0.00047180,-0.00001023,-0.0020
 3493,-0.00319794,0.00068911,-0.00000100,-0.00000067,0.00000004,-0.0000
 0089,0.00000122,-0.00000104,0.00000099,-0.00000093,-0.00000027,-0.0000
 0301,-0.00000129,-0.00000347,0.00001819,-0.00000700,0.00000962,-0.0001
 0522,0.00003299,0.00001733,-0.00005955,-0.00031950,-0.00016855,0.00050
 131,-0.00050405,-0.00060990,0.00083565,0.00633882,0.00842200,0.0035768
 7,0.00728750,0.00061181,0.00027853,-0.00109112,0.00036500,0.00461862,0
 .00744586,-0.00147130,-0.00008033,0.00000796,0.00046170,-0.00046485,-0
 .00143597,0.00005516,-0.00002296,0.00028734,-0.00061081,-0.00033477,0.
 00013232,0.00029632,-0.00010271,0.00007168,0.00032143,-0.00017739,0.00
 007796,-0.00022614,0.00006606,-0.00003570,0.00006160,0.00024354,-0.000
 18576,0.00001352,-0.00012632,-0.00017065,-0.00007545,0.00016243,-0.000
 08852,-0.00010993,0.00001882,0.00001085,-0.00005993,-0.00001099,-0.000
 01612,0.00000042,-0.00014063,0.00599811,-0.01216344,0.00712223,0.01711
 869,-0.03014871,-0.00228118,-0.00569035,0.00090700,-0.01096272,-0.0323
 0268,-0.00000610,-0.00000046,-0.00000091,-0.00006128,0.00006066,-0.000
 04597,-0.00000771,0.00001262,0.00001696,-0.00000088,-0.00000161,-0.000
 00031,0.00000432,-0.00000132,-0.00000569,0.00000450,0.00000976,0.00000
 497,-0.00001621,0.00000820,-0.00000027,0.00000287,-0.00001873,-0.00000
 862,0.00001491,-0.00008685,-0.00005808,-0.00032654,-0.00001698,0.00021
 247,0.00116189,-0.00014652,0.00032468,-0.00000016,-0.00000094,0.000000
 38,-0.00000063,0.00000023,0.00000160,-0.00000088,0.00000092,0.00000134
 ,0.00000176,-0.00000084,0.00000197,0.00001226,0.00000643,-0.00002261,-
 0.00002371,0.00001285,-0.00003822,0.00015045,0.00004568,-0.00005032,-0
 .00048988,0.00010962,0.00023032,0.00440917,-0.00116416,-0.00780090,-0.
 00249681,0.00036092,0.00020605,-0.00022084,0.00031403,0.00098580,0.002
 45878,-0.00123280,0.00088218,0.00017232,-0.00008507,-0.00046310,0.0000
 1825,0.00002200,-0.00004929,-0.00021396,0.00000308,-0.00040959,0.00121
 943,0.00063065,-0.00073563,0.00106606,-0.00004007,-0.00061508,-0.00006
 652,-0.00018250,-0.00000275,-0.00027043,0.00016723,-0.00000782,-0.0000
 0376,-0.00007366,0.00011608,0.00054935,-0.00017100,-0.00016996,-0.0000
 8063,0.00003004,0.00004688,0.00001740,-0.00000062,-0.00001439,0.000009
 32,-0.00000844,0.00000652,-0.00557124,0.00233486,-0.00664224,-0.013200
 99,-0.03406629,-0.74344723,0.00000872,0.00005902,0.00094231,0.01188415
 ,0.03317305,0.75658447,-0.00002056,-0.00009221,-0.00000719,0.00008747,
 0.00012596,-0.00001698,-0.00010963,0.00005980,0.00007739,0.00000909,0.
 00007584,0.00002738,0.00002627,-0.00003202,-0.00002497,0.00003077,0.00
 005565,0.00003314,-0.00008292,0.00001794,0.00001112,0.00002068,-0.0000
 8067,-0.00003082,0.00008879,-0.00007547,-0.00002718,-0.00005766,0.0007
 2209,0.00017445,-0.00016227,0.00009964,-0.00019908,-0.00000314,-0.0000
 0147,-0.00000241,-0.00000199,0.00000259,0.00000313,-0.00000363,0.00000
 528,-0.00000138,0.00000424,-0.00000185,-0.00000228,-0.00001488,0.00001
 695,-0.00007148,0.00002800,-0.00002866,0.00005352,0.00003492,0.0000404
 3,-0.00007884,-0.00002418,-0.00003390,-0.00001341,0.00000324,-0.000000
 43,0.00001443,0.00000005,0.00000007,-0.00000175,0.00000355,-0.00000494
 ,-0.00000527,-0.00000557,0.00000391,-0.00000517,-0.00000235,0.00000283
 ,0.00000280,0.00000044,0.00000050,-0.00000426,0.00000202,-0.00000128,0
 .00000155,0.00438438,0.00143594,-0.00636248,-0.00116132,-0.00062081,-0
 .00022650,0.00609931,-0.00097452,-0.00523364,0.00822487,-0.01301797,-0
 .00005901,-0.02302213,0.16032736,-0.03126993,0.00276922,0.01873993,-0.
 00236606,-0.00107781,-0.00012415,0.00066973,0.00040607,-0.00053919,-0.
 00001090,-0.00440085,-0.00013873,0.00373391,0.00000769,0.00000808,0.00
 001291,-0.00000012,0.00002192,-0.00001606,-0.00001305,-0.00000902,0.00
 000655,0.00000861,-0.00003065,-0.00001899,0.01143599,0.00002413,0.0000
 3979,0.00000835,0.00007968,-0.00014355,0.00002361,0.00006786,-0.000052
 90,-0.00005340,-0.00000325,-0.00003526,-0.00001123,-0.00001479,0.00002
 080,0.00001669,-0.00002162,-0.00004257,-0.00002422,0.00006695,-0.00001
 656,-0.00000595,-0.00001949,0.00006278,0.00002820,-0.00007223,0.000136
 96,0.00008285,-0.00020073,-0.00008856,-0.00027789,0.00008114,-0.000017
 01,0.00006628,0.00000242,0.00000232,0.00000166,0.00000327,-0.00000259,
 -0.00000295,0.00000225,-0.00000394,-0.00000180,-0.00000303,0.00000446,
 0.00000040,-0.00001145,-0.00000517,0.00000962,-0.00000912,0.00000295,-
 0.00001833,-0.00002375,-0.00002827,0.00002214,-0.00001203,0.00000767,-
 0.00001783,0.00007003,-0.00002419,-0.00003753,-0.00002040,0.00001220,0
 .00000475,0.00000328,0.00000064,0.00000069,-0.00002012,0.00001285,0.00
 001423,0.00000126,-0.00000113,-0.00000536,-0.00000306,-0.00000030,0.00
 000219,-0.00000147,-0.00000143,0.00000413,0.00135529,0.00155714,0.0006
 4685,-0.00038858,0.00082384,-0.00018251,-0.00097003,-0.00077696,-0.004
 18966,0.00803065,-0.01271503,0.00872532,0.15898781,-0.68536967,0.08762
 761,-0.00085701,-0.00137737,-0.00384839,-0.00013485,-0.00006782,0.0001
 2896,0.00035463,-0.00076104,0.00035474,-0.00088399,0.00119329,0.000531
 59,0.00001787,0.00000580,0.00000151,-0.00002629,0.00002054,-0.00001396
 ,-0.00001715,-0.00000933,0.00000397,0.00002433,-0.00001314,-0.00000993
 ,-0.16480966,0.69701982,-0.00001426,-0.00003019,-0.00001435,-0.0002162
 7,0.00015575,-0.00007955,-0.00003274,0.00004231,0.00004481,-0.00000516
 ,0.00003300,0.00000837,0.00001582,-0.00002009,-0.00001028,0.00001212,0
 .00003298,0.00001626,-0.00004516,0.00000796,0.00000234,0.00000610,-0.0
 0003711,-0.00002166,0.00002126,-0.00018767,-0.00008992,0.00025751,0.00
 102936,0.00012696,-0.00021788,0.00003938,-0.00020771,-0.00000119,-0.00
 000105,-0.00000014,-0.00000088,0.00000127,0.00000142,-0.00000243,0.000
 00164,0.00000318,0.00000319,-0.00000138,-0.00000234,0.00003592,0.00000
 553,0.00001738,0.00003333,-0.00004827,0.00004213,0.00005146,0.00007886
 ,-0.00005414,0.00002442,-0.00000929,0.00004028,-0.00011721,0.00004778,
 0.00006343,0.00002767,-0.00002536,-0.00001801,-0.00000949,-0.00000311,
 -0.00000010,0.00002735,-0.00002351,-0.00001966,-0.00000059,0.00000555,
 0.00000868,0.00000469,0.00000220,-0.00000264,0.00000296,0.00000507,-0.
 00000338,-0.00645126,0.00073241,-0.00257262,-0.00009539,-0.00038279,-0
 .00132369,-0.00521492,-0.00382094,-0.00042216,0.00508582,-0.02566499,0
 .00897413,-0.03100664,0.08800149,-0.01001136,-0.00775091,0.03032187,0.
 00167532,0.00067851,0.00012999,-0.00036586,0.00015057,-0.00111760,0.00
 042759,0.00351589,0.00156908,-0.00055865,-0.00000093,-0.00002132,0.000
 00222,0.00004057,-0.00003487,0.00000161,0.00002384,0.00001435,-0.00000
 448,-0.00002967,0.00002560,0.00000033,0.03783601,-0.09020418,0.0044176
 4,0.00000719,-0.00015030,0.00000121,-0.00037952,0.00044081,-0.00041491
 ,-0.00005644,-0.00000255,0.00016167,0.00000185,0.00012200,0.00002245,0
 .00003129,-0.00003415,-0.00004121,0.00002346,0.00003915,0.00003134,-0.
 00004716,0.00000171,-0.00000559,0.00000381,-0.00003703,0.00001090,-0.0
 0011662,-0.00012258,-0.00017171,-0.00346445,-0.00009904,0.00292077,0.0
 0055198,-0.00042528,0.00043860,-0.00000166,0.00000078,-0.00000151,0.00
 000125,-0.00000139,0.00000345,-0.00000262,0.00000497,-0.00000752,0.000
 00187,-0.00000148,-0.00000054,0.00003202,0.00006556,-0.00008696,0.0003
 0312,-0.00019686,-0.00008561,-0.00014674,-0.00015900,0.00011928,-0.000
 03854,0.00000348,0.00001131,0.00025579,-0.00003648,-0.00011979,-0.0000
 5549,0.00003623,0.00008832,0.00004781,-0.00001100,-0.00002091,-0.00005
 766,0.00003071,0.00000236,-0.00000095,-0.00000513,-0.00001932,-0.00000
 343,-0.00000030,0.00000038,-0.00000402,-0.00001106,-0.00000126,0.00789
 780,0.00968076,0.00461825,0.00574128,0.00271185,-0.00369019,-0.0007272
 1,0.00020941,0.00047010,0.00441316,0.00251234,-0.00590042,0.00137493,-
 0.01320292,-0.01115437,-0.05399070,-0.15015228,-0.15030817,0.00009575,
 0.00037332,0.00033386,-0.00101179,-0.00017019,0.00061661,0.00003048,-0
 .00058316,-0.00063264,-0.00005210,0.00010425,0.00002730,0.00004087,0.0
 0007155,-0.00005773,-0.00002860,-0.00002273,0.00000367,0.00000447,-0.0
 0006398,-0.00008779,-0.00351161,-0.00064875,0.00335797,0.04283715,-0.0
 0003610,0.00004073,0.00001473,0.00001210,0.00049932,0.00006301,-0.0000
 1597,0.00010827,0.00004762,0.00000033,-0.00004252,-0.00001902,0.000004
 08,0.00000031,0.00000715,0.00000526,0.00002157,0.00001042,-0.00003936,
 0.00002413,0.00001697,-0.00000763,-0.00005429,-0.00002407,-0.00007782,
 -0.00019498,-0.00002876,-0.00181123,0.00100933,-0.00212538,0.00006936,
 0.00021046,0.00027457,-0.00000047,-0.00000161,-0.00000203,-0.00000168,
 0.00000327,0.00000045,-0.00000389,0.00000426,0.00000292,0.00000743,0.0
 0000690,-0.00000355,0.00003427,0.00008191,0.00000902,0.00050984,0.0001
 5977,0.00128892,-0.00003042,-0.00003260,0.00003075,0.00004762,0.000169
 68,-0.00012612,0.00005974,-0.00002322,0.00001334,0.00001082,0.00003217
 ,0.00004832,0.00001745,-0.00000332,0.00000678,-0.00000280,-0.00000109,
 -0.00002796,-0.00000388,-0.00001207,0.00000428,0.00000089,-0.00000096,
 -0.00000499,0.00000269,-0.00000334,-0.00000232,-0.01084097,-0.01536917
 ,-0.02254219,0.00251831,-0.00568961,0.00105037,0.00059071,-0.00052624,
 0.00115812,0.00228347,0.00060859,0.00224598,0.00604291,0.01255088,0.01
 209162,-0.14752956,-0.35345417,-0.32437856,-0.00056534,-0.00081979,-0.
 00122750,-0.00016564,-0.00001381,0.00003739,0.00032017,0.00055115,0.00
 056515,-0.00004030,0.00005048,0.00005546,0.00002413,0.00004898,-0.0000
 9716,0.00000339,-0.00000909,0.00000029,0.00002446,-0.00004061,-0.00005
 306,-0.00114510,0.00062996,-0.00064971,0.14972874,0.35948034,0.0000251
 9,0.00013016,-0.00000418,0.00054737,-0.00058280,-0.00001793,0.00013345
 ,-0.00010494,-0.00014793,-0.00000462,-0.00011239,-0.00002865,-0.000042
 61,0.00004836,0.00004135,-0.00004454,-0.00008404,-0.00005140,0.0001237
 8,-0.00002499,-0.00001203,-0.00002497,0.00011419,0.00004368,-0.0000490
 9,0.00031458,0.00017485,0.00199946,0.00211903,-0.00048806,-0.00040795,
 0.00013483,-0.00036694,0.00000337,0.00000208,0.00000399,0.00000261,-0.
 00000324,-0.00000504,0.00000516,-0.00000698,0.00000018,-0.00000656,0.0
 0000132,0.00000448,-0.00003410,-0.00006891,0.00007098,0.00013392,-0.00
 038640,0.00015306,0.00009627,0.00012081,-0.00003649,-0.00005641,-0.000
 02768,0.00005050,-0.00001891,-0.00004646,0.00002042,-0.00000739,-0.000
 01841,-0.00002736,-0.00001065,-0.00000213,-0.00000156,0.00000292,-0.00
 000132,0.00001439,0.00000242,0.00000998,-0.00000421,-0.00000017,0.0000
 0171,0.00000278,-0.00000179,0.00000315,0.00000304,0.00021505,0.0075626
 7,0.00876535,-0.00355438,0.00149472,0.00281152,0.00036327,0.00106474,-
 0.00022532,-0.00627465,0.00224312,-0.00165853,-0.00724592,-0.02168266,
 -0.01035909,-0.14907813,-0.32445154,-0.30006020,0.00016992,0.00039750,
 0.00034715,0.00058306,0.00004775,-0.00038978,-0.00048745,-0.00105670,-
 0.00066419,0.00001948,-0.00003394,-0.00001865,-0.00003783,0.00000817,0
 .00003464,-0.00000383,0.00000099,-0.00000226,-0.00000114,0.00000812,0.
 00002365,0.00339802,0.00059881,-0.00009140,0.15956835,0.33226873,0.302
 09518\\0.00383589,-0.06365896,-0.02669250,-0.02235797,0.02441185,0.015
 91227,-0.02784222,-0.01158276,-0.00516126,-0.01913859,0.10928056,0.046
 73335,-0.08291470,-0.06520028,-0.03077972,-0.11174027,0.05157681,0.022
 35226,-0.00749682,0.09575414,0.06186221,0.13165397,0.07303443,0.020635
 19,0.12032693,0.08387558,0.02737181,0.01929702,-0.09943220,-0.11461763
 ,-0.08067733,0.14484933,0.00696646,0.12236587,0.06307596,0.03200498,0.
 11999061,-0.06510478,-0.03380711,-0.00187561,-0.12411563,-0.06861714,-
 0.12794229,-0.06569281,-0.02336177,-0.11836405,-0.09757321,-0.02913229
 ,0.01237108,0.12290977,0.08290898,0.09696148,-0.05121331,0.09801970,-0
 .04120062,-0.11397375,-0.08954789,0.01886708,-0.01408830,-0.01529191,-
 0.09008552,0.02922905,-0.06411991,0.01383396,-0.01270846,-0.08699456,0
 .08878212,-0.02840890,-0.07706291,0.10618706,-0.02977277,0.06401277,0.
 00361477,0.00583636,0.12217146,-0.11900414,0.04273266,0.07319672,0.022
 34440,-0.00734475,0.04806392,-0.02811348,0.06092348,-0.02912211,0.0482
 3121,0.06859685,0.08806859,0.01566202,-0.02159143,0.02458584,0.0478714
 4,-0.09592662,0.05731752,-0.04097243,-0.05979674,-0.08734297,0.0227385
 4,-0.09890566,0.01552129,-0.04019656,-0.09270317,-0.08755514,-0.050686
 69,0.02558338,-0.07770602,0.08161193,-0.02913657,0.04231392,0.00818834
 ,0.01073898,0.12555240,-0.09769346,0.02745023,-0.05745915,-0.00399874,
 -0.00642236,-0.13474759,-0.03007397,0.12672186,-0.02023442,0.03763974,
 0.08777213,0.08378237\\\@
 The archive entry for this job was punched.

 Writing a WFNX file to "TEHYUB_Complex_3_Ligand_1_ON_Cu_oriented.wfx"


 A successful marriage requires falling in love
 many times, always with the same person.
                           -- Mignon McLaughlin
 Job cpu time:       0 days  1 hours 30 minutes  6.6 seconds.
 Elapsed time:       0 days  1 hours 30 minutes 25.9 seconds.
 File lengths (MBytes):  RWF=   1088 Int=      0 D2E=      0 Chk=     16 Scr=      8
 Normal termination of Gaussian 16 at Mon Mar  6 11:52:06 2023.
