 Entering Gaussian System, Link 0=g16
 Initial command:
 /ssoft/spack/external/gaussian/g16-C.01/avx2/g16/l1.exe "/scratch/lcmd/2387835/Gau-3436061.inp" -scrdir="/scratch/lcmd/2387835/"
 Entering Link 1 = /ssoft/spack/external/gaussian/g16-C.01/avx2/g16/l1.exe PID=   3436068.
  
 Copyright (c) 1988-2019, Gaussian, Inc.  All Rights Reserved.
  
 This is part of the Gaussian(R) 16 program.  It is based on
 the Gaussian(R) 09 system (copyright 2009, Gaussian, Inc.),
 the Gaussian(R) 03 system (copyright 2003, Gaussian, Inc.),
 the Gaussian(R) 98 system (copyright 1998, Gaussian, Inc.),
 the Gaussian(R) 94 system (copyright 1995, Gaussian, Inc.),
 the Gaussian 92(TM) system (copyright 1992, Gaussian, Inc.),
 the Gaussian 90(TM) system (copyright 1990, Gaussian, Inc.),
 the Gaussian 88(TM) system (copyright 1988, Gaussian, Inc.),
 the Gaussian 86(TM) system (copyright 1986, Carnegie Mellon
 University), and the Gaussian 82(TM) system (copyright 1983,
 Carnegie Mellon University). Gaussian is a federally registered
 trademark of Gaussian, Inc.
  
 This software contains proprietary and confidential information,
 including trade secrets, belonging to Gaussian, Inc.
  
 This software is provided under written license and may be
 used, copied, transmitted, or stored only in accord with that
 written license.
  
 The following legend is applicable only to US Government
 contracts under FAR:
  
                    RESTRICTED RIGHTS LEGEND
  
 Use, reproduction and disclosure by the US Government is
 subject to restrictions as set forth in subparagraphs (a)
 and (c) of the Commercial Computer Software - Restricted
 Rights clause in FAR 52.227-19.
  
 Gaussian, Inc.
 340 Quinnipiac St., Bldg. 40, Wallingford CT 06492
  
  
 ---------------------------------------------------------------
 Warning -- This program may not be used in any manner that
 competes with the business of Gaussian, Inc. or will provide
 assistance to any competitor of Gaussian, Inc.  The licensee
 of this program is prohibited from giving any competitor of
 Gaussian, Inc. access to this program.  By using this program,
 the user acknowledges that Gaussian, Inc. is engaged in the
 business of creating and licensing software in the field of
 computational chemistry and represents and warrants to the
 licensee that it is not a competitor of Gaussian, Inc. and that
 it will not use this program in any manner prohibited above.
 ---------------------------------------------------------------
  

 Cite this work as:
 Gaussian 16, Revision C.01,
 M. J. Frisch, G. W. Trucks, H. B. Schlegel, G. E. Scuseria, 
 M. A. Robb, J. R. Cheeseman, G. Scalmani, V. Barone, 
 G. A. Petersson, H. Nakatsuji, X. Li, M. Caricato, A. V. Marenich, 
 J. Bloino, B. G. Janesko, R. Gomperts, B. Mennucci, H. P. Hratchian, 
 J. V. Ortiz, A. F. Izmaylov, J. L. Sonnenberg, D. Williams-Young, 
 F. Ding, F. Lipparini, F. Egidi, J. Goings, B. Peng, A. Petrone, 
 T. Henderson, D. Ranasinghe, V. G. Zakrzewski, J. Gao, N. Rega, 
 G. Zheng, W. Liang, M. Hada, M. Ehara, K. Toyota, R. Fukuda, 
 J. Hasegawa, M. Ishida, T. Nakajima, Y. Honda, O. Kitao, H. Nakai, 
 T. Vreven, K. Throssell, J. A. Montgomery, Jr., J. E. Peralta, 
 F. Ogliaro, M. J. Bearpark, J. J. Heyd, E. N. Brothers, K. N. Kudin, 
 V. N. Staroverov, T. A. Keith, R. Kobayashi, J. Normand, 
 K. Raghavachari, A. P. Rendell, J. C. Burant, S. S. Iyengar, 
 J. Tomasi, M. Cossi, J. M. Millam, M. Klene, C. Adamo, R. Cammi, 
 J. W. Ochterski, R. L. Martin, K. Morokuma, O. Farkas, 
 J. B. Foresman, and D. J. Fox, Gaussian, Inc., Wallingford CT, 2019.
 
 ******************************************
 Gaussian 16:  ES64L-G16RevC.01  3-Jul-2019
                 6-Mar-2023 
 ******************************************
 %nprocshared=1
 Will use up to    1 processors via shared memory.
 %mem=8000MB
 %chk=TIFSOS_Complex_0_Ligand_1_ON_Cu_oriented.chk
 ----------------------------------------------------------------------
 #p pop=(regular,nbo,savenbos) freq=noraman def2svp empiricaldispersion
 =gd3bj output=wfx pbe1pbe
 ----------------------------------------------------------------------
 1/10=4,30=1,38=1/1,3;
 2/12=2,17=6,18=5,40=1/2;
 3/5=43,7=101,11=2,25=1,30=1,71=2,74=-13,124=41,140=1/1,2,3;
 4//1;
 5/5=2,38=5,98=1/2;
 8/6=4,10=90,11=11/1;
 11/6=1,8=1,9=11,15=111,16=1/1,2,10;
 10/6=1/2;
 6/28=1,40=1,73=1/1,7;
 7/8=1,10=1,25=1/1,2,3,16;
 1/10=4,30=1/3;
 99/6=200/99;
 Leave Link    1 at Mon Mar  6 10:21:40 2023, MaxMem=  1048576000 cpu:               0.0 elap:               0.2
 (Enter /ssoft/spack/external/gaussian/g16-C.01/avx2/g16/l101.exe)
 ----------------------------------------
 TIFSOS_Complex_0_Ligand_1_ON_Cu_oriented
 ----------------------------------------
 Symbolic Z-matrix:
 Charge = -1 Multiplicity = 1
 O                    -1.79869   0.73311   0. 
 N                     0.58264   1.93822   0. 
 H                     1.16798   2.06263  -0.67196 
 C                    -1.87887   1.99002  -0.02239 
 O                     2.5756    5.90205   4.138 
 H                     2.84678   6.67527   4.12593 
 C                     1.85249   3.63538   1.4019 
 C                     2.51449   5.42241   2.86005 
 C                     1.9175    4.19139   2.66667 
 H                     1.5576    3.73342   3.39223 
 C                     2.38182   4.33445   0.33581 
 H                     2.34737   3.97162  -0.51949 
 C                     3.01884   6.12782   1.7896 
 H                     3.39297   6.96948   1.9127 
 C                     1.27832   2.23973   1.26632 
 H                     2.00205   1.60268   1.37355 
 H                     0.65535   2.09615   1.9952 
 C                     2.96101   5.56668   0.53531 
 H                     3.31964   6.02716  -0.18881 
 C                    -0.59982   2.78467  -0.25959 
 H                    -0.58335   3.54654   0.35584 
 C                    -0.61431   3.31334  -1.69588 
 H                     0.18804   3.81544  -1.85981 
 H                    -1.37855   3.88113  -1.82023 
 H                    -0.66204   2.57519  -2.30838 
 O                    -2.94016   2.62332   0.09642 
 
 ITRead=  0  0  0  0  0  0  0  0  0  0  0  0  0  0  0  0  0  0  0  0
 ITRead=  0  0  0  0  0  0
 MicOpt= -1 -1 -1 -1 -1 -1 -1 -1 -1 -1 -1 -1 -1 -1 -1 -1 -1 -1 -1 -1
 MicOpt= -1 -1 -1 -1 -1 -1
 NAtoms=     26 NQM=       26 NQMF=       0 NMMI=      0 NMMIF=      0
                NMic=       0 NMicF=      0.
                    Isotopes and Nuclear Properties:
 (Nuclear quadrupole moments (NQMom) in fm**2, nuclear magnetic moments (NMagM)
  in nuclear magnetons)

  Atom         1           2           3           4           5           6           7           8           9          10
 IAtWgt=          16          14           1          12          16           1          12          12          12           1
 AtmWgt=  15.9949146  14.0030740   1.0078250  12.0000000  15.9949146   1.0078250  12.0000000  12.0000000  12.0000000   1.0078250
 NucSpn=           0           2           1           0           0           1           0           0           0           1
 AtZEff=  -0.0000000  -0.0000000  -0.0000000  -0.0000000  -0.0000000  -0.0000000  -0.0000000  -0.0000000  -0.0000000  -0.0000000
 NQMom=    0.0000000   2.0440000   0.0000000   0.0000000   0.0000000   0.0000000   0.0000000   0.0000000   0.0000000   0.0000000
 NMagM=    0.0000000   0.4037610   2.7928460   0.0000000   0.0000000   2.7928460   0.0000000   0.0000000   0.0000000   2.7928460
 AtZNuc=   8.0000000   7.0000000   1.0000000   6.0000000   8.0000000   1.0000000   6.0000000   6.0000000   6.0000000   1.0000000

  Atom        11          12          13          14          15          16          17          18          19          20
 IAtWgt=          12           1          12           1          12           1           1          12           1          12
 AtmWgt=  12.0000000   1.0078250  12.0000000   1.0078250  12.0000000   1.0078250   1.0078250  12.0000000   1.0078250  12.0000000
 NucSpn=           0           1           0           1           0           1           1           0           1           0
 AtZEff=  -0.0000000  -0.0000000  -0.0000000  -0.0000000  -0.0000000  -0.0000000  -0.0000000  -0.0000000  -0.0000000  -0.0000000
 NQMom=    0.0000000   0.0000000   0.0000000   0.0000000   0.0000000   0.0000000   0.0000000   0.0000000   0.0000000   0.0000000
 NMagM=    0.0000000   2.7928460   0.0000000   2.7928460   0.0000000   2.7928460   2.7928460   0.0000000   2.7928460   0.0000000
 AtZNuc=   6.0000000   1.0000000   6.0000000   1.0000000   6.0000000   1.0000000   1.0000000   6.0000000   1.0000000   6.0000000

  Atom        21          22          23          24          25          26
 IAtWgt=           1          12           1           1           1          16
 AtmWgt=   1.0078250  12.0000000   1.0078250   1.0078250   1.0078250  15.9949146
 NucSpn=           1           0           1           1           1           0
 AtZEff=  -0.0000000  -0.0000000  -0.0000000  -0.0000000  -0.0000000  -0.0000000
 NQMom=    0.0000000   0.0000000   0.0000000   0.0000000   0.0000000   0.0000000
 NMagM=    2.7928460   0.0000000   2.7928460   2.7928460   2.7928460   0.0000000
 AtZNuc=   1.0000000   6.0000000   1.0000000   1.0000000   1.0000000   8.0000000
 Leave Link  101 at Mon Mar  6 10:21:40 2023, MaxMem=  1048576000 cpu:               0.1 elap:               0.1
 (Enter /ssoft/spack/external/gaussian/g16-C.01/avx2/g16/l103.exe)

 GradGradGradGradGradGradGradGradGradGradGradGradGradGradGradGradGradGrad
 Berny optimization.
 Initialization pass.
 Trust Radius=3.00D-01 FncErr=1.00D-07 GrdErr=1.00D-07 EigMax=2.50D+02 EigMin=1.00D-04
 Number of steps in this run=      2 maximum allowed number of steps=      2.
 GradGradGradGradGradGradGradGradGradGradGradGradGradGradGradGradGradGrad

 Leave Link  103 at Mon Mar  6 10:21:40 2023, MaxMem=  1048576000 cpu:               0.0 elap:               0.1
 (Enter /ssoft/spack/external/gaussian/g16-C.01/avx2/g16/l202.exe)
                          Input orientation:                          
 ---------------------------------------------------------------------
 Center     Atomic      Atomic             Coordinates (Angstroms)
 Number     Number       Type             X           Y           Z
 ---------------------------------------------------------------------
      1          8           0       -1.798690    0.733114    0.000000
      2          7           0        0.582639    1.938224    0.000000
      3          1           0        1.167985    2.062632   -0.671956
      4          6           0       -1.878871    1.990020   -0.022389
      5          8           0        2.575600    5.902050    4.137998
      6          1           0        2.846780    6.675267    4.125926
      7          6           0        1.852486    3.635377    1.401905
      8          6           0        2.514493    5.422408    2.860049
      9          6           0        1.917503    4.191386    2.666667
     10          1           0        1.557603    3.733418    3.392233
     11          6           0        2.381823    4.334453    0.335808
     12          1           0        2.347372    3.971623   -0.519494
     13          6           0        3.018841    6.127818    1.789600
     14          1           0        3.392967    6.969478    1.912702
     15          6           0        1.278317    2.239726    1.266321
     16          1           0        2.002052    1.602683    1.373554
     17          1           0        0.655355    2.096148    1.995195
     18          6           0        2.961007    5.566677    0.535308
     19          1           0        3.319641    6.027160   -0.188809
     20          6           0       -0.599824    2.784674   -0.259591
     21          1           0       -0.583346    3.546538    0.355837
     22          6           0       -0.614307    3.313335   -1.695879
     23          1           0        0.188040    3.815444   -1.859809
     24          1           0       -1.378551    3.881129   -1.820230
     25          1           0       -0.662044    2.575188   -2.308379
     26          8           0       -2.940156    2.623321    0.096420
 ---------------------------------------------------------------------
                    Distance matrix (angstroms):
                    1          2          3          4          5
     1  O    0.000000
     2  N    2.668899   0.000000
     3  H    3.319684   0.899795   0.000000
     4  C    1.259661   2.462157   3.116174   0.000000
     5  O    7.935701   6.066864   6.313333   7.242590   0.000000
     6  H    8.597258   6.677513   6.863995   7.841673   0.819480
     7  C    4.870273   2.541294   2.691276   4.319588   3.625867
     8  C    6.983761   4.904231   5.057296   6.276256   1.366361
     9  C    5.734183   3.737608   4.029860   5.146794   2.350378
    10  H    5.636823   3.959863   4.411458   5.148634   2.509073
    11  C    5.528029   3.015252   2.765893   4.876288   4.117227
    12  H    5.286553   2.742055   2.249099   4.694145   5.046867
    13  C    7.450779   5.166279   5.100065   6.662752   2.400501
    14  H    8.336904   6.072058   5.975629   7.505455   2.599891
    15  C    3.652591   1.475954   1.949476   3.419206   4.831365
    16  H    4.133817   2.003489   2.256398   4.142493   5.143507
    17  H    3.443981   2.002756   2.716175   3.241020   4.771146
    18  C    6.804749   4.371368   4.117128   6.043833   3.638734
    19  H    7.366131   4.924045   4.536578   6.584126   4.392096
    20  C    2.390306   1.477188   1.953597   1.524368   6.256209
    21  H    3.085294   2.018122   2.515054   2.060143   5.461878
    22  C    3.307009   2.489903   2.406084   2.480091   7.135199
    23  H    4.111782   2.671808   2.333161   3.313670   6.784398
    24  H    3.660568   3.306718   3.333213   2.656849   7.431010
    25  H    3.164461   2.698810   2.507908   2.654965   7.943937
    26  O    2.210232   3.590090   4.216823   1.241576   7.583402
                    6          7          8          9         10
     6  H    0.000000
     7  C    4.201172   0.000000
     8  C    1.811771   2.399567   0.000000
     9  C    3.026988   1.383111   1.381741   0.000000
    10  H    3.294656   2.014441   2.012845   0.930435   0.000000
    11  C    4.478905   1.380387   2.751916   2.380959   3.222160
    12  H    5.398058   2.012398   3.681578   3.222530   3.997759
    13  C    2.405769   2.779020   1.377618   2.394151   3.230603
    14  H    2.298531   3.708130   2.015591   3.234695   4.003705
    15  C    5.505582   1.515221   3.767966   2.485660   2.613162
    16  H    5.832686   2.038386   4.130685   2.894939   2.968607
    17  H    5.505514   2.038220   3.907477   2.536516   2.333756
    18  C    3.759596   2.389503   2.371626   2.742811   3.673200
    19  H    4.388688   3.225451   3.210845   3.672846   4.603247
    20  C    6.800629   3.081897   5.137001   4.108377   4.346312
    21  H    5.980658   2.652438   4.403019   3.465546   3.719984
    22  C    7.561423   3.973039   5.915578   5.119847   5.548201
    23  H    7.146783   3.666276   5.501980   4.860181   5.428294
    24  H    7.811364   4.569699   6.279837   5.576063   5.984362
    25  H    8.397784   4.605765   6.701471   5.832430   6.226179
    26  O    8.132885   5.069316   6.725008   5.715055   5.685467
                   11         12         13         14         15
    11  C    0.000000
    12  H    0.929717   0.000000
    13  C    2.394882   3.229855   0.000000
    14  H    3.233012   3.999497   0.929256   0.000000
    15  C    2.543907   2.707671   4.291911   5.221121   0.000000
    16  H    2.946813   3.052007   4.656586   5.570261   0.970110
    17  H    3.277845   3.564265   4.677894   5.590230   0.969512
    18  C    1.376092   2.008321   1.375308   2.012872   3.799267
    19  H    2.004989   2.297802   2.003675   2.304276   4.541923
    20  C    3.412702   3.187847   5.335779   6.178497   2.480482
    21  H    3.068132   3.088043   4.657728   5.472788   2.450006
    22  C    3.761280   3.254039   5.767984   6.515173   3.675499
    23  H    3.146869   2.546282   5.165142   5.869525   3.666645
    24  H    4.358258   3.947481   6.116824   6.800005   4.390894
    25  H    4.399075   3.769182   6.554657   7.319182   4.081179
    26  O    5.595421   5.491377   7.117444   7.892807   4.394466
                   16         17         18         19         20
    16  H    0.000000
    17  H    1.563182   0.000000
    18  C    4.163591   4.414960   0.000000
    19  H    4.873706   5.226963   0.930058   0.000000
    20  C    3.291508   2.670880   4.588129   5.087331   0.000000
    21  H    3.390958   2.515055   4.083578   4.656547   0.979521
    22  C    4.380990   4.088717   4.778976   5.011192   1.530560
    23  H    4.317590   4.246813   4.061126   4.182206   2.060077
    24  H    5.178807   4.677649   5.217413   5.416640   2.060152
    25  H    4.647559   4.526121   5.492000   5.680009   2.060410
    26  O    5.205592   4.100117   6.609062   7.131096   2.372748
                   21         22         23         24         25
    21  H    0.000000
    22  C    2.065159   0.000000
    23  H    2.361448   0.960598   0.000000
    24  H    2.340848   0.960168   1.568467   0.000000
    25  H    2.836858   0.960363   1.569107   1.567531   0.000000
    26  O    2.544442   3.016294   3.877319   2.773849   3.312879
                   26
    26  O    0.000000
 Stoichiometry    C10H12NO3(1-)
 Framework group  C1[X(C10H12NO3)]
 Deg. of freedom    72
 Full point group                 C1      NOp   1
 Largest Abelian subgroup         C1      NOp   1
 Largest concise Abelian subgroup C1      NOp   1
                         Standard orientation:                         
 ---------------------------------------------------------------------
 Center     Atomic      Atomic             Coordinates (Angstroms)
 Number     Number       Type             X           Y           Z
 ---------------------------------------------------------------------
      1          8           0        3.796627   -0.943128    0.610233
      2          7           0        1.483290    0.260985    1.177334
      3          1           0        1.320468    1.104963    1.443457
      4          6           0        3.153452   -0.596195   -0.415782
      5          8           0       -4.021209   -1.568436   -0.600459
      6          1           0       -4.637583   -1.240413   -1.029448
      7          6           0       -0.989301   -0.043009    0.675282
      8          6           0       -3.121320   -0.591682   -0.279377
      9          6           0       -1.928856   -0.985002    0.297284
     10          1           0       -1.757362   -1.889413    0.432702
     11          6           0       -1.256394    1.293476    0.456335
     12          1           0       -0.634971    1.937684    0.707740
     13          6           0       -3.372834    0.741410   -0.519043
     14          1           0       -4.160582    1.006088   -0.934874
     15          6           0        0.253724   -0.526027    1.394639
     16          1           0        0.066886   -0.539541    2.346491
     17          1           0        0.426994   -1.439605    1.120218
     18          6           0       -2.440129    1.675254   -0.132431
     19          1           0       -2.612839    2.578633   -0.270584
     20          6           0        1.936919    0.302932   -0.227852
     21          1           0        1.213195   -0.021734   -0.802549
     22          6           0        2.309261    1.722844   -0.661241
     23          1           0        1.551045    2.301332   -0.546310
     24          1           0        2.570801    1.717265   -1.585084
     25          1           0        3.039719    2.040305   -0.124634
     26          8           0        3.470090   -0.906745   -1.575442
 ---------------------------------------------------------------------
 Rotational constants (GHZ):           1.4389655           0.3273854           0.3092495
 Leave Link  202 at Mon Mar  6 10:21:40 2023, MaxMem=  1048576000 cpu:               0.0 elap:               0.0
 (Enter /ssoft/spack/external/gaussian/g16-C.01/avx2/g16/l301.exe)
 Standard basis: def2SVP (5D, 7F)
 Ernie: Thresh=  0.10000D-02 Tol=  0.10000D-05 Strict=F.
 There are   270 symmetry adapted cartesian basis functions of A   symmetry.
 There are   256 symmetry adapted basis functions of A   symmetry.
   256 basis functions,   434 primitive gaussians,   270 cartesian basis functions
    52 alpha electrons       52 beta electrons
       nuclear repulsion energy       870.3363788500 Hartrees.
 IExCor= 1009 DFT=T Ex+Corr=PBE1PBE ExCW=0 ScaHFX=  0.250000
 ScaDFX=  0.750000  0.750000  1.000000  1.000000 ScalE2=  1.000000  1.000000
 IRadAn=      5 IRanWt=     -1 IRanGd=            0 ICorTp=0 IEmpDi=141
 NAtoms=   26 NActive=   26 NUniq=   26 SFac= 1.00D+00 NAtFMM=   60 NAOKFM=F Big=F
 Integral buffers will be    131072 words long.
 Raffenetti 2 integral format.
 Two-electron integral symmetry is turned on.
 R6Disp:  Grimme-D3(BJ) Dispersion energy=       -0.0261414019 Hartrees.
 Nuclear repulsion after empirical dispersion term =      870.3102374481 Hartrees.
 Leave Link  301 at Mon Mar  6 10:21:40 2023, MaxMem=  1048576000 cpu:               0.1 elap:               0.1
 (Enter /ssoft/spack/external/gaussian/g16-C.01/avx2/g16/l302.exe)
 NPDir=0 NMtPBC=     1 NCelOv=     1 NCel=       1 NClECP=     1 NCelD=      1
         NCelK=      1 NCelE2=     1 NClLst=     1 CellRange=     0.0.
 One-electron integrals computed using PRISM.
 One-electron integral symmetry used in STVInt
   1 Symmetry operations used in ECPInt.
 ECPInt:  NShTT=    7260 NPrTT=   26324 LenC2=    6852 LenP2D=   18452.
 LDataN:  DoStor=T MaxTD1= 4 Len=   56
 NBasis=   256 RedAO= T EigKep=  2.43D-04  NBF=   256
 NBsUse=   256 1.00D-06 EigRej= -1.00D+00 NBFU=   256
 Precomputing XC quadrature grid using
 IXCGrd= 4 IRadAn=           5 IRanWt=          -1 IRanGd=           0 AccXCQ= 0.00D+00.
 Generated NRdTot=       0 NPtTot=           0 NUsed=           0 NTot=          32
 NSgBfM=   268   268   268   268   268 MxSgAt=    26 MxSgA2=    26.
 Leave Link  302 at Mon Mar  6 10:21:41 2023, MaxMem=  1048576000 cpu:               0.7 elap:               0.7
 (Enter /ssoft/spack/external/gaussian/g16-C.01/avx2/g16/l303.exe)
 DipDrv:  MaxL=1.
 Leave Link  303 at Mon Mar  6 10:21:41 2023, MaxMem=  1048576000 cpu:               0.0 elap:               0.0
 (Enter /ssoft/spack/external/gaussian/g16-C.01/avx2/g16/l401.exe)
 ExpMin= 1.22D-01 ExpMax= 2.27D+03 ExpMxC= 3.41D+02 IAcc=3 IRadAn=         5 AccDes= 0.00D+00
 Harris functional with IExCor= 1009 and IRadAn=       5 diagonalized for initial guess.
 HarFok:  IExCor= 1009 AccDes= 0.00D+00 IRadAn=         5 IDoV= 1 UseB2=F ITyADJ=14
 ICtDFT=  3500011 ScaDFX=  1.000000  1.000000  1.000000  1.000000
 FoFCou: FMM=F IPFlag=           0 FMFlag=      100000 FMFlg1=           0
         NFxFlg=           0 DoJE=T BraDBF=F KetDBF=T FulRan=T
         wScrn=  0.000000 ICntrl=       500 IOpCl=  0 I1Cent=   200000004 NGrid=           0
         NMat0=    1 NMatS0=      1 NMatT0=    0 NMatD0=    1 NMtDS0=    0 NMtDT0=    0
 Petite list used in FoFCou.
 Harris En= -667.782347576758    
 JPrj=0 DoOrth=F DoCkMO=F.
 Leave Link  401 at Mon Mar  6 10:21:47 2023, MaxMem=  1048576000 cpu:               6.0 elap:               6.0
 (Enter /ssoft/spack/external/gaussian/g16-C.01/avx2/g16/l502.exe)
 Keep R1 ints in memory in canonical form, NReq=551043345.
 FoFCou: FMM=F IPFlag=           0 FMFlag=           0 FMFlg1=           0
         NFxFlg=           0 DoJE=F BraDBF=F KetDBF=F FulRan=T
         wScrn=  0.000000 ICntrl=       600 IOpCl=  0 I1Cent=           0 NGrid=           0
         NMat0=    1 NMatS0=  32896 NMatT0=    0 NMatD0=    1 NMtDS0=    0 NMtDT0=    0
 Symmetry not used in FoFCou.
 Two-electron integral symmetry not used.
 Closed shell SCF:
 Using DIIS extrapolation, IDIIS=  1040.
 NGot=  1048576000 LenX=   507335158 LenY=   507261817
 Requested convergence on RMS density matrix=1.00D-08 within 128 cycles.
 Requested convergence on MAX density matrix=1.00D-06.
 Requested convergence on             energy=1.00D-06.
 No special actions if energy rises.
 Integral accuracy reduced to 1.0D-05 until final iterations.

 Cycle   1  Pass 0  IDiag  1:
 E= -666.847281879366    
 DIIS: error= 3.72D-02 at cycle   1 NSaved=   1.
 NSaved= 1 IEnMin= 1 EnMin= -666.847281879366     IErMin= 1 ErrMin= 3.72D-02
 ErrMax= 3.72D-02  0.00D+00 EMaxC= 1.00D-01 BMatC= 4.62D-01 BMatP= 4.62D-01
 IDIUse=3 WtCom= 6.28D-01 WtEn= 3.72D-01
 Coeff-Com:  0.100D+01
 Coeff-En:   0.100D+01
 Coeff:      0.100D+01
 Gap=     0.115 Goal=   None    Shift=    0.000
 GapD=    0.115 DampG=1.000 DampE=0.500 DampFc=0.5000 IDamp=-1.
 Damping current iteration by 5.00D-01
 RMSDP=2.64D-02 MaxDP=1.83D+00              OVMax= 9.95D-01

 Cycle   2  Pass 0  IDiag  1:
 E= -666.634044172119     Delta-E=        0.213237707246 Rises=F Damp=T
 DIIS: error= 2.28D-02 at cycle   2 NSaved=   2.
 NSaved= 2 IEnMin= 1 EnMin= -666.847281879366     IErMin= 2 ErrMin= 2.28D-02
 ErrMax= 2.28D-02  0.00D+00 EMaxC= 1.00D-01 BMatC= 1.27D-01 BMatP= 4.62D-01
 IDIUse=3 WtCom= 7.72D-01 WtEn= 2.28D-01
 Coeff-Com:  0.271D+00 0.729D+00
 Coeff-En:   0.661D+00 0.339D+00
 Coeff:      0.360D+00 0.640D+00
 Gap=    -0.087 Goal=   None    Shift=    0.000
 RMSDP=1.32D-02 MaxDP=9.08D-01 DE= 2.13D-01 OVMax= 5.97D-01

 Cycle   3  Pass 0  IDiag  1:
 E= -667.121615450642     Delta-E=       -0.487571278522 Rises=F Damp=F
 DIIS: error= 2.01D-02 at cycle   3 NSaved=   3.
 NSaved= 3 IEnMin= 3 EnMin= -667.121615450642     IErMin= 3 ErrMin= 2.01D-02
 ErrMax= 2.01D-02  0.00D+00 EMaxC= 1.00D-01 BMatC= 1.66D-01 BMatP= 1.27D-01
 IDIUse=2 WtCom= 0.00D+00 WtEn= 1.00D+00
 Coeff-En:   0.000D+00 0.105D+00 0.895D+00
 Coeff:      0.000D+00 0.105D+00 0.895D+00
 Gap=     0.537 Goal=   None    Shift=    0.000
 RMSDP=7.09D-03 MaxDP=2.60D-01 DE=-4.88D-01 OVMax= 8.83D-01

 Cycle   4  Pass 0  IDiag  1:
 E= -665.206536633272     Delta-E=        1.915078817369 Rises=F Damp=F
 DIIS: error= 6.65D-02 at cycle   4 NSaved=   4.
 NSaved= 4 IEnMin= 3 EnMin= -667.121615450642     IErMin= 3 ErrMin= 2.01D-02
 ErrMax= 6.65D-02  0.00D+00 EMaxC= 1.00D-01 BMatC= 1.21D+00 BMatP= 1.27D-01
 IDIUse=2 WtCom= 0.00D+00 WtEn= 1.00D+00
 Coeff-En:   0.000D+00 0.000D+00 0.871D+00 0.129D+00
 Coeff:      0.000D+00 0.000D+00 0.871D+00 0.129D+00
 Gap=     0.095 Goal=   None    Shift=    0.000
 RMSDP=6.26D-03 MaxDP=2.18D-01 DE= 1.92D+00 OVMax= 9.84D-01

 Cycle   5  Pass 0  IDiag  1:
 E= -667.218601306755     Delta-E=       -2.012064673483 Rises=F Damp=F
 DIIS: error= 1.84D-02 at cycle   5 NSaved=   5.
 NSaved= 5 IEnMin= 5 EnMin= -667.218601306755     IErMin= 5 ErrMin= 1.84D-02
 ErrMax= 1.84D-02  0.00D+00 EMaxC= 1.00D-01 BMatC= 7.92D-02 BMatP= 1.27D-01
 IDIUse=3 WtCom= 8.16D-01 WtEn= 1.84D-01
 Coeff-Com:  0.403D-01 0.207D+00 0.404D+00 0.322D-01 0.317D+00
 Coeff-En:   0.000D+00 0.000D+00 0.290D+00 0.000D+00 0.710D+00
 Coeff:      0.329D-01 0.169D+00 0.383D+00 0.263D-01 0.389D+00
 Gap=     0.135 Goal=   None    Shift=    0.000
 RMSDP=1.84D-03 MaxDP=4.67D-02 DE=-2.01D+00 OVMax= 1.20D-01

 Cycle   6  Pass 0  IDiag  1:
 E= -667.277178439286     Delta-E=       -0.058577132532 Rises=F Damp=F
 DIIS: error= 5.74D-03 at cycle   6 NSaved=   6.
 NSaved= 6 IEnMin= 6 EnMin= -667.277178439286     IErMin= 6 ErrMin= 5.74D-03
 ErrMax= 5.74D-03  0.00D+00 EMaxC= 1.00D-01 BMatC= 1.20D-02 BMatP= 7.92D-02
 IDIUse=3 WtCom= 9.43D-01 WtEn= 5.74D-02
 Coeff-Com: -0.313D-01 0.886D-01 0.410D-01-0.301D-02 0.229D+00 0.676D+00
 Coeff-En:   0.000D+00 0.000D+00 0.000D+00 0.000D+00 0.146D+00 0.854D+00
 Coeff:     -0.295D-01 0.835D-01 0.386D-01-0.283D-02 0.224D+00 0.686D+00
 Gap=     0.104 Goal=   None    Shift=    0.000
 RMSDP=6.49D-04 MaxDP=2.05D-02 DE=-5.86D-02 OVMax= 4.71D-02

 Cycle   7  Pass 0  IDiag  1:
 E= -667.289666400875     Delta-E=       -0.012487961588 Rises=F Damp=F
 DIIS: error= 1.49D-03 at cycle   7 NSaved=   7.
 NSaved= 7 IEnMin= 7 EnMin= -667.289666400875     IErMin= 7 ErrMin= 1.49D-03
 ErrMax= 1.49D-03  0.00D+00 EMaxC= 1.00D-01 BMatC= 8.00D-04 BMatP= 1.20D-02
 IDIUse=3 WtCom= 9.85D-01 WtEn= 1.49D-02
 Coeff-Com: -0.238D-01 0.498D-01-0.333D-01-0.606D-02 0.768D-01 0.369D+00
 Coeff-Com:  0.567D+00
 Coeff-En:   0.000D+00 0.000D+00 0.000D+00 0.000D+00 0.000D+00 0.000D+00
 Coeff-En:   0.100D+01
 Coeff:     -0.234D-01 0.490D-01-0.328D-01-0.597D-02 0.757D-01 0.364D+00
 Coeff:      0.574D+00
 Gap=     0.099 Goal=   None    Shift=    0.000
 RMSDP=1.79D-04 MaxDP=7.24D-03 DE=-1.25D-02 OVMax= 5.75D-03

 Cycle   8  Pass 0  IDiag  1:
 E= -667.290344193982     Delta-E=       -0.000677793107 Rises=F Damp=F
 DIIS: error= 6.40D-04 at cycle   8 NSaved=   8.
 NSaved= 8 IEnMin= 8 EnMin= -667.290344193982     IErMin= 8 ErrMin= 6.40D-04
 ErrMax= 6.40D-04  0.00D+00 EMaxC= 1.00D-01 BMatC= 1.38D-04 BMatP= 8.00D-04
 IDIUse=3 WtCom= 9.94D-01 WtEn= 6.40D-03
 Coeff-Com: -0.962D-02 0.179D-01-0.301D-01-0.283D-02-0.904D-02 0.478D-01
 Coeff-Com:  0.236D+00 0.749D+00
 Coeff-En:   0.000D+00 0.000D+00 0.000D+00 0.000D+00 0.000D+00 0.000D+00
 Coeff-En:   0.000D+00 0.100D+01
 Coeff:     -0.956D-02 0.178D-01-0.299D-01-0.281D-02-0.899D-02 0.475D-01
 Coeff:      0.235D+00 0.751D+00
 Gap=     0.095 Goal=   None    Shift=    0.000
 RMSDP=1.01D-04 MaxDP=4.21D-03 DE=-6.78D-04 OVMax= 5.51D-03

 Cycle   9  Pass 0  IDiag  1:
 E= -667.290506466095     Delta-E=       -0.000162272114 Rises=F Damp=F
 DIIS: error= 2.68D-04 at cycle   9 NSaved=   9.
 NSaved= 9 IEnMin= 9 EnMin= -667.290506466095     IErMin= 9 ErrMin= 2.68D-04
 ErrMax= 2.68D-04  0.00D+00 EMaxC= 1.00D-01 BMatC= 2.41D-05 BMatP= 1.38D-04
 IDIUse=3 WtCom= 9.97D-01 WtEn= 2.68D-03
 Coeff-Com: -0.304D-02 0.555D-02-0.101D-01-0.462D-03-0.106D-01-0.140D-01
 Coeff-Com: -0.125D-01 0.310D+00 0.735D+00
 Coeff-En:   0.000D+00 0.000D+00 0.000D+00 0.000D+00 0.000D+00 0.000D+00
 Coeff-En:   0.000D+00 0.000D+00 0.100D+01
 Coeff:     -0.304D-02 0.553D-02-0.101D-01-0.460D-03-0.106D-01-0.139D-01
 Coeff:     -0.125D-01 0.309D+00 0.736D+00
 Gap=     0.094 Goal=   None    Shift=    0.000
 RMSDP=2.93D-05 MaxDP=9.18D-04 DE=-1.62D-04 OVMax= 1.10D-03

 Cycle  10  Pass 0  IDiag  1:
 E= -667.290527364565     Delta-E=       -0.000020898470 Rises=F Damp=F
 DIIS: error= 9.01D-05 at cycle  10 NSaved=  10.
 NSaved=10 IEnMin=10 EnMin= -667.290527364565     IErMin=10 ErrMin= 9.01D-05
 ErrMax= 9.01D-05  0.00D+00 EMaxC= 1.00D-01 BMatC= 2.98D-06 BMatP= 2.41D-05
 IDIUse=1 WtCom= 1.00D+00 WtEn= 0.00D+00
 Coeff-Com: -0.479D-03 0.108D-02-0.164D-02-0.243D-04-0.320D-02-0.108D-01
 Coeff-Com: -0.493D-01 0.333D-01 0.341D+00 0.690D+00
 Coeff:     -0.479D-03 0.108D-02-0.164D-02-0.243D-04-0.320D-02-0.108D-01
 Coeff:     -0.493D-01 0.333D-01 0.341D+00 0.690D+00
 Gap=     0.094 Goal=   None    Shift=    0.000
 RMSDP=1.71D-05 MaxDP=6.83D-04 DE=-2.09D-05 OVMax= 6.50D-04

 Cycle  11  Pass 0  IDiag  1:
 E= -667.290530872330     Delta-E=       -0.000003507765 Rises=F Damp=F
 DIIS: error= 2.31D-05 at cycle  11 NSaved=  11.
 NSaved=11 IEnMin=11 EnMin= -667.290530872330     IErMin=11 ErrMin= 2.31D-05
 ErrMax= 2.31D-05  0.00D+00 EMaxC= 1.00D-01 BMatC= 2.11D-07 BMatP= 2.98D-06
 IDIUse=1 WtCom= 1.00D+00 WtEn= 0.00D+00
 Coeff-Com: -0.271D-04 0.109D-03-0.140D-03 0.480D-05-0.430D-03-0.333D-02
 Coeff-Com: -0.217D-01-0.130D-01 0.776D-01 0.285D+00 0.676D+00
 Coeff:     -0.271D-04 0.109D-03-0.140D-03 0.480D-05-0.430D-03-0.333D-02
 Coeff:     -0.217D-01-0.130D-01 0.776D-01 0.285D+00 0.676D+00
 Gap=     0.093 Goal=   None    Shift=    0.000
 RMSDP=4.18D-06 MaxDP=1.51D-04 DE=-3.51D-06 OVMax= 2.22D-04

 Initial convergence to 1.0D-05 achieved.  Increase integral accuracy.
 Cycle  12  Pass 1  IDiag  1:
 E= -667.290531114721     Delta-E=       -0.000000242391 Rises=F Damp=F
 DIIS: error= 1.05D-05 at cycle   1 NSaved=   1.
 NSaved= 1 IEnMin= 1 EnMin= -667.290531114721     IErMin= 1 ErrMin= 1.05D-05
 ErrMax= 1.05D-05  0.00D+00 EMaxC= 1.00D-01 BMatC= 3.16D-08 BMatP= 3.16D-08
 IDIUse=1 WtCom= 1.00D+00 WtEn= 0.00D+00
 Coeff-Com:  0.100D+01
 Coeff:      0.100D+01
 Gap=     0.093 Goal=   None    Shift=    0.000
 RMSDP=4.18D-06 MaxDP=1.51D-04 DE=-2.42D-07 OVMax= 1.73D-04

 Cycle  13  Pass 1  IDiag  1:
 E= -667.290531076913     Delta-E=        0.000000037808 Rises=F Damp=F
 DIIS: error= 1.91D-05 at cycle   2 NSaved=   2.
 NSaved= 2 IEnMin= 1 EnMin= -667.290531114721     IErMin= 1 ErrMin= 1.05D-05
 ErrMax= 1.91D-05  0.00D+00 EMaxC= 1.00D-01 BMatC= 6.89D-08 BMatP= 3.16D-08
 IDIUse=1 WtCom= 1.00D+00 WtEn= 0.00D+00
 Coeff-Com:  0.601D+00 0.399D+00
 Coeff:      0.601D+00 0.399D+00
 Gap=     0.093 Goal=   None    Shift=    0.000
 RMSDP=1.38D-06 MaxDP=4.82D-05 DE= 3.78D-08 OVMax= 1.20D-04

 Cycle  14  Pass 1  IDiag  1:
 E= -667.290531152365     Delta-E=       -0.000000075452 Rises=F Damp=F
 DIIS: error= 2.22D-06 at cycle   3 NSaved=   3.
 NSaved= 3 IEnMin= 3 EnMin= -667.290531152365     IErMin= 3 ErrMin= 2.22D-06
 ErrMax= 2.22D-06  0.00D+00 EMaxC= 1.00D-01 BMatC= 1.00D-09 BMatP= 3.16D-08
 IDIUse=1 WtCom= 1.00D+00 WtEn= 0.00D+00
 Coeff-Com:  0.150D+00 0.145D+00 0.705D+00
 Coeff:      0.150D+00 0.145D+00 0.705D+00
 Gap=     0.093 Goal=   None    Shift=    0.000
 RMSDP=2.82D-07 MaxDP=1.08D-05 DE=-7.55D-08 OVMax= 1.22D-05

 Cycle  15  Pass 1  IDiag  1:
 E= -667.290531153078     Delta-E=       -0.000000000713 Rises=F Damp=F
 DIIS: error= 9.46D-07 at cycle   4 NSaved=   4.
 NSaved= 4 IEnMin= 4 EnMin= -667.290531153078     IErMin= 4 ErrMin= 9.46D-07
 ErrMax= 9.46D-07  0.00D+00 EMaxC= 1.00D-01 BMatC= 4.34D-10 BMatP= 1.00D-09
 IDIUse=1 WtCom= 1.00D+00 WtEn= 0.00D+00
 Coeff-Com: -0.228D-02 0.267D-01 0.432D+00 0.543D+00
 Coeff:     -0.228D-02 0.267D-01 0.432D+00 0.543D+00
 Gap=     0.093 Goal=   None    Shift=    0.000
 RMSDP=1.23D-07 MaxDP=3.50D-06 DE=-7.13D-10 OVMax= 6.82D-06

 Cycle  16  Pass 1  IDiag  1:
 E= -667.290531153425     Delta-E=       -0.000000000347 Rises=F Damp=F
 DIIS: error= 4.22D-07 at cycle   5 NSaved=   5.
 NSaved= 5 IEnMin= 5 EnMin= -667.290531153425     IErMin= 5 ErrMin= 4.22D-07
 ErrMax= 4.22D-07  0.00D+00 EMaxC= 1.00D-01 BMatC= 4.27D-11 BMatP= 4.34D-10
 IDIUse=1 WtCom= 1.00D+00 WtEn= 0.00D+00
 Coeff-Com: -0.133D-01 0.513D-02 0.213D+00 0.331D+00 0.465D+00
 Coeff:     -0.133D-01 0.513D-02 0.213D+00 0.331D+00 0.465D+00
 Gap=     0.093 Goal=   None    Shift=    0.000
 RMSDP=3.77D-08 MaxDP=1.34D-06 DE=-3.47D-10 OVMax= 2.90D-06

 Cycle  17  Pass 1  IDiag  1:
 E= -667.290531153458     Delta-E=       -0.000000000033 Rises=F Damp=F
 DIIS: error= 1.16D-07 at cycle   6 NSaved=   6.
 NSaved= 6 IEnMin= 6 EnMin= -667.290531153458     IErMin= 6 ErrMin= 1.16D-07
 ErrMax= 1.16D-07  0.00D+00 EMaxC= 1.00D-01 BMatC= 3.69D-12 BMatP= 4.27D-11
 IDIUse=1 WtCom= 1.00D+00 WtEn= 0.00D+00
 Coeff-Com: -0.700D-02-0.250D-03 0.688D-01 0.122D+00 0.269D+00 0.548D+00
 Coeff:     -0.700D-02-0.250D-03 0.688D-01 0.122D+00 0.269D+00 0.548D+00
 Gap=     0.093 Goal=   None    Shift=    0.000
 RMSDP=1.22D-08 MaxDP=3.25D-07 DE=-3.32D-11 OVMax= 9.21D-07

 Cycle  18  Pass 1  IDiag  1:
 E= -667.290531153464     Delta-E=       -0.000000000006 Rises=F Damp=F
 DIIS: error= 1.47D-08 at cycle   7 NSaved=   7.
 NSaved= 7 IEnMin= 7 EnMin= -667.290531153464     IErMin= 7 ErrMin= 1.47D-08
 ErrMax= 1.47D-08  0.00D+00 EMaxC= 1.00D-01 BMatC= 1.91D-13 BMatP= 3.69D-12
 IDIUse=1 WtCom= 1.00D+00 WtEn= 0.00D+00
 Coeff-Com: -0.186D-02-0.549D-03 0.112D-01 0.239D-01 0.764D-01 0.241D+00
 Coeff-Com:  0.650D+00
 Coeff:     -0.186D-02-0.549D-03 0.112D-01 0.239D-01 0.764D-01 0.241D+00
 Coeff:      0.650D+00
 Gap=     0.093 Goal=   None    Shift=    0.000
 RMSDP=3.97D-09 MaxDP=7.11D-08 DE=-5.91D-12 OVMax= 4.47D-07

 SCF Done:  E(RPBE1PBE) =  -667.290531153     A.U. after   18 cycles
            NFock= 18  Conv=0.40D-08     -V/T= 2.0039
 KE= 6.646796379823D+02 PE=-3.315530824900D+03 EE= 1.113250418316D+03
 Leave Link  502 at Mon Mar  6 10:23:50 2023, MaxMem=  1048576000 cpu:             122.3 elap:             123.6
 (Enter /ssoft/spack/external/gaussian/g16-C.01/avx2/g16/l801.exe)
 DoSCS=F DFT=T ScalE2(SS,OS)=  1.000000  1.000000
 Range of M.O.s used for correlation:     1   256
 NBasis=   256 NAE=    52 NBE=    52 NFC=     0 NFV=     0
 NROrb=    256 NOA=    52 NOB=    52 NVA=   204 NVB=   204

 **** Warning!!: The largest alpha MO coefficient is  0.15619495D+02


 **** Warning!!: The smallest alpha delta epsilon is  0.93414488D-01

 Leave Link  801 at Mon Mar  6 10:23:50 2023, MaxMem=  1048576000 cpu:               0.0 elap:               0.0
 (Enter /ssoft/spack/external/gaussian/g16-C.01/avx2/g16/l1101.exe)
 Using compressed storage, NAtomX=    26.
 Will process     27 centers per pass.
   1 Symmetry operations used in ECPInt.
 ECPInt:  NShTT=    7260 NPrTT=   26324 LenC2=    6852 LenP2D=   18452.
 LDataN:  DoStor=T MaxTD1= 5 Len=  102
 R6Disp: Adding Grimme-D3(BJ) dispersion energy 1st derivatives to the gradient.
 Leave Link 1101 at Mon Mar  6 10:23:51 2023, MaxMem=  1048576000 cpu:               0.3 elap:               0.3
 (Enter /ssoft/spack/external/gaussian/g16-C.01/avx2/g16/l1102.exe)
 Symmetrizing basis deriv contribution to polar:
 IMax=3 JMax=2 DiffMx= 0.00D+00
 Leave Link 1102 at Mon Mar  6 10:23:51 2023, MaxMem=  1048576000 cpu:               0.1 elap:               0.1
 (Enter /ssoft/spack/external/gaussian/g16-C.01/avx2/g16/l1110.exe)
 Forming Gx(P) for the SCF density, NAtomX=    26.
 Integral derivatives from FoFJK, PRISM(SPDF).
 Do as many integral derivatives as possible in FoFJK.
 G2DrvN: MDV=    1048573186.
 G2DrvN: will do    27 centers at a time, making    1 passes.
 Calling FoFCou, ICntrl=  3107 FMM=F I1Cent=   0 AccDes= 0.00D+00.
 FoFJK:  IHMeth= 1 ICntrl=    3107 DoSepK=F KAlg= 0 I1Cent=           0 FoldK=F
 IRaf=         0 NMat=       1 IRICut=       1 DoRegI=T DoRafI=F ISym2E= 0 IDoP0=0 IntGTp=1.
 FoFCou: FMM=F IPFlag=           0 FMFlag=      100000 FMFlg1=           0
         NFxFlg=           0 DoJE=F BraDBF=F KetDBF=F FulRan=T
         wScrn=  0.000000 ICntrl=      3107 IOpCl=  0 I1Cent=           0 NGrid=           0
         NMat0=    1 NMatS0=      1 NMatT0=    0 NMatD0=    1 NMtDS0=    0 NMtDT0=    0
 Symmetry not used in FoFCou.
 End of G2Drv F.D. properties file   721 does not exist.
 End of G2Drv F.D. properties file   722 does not exist.
 End of G2Drv F.D. properties file   788 does not exist.
 Leave Link 1110 at Mon Mar  6 10:29:54 2023, MaxMem=  1048576000 cpu:             361.4 elap:             363.0
 (Enter /ssoft/spack/external/gaussian/g16-C.01/avx2/g16/l1002.exe)
 Minotr:  Closed shell wavefunction.
          IDoAtm=11111111111111111111111111
          Direct CPHF calculation.
          Differentiating once with respect to electric field.
                with respect to dipole field.
          Differentiating once with respect to nuclear coordinates.
          Requested convergence is 1.0D-08 RMS, and 1.0D-07 maximum.
          Secondary convergence is 1.0D-12 RMS, and 1.0D-12 maximum.
          NewPWx=T KeepS1=F KeepF1=F KeepIn=T MapXYZ=F SortEE=F KeepMc=T.
         7812 words used for storage of precomputed grid.
 Keep R1 ints in memory in canonical form, NReq=551054313.
 FoFCou: FMM=F IPFlag=           0 FMFlag=           0 FMFlg1=           0
         NFxFlg=           0 DoJE=F BraDBF=F KetDBF=F FulRan=T
         wScrn=  0.000000 ICntrl=       600 IOpCl=  0 I1Cent=           0 NGrid=           0
         NMat0=    1 NMatS0=  32896 NMatT0=    0 NMatD0=    1 NMtDS0=    0 NMtDT0=    0
 Symmetry not used in FoFCou.
 Two-electron integral symmetry not used.
          MDV=    1048576000 using IRadAn=       1.
          Solving linear equations simultaneously, MaxMat=       0.
          There are    81 degrees of freedom in the 1st order CPHF.  IDoFFX=6 NUNeed=     3.
     78 vectors produced by pass  0 Test12= 1.31D-14 1.23D-09 XBig12= 1.25D+02 5.02D+00.
 AX will form    78 AO Fock derivatives at one time.
     78 vectors produced by pass  1 Test12= 1.31D-14 1.23D-09 XBig12= 2.09D+01 9.24D-01.
     78 vectors produced by pass  2 Test12= 1.31D-14 1.23D-09 XBig12= 1.74D-01 9.25D-02.
     78 vectors produced by pass  3 Test12= 1.31D-14 1.23D-09 XBig12= 6.82D-04 4.26D-03.
     78 vectors produced by pass  4 Test12= 1.31D-14 1.23D-09 XBig12= 1.76D-06 1.82D-04.
     72 vectors produced by pass  5 Test12= 1.31D-14 1.23D-09 XBig12= 2.78D-09 5.23D-06.
     22 vectors produced by pass  6 Test12= 1.31D-14 1.23D-09 XBig12= 2.99D-12 1.56D-07.
      3 vectors produced by pass  7 Test12= 1.31D-14 1.23D-09 XBig12= 2.89D-15 5.25D-09.
 InvSVY:  IOpt=1 It=  1 EMax= 7.11D-15
 Solved reduced A of dimension   487 with    81 vectors.
 FullF1:  Do perturbations      1 to       3.
 Isotropic polarizability for W=    0.000000      110.31 Bohr**3.
 End of Minotr F.D. properties file   721 does not exist.
 End of Minotr F.D. properties file   722 does not exist.
 End of Minotr F.D. properties file   788 does not exist.
 Leave Link 1002 at Mon Mar  6 10:36:07 2023, MaxMem=  1048576000 cpu:             370.7 elap:             372.6
 (Enter /ssoft/spack/external/gaussian/g16-C.01/avx2/g16/l601.exe)
 Copying SCF densities to generalized density rwf, IOpCl= 0 IROHF=0.

 **********************************************************************

            Population analysis using the SCF Density.

 **********************************************************************

 Orbital symmetries:
       Occupied  (A) (A) (A) (A) (A) (A) (A) (A) (A) (A) (A) (A)
                 (A) (A) (A) (A) (A) (A) (A) (A) (A) (A) (A) (A)
                 (A) (A) (A) (A) (A) (A) (A) (A) (A) (A) (A) (A)
                 (A) (A) (A) (A) (A) (A) (A) (A) (A) (A) (A) (A)
                 (A) (A) (A) (A)
       Virtual   (A) (A) (A) (A) (A) (A) (A) (A) (A) (A) (A) (A)
                 (A) (A) (A) (A) (A) (A) (A) (A) (A) (A) (A) (A)
                 (A) (A) (A) (A) (A) (A) (A) (A) (A) (A) (A) (A)
                 (A) (A) (A) (A) (A) (A) (A) (A) (A) (A) (A) (A)
                 (A) (A) (A) (A) (A) (A) (A) (A) (A) (A) (A) (A)
                 (A) (A) (A) (A) (A) (A) (A) (A) (A) (A) (A) (A)
                 (A) (A) (A) (A) (A) (A) (A) (A) (A) (A) (A) (A)
                 (A) (A) (A) (A) (A) (A) (A) (A) (A) (A) (A) (A)
                 (A) (A) (A) (A) (A) (A) (A) (A) (A) (A) (A) (A)
                 (A) (A) (A) (A) (A) (A) (A) (A) (A) (A) (A) (A)
                 (A) (A) (A) (A) (A) (A) (A) (A) (A) (A) (A) (A)
                 (A) (A) (A) (A) (A) (A) (A) (A) (A) (A) (A) (A)
                 (A) (A) (A) (A) (A) (A) (A) (A) (A) (A) (A) (A)
                 (A) (A) (A) (A) (A) (A) (A) (A) (A) (A) (A) (A)
                 (A) (A) (A) (A) (A) (A) (A) (A) (A) (A) (A) (A)
                 (A) (A) (A) (A) (A) (A) (A) (A) (A) (A) (A) (A)
                 (A) (A) (A) (A) (A) (A) (A) (A) (A) (A) (A) (A)
 The electronic state is 1-A.
 Alpha  occ. eigenvalues --  -19.14451 -18.91378 -18.90674 -14.21057 -10.20256
 Alpha  occ. eigenvalues --  -10.13591 -10.13154 -10.12740 -10.11554 -10.11378
 Alpha  occ. eigenvalues --  -10.10994 -10.07853 -10.06697 -10.04062  -1.02806
 Alpha  occ. eigenvalues --   -0.81584  -0.79955  -0.77724  -0.70936  -0.69720
 Alpha  occ. eigenvalues --   -0.68279  -0.63981  -0.59547  -0.55474  -0.55377
 Alpha  occ. eigenvalues --   -0.50483  -0.47832  -0.45057  -0.40602  -0.38487
 Alpha  occ. eigenvalues --   -0.37656  -0.35933  -0.34730  -0.34328  -0.33660
 Alpha  occ. eigenvalues --   -0.31833  -0.29556  -0.28562  -0.27147  -0.26780
 Alpha  occ. eigenvalues --   -0.26362  -0.25017  -0.23191  -0.21184  -0.17623
 Alpha  occ. eigenvalues --   -0.16843  -0.15805  -0.15024  -0.09143  -0.02618
 Alpha  occ. eigenvalues --   -0.02419  -0.00305
 Alpha virt. eigenvalues --    0.09037   0.10527   0.16179   0.18893   0.21075
 Alpha virt. eigenvalues --    0.21831   0.24035   0.25123   0.26099   0.27198
 Alpha virt. eigenvalues --    0.27843   0.28964   0.31146   0.31606   0.32505
 Alpha virt. eigenvalues --    0.33433   0.35070   0.36475   0.37676   0.39157
 Alpha virt. eigenvalues --    0.39544   0.40116   0.42470   0.44259   0.46414
 Alpha virt. eigenvalues --    0.47142   0.48114   0.52186   0.53402   0.54921
 Alpha virt. eigenvalues --    0.56020   0.58268   0.58944   0.59568   0.60226
 Alpha virt. eigenvalues --    0.62697   0.63444   0.65207   0.65413   0.66305
 Alpha virt. eigenvalues --    0.66940   0.68977   0.70256   0.72378   0.74903
 Alpha virt. eigenvalues --    0.75705   0.77630   0.78690   0.80167   0.81102
 Alpha virt. eigenvalues --    0.81705   0.82196   0.83200   0.84237   0.84528
 Alpha virt. eigenvalues --    0.84930   0.86635   0.86870   0.87950   0.88516
 Alpha virt. eigenvalues --    0.89702   0.90831   0.91212   0.92164   0.92446
 Alpha virt. eigenvalues --    0.93793   0.94555   0.95048   0.95225   0.96861
 Alpha virt. eigenvalues --    0.98564   0.98767   1.01480   1.04827   1.07170
 Alpha virt. eigenvalues --    1.09145   1.10305   1.11045   1.13428   1.15853
 Alpha virt. eigenvalues --    1.17440   1.18311   1.21478   1.22453   1.25607
 Alpha virt. eigenvalues --    1.29784   1.30635   1.32738   1.33892   1.35258
 Alpha virt. eigenvalues --    1.37012   1.38287   1.39334   1.40128   1.41341
 Alpha virt. eigenvalues --    1.43876   1.47000   1.47987   1.48601   1.49845
 Alpha virt. eigenvalues --    1.54703   1.56113   1.60382   1.61578   1.63414
 Alpha virt. eigenvalues --    1.66004   1.70332   1.70841   1.74391   1.77812
 Alpha virt. eigenvalues --    1.78247   1.81924   1.84889   1.86167   1.86374
 Alpha virt. eigenvalues --    1.87960   1.89566   1.90731   1.92690   1.93924
 Alpha virt. eigenvalues --    1.95334   1.95821   1.96689   1.98869   1.98935
 Alpha virt. eigenvalues --    2.01831   2.02028   2.03830   2.05617   2.06683
 Alpha virt. eigenvalues --    2.09930   2.10330   2.11849   2.12350   2.14891
 Alpha virt. eigenvalues --    2.19251   2.20032   2.22110   2.23337   2.26735
 Alpha virt. eigenvalues --    2.29011   2.30388   2.31249   2.32869   2.33980
 Alpha virt. eigenvalues --    2.35938   2.38614   2.39986   2.40750   2.41711
 Alpha virt. eigenvalues --    2.43194   2.46361   2.48534   2.51266   2.51655
 Alpha virt. eigenvalues --    2.54840   2.58079   2.58832   2.63771   2.66047
 Alpha virt. eigenvalues --    2.67838   2.68768   2.74563   2.76239   2.78584
 Alpha virt. eigenvalues --    2.80691   2.82499   2.87179   2.88210   2.91068
 Alpha virt. eigenvalues --    2.92624   2.95989   2.96452   2.98473   3.01990
 Alpha virt. eigenvalues --    3.03739   3.04608   3.07797   3.11474   3.15013
 Alpha virt. eigenvalues --    3.21407   3.21916   3.25424   3.29326   3.30617
 Alpha virt. eigenvalues --    3.31765   3.33391   3.34393   3.36723   3.38841
 Alpha virt. eigenvalues --    3.41953   3.43397   3.44537   3.49364   3.56297
 Alpha virt. eigenvalues --    3.57782   3.60027   3.66925   3.67717   3.75611
 Alpha virt. eigenvalues --    3.89403   3.96301   3.99343   4.13719
     Molecular Orbital Coefficients:
                          48        49        50        51        52
                           O         O         O         O         O
     Eigenvalues --    -0.15024  -0.09143  -0.02618  -0.02419  -0.00305
   1 1   O  1S         -0.00443   0.01192   0.00121  -0.00150  -0.00477
   2        2S         -0.00883   0.02281   0.00331   0.00074  -0.00948
   3        3S         -0.00881   0.05446   0.00163  -0.06325  -0.05609
   4        4PX         0.01899  -0.03961  -0.33721   0.18559  -0.27366
   5        4PY         0.04595   0.00904  -0.27850  -0.33179   0.19532
   6        4PZ        -0.02794   0.02611   0.03433  -0.03690   0.37801
   7        5PX         0.01086  -0.02240  -0.26431   0.13880  -0.19824
   8        5PY         0.02949   0.00234  -0.23099  -0.26095   0.14069
   9        5PZ        -0.01754  -0.00280   0.02062  -0.00763   0.28622
  10        6D 0        0.00086  -0.00211  -0.00198   0.00287  -0.01221
  11        6D+1       -0.00057   0.00300   0.00717  -0.00297   0.00135
  12        6D-1       -0.00235  -0.00103   0.00752   0.00715  -0.00136
  13        6D+2       -0.00130   0.00053   0.00903   0.00133   0.00285
  14        6D-2       -0.00091  -0.00020   0.00274   0.00537  -0.00611
  15 2   N  1S          0.00338  -0.06925   0.00472  -0.01919  -0.02977
  16        2S          0.00997  -0.15986  -0.00200  -0.03380  -0.06747
  17        3S         -0.01735  -0.08939   0.11664  -0.13739  -0.13661
  18        4PX         0.01263   0.36067  -0.02634   0.07580   0.08282
  19        4PY         0.00204  -0.20038   0.01214  -0.05212  -0.04589
  20        4PZ        -0.01527   0.31525  -0.00441   0.01346   0.01120
  21        5PX         0.00002  -0.29145   0.05922  -0.09422  -0.03979
  22        5PY        -0.00755   0.13539  -0.01810   0.03535   0.01544
  23        5PZ         0.00740  -0.27201  -0.04427  -0.00146   0.00611
  24        6D 0       -0.00037  -0.00366   0.00165  -0.00302  -0.00353
  25        6D+1        0.00093   0.00987   0.00074  -0.00282   0.00265
  26        6D-1        0.00160  -0.00704  -0.00148   0.00379   0.00001
  27        6D+2       -0.00093   0.00547  -0.00107   0.00076   0.00271
  28        6D-2        0.00022  -0.00994  -0.00022  -0.00322  -0.00470
  29 3   H  1S          0.01473   0.06450  -0.00685   0.05284   0.02759
  30        2S          0.01593  -0.03086   0.00026   0.02756   0.03822
  31        3PX        -0.00040  -0.02000   0.00066  -0.00346  -0.00736
  32        3PY        -0.00093   0.00481  -0.00093   0.00055   0.00008
  33        3PZ         0.00115  -0.01825   0.00070  -0.00079  -0.00234
  34 4   C  1S          0.00075  -0.02500   0.00025  -0.00402  -0.00405
  35        2S         -0.00111   0.05481  -0.00465   0.02786   0.00825
  36        3S         -0.00902   0.15089   0.07202  -0.05098   0.07344
  37        4PX         0.04220  -0.10251   0.02853  -0.10503  -0.01828
  38        4PY         0.04126   0.04653  -0.03585   0.06717   0.00631
  39        4PZ         0.01618   0.02804   0.00295   0.00764  -0.03558
  40        5PX         0.02884  -0.13260  -0.09284   0.16191  -0.04470
  41        5PY         0.02694   0.07651   0.05053  -0.11353   0.04584
  42        5PZ        -0.01268  -0.01678   0.06828  -0.03005   0.14243
  43        6D 0       -0.00094   0.00600   0.02142  -0.04042   0.01413
  44        6D+1        0.00054   0.00639  -0.01799  -0.02535  -0.03191
  45        6D-1       -0.00131  -0.00232  -0.04246  -0.00926   0.02098
  46        6D+2        0.00376  -0.00344  -0.00715   0.00461  -0.00570
  47        6D-2        0.00076   0.00280   0.00213  -0.02331   0.00628
  48 5   O  1S          0.00293   0.00482  -0.00033   0.00071   0.00093
  49        2S          0.00587   0.01076  -0.00117   0.00121   0.00205
  50        3S          0.01332   0.01594   0.00418   0.00695   0.00414
  51        4PX        -0.13349   0.01096  -0.00190   0.00358   0.00270
  52        4PY         0.03848   0.00507  -0.00031   0.00058   0.00118
  53        4PZ         0.24682   0.01184   0.00137  -0.00218   0.00059
  54        5PX        -0.11551   0.00918  -0.00009   0.00484   0.00299
  55        5PY         0.03311  -0.00078   0.00023   0.00022  -0.00010
  56        5PZ         0.20668   0.01048   0.00240  -0.00138   0.00071
  57        6D 0       -0.00583  -0.00012  -0.00007   0.00008   0.00008
  58        6D+1       -0.00357  -0.00095   0.00004  -0.00002  -0.00009
  59        6D-1        0.00240   0.00002  -0.00001   0.00006  -0.00006
  60        6D+2        0.00172  -0.00089   0.00015  -0.00016  -0.00019
  61        6D-2       -0.00226   0.00034  -0.00000   0.00003   0.00007
  62 6   H  1S         -0.01128  -0.00966   0.00041  -0.00111  -0.00122
  63        2S         -0.00439  -0.01142   0.00186  -0.00099  -0.00256
  64        3PX        -0.00812   0.00052  -0.00017   0.00015   0.00022
  65        3PY         0.00318   0.00064  -0.00011   0.00003   0.00012
  66        3PZ         0.01368   0.00048   0.00005  -0.00007  -0.00010
  67 7   C  1S          0.00208   0.03764  -0.00220   0.00449   0.00785
  68        2S         -0.00625  -0.09140  -0.00024  -0.01333  -0.02433
  69        3S         -0.03496  -0.28878   0.11035  -0.01347  -0.03785
  70        4PX        -0.06344  -0.13771   0.00736  -0.01615  -0.01959
  71        4PY         0.01124   0.02894  -0.00256   0.00632   0.00213
  72        4PZ         0.13001  -0.06132   0.00752  -0.01288  -0.01463
  73        5PX        -0.04943  -0.12022   0.01910  -0.03607  -0.00501
  74        5PY        -0.01929   0.08051  -0.05301  -0.01388   0.00994
  75        5PZ         0.08154  -0.07871   0.01396  -0.03609  -0.02113
  76        6D 0       -0.00120  -0.00246   0.00023  -0.00095  -0.00092
  77        6D+1        0.00074  -0.00121   0.00034   0.00144  -0.00056
  78        6D-1        0.01643   0.00176  -0.00042   0.00066   0.00045
  79        6D+2       -0.00176   0.00245   0.00002   0.00046   0.00134
  80        6D-2       -0.00805   0.00353   0.00003   0.00030   0.00073
  81 8   C  1S          0.00104   0.01121  -0.00074   0.00158   0.00210
  82        2S         -0.00223  -0.02571   0.00023  -0.00404  -0.00509
  83        3S         -0.00967  -0.04457   0.00672   0.01224  -0.01993
  84        4PX         0.12232  -0.02118   0.00306  -0.00499  -0.00365
  85        4PY        -0.02573   0.01393  -0.00176   0.00226   0.00230
  86        4PZ        -0.25423  -0.02436  -0.00215   0.00345  -0.00133
  87        5PX         0.06766  -0.05321   0.00094  -0.00814  -0.01425
  88        5PY        -0.01658   0.03221   0.02134   0.02515   0.00829
  89        5PZ        -0.14800  -0.03872  -0.00595  -0.00179  -0.00702
  90        6D 0       -0.00579  -0.00012   0.00000  -0.00054   0.00062
  91        6D+1       -0.00854   0.00101  -0.00013  -0.00004   0.00072
  92        6D-1       -0.01457   0.00016  -0.00015   0.00064  -0.00052
  93        6D+2        0.00756   0.00065  -0.00005   0.00032  -0.00006
  94        6D-2        0.00656   0.00329  -0.00021   0.00014   0.00106
  95 9   C  1S         -0.00066  -0.01350   0.00093  -0.00211  -0.00250
  96        2S          0.00180   0.03114  -0.00198   0.00639   0.00547
  97        3S         -0.01078   0.13425  -0.04085  -0.02498   0.03661
  98        4PX         0.06295   0.03800  -0.00223   0.00806   0.00117
  99        4PY        -0.00907   0.02699  -0.00174   0.00431   0.00686
 100        4PZ        -0.15178   0.02709  -0.00165  -0.00463   0.01466
 101        5PX         0.04562   0.00026  -0.03436  -0.01549  -0.01230
 102        5PY        -0.01127   0.04747  -0.02316  -0.01619   0.01270
 103        5PZ        -0.11715   0.01813  -0.01168  -0.00898   0.01363
 104        6D 0        0.00982  -0.00075   0.00033  -0.00041  -0.00045
 105        6D+1        0.00963  -0.00161   0.00020  -0.00049  -0.00060
 106        6D-1       -0.00008  -0.00001   0.00000  -0.00015  -0.00010
 107        6D+2       -0.00568  -0.00630   0.00008  -0.00110  -0.00098
 108        6D-2        0.00085   0.00027  -0.00014  -0.00024  -0.00005
 109 10  H  1S         -0.00047   0.01973  -0.00165   0.00298   0.00297
 110        2S         -0.00271   0.02348  -0.01077  -0.00005   0.00245
 111        3PX         0.00284   0.00165   0.00056   0.00081   0.00026
 112        3PY        -0.00040   0.00030  -0.00017  -0.00005  -0.00009
 113        3PZ        -0.00523   0.00101   0.00014  -0.00014   0.00063
 114 11  C  1S          0.00102   0.00372   0.00045   0.00078   0.00321
 115        2S         -0.00587  -0.00946  -0.00159   0.00087  -0.00914
 116        3S          0.05291  -0.16506   0.03200  -0.05926  -0.02715
 117        4PX        -0.14006  -0.01600  -0.00044  -0.00171  -0.00998
 118        4PY         0.01696  -0.02083   0.00197  -0.00715  -0.00073
 119        4PZ         0.29608   0.01389  -0.00037  -0.00711   0.00609
 120        5PX        -0.11572   0.06218   0.00213   0.02299  -0.00158
 121        5PY        -0.00778  -0.07098  -0.00187  -0.02577  -0.01056
 122        5PZ         0.21502   0.05128  -0.00545   0.01761   0.01087
 123        6D 0       -0.00194  -0.00150  -0.00013   0.00006  -0.00052
 124        6D+1       -0.00256  -0.00166  -0.00013   0.00082  -0.00048
 125        6D-1       -0.00369   0.00174  -0.00022  -0.00007   0.00059
 126        6D+2        0.00193  -0.00115   0.00027  -0.00067   0.00043
 127        6D-2        0.00127   0.00426  -0.00030   0.00088   0.00048
 128 12  H  1S         -0.00191   0.00039  -0.00168  -0.00053  -0.00258
 129        2S          0.01606   0.10661  -0.01463   0.03237   0.02322
 130        3PX        -0.00581   0.00233   0.00006   0.00034   0.00076
 131        3PY         0.00044  -0.00094   0.00016   0.00030  -0.00015
 132        3PZ         0.01164   0.00052  -0.00002  -0.00001   0.00067
 133 13  C  1S          0.00148   0.00242  -0.00013   0.00063   0.00068
 134        2S         -0.00316  -0.00352  -0.00044  -0.00100  -0.00142
 135        3S          0.00168  -0.04614  -0.01765  -0.02532  -0.01320
 136        4PX         0.10409   0.00360   0.00029  -0.00462   0.00460
 137        4PY        -0.01065  -0.00701   0.00039  -0.00038  -0.00189
 138        4PZ        -0.20705  -0.01950  -0.00004   0.00571  -0.01298
 139        5PX         0.08825   0.00239  -0.00076  -0.00771   0.00686
 140        5PY        -0.02050   0.02809   0.00925   0.01915   0.00122
 141        5PZ        -0.17031  -0.02166  -0.00156   0.00553  -0.01519
 142        6D 0       -0.00161  -0.00008   0.00007  -0.00016   0.00022
 143        6D+1        0.00116   0.00003  -0.00001  -0.00013   0.00034
 144        6D-1        0.01373   0.00067   0.00026  -0.00049   0.00020
 145        6D+2       -0.00139  -0.00043   0.00001   0.00026   0.00004
 146        6D-2       -0.00651  -0.00027  -0.00004   0.00018  -0.00015
 147 14  H  1S         -0.00070  -0.00085   0.00016   0.00065   0.00115
 148        2S          0.00417   0.00117   0.00065   0.00164   0.00352
 149        3PX         0.00408   0.00028   0.00001  -0.00019   0.00022
 150        3PY        -0.00038  -0.00071  -0.00016  -0.00034  -0.00012
 151        3PZ        -0.00827  -0.00080   0.00003   0.00027  -0.00069
 152 15  C  1S          0.00308  -0.02074   0.00578  -0.00540  -0.00299
 153        2S         -0.00885   0.03238  -0.01307   0.01312   0.00351
 154        3S          0.01286   0.12363  -0.09313   0.00284   0.00561
 155        4PX         0.00991   0.09058  -0.01618   0.01251   0.01800
 156        4PY        -0.01622  -0.00383  -0.00249   0.00799   0.00999
 157        4PZ        -0.03592   0.03510   0.00612  -0.00517  -0.00042
 158        5PX         0.00088  -0.08979   0.03954  -0.02897   0.00304
 159        5PY         0.01447   0.02344   0.01569   0.03788   0.03505
 160        5PZ        -0.01775  -0.02339   0.02517   0.00661  -0.01053
 161        6D 0       -0.00640   0.00463   0.00030  -0.00044   0.00066
 162        6D+1       -0.00136  -0.01513   0.00064  -0.00135  -0.00179
 163        6D-1        0.00290  -0.00645  -0.00014   0.00046  -0.00063
 164        6D+2        0.00041  -0.02156   0.00130  -0.00505  -0.00607
 165        6D-2       -0.00127   0.00757  -0.00043   0.00125   0.00216
 166 16  H  1S         -0.04822   0.06648   0.00279  -0.00182   0.00480
 167        2S         -0.02836   0.02348   0.00710  -0.01872   0.00721
 168        3PX        -0.00069   0.00394  -0.00177   0.00081   0.00056
 169        3PY        -0.00026  -0.00262  -0.00061  -0.00039  -0.00052
 170        3PZ         0.00036  -0.00104  -0.00033   0.00009   0.00023
 171 17  H  1S          0.03002   0.05982  -0.01058   0.01939   0.01130
 172        2S          0.02623   0.04904   0.05537   0.05650   0.04886
 173        3PX         0.00004   0.00312  -0.00085   0.00082   0.00078
 174        3PY         0.00010   0.00088   0.00065   0.00037  -0.00007
 175        3PZ        -0.00105   0.00401   0.00018  -0.00044   0.00054
 176 18  C  1S         -0.00059   0.00309  -0.00047   0.00007  -0.00032
 177        2S          0.00228  -0.00860   0.00112   0.00082   0.00039
 178        3S         -0.01822   0.11319  -0.00648   0.03730   0.01550
 179        4PX        -0.05865  -0.01220  -0.00021   0.00389  -0.00140
 180        4PY         0.00471   0.00967  -0.00047  -0.00002   0.00065
 181        4PZ         0.11331   0.00160   0.00336  -0.00726   0.00667
 182        5PX        -0.05764   0.04673  -0.00291   0.02953   0.00056
 183        5PY         0.01862  -0.01473   0.00027  -0.00554  -0.00301
 184        5PZ         0.08272   0.03494   0.00456   0.00216   0.01082
 185        6D 0        0.01354   0.00002   0.00010  -0.00068   0.00057
 186        6D+1        0.01268   0.00126  -0.00003  -0.00031   0.00064
 187        6D-1        0.00356  -0.00063   0.00008  -0.00038   0.00015
 188        6D+2       -0.00821  -0.00194   0.00009  -0.00011  -0.00069
 189        6D-2       -0.00027  -0.00167   0.00014  -0.00042  -0.00034
 190 19  H  1S         -0.00108   0.01338  -0.00083   0.00211   0.00171
 191        2S         -0.00670   0.00732  -0.00057   0.00427   0.00072
 192        3PX        -0.00209  -0.00150   0.00007  -0.00032  -0.00013
 193        3PY         0.00016   0.00034  -0.00002   0.00010   0.00013
 194        3PZ         0.00477  -0.00053   0.00012  -0.00052   0.00025
 195 20  C  1S         -0.00299   0.00246   0.02055  -0.05491   0.00029
 196        2S          0.00533  -0.00167  -0.03508   0.13355  -0.00479
 197        3S          0.00615  -0.13160  -0.30235   0.42140  -0.01393
 198        4PX        -0.02881   0.03306  -0.08193   0.20105  -0.02920
 199        4PY        -0.02309  -0.00059   0.05535  -0.15862   0.00840
 200        4PZ        -0.02908   0.11339  -0.00475  -0.00480  -0.01701
 201        5PX        -0.00617  -0.06366  -0.15074   0.15105  -0.09116
 202        5PY        -0.02049   0.06333   0.03333  -0.20458   0.05496
 203        5PZ        -0.00687   0.01813  -0.09795   0.00590   0.04288
 204        6D 0       -0.00023  -0.00709   0.00138  -0.00594  -0.00572
 205        6D+1        0.00183  -0.02134   0.00180  -0.00545   0.00304
 206        6D-1        0.00039   0.00729  -0.00094   0.00146  -0.00081
 207        6D+2        0.00198   0.00504  -0.00057   0.00028   0.00236
 208        6D-2        0.00127  -0.00897   0.00096  -0.00353  -0.00036
 209 21  H  1S          0.04110  -0.12550   0.01367  -0.04748   0.03038
 210        2S          0.01505  -0.08505  -0.04532  -0.17490  -0.03292
 211        3PX         0.00192  -0.00068  -0.00454   0.00253  -0.00210
 212        3PY         0.00021  -0.00492   0.00211  -0.00422   0.00106
 213        3PZ         0.00080   0.00094   0.00033  -0.00030   0.00067
 214 22  C  1S          0.00176   0.00828  -0.00011   0.00576  -0.00283
 215        2S         -0.00523  -0.01843  -0.01079  -0.01973   0.00602
 216        3S          0.01598  -0.03029   0.08437   0.06801   0.03331
 217        4PX        -0.01049   0.02141   0.00445  -0.01024   0.00861
 218        4PY         0.02738   0.02610  -0.01341   0.04254  -0.01255
 219        4PZ         0.00792  -0.03302   0.03242  -0.01498  -0.01947
 220        5PX        -0.01063   0.04284   0.03239   0.04076   0.01252
 221        5PY         0.02013   0.03042  -0.06519   0.02642  -0.00398
 222        5PZ         0.00204   0.03061   0.08743  -0.01243  -0.06591
 223        6D 0       -0.00167   0.00331  -0.00030  -0.00245   0.00102
 224        6D+1        0.00076  -0.00385   0.00030   0.00034  -0.00022
 225        6D-1        0.00138  -0.00295   0.00054  -0.00053  -0.00056
 226        6D+2        0.00028   0.00054   0.00128  -0.00397   0.00082
 227        6D-2       -0.00033  -0.00345   0.00365  -0.00971   0.00185
 228 23  H  1S          0.01800  -0.00540  -0.01152   0.04712  -0.01621
 229        2S         -0.02214   0.02450   0.00055   0.08523  -0.01205
 230        3PX         0.00153  -0.00195   0.00032   0.00081  -0.00049
 231        3PY         0.00112  -0.00031  -0.00070   0.00179  -0.00066
 232        3PZ         0.00024  -0.00019   0.00010  -0.00059   0.00059
 233 24  H  1S         -0.01326   0.04050  -0.01905  -0.01041   0.01367
 234        2S         -0.00542   0.06581   0.09249  -0.05201  -0.08442
 235        3PX        -0.00012   0.00014   0.00063  -0.00174  -0.00022
 236        3PY         0.00012   0.00084  -0.00268   0.00295   0.00237
 237        3PZ        -0.00006  -0.00032   0.00109  -0.00014   0.00003
 238 25  H  1S          0.00503  -0.02009   0.01542  -0.03044   0.00193
 239        2S          0.00863  -0.06821  -0.06233  -0.10144   0.03146
 240        3PX        -0.00043   0.00153  -0.00058  -0.00048   0.00008
 241        3PY         0.00078   0.00072   0.00225   0.00239  -0.00145
 242        3PZ         0.00020  -0.00254   0.00055   0.00026   0.00037
 243 26  O  1S          0.00285   0.00165  -0.00008  -0.00242   0.01207
 244        2S          0.00615   0.00228  -0.00662  -0.00047   0.02496
 245        3S          0.00172   0.00344   0.05977  -0.06876   0.08812
 246        4PX         0.04477  -0.13981   0.08764   0.41050   0.28064
 247        4PY         0.03560   0.05068   0.42596  -0.08422  -0.14993
 248        4PZ        -0.01886  -0.08488  -0.04621   0.00206   0.24690
 249        5PX         0.02909  -0.08922   0.08112   0.31276   0.21714
 250        5PY         0.02206   0.02827   0.34733  -0.05547  -0.11469
 251        5PZ        -0.01337  -0.05347  -0.02038  -0.02026   0.20225
 252        6D 0       -0.00056  -0.00434  -0.00256   0.00140   0.00849
 253        6D+1        0.00242  -0.00442   0.00346   0.00944   0.00481
 254        6D-1        0.00177   0.00078   0.01086  -0.00115  -0.00195
 255        6D+2       -0.00113   0.00094  -0.00600  -0.00304  -0.00188
 256        6D-2        0.00007  -0.00204  -0.00320   0.00257   0.00519
                          53        54        55        56        57
                           V         V         V         V         V
     Eigenvalues --     0.09037   0.10527   0.16179   0.18893   0.21075
   1 1   O  1S         -0.00098  -0.00025  -0.00015  -0.00284   0.00730
   2        2S         -0.00171  -0.00173  -0.00019  -0.00579   0.01476
   3        3S         -0.00867   0.01111  -0.00216  -0.01723   0.04596
   4        4PX         0.01332   0.00375  -0.00019   0.00067  -0.01732
   5        4PY        -0.02173  -0.00618  -0.00030  -0.00981   0.01168
   6        4PZ        -0.00819  -0.00474  -0.00028  -0.00529   0.00745
   7        5PX         0.01176   0.00003  -0.00084  -0.00133  -0.01657
   8        5PY        -0.01914  -0.00398   0.00009  -0.00334   0.00808
   9        5PZ        -0.00505  -0.00459   0.00112   0.00443  -0.01091
  10        6D 0        0.00023   0.00020  -0.00002   0.00000   0.00017
  11        6D+1       -0.00017   0.00002  -0.00003  -0.00056   0.00120
  12        6D-1        0.00047   0.00012   0.00001   0.00031  -0.00045
  13        6D+2       -0.00004  -0.00002   0.00000  -0.00020   0.00034
  14        6D-2        0.00019   0.00002   0.00002   0.00014  -0.00060
  15 2   N  1S         -0.00621  -0.01379  -0.00071  -0.01338   0.04259
  16        2S         -0.02097  -0.01961  -0.00041  -0.02724   0.08288
  17        3S          0.02720  -0.17478  -0.00710  -0.09045   0.38636
  18        4PX        -0.03776  -0.04073   0.00315  -0.03799   0.03750
  19        4PY        -0.00989  -0.02126   0.01478   0.06191  -0.09759
  20        4PZ        -0.01392   0.00886   0.00304   0.00922  -0.03800
  21        5PX        -0.00148   0.06974  -0.01119   0.02524  -0.02018
  22        5PY         0.01049   0.03079  -0.01698  -0.11116   0.21780
  23        5PZ         0.02990  -0.00398  -0.00751  -0.01555   0.06880
  24        6D 0        0.00008   0.00210   0.00027   0.00023  -0.00174
  25        6D+1       -0.00045  -0.00136   0.00032   0.00124  -0.00358
  26        6D-1       -0.00082  -0.00122  -0.00003   0.00103  -0.00085
  27        6D+2        0.00097   0.00048   0.00032   0.00250  -0.00278
  28        6D-2        0.00053   0.00063  -0.00002   0.00129  -0.00230
  29 3   H  1S         -0.01139  -0.00138  -0.00211  -0.00680  -0.01098
  30        2S         -0.01572   0.04077   0.04310   0.22828  -0.66878
  31        3PX         0.00303   0.00186  -0.00110   0.00007   0.00079
  32        3PY         0.00090  -0.00022   0.00022   0.00380  -0.00367
  33        3PZ        -0.00006   0.00071   0.00006   0.00154  -0.00216
  34 4   C  1S         -0.00287   0.00094   0.00046   0.00535  -0.00469
  35        2S          0.00713  -0.00231  -0.00016  -0.01042   0.01557
  36        3S          0.01287  -0.02429  -0.01638  -0.05278  -0.05515
  37        4PX        -0.00988   0.00398   0.00149   0.01869  -0.01644
  38        4PY         0.00776  -0.00253  -0.00067  -0.00455   0.00627
  39        4PZ         0.00092  -0.00145  -0.00023  -0.00323   0.00249
  40        5PX         0.00075   0.00965   0.01038   0.04430  -0.03195
  41        5PY         0.00289  -0.00549  -0.00590  -0.04219   0.03907
  42        5PZ         0.00479  -0.02198   0.00179   0.00392   0.00110
  43        6D 0       -0.00164   0.00074  -0.00001   0.00012   0.00051
  44        6D+1       -0.00012  -0.00070   0.00015  -0.00015   0.00183
  45        6D-1       -0.00008   0.00037  -0.00009   0.00011  -0.00102
  46        6D+2       -0.00096  -0.00023  -0.00030  -0.00177   0.00173
  47        6D-2       -0.00141   0.00030   0.00022   0.00136  -0.00255
  48 5   O  1S         -0.00145  -0.00200  -0.07132   0.04803   0.03211
  49        2S         -0.00169  -0.00295  -0.11792   0.10152   0.06497
  50        3S         -0.02156  -0.01321  -0.77495   0.34308   0.27441
  51        4PX        -0.01165   0.08099   0.13278  -0.00391   0.01377
  52        4PY         0.00239  -0.01571  -0.07418   0.08393   0.03762
  53        4PZ         0.02544  -0.14572   0.09011  -0.02005  -0.02106
  54        5PX        -0.00942   0.09889   0.21103  -0.05216  -0.00002
  55        5PY        -0.00056  -0.01894  -0.08552   0.06768   0.05433
  56        5PZ         0.03180  -0.16789   0.14492  -0.04778  -0.03761
  57        6D 0        0.00045   0.00739   0.00203   0.00032   0.00107
  58        6D+1        0.00005   0.00749  -0.00569   0.00117   0.00160
  59        6D-1       -0.00220   0.00437   0.00443  -0.00354  -0.00087
  60        6D+2        0.00029  -0.00432  -0.00009  -0.00072  -0.00088
  61        6D-2        0.00129  -0.00100   0.00467  -0.00563  -0.00258
  62 6   H  1S          0.00640   0.01503   0.06058  -0.01924  -0.01584
  63        2S          0.02000   0.02070   1.23621  -0.61030  -0.35394
  64        3PX         0.00193   0.00503  -0.00417   0.00230   0.00097
  65        3PY         0.00027  -0.00235   0.00103   0.00693   0.00380
  66        3PZ        -0.00239  -0.01030  -0.00238   0.00058  -0.00166
  67 7   C  1S         -0.00465  -0.00062  -0.00300   0.01785   0.00741
  68        2S          0.01280   0.00301   0.01286  -0.05487   0.02112
  69        3S          0.03107  -0.06486  -0.23712   0.00318   0.05435
  70        4PX         0.13312   0.12125  -0.02168   0.00427   0.01339
  71        4PY        -0.02274  -0.01825  -0.02914   0.02013   0.00066
  72        4PZ        -0.24849  -0.24257  -0.00003   0.00397   0.01567
  73        5PX         0.25528   0.15719   0.19282   0.24039  -0.55730
  74        5PY         0.04099  -0.13462  -0.05051   0.07038   0.16815
  75        5PZ        -0.30041  -0.30003   0.11670   0.12580  -0.33695
  76        6D 0       -0.00532  -0.00006   0.00107   0.00149  -0.00565
  77        6D+1       -0.00761   0.00205  -0.00012   0.00423   0.00657
  78        6D-1       -0.01758   0.02305  -0.00097  -0.00231  -0.00382
  79        6D+2        0.00552  -0.00106   0.00000   0.00834  -0.00830
  80        6D-2        0.00730  -0.00839  -0.00226  -0.00673  -0.00117
  81 8   C  1S          0.00042   0.00014   0.00101   0.02113   0.00049
  82        2S         -0.00081  -0.00238  -0.02106  -0.03582   0.01727
  83        3S         -0.05322  -0.01757  -0.66258  -0.13050   0.55607
  84        4PX         0.02489  -0.17096  -0.03448   0.06571   0.03331
  85        4PY        -0.00873   0.03501  -0.05659   0.07229   0.06956
  86        4PZ        -0.05371   0.36860  -0.00859   0.02619   0.06398
  87        5PX         0.01875  -0.21076  -0.02677  -0.19122   0.09292
  88        5PY        -0.03153   0.05690  -0.41110   0.07963   0.23186
  89        5PZ        -0.07286   0.45816   0.03341  -0.10134   0.09155
  90        6D 0        0.01844   0.00179   0.00459  -0.00661  -0.00528
  91        6D+1        0.01339   0.00079  -0.00569   0.00296   0.00101
  92        6D-1       -0.02052  -0.00443   0.00093   0.00724   0.00303
  93        6D+2       -0.00761  -0.00120  -0.00105  -0.00289  -0.00169
  94        6D-2        0.01128   0.00298  -0.00008   0.01903   0.01080
  95 9   C  1S          0.00124   0.00003   0.02096   0.01592  -0.01334
  96        2S         -0.00686  -0.00207  -0.05581  -0.02602   0.06520
  97        3S          0.13154  -0.02622   0.11019   0.15913  -0.36722
  98        4PX        -0.13063   0.04684   0.03615  -0.01703   0.03343
  99        4PY         0.01374  -0.00652   0.00298   0.00516  -0.02823
 100        4PZ         0.28631  -0.08209   0.00857  -0.00745  -0.01425
 101        5PX        -0.17049   0.03429   0.06842  -0.07866   0.14694
 102        5PY         0.07385  -0.02327   0.19358   0.26603  -0.43327
 103        5PZ         0.42257  -0.14821   0.00066  -0.05417   0.06313
 104        6D 0       -0.00479  -0.02177  -0.00031  -0.00474  -0.00396
 105        6D+1       -0.00615  -0.02242   0.00073  -0.00142   0.00153
 106        6D-1       -0.01080  -0.00385   0.00250  -0.00551  -0.00464
 107        6D+2        0.00558   0.01223   0.00098  -0.01171  -0.00274
 108        6D-2        0.00521  -0.00090   0.00469  -0.00978  -0.00892
 109 10  H  1S         -0.00301   0.00301  -0.01502   0.05064   0.03002
 110        2S         -0.00500  -0.00153   0.15094   0.36261  -0.36220
 111        3PX        -0.00806   0.00258  -0.00309   0.00350   0.00328
 112        3PY         0.00123  -0.00035  -0.00278  -0.00735   0.00026
 113        3PZ         0.01545  -0.00528  -0.00153   0.00200  -0.00036
 114 11  C  1S          0.00048   0.00442   0.01152   0.04118  -0.05287
 115        2S         -0.00138  -0.01509  -0.01958  -0.10493   0.14287
 116        3S         -0.03489   0.13003   0.27694  -0.58139   0.20951
 117        4PX         0.04753  -0.14196   0.01042  -0.06796   0.06492
 118        4PY        -0.00333   0.02536  -0.01723  -0.06854   0.04258
 119        4PZ        -0.08912   0.29618   0.00283  -0.03288   0.02150
 120        5PX         0.04082  -0.25103  -0.15620  -0.40339   0.57010
 121        5PY         0.02752  -0.05071  -0.11573  -0.10175   0.50353
 122        5PZ        -0.13873   0.42996  -0.07078  -0.17214   0.19102
 123        6D 0       -0.01746   0.00069  -0.00110  -0.00086  -0.00151
 124        6D+1       -0.01381   0.00270   0.00214  -0.00195  -0.00015
 125        6D-1        0.01910   0.01114   0.00302   0.00304   0.00300
 126        6D+2        0.00751  -0.00187   0.00248   0.00024  -0.00185
 127        6D-2       -0.01045  -0.00709   0.00776   0.00831   0.00323
 128 12  H  1S          0.00163  -0.00294   0.02490   0.00413   0.01738
 129        2S         -0.01497   0.06562   0.17218   0.89372  -1.02611
 130        3PX         0.00277  -0.00939   0.00520   0.00689  -0.01038
 131        3PY        -0.00037   0.00068   0.00280   0.00632  -0.00470
 132        3PZ        -0.00448   0.01704   0.00201   0.00071  -0.00331
 133 13  C  1S         -0.00100  -0.00086   0.05646   0.01843   0.01989
 134        2S          0.00282   0.00396  -0.13568  -0.03606  -0.03214
 135        3S          0.00867   0.03419  -0.31302  -0.63226  -1.25953
 136        4PX         0.11993   0.09035   0.11369   0.05793   0.09715
 137        4PY        -0.02195  -0.01661  -0.03216  -0.03693  -0.03473
 138        4PZ        -0.23582  -0.17875   0.06545   0.02123   0.01495
 139        5PX         0.17985   0.16437   0.71996   0.30240   0.31460
 140        5PY        -0.05522  -0.01370  -0.44877   0.10722   0.06703
 141        5PZ        -0.36575  -0.27641   0.40043   0.14014   0.07190
 142        6D 0        0.00834   0.00425   0.00005   0.00239   0.00254
 143        6D+1        0.01016  -0.00022  -0.00181   0.00669   0.00002
 144        6D-1        0.01801  -0.02489   0.00555  -0.00716  -0.00691
 145        6D+2       -0.00717   0.00235  -0.00088   0.00984  -0.00005
 146        6D-2       -0.00719   0.01158   0.01097  -0.01726  -0.00983
 147 14  H  1S         -0.00007   0.00389  -0.04095   0.05427   0.01169
 148        2S         -0.00018   0.00937   1.41452   0.86467   1.12254
 149        3PX         0.00684   0.00535  -0.00748  -0.00312   0.00215
 150        3PY        -0.00122  -0.00101  -0.00626   0.00749   0.00556
 151        3PZ        -0.01400  -0.01206  -0.00309  -0.00285  -0.00195
 152 15  C  1S         -0.00149  -0.00061   0.00299  -0.00056  -0.03918
 153        2S          0.01218  -0.00036   0.00150   0.02810   0.01754
 154        3S         -0.09671  -0.04707  -0.18677  -0.51586   1.77229
 155        4PX         0.00462   0.01424   0.00137  -0.02852  -0.05664
 156        4PY         0.00441   0.02155  -0.00184   0.04574  -0.04503
 157        4PZ         0.01852   0.01875   0.00041  -0.04362   0.08383
 158        5PX         0.01038   0.08887   0.05709   0.01617  -0.31151
 159        5PY        -0.09467   0.10983  -0.03514   0.02921  -0.07345
 160        5PZ         0.02124  -0.03300   0.02230  -0.06414   0.25340
 161        6D 0        0.01511   0.01610  -0.00035   0.00134  -0.00409
 162        6D+1        0.00596   0.00617  -0.00063  -0.00264   0.00271
 163        6D-1       -0.00581  -0.00071   0.00099   0.00208  -0.00352
 164        6D+2       -0.00245  -0.00491   0.00091  -0.00012   0.00282
 165        6D-2        0.00251  -0.00088   0.00189  -0.00129   0.00656
 166 16  H  1S          0.06208   0.07230   0.00045   0.00039  -0.01343
 167        2S          0.12833   0.16906   0.04568   0.24969  -1.10626
 168        3PX         0.00360   0.00344  -0.00111  -0.00206   0.00200
 169        3PY        -0.00041  -0.00010   0.00058   0.00399  -0.00529
 170        3PZ         0.00218   0.00232   0.00008   0.00066  -0.00406
 171 17  H  1S         -0.04251  -0.02256  -0.00247  -0.00738  -0.00676
 172        2S         -0.11895   0.02739  -0.01118   0.16564  -0.44864
 173        3PX         0.00033  -0.00262  -0.00054  -0.00062  -0.00504
 174        3PY         0.00122  -0.00012  -0.00097  -0.00075   0.00555
 175        3PZ         0.00072  -0.00078  -0.00092  -0.00359   0.00385
 176 18  C  1S         -0.00075   0.00017  -0.00434   0.06672   0.03883
 177        2S         -0.00243   0.00194   0.02031  -0.17513  -0.08455
 178        3S          0.01601  -0.08668  -0.57374  -1.56742  -0.27325
 179        4PX        -0.15527   0.05517  -0.02430   0.04761   0.01409
 180        4PY         0.01853  -0.00475  -0.06947  -0.11809  -0.03758
 181        4PZ         0.32309  -0.10487  -0.00896   0.04534   0.02716
 182        5PX        -0.23927   0.06597  -0.12149   0.11777   0.04420
 183        5PY         0.01448   0.04567   0.14272  -0.64990  -0.52038
 184        5PZ         0.46851  -0.15585  -0.07424   0.09425   0.12710
 185        6D 0        0.00278   0.01992   0.00196  -0.00070  -0.00218
 186        6D+1        0.00371   0.01796  -0.00551  -0.00344   0.00452
 187        6D-1        0.01135   0.00358  -0.00249  -0.00142   0.00096
 188        6D+2       -0.00315  -0.01240  -0.00504  -0.00738  -0.00024
 189        6D-2       -0.00469   0.00121  -0.00446  -0.00157  -0.00195
 190 19  H  1S         -0.00007  -0.00018  -0.00138   0.01482   0.01149
 191        2S          0.00280  -0.02085   0.19385   1.79315   0.90948
 192        3PX        -0.00835   0.00371  -0.00213   0.00076  -0.00437
 193        3PY         0.00107  -0.00044  -0.00102   0.00474   0.00407
 194        3PZ         0.01836  -0.00622  -0.00108   0.00144  -0.00127
 195 20  C  1S          0.00442  -0.00191   0.00053   0.00774  -0.01734
 196        2S         -0.01807   0.01326  -0.00032  -0.01298   0.01585
 197        3S          0.05369  -0.02157  -0.00686  -0.04010   0.31852
 198        4PX         0.02690   0.00355  -0.00091   0.00701  -0.01987
[...]
 26,0.00335714,-0.00699221,0.01308822,-0.00517265,0.00372252,-0.0011947
 8,0.00839759,-0.00105038,-0.00578758,-0.00537012,0.00296262,-0.0005293
 1,-0.00026724,0.00041647,0.00101433,0.00005240,0.00000075,-0.00004415,
 -0.00013387,-0.00020373,-0.00004354,-0.09287750,-0.18031487,0.27359726
 ,0.08051066,-0.00002325,-0.00001998,-0.00001877,-0.00003705,0.00014138
 ,-0.00020027,0.00000374,0.00004495,-0.00003852,0.00007224,0.00003285,-
 0.00003581,0.00026736,0.00045720,-0.00127932,0.00003891,0.00016017,0.0
 0014485,-0.00570238,-0.00384934,-0.00189110,-0.00322028,0.00098935,-0.
 00398208,0.00026274,-0.00095035,-0.00107047,0.00041046,-0.00021215,0.0
 0010542,-0.01321074,-0.00807520,0.02734908,0.00377937,0.00065697,0.000
 05662,0.00561953,0.01296804,-0.01842709,0.00295264,-0.00041472,0.00203
 332,-0.00010888,0.00010884,0.00153063,-0.00006768,-0.00011949,0.000039
 77,-0.00003196,-0.00045767,-0.00002961,-0.18098159,-0.19486263,0.34459
 887,0.19001457,0.19339571,0.00002877,0.00003436,-0.00000797,0.00001079
 ,0.00008557,-0.00000288,0.00001114,-0.00004411,-0.00004863,-0.00007908
 ,-0.00002793,0.00000954,0.00055916,0.00057614,-0.00186631,0.00006402,0
 .00030198,0.00026801,-0.00002316,-0.00266934,0.00124888,0.00012642,-0.
 00412639,-0.00307579,-0.00053438,-0.00066399,0.00000358,-0.00013201,0.
 00007754,-0.00003606,-0.00527689,-0.00965673,0.01147069,-0.00063043,0.
 00150253,0.00050015,0.01349539,0.01869406,-0.01721313,-0.00135721,0.00
 049240,0.00207572,-0.00019423,-0.00019200,0.00046001,0.00004131,0.0000
 1996,-0.00000252,-0.00004285,-0.00010853,0.00000075,0.27301524,0.34457
 118,-0.52334202,-0.27917083,-0.34888470,0.52957363,-0.00549844,-0.0096
 2247,0.00156038,-0.14873256,0.04194191,0.00391518,-0.02341355,0.021664
 15,-0.00943509,-0.13387718,-0.05717099,0.01289368,0.00006559,0.0005779
 3,0.00045268,0.00004964,-0.00006232,-0.00000566,0.00129128,-0.00160251
 ,0.00270483,-0.00086508,-0.00068989,0.00007622,0.00040533,0.00250071,0
 .00056241,0.00044207,-0.00037885,0.00006584,-0.00024975,0.00072798,-0.
 00096658,-0.00037299,-0.00054292,0.00058103,0.00029998,0.00066070,-0.0
 0014062,-0.00001876,0.00005229,0.00001488,-0.01601443,0.00932855,-0.01
 108144,0.00152699,-0.00018316,-0.00013113,0.00154711,-0.00050322,0.002
 12100,0.00005807,0.00027792,0.00015540,0.00032031,0.00003547,0.0000458
 1,0.44527894,-0.02930454,-0.04867426,0.00815469,0.09015403,-0.11251422
 ,-0.00007417,-0.00780921,-0.00629956,0.00394592,-0.04592977,-0.0951078
 7,0.00504153,-0.00009561,-0.00037721,-0.00055986,-0.00007804,0.0000910
 4,0.00003914,-0.00480491,0.00375804,-0.00346903,0.00066646,-0.00010043
 ,0.00036559,0.00041731,-0.00140984,-0.00016417,-0.00033650,0.00032925,
 -0.00008346,0.00004487,-0.00080204,0.00019351,-0.00002601,0.00059410,-
 0.00007232,-0.00019673,-0.00038241,-0.00032265,0.00000414,-0.00003998,
 -0.00003335,-0.00821290,-0.00272154,0.00383052,-0.00083487,0.00026205,
 -0.00154740,0.00113568,-0.00041363,-0.00097045,0.00024809,0.00003700,0
 .00013732,-0.00010941,0.00000161,0.00002260,0.00585857,0.73775254,0.00
 214757,0.00234682,0.02093942,-0.00609661,-0.00339439,-0.10350713,0.022
 67773,-0.01857568,0.00687201,0.01008519,0.00597112,-0.09232678,0.00006
 224,0.00018767,0.00031487,-0.00002945,-0.00003355,-0.00003713,-0.00054
 715,0.00093905,0.00117186,0.00007004,-0.00005924,-0.00026787,0.0005673
 5,0.00015045,-0.00014228,-0.00010127,0.00005456,-0.00004206,0.00009891
 ,0.00027094,0.00002582,-0.00008989,-0.00018523,0.00006930,-0.00001118,
 0.00011991,0.00025364,-0.00000179,0.00002214,0.00001927,-0.02685624,0.
 02129744,-0.00690628,-0.00331035,-0.00191511,-0.00540938,-0.00002578,0
 .00087603,0.00167707,-0.00009993,-0.00037866,-0.00010561,0.00000567,0.
 00002910,-0.00001252,-0.00496237,0.26871808,0.63999525,-0.00396125,-0.
 00402084,0.00382173,-0.01408854,0.03232019,0.01767235,-0.00159544,0.00
 358006,-0.00039913,0.00313354,-0.02303962,-0.02140626,-0.00001207,0.00
 002773,0.00015735,-0.00000416,-0.00002513,-0.00002990,-0.00056966,-0.0
 0084478,-0.00057563,-0.00001688,0.00017495,-0.00027678,-0.00021775,-0.
 00039926,-0.00012472,0.00009463,0.00000563,0.00005313,-0.00035021,-0.0
 0009637,0.00014795,-0.00004328,0.00011992,0.00000250,-0.00004029,0.000
 02118,0.00020928,0.00000518,-0.00000096,0.00001063,0.00257335,0.000767
 35,0.00264517,0.00025697,-0.00017367,0.00044959,-0.00003397,0.00006850
 ,-0.00046338,-0.00000541,-0.00022202,-0.00010558,-0.00000987,-0.000005
 80,-0.00000432,0.00323296,-0.01441029,-0.01722246,0.00943088,-0.003849
 31,-0.00134297,0.00280443,0.00886677,-0.01832261,-0.00796728,0.0001442
 6,-0.00233706,0.00045950,0.00359593,-0.01668269,-0.01486733,-0.0000075
 3,0.00002857,-0.00000549,0.00001842,0.00000889,0.00002037,0.00090224,0
 .00046293,0.00086755,-0.00009259,0.00006934,0.00016426,-0.00014656,0.0
 0047584,0.00003823,0.00013368,-0.00008296,0.00009608,-0.00041878,0.000
 01807,-0.00007857,0.00000830,-0.00011894,0.00003194,-0.00000059,-0.000
 04688,-0.00007303,-0.00000315,0.00000404,0.00000369,-0.00127842,0.0020
 4821,-0.00294790,-0.00034297,0.00008600,-0.00002101,0.00015861,-0.0003
 5484,0.00066445,0.00002739,0.00012300,0.00008951,0.00002615,-0.0000090
 0,-0.00000157,-0.01207944,-0.38778339,-0.32288984,0.00301441,0.4064685
 3,0.00058780,0.00137226,-0.00105296,-0.00468843,0.00895820,0.00621589,
 -0.00025613,0.00047761,-0.00028663,0.00369887,0.00727091,0.00737885,0.
 00000869,-0.00006058,-0.00019874,0.00003354,0.00001521,0.00003855,0.00
 061773,-0.00106249,0.00052109,-0.00024191,-0.00003088,0.00029110,-0.00
 035707,0.00035693,0.00000126,0.00008592,-0.00005695,0.00001534,-0.0005
 7450,-0.00006929,-0.00012866,0.00021881,-0.00006248,-0.00004806,0.0000
 4811,-0.00006986,-0.00030509,0.00000422,-0.00000555,-0.00001797,-0.000
 56715,0.00209510,0.00122206,0.00013631,0.00017781,-0.00012510,-0.00022
 957,0.00027756,0.00012252,0.00006600,0.00054826,0.00015820,0.00003207,
 -0.00001370,0.00000578,-0.00808527,-0.32115254,-0.25646020,0.01280532,
 0.32357390,0.26993430,-0.00148205,-0.00269067,-0.00277634,-0.00906896,
 0.01373441,-0.03341172,0.00421358,-0.00071776,-0.00296914,0.00159656,-
 0.00761998,0.02966191,-0.00002927,-0.00010111,-0.00005523,-0.00001367,
 0.00001014,0.00000230,0.00030133,0.00044876,-0.00013901,0.00008501,0.0
 0013186,0.00003006,-0.00011334,-0.00038709,0.00014345,-0.00002507,0.00
 008959,0.00003995,0.00000972,-0.00041344,0.00018084,-0.00017145,0.0002
 8360,-0.00021192,-0.00006960,-0.00015602,-0.00000203,-0.00000118,-0.00
 000185,0.00000875,-0.00219545,0.00536088,0.00024180,-0.00109174,-0.000
 55606,-0.00160176,-0.00024343,-0.00003383,-0.00029734,-0.00006864,-0.0
 0004838,0.00006733,-0.00007889,-0.00006038,-0.00002464,-0.08217572,-0.
 00279934,0.01727556,-0.00019257,0.00003901,-0.00209941,1.05268981,-0.0
 0187883,-0.00027928,-0.00200832,0.00495790,-0.01003415,0.02325845,-0.0
 0165542,0.00356096,0.00140537,-0.00606840,-0.01089208,0.02321425,-0.00
 000460,0.00011895,0.00018158,0.00001145,-0.00002527,-0.00001688,0.0000
 4974,0.00018008,-0.00004738,0.00002445,-0.00006177,-0.00012164,-0.0000
 1513,0.00018946,0.00010445,0.00003111,-0.00004372,0.00003317,0.0002471
 3,0.00020591,-0.00033705,-0.00032907,-0.00012987,-0.00004515,0.0000212
 1,0.00015676,0.00012510,0.00002059,0.00001113,0.00003482,0.00004715,-0
 .00368706,-0.00056961,0.00031649,0.00038364,0.00091218,0.00011081,-0.0
 0014108,0.00038847,-0.00008561,-0.00005281,0.00006179,0.00003422,-0.00
 000827,-0.00002265,0.00440211,-0.09299530,0.02975049,-0.00025951,0.012
 96412,-0.02571995,-0.00581948,0.97302438,-0.00090109,-0.00262911,0.000
 15348,-0.00299915,0.00352430,-0.00690800,0.00078895,-0.00065184,0.0010
 4377,0.01096962,0.00816808,-0.01110082,-0.00003435,-0.00012131,-0.0002
 0960,0.00001417,0.00003075,0.00002294,0.00038117,0.00013416,0.00029326
 ,0.00011411,0.00024803,0.00015703,-0.00003371,-0.00016087,-0.00017173,
 0.00000054,-0.00000724,0.00000131,-0.00033837,0.00018555,0.00016803,0.
 00019132,-0.00022243,-0.00021352,-0.00002121,-0.00002418,0.00004603,-0
 .00000459,-0.00001485,-0.00001642,0.00006987,0.00134142,0.00020893,-0.
 00001913,-0.00004293,-0.00010438,0.00000487,-0.00014402,0.00010830,0.0
 0003760,0.00000937,-0.00011903,0.00000885,0.00001701,0.00001167,-0.003
 46279,0.02469531,-0.18393561,0.00052518,0.01586462,-0.02393386,-0.0041
 2399,0.20253047,0.49951530,0.00026445,-0.00089076,0.00023946,0.0020554
 3,-0.00021520,-0.00006215,0.00000106,-0.00033801,0.00033395,0.00030431
 ,0.00222439,-0.00009265,0.00000307,-0.00000898,-0.00006279,0.00000545,
 0.00000251,0.00001145,-0.00001858,-0.00012650,0.00019029,0.00000329,0.
 00005655,0.00003020,0.00005924,-0.00001170,-0.00008512,-0.00000533,-0.
 00001810,-0.00001860,-0.00038392,0.00015173,-0.00022708,-0.00033687,-0
 .00023318,-0.00037363,0.00001986,0.00007088,0.00007576,0.00000039,-0.0
 0000383,0.00000162,0.00000183,-0.00013386,-0.00032225,0.00011276,0.000
 06117,0.00006185,-0.00003628,0.00004652,-0.00000528,-0.00000252,-0.000
 02329,-0.00008344,0.00005389,0.00002838,0.00001689,0.00106246,0.004068
 76,-0.00332646,0.00009202,0.00001063,0.00065365,-0.50105391,-0.3157192
 0,0.09642997,0.51650337,-0.00047881,-0.00022960,-0.00020970,-0.0007511
 9,0.00089125,-0.00102698,0.00089064,-0.00068796,0.00016064,0.00258215,
 0.00032487,0.00234505,-0.00000426,-0.00004694,-0.00009493,-0.00000617,
 0.00001287,0.00000734,0.00003157,-0.00001742,-0.00002187,-0.00001159,0
 .00001021,0.00006220,0.00004776,-0.00003908,-0.00001027,-0.00001379,0.
 00000204,-0.00001806,-0.00021550,0.00001738,0.00027815,0.00020105,0.00
 009447,-0.00008282,0.00002206,-0.00005810,-0.00004655,-0.00000681,-0.0
 0000710,-0.00001761,0.00020632,0.00022555,-0.00005289,-0.00003027,-0.0
 0000300,-0.00002382,-0.00008857,-0.00001967,-0.00015204,0.00001250,-0.
 00002918,-0.00009564,-0.00002557,0.00001740,0.00001597,-0.00967968,-0.
 00728079,0.00353570,0.00091809,0.00092700,-0.00047760,-0.31896726,-0.1
 9113213,0.05571447,0.33001433,0.19247864,0.00141154,0.00231314,0.00113
 884,0.00161120,-0.00255118,0.00279639,-0.00124981,0.00051477,0.0010515
 1,-0.00497722,-0.00049816,-0.00683308,0.00003307,0.00014137,0.00033683
 ,-0.00001890,-0.00004040,-0.00003376,0.00011490,0.00022176,-0.00018333
 ,0.00002569,-0.00000109,-0.00031560,-0.00001416,-0.00002218,-0.0000178
 8,0.00000046,0.00001505,0.00002887,0.00019137,-0.00012893,-0.00029989,
 -0.00068262,0.00017106,0.00009486,-0.00004113,-0.00000858,0.00023372,-
 0.00000753,0.00002100,0.00002737,0.00008391,-0.00031751,0.00001992,0.0
 0004654,-0.00001922,0.00008830,0.00007106,-0.00000918,0.00010793,-0.00
 003507,-0.00032493,0.00000529,-0.00002039,-0.00001056,-0.00001018,0.03
 321097,0.02226129,-0.01197219,-0.00000893,-0.00123588,0.00219364,0.101
 65590,0.05987107,-0.00313593,-0.10210791,-0.06432898,0.00917176,-0.000
 26608,0.00043898,0.00025952,0.00056180,-0.00053899,0.00062882,0.000240
 12,-0.00038686,-0.00010964,0.00101197,-0.00122788,0.00021506,-0.000007
 43,-0.00003814,-0.00005368,-0.00000535,0.00001156,0.00000159,0.0000603
 5,0.00006381,-0.00001905,-0.00000214,0.00000625,0.00004189,0.00001240,
 -0.00003835,0.00000733,0.00000017,0.00000709,0.00000068,-0.00010592,-0
 .00002772,0.00014803,0.00013478,0.00001432,-0.00001028,0.00000204,-0.0
 0007328,-0.00006761,-0.00000581,-0.00000433,-0.00001406,0.00024098,0.0
 0015839,0.00022651,-0.00000371,0.00000351,-0.00002953,-0.00001984,-0.0
 0000237,-0.00004744,0.00003777,0.00004037,0.00000467,-0.00002776,0.000
 00155,0.00000382,0.00202598,-0.00337046,0.00127400,0.00037730,0.000090
 25,-0.00032396,-0.46250263,0.34890840,-0.07220691,-0.01990961,0.023554
 86,-0.00539579,0.47349060,-0.00093002,0.00082962,0.00015706,0.00026401
 ,0.00098755,0.00224596,-0.00038988,-0.00025378,-0.00006399,0.00405619,
 -0.00209035,-0.00014689,0.00000809,0.00002340,0.00002981,-0.00000570,-
 0.00000227,-0.00000741,-0.00004064,-0.00007555,0.00000175,-0.00003200,
 -0.00005143,-0.00002808,0.00005454,0.00007073,-0.00000114,0.00000217,-
 0.00001081,-0.00001033,-0.00005703,0.00003223,0.00012057,0.00006197,-0
 .00003077,-0.00000158,0.00002158,-0.00000743,-0.00002361,-0.00000229,0
 .00000042,-0.00000758,0.00020371,-0.00052301,-0.00013202,0.00009848,0.
 00007362,0.00017606,0.00002136,0.00004835,0.00005173,0.00001531,0.0000
 0731,-0.00002331,-0.00000720,0.00001162,0.00000338,0.00646129,-0.00702
 277,-0.00134913,-0.00032641,0.00084396,-0.00040717,0.34954787,-0.25059
 160,0.04997051,-0.02286074,0.01648454,-0.00388543,-0.35985129,0.253845
 74,0.00101171,-0.00128361,-0.00033437,-0.00113856,0.00294182,-0.007395
 33,0.00084648,-0.00098649,-0.00112014,-0.00401376,0.00229411,0.0016822
 9,0.00000353,-0.00004612,-0.00004790,-0.00000863,0.00000567,0.00000224
 ,0.00013701,0.00006416,0.00007920,0.00000522,0.00005157,0.00002729,-0.
 00002381,-0.00012385,0.00001100,-0.00000932,0.00002920,0.00000491,-0.0
 0002388,-0.00011332,-0.00000599,-0.00001046,0.00003898,-0.00004396,-0.
 00001018,-0.00005148,-0.00001353,-0.00000621,-0.00000094,0.00000013,-0
 .00053588,0.00190307,0.00037258,-0.00036978,-0.00018807,-0.00057918,-0
 .00002427,0.00000240,-0.00009769,-0.00000655,-0.00000728,0.00003033,-0
 .00001299,-0.00001386,-0.00000129,-0.02850372,0.02106659,-0.00262875,-
 0.00063319,-0.00121204,0.00165016,-0.07515908,0.05270352,0.00462073,0.
 00635728,-0.00555936,-0.00105330,0.07628453,-0.05451254,-0.00013072,-0
 .00032581,-0.00020233,-0.00065787,0.00052150,-0.00076706,0.00012527,-0
 .00063843,-0.00038940,-0.00054829,0.00053960,0.00137654,0.00123180,-0.
 00000287,0.00000436,-0.00002532,0.00000438,0.00000257,0.00000139,0.000
 05242,-0.00006088,0.00020519,-0.00000296,0.00000710,0.00001578,0.00004
 966,0.00003639,-0.00003865,0.00000100,-0.00001480,-0.00001153,-0.00006
 206,0.00012560,0.00000188,0.00007513,-0.00016784,-0.00004868,0.0000236
 8,0.00003012,0.00000089,0.00000147,-0.00000135,-0.00000248,-0.00034598
 ,-0.00001550,-0.00014736,0.00002308,0.00004669,0.00000908,0.00006140,0
 .00005532,0.00010416,-0.00001182,0.00003826,-0.00001677,0.00002179,0.0
 0001007,0.00000277,-0.00106892,0.00096490,0.00030605,0.00105681,-0.000
 03435,0.00017483,0.00272094,-0.02937978,-0.02336007,0.00087845,-0.0273
 4916,-0.02558287,0.00582348,0.02559522,0.02459794,-0.00884103,0.000672
 20,-0.00025328,-0.00105017,-0.00097360,0.00131711,-0.00114853,0.000143
 99,0.00002263,-0.00053756,-0.00071452,0.00267246,0.00046390,-0.0000173
 8,-0.00005069,-0.00009088,0.00001055,0.00001048,0.00001194,-0.00001413
 ,-0.00008094,-0.00004567,0.00001301,0.00003875,0.00006882,-0.00003998,
 -0.00006529,-0.00001354,0.00000579,0.00000534,-0.00000070,-0.00009200,
 0.00000028,-0.00002468,0.00011358,-0.00004287,-0.00003948,-0.00001007,
 -0.00000993,-0.00003489,0.00000380,-0.00000689,-0.00000410,-0.00008274
 ,0.00007987,0.00026799,0.00000287,-0.00003014,-0.00008473,0.00008953,0
 .00002184,-0.00001499,0.00001379,0.00006551,0.00001595,0.00000810,-0.0
 0000284,0.00000396,0.00114188,0.01299690,0.01414213,0.00001499,-0.0008
 6358,0.00370206,-0.02829230,-0.43100241,-0.36007664,0.00475508,-0.0123
 5280,-0.01201875,-0.00772988,-0.01380768,-0.01457763,0.03047743,0.4417
 7365,-0.00020992,0.00199728,0.00131525,0.00115641,-0.00057744,0.002785
 28,-0.00096659,-0.00010178,0.00014732,-0.00167887,-0.00514986,0.001479
 26,-0.00000733,-0.00000463,-0.00001732,0.00000567,0.00000370,0.0000055
 5,0.00016159,0.00004229,0.00013426,-0.00000431,0.00001064,0.00004590,-
 0.00004943,0.00010047,0.00004930,0.00002021,-0.00001643,0.00001347,0.0
 0003645,-0.00000211,-0.00004835,-0.00002190,-0.00000542,0.00000121,-0.
 00000266,-0.00001418,-0.00002255,0.00000023,-0.00000008,0.00000008,0.0
 0000870,-0.00004644,0.00002868,-0.00008061,0.00002911,0.00001982,0.000
 02548,-0.00004403,0.00016528,0.00000213,0.00002500,0.00001626,-0.00000
 263,-0.00000710,-0.00000215,0.00035932,-0.02690753,-0.02534110,-0.0004
 8679,0.00369719,-0.00649515,-0.02342217,-0.36514427,-0.27723414,0.0017
 5935,0.01072699,0.00559280,-0.00076684,0.00924278,0.00441510,0.0238390
 3,0.37116827,0.29296436,0.00102778,0.06117156,0.00235713,-0.01002615,-
 0.00180912,0.00152829,-0.00366923,0.00029007,-0.00067837,-0.50266023,0
 .21663518,0.05000109,-0.00013214,-0.00082296,-0.00140318,-0.00001570,0
 .00019716,0.00017143,0.00002187,0.00087542,-0.00057421,0.00024271,0.00
 063139,0.00123513,-0.00031816,-0.00094066,-0.00006462,-0.00002253,0.00
 016372,0.00004594,-0.00034932,-0.00079505,-0.00004630,0.00034979,0.000
 37318,-0.00010364,-0.00011556,-0.00053003,-0.00069734,-0.00004192,-0.0
 0006685,-0.00006432,0.00019274,0.00063731,0.00355908,-0.00054329,-0.00
 014518,-0.00045715,0.00046626,-0.00012150,-0.00020814,0.00014350,0.000
 56943,0.00036330,-0.00004332,-0.00004704,0.00004852,-0.04531936,0.0147
 5578,0.00811064,0.00088771,0.00121764,-0.00174846,-0.00103938,0.002032
 27,-0.00203084,0.00032571,-0.00085270,0.00168571,-0.00116346,-0.001908
 59,0.00124657,-0.00055489,0.00050001,0.00032549,0.56235656,0.08575598,
 -0.07788168,-0.00798454,-0.00376281,0.00216735,0.00240169,-0.00074139,
 0.00042887,-0.00051557,0.21388538,-0.22844919,-0.02411796,-0.00006600,
 0.00013056,0.00010462,0.00007983,-0.00003710,0.00000199,0.00004368,-0.
 00040192,-0.00002935,-0.00005618,-0.00009952,-0.00009406,-0.00007972,0
 .00036664,0.00025705,0.00007934,-0.00010324,0.00001563,0.00019177,0.00
 046981,-0.00003063,0.00003252,-0.00013401,0.00001583,0.00001278,0.0003
 1017,0.00023794,0.00002473,-0.00000140,0.00001534,-0.00047444,0.000192
 06,-0.00042809,-0.00014170,-0.00008580,-0.00018920,-0.00016438,-0.0005
 6923,-0.00028907,-0.00006667,-0.00018769,-0.00026346,0.00006875,-0.000
 00446,-0.00000367,-0.00311600,0.00810271,0.00036922,0.00279165,0.00341
 642,0.00036320,-0.00098117,0.00028141,0.00166139,-0.00090760,0.0004175
 5,-0.00012954,-0.00000979,0.00120836,-0.00242448,-0.00038812,-0.000435
 47,0.00097755,-0.29201046,0.29089880,0.00162201,-0.00455221,0.03300841
 ,0.00262562,0.00081408,0.00160544,0.00028282,0.00020491,0.00009366,0.0
 4888761,-0.02349357,-0.08453262,-0.00003024,0.00013944,0.00028761,0.00
 003258,-0.00002407,-0.00002190,0.00011853,-0.00011749,0.00016424,0.000
 01099,-0.00003780,-0.00023184,-0.00000582,0.00019745,-0.00001510,0.000
 06270,-0.00004283,0.00003356,0.00003737,0.00005603,-0.00003123,-0.0000
 8364,-0.00004233,0.00003281,-0.00001306,0.00003863,0.00012555,0.000011
 10,0.00000619,0.00001118,0.00044753,-0.00033732,-0.00097981,0.00013053
 ,0.00003641,0.00024858,-0.00015670,0.00002761,0.00004469,-0.00002255,-
 0.00010754,-0.00001006,-0.00001134,-0.00000169,-0.00000698,0.00805507,
 -0.00311514,0.01775635,0.00323689,0.00292422,-0.00069632,-0.00301406,-
 0.00054230,0.00073230,0.00060563,-0.00062740,0.00096711,-0.00005167,-0
 .00139939,0.00055619,-0.00017616,-0.00008208,-0.00001842,-0.06260173,0
 .03007820,0.03087660\\-0.01175801,-0.01481155,0.00200715,0.07728438,-0
 .00019165,-0.11586149,-0.09859682,-0.01447755,0.11263263,0.02763330,0.
 05008732,-0.00760812,0.08277983,0.23236177,0.00291980,-0.08280590,-0.2
 3381270,0.00211051,0.00309988,0.01179542,-0.00791506,0.00480770,0.0001
 0683,-0.01920384,-0.06545147,-0.08198184,0.12889684,0.06907579,0.08771
 720,-0.14217720,-0.00726902,-0.06285275,-0.14745885,0.00749427,0.07105
 838,0.16709439,0.06394656,0.14526901,0.01776431,-0.07521652,-0.1656950
 7,-0.02438149,0.03086377,-0.09448108,0.12604405,-0.09529782,0.08329346
 ,-0.01259788,0.08208063,0.01956283,-0.09385823,0.06533872,0.08368030,-
 0.12494318,-0.06942227,-0.09109443,0.14180951,-0.00815277,0.09260468,0
 .06531851,0.00196324,-0.09130415,-0.07102872,-0.00768815,0.04631870,-0
 .12861253,-0.11610062,-0.07398251,0.02545705,0.11092926,-0.07885476,0.
 01462513,0.00780681,0.10765673,0.08705675,0.00265524,-0.02797260,0.001
 90996\\\@
 The archive entry for this job was punched.

 Writing a WFNX file to "TIFSOS_Complex_0_Ligand_1_ON_Cu_oriented.wfx"


 Luck is a matter of preparation meeting opportunity.
                                    -- Oprah Winfrey
 Job cpu time:       0 days  0 hours 24 minutes 24.4 seconds.
 Elapsed time:       0 days  0 hours 24 minutes 31.2 seconds.
 File lengths (MBytes):  RWF=    428 Int=      0 D2E=      0 Chk=     12 Scr=      8
 Normal termination of Gaussian 16 at Mon Mar  6 10:46:11 2023.
