 Entering Gaussian System, Link 0=g16
 Initial command:
 /ssoft/spack/external/gaussian/g16-C.01/avx2/g16/l1.exe "/scratch/lcmd/2387836/Gau-3436056.inp" -scrdir="/scratch/lcmd/2387836/"
 Entering Link 1 = /ssoft/spack/external/gaussian/g16-C.01/avx2/g16/l1.exe PID=   3436069.
  
 Copyright (c) 1988-2019, Gaussian, Inc.  All Rights Reserved.
  
 This is part of the Gaussian(R) 16 program.  It is based on
 the Gaussian(R) 09 system (copyright 2009, Gaussian, Inc.),
 the Gaussian(R) 03 system (copyright 2003, Gaussian, Inc.),
 the Gaussian(R) 98 system (copyright 1998, Gaussian, Inc.),
 the Gaussian(R) 94 system (copyright 1995, Gaussian, Inc.),
 the Gaussian 92(TM) system (copyright 1992, Gaussian, Inc.),
 the Gaussian 90(TM) system (copyright 1990, Gaussian, Inc.),
 the Gaussian 88(TM) system (copyright 1988, Gaussian, Inc.),
 the Gaussian 86(TM) system (copyright 1986, Carnegie Mellon
 University), and the Gaussian 82(TM) system (copyright 1983,
 Carnegie Mellon University). Gaussian is a federally registered
 trademark of Gaussian, Inc.
  
 This software contains proprietary and confidential information,
 including trade secrets, belonging to Gaussian, Inc.
  
 This software is provided under written license and may be
 used, copied, transmitted, or stored only in accord with that
 written license.
  
 The following legend is applicable only to US Government
 contracts under FAR:
  
                    RESTRICTED RIGHTS LEGEND
  
 Use, reproduction and disclosure by the US Government is
 subject to restrictions as set forth in subparagraphs (a)
 and (c) of the Commercial Computer Software - Restricted
 Rights clause in FAR 52.227-19.
  
 Gaussian, Inc.
 340 Quinnipiac St., Bldg. 40, Wallingford CT 06492
  
  
 ---------------------------------------------------------------
 Warning -- This program may not be used in any manner that
 competes with the business of Gaussian, Inc. or will provide
 assistance to any competitor of Gaussian, Inc.  The licensee
 of this program is prohibited from giving any competitor of
 Gaussian, Inc. access to this program.  By using this program,
 the user acknowledges that Gaussian, Inc. is engaged in the
 business of creating and licensing software in the field of
 computational chemistry and represents and warrants to the
 licensee that it is not a competitor of Gaussian, Inc. and that
 it will not use this program in any manner prohibited above.
 ---------------------------------------------------------------
  

 Cite this work as:
 Gaussian 16, Revision C.01,
 M. J. Frisch, G. W. Trucks, H. B. Schlegel, G. E. Scuseria, 
 M. A. Robb, J. R. Cheeseman, G. Scalmani, V. Barone, 
 G. A. Petersson, H. Nakatsuji, X. Li, M. Caricato, A. V. Marenich, 
 J. Bloino, B. G. Janesko, R. Gomperts, B. Mennucci, H. P. Hratchian, 
 J. V. Ortiz, A. F. Izmaylov, J. L. Sonnenberg, D. Williams-Young, 
 F. Ding, F. Lipparini, F. Egidi, J. Goings, B. Peng, A. Petrone, 
 T. Henderson, D. Ranasinghe, V. G. Zakrzewski, J. Gao, N. Rega, 
 G. Zheng, W. Liang, M. Hada, M. Ehara, K. Toyota, R. Fukuda, 
 J. Hasegawa, M. Ishida, T. Nakajima, Y. Honda, O. Kitao, H. Nakai, 
 T. Vreven, K. Throssell, J. A. Montgomery, Jr., J. E. Peralta, 
 F. Ogliaro, M. J. Bearpark, J. J. Heyd, E. N. Brothers, K. N. Kudin, 
 V. N. Staroverov, T. A. Keith, R. Kobayashi, J. Normand, 
 K. Raghavachari, A. P. Rendell, J. C. Burant, S. S. Iyengar, 
 J. Tomasi, M. Cossi, J. M. Millam, M. Klene, C. Adamo, R. Cammi, 
 J. W. Ochterski, R. L. Martin, K. Morokuma, O. Farkas, 
 J. B. Foresman, and D. J. Fox, Gaussian, Inc., Wallingford CT, 2019.
 
 ******************************************
 Gaussian 16:  ES64L-G16RevC.01  3-Jul-2019
                 6-Mar-2023 
 ******************************************
 %nprocshared=1
 Will use up to    1 processors via shared memory.
 %mem=8000MB
 %chk=TOGPOU_Complex_0_Ligand_1_OO_Cu_oriented.chk
 ----------------------------------------------------------------------
 #p pop=(regular,nbo,savenbos) freq=noraman def2svp empiricaldispersion
 =gd3bj output=wfx pbe1pbe
 ----------------------------------------------------------------------
 1/10=4,30=1,38=1/1,3;
 2/12=2,17=6,18=5,40=1/2;
 3/5=43,7=101,11=2,25=1,30=1,71=2,74=-13,124=41,140=1/1,2,3;
 4//1;
 5/5=2,38=5,98=1/2;
 8/6=4,10=90,11=11/1;
 11/6=1,8=1,9=11,15=111,16=1/1,2,10;
 10/6=1/2;
 6/28=1,40=1,73=1/1,7;
 7/8=1,10=1,25=1/1,2,3,16;
 1/10=4,30=1/3;
 99/6=200/99;
 Leave Link    1 at Mon Mar  6 10:21:40 2023, MaxMem=  1048576000 cpu:               0.0 elap:               0.2
 (Enter /ssoft/spack/external/gaussian/g16-C.01/avx2/g16/l101.exe)
 ----------------------------------------
 TOGPOU_Complex_0_Ligand_1_OO_Cu_oriented
 ----------------------------------------
 Symbolic Z-matrix:
 Charge = -1 Multiplicity = 1
 O                    -1.07276   1.61932   0. 
 C                    -1.87392   3.69833   0.65949 
 C                    -0.73488   2.7161    0.52808 
 C                     0.57711   3.0455    0.94435 
 C                     0.78147   4.34638   1.72265 
 C                     0.0634    4.32635   3.07118 
 C                    -0.68371   5.40302   3.50074 
 C                    -1.27273   5.40857   4.7627 
 C                    -1.13091   4.32259   5.5646 
 C                    -0.43284   3.22524   5.16276 
 C                     0.17579   3.22177   3.90758 
 H                    -1.56141   4.49015   1.07004 
 H                    -2.2195    3.89454  -0.20328 
 H                    -2.56202   3.31047   1.19233 
 H                     0.40592   5.04947   1.20553 
 H                    -0.79946   6.15323   2.92832 
 H                    -0.36593   2.46606   5.73122 
 H                     0.66949   2.46018   3.62391 
 O                     1.59514   1.10083   0. 
 O                     2.78899   4.90892  -0.41397 
 O                     1.7747    7.04177   1.7786 
 C                     1.64491   2.24979   0.55874 
 C                     3.06013   2.76087   0.7309 
 C                     3.18378   4.27422   0.82125 
 C                     2.2613    4.70279   1.99189 
 C                     4.6363    4.64303   1.03051 
 C                     2.42961   6.18553   2.30794 
 C                     3.46696   6.5597    3.33528 
 H                     3.41482   2.39227   1.5311 
 H                     3.57347   2.4656   -0.01116 
 H                     2.53664   4.21427   2.75962 
 H                     1.73739   4.68692  -0.661 
 H                     5.15019   4.3228    0.29802 
 H                     4.71646   5.58776   1.08428 
 H                     4.94422   4.2497    1.83411 
 H                     4.11391   7.12811   2.93714 
 H                     3.04624   7.01261   4.05673 
 H                     3.88932   5.77252   3.65936 
 Cl                   -1.86751   4.32787   7.15213 
 H                    -1.76822   6.16433   5.06091 
 
 ITRead=  0  0  0  0  0  0  0  0  0  0  0  0  0  0  0  0  0  0  0  0
 ITRead=  0  0  0  0  0  0  0  0  0  0  0  0  0  0  0  0  0  0  0  0
 MicOpt= -1 -1 -1 -1 -1 -1 -1 -1 -1 -1 -1 -1 -1 -1 -1 -1 -1 -1 -1 -1
 MicOpt= -1 -1 -1 -1 -1 -1 -1 -1 -1 -1 -1 -1 -1 -1 -1 -1 -1 -1 -1 -1
 NAtoms=     40 NQM=       40 NQMF=       0 NMMI=      0 NMMIF=      0
                NMic=       0 NMicF=      0.
                    Isotopes and Nuclear Properties:
 (Nuclear quadrupole moments (NQMom) in fm**2, nuclear magnetic moments (NMagM)
  in nuclear magnetons)

  Atom         1           2           3           4           5           6           7           8           9          10
 IAtWgt=          16          12          12          12          12          12          12          12          12          12
 AtmWgt=  15.9949146  12.0000000  12.0000000  12.0000000  12.0000000  12.0000000  12.0000000  12.0000000  12.0000000  12.0000000
 NucSpn=           0           0           0           0           0           0           0           0           0           0
 AtZEff=  -0.0000000  -0.0000000  -0.0000000  -0.0000000  -0.0000000  -0.0000000  -0.0000000  -0.0000000  -0.0000000  -0.0000000
 NQMom=    0.0000000   0.0000000   0.0000000   0.0000000   0.0000000   0.0000000   0.0000000   0.0000000   0.0000000   0.0000000
 NMagM=    0.0000000   0.0000000   0.0000000   0.0000000   0.0000000   0.0000000   0.0000000   0.0000000   0.0000000   0.0000000
 AtZNuc=   8.0000000   6.0000000   6.0000000   6.0000000   6.0000000   6.0000000   6.0000000   6.0000000   6.0000000   6.0000000

  Atom        11          12          13          14          15          16          17          18          19          20
 IAtWgt=          12           1           1           1           1           1           1           1          16          16
 AtmWgt=  12.0000000   1.0078250   1.0078250   1.0078250   1.0078250   1.0078250   1.0078250   1.0078250  15.9949146  15.9949146
 NucSpn=           0           1           1           1           1           1           1           1           0           0
 AtZEff=  -0.0000000  -0.0000000  -0.0000000  -0.0000000  -0.0000000  -0.0000000  -0.0000000  -0.0000000  -0.0000000  -0.0000000
 NQMom=    0.0000000   0.0000000   0.0000000   0.0000000   0.0000000   0.0000000   0.0000000   0.0000000   0.0000000   0.0000000
 NMagM=    0.0000000   2.7928460   2.7928460   2.7928460   2.7928460   2.7928460   2.7928460   2.7928460   0.0000000   0.0000000
 AtZNuc=   6.0000000   1.0000000   1.0000000   1.0000000   1.0000000   1.0000000   1.0000000   1.0000000   8.0000000   8.0000000

  Atom        21          22          23          24          25          26          27          28          29          30
 IAtWgt=          16          12          12          12          12          12          12          12           1           1
 AtmWgt=  15.9949146  12.0000000  12.0000000  12.0000000  12.0000000  12.0000000  12.0000000  12.0000000   1.0078250   1.0078250
 NucSpn=           0           0           0           0           0           0           0           0           1           1
 AtZEff=  -0.0000000  -0.0000000  -0.0000000  -0.0000000  -0.0000000  -0.0000000  -0.0000000  -0.0000000  -0.0000000  -0.0000000
 NQMom=    0.0000000   0.0000000   0.0000000   0.0000000   0.0000000   0.0000000   0.0000000   0.0000000   0.0000000   0.0000000
 NMagM=    0.0000000   0.0000000   0.0000000   0.0000000   0.0000000   0.0000000   0.0000000   0.0000000   2.7928460   2.7928460
 AtZNuc=   8.0000000   6.0000000   6.0000000   6.0000000   6.0000000   6.0000000   6.0000000   6.0000000   1.0000000   1.0000000

  Atom        31          32          33          34          35          36          37          38          39          40
 IAtWgt=           1           1           1           1           1           1           1           1          35           1
 AtmWgt=   1.0078250   1.0078250   1.0078250   1.0078250   1.0078250   1.0078250   1.0078250   1.0078250  34.9688527   1.0078250
 NucSpn=           1           1           1           1           1           1           1           1           3           1
 AtZEff=  -0.0000000  -0.0000000  -0.0000000  -0.0000000  -0.0000000  -0.0000000  -0.0000000  -0.0000000  -0.0000000  -0.0000000
 NQMom=    0.0000000   0.0000000   0.0000000   0.0000000   0.0000000   0.0000000   0.0000000   0.0000000  -8.1650000   0.0000000
 NMagM=    2.7928460   2.7928460   2.7928460   2.7928460   2.7928460   2.7928460   2.7928460   2.7928460   0.8218740   2.7928460
 AtZNuc=   1.0000000   1.0000000   1.0000000   1.0000000   1.0000000   1.0000000   1.0000000   1.0000000  17.0000000   1.0000000
 Leave Link  101 at Mon Mar  6 10:21:40 2023, MaxMem=  1048576000 cpu:               0.1 elap:               0.1
 (Enter /ssoft/spack/external/gaussian/g16-C.01/avx2/g16/l103.exe)

 GradGradGradGradGradGradGradGradGradGradGradGradGradGradGradGradGradGrad
 Berny optimization.
 Initialization pass.
 Trust Radius=3.00D-01 FncErr=1.00D-07 GrdErr=1.00D-07 EigMax=2.50D+02 EigMin=1.00D-04
 Number of steps in this run=      2 maximum allowed number of steps=      2.
 GradGradGradGradGradGradGradGradGradGradGradGradGradGradGradGradGradGrad

 Leave Link  103 at Mon Mar  6 10:21:40 2023, MaxMem=  1048576000 cpu:               0.1 elap:               0.0
 (Enter /ssoft/spack/external/gaussian/g16-C.01/avx2/g16/l202.exe)
                          Input orientation:                          
 ---------------------------------------------------------------------
 Center     Atomic      Atomic             Coordinates (Angstroms)
 Number     Number       Type             X           Y           Z
 ---------------------------------------------------------------------
      1          8           0       -1.072757    1.619316    0.000000
      2          6           0       -1.873924    3.698331    0.659490
      3          6           0       -0.734884    2.716097    0.528085
      4          6           0        0.577108    3.045502    0.944353
      5          6           0        0.781466    4.346381    1.722649
      6          6           0        0.063398    4.326351    3.071182
      7          6           0       -0.683706    5.403020    3.500743
      8          6           0       -1.272734    5.408567    4.762697
      9          6           0       -1.130910    4.322590    5.564605
     10          6           0       -0.432840    3.225244    5.162759
     11          6           0        0.175794    3.221771    3.907584
     12          1           0       -1.561414    4.490151    1.070037
     13          1           0       -2.219500    3.894541   -0.203283
     14          1           0       -2.562022    3.310465    1.192330
     15          1           0        0.405919    5.049473    1.205535
     16          1           0       -0.799462    6.153225    2.928324
     17          1           0       -0.365929    2.466064    5.731215
     18          1           0        0.669490    2.460182    3.623910
     19          8           0        1.595144    1.100834    0.000000
     20          8           0        2.788987    4.908919   -0.413968
     21          8           0        1.774703    7.041772    1.778603
     22          6           0        1.644907    2.249791    0.558735
     23          6           0        3.060125    2.760866    0.730904
     24          6           0        3.183779    4.274222    0.821248
     25          6           0        2.261304    4.702788    1.991892
     26          6           0        4.636305    4.643026    1.030509
     27          6           0        2.429609    6.185533    2.307940
     28          6           0        3.466960    6.559700    3.335275
     29          1           0        3.414825    2.392268    1.531099
     30          1           0        3.573468    2.465604   -0.011163
     31          1           0        2.536645    4.214271    2.759617
     32          1           0        1.737389    4.686922   -0.660998
     33          1           0        5.150188    4.322798    0.298016
     34          1           0        4.716458    5.587762    1.084280
     35          1           0        4.944225    4.249697    1.834110
     36          1           0        4.113913    7.128111    2.937141
     37          1           0        3.046245    7.012613    4.056729
     38          1           0        3.889318    5.772522    3.659358
     39         17           0       -1.867514    4.327871    7.152126
     40          1           0       -1.768223    6.164329    5.060909
 ---------------------------------------------------------------------
                    Distance matrix (angstroms):
                    1          2          3          4          5
     1  O    0.000000
     2  C    2.323596   0.000000
     3  C    1.263313   1.509790   0.000000
     4  C    2.376523   2.552429   1.415312   0.000000
     5  C    3.720556   2.932809   2.526682   1.529639   0.000000
     6  C    4.248652   3.156563   3.114083   2.535326   1.527928
     7  C    5.169427   3.520696   4.007352   3.699010   2.534725
     8  C    6.089473   4.485827   5.046842   4.856515   3.819668
     9  C    6.186752   5.000192   5.301339   5.088714   4.291663
    10  C    5.444500   4.751839   4.672330   4.341342   3.816522
    11  C    4.404084   3.870216   3.536390   2.995474   2.530914
    12  H    3.102491   0.945087   2.030795   2.583812   2.436320
    13  H    2.555971   0.949893   2.031677   3.139896   3.594324
    14  H    2.549421   0.952805   2.032961   3.160037   3.540235
    15  H    3.925019   2.705815   2.684216   2.028158   0.950148
    16  H    5.404267   3.511208   4.192752   3.935611   2.686572
    17  H    5.836387   5.432765   5.222185   4.913158   4.573916
    18  H    4.107944   4.097530   3.409089   2.744296   2.680499
    19  O    2.717815   4.383646   2.883917   2.389546   3.763398
    20  O    5.089786   4.935644   4.256007   3.195273   2.985251
    21  O    6.377654   5.073804   5.154928   4.254454   2.873114
    22  C    2.845238   3.806651   2.425239   1.386380   2.548708
    23  C    4.349491   5.022826   3.800688   2.508377   2.947831
    24  C    5.083412   5.092954   4.227247   2.884380   2.566874
    25  C    4.958971   4.459186   3.881599   2.584657   1.545782
    26  C    6.542029   6.588868   5.728451   4.363094   3.927702
    27  C    6.200281   5.236789   5.021841   3.892419   2.537996
    28  C    7.492695   6.623617   6.348944   5.139780   3.835521
    29  H    4.804176   5.516917   4.281469   2.970458   3.284788
    30  H    4.722683   5.625254   4.349187   3.198041   3.786649
    31  H    5.232308   4.912214   4.234047   2.915645   2.042892
    32  H    4.212368   3.970212   3.377899   2.572482   2.590662
    33  H    6.791367   7.061074   6.104792   4.791899   4.595201
    34  H    7.102058   6.869027   6.186512   4.859721   4.175249
    35  H    6.818132   6.940525   6.025770   4.616651   4.165373
    36  H    8.116352   7.266724   6.984286   5.757421   4.507574
    37  H    7.906382   6.836210   6.723713   5.614401   4.205467
    38  H    7.433855   6.820296   6.366305   5.077266   3.929818
    39  Cl   7.689006   6.523089   6.910759   6.793902   6.041247
    40  H    6.837662   5.046267   5.788315   5.672186   4.577098
                    6          7          8          9         10
     6  C    0.000000
     7  C    1.379095   0.000000
     8  C    2.411983   1.392664   0.000000
     9  C    2.764695   2.372098   1.357393   0.000000
    10  C    2.415239   2.750989   2.373261   1.361231   0.000000
    11  C    1.390071   2.379518   2.758899   2.380125   1.394959
    12  H    2.582911   2.740809   3.816092   4.518246   4.429903
    13  H    4.014997   4.284154   5.277271   5.885302   5.695131
    14  H    3.384514   3.638080   4.337258   4.710548   4.506105
    15  H    2.029992   2.565201   3.949712   4.678856   4.437449
    16  H    2.025440   0.950721   2.035541   3.226618   3.701376
    17  H    3.274258   3.701581   3.227793   2.014856   0.950776
    18  H    2.038489   3.241389   3.709722   3.236711   2.041692
    19  O    4.709816   5.996429   7.033105   6.983975   5.939690
    20  O    4.462566   5.256300   6.598870   7.173054   6.656937
    21  O    3.460179   3.419802   4.567171   5.492754   5.558025
    22  C    3.622935   4.901091   6.013633   6.087724   5.144470
    23  C    4.111936   5.354368   6.483775   6.585471   5.661960
    24  C    3.847298   4.838524   6.056589   6.412357   5.747087
    25  C    2.477371   3.382313   4.545868   4.941250   4.415422
    26  C    5.017580   5.914572   7.030791   7.343124   6.691922
    27  C    3.104521   3.424592   4.509640   5.172400   5.010680
    28  C    4.079440   4.311996   5.082060   5.578080   5.446717
    29  H    4.164684   5.453630   6.443174   6.376443   5.356056
    30  H    5.028303   6.251834   7.411912   7.527866   6.587642
    31  H    2.495312   3.511844   4.466546   4.618511   3.946024
    32  H    4.106266   4.867707   6.244843   6.864255   6.384554
    33  H    5.793608   6.742303   7.897227   8.196898   7.486023
    34  H    5.214394   5.919053   7.030880   7.474335   6.980741
    35  H    5.035741   5.981757   6.969230   7.129458   6.406421
    36  H    4.926916   5.129399   5.941839   6.502513   6.392081
    37  H    4.133363   4.100298   4.661001   5.192161   5.260370
    38  H    4.132194   4.590668   5.291181   5.561920   5.237355
    39  Cl   4.514701   3.986220   2.689059   1.750097   2.689174
    40  H    3.269864   2.046922   0.951639   2.012929   3.229836
                   11         12         13         14         15
    11  C    0.000000
    12  H    3.560667   0.000000
    13  H    4.805130   1.552150   0.000000
    14  H    3.856955   1.551718   1.551194   0.000000
    15  H    3.270248   2.049781   3.195537   3.439912   0.000000
    16  H    3.240910   2.607608   4.114015   3.768498   2.374703
    17  H    2.046995   5.220411   6.379227   5.112466   5.267973
    18  H    0.950907   3.952211   5.005102   4.132581   3.552807
    19  O    4.667135   4.753557   4.732613   4.856557   4.296431
    20  O    5.324572   4.615585   5.114518   5.811071   2.884711
    21  O    4.656338   4.259403   5.457709   5.750960   2.484196
    22  C    3.783890   3.944760   4.268432   4.384600   3.129163
    23  C    4.315449   4.946115   5.480179   5.667761   3.536638
    24  C    4.436339   4.756614   5.512644   5.837873   2.909501
    25  C    3.195723   3.938046   5.054667   5.083536   2.044750
    26  C    5.494878   6.199730   7.006035   7.322418   4.253469
    27  C    4.052460   4.509434   5.759262   5.867451   2.569290
    28  C    4.722402   5.890576   7.208348   7.176236   4.023251
    29  H    4.102083   5.420022   6.083627   6.056447   4.027437
    30  H    5.241428   5.624482   5.969694   6.309233   4.264986
    31  H    2.806511   4.441269   5.612656   5.410143   2.766356
    32  H    5.045512   3.730590   4.061322   4.879999   2.321249
    33  H    6.243864   6.757930   7.399121   7.829610   4.884643
    34  H    5.846930   6.373117   7.254814   7.627190   4.345711
    35  H    5.300364   6.554766   7.456276   7.591955   4.650910
    36  H    5.631167   6.531022   7.773696   7.885867   4.590034
    37  H    4.757333   6.042654   7.456416   7.305021   4.353682
    38  H    4.512007   6.169241   7.467560   7.332649   4.321818
    39  Cl   3.990691   6.091949   7.376565   6.085773   6.407118
    40  H    3.710527   4.332748   5.750418   4.872429   4.564396
                   16         17         18         19         20
    16  H    0.000000
    17  H    4.651807   0.000000
    18  H    4.034876   2.347949   0.000000
    19  O    6.311567   6.209387   3.979622   0.000000
    20  O    5.059267   7.326958   5.176199   4.012249   0.000000
    21  O    2.955960   6.414247   5.061385   6.204064   3.222608
    22  C    5.179448   5.553808   3.223507   1.278579   3.053855
    23  C    5.588664   6.068597   3.764975   2.331544   2.449159
    24  C    4.882277   6.322788   4.179391   3.642609   1.443766
    25  C    3.514109   5.088009   3.197911   4.169589   2.471659
    26  C    5.952307   7.201260   5.217869   4.780976   2.360041
    27  C    3.288285   5.776530   4.325278   5.645979   3.027818
    28  C    4.305019   6.098313   4.971437   6.665356   4.152295
    29  H    5.818698   5.651595   3.452729   2.706160   3.241680
    30  H    6.431303   6.963747   4.652621   2.403433   2.597585
    31  H    3.862333   4.506835   2.703719   4.265606   3.258505
    32  H    4.633453   7.086363   4.945625   3.649271   1.102799
    33  H    6.757760   7.962076   5.882819   4.807099   2.534902
    34  H    5.843425   7.561062   5.710466   5.572323   2.533914
    35  H    6.149037   6.823966   4.967807   4.949307   3.183312
    36  H    5.009165   7.043474   5.841683   7.162337   4.232042
    37  H    4.098940   5.926040   5.153729   7.315182   4.947611
    38  H    4.760672   5.773421   4.619539   6.362296   4.306800
    39  Cl   4.723681   2.782099   4.730006   8.576519   8.903168
    40  H    2.342337   4.011597   4.661343   7.909742   7.233153
                   21         22         23         24         25
    21  O    0.000000
    22  C    4.946514   0.000000
    23  C    4.590875   1.514491   0.000000
    24  C    3.249824   2.556436   1.521085   0.000000
    25  C    2.398566   2.907073   2.449339   1.550817   0.000000
    26  C    3.808201   3.859871   2.473182   1.513154   2.562900
    27  C    1.200936   4.377846   3.822687   2.536165   1.525367
    28  C    2.349332   5.440989   4.623786   3.409389   2.589673
    29  H    4.936512   2.024450   0.949731   2.024604   2.623250
    30  H    5.232603   2.022550   0.949402   2.028760   3.277041
    31  H    3.088318   3.081924   2.549920   2.044419   0.950717
    32  H    3.390923   2.726886   2.719690   2.111734   2.704175
    33  H    4.580268   4.080726   2.644879   2.035410   3.370349
    34  H    3.354125   4.566473   3.295399   2.035602   2.763099
    35  H    4.224290   4.063460   2.642634   2.031172   2.725481
    36  H    2.611814   5.962450   5.005076   3.672443   3.194973
    37  H    2.609125   6.073235   5.398024   4.240995   3.196088
    38  H    3.101586   5.202007   4.281761   3.285964   2.564216
    39  Cl   7.036033   7.754245   8.244346   8.099288   6.619345
    40  H    4.908743   6.873327   7.324306   6.787456   5.271818
                   26         27         28         29         30
    26  C    0.000000
    27  C    2.980044   0.000000
    28  C    3.217601   1.507154   0.000000
    29  H    2.609313   3.995371   4.541504   0.000000
    30  H    2.637398   4.530400   5.288820   1.552133   0.000000
    31  H    2.753583   2.025177   2.588031   2.366464   3.436577
    32  H    3.356611   3.396998   4.740138   3.589501   2.954273
    33  H    0.950351   3.861492   4.130609   2.873834   2.455770
    34  H    0.949654   2.661644   2.751888   3.479235   3.500613
    35  H    0.946201   3.208623   3.126007   2.425062   2.909810
    36  H    3.175499   2.030081   0.948763   4.989378   5.542883
    37  H    4.159477   2.030410   0.950068   5.278471   6.123807
    38  H    2.957127   2.031664   0.950297   4.022531   4.950576
    39  Cl   8.937180   6.736640   6.928638   7.952711   9.186134
    40  H    7.718579   5.020068   5.526416   7.317923   8.242582
                   31         32         33         34         35
    31  H    0.000000
    32  H    3.544405   0.000000
    33  H    3.591916   3.563635   0.000000
    34  H    3.073242   3.568243   1.551279   0.000000
    35  H    2.579585   4.086627   1.551563   1.550657   0.000000
    36  H    3.318095   4.955187   3.988563   2.483713   3.192391
    37  H    3.126166   5.420230   5.078347   3.695303   4.021948
    38  H    2.251090   4.947201   3.871707   2.710964   2.600645
    39  Cl   6.221227   8.612151   9.809536   9.041834   8.642175
    40  H    5.256478   6.871118   8.598883   7.628702   7.689928
                   36         37         38         39         40
    36  H    0.000000
    37  H    1.551365   0.000000
    38  H    1.552309   1.551290   0.000000
    39  Cl   7.834852   6.397996   6.886767   0.000000
    40  H    6.327621   4.990697   5.841714   2.784893   0.000000
 Stoichiometry    C17H18ClO4(1-)
 Framework group  C1[X(C17H18ClO4)]
 Deg. of freedom   114
 Full point group                 C1      NOp   1
 Largest Abelian subgroup         C1      NOp   1
 Largest concise Abelian subgroup C1      NOp   1
                         Standard orientation:                         
 ---------------------------------------------------------------------
 Center     Atomic      Atomic             Coordinates (Angstroms)
 Number     Number       Type             X           Y           Z
 ---------------------------------------------------------------------
      1          8           0        1.081794    3.813488    0.367268
      2          6           0       -0.112056    2.596136    1.945836
      3          6           0        0.759148    2.642208    0.713624
      4          6           0        1.174438    1.459103    0.057190
      5          6           0        0.553721    0.132983    0.499810
      6          6           0       -0.948901    0.084184    0.227210
      7          6           0       -1.834666   -0.376898    1.178382
      8          6           0       -3.193839   -0.490044    0.896671
      9          6           0       -3.651145   -0.110507   -0.323714
     10          6           0       -2.814736    0.384642   -1.276707
     11          6           0       -1.449542    0.481903   -1.007081
     12          1           0       -0.327725    1.697989    2.145856
     13          1           0        0.354816    2.987924    2.674416
     14          1           0       -0.910784    3.089537    1.783275
     15          1           0        0.679798    0.058980    1.438644
     16          1           0       -1.514550   -0.621442    2.039540
     17          1           0       -3.159840    0.666652   -2.116557
     18          1           0       -0.859759    0.821718   -1.671088
     19          8           0        2.712416    2.555749   -1.406340
     20          8           0        3.401779   -0.691287    0.847474
     21          8           0        0.850542   -2.384635    1.851949
     22          6           0        2.189517    1.511623   -0.885628
     23          6           0        2.844560    0.228566   -1.352925
     24          6           0        2.706575   -0.942954   -0.392613
     25          6           0        1.183693   -1.116678   -0.156637
     26          6           0        3.367169   -2.162504   -0.997550
     27          6           0        0.894522   -2.377428    0.651840
     28          6           0        0.654079   -3.651305   -0.116885
     29          1           0        2.448990   -0.024519   -2.178431
     30          1           0        3.769708    0.398674   -1.481488
     31          1           0        0.778025   -1.225270   -1.009575
     32          1           0        2.995779    0.195408    1.362355
     33          1           0        4.287276   -1.978736   -1.148546
     34          1           0        3.284887   -2.894671   -0.398380
     35          1           0        2.943392   -2.371043   -1.817441
     36          1           0        1.304076   -4.296383    0.131165
     37          1           0       -0.214117   -3.980815    0.083831
     38          1           0        0.717870   -3.475219   -1.048544
     39         17           0       -5.358208   -0.254319   -0.681613
     40          1           0       -3.795777   -0.830062    1.550641
 ---------------------------------------------------------------------
 Rotational constants (GHZ):           0.3629178           0.1903052           0.1489403
 Leave Link  202 at Mon Mar  6 10:21:40 2023, MaxMem=  1048576000 cpu:               0.0 elap:               0.0
 (Enter /ssoft/spack/external/gaussian/g16-C.01/avx2/g16/l301.exe)
 Standard basis: def2SVP (5D, 7F)
 Ernie: Thresh=  0.10000D-02 Tol=  0.10000D-05 Strict=F.
 There are   424 symmetry adapted cartesian basis functions of A   symmetry.
 There are   402 symmetry adapted basis functions of A   symmetry.
   402 basis functions,   688 primitive gaussians,   424 cartesian basis functions
    85 alpha electrons       85 beta electrons
       nuclear repulsion energy      2016.7016297859 Hartrees.
 IExCor= 1009 DFT=T Ex+Corr=PBE1PBE ExCW=0 ScaHFX=  0.250000
 ScaDFX=  0.750000  0.750000  1.000000  1.000000 ScalE2=  1.000000  1.000000
 IRadAn=      5 IRanWt=     -1 IRanGd=            0 ICorTp=0 IEmpDi=141
 NAtoms=   40 NActive=   40 NUniq=   40 SFac= 1.00D+00 NAtFMM=   60 NAOKFM=F Big=F
 Integral buffers will be    131072 words long.
 Raffenetti 2 integral format.
 Two-electron integral symmetry is turned on.
 R6Disp:  Grimme-D3(BJ) Dispersion energy=       -0.0529364109 Hartrees.
 Nuclear repulsion after empirical dispersion term =     2016.6486933750 Hartrees.
 Leave Link  301 at Mon Mar  6 10:21:40 2023, MaxMem=  1048576000 cpu:               0.1 elap:               0.1
 (Enter /ssoft/spack/external/gaussian/g16-C.01/avx2/g16/l302.exe)
 NPDir=0 NMtPBC=     1 NCelOv=     1 NCel=       1 NClECP=     1 NCelD=      1
         NCelK=      1 NCelE2=     1 NClLst=     1 CellRange=     0.0.
 One-electron integrals computed using PRISM.
 One-electron integral symmetry used in STVInt
   1 Symmetry operations used in ECPInt.
 ECPInt:  NShTT=   17766 NPrTT=   65330 LenC2=   16499 LenP2D=   42598.
 LDataN:  DoStor=T MaxTD1= 4 Len=   56
 NBasis=   402 RedAO= T EigKep=  2.24D-04  NBF=   402
 NBsUse=   402 1.00D-06 EigRej= -1.00D+00 NBFU=   402
 Precomputing XC quadrature grid using
 IXCGrd= 4 IRadAn=           5 IRanWt=          -1 IRanGd=           0 AccXCQ= 0.00D+00.
 Generated NRdTot=       0 NPtTot=           0 NUsed=           0 NTot=          32
 NSgBfM=   422   422   422   422   422 MxSgAt=    40 MxSgA2=    40.
 Leave Link  302 at Mon Mar  6 10:21:42 2023, MaxMem=  1048576000 cpu:               1.6 elap:               1.6
 (Enter /ssoft/spack/external/gaussian/g16-C.01/avx2/g16/l303.exe)
 DipDrv:  MaxL=1.
 Leave Link  303 at Mon Mar  6 10:21:42 2023, MaxMem=  1048576000 cpu:               0.1 elap:               0.1
 (Enter /ssoft/spack/external/gaussian/g16-C.01/avx2/g16/l401.exe)
 ExpMin= 1.22D-01 ExpMax= 1.04D+04 ExpMxC= 1.57D+03 IAcc=3 IRadAn=         5 AccDes= 0.00D+00
 Harris functional with IExCor= 1009 and IRadAn=       5 diagonalized for initial guess.
 HarFok:  IExCor= 1009 AccDes= 0.00D+00 IRadAn=         5 IDoV= 1 UseB2=F ITyADJ=14
 ICtDFT=  3500011 ScaDFX=  1.000000  1.000000  1.000000  1.000000
 FoFCou: FMM=F IPFlag=           0 FMFlag=      100000 FMFlg1=           0
         NFxFlg=           0 DoJE=T BraDBF=F KetDBF=T FulRan=T
         wScrn=  0.000000 ICntrl=       500 IOpCl=  0 I1Cent=   200000004 NGrid=           0
         NMat0=    1 NMatS0=      1 NMatT0=    0 NMatD0=    1 NMtDS0=    0 NMtDT0=    0
 Petite list used in FoFCou.
 Harris En= -1417.95474074554    
 JPrj=0 DoOrth=F DoCkMO=F.
 Leave Link  401 at Mon Mar  6 10:21:57 2023, MaxMem=  1048576000 cpu:              15.0 elap:              15.1
 (Enter /ssoft/spack/external/gaussian/g16-C.01/avx2/g16/l502.exe)
 Integral symmetry usage will be decided dynamically.
 Closed shell SCF:
 Using DIIS extrapolation, IDIIS=  1040.
 NGot=  1048576000 LenX=  1048208444 LenY=  1048028227
 Requested convergence on RMS density matrix=1.00D-08 within 128 cycles.
 Requested convergence on MAX density matrix=1.00D-06.
 Requested convergence on             energy=1.00D-06.
 No special actions if energy rises.
 Fock matrices will be formed incrementally for  20 cycles.
 Integral accuracy reduced to 1.0D-05 until final iterations.

 Cycle   1  Pass 0  IDiag  1:
 FoFJK:  IHMeth= 1 ICntrl=       0 DoSepK=F KAlg= 0 I1Cent=           0 FoldK=F
 IRaf= 870000000 NMat=       1 IRICut=       1 DoRegI=T DoRafI=F ISym2E= 0 IDoP0=0 IntGTp=1.
 FoFCou: FMM=F IPFlag=           0 FMFlag=      100000 FMFlg1=           0
         NFxFlg=           0 DoJE=F BraDBF=F KetDBF=F FulRan=T
         wScrn=  0.000000 ICntrl=         0 IOpCl=  0 I1Cent=           0 NGrid=           0
         NMat0=    1 NMatS0=      1 NMatT0=    0 NMatD0=    1 NMtDS0=    0 NMtDT0=    0
 Symmetry not used in FoFCou.
 E= -1416.69505156964    
 DIIS: error= 2.77D-02 at cycle   1 NSaved=   1.
 NSaved= 1 IEnMin= 1 EnMin= -1416.69505156964     IErMin= 1 ErrMin= 2.77D-02
 ErrMax= 2.77D-02  0.00D+00 EMaxC= 1.00D-01 BMatC= 7.31D-01 BMatP= 7.31D-01
 IDIUse=3 WtCom= 7.23D-01 WtEn= 2.77D-01
 Coeff-Com:  0.100D+01
 Coeff-En:   0.100D+01
 Coeff:      0.100D+01
 Gap=     0.457 Goal=   None    Shift=    0.000
 GapD=    0.457 DampG=2.000 DampE=0.500 DampFc=1.0000 IDamp=-1.
 RMSDP=1.30D-02 MaxDP=8.31D-01              OVMax= 9.67D-01

 Cycle   2  Pass 0  IDiag  1:
 RMSU=  1.29D-02    CP:  9.59D-01
 E= -1414.46639180579     Delta-E=        2.228659763855 Rises=F Damp=F
 DIIS: error= 5.91D-02 at cycle   2 NSaved=   2.
 NSaved= 2 IEnMin= 1 EnMin= -1416.69505156964     IErMin= 1 ErrMin= 2.77D-02
 ErrMax= 5.91D-02  0.00D+00 EMaxC= 1.00D-01 BMatC= 2.08D+00 BMatP= 7.31D-01
 IDIUse=2 WtCom= 0.00D+00 WtEn= 1.00D+00
 Coeff-En:   0.799D+00 0.201D+00
 Coeff:      0.799D+00 0.201D+00
 Gap=    -0.113 Goal=   None    Shift=    0.000
 RMSDP=1.17D-02 MaxDP=8.00D-01 DE= 2.23D+00 OVMax= 9.42D-01

 Cycle   3  Pass 0  IDiag  1:
 RMSU=  4.12D-03    CP:  9.47D-01  1.55D-01
 E= -1417.18508436723     Delta-E=       -2.718692561440 Rises=F Damp=F
 DIIS: error= 1.43D-02 at cycle   3 NSaved=   3.
 NSaved= 3 IEnMin= 3 EnMin= -1417.18508436723     IErMin= 3 ErrMin= 1.43D-02
 ErrMax= 1.43D-02  0.00D+00 EMaxC= 1.00D-01 BMatC= 2.33D-01 BMatP= 7.31D-01
 IDIUse=3 WtCom= 8.57D-01 WtEn= 1.43D-01
 Coeff-Com:  0.385D+00 0.134D+00 0.481D+00
 Coeff-En:   0.161D+00 0.000D+00 0.839D+00
 Coeff:      0.353D+00 0.115D+00 0.532D+00
 Gap=     0.135 Goal=   None    Shift=    0.000
 RMSDP=2.06D-03 MaxDP=9.53D-02 DE=-2.72D+00 OVMax= 9.05D-02

 Cycle   4  Pass 0  IDiag  1:
 RMSU=  1.63D-03    CP:  9.61D-01  1.25D-01  7.15D-01
 E= -1417.40474554622     Delta-E=       -0.219661178988 Rises=F Damp=F
 DIIS: error= 6.37D-03 at cycle   4 NSaved=   4.
 NSaved= 4 IEnMin= 4 EnMin= -1417.40474554622     IErMin= 4 ErrMin= 6.37D-03
 ErrMax= 6.37D-03  0.00D+00 EMaxC= 1.00D-01 BMatC= 1.97D-02 BMatP= 2.33D-01
 IDIUse=3 WtCom= 9.36D-01 WtEn= 6.37D-02
 Coeff-Com:  0.116D+00 0.503D-01 0.239D+00 0.595D+00
 Coeff-En:   0.000D+00 0.000D+00 0.000D+00 0.100D+01
 Coeff:      0.108D+00 0.471D-01 0.223D+00 0.621D+00
 Gap=     0.128 Goal=   None    Shift=    0.000
 RMSDP=6.77D-04 MaxDP=3.17D-02 DE=-2.20D-01 OVMax= 3.19D-02

 Cycle   5  Pass 0  IDiag  1:
 RMSU=  5.53D-04    CP:  9.60D-01  1.33D-01  7.74D-01  8.22D-01
 E= -1417.41640171758     Delta-E=       -0.011656171363 Rises=F Damp=F
 DIIS: error= 3.18D-03 at cycle   5 NSaved=   5.
 NSaved= 5 IEnMin= 5 EnMin= -1417.41640171758     IErMin= 5 ErrMin= 3.18D-03
 ErrMax= 3.18D-03  0.00D+00 EMaxC= 1.00D-01 BMatC= 7.09D-03 BMatP= 1.97D-02
 IDIUse=3 WtCom= 9.68D-01 WtEn= 3.18D-02
 Coeff-Com:  0.966D-02 0.145D-01 0.532D-01 0.409D+00 0.514D+00
 Coeff-En:   0.000D+00 0.000D+00 0.000D+00 0.268D+00 0.732D+00
 Coeff:      0.936D-02 0.141D-01 0.515D-01 0.404D+00 0.521D+00
 Gap=     0.125 Goal=   None    Shift=    0.000
 RMSDP=3.25D-04 MaxDP=1.59D-02 DE=-1.17D-02 OVMax= 2.46D-02

 Cycle   6  Pass 0  IDiag  1:
 RMSU=  2.34D-04    CP:  9.59D-01  1.32D-01  7.67D-01  8.91D-01  6.56D-01
 E= -1417.42252376794     Delta-E=       -0.006122050361 Rises=F Damp=F
 DIIS: error= 6.92D-04 at cycle   6 NSaved=   6.
 NSaved= 6 IEnMin= 6 EnMin= -1417.42252376794     IErMin= 6 ErrMin= 6.92D-04
 ErrMax= 6.92D-04  0.00D+00 EMaxC= 1.00D-01 BMatC= 5.10D-04 BMatP= 7.09D-03
 IDIUse=3 WtCom= 9.93D-01 WtEn= 6.92D-03
 Coeff-Com: -0.687D-02 0.496D-02-0.383D-02 0.138D+00 0.280D+00 0.587D+00
 Coeff-En:   0.000D+00 0.000D+00 0.000D+00 0.000D+00 0.000D+00 0.100D+01
 Coeff:     -0.682D-02 0.492D-02-0.380D-02 0.137D+00 0.278D+00 0.590D+00
 Gap=     0.123 Goal=   None    Shift=    0.000
 RMSDP=1.06D-04 MaxDP=5.17D-03 DE=-6.12D-03 OVMax= 5.69D-03

 Cycle   7  Pass 0  IDiag  1:
 RMSU=  6.14D-05    CP:  9.59D-01  1.33D-01  7.68D-01  9.11D-01  7.24D-01
                    CP:  7.07D-01
 E= -1417.42294888817     Delta-E=       -0.000425120227 Rises=F Damp=F
 DIIS: error= 2.28D-04 at cycle   7 NSaved=   7.
 NSaved= 7 IEnMin= 7 EnMin= -1417.42294888817     IErMin= 7 ErrMin= 2.28D-04
 ErrMax= 2.28D-04  0.00D+00 EMaxC= 1.00D-01 BMatC= 3.66D-05 BMatP= 5.10D-04
 IDIUse=3 WtCom= 9.98D-01 WtEn= 2.28D-03
 Coeff-Com: -0.404D-02 0.126D-02-0.776D-02 0.241D-01 0.778D-01 0.275D+00
 Coeff-Com:  0.633D+00
 Coeff-En:   0.000D+00 0.000D+00 0.000D+00 0.000D+00 0.000D+00 0.000D+00
 Coeff-En:   0.100D+01
 Coeff:     -0.403D-02 0.126D-02-0.774D-02 0.240D-01 0.776D-01 0.275D+00
 Coeff:      0.634D+00
 Gap=     0.124 Goal=   None    Shift=    0.000
 RMSDP=2.93D-05 MaxDP=1.13D-03 DE=-4.25D-04 OVMax= 2.50D-03

 Cycle   8  Pass 0  IDiag  1:
 RMSU=  2.35D-05    CP:  9.59D-01  1.33D-01  7.68D-01  9.12D-01  7.30D-01
                    CP:  7.66D-01  8.32D-01
 E= -1417.42298189997     Delta-E=       -0.000033011806 Rises=F Damp=F
 DIIS: error= 1.15D-04 at cycle   8 NSaved=   8.
 NSaved= 8 IEnMin= 8 EnMin= -1417.42298189997     IErMin= 8 ErrMin= 1.15D-04
 ErrMax= 1.15D-04  0.00D+00 EMaxC= 1.00D-01 BMatC= 6.40D-06 BMatP= 3.66D-05
 IDIUse=3 WtCom= 9.99D-01 WtEn= 1.15D-03
 Coeff-Com: -0.145D-02 0.351D-03-0.393D-02-0.793D-03 0.126D-01 0.830D-01
 Coeff-Com:  0.346D+00 0.564D+00
 Coeff-En:   0.000D+00 0.000D+00 0.000D+00 0.000D+00 0.000D+00 0.000D+00
 Coeff-En:   0.307D-01 0.969D+00
 Coeff:     -0.145D-02 0.350D-03-0.393D-02-0.792D-03 0.126D-01 0.829D-01
 Coeff:      0.346D+00 0.564D+00
 Gap=     0.124 Goal=   None    Shift=    0.000
 RMSDP=1.11D-05 MaxDP=5.89D-04 DE=-3.30D-05 OVMax= 6.91D-04

 Cycle   9  Pass 0  IDiag  1:
 RMSU=  7.33D-06    CP:  9.59D-01  1.33D-01  7.68D-01  9.13D-01  7.33D-01
                    CP:  7.66D-01  8.66D-01  6.65D-01
 E= -1417.42298655277     Delta-E=       -0.000004652793 Rises=F Damp=F
 DIIS: error= 2.80D-05 at cycle   9 NSaved=   9.
 NSaved= 9 IEnMin= 9 EnMin= -1417.42298655277     IErMin= 9 ErrMin= 2.80D-05
 ErrMax= 2.80D-05  0.00D+00 EMaxC= 1.00D-01 BMatC= 8.78D-07 BMatP= 6.40D-06
 IDIUse=1 WtCom= 1.00D+00 WtEn= 0.00D+00
 Coeff-Com: -0.290D-03 0.767D-04-0.124D-02-0.310D-02-0.225D-02 0.127D-01
 Coeff-Com:  0.120D+00 0.325D+00 0.549D+00
 Coeff:     -0.290D-03 0.767D-04-0.124D-02-0.310D-02-0.225D-02 0.127D-01
 Coeff:      0.120D+00 0.325D+00 0.549D+00
 Gap=     0.124 Goal=   None    Shift=    0.000
 RMSDP=4.70D-06 MaxDP=3.32D-04 DE=-4.65D-06 OVMax= 3.10D-04

 Initial convergence to 1.0D-05 achieved.  Increase integral accuracy.
 Cycle  10  Pass 1  IDiag  1:
 E= -1417.42299910446     Delta-E=       -0.000012551697 Rises=F Damp=F
 DIIS: error= 9.34D-05 at cycle   1 NSaved=   1.
 NSaved= 1 IEnMin= 1 EnMin= -1417.42299910446     IErMin= 1 ErrMin= 9.34D-05
 ErrMax= 9.34D-05  0.00D+00 EMaxC= 1.00D-01 BMatC= 2.21D-06 BMatP= 2.21D-06
 IDIUse=1 WtCom= 1.00D+00 WtEn= 0.00D+00
 Coeff-Com:  0.100D+01
 Coeff:      0.100D+01
 Gap=     0.124 Goal=   None    Shift=    0.000
 RMSDP=4.70D-06 MaxDP=3.32D-04 DE=-1.26D-05 OVMax= 2.60D-04

 Cycle  11  Pass 1  IDiag  1:
 RMSU=  8.51D-05    CP:  1.00D+00
 E= -1417.42300077172     Delta-E=       -0.000001667258 Rises=F Damp=F
 DIIS: error= 2.72D-05 at cycle   2 NSaved=   2.
 NSaved= 2 IEnMin= 2 EnMin= -1417.42300077172     IErMin= 2 ErrMin= 2.72D-05
 ErrMax= 2.72D-05  0.00D+00 EMaxC= 1.00D-01 BMatC= 5.43D-07 BMatP= 2.21D-06
 IDIUse=1 WtCom= 1.00D+00 WtEn= 0.00D+00
 Coeff-Com:  0.242D+00 0.758D+00
 Coeff:      0.242D+00 0.758D+00
 Gap=     0.124 Goal=   None    Shift=    0.000
 RMSDP=6.69D-06 MaxDP=4.90D-04 DE=-1.67D-06 OVMax= 3.73D-04

 Cycle  12  Pass 1  IDiag  1:
 RMSU=  6.60D-06    CP:  1.00D+00  1.01D+00
 E= -1417.42300036193     Delta-E=        0.000000409791 Rises=F Damp=F
 DIIS: error= 4.34D-05 at cycle   3 NSaved=   3.
 NSaved= 3 IEnMin= 2 EnMin= -1417.42300077172     IErMin= 2 ErrMin= 2.72D-05
 ErrMax= 4.34D-05  0.00D+00 EMaxC= 1.00D-01 BMatC= 1.02D-06 BMatP= 5.43D-07
 IDIUse=1 WtCom= 1.00D+00 WtEn= 0.00D+00
 Coeff-Com: -0.157D-02 0.580D+00 0.422D+00
 Coeff:     -0.157D-02 0.580D+00 0.422D+00
 Gap=     0.124 Goal=   None    Shift=    0.000
 RMSDP=4.12D-06 MaxDP=3.35D-04 DE= 4.10D-07 OVMax= 2.49D-04

 Cycle  13  Pass 1  IDiag  1:
 RMSU=  8.19D-07    CP:  1.00D+00  1.02D+00  4.04D-01
 E= -1417.42300122632     Delta-E=       -0.000000864393 Rises=F Damp=F
 DIIS: error= 4.93D-06 at cycle   4 NSaved=   4.
 NSaved= 4 IEnMin= 4 EnMin= -1417.42300122632     IErMin= 4 ErrMin= 4.93D-06
 ErrMax= 4.93D-06  0.00D+00 EMaxC= 1.00D-01 BMatC= 1.50D-08 BMatP= 5.43D-07
 IDIUse=1 WtCom= 1.00D+00 WtEn= 0.00D+00
 Coeff-Com: -0.480D-02 0.356D+00 0.268D+00 0.381D+00
 Coeff:     -0.480D-02 0.356D+00 0.268D+00 0.381D+00
 Gap=     0.124 Goal=   None    Shift=    0.000
 RMSDP=4.90D-07 MaxDP=3.88D-05 DE=-8.64D-07 OVMax= 3.03D-05

 Cycle  14  Pass 1  IDiag  1:
 RMSU=  2.49D-07    CP:  1.00D+00  1.02D+00  4.34D-01  5.57D-01
 E= -1417.42300123913     Delta-E=       -0.000000012806 Rises=F Damp=F
 DIIS: error= 6.95D-07 at cycle   5 NSaved=   5.
 NSaved= 5 IEnMin= 5 EnMin= -1417.42300123913     IErMin= 5 ErrMin= 6.95D-07
 ErrMax= 6.95D-07  0.00D+00 EMaxC= 1.00D-01 BMatC= 3.59D-10 BMatP= 1.50D-08
 IDIUse=1 WtCom= 1.00D+00 WtEn= 0.00D+00
 Coeff-Com: -0.264D-02 0.176D+00 0.134D+00 0.214D+00 0.479D+00
 Coeff:     -0.264D-02 0.176D+00 0.134D+00 0.214D+00 0.479D+00
 Gap=     0.124 Goal=   None    Shift=    0.000
 RMSDP=9.73D-08 MaxDP=6.97D-06 DE=-1.28D-08 OVMax= 4.26D-06

 Cycle  15  Pass 1  IDiag  1:
 RMSU=  7.79D-08    CP:  1.00D+00  1.02D+00  4.29D-01  5.59D-01  8.16D-01
 E= -1417.42300123941     Delta-E=       -0.000000000286 Rises=F Damp=F
 DIIS: error= 1.99D-07 at cycle   6 NSaved=   6.
 NSaved= 6 IEnMin= 6 EnMin= -1417.42300123941     IErMin= 6 ErrMin= 1.99D-07
 ErrMax= 1.99D-07  0.00D+00 EMaxC= 1.00D-01 BMatC= 3.01D-11 BMatP= 3.59D-10
 IDIUse=1 WtCom= 1.00D+00 WtEn= 0.00D+00
 Coeff-Com: -0.824D-03 0.508D-01 0.386D-01 0.669D-01 0.257D+00 0.588D+00
 Coeff:     -0.824D-03 0.508D-01 0.386D-01 0.669D-01 0.257D+00 0.588D+00
 Gap=     0.124 Goal=   None    Shift=    0.000
 RMSDP=2.53D-08 MaxDP=1.90D-06 DE=-2.86D-10 OVMax= 8.54D-07

 Cycle  16  Pass 1  IDiag  1:
 RMSU=  1.90D-08    CP:  1.00D+00  1.02D+00  4.30D-01  5.63D-01  8.63D-01
                    CP:  8.85D-01
 E= -1417.42300123944     Delta-E=       -0.000000000022 Rises=F Damp=F
 DIIS: error= 1.02D-07 at cycle   7 NSaved=   7.
 NSaved= 7 IEnMin= 7 EnMin= -1417.42300123944     IErMin= 7 ErrMin= 1.02D-07
 ErrMax= 1.02D-07  0.00D+00 EMaxC= 1.00D-01 BMatC= 3.89D-12 BMatP= 3.01D-11
 IDIUse=1 WtCom= 1.00D+00 WtEn= 0.00D+00
 Coeff-Com:  0.454D-04-0.529D-02-0.390D-02-0.376D-02 0.526D-01 0.306D+00
 Coeff-Com:  0.655D+00
 Coeff:      0.454D-04-0.529D-02-0.390D-02-0.376D-02 0.526D-01 0.306D+00
 Coeff:      0.655D+00
 Gap=     0.124 Goal=   None    Shift=    0.000
 RMSDP=9.89D-09 MaxDP=4.78D-07 DE=-2.23D-11 OVMax= 4.74D-07

 SCF Done:  E(RPBE1PBE) =  -1417.42300124     A.U. after   16 cycles
            NFock= 16  Conv=0.99D-08     -V/T= 2.0038
 KE= 1.412027741589D+03 PE=-7.382637827712D+03 EE= 2.536538391509D+03
 Leave Link  502 at Mon Mar  6 10:31:14 2023, MaxMem=  1048576000 cpu:             553.2 elap:             557.2
 (Enter /ssoft/spack/external/gaussian/g16-C.01/avx2/g16/l801.exe)
 DoSCS=F DFT=T ScalE2(SS,OS)=  1.000000  1.000000
 Range of M.O.s used for correlation:     1   402
 NBasis=   402 NAE=    85 NBE=    85 NFC=     0 NFV=     0
 NROrb=    402 NOA=    85 NOB=    85 NVA=   317 NVB=   317
 Leave Link  801 at Mon Mar  6 10:31:14 2023, MaxMem=  1048576000 cpu:               0.0 elap:               0.0
 (Enter /ssoft/spack/external/gaussian/g16-C.01/avx2/g16/l1101.exe)
 Using compressed storage, NAtomX=    40.
 Will process     41 centers per pass.
   1 Symmetry operations used in ECPInt.
 ECPInt:  NShTT=   17766 NPrTT=   65330 LenC2=   16499 LenP2D=   42598.
 LDataN:  DoStor=T MaxTD1= 5 Len=  102
 R6Disp: Adding Grimme-D3(BJ) dispersion energy 1st derivatives to the gradient.
 Leave Link 1101 at Mon Mar  6 10:31:15 2023, MaxMem=  1048576000 cpu:               0.7 elap:               0.8
 (Enter /ssoft/spack/external/gaussian/g16-C.01/avx2/g16/l1102.exe)
 Symmetrizing basis deriv contribution to polar:
 IMax=3 JMax=2 DiffMx= 0.00D+00
 Leave Link 1102 at Mon Mar  6 10:31:15 2023, MaxMem=  1048576000 cpu:               0.1 elap:               0.1
 (Enter /ssoft/spack/external/gaussian/g16-C.01/avx2/g16/l1110.exe)
 Forming Gx(P) for the SCF density, NAtomX=    40.
 Integral derivatives from FoFJK, PRISM(SPDF).
 Do as many integral derivatives as possible in FoFJK.
 G2DrvN: MDV=    1048571744.
 G2DrvN: will do    41 centers at a time, making    1 passes.
 Calling FoFCou, ICntrl=  3107 FMM=F I1Cent=   0 AccDes= 0.00D+00.
 FoFJK:  IHMeth= 1 ICntrl=    3107 DoSepK=F KAlg= 0 I1Cent=           0 FoldK=F
 IRaf=         0 NMat=       1 IRICut=       1 DoRegI=T DoRafI=F ISym2E= 0 IDoP0=0 IntGTp=1.
 FoFCou: FMM=F IPFlag=           0 FMFlag=      100000 FMFlg1=           0
         NFxFlg=           0 DoJE=F BraDBF=F KetDBF=F FulRan=T
         wScrn=  0.000000 ICntrl=      3107 IOpCl=  0 I1Cent=           0 NGrid=           0
         NMat0=    1 NMatS0=      1 NMatT0=    0 NMatD0=    1 NMtDS0=    0 NMtDT0=    0
 Symmetry not used in FoFCou.
 End of G2Drv F.D. properties file   721 does not exist.
 End of G2Drv F.D. properties file   722 does not exist.
 End of G2Drv F.D. properties file   788 does not exist.
 Leave Link 1110 at Mon Mar  6 10:53:15 2023, MaxMem=  1048576000 cpu:            1315.6 elap:            1320.0
 (Enter /ssoft/spack/external/gaussian/g16-C.01/avx2/g16/l1002.exe)
 Minotr:  Closed shell wavefunction.
          IDoAtm=1111111111111111111111111111111111111111
          Direct CPHF calculation.
          Differentiating once with respect to electric field.
                with respect to dipole field.
          Differentiating once with respect to nuclear coordinates.
          Requested convergence is 1.0D-08 RMS, and 1.0D-07 maximum.
          Secondary convergence is 1.0D-12 RMS, and 1.0D-12 maximum.
          NewPWx=T KeepS1=F KeepF1=F KeepIn=T MapXYZ=F SortEE=F KeepMc=T.
        12047 words used for storage of precomputed grid.
 Two-electron integrals replicated using symmetry.
          MDV=    1048576000 using IRadAn=       1.
          Solving linear equations simultaneously, MaxMat=     384.
 FoF2E skips out because all densities are zero.
 CalDSu exits because no D1Ps are significant.
 FoFJK:  IHMeth= 1 ICntrl=       0 DoSepK=F KAlg= 0 I1Cent=           0 FoldK=F
 IRaf= 850000000 NMat=     120 IRICut=     300 DoRegI=T DoRafI=T ISym2E= 2 IDoP0=3 IntGTp=3.
 FoFCou: FMM=F IPFlag=           0 FMFlag=      100000 FMFlg1=           0
         NFxFlg=           0 DoJE=F BraDBF=F KetDBF=F FulRan=T
         wScrn=  0.000000 ICntrl=         0 IOpCl=  0 I1Cent=           0 NGrid=           0
         NMat0=  120 NMatS0=    120 NMatT0=    0 NMatD0=  120 NMtDS0=    0 NMtDT0=    0
 Integrals replicated using symmetry in FoFCou.
 Raff kept on since  80.77% of shell-pairs survive, threshold=   0.20 IRatSp=81.
          There are   123 degrees of freedom in the 1st order CPHF.  IDoFFX=6 NUNeed=     3.
    120 vectors produced by pass  0 Test12= 2.69D-14 1.00D-09 XBig12= 2.09D+02 6.29D+00.
 AX will form   120 AO Fock derivatives at one time.
    120 vectors produced by pass  1 Test12= 2.69D-14 1.00D-09 XBig12= 3.21D+01 8.84D-01.
    120 vectors produced by pass  2 Test12= 2.69D-14 1.00D-09 XBig12= 3.22D-01 7.38D-02.
    120 vectors produced by pass  3 Test12= 2.69D-14 1.00D-09 XBig12= 2.28D-03 7.27D-03.
    120 vectors produced by pass  4 Test12= 2.69D-14 1.00D-09 XBig12= 6.61D-06 3.00D-04.
    111 vectors produced by pass  5 Test12= 2.69D-14 1.00D-09 XBig12= 8.63D-09 5.89D-06.
     34 vectors produced by pass  6 Test12= 2.69D-14 1.00D-09 XBig12= 9.47D-12 2.01D-07.
      3 vectors produced by pass  7 Test12= 2.69D-14 1.00D-09 XBig12= 1.06D-14 7.25D-09.
 InvSVY:  IOpt=1 It=  1 EMax= 8.03D-15
 Solved reduced A of dimension   748 with   123 vectors.
 FullF1:  Do perturbations      1 to       3.
 Isotropic polarizability for W=    0.000000      187.97 Bohr**3.
 End of Minotr F.D. properties file   721 does not exist.
 End of Minotr F.D. properties file   722 does not exist.
 End of Minotr F.D. properties file   788 does not exist.
 Leave Link 1002 at Mon Mar  6 11:32:38 2023, MaxMem=  1048576000 cpu:            2355.0 elap:            2362.9
 (Enter /ssoft/spack/external/gaussian/g16-C.01/avx2/g16/l601.exe)
 Copying SCF densities to generalized density rwf, IOpCl= 0 IROHF=0.

 **********************************************************************

            Population analysis using the SCF Density.

 **********************************************************************

 Orbital symmetries:
       Occupied  (A) (A) (A) (A) (A) (A) (A) (A) (A) (A) (A) (A)
                 (A) (A) (A) (A) (A) (A) (A) (A) (A) (A) (A) (A)
                 (A) (A) (A) (A) (A) (A) (A) (A) (A) (A) (A) (A)
                 (A) (A) (A) (A) (A) (A) (A) (A) (A) (A) (A) (A)
                 (A) (A) (A) (A) (A) (A) (A) (A) (A) (A) (A) (A)
                 (A) (A) (A) (A) (A) (A) (A) (A) (A) (A) (A) (A)
                 (A) (A) (A) (A) (A) (A) (A) (A) (A) (A) (A) (A)
                 (A)
       Virtual   (A) (A) (A) (A) (A) (A) (A) (A) (A) (A) (A) (A)
                 (A) (A) (A) (A) (A) (A) (A) (A) (A) (A) (A) (A)
                 (A) (A) (A) (A) (A) (A) (A) (A) (A) (A) (A) (A)
                 (A) (A) (A) (A) (A) (A) (A) (A) (A) (A) (A) (A)
                 (A) (A) (A) (A) (A) (A) (A) (A) (A) (A) (A) (A)
                 (A) (A) (A) (A) (A) (A) (A) (A) (A) (A) (A) (A)
                 (A) (A) (A) (A) (A) (A) (A) (A) (A) (A) (A) (A)
                 (A) (A) (A) (A) (A) (A) (A) (A) (A) (A) (A) (A)
                 (A) (A) (A) (A) (A) (A) (A) (A) (A) (A) (A) (A)
                 (A) (A) (A) (A) (A) (A) (A) (A) (A) (A) (A) (A)
                 (A) (A) (A) (A) (A) (A) (A) (A) (A) (A) (A) (A)
                 (A) (A) (A) (A) (A) (A) (A) (A) (A) (A) (A) (A)
                 (A) (A) (A) (A) (A) (A) (A) (A) (A) (A) (A) (A)
                 (A) (A) (A) (A) (A) (A) (A) (A) (A) (A) (A) (A)
                 (A) (A) (A) (A) (A) (A) (A) (A) (A) (A) (A) (A)
                 (A) (A) (A) (A) (A) (A) (A) (A) (A) (A) (A) (A)
                 (A) (A) (A) (A) (A) (A) (A) (A) (A) (A) (A) (A)
                 (A) (A) (A) (A) (A) (A) (A) (A) (A) (A) (A) (A)
                 (A) (A) (A) (A) (A) (A) (A) (A) (A) (A) (A) (A)
                 (A) (A) (A) (A) (A) (A) (A) (A) (A) (A) (A) (A)
                 (A) (A) (A) (A) (A) (A) (A) (A) (A) (A) (A) (A)
                 (A) (A) (A) (A) (A) (A) (A) (A) (A) (A) (A) (A)
                 (A) (A) (A) (A) (A) (A) (A) (A) (A) (A) (A) (A)
                 (A) (A) (A) (A) (A) (A) (A) (A) (A) (A) (A) (A)
                 (A) (A) (A) (A) (A) (A) (A) (A) (A) (A) (A) (A)
                 (A) (A) (A) (A) (A) (A) (A) (A) (A) (A) (A) (A)
                 (A) (A) (A) (A) (A)
 The electronic state is 1-A.
 Alpha  occ. eigenvalues -- -101.59163 -19.09830 -19.09135 -18.98437 -18.97996
 Alpha  occ. eigenvalues --  -10.21688 -10.19212 -10.17792 -10.13908 -10.13628
 Alpha  occ. eigenvalues --  -10.13533 -10.12858 -10.12797 -10.12777 -10.12391
 Alpha  occ. eigenvalues --  -10.11909 -10.11231 -10.10592 -10.08637 -10.06268
 Alpha  occ. eigenvalues --  -10.05179 -10.04307  -9.44377  -7.18482  -7.17538
 Alpha  occ. eigenvalues --   -7.17525  -0.96553  -0.89266  -0.83872  -0.82707
 Alpha  occ. eigenvalues --   -0.81777  -0.77337  -0.74010  -0.70523  -0.69795
 Alpha  occ. eigenvalues --   -0.69064  -0.65327  -0.64290  -0.63180  -0.60564
 Alpha  occ. eigenvalues --   -0.56465  -0.54467  -0.51481  -0.49050  -0.46436
 Alpha  occ. eigenvalues --   -0.44586  -0.44051  -0.41410  -0.40903  -0.40559
 Alpha  occ. eigenvalues --   -0.39909  -0.38221  -0.37853  -0.37097  -0.36633
 Alpha  occ. eigenvalues --   -0.35622  -0.34125  -0.33700  -0.33390  -0.32712
 Alpha  occ. eigenvalues --   -0.32281  -0.32033  -0.31704  -0.30863  -0.30583
 Alpha  occ. eigenvalues --   -0.29131  -0.28085  -0.27170  -0.26593  -0.26054
 Alpha  occ. eigenvalues --   -0.25161  -0.23774  -0.23687  -0.22795  -0.21867
 Alpha  occ. eigenvalues --   -0.21459  -0.19909  -0.17902  -0.17414  -0.16161
 Alpha  occ. eigenvalues --   -0.15615  -0.14761  -0.08635  -0.04830  -0.04407
 Alpha virt. eigenvalues --    0.07974   0.09193   0.09443   0.14825   0.15229
 Alpha virt. eigenvalues --    0.16222   0.17977   0.19862   0.21380   0.22082
 Alpha virt. eigenvalues --    0.22295   0.23398   0.23705   0.24029   0.24658
 Alpha virt. eigenvalues --    0.25559   0.26470   0.27542   0.28423   0.28868
 Alpha virt. eigenvalues --    0.30450   0.31370   0.31740   0.31805   0.32673
 Alpha virt. eigenvalues --    0.33606   0.33814   0.34596   0.35889   0.36432
 Alpha virt. eigenvalues --    0.37624   0.38196   0.38913   0.39198   0.39555
 Alpha virt. eigenvalues --    0.40082   0.40667   0.43084   0.43956   0.44872
 Alpha virt. eigenvalues --    0.45348   0.46238   0.47375   0.47778   0.50790
 Alpha virt. eigenvalues --    0.52512   0.53196   0.53575   0.55170   0.56873
 Alpha virt. eigenvalues --    0.57104   0.58327   0.58699   0.59400   0.59947
 Alpha virt. eigenvalues --    0.60639   0.61565   0.62237   0.63059   0.64167
 Alpha virt. eigenvalues --    0.64945   0.65754   0.66445   0.67595   0.68219
 Alpha virt. eigenvalues --    0.69161   0.69785   0.70081   0.70779   0.71781
 Alpha virt. eigenvalues --    0.73329   0.74096   0.74823   0.76112   0.77620
 Alpha virt. eigenvalues --    0.77717   0.78298   0.78672   0.78899   0.80007
 Alpha virt. eigenvalues --    0.80651   0.81094   0.81436   0.82290   0.82792
 Alpha virt. eigenvalues --    0.82884   0.83626   0.84225   0.85279   0.85538
 Alpha virt. eigenvalues --    0.86027   0.86711   0.86973   0.87422   0.87756
 Alpha virt. eigenvalues --    0.88319   0.88398   0.88999   0.89324   0.89899
 Alpha virt. eigenvalues --    0.90073   0.90552   0.90999   0.91523   0.91981
 Alpha virt. eigenvalues --    0.92197   0.92792   0.93160   0.94186   0.94841
 Alpha virt. eigenvalues --    0.96062   0.96374   0.97149   0.98210   0.98699
 Alpha virt. eigenvalues --    0.99534   1.00390   1.01215   1.01802   1.03620
 Alpha virt. eigenvalues --    1.04198   1.04485   1.07156   1.08192   1.09977
 Alpha virt. eigenvalues --    1.11826   1.12307   1.15151   1.16966   1.17769
 Alpha virt. eigenvalues --    1.18290   1.19429   1.20014   1.23271   1.23456
 Alpha virt. eigenvalues --    1.24439   1.26382   1.27053   1.28588   1.29076
 Alpha virt. eigenvalues --    1.29710   1.31114   1.32855   1.33773   1.34150
 Alpha virt. eigenvalues --    1.35488   1.36262   1.36374   1.37203   1.39045
 Alpha virt. eigenvalues --    1.39594   1.41742   1.42274   1.45095   1.47039
 Alpha virt. eigenvalues --    1.48061   1.50145   1.50785   1.51480   1.52621
 Alpha virt. eigenvalues --    1.54182   1.56423   1.57412   1.57804   1.58933
 Alpha virt. eigenvalues --    1.60885   1.62328   1.63386   1.65240   1.69000
 Alpha virt. eigenvalues --    1.69119   1.72452   1.74318   1.74832   1.76084
 Alpha virt. eigenvalues --    1.77494   1.79425   1.79985   1.80884   1.81861
 Alpha virt. eigenvalues --    1.82498   1.82897   1.83797   1.85623   1.86117
 Alpha virt. eigenvalues --    1.87625   1.88550   1.89362   1.90033   1.90805
 Alpha virt. eigenvalues --    1.91656   1.92370   1.93239   1.94662   1.95739
 Alpha virt. eigenvalues --    1.97380   1.97977   1.98452   1.99604   2.00764
 Alpha virt. eigenvalues --    2.01280   2.01905   2.02869   2.05635   2.06159
 Alpha virt. eigenvalues --    2.06323   2.07380   2.07754   2.10293   2.10588
 Alpha virt. eigenvalues --    2.12441   2.13328   2.13580   2.15295   2.15922
 Alpha virt. eigenvalues --    2.17507   2.18691   2.20133   2.20737   2.21612
 Alpha virt. eigenvalues --    2.21971   2.24217   2.26210   2.27035   2.28022
 Alpha virt. eigenvalues --    2.29066   2.29984   2.31422   2.31893   2.33643
 Alpha virt. eigenvalues --    2.35564   2.36265   2.38154   2.39070   2.40294
 Alpha virt. eigenvalues --    2.40440   2.41905   2.43489   2.44213   2.44798
 Alpha virt. eigenvalues --    2.44935   2.45754   2.48524   2.50088   2.50703
 Alpha virt. eigenvalues --    2.53414   2.53651   2.56819   2.58191   2.58332
 Alpha virt. eigenvalues --    2.61313   2.62653   2.64877   2.67131   2.69269
 Alpha virt. eigenvalues --    2.71482   2.72638   2.73542   2.76272   2.76618
 Alpha virt. eigenvalues --    2.77131   2.79538   2.80836   2.81899   2.82448
 Alpha virt. eigenvalues --    2.83059   2.83254   2.83990   2.85523   2.87176
 Alpha virt. eigenvalues --    2.88177   2.91753   2.92693   2.94071   2.94830
 Alpha virt. eigenvalues --    2.96603   2.98083   2.99894   3.01440   3.03966
 Alpha virt. eigenvalues --    3.04765   3.10675   3.13329   3.14024   3.17523
 Alpha virt. eigenvalues --    3.18926   3.19310   3.21273   3.23792   3.27553
 Alpha virt. eigenvalues --    3.28245   3.28694   3.32651   3.33751   3.35104
 Alpha virt. eigenvalues --    3.37305   3.38285   3.38803   3.39747   3.40376
 Alpha virt. eigenvalues --    3.41688   3.43338   3.44814   3.45934   3.50102
 Alpha virt. eigenvalues --    3.51294   3.55279   3.57408   3.58924   3.59851
 Alpha virt. eigenvalues --    3.62374   3.62994   3.78671   3.79445   3.81169
 Alpha virt. eigenvalues --    3.85401   3.90720
     Molecular Orbital Coefficients:
                          81        82        83        84        85
                           O         O         O         O         O
     Eigenvalues --    -0.15615  -0.14761  -0.08635  -0.04830  -0.04407
   1 1   O  1S          0.00322   0.00219   0.00451   0.00135  -0.01110
   2        2S          0.00663   0.00460   0.00890   0.00384  -0.02431
   3        3S          0.00246  -0.00347   0.02021   0.00192  -0.05541
   4        4PX         0.10682  -0.02509  -0.23654  -0.22987  -0.21201
   5        4PY         0.02853   0.03562   0.15069  -0.00596   0.11514
   6        4PZ         0.02309  -0.04785   0.31617  -0.17165   0.33950
   7        5PX         0.07268  -0.01705  -0.17675  -0.18063  -0.14587
   8        5PY         0.02098   0.02569   0.10858  -0.00374   0.09761
   9        5PZ         0.01601  -0.03247   0.23490  -0.14180   0.24221
  10        6D 0        0.00171  -0.00050   0.00370  -0.00323   0.00462
  11        6D+1        0.00112  -0.00001  -0.00338  -0.00067  -0.00567
  12        6D-1       -0.00097   0.00202  -0.00667   0.00378  -0.00523
  13        6D+2       -0.00085   0.00139   0.00483   0.00190   0.00523
  14        6D-2       -0.00452   0.00104   0.00494   0.00476   0.00306
  15 2   C  1S          0.00303  -0.00384   0.02915   0.00330   0.03497
  16        2S         -0.00342   0.00862  -0.06945  -0.00980  -0.08063
  17        3S         -0.00762   0.04435  -0.24662  -0.01337  -0.22624
  18        4PX         0.00828   0.02573  -0.08168  -0.01314  -0.08748
  19        4PY         0.03384   0.00036  -0.03888   0.00231  -0.02784
  20        4PZ        -0.01731  -0.01502   0.11185   0.01024   0.12567
  21        5PX        -0.01197   0.01608  -0.05525   0.04622  -0.06238
  22        5PY         0.00764  -0.01086   0.01618  -0.02401   0.01730
  23        5PZ        -0.01444  -0.01628   0.08577   0.04522   0.08074
  24        6D 0       -0.00081   0.00177  -0.00317  -0.00282  -0.00156
  25        6D+1        0.00066   0.00019   0.00011  -0.00113   0.00022
  26        6D-1        0.00255   0.00061  -0.00270  -0.00078  -0.00101
  27        6D+2        0.00247  -0.00006  -0.00432   0.00162  -0.00399
  28        6D-2       -0.00098   0.00019   0.00229  -0.00286   0.00168
  29 3   C  1S         -0.00675  -0.00388   0.00371   0.00110  -0.00600
  30        2S          0.01415   0.01024  -0.00434  -0.00398   0.01266
  31        3S          0.05066  -0.01368  -0.16466  -0.07454  -0.13660
  32        4PX         0.04803  -0.03356   0.04551   0.06387   0.02877
  33        4PY        -0.04974  -0.02548  -0.01974   0.00146  -0.03064
  34        4PZ         0.02984  -0.00781  -0.05637   0.04046  -0.07037
  35        5PX         0.04194  -0.00775  -0.07817  -0.03661  -0.02353
  36        5PY        -0.01617   0.01753   0.09265   0.03573   0.15444
  37        5PZ         0.02035  -0.02652   0.11212   0.00907   0.04299
  38        6D 0        0.00091   0.00363  -0.01310  -0.00553  -0.01518
  39        6D+1       -0.00113  -0.00169   0.01273   0.00003   0.01351
  40        6D-1        0.00494  -0.00077   0.01828  -0.02107   0.01758
  41        6D+2        0.00504   0.00318  -0.01647  -0.00387  -0.01912
  42        6D-2        0.00433  -0.00384  -0.01410  -0.02392  -0.00802
  43 4   C  1S          0.01770   0.00645  -0.06044   0.00640   0.00103
  44        2S         -0.03760  -0.01252   0.14043  -0.02554  -0.00224
  45        3S         -0.05042   0.01315   0.48255   0.13430  -0.05072
  46        4PX         0.00680   0.04740   0.05689   0.26912  -0.11802
  47        4PY         0.06920   0.05556   0.11660  -0.05425   0.08578
  48        4PZ        -0.01746  -0.03675  -0.01281   0.28459   0.10226
  49        5PX        -0.00299  -0.02625   0.06860   0.32632  -0.25485
  50        5PY         0.03022  -0.00708   0.18316   0.02131   0.15994
  51        5PZ        -0.02697   0.02896  -0.01063   0.27594   0.25373
  52        6D 0        0.00116  -0.00151   0.00058  -0.00273  -0.00203
  53        6D+1        0.00109   0.00062   0.00123   0.00217   0.00108
  54        6D-1        0.00443   0.00169   0.00203   0.00109   0.00195
  55        6D+2        0.00026   0.00102   0.00174   0.00161  -0.00182
  56        6D-2       -0.00162  -0.00173  -0.00103   0.00162  -0.00215
  57 5   C  1S          0.00163  -0.00030   0.01667   0.00182   0.00119
  58        2S         -0.00271   0.00017  -0.03824   0.00637  -0.00551
  59        3S         -0.04838  -0.01565  -0.03441   0.03281   0.00731
  60        4PX         0.01410  -0.02467  -0.03574  -0.02363   0.00834
  61        4PY        -0.09973  -0.06658  -0.06740   0.01533  -0.00938
  62        4PZ        -0.02650  -0.00996   0.02460  -0.06223  -0.01020
  63        5PX         0.01704  -0.06757  -0.03553   0.01959   0.02628
  64        5PY        -0.04597  -0.12689  -0.03615   0.00639  -0.04745
  65        5PZ        -0.01721  -0.00875   0.00800  -0.03641  -0.03866
  66        6D 0       -0.00010   0.00334  -0.00093  -0.01342  -0.00108
  67        6D+1       -0.00337  -0.00229   0.00048   0.00187   0.00083
  68        6D-1        0.00314   0.00165   0.00061   0.01094   0.00236
  69        6D+2       -0.00176   0.00678   0.00062   0.01012  -0.00425
  70        6D-2       -0.01118  -0.00409   0.00014   0.00899  -0.00247
  71 6   C  1S          0.00378  -0.00758  -0.00342  -0.02929   0.00579
  72        2S         -0.00705   0.01451   0.00868   0.07573  -0.01557
  73        3S          0.00274  -0.00221   0.02673   0.11203   0.01217
  74        4PX        -0.04956   0.03389   0.01897   0.09320  -0.01911
  75        4PY         0.25917   0.01407   0.00314   0.02126  -0.00786
  76        4PZ         0.09274   0.00907  -0.00278   0.01670  -0.00478
  77        5PX        -0.02468  -0.00557  -0.01678   0.07592  -0.02363
  78        5PY         0.19594   0.02566  -0.00303   0.01322  -0.01295
  79        5PZ         0.06348  -0.02967   0.00461  -0.00457   0.01514
  80        6D 0       -0.00163   0.00016   0.00051   0.00032  -0.00033
  81        6D+1       -0.00365   0.00074   0.00134  -0.00155  -0.00081
  82        6D-1       -0.00207   0.00004  -0.00056   0.00112   0.00027
  83        6D+2        0.00210   0.00127  -0.00016   0.00111  -0.00018
  84        6D-2       -0.01101  -0.00133  -0.00319  -0.00451   0.00056
  85 7   C  1S         -0.00120   0.00407   0.00510   0.00360  -0.00089
  86        2S          0.00368  -0.00730  -0.01127  -0.00844   0.00284
  87        3S          0.00596  -0.03277  -0.04913   0.02336  -0.03503
  88        4PX        -0.01977  -0.01715  -0.01445  -0.01898   0.00483
  89        4PY         0.15088   0.00674   0.00991   0.02978  -0.00013
  90        4PZ         0.05002   0.00092   0.00819   0.02722  -0.00638
  91        5PX        -0.01430   0.02488  -0.00590  -0.01549  -0.00973
  92        5PY         0.10747   0.01156   0.00418   0.03701  -0.00615
  93        5PZ         0.03464  -0.00541   0.02112   0.02118   0.00589
  94        6D 0       -0.00364  -0.00165  -0.00105  -0.00344   0.00079
  95        6D+1        0.00522   0.00002   0.00029  -0.00069   0.00012
  96        6D-1       -0.00548   0.00022   0.00063   0.00065   0.00037
  97        6D+2       -0.00594   0.00091   0.00042   0.00159  -0.00088
  98        6D-2        0.01121   0.00097   0.00025   0.00194  -0.00019
  99 8   C  1S          0.00019  -0.00315  -0.00202  -0.00412   0.00141
 100        2S         -0.00084   0.00857   0.00419   0.01162  -0.00511
 101        3S          0.00209   0.03408   0.02901  -0.00348   0.01459
 102        4PX         0.02108   0.01526   0.00934   0.01869  -0.00435
 103        4PY        -0.14366  -0.00562  -0.00561  -0.01723  -0.00331
 104        4PZ        -0.05310   0.00039  -0.00156  -0.00558  -0.00148
 105        5PX         0.01571   0.02469   0.01240   0.00396  -0.00137
 106        5PY        -0.09713  -0.00414   0.00022  -0.02199   0.00328
 107        5PZ        -0.03842   0.01103  -0.00523   0.00683  -0.01409
 108        6D 0        0.00710   0.00034   0.00060   0.00169  -0.00018
 109        6D+1        0.00135   0.00030   0.00049   0.00186  -0.00043
 110        6D-1        0.01014   0.00058   0.00081   0.00199  -0.00011
 111        6D+2        0.00121   0.00009  -0.00014  -0.00076   0.00019
 112        6D-2        0.00979   0.00049   0.00074   0.00177   0.00006
 113 9   C  1S          0.00020   0.00101   0.00030  -0.00447   0.00033
 114        2S         -0.00126  -0.00172  -0.00087   0.01139  -0.00100
 115        3S         -0.00549  -0.01018  -0.01318   0.05499  -0.02139
 116        4PX         0.04189   0.00169   0.00286   0.01020  -0.00087
 117        4PY        -0.25899  -0.01333  -0.01628  -0.03512   0.00219
 118        4PZ        -0.09756  -0.00631  -0.00577  -0.01744  -0.00001
 119        5PX         0.02587  -0.00435  -0.00205   0.01991  -0.00822
 120        5PY        -0.18021  -0.01505  -0.01469  -0.02899   0.00322
 121        5PZ        -0.06790   0.00589  -0.00787  -0.02502  -0.00783
 122        6D 0       -0.00150  -0.00063  -0.00041  -0.00101  -0.00008
 123        6D+1       -0.00266   0.00034   0.00027   0.00071  -0.00012
 124        6D-1       -0.00312   0.00016  -0.00017  -0.00116  -0.00024
 125        6D+2        0.00140   0.00057   0.00004  -0.00090  -0.00020
 126        6D-2       -0.00825  -0.00042  -0.00011   0.00025   0.00001
 127 10  C  1S          0.00042  -0.00166  -0.00005  -0.00032   0.00061
 128        2S         -0.00234   0.00440   0.00032   0.00078  -0.00158
 129        3S          0.00763   0.02086   0.00183  -0.02709   0.00998
 130        4PX         0.01394   0.00917   0.00079  -0.00004  -0.00275
 131        4PY        -0.11391  -0.00505   0.00161   0.01777   0.00223
 132        4PZ        -0.04606  -0.00081  -0.00017   0.01037   0.00060
 133        5PX         0.01126  -0.00086  -0.00127   0.01187   0.00330
 134        5PY        -0.07400  -0.00625   0.00137   0.03360   0.00110
 135        5PZ        -0.02387   0.00766   0.00603  -0.00358   0.00602
 136        6D 0       -0.00410  -0.00029  -0.00012  -0.00145   0.00005
 137        6D+1        0.00607   0.00026   0.00066  -0.00099   0.00004
 138        6D-1       -0.00486  -0.00021  -0.00023  -0.00033  -0.00003
 139        6D+2       -0.00646  -0.00031  -0.00062  -0.00069   0.00011
 140        6D-2        0.01211   0.00068   0.00097   0.00341  -0.00021
 141 11  C  1S         -0.00027   0.00124  -0.00159  -0.00543   0.00050
 142        2S          0.00306  -0.00242   0.00519   0.01449  -0.00149
 143        3S         -0.02198  -0.03547   0.00530  -0.00132  -0.00161
 144        4PX        -0.02042  -0.00799  -0.00005   0.00789   0.00019
 145        4PY         0.16304   0.00824   0.01394   0.04212  -0.00218
 146        4PZ         0.06515   0.00129   0.00998  -0.01624  -0.00107
 147        5PX        -0.01889  -0.00597   0.00135  -0.00696   0.01058
 148        5PY         0.11042   0.01305   0.01722   0.03095  -0.00043
 149        5PZ         0.04106  -0.01890  -0.00900  -0.03247  -0.00061
 150        6D 0        0.00710  -0.00043  -0.00053   0.00047   0.00017
 151        6D+1        0.00089   0.00106   0.00046   0.00180  -0.00059
 152        6D-1        0.00898   0.00101   0.00036   0.00038  -0.00042
 153        6D+2        0.00176   0.00077   0.00028   0.00104  -0.00045
 154        6D-2        0.00766   0.00008  -0.00031  -0.00353   0.00010
 155 12  H  1S         -0.03226  -0.00632   0.05998  -0.00501   0.04589
 156        2S         -0.02685  -0.02323   0.11388  -0.01295   0.11526
 157        3PX        -0.00173   0.00075  -0.00304  -0.00200  -0.00272
 158        3PY        -0.00170  -0.00041   0.00101   0.00090   0.00073
 159        3PZ        -0.00095  -0.00050   0.00450  -0.00058   0.00458
 160 13  H  1S          0.00391   0.00744  -0.00866  -0.01492  -0.00055
 161        2S          0.01598   0.00207   0.04100  -0.05588   0.06017
 162        3PX         0.00126   0.00049  -0.00270  -0.00180  -0.00324
 163        3PY         0.00177  -0.00003  -0.00128   0.00043  -0.00079
 164        3PZ        -0.00076  -0.00030   0.00282   0.00096   0.00373
 165 14  H  1S          0.01200  -0.01460  -0.00733   0.02265  -0.00871
 166        2S          0.00366  -0.00750   0.04800   0.08247   0.04407
 167        3PX        -0.00053   0.00054  -0.00189   0.00004  -0.00224
 168        3PY         0.00028   0.00077  -0.00118   0.00007  -0.00056
 169        3PZ        -0.00030  -0.00086   0.00323  -0.00026   0.00418
 170 15  H  1S         -0.01503   0.00830   0.00389  -0.09514  -0.01167
 171        2S          0.03058   0.04522   0.00255  -0.07688  -0.01015
 172        3PX         0.00040  -0.00066  -0.00102   0.00164  -0.00033
 173        3PY        -0.00434  -0.00407  -0.00226   0.00334  -0.00031
 174        3PZ        -0.00040   0.00170   0.00069   0.00032   0.00097
 175 16  H  1S          0.00216  -0.01092  -0.00635  -0.00784   0.00073
 176        2S         -0.00149   0.01598  -0.00330  -0.02503   0.00865
 177        3PX        -0.00067  -0.00012   0.00019  -0.00147   0.00047
 178        3PY         0.00549  -0.00040   0.00085   0.00123   0.00037
 179        3PZ         0.00193   0.00014   0.00069   0.00022   0.00008
 180 17  H  1S          0.00222  -0.00212   0.00083  -0.01007   0.00085
 181        2S          0.00372  -0.00203   0.00299  -0.01191   0.00283
 182        3PX         0.00057   0.00037   0.00006  -0.00013  -0.00015
 183        3PY        -0.00445  -0.00014   0.00005   0.00055   0.00011
 184        3PZ        -0.00174  -0.00032  -0.00009   0.00059  -0.00000
 185 18  H  1S          0.00252  -0.00648  -0.00213   0.00961   0.00130
 186        2S          0.00679  -0.00816  -0.02449  -0.04420   0.00005
 187        3PX        -0.00038   0.00024   0.00012  -0.00470   0.00020
 188        3PY         0.00602   0.00024   0.00080  -0.00088   0.00010
 189        3PZ         0.00236   0.00017   0.00035  -0.00002   0.00001
 190 19  O  1S          0.00151   0.00099   0.00481   0.00201   0.01039
 191        2S          0.00198   0.00107   0.00920   0.00507   0.02193
 192        3S          0.00557   0.00205   0.02772   0.00654   0.05752
 193        4PX        -0.01743   0.08803   0.23403  -0.25042  -0.25619
 194        4PY         0.02427   0.03780  -0.23256   0.00197   0.29069
 195        4PZ        -0.04448   0.02519  -0.21444  -0.21277   0.21084
 196        5PX        -0.01237   0.05989   0.16946  -0.20119  -0.18918
 197        5PY         0.01773   0.02479  -0.17668   0.00482   0.19501
 198        5PZ        -0.02886   0.01411  -0.15797  -0.16816   0.15755
 199        6D 0       -0.00084   0.00200  -0.00413  -0.00287   0.00423
 200        6D+1        0.00037   0.00025   0.00498  -0.00030  -0.00337
 201        6D-1        0.00219  -0.00079   0.00163   0.00490  -0.00372
 202        6D+2        0.00069  -0.00018  -0.00745   0.00231   0.00805
 203        6D-2        0.00056  -0.00352  -0.00194   0.00573   0.00427
 204 20  O  1S         -0.00506  -0.00287   0.00311  -0.00493  -0.00363
 205        2S         -0.01138  -0.00730   0.00497  -0.00580  -0.00759
 206        3S         -0.01143   0.00033   0.01880  -0.05971  -0.01548
 207        4PX        -0.11290   0.19812  -0.00242   0.03892   0.01081
 208        4PY        -0.06098   0.20503  -0.01633  -0.05133   0.01440
 209        4PZ         0.06578  -0.18297   0.00417  -0.00587   0.00254
 210        5PX        -0.09177   0.15178  -0.00503   0.04526   0.01146
 211        5PY        -0.05273   0.16049  -0.01577  -0.04879   0.01609
 212        5PZ         0.05077  -0.14562   0.00519  -0.00409   0.00090
 213        6D 0       -0.00078   0.00124   0.00026  -0.00004  -0.00036
 214        6D+1       -0.00074   0.00173   0.00020  -0.00053  -0.00020
 215        6D-1        0.00210  -0.00266  -0.00050   0.00050   0.00067
 216        6D+2        0.00218  -0.00559   0.00073  -0.00060  -0.00087
 217        6D-2       -0.00044  -0.00053   0.00002   0.00079   0.00020
 218 21  O  1S         -0.00025   0.00287  -0.00086   0.00341   0.00017
 219        2S         -0.00027   0.00407  -0.00121   0.00803   0.00032
 220        3S         -0.00514   0.04374  -0.00963   0.01044   0.00126
 221        4PX         0.03481   0.04318   0.01247  -0.00317   0.00448
 222        4PY         0.07656   0.37363  -0.00113   0.02612   0.01096
 223        4PZ         0.00727  -0.00377   0.00196   0.00044   0.00059
 224        5PX         0.03023   0.02871   0.00888  -0.00289   0.00568
 225        5PY         0.05700   0.28642  -0.00201   0.01849   0.01122
 226        5PZ         0.00554  -0.01433   0.00384  -0.00121   0.00001
 227        6D 0       -0.00015   0.00095  -0.00021   0.00042   0.00009
 228        6D+1       -0.00045  -0.00133  -0.00013   0.00025  -0.00008
 229        6D-1       -0.00142  -0.00791   0.00031  -0.00081  -0.00003
 230        6D+2       -0.00031  -0.00025  -0.00017   0.00044  -0.00005
 231        6D-2        0.00030  -0.00009  -0.00010   0.00014   0.00006
 232 22  C  1S         -0.00325  -0.00012   0.00312   0.00262   0.00569
 233        2S          0.00812  -0.00604  -0.00440  -0.00207  -0.01159
 234        3S          0.01458   0.07328  -0.10770  -0.07905   0.18149
 235        4PX        -0.02027  -0.00108  -0.03442   0.05934   0.05546
 236        4PY        -0.03421  -0.01483   0.04521   0.00744  -0.04548
 237        4PZ        -0.02618   0.05983   0.03441   0.05583  -0.03820
 238        5PX        -0.00595  -0.00189   0.10277   0.01731  -0.14895
 239        5PY        -0.01177  -0.00109  -0.09161  -0.01472  -0.03522
 240        5PZ        -0.02175   0.06084  -0.08431  -0.05574   0.13141
 241        6D 0        0.00034   0.00139   0.01344   0.02550  -0.01249
 242        6D+1        0.00083  -0.00301  -0.01396  -0.00007   0.01498
 243        6D-1        0.00094   0.00807  -0.00756  -0.01534   0.01225
 244        6D+2       -0.00115   0.00668   0.02177  -0.01730  -0.02182
 245        6D-2       -0.00449   0.00001   0.00882  -0.01073  -0.01582
 246 23  C  1S         -0.00700   0.03036   0.02607  -0.00103  -0.03690
 247        2S          0.02010  -0.07071  -0.05277   0.00356   0.07838
 248        3S          0.01756  -0.16101  -0.33846  -0.04758   0.31683
 249        4PX        -0.00649   0.02882   0.03059   0.00275  -0.05225
 250        4PY         0.01172   0.11506  -0.12290   0.00201   0.15341
 251        4PZ         0.04316  -0.14145  -0.02782  -0.01749   0.04247
 252        5PX        -0.00789   0.01527   0.04507   0.07121  -0.03609
 253        5PY         0.00193   0.08988  -0.04784   0.00506   0.07299
 254        5PZ         0.00255  -0.05785  -0.07791  -0.01470   0.07716
 255        6D 0       -0.00224   0.00171   0.00128   0.00388  -0.00087
 256        6D+1       -0.00044   0.00044   0.00008  -0.00082   0.00087
 257        6D-1       -0.00108   0.00515  -0.00311   0.00312   0.00254
 258        6D+2       -0.00091   0.00651  -0.00248  -0.00075   0.00122
 259        6D-2       -0.00301   0.00411   0.00312   0.00075  -0.00213
 260 24  C  1S          0.00296   0.00224  -0.01195   0.00362   0.00780
 261        2S         -0.00550  -0.00554   0.01783  -0.02688  -0.00858
 262        3S         -0.01465  -0.06041   0.22412   0.13659  -0.18458
 263        4PX         0.07924  -0.09890  -0.01355  -0.00974   0.00018
 264        4PY        -0.00152  -0.12187   0.05601  -0.01374  -0.05532
 265        4PZ        -0.02872   0.09225  -0.02965   0.01211   0.03258
 266        5PX         0.02488   0.01090  -0.02885  -0.09093   0.01902
 267        5PY         0.01340  -0.03942   0.06015   0.05576  -0.06682
 268        5PZ        -0.01362   0.00635  -0.07945   0.04879   0.07281
[...]
 0.00010901,-0.00097319,-0.00036126,0.00022766,-0.00030660,-0.00040889,
 -0.00175914,-0.00019193,0.00003265,0.00094005,-0.00350191,-0.00675667,
 0.00072358,-0.32337818,-0.26591943,0.20967110,-0.00002227,-0.00000754,
 0.00001102,-0.00002280,-0.00008553,-0.00002668,-0.00019747,0.00071835,
 -0.00015022,0.00000563,-0.00001579,0.00004886,0.00015327,0.00034136,0.
 00007819,0.00009553,0.00022504,-0.00083975,-0.00005082,-0.00027885,0.0
 0000389,0.33486672,0.27113304,0.00000852,0.00001930,0.00000021,0.00000
 836,-0.00000749,-0.00000324,-0.00003900,-0.00004373,-0.00000420,-0.000
 01405,-0.00006534,0.00000601,-0.00024758,-0.00019375,-0.00034053,0.000
 05095,0.00000365,-0.00002646,0.00000142,0.00002970,-0.00001016,0.00000
 440,0.00001564,0.00000500,-0.00002071,0.00000077,0.00005197,0.00000807
 ,-0.00000584,0.00000312,0.00001214,-0.00001763,0.00000625,-0.00000632,
 0.00000003,0.00000164,-0.00000264,0.00000206,0.00000190,-0.00000160,0.
 00000052,-0.00000239,0.00003065,-0.00002841,0.00000450,-0.00001640,0.0
 0000194,0.00000585,-0.00000446,-0.00000245,0.00000053,-0.00000305,-0.0
 0000547,-0.00000523,0.00003316,0.00002924,0.00001401,0.00010068,0.0001
 7183,-0.00005943,0.00429511,0.00098458,0.00021870,-0.00009101,0.000045
 83,0.00000132,0.00040211,-0.00003090,-0.00026765,-0.00057265,-0.000984
 36,0.00020849,0.00082377,-0.00054024,-0.00427497,-0.00028713,-0.000380
 88,-0.00006341,-0.02407065,-0.02052288,0.01196982,0.22575118,0.2039532
 1,-0.11608618,-0.00000133,-0.00000622,0.00000105,-0.00003118,-0.000136
 80,0.00001571,0.00000711,0.00052305,0.00009022,-0.00000655,0.00001460,
 0.00003041,0.00003641,0.00015848,0.00001014,0.00023097,-0.00037810,-0.
 00036077,0.00002654,0.00009816,0.00000588,-0.23631305,-0.21025843,0.12
 420251,-0.00005033,-0.00001397,-0.00001065,-0.00000989,0.00000399,0.00
 002224,0.00006915,-0.00011863,-0.00005880,-0.00028008,0.00006522,0.000
 05084,0.00013695,-0.00093497,-0.00007468,0.00022671,-0.00007490,-0.000
 35225,0.00011755,0.00019319,0.00001564,-0.00001956,0.00003039,0.000166
 77,-0.00007507,0.00001721,0.00009841,0.00002735,-0.00000845,-0.0000622
 3,-0.00000360,-0.00005323,0.00011752,0.00000302,0.00000727,-0.00000557
 ,0.00000005,-0.00000003,0.00000406,-0.00000796,-0.00000459,-0.00000677
 ,0.00004988,0.00007194,0.00002669,-0.00004185,-0.00001868,-0.00008452,
 0.00000103,0.00000263,0.00000452,0.00000107,0.00000730,-0.00001545,0.0
 0007336,-0.00000121,-0.00000900,0.00015184,-0.00015592,-0.00001719,0.0
 0002153,0.00033823,0.00420389,-0.00015844,0.00004476,0.00001982,-0.000
 05626,-0.00001205,0.00022241,-0.00007045,0.00115802,0.00003563,-0.0045
 6649,-0.00074737,0.00130236,0.00002035,0.00005233,0.00033404,0.0131235
 8,-0.01616754,-0.02760286,-0.13256915,0.17026371,0.26351870,-0.0000081
 2,-0.00001559,0.00000046,0.00002310,0.00006463,-0.00002369,-0.00010073
 ,-0.00031566,0.00003026,-0.00000411,-0.00000446,0.00003018,0.00009970,
 0.00008928,0.00006854,-0.00003317,0.00023223,-0.00027169,0.00005282,-0
 .00024915,0.00001495,-0.00944067,0.01880700,0.01875217,0.14075035,-0.0
 0004686,-0.00001090,-0.00000585,-0.00001580,0.00000426,0.00002306,0.00
 007219,-0.00007614,-0.00003265,-0.00029967,0.00003124,0.00005187,0.000
 16903,-0.00050039,-0.00031149,0.00024982,0.00002831,-0.00026003,0.0000
 3061,0.00012546,0.00001701,-0.00001233,0.00003536,0.00010119,-0.000074
 28,0.00002400,0.00009648,0.00003947,-0.00002693,-0.00000724,0.00003418
 ,-0.00007680,0.00009150,0.00000645,0.00000798,-0.00001097,-0.00000053,
 0.00000351,0.00000543,-0.00001030,-0.00000478,-0.00000817,-0.00004666,
 -0.00001116,0.00000320,-0.00002728,-0.00000455,-0.00000712,-0.00001003
 ,-0.00000816,0.00000096,-0.00000219,-0.00000228,-0.00002819,-0.0000067
 0,-0.00000196,0.00000364,-0.00009953,0.00000470,0.00004022,0.00253692,
 -0.00030331,0.00220958,0.00003897,0.00001188,0.00000740,-0.00008425,-0
 .00000860,0.00006590,0.00037617,0.00039530,0.00026492,-0.00297360,-0.0
 0005152,0.00005667,0.00011961,-0.00016331,-0.00003135,0.00139300,-0.00
 675922,-0.00501750,0.17601475,-0.15980215,-0.28544875,0.00000411,0.000
 02773,-0.00000898,0.00001130,0.00003192,-0.00000509,0.00019259,0.00011
 265,-0.00003266,-0.00001052,-0.00000836,-0.00002025,-0.00008771,0.0000
 4699,-0.00009601,0.00007257,-0.00004008,0.00007949,-0.00010987,0.00025
 066,-0.00002083,-0.01306225,0.01582820,0.02383064,-0.17626494,0.162070
 48,-0.00005885,-0.00003409,-0.00002381,-0.00001498,0.00001076,0.000008
 92,0.00009825,-0.00005511,-0.00002208,-0.00020677,0.00006111,-0.000001
 87,0.00031640,-0.00058089,-0.00003288,0.00008822,-0.00000702,-0.000100
 41,0.00000215,0.00004152,0.00002217,-0.00000951,-0.00000883,0.00003405
 ,-0.00002329,0.00001560,0.00001765,0.00000507,0.00000480,-0.00003072,-
 0.00002330,-0.00001743,0.00004210,0.00000971,0.00000292,0.00000241,-0.
 00000130,-0.00000239,-0.00000131,-0.00000185,-0.00000132,-0.00000143,0
 .00001580,0.00003915,0.00001133,-0.00000625,-0.00001353,-0.00002928,0.
 00000458,0.00000414,0.00000383,0.00000244,0.00000768,-0.00000539,0.000
 04460,-0.00004050,-0.00002792,0.00004959,-0.00006936,0.00000270,-0.001
 09457,0.00074103,0.00462223,-0.00008266,0.00005603,0.00004313,-0.00016
 114,-0.00002526,0.00018185,0.00011114,0.00080455,-0.00008749,-0.003004
 78,-0.00000061,0.00051014,0.00016134,0.00043965,-0.00007907,0.01314729
 ,-0.01021175,-0.01809377,0.27584026,-0.28591519,-0.43473014,-0.0000018
 4,-0.00000276,0.00000067,0.00002783,0.00006757,-0.00001736,-0.00010533
 ,-0.00012607,-0.00005551,-0.00000880,-0.00002945,0.00002189,0.00000780
 ,-0.00010329,0.00007614,-0.00003217,-0.00021152,0.00002247,0.00005079,
 -0.00009480,0.00003733,0.00149150,-0.01109717,-0.00925494,-0.27596939,
 0.29488896,0.44133120,0.00005127,0.00003760,0.00003882,0.00001486,-0.0
 0001121,0.00001912,-0.00007459,0.00004120,-0.00001187,0.00014233,-0.00
 005500,0.00005623,0.00002184,0.00015906,0.00040487,-0.00001861,0.00003
 679,0.00002198,-0.00002785,0.00009569,0.00000073,0.00001488,-0.0000119
 1,-0.00004523,-0.00002424,-0.00002307,0.00006881,0.00000731,-0.0000075
 1,0.00007681,0.00011671,0.00000879,-0.00001109,0.00000068,0.00001432,-
 0.00001698,0.00000603,0.00000812,0.00000695,-0.00000311,-0.00000203,-0
 .00000320,0.00019778,0.00015795,0.00006698,0.00005845,-0.00000490,0.00
 000401,-0.00001169,-0.00000712,-0.00000329,-0.00002560,-0.00003600,-0.
 00002002,-0.00004651,0.00005077,0.00003178,-0.00013176,-0.00012288,0.0
 0020666,-0.00499846,-0.00183788,-0.00782818,0.00010204,-0.00008245,-0.
 00003186,-0.00009883,-0.00000371,-0.00003645,0.00042250,-0.00023184,-0
 .00036943,0.00138610,0.00050852,0.00039048,-0.00023930,0.00005763,0.00
 021984,-0.01072819,0.02602755,-0.00307058,-0.13807595,0.28774280,-0.11
 276610,0.00002427,-0.00002015,-0.00000027,0.00000206,-0.00000155,0.000
 03135,-0.00005022,-0.00116972,0.00001275,-0.00000192,0.00007644,-0.000
 03229,-0.00003438,-0.00005287,0.00000402,-0.00002762,-0.00013932,0.000
 23159,0.00002430,0.00031259,0.00023113,0.01751664,-0.02819473,0.011139
 76,-0.00744205,0.01187251,-0.01066220,0.14192107,0.00004317,0.00004383
 ,0.00002609,0.00001361,-0.00000473,-0.00000202,-0.00007227,-0.00001579
 ,-0.00000935,0.00005626,0.00000432,-0.00002881,0.00026905,0.00014711,-
 0.00002022,-0.00003773,0.00001577,0.00007752,0.00001370,0.00001349,-0.
 00000847,0.00000826,-0.00000469,-0.00000972,-0.00001502,-0.00000862,0.
 00003882,-0.00000508,0.00000732,-0.00001134,0.00003815,0.00001242,-0.0
 0001464,-0.00001150,0.00000367,-0.00000010,0.00000035,0.00000116,0.000
 00239,0.00000278,0.00000123,-0.00000118,0.00001446,0.00013251,-0.00006
 904,-0.00000366,-0.00000157,-0.00000703,0.00000393,0.00000397,-0.00000
 132,-0.00000805,-0.00000862,0.00000096,0.00000013,0.00004998,0.0000258
 7,-0.00005686,-0.00002495,0.00010571,-0.00302045,0.00081308,-0.0030614
 2,0.00000476,-0.00004544,-0.00001317,-0.00013806,-0.00001761,0.0000842
 6,0.00022011,0.00002245,-0.00032436,-0.00105045,-0.00100226,-0.0005126
 0,0.00016395,-0.00030297,-0.00062735,-0.00795438,0.01195233,-0.0058710
 7,0.28751357,-0.52836429,0.22049761,0.00000704,-0.00002966,-0.00000549
 ,0.00001642,0.00004803,0.00001692,-0.00074523,-0.00010352,-0.00069111,
 -0.00002420,-0.00000875,-0.00002980,-0.00012270,-0.00008143,-0.0000898
 0,0.00010690,-0.00015138,0.00016252,0.00018929,0.00012112,-0.00042995,
 0.01604269,-0.01421347,0.00372741,0.00371363,-0.01117945,0.01146786,-0
 .29519170,0.54217809,0.00009252,0.00005147,0.00004086,0.00004262,-0.00
 001137,0.00000247,-0.00016736,0.00001152,-0.00003945,0.00036226,-0.000
 02601,-0.00002951,0.00005458,0.00019542,0.00039553,-0.00007162,-0.0000
 1441,0.00020419,-0.00002953,0.00001228,-0.00004880,0.00001741,-0.00002
 181,-0.00003558,0.00001530,-0.00004355,0.00000295,-0.00003308,0.000014
 92,0.00000456,-0.00001361,0.00003656,-0.00007014,-0.00000403,0.0000002
 8,-0.00000421,0.00000416,0.00000150,0.00000252,0.00000821,0.00000214,0
 .00000225,0.00019077,0.00013832,0.00006185,0.00005171,0.00000107,-0.00
 001110,0.00001067,0.00000932,-0.00000143,0.00000105,-0.00000284,0.0000
 2604,0.00010472,0.00006519,0.00002308,0.00032978,-0.00013464,0.0002527
 8,-0.00808868,-0.00200343,-0.00438308,-0.00026813,-0.00000917,0.000006
 83,0.00019596,0.00000726,0.00001658,-0.00063853,-0.00002966,-0.0004466
 3,0.00130543,0.00002354,0.00086941,-0.00014034,0.00033916,0.00016017,-
 0.00676900,0.02659282,-0.00839259,-0.11257812,0.22000659,-0.07467696,-
 0.00000752,-0.00006369,0.00000639,-0.00000449,-0.00001316,-0.00000598,
 -0.00032622,-0.00082041,0.00022832,-0.00000999,0.00004021,0.00005324,0
 .00015677,0.00011513,0.00026808,-0.00000059,0.00027392,-0.00053450,0.0
 0028788,-0.00071776,-0.00018685,-0.01135254,0.01077423,-0.00607035,0.0
 1556372,-0.03044693,0.01560639,0.12169405,-0.22435251,0.07673806,0.000
 25162,0.00032557,0.00017972,0.00007211,-0.00009823,0.00008361,-0.00047
 710,-0.00022975,-0.00019170,-0.00007970,-0.00007224,0.00043321,-0.0005
 6263,-0.00038350,-0.00040538,-0.00012080,-0.00139068,-0.00006218,0.003
 64525,0.00129366,0.00191945,0.00149345,0.00076493,0.00743349,-0.050836
 17,0.00525523,0.05205524,-0.00786864,0.00105139,0.02696457,0.00278540,
 0.00507267,-0.00039183,-0.00003106,0.00007027,-0.00005194,0.00000756,0
 .00003224,0.00004233,-0.00002538,0.00000740,-0.00002837,-0.00004116,0.
 00007994,0.00004837,-0.00001660,0.00031217,0.00038095,-0.00186043,-0.0
 0213738,-0.00162686,-0.00019081,-0.00038582,0.00090360,-0.00011990,0.0
 0039749,0.00018440,-0.00010858,-0.00005041,0.00016566,-0.00011422,-0.0
 0020240,-0.00000422,0.00040958,-0.00039149,-0.00017664,-0.00004936,-0.
 00001802,0.00001633,0.00000050,-0.00007980,-0.00026075,-0.00015192,0.0
 0009370,0.00043127,-0.00007682,0.00002550,0.00010442,0.00021973,0.0003
 3842,0.00011991,-0.00007214,-0.00011277,-0.00008542,0.00001284,-0.0000
 0596,-0.00002004,-0.00000128,0.00001427,0.00001966,0.00007404,0.000005
 48,-0.00001710,0.00004943,0.00004434,-0.00010854,-0.00003898,-0.000002
 63,0.00000804,0.00001139,-0.00001468,-0.00000665,0.00002430,0.00000559
 ,-0.00000995,-0.00000748,0.00000218,0.00001148,0.00002012,0.00002378,0
 .00000024,0.00002491,0.00001578,0.00000926,0.05616866,0.00000817,0.000
 05849,-0.00000734,-0.00003508,0.00001778,-0.00002340,0.00000180,-0.000
 05339,0.00001634,-0.00005542,0.00006971,0.00003809,-0.00035290,0.00008
 408,-0.00012397,-0.00096854,0.00170283,-0.00053016,0.00379526,-0.00267
 817,0.00013145,-0.01091484,0.00377308,0.02489755,0.00554518,-0.0390842
 1,0.00239138,0.01245658,0.00338475,-0.02466254,0.00232615,-0.00297398,
 0.00282809,0.00000914,-0.00000733,0.00000161,0.00000032,-0.00000704,-0
 .00000610,0.00000653,-0.00000709,0.00000576,0.00004803,0.00001868,-0.0
 0010520,-0.00033521,0.00026568,0.00076681,-0.00170370,0.00082998,-0.00
 076319,0.00040788,0.00029038,-0.00075845,-0.00000024,0.00006133,-0.000
 00027,-0.00000121,0.00002438,-0.00000620,-0.00005069,0.00006936,0.0000
 0276,0.00001929,-0.00006634,-0.00000614,-0.00000221,-0.00000535,0.0000
 0862,-0.00000953,-0.00002932,-0.00001530,-0.00006052,0.00002161,0.0000
 9448,-0.00000297,0.00000434,0.00000889,0.00002393,-0.00009974,-0.00000
 498,0.00000085,0.00000730,0.00000008,-0.00001244,-0.00000140,0.0000008
 3,0.00000092,0.00000537,-0.00000073,0.00000214,-0.00000850,0.00000337,
 -0.00000052,-0.00001077,0.00000285,-0.00000280,-0.00000100,0.00000044,
 0.00000245,0.00000290,-0.00000210,-0.00000086,-0.00000267,-0.00000161,
 0.00000154,-0.00000016,-0.00000118,0.00000709,-0.00000070,0.00000021,-
 0.00000484,0.00000011,-0.00000121,-0.00839277,0.03362588,-0.00043419,-
 0.00064691,-0.00037351,-0.00008072,0.00015688,-0.00017992,0.00072479,0
 .00046432,0.00043292,0.00051168,0.00005661,-0.00069129,-0.00016650,-0.
 00009688,0.00042993,-0.00026862,-0.00025433,-0.00058647,-0.00119749,0.
 00577259,0.00183842,0.01956039,0.00100094,-0.03740434,0.05167021,0.002
 07764,-0.13842957,0.01577091,-0.00032246,-0.02796400,0.00234851,-0.003
 09292,0.00301124,0.00005884,-0.00012851,0.00013683,-0.00001690,-0.0000
 6442,-0.00008545,0.00006607,0.00000666,0.00007030,0.00005068,-0.000060
 43,-0.00014450,0.00098823,-0.00057746,-0.00140002,-0.00214725,0.000378
 45,0.00049005,0.00050548,0.00066879,-0.00118398,0.00029606,-0.00085508
 ,-0.00037892,0.00022620,0.00008127,-0.00034277,0.00038307,0.00035052,0
 .00002919,-0.00090091,0.00076230,0.00027344,0.00012915,0.00003392,-0.0
 0002706,-0.00008951,0.00014846,0.00048041,0.00016125,-0.00003919,-0.00
 066019,0.00015201,-0.00004177,-0.00019255,-0.00054083,-0.00062087,-0.0
 0035768,0.00016247,0.00025276,0.00024473,-0.00002058,0.00001482,0.0000
 3717,0.00000148,-0.00002665,-0.00004313,-0.00018220,-0.00001323,0.0000
 1566,-0.00009037,-0.00006978,0.00022395,0.00007256,0.00000277,-0.00001
 970,-0.00002541,0.00003156,0.00001215,-0.00004724,-0.00001312,0.000021
 19,0.00001582,-0.00000789,-0.00002432,-0.00004570,-0.00003396,-0.00001
 228,-0.00003951,-0.00004351,-0.00003150,-0.08629355,-0.00331078,0.2018
 4122,0.00002089,0.00005010,0.00002844,0.00000284,0.00001396,0.00005185
 ,-0.00007286,-0.00008206,-0.00008455,-0.00015484,0.00010415,0.00035828
 ,-0.00016107,0.00020285,-0.00025091,0.00550617,0.00148265,0.00472395,0
 .00004194,0.01215751,0.00287447,-0.19016905,0.33427911,0.13254713,0.00
 430512,-0.00147810,0.00454297,0.00495724,0.00214332,0.00170246,-0.0005
 6924,-0.00071068,-0.00079028,-0.00001611,0.00000344,-0.00004879,0.0000
 0755,0.00001055,0.00000360,-0.00000234,-0.00002222,-0.00000941,0.00000
 445,0.00002282,-0.00002386,-0.00392396,-0.00268952,-0.00259725,0.00042
 196,0.00016666,0.00023656,-0.00067075,-0.00027159,-0.00032287,-0.00003
 700,0.00009782,0.00002652,-0.00001110,-0.00002999,-0.00001691,0.000012
 56,-0.00010996,-0.00006267,0.00013165,-0.00012167,-0.00000890,-0.00000
 626,-0.00000207,-0.00002457,-0.00003972,0.00000432,-0.00001270,0.00005
 530,0.00004256,0.00012282,-0.00001152,0.00000273,0.00001592,0.00000950
 ,0.00020206,0.00009173,-0.00000506,-0.00002109,-0.00003063,-0.00000498
 ,-0.00000043,-0.00000045,-0.00000183,-0.00000666,0.00000382,-0.0000121
 4,0.00002344,-0.00003589,0.00001624,0.00002472,-0.00001063,-0.00000748
 ,-0.00000378,-0.00000265,-0.00000439,-0.00000764,0.00000630,0.00000105
 ,0.00000678,0.00000039,-0.00000123,-0.00000191,-0.00000564,-0.00003154
 ,-0.00001277,-0.00000600,0.00000484,-0.00000064,0.00000455,-0.00241972
 ,-0.00175598,-0.00126840,0.18283488,-0.00002424,-0.00000917,-0.0000016
 4,-0.00001477,0.00002805,0.00001935,0.00003368,-0.00002253,-0.00001262
 ,-0.00006370,0.00002429,0.00012484,-0.00021708,0.00011224,0.00013244,0
 .00170302,0.00243478,0.00227150,-0.00310436,0.00842285,0.00561964,0.33
 224915,-0.48699833,-0.18879017,0.01513332,-0.01377738,-0.01224766,0.00
 157426,-0.00193968,0.00524684,-0.00086371,0.00031018,0.00032866,0.0000
 0368,-0.00000313,-0.00000385,0.00000150,0.00000488,0.00000170,-0.00000
 408,-0.00002142,-0.00000700,0.00001401,0.00000124,-0.00000530,-0.00197
 899,-0.00065768,-0.00163039,0.00082306,-0.00067542,-0.00050655,-0.0002
 8498,-0.00016239,-0.00016894,-0.00000243,0.00001097,0.00000216,0.00000
 065,-0.00001666,-0.00001228,0.00005115,-0.00006018,-0.00001243,0.00001
 278,-0.00002902,-0.00001581,-0.00000020,0.00000149,-0.00001011,-0.0000
 1755,0.00001155,0.00001878,0.00001865,0.00000846,0.00001587,0.00000075
 ,-0.00000176,-0.00000163,-0.00006146,0.00007806,0.00000266,0.00000410,
 -0.00000284,0.00000810,-0.00000162,-0.00000006,0.00000171,-0.00000130,
 -0.00000406,0.00000063,-0.00000090,0.00000571,-0.00000985,0.00000352,0
 .00001324,0.00000354,0.00000045,-0.00000090,-0.00000131,-0.00000330,-0
 .00000175,0.00000213,-0.00000072,0.00000142,0.00000094,-0.00000136,-0.
 00000032,-0.00000050,-0.00000875,0.00000013,-0.00000519,0.00000405,-0.
 00000284,-0.00000027,-0.00126347,0.00071916,-0.00194107,-0.34371282,0.
 49219884,-0.00012298,-0.00006140,-0.00004829,-0.00010539,0.00004691,0.
 00000406,0.00027522,-0.00000177,0.00006892,0.00010669,0.00000795,-0.00
 018040,0.00039921,-0.00109203,0.00024819,0.00507461,0.00180360,-0.0040
 4286,0.01747355,-0.02655269,-0.00260834,0.13527111,-0.19272812,-0.0664
 9871,-0.01203616,0.02184203,0.00887626,0.00140661,0.00504374,-0.001370
 79,-0.00019046,0.00068989,-0.00159865,0.00006485,0.00000667,0.00001034
 ,-0.00000225,0.00000080,-0.00001029,-0.00000228,-0.00003442,-0.0000031
 6,-0.00004722,0.00001447,0.00005541,-0.00318546,-0.00053099,0.00094110
 ,-0.00051909,0.00100265,0.00076053,-0.00028415,-0.00017516,-0.00014269
 ,0.00004473,-0.00012602,-0.00003194,0.00001215,0.00001402,-0.00003084,
 -0.00012619,0.00018213,-0.00001368,-0.00014332,0.00004672,-0.00004440,
 -0.00000391,0.00001838,-0.00000078,0.00004526,0.00003857,0.00002809,0.
 00001817,0.00006139,-0.00010855,0.00002256,-0.00000824,-0.00003182,0.0
 0005489,-0.00026691,0.00003224,-0.00000088,0.00003465,0.00000081,0.000
 00190,0.00000334,0.00000296,0.00000161,-0.00000109,-0.00000214,-0.0000
 0303,0.00001869,-0.00000710,-0.00000680,-0.00001364,0.00003333,0.00001
 310,0.00000171,0.00000085,-0.00000009,0.00000325,0.00000051,-0.0000048
 7,-0.00000119,0.00000130,0.00000379,0.00000046,-0.00000101,0.00000663,
 -0.00000410,0.00000906,-0.00001017,0.00000147,-0.00000389,-0.00177411,
 -0.00086879,0.00094435,-0.14172780,0.19158310,0.06476203\\-0.01086003,
 -0.03320341,-0.01490572,-0.11258275,0.08150621,0.00246503,0.03081017,0
 .06038236,0.02735817,0.00499247,-0.02645838,-0.01143765,-0.05606077,0.
 11134639,-0.07682461,-0.01234637,0.00708148,0.01498184,-0.01185819,0.1
 0275928,-0.08998543,-0.06804994,0.08708564,0.05936619,0.01141327,0.000
 48992,-0.02539101,-0.00700048,-0.08813070,0.09591558,0.07620581,-0.113
 36435,-0.05207560,-0.04426038,-0.13580555,-0.06764320,0.05354511,-0.02
 795281,0.13962743,0.10521361,0.06248014,-0.08221253,0.05783581,-0.1178
 5154,0.07810098,0.01643392,-0.11847976,0.08885302,-0.01137101,0.118110
 04,-0.08833373,-0.07595568,0.11962805,0.04568743,-0.00252387,-0.044253
 43,-0.02229302,0.06668168,0.01516851,0.00558219,0.01033691,-0.01059770
 ,0.00782332,-0.01931023,0.07277824,0.03667719,0.13119163,-0.11607592,0
 .00388968,0.02166690,0.00077064,0.01887097,0.04538931,-0.08167196,0.11
 712044,0.14172744,0.02545769,0.02271330,0.00238491,0.01160698,0.000198
 96,0.09337415,0.04811828,0.09528517,-0.05823034,0.06199908,-0.12967701
 ,-0.07882795,0.05091869,0.12028637,-0.04784912,0.07900897,-0.12143550,
 -0.08164777,-0.00744760,-0.02822720,-0.07964956,0.05163513,0.11746901,
 -0.01523771,-0.15163979,-0.00701194,-0.05163940,0.06584597,-0.13375350
 ,-0.10303056,-0.09396535,0.06562314,0.07016535,-0.07391705,-0.11328333
 ,-0.06888886,0.12297429,-0.05308718,0.00086145,-0.00005787,-0.00127305
 ,0.07695106,-0.11627878,-0.04504420\\\@
 The archive entry for this job was punched.

 Writing a WFNX file to "TOGPOU_Complex_0_Ligand_1_OO_Cu_oriented.wfx"


 THE SOLUTION TO A PROBLEM CHANGES THE PROBLEM.

                                 -- JOHN PEERS
           PAUL DICKSON'S "THE OFFICIAL RULES"
 Job cpu time:       0 days  1 hours 38 minutes 34.6 seconds.
 Elapsed time:       0 days  1 hours 38 minutes 54.6 seconds.
 File lengths (MBytes):  RWF=   1064 Int=      0 D2E=      0 Chk=     16 Scr=      8
 Normal termination of Gaussian 16 at Mon Mar  6 12:00:34 2023.
