 Entering Gaussian System, Link 0=g16
 Initial command:
 /ssoft/spack/external/gaussian/g16-C.01/avx2/g16/l1.exe "/scratch/lcmd/2387837/Gau-3436053.inp" -scrdir="/scratch/lcmd/2387837/"
 Entering Link 1 = /ssoft/spack/external/gaussian/g16-C.01/avx2/g16/l1.exe PID=   3436067.
  
 Copyright (c) 1988-2019, Gaussian, Inc.  All Rights Reserved.
  
 This is part of the Gaussian(R) 16 program.  It is based on
 the Gaussian(R) 09 system (copyright 2009, Gaussian, Inc.),
 the Gaussian(R) 03 system (copyright 2003, Gaussian, Inc.),
 the Gaussian(R) 98 system (copyright 1998, Gaussian, Inc.),
 the Gaussian(R) 94 system (copyright 1995, Gaussian, Inc.),
 the Gaussian 92(TM) system (copyright 1992, Gaussian, Inc.),
 the Gaussian 90(TM) system (copyright 1990, Gaussian, Inc.),
 the Gaussian 88(TM) system (copyright 1988, Gaussian, Inc.),
 the Gaussian 86(TM) system (copyright 1986, Carnegie Mellon
 University), and the Gaussian 82(TM) system (copyright 1983,
 Carnegie Mellon University). Gaussian is a federally registered
 trademark of Gaussian, Inc.
  
 This software contains proprietary and confidential information,
 including trade secrets, belonging to Gaussian, Inc.
  
 This software is provided under written license and may be
 used, copied, transmitted, or stored only in accord with that
 written license.
  
 The following legend is applicable only to US Government
 contracts under FAR:
  
                    RESTRICTED RIGHTS LEGEND
  
 Use, reproduction and disclosure by the US Government is
 subject to restrictions as set forth in subparagraphs (a)
 and (c) of the Commercial Computer Software - Restricted
 Rights clause in FAR 52.227-19.
  
 Gaussian, Inc.
 340 Quinnipiac St., Bldg. 40, Wallingford CT 06492
  
  
 ---------------------------------------------------------------
 Warning -- This program may not be used in any manner that
 competes with the business of Gaussian, Inc. or will provide
 assistance to any competitor of Gaussian, Inc.  The licensee
 of this program is prohibited from giving any competitor of
 Gaussian, Inc. access to this program.  By using this program,
 the user acknowledges that Gaussian, Inc. is engaged in the
 business of creating and licensing software in the field of
 computational chemistry and represents and warrants to the
 licensee that it is not a competitor of Gaussian, Inc. and that
 it will not use this program in any manner prohibited above.
 ---------------------------------------------------------------
  

 Cite this work as:
 Gaussian 16, Revision C.01,
 M. J. Frisch, G. W. Trucks, H. B. Schlegel, G. E. Scuseria, 
 M. A. Robb, J. R. Cheeseman, G. Scalmani, V. Barone, 
 G. A. Petersson, H. Nakatsuji, X. Li, M. Caricato, A. V. Marenich, 
 J. Bloino, B. G. Janesko, R. Gomperts, B. Mennucci, H. P. Hratchian, 
 J. V. Ortiz, A. F. Izmaylov, J. L. Sonnenberg, D. Williams-Young, 
 F. Ding, F. Lipparini, F. Egidi, J. Goings, B. Peng, A. Petrone, 
 T. Henderson, D. Ranasinghe, V. G. Zakrzewski, J. Gao, N. Rega, 
 G. Zheng, W. Liang, M. Hada, M. Ehara, K. Toyota, R. Fukuda, 
 J. Hasegawa, M. Ishida, T. Nakajima, Y. Honda, O. Kitao, H. Nakai, 
 T. Vreven, K. Throssell, J. A. Montgomery, Jr., J. E. Peralta, 
 F. Ogliaro, M. J. Bearpark, J. J. Heyd, E. N. Brothers, K. N. Kudin, 
 V. N. Staroverov, T. A. Keith, R. Kobayashi, J. Normand, 
 K. Raghavachari, A. P. Rendell, J. C. Burant, S. S. Iyengar, 
 J. Tomasi, M. Cossi, J. M. Millam, M. Klene, C. Adamo, R. Cammi, 
 J. W. Ochterski, R. L. Martin, K. Morokuma, O. Farkas, 
 J. B. Foresman, and D. J. Fox, Gaussian, Inc., Wallingford CT, 2019.
 
 ******************************************
 Gaussian 16:  ES64L-G16RevC.01  3-Jul-2019
                 6-Mar-2023 
 ******************************************
 %nprocshared=1
 Will use up to    1 processors via shared memory.
 %mem=8000MB
 %chk=TOGPOU_Complex_1_Ligand_1_OO_Cu_oriented.chk
 ----------------------------------------------------------------------
 #p pop=(regular,nbo,savenbos) freq=noraman def2svp empiricaldispersion
 =gd3bj output=wfx pbe1pbe
 ----------------------------------------------------------------------
 1/10=4,30=1,38=1/1,3;
 2/12=2,17=6,18=5,40=1/2;
 3/5=43,7=101,11=2,25=1,30=1,71=2,74=-13,124=41,140=1/1,2,3;
 4//1;
 5/5=2,38=5,98=1/2;
 8/6=4,10=90,11=11/1;
 11/6=1,8=1,9=11,15=111,16=1/1,2,10;
 10/6=1/2;
 6/28=1,40=1,73=1/1,7;
 7/8=1,10=1,25=1/1,2,3,16;
 1/10=4,30=1/3;
 99/6=200/99;
 Leave Link    1 at Mon Mar  6 10:21:40 2023, MaxMem=  1048576000 cpu:               0.0 elap:               0.2
 (Enter /ssoft/spack/external/gaussian/g16-C.01/avx2/g16/l101.exe)
 ----------------------------------------
 TOGPOU_Complex_1_Ligand_1_OO_Cu_oriented
 ----------------------------------------
 Symbolic Z-matrix:
 Charge = -1 Multiplicity = 1
 O                     1.80249  -0.71229   0. 
 O                     3.82523  -4.15254  -0.41397 
 O                     3.31864  -6.45931   1.7786 
 C                     2.11036  -1.82035   0.55874 
 C                     3.60442  -1.99873   0.7309 
 C                     4.06654  -3.4451    0.82125 
 C                     3.26463  -4.07086   1.99189 
 C                     5.56482  -3.47646   1.03051 
 C                     3.76334  -5.47733   2.30794 
 C                     4.85838  -5.60764   3.33527 
 H                     3.86674  -1.55957   1.5311 
 H                     4.03785  -1.5952   -0.01117 
 H                     3.42258  -3.53279   2.75962 
 H                     2.75066  -4.17368  -0.661 
 H                     5.99314  -3.04848   0.29801 
 H                     5.85619  -4.37871   1.08428 
 H                     5.776    -3.02377   1.83411 
 H                     5.61696  -6.01532   2.93714 
 H                     4.55078  -6.14384   4.05673 
 H                     5.09212  -4.74543   3.65936 
 O                    -0.67948  -1.8197    0. 
 C                    -0.9906   -4.02591   0.65949 
 C                    -0.10272  -2.81188   0.52808 
 C                     1.24977  -2.83659   0.94435 
 C                     1.74254  -4.05774   1.72265 
 C                     1.03848  -4.20034   3.07118 
 C                     0.55374  -5.41788   3.50074 
 C                    -0.01883  -5.55627   4.7627 
 C                    -0.12584  -4.46631   5.56461 
 C                     0.30647  -3.2397    5.16276 
 C                     0.89861  -3.09891   3.90758 
 H                    -0.5074   -4.72673   1.07004 
 H                    -1.28296  -4.29507  -0.20328 
 H                    -1.7485   -3.8034    1.19233 
 H                     1.53542  -4.82747   1.20554 
 H                     0.61034  -6.17485   2.92832 
 H                     0.20026  -2.48501   5.73122 
 H                     1.20762  -2.24552   3.62391 
 Cl                   -0.84223  -4.63775   7.15213 
 H                    -0.3309   -6.40438   5.06091 
 
 ITRead=  0  0  0  0  0  0  0  0  0  0  0  0  0  0  0  0  0  0  0  0
 ITRead=  0  0  0  0  0  0  0  0  0  0  0  0  0  0  0  0  0  0  0  0
 MicOpt= -1 -1 -1 -1 -1 -1 -1 -1 -1 -1 -1 -1 -1 -1 -1 -1 -1 -1 -1 -1
 MicOpt= -1 -1 -1 -1 -1 -1 -1 -1 -1 -1 -1 -1 -1 -1 -1 -1 -1 -1 -1 -1
 NAtoms=     40 NQM=       40 NQMF=       0 NMMI=      0 NMMIF=      0
                NMic=       0 NMicF=      0.
                    Isotopes and Nuclear Properties:
 (Nuclear quadrupole moments (NQMom) in fm**2, nuclear magnetic moments (NMagM)
  in nuclear magnetons)

  Atom         1           2           3           4           5           6           7           8           9          10
 IAtWgt=          16          16          16          12          12          12          12          12          12          12
 AtmWgt=  15.9949146  15.9949146  15.9949146  12.0000000  12.0000000  12.0000000  12.0000000  12.0000000  12.0000000  12.0000000
 NucSpn=           0           0           0           0           0           0           0           0           0           0
 AtZEff=  -0.0000000  -0.0000000  -0.0000000  -0.0000000  -0.0000000  -0.0000000  -0.0000000  -0.0000000  -0.0000000  -0.0000000
 NQMom=    0.0000000   0.0000000   0.0000000   0.0000000   0.0000000   0.0000000   0.0000000   0.0000000   0.0000000   0.0000000
 NMagM=    0.0000000   0.0000000   0.0000000   0.0000000   0.0000000   0.0000000   0.0000000   0.0000000   0.0000000   0.0000000
 AtZNuc=   8.0000000   8.0000000   8.0000000   6.0000000   6.0000000   6.0000000   6.0000000   6.0000000   6.0000000   6.0000000

  Atom        11          12          13          14          15          16          17          18          19          20
 IAtWgt=           1           1           1           1           1           1           1           1           1           1
 AtmWgt=   1.0078250   1.0078250   1.0078250   1.0078250   1.0078250   1.0078250   1.0078250   1.0078250   1.0078250   1.0078250
 NucSpn=           1           1           1           1           1           1           1           1           1           1
 AtZEff=  -0.0000000  -0.0000000  -0.0000000  -0.0000000  -0.0000000  -0.0000000  -0.0000000  -0.0000000  -0.0000000  -0.0000000
 NQMom=    0.0000000   0.0000000   0.0000000   0.0000000   0.0000000   0.0000000   0.0000000   0.0000000   0.0000000   0.0000000
 NMagM=    2.7928460   2.7928460   2.7928460   2.7928460   2.7928460   2.7928460   2.7928460   2.7928460   2.7928460   2.7928460
 AtZNuc=   1.0000000   1.0000000   1.0000000   1.0000000   1.0000000   1.0000000   1.0000000   1.0000000   1.0000000   1.0000000

  Atom        21          22          23          24          25          26          27          28          29          30
 IAtWgt=          16          12          12          12          12          12          12          12          12          12
 AtmWgt=  15.9949146  12.0000000  12.0000000  12.0000000  12.0000000  12.0000000  12.0000000  12.0000000  12.0000000  12.0000000
 NucSpn=           0           0           0           0           0           0           0           0           0           0
 AtZEff=  -0.0000000  -0.0000000  -0.0000000  -0.0000000  -0.0000000  -0.0000000  -0.0000000  -0.0000000  -0.0000000  -0.0000000
 NQMom=    0.0000000   0.0000000   0.0000000   0.0000000   0.0000000   0.0000000   0.0000000   0.0000000   0.0000000   0.0000000
 NMagM=    0.0000000   0.0000000   0.0000000   0.0000000   0.0000000   0.0000000   0.0000000   0.0000000   0.0000000   0.0000000
 AtZNuc=   8.0000000   6.0000000   6.0000000   6.0000000   6.0000000   6.0000000   6.0000000   6.0000000   6.0000000   6.0000000

  Atom        31          32          33          34          35          36          37          38          39          40
 IAtWgt=          12           1           1           1           1           1           1           1          35           1
 AtmWgt=  12.0000000   1.0078250   1.0078250   1.0078250   1.0078250   1.0078250   1.0078250   1.0078250  34.9688527   1.0078250
 NucSpn=           0           1           1           1           1           1           1           1           3           1
 AtZEff=  -0.0000000  -0.0000000  -0.0000000  -0.0000000  -0.0000000  -0.0000000  -0.0000000  -0.0000000  -0.0000000  -0.0000000
 NQMom=    0.0000000   0.0000000   0.0000000   0.0000000   0.0000000   0.0000000   0.0000000   0.0000000  -8.1650000   0.0000000
 NMagM=    0.0000000   2.7928460   2.7928460   2.7928460   2.7928460   2.7928460   2.7928460   2.7928460   0.8218740   2.7928460
 AtZNuc=   6.0000000   1.0000000   1.0000000   1.0000000   1.0000000   1.0000000   1.0000000   1.0000000  17.0000000   1.0000000
 Leave Link  101 at Mon Mar  6 10:21:40 2023, MaxMem=  1048576000 cpu:               0.1 elap:               0.1
 (Enter /ssoft/spack/external/gaussian/g16-C.01/avx2/g16/l103.exe)

 GradGradGradGradGradGradGradGradGradGradGradGradGradGradGradGradGradGrad
 Berny optimization.
 Initialization pass.
 Trust Radius=3.00D-01 FncErr=1.00D-07 GrdErr=1.00D-07 EigMax=2.50D+02 EigMin=1.00D-04
 Number of steps in this run=      2 maximum allowed number of steps=      2.
 GradGradGradGradGradGradGradGradGradGradGradGradGradGradGradGradGradGrad

 Leave Link  103 at Mon Mar  6 10:21:40 2023, MaxMem=  1048576000 cpu:               0.0 elap:               0.0
 (Enter /ssoft/spack/external/gaussian/g16-C.01/avx2/g16/l202.exe)
                          Input orientation:                          
 ---------------------------------------------------------------------
 Center     Atomic      Atomic             Coordinates (Angstroms)
 Number     Number       Type             X           Y           Z
 ---------------------------------------------------------------------
      1          8           0        1.802487   -0.712292    0.000000
      2          8           0        3.825226   -4.152538   -0.413970
      3          8           0        3.318645   -6.459313    1.778602
      4          6           0        2.110356   -1.820351    0.558735
      5          6           0        3.604418   -1.998730    0.730902
      6          6           0        4.066537   -3.445099    0.821247
      7          6           0        3.264632   -4.070859    1.991890
      8          6           0        5.564824   -3.476456    1.030506
      9          6           0        3.763338   -5.477326    2.307940
     10          6           0        4.858381   -5.607639    3.335273
     11          1           0        3.866745   -1.559570    1.531098
     12          1           0        4.037848   -1.595197   -0.011165
     13          1           0        3.422576   -3.532793    2.759615
     14          1           0        2.750659   -4.173683   -0.660998
     15          1           0        5.993144   -3.048480    0.298014
     16          1           0        5.856193   -4.378706    1.084278
     17          1           0        5.775996   -3.023765    1.834109
     18          1           0        5.616956   -6.015318    2.937139
     19          1           0        4.550778   -6.143841    4.056729
     20          1           0        5.092120   -4.745433    3.659356
     21          8           0       -0.679482   -1.819697    0.000000
     22          6           0       -0.990603   -4.025910    0.659491
     23          6           0       -0.102721   -2.811883    0.528085
     24          6           0        1.249766   -2.836586    0.944352
     25          6           0        1.742535   -4.057744    1.722649
     26          6           0        1.038485   -4.200342    3.071182
     27          6           0        0.553740   -5.417883    3.500743
     28          6           0       -0.018827   -5.556266    4.762698
     29          6           0       -0.125837   -4.466307    5.564605
     30          6           0        0.306473   -3.239695    5.162759
     31          6           0        0.898609   -3.098906    3.907585
     32          1           0       -0.507399   -4.726734    1.070038
     33          1           0       -1.282962   -4.295072   -0.203282
     34          1           0       -1.748502   -3.803403    1.192332
     35          1           0        1.535416   -4.827469    1.205536
     36          1           0        0.610340   -6.174852    2.928325
     37          1           0        0.200262   -2.485009    5.731216
     38          1           0        1.207622   -2.245522    3.623910
     39         17           0       -0.842230   -4.637749    7.152128
     40          1           0       -0.330903   -6.404379    5.060910
 ---------------------------------------------------------------------
                    Distance matrix (angstroms):
                    1          2          3          4          5
     1  O    0.000000
     2  O    4.012249   0.000000
     3  O    6.204064   3.222608   0.000000
     4  C    1.278579   3.053855   4.946514   0.000000
     5  C    2.331544   2.449158   4.590876   1.514491   0.000000
     6  C    3.642609   1.443766   3.249824   2.556435   1.521085
     7  C    4.169588   2.471659   2.398566   2.907072   2.449340
     8  C    4.780976   2.360042   3.808202   3.859871   2.473182
     9  C    5.645978   3.027818   1.200937   4.377845   3.822687
    10  C    6.665355   4.152295   2.349332   5.440988   4.623786
    11  H    2.706160   3.241681   4.936512   2.024450   0.949731
    12  H    2.403432   2.597586   5.232604   2.022550   0.949402
    13  H    4.265605   3.258504   3.088318   3.081923   2.549920
    14  H    3.649271   1.102798   3.390922   2.726886   2.719690
    15  H    4.807098   2.534903   4.580269   4.080725   2.644877
    16  H    5.572323   2.533915   3.354125   4.566472   3.295399
    17  H    4.949306   3.183313   4.224291   4.063458   2.642633
    18  H    7.162336   4.232042   2.611815   5.962449   5.005075
    19  H    7.315182   4.947611   2.609126   6.073235   5.398025
    20  H    6.362295   4.306800   3.101586   5.202006   4.281761
    21  O    2.717815   5.089785   6.377654   2.845238   4.349491
    22  C    4.383646   4.935643   5.073803   3.806651   5.022826
    23  C    2.883917   4.256007   5.154928   2.425240   3.800689
    24  C    2.389546   3.195272   4.254454   1.386380   2.508377
    25  C    3.763398   2.985251   2.873114   2.548708   2.947831
    26  C    4.709814   4.462566   3.460180   3.622934   4.111937
    27  C    5.996429   5.256300   3.419802   4.901091   5.354369
    28  C    7.033104   6.598870   4.567170   6.013633   6.483776
    29  C    6.983974   7.173055   5.492755   6.087723   6.585471
    30  C    5.939689   6.656937   5.558024   5.144469   5.661960
    31  C    4.667134   5.324572   4.656337   3.783890   4.315450
    32  H    4.753556   4.615584   4.259401   3.944760   4.946115
    33  H    4.732613   5.114518   5.457709   4.268433   5.480180
    34  H    4.856557   5.811071   5.750961   4.384601   5.667761
    35  H    4.296431   2.884712   2.484195   3.129163   3.536639
    36  H    6.311566   5.059266   2.955959   5.179447   5.588664
    37  H    6.209387   7.326959   6.414247   5.553808   6.068599
    38  H    3.979621   5.176199   5.061385   3.223507   3.764975
    39  Cl   8.576519   8.903169   7.036033   7.754245   8.244346
    40  H    7.909742   7.233153   4.908743   6.873327   7.324306
                    6          7          8          9         10
     6  C    0.000000
     7  C    1.550817   0.000000
     8  C    1.513155   2.562901   0.000000
     9  C    2.536165   1.525367   2.980045   0.000000
    10  C    3.409389   2.589673   3.217601   1.507154   0.000000
    11  H    2.024604   2.623250   2.609314   3.995370   4.541504
    12  H    2.028761   3.277041   2.637399   4.530401   5.288820
    13  H    2.044419   0.950717   2.753583   2.025176   2.588031
    14  H    2.111733   2.704174   3.356611   3.396997   4.740137
    15  H    2.035410   3.370349   0.950351   3.861493   4.130609
    16  H    2.035603   2.763100   0.949654   2.661645   2.751888
    17  H    2.031172   2.725481   0.946202   3.208623   3.126006
    18  H    3.672442   3.194973   3.175498   2.030081   0.948762
    19  H    4.240996   3.196089   4.159478   2.030411   0.950068
    20  H    3.285964   2.564217   2.957127   2.031663   0.950297
    21  O    5.083411   4.958970   6.542029   6.200281   7.492695
    22  C    5.092953   4.459185   6.588868   5.236788   6.623616
    23  C    4.227247   3.881599   5.728452   5.021841   6.348944
    24  C    2.884379   2.584657   4.363094   3.892419   5.139780
    25  C    2.566874   1.545782   3.927703   2.537996   3.835522
    26  C    3.847298   2.477371   5.017581   3.104521   4.079441
    27  C    4.838524   3.382313   5.914573   3.424592   4.311997
    28  C    6.056588   4.545867   7.030791   4.509639   5.082060
    29  C    6.412357   4.941250   7.343125   5.172399   5.578081
    30  C    5.747086   4.415421   6.691922   5.010678   5.446717
    31  C    4.436339   3.195722   5.494879   4.052458   4.722402
    32  H    4.756613   3.938045   6.199730   4.509433   5.890575
    33  H    5.512644   5.054667   7.006036   5.759262   7.208349
    34  H    5.837873   5.083536   7.322419   5.867451   7.176236
    35  H    2.909501   2.044749   4.253470   2.569290   4.023251
    36  H    4.882276   3.514108   5.952307   3.288284   4.305019
    37  H    6.322788   5.088009   7.201262   5.776529   6.098314
    38  H    4.179390   3.197911   5.217869   4.325277   4.971437
    39  Cl   8.099288   6.619345   8.937180   6.736639   6.928638
    40  H    6.787456   5.271818   7.718580   5.020068   5.526417
                   11         12         13         14         15
    11  H    0.000000
    12  H    1.552134   0.000000
    13  H    2.366463   3.436577   0.000000
    14  H    3.589501   2.954273   3.544405   0.000000
    15  H    2.873834   2.455770   3.591915   3.563635   0.000000
    16  H    3.479236   3.500614   3.073242   3.568243   1.551280
    17  H    2.425061   2.909811   2.579584   4.086628   1.551564
    18  H    4.989377   5.542883   3.318094   4.955186   3.988562
    19  H    5.278471   6.123808   3.126167   5.420230   5.078348
    20  H    4.022530   4.950576   2.251090   4.947201   3.871707
    21  O    4.804175   4.722682   5.232308   4.212367   6.791366
    22  C    5.516916   5.625253   4.912213   3.970211   7.061073
    23  C    4.281470   4.349188   4.234048   3.377898   6.104792
    24  C    2.970458   3.198041   2.915645   2.572481   4.791898
    25  C    3.284788   3.786649   2.042893   2.590661   4.595201
    26  C    4.164683   5.028303   2.495313   4.106266   5.793608
    27  C    5.453630   6.251835   3.511845   4.867707   6.742303
    28  C    6.443173   7.411913   4.466547   6.244843   7.897226
    29  C    6.376442   7.527866   4.618512   6.864255   8.196898
    30  C    5.356054   6.587642   3.946024   6.384553   7.486022
    31  C    4.102082   5.241428   2.806511   5.045511   6.243863
    32  H    5.420021   5.624482   4.441269   3.730589   6.757929
    33  H    6.083627   5.969694   5.612657   4.061322   7.399121
    34  H    6.056446   6.309233   5.410144   4.879999   7.829610
    35  H    4.027437   4.264987   2.766356   2.321249   4.884643
    36  H    5.818697   6.431302   3.862332   4.633452   6.757759
    37  H    5.651595   6.963747   4.506836   7.086363   7.962077
    38  H    3.452728   4.652621   2.703719   4.945625   5.882818
    39  Cl   7.952711   9.186134   6.221227   8.612151   9.809535
    40  H    7.317922   8.242582   5.256479   6.871117   8.598883
                   16         17         18         19         20
    16  H    0.000000
    17  H    1.550659   0.000000
    18  H    2.483712   3.192391   0.000000
    19  H    3.695304   4.021949   1.551365   0.000000
    20  H    2.710964   2.600645   1.552308   1.551291   0.000000
    21  O    7.102058   6.818132   8.116351   7.906383   7.433855
    22  C    6.869027   6.940524   7.266724   6.836210   6.820295
    23  C    6.186513   6.025770   6.984286   6.723714   6.366306
    24  C    4.859721   4.616650   5.757421   5.614402   5.077266
    25  C    4.175250   4.165374   4.507574   4.205468   3.929818
    26  C    5.214395   5.035741   4.926917   4.133364   4.132195
    27  C    5.919054   5.981757   5.129399   4.100299   4.590669
    28  C    7.030880   6.969230   5.941839   4.661001   5.291181
    29  C    7.474336   7.129457   6.502514   5.192162   5.561921
    30  C    6.980741   6.406420   6.392081   5.260370   5.237355
    31  C    5.846930   5.300363   5.631166   4.757333   4.512007
    32  H    6.373117   6.554765   6.531021   6.042654   6.169241
    33  H    7.254815   7.456276   7.773697   7.456418   7.467561
    34  H    7.627191   7.591955   7.885867   7.305023   7.332649
    35  H    4.345712   4.650910   4.590034   4.353683   4.321819
    36  H    5.843425   6.149036   5.009165   4.098940   4.760672
    37  H    7.561063   6.823966   7.043474   5.926041   5.773422
    38  H    5.710466   4.967806   5.841682   5.153729   4.619539
    39  Cl   9.041835   8.642175   7.834852   6.397996   6.886767
    40  H    7.628703   7.689928   6.327622   4.990698   5.841715
                   21         22         23         24         25
    21  O    0.000000
    22  C    2.323596   0.000000
    23  C    1.263313   1.509789   0.000000
    24  C    2.376523   2.552428   1.415313   0.000000
    25  C    3.720556   2.932808   2.526682   1.529638   0.000000
    26  C    4.248651   3.156561   3.114083   2.535325   1.527928
    27  C    5.169427   3.520695   4.007352   3.699010   2.534725
    28  C    6.089474   4.485827   5.046843   4.856516   3.819668
    29  C    6.186751   5.000191   5.301338   5.088714   4.291663
    30  C    5.444500   4.751838   4.672330   4.341342   3.816522
    31  C    4.404085   3.870216   3.536391   2.995475   2.530915
    32  H    3.102492   0.945087   2.030795   2.583812   2.436319
    33  H    2.555971   0.949894   2.031677   3.139897   3.594324
    34  H    2.549421   0.952806   2.032961   3.160038   3.540235
    35  H    3.925019   2.705814   2.684216   2.028158   0.950147
    36  H    5.404266   3.511207   4.192752   3.935610   2.686571
    37  H    5.836388   5.432765   5.222186   4.913159   4.573917
    38  H    4.107945   4.097530   3.409091   2.744297   2.680500
    39  Cl   7.689007   6.523089   6.910760   6.793903   6.041247
    40  H    6.837662   5.046266   5.788315   5.672187   4.577098
                   26         27         28         29         30
    26  C    0.000000
    27  C    1.379096   0.000000
    28  C    2.411983   1.392664   0.000000
    29  C    2.764695   2.372098   1.357393   0.000000
    30  C    2.415238   2.750989   2.373261   1.361230   0.000000
    31  C    1.390070   2.379519   2.758899   2.380124   1.394958
    32  H    2.582910   2.740808   3.816092   4.518246   4.429902
    33  H    4.014997   4.284154   5.277272   5.885302   5.695131
    34  H    3.384514   3.638080   4.337259   4.710547   4.506104
    35  H    2.029992   2.565200   3.949711   4.678855   4.437447
    36  H    2.025440   0.950720   2.035541   3.226617   3.701375
    37  H    3.274258   3.701582   3.227793   2.014855   0.950777
    38  H    2.038489   3.241389   3.709722   3.236710   2.041691
    39  Cl   4.514701   3.986221   2.689059   1.750097   2.689175
    40  H    3.269865   2.046922   0.951640   2.012930   3.229836
                   31         32         33         34         35
    31  C    0.000000
    32  H    3.560667   0.000000
    33  H    4.805131   1.552152   0.000000
    34  H    3.856956   1.551720   1.551195   0.000000
    35  H    3.270248   2.049780   3.195538   3.439913   0.000000
    36  H    3.240909   2.607607   4.114016   3.768498   2.374702
    37  H    2.046995   5.220411   6.379228   5.112466   5.267973
    38  H    0.950907   3.952211   5.005103   4.132581   3.552806
    39  Cl   3.990691   6.091949   7.376566   6.085773   6.407117
    40  H    3.710527   4.332747   5.750418   4.872428   4.564395
                   36         37         38         39         40
    36  H    0.000000
    37  H    4.651807   0.000000
    38  H    4.034875   2.347949   0.000000
    39  Cl   4.723681   2.782098   4.730006   0.000000
    40  H    2.342336   4.011597   4.661343   2.784893   0.000000
 Stoichiometry    C17H18ClO4(1-)
 Framework group  C1[X(C17H18ClO4)]
 Deg. of freedom   114
 Full point group                 C1      NOp   1
 Largest Abelian subgroup         C1      NOp   1
 Largest concise Abelian subgroup C1      NOp   1
                         Standard orientation:                         
 ---------------------------------------------------------------------
 Center     Atomic      Atomic             Coordinates (Angstroms)
 Number     Number       Type             X           Y           Z
 ---------------------------------------------------------------------
      1          8           0       -2.712416    2.555749   -1.406340
      2          8           0       -3.401778   -0.691286    0.847475
      3          8           0       -0.850542   -2.384634    1.851949
      4          6           0       -2.189517    1.511622   -0.885628
      5          6           0       -2.844560    0.228565   -1.352925
      6          6           0       -2.706575   -0.942954   -0.392612
      7          6           0       -1.183693   -1.116677   -0.156636
      8          6           0       -3.367169   -2.162505   -0.997550
      9          6           0       -0.894521   -2.377427    0.651840
     10          6           0       -0.654079   -3.651305   -0.116885
     11          1           0       -2.448989   -0.024519   -2.178432
     12          1           0       -3.769708    0.398674   -1.481488
     13          1           0       -0.778026   -1.225270   -1.009575
     14          1           0       -2.995778    0.195407    1.362355
     15          1           0       -4.287275   -1.978736   -1.148546
     16          1           0       -3.284887   -2.894671   -0.398380
     17          1           0       -2.943391   -2.371043   -1.817442
     18          1           0       -1.304076   -4.296383    0.131165
     19          1           0        0.214117   -3.980816    0.083831
     20          1           0       -0.717870   -3.475219   -1.048544
     21          8           0       -1.081795    3.813487    0.367267
     22          6           0        0.112055    2.596136    1.945835
     23          6           0       -0.759148    2.642208    0.713624
     24          6           0       -1.174438    1.459102    0.057190
     25          6           0       -0.553721    0.132984    0.499810
     26          6           0        0.948901    0.084185    0.227210
     27          6           0        1.834666   -0.376897    1.178382
     28          6           0        3.193839   -0.490045    0.896671
     29          6           0        3.651145   -0.110506   -0.323714
     30          6           0        2.814735    0.384642   -1.276707
     31          6           0        1.449542    0.481902   -1.007082
     32          1           0        0.327725    1.697988    2.145855
     33          1           0       -0.354816    2.987925    2.674417
     34          1           0        0.910784    3.089538    1.783274
     35          1           0       -0.679797    0.058980    1.438644
     36          1           0        1.514550   -0.621442    2.039539
     37          1           0        3.159841    0.666652   -2.116557
     38          1           0        0.859759    0.821718   -1.671088
     39         17           0        5.358208   -0.254319   -0.681613
     40          1           0        3.795777   -0.830061    1.550641
 ---------------------------------------------------------------------
 Rotational constants (GHZ):           0.3629179           0.1903052           0.1489403
 Leave Link  202 at Mon Mar  6 10:21:40 2023, MaxMem=  1048576000 cpu:               0.0 elap:               0.0
 (Enter /ssoft/spack/external/gaussian/g16-C.01/avx2/g16/l301.exe)
 Standard basis: def2SVP (5D, 7F)
 Ernie: Thresh=  0.10000D-02 Tol=  0.10000D-05 Strict=F.
 There are   424 symmetry adapted cartesian basis functions of A   symmetry.
 There are   402 symmetry adapted basis functions of A   symmetry.
   402 basis functions,   688 primitive gaussians,   424 cartesian basis functions
    85 alpha electrons       85 beta electrons
       nuclear repulsion energy      2016.7016156660 Hartrees.
 IExCor= 1009 DFT=T Ex+Corr=PBE1PBE ExCW=0 ScaHFX=  0.250000
 ScaDFX=  0.750000  0.750000  1.000000  1.000000 ScalE2=  1.000000  1.000000
 IRadAn=      5 IRanWt=     -1 IRanGd=            0 ICorTp=0 IEmpDi=141
 NAtoms=   40 NActive=   40 NUniq=   40 SFac= 1.00D+00 NAtFMM=   60 NAOKFM=F Big=F
 Integral buffers will be    131072 words long.
 Raffenetti 2 integral format.
 Two-electron integral symmetry is turned on.
 R6Disp:  Grimme-D3(BJ) Dispersion energy=       -0.0529364120 Hartrees.
 Nuclear repulsion after empirical dispersion term =     2016.6486792541 Hartrees.
 Leave Link  301 at Mon Mar  6 10:21:40 2023, MaxMem=  1048576000 cpu:               0.1 elap:               0.1
 (Enter /ssoft/spack/external/gaussian/g16-C.01/avx2/g16/l302.exe)
 NPDir=0 NMtPBC=     1 NCelOv=     1 NCel=       1 NClECP=     1 NCelD=      1
         NCelK=      1 NCelE2=     1 NClLst=     1 CellRange=     0.0.
 One-electron integrals computed using PRISM.
 One-electron integral symmetry used in STVInt
   1 Symmetry operations used in ECPInt.
 ECPInt:  NShTT=   17766 NPrTT=   65330 LenC2=   16499 LenP2D=   42598.
 LDataN:  DoStor=T MaxTD1= 4 Len=   56
 NBasis=   402 RedAO= T EigKep=  2.24D-04  NBF=   402
 NBsUse=   402 1.00D-06 EigRej= -1.00D+00 NBFU=   402
 Precomputing XC quadrature grid using
 IXCGrd= 4 IRadAn=           5 IRanWt=          -1 IRanGd=           0 AccXCQ= 0.00D+00.
 Generated NRdTot=       0 NPtTot=           0 NUsed=           0 NTot=          32
 NSgBfM=   422   422   422   422   422 MxSgAt=    40 MxSgA2=    40.
 Leave Link  302 at Mon Mar  6 10:21:41 2023, MaxMem=  1048576000 cpu:               1.4 elap:               1.4
 (Enter /ssoft/spack/external/gaussian/g16-C.01/avx2/g16/l303.exe)
 DipDrv:  MaxL=1.
 Leave Link  303 at Mon Mar  6 10:21:41 2023, MaxMem=  1048576000 cpu:               0.1 elap:               0.1
 (Enter /ssoft/spack/external/gaussian/g16-C.01/avx2/g16/l401.exe)
 ExpMin= 1.22D-01 ExpMax= 1.04D+04 ExpMxC= 1.57D+03 IAcc=3 IRadAn=         5 AccDes= 0.00D+00
 Harris functional with IExCor= 1009 and IRadAn=       5 diagonalized for initial guess.
 HarFok:  IExCor= 1009 AccDes= 0.00D+00 IRadAn=         5 IDoV= 1 UseB2=F ITyADJ=14
 ICtDFT=  3500011 ScaDFX=  1.000000  1.000000  1.000000  1.000000
 FoFCou: FMM=F IPFlag=           0 FMFlag=      100000 FMFlg1=           0
         NFxFlg=           0 DoJE=T BraDBF=F KetDBF=T FulRan=T
         wScrn=  0.000000 ICntrl=       500 IOpCl=  0 I1Cent=   200000004 NGrid=           0
         NMat0=    1 NMatS0=      1 NMatT0=    0 NMatD0=    1 NMtDS0=    0 NMtDT0=    0
 Petite list used in FoFCou.
 Harris En= -1417.95474127394    
 JPrj=0 DoOrth=F DoCkMO=F.
 Leave Link  401 at Mon Mar  6 10:21:55 2023, MaxMem=  1048576000 cpu:              13.9 elap:              14.0
 (Enter /ssoft/spack/external/gaussian/g16-C.01/avx2/g16/l502.exe)
 Integral symmetry usage will be decided dynamically.
 Closed shell SCF:
 Using DIIS extrapolation, IDIIS=  1040.
 NGot=  1048576000 LenX=  1048208444 LenY=  1048028227
 Requested convergence on RMS density matrix=1.00D-08 within 128 cycles.
 Requested convergence on MAX density matrix=1.00D-06.
 Requested convergence on             energy=1.00D-06.
 No special actions if energy rises.
 Fock matrices will be formed incrementally for  20 cycles.
 Integral accuracy reduced to 1.0D-05 until final iterations.

 Cycle   1  Pass 0  IDiag  1:
 FoFJK:  IHMeth= 1 ICntrl=       0 DoSepK=F KAlg= 0 I1Cent=           0 FoldK=F
 IRaf= 870000000 NMat=       1 IRICut=       1 DoRegI=T DoRafI=F ISym2E= 0 IDoP0=0 IntGTp=1.
 FoFCou: FMM=F IPFlag=           0 FMFlag=      100000 FMFlg1=           0
         NFxFlg=           0 DoJE=F BraDBF=F KetDBF=F FulRan=T
         wScrn=  0.000000 ICntrl=         0 IOpCl=  0 I1Cent=           0 NGrid=           0
         NMat0=    1 NMatS0=      1 NMatT0=    0 NMatD0=    1 NMtDS0=    0 NMtDT0=    0
 Symmetry not used in FoFCou.
 E= -1416.69505291209    
 DIIS: error= 2.77D-02 at cycle   1 NSaved=   1.
 NSaved= 1 IEnMin= 1 EnMin= -1416.69505291209     IErMin= 1 ErrMin= 2.77D-02
 ErrMax= 2.77D-02  0.00D+00 EMaxC= 1.00D-01 BMatC= 7.31D-01 BMatP= 7.31D-01
 IDIUse=3 WtCom= 7.23D-01 WtEn= 2.77D-01
 Coeff-Com:  0.100D+01
 Coeff-En:   0.100D+01
 Coeff:      0.100D+01
 Gap=     0.457 Goal=   None    Shift=    0.000
 GapD=    0.457 DampG=2.000 DampE=0.500 DampFc=1.0000 IDamp=-1.
 RMSDP=1.30D-02 MaxDP=8.31D-01              OVMax= 9.67D-01

 Cycle   2  Pass 0  IDiag  1:
 RMSU=  1.29D-02    CP:  9.59D-01
 E= -1414.46638959115     Delta-E=        2.228663320942 Rises=F Damp=F
 DIIS: error= 5.91D-02 at cycle   2 NSaved=   2.
 NSaved= 2 IEnMin= 1 EnMin= -1416.69505291209     IErMin= 1 ErrMin= 2.77D-02
 ErrMax= 5.91D-02  0.00D+00 EMaxC= 1.00D-01 BMatC= 2.08D+00 BMatP= 7.31D-01
 IDIUse=2 WtCom= 0.00D+00 WtEn= 1.00D+00
 Coeff-En:   0.799D+00 0.201D+00
 Coeff:      0.799D+00 0.201D+00
 Gap=    -0.113 Goal=   None    Shift=    0.000
 RMSDP=1.17D-02 MaxDP=8.00D-01 DE= 2.23D+00 OVMax= 9.42D-01

 Cycle   3  Pass 0  IDiag  1:
 RMSU=  4.12D-03    CP:  9.47D-01  1.55D-01
 E= -1417.18508512057     Delta-E=       -2.718695529425 Rises=F Damp=F
 DIIS: error= 1.43D-02 at cycle   3 NSaved=   3.
 NSaved= 3 IEnMin= 3 EnMin= -1417.18508512057     IErMin= 3 ErrMin= 1.43D-02
 ErrMax= 1.43D-02  0.00D+00 EMaxC= 1.00D-01 BMatC= 2.33D-01 BMatP= 7.31D-01
 IDIUse=3 WtCom= 8.57D-01 WtEn= 1.43D-01
 Coeff-Com:  0.385D+00 0.134D+00 0.481D+00
 Coeff-En:   0.161D+00 0.000D+00 0.839D+00
 Coeff:      0.353D+00 0.115D+00 0.532D+00
 Gap=     0.135 Goal=   None    Shift=    0.000
 RMSDP=2.06D-03 MaxDP=9.53D-02 DE=-2.72D+00 OVMax= 9.05D-02

 Cycle   4  Pass 0  IDiag  1:
 RMSU=  1.63D-03    CP:  9.61D-01  1.25D-01  7.15D-01
 E= -1417.40474648614     Delta-E=       -0.219661365562 Rises=F Damp=F
 DIIS: error= 6.37D-03 at cycle   4 NSaved=   4.
 NSaved= 4 IEnMin= 4 EnMin= -1417.40474648614     IErMin= 4 ErrMin= 6.37D-03
 ErrMax= 6.37D-03  0.00D+00 EMaxC= 1.00D-01 BMatC= 1.97D-02 BMatP= 2.33D-01
 IDIUse=3 WtCom= 9.36D-01 WtEn= 6.37D-02
 Coeff-Com:  0.116D+00 0.503D-01 0.239D+00 0.595D+00
 Coeff-En:   0.000D+00 0.000D+00 0.000D+00 0.100D+01
 Coeff:      0.108D+00 0.471D-01 0.223D+00 0.621D+00
 Gap=     0.128 Goal=   None    Shift=    0.000
 RMSDP=6.77D-04 MaxDP=3.17D-02 DE=-2.20D-01 OVMax= 3.19D-02

 Cycle   5  Pass 0  IDiag  1:
 RMSU=  5.53D-04    CP:  9.60D-01  1.33D-01  7.74D-01  8.22D-01
 E= -1417.41640271426     Delta-E=       -0.011656228122 Rises=F Damp=F
 DIIS: error= 3.18D-03 at cycle   5 NSaved=   5.
 NSaved= 5 IEnMin= 5 EnMin= -1417.41640271426     IErMin= 5 ErrMin= 3.18D-03
 ErrMax= 3.18D-03  0.00D+00 EMaxC= 1.00D-01 BMatC= 7.09D-03 BMatP= 1.97D-02
 IDIUse=3 WtCom= 9.68D-01 WtEn= 3.18D-02
 Coeff-Com:  0.966D-02 0.145D-01 0.532D-01 0.409D+00 0.514D+00
 Coeff-En:   0.000D+00 0.000D+00 0.000D+00 0.268D+00 0.732D+00
 Coeff:      0.936D-02 0.141D-01 0.515D-01 0.404D+00 0.521D+00
 Gap=     0.125 Goal=   None    Shift=    0.000
 RMSDP=3.25D-04 MaxDP=1.59D-02 DE=-1.17D-02 OVMax= 2.46D-02

 Cycle   6  Pass 0  IDiag  1:
 RMSU=  2.34D-04    CP:  9.59D-01  1.32D-01  7.67D-01  8.91D-01  6.56D-01
 E= -1417.42252480995     Delta-E=       -0.006122095686 Rises=F Damp=F
 DIIS: error= 6.92D-04 at cycle   6 NSaved=   6.
 NSaved= 6 IEnMin= 6 EnMin= -1417.42252480995     IErMin= 6 ErrMin= 6.92D-04
 ErrMax= 6.92D-04  0.00D+00 EMaxC= 1.00D-01 BMatC= 5.10D-04 BMatP= 7.09D-03
 IDIUse=3 WtCom= 9.93D-01 WtEn= 6.92D-03
 Coeff-Com: -0.687D-02 0.496D-02-0.383D-02 0.138D+00 0.280D+00 0.587D+00
 Coeff-En:   0.000D+00 0.000D+00 0.000D+00 0.000D+00 0.000D+00 0.100D+01
 Coeff:     -0.682D-02 0.492D-02-0.380D-02 0.137D+00 0.278D+00 0.590D+00
 Gap=     0.123 Goal=   None    Shift=    0.000
 RMSDP=1.06D-04 MaxDP=5.17D-03 DE=-6.12D-03 OVMax= 5.69D-03

 Cycle   7  Pass 0  IDiag  1:
 RMSU=  6.14D-05    CP:  9.59D-01  1.33D-01  7.68D-01  9.11D-01  7.24D-01
                    CP:  7.07D-01
 E= -1417.42294992932     Delta-E=       -0.000425119373 Rises=F Damp=F
 DIIS: error= 2.28D-04 at cycle   7 NSaved=   7.
 NSaved= 7 IEnMin= 7 EnMin= -1417.42294992932     IErMin= 7 ErrMin= 2.28D-04
 ErrMax= 2.28D-04  0.00D+00 EMaxC= 1.00D-01 BMatC= 3.66D-05 BMatP= 5.10D-04
 IDIUse=3 WtCom= 9.98D-01 WtEn= 2.28D-03
 Coeff-Com: -0.404D-02 0.126D-02-0.776D-02 0.241D-01 0.778D-01 0.275D+00
 Coeff-Com:  0.633D+00
 Coeff-En:   0.000D+00 0.000D+00 0.000D+00 0.000D+00 0.000D+00 0.000D+00
 Coeff-En:   0.100D+01
 Coeff:     -0.403D-02 0.126D-02-0.774D-02 0.240D-01 0.776D-01 0.275D+00
 Coeff:      0.634D+00
 Gap=     0.124 Goal=   None    Shift=    0.000
 RMSDP=2.93D-05 MaxDP=1.13D-03 DE=-4.25D-04 OVMax= 2.50D-03

 Cycle   8  Pass 0  IDiag  1:
 RMSU=  2.35D-05    CP:  9.59D-01  1.33D-01  7.68D-01  9.12D-01  7.30D-01
                    CP:  7.66D-01  8.32D-01
 E= -1417.42298294126     Delta-E=       -0.000033011945 Rises=F Damp=F
 DIIS: error= 1.15D-04 at cycle   8 NSaved=   8.
 NSaved= 8 IEnMin= 8 EnMin= -1417.42298294126     IErMin= 8 ErrMin= 1.15D-04
 ErrMax= 1.15D-04  0.00D+00 EMaxC= 1.00D-01 BMatC= 6.40D-06 BMatP= 3.66D-05
 IDIUse=3 WtCom= 9.99D-01 WtEn= 1.15D-03
 Coeff-Com: -0.145D-02 0.351D-03-0.393D-02-0.793D-03 0.126D-01 0.830D-01
 Coeff-Com:  0.346D+00 0.564D+00
 Coeff-En:   0.000D+00 0.000D+00 0.000D+00 0.000D+00 0.000D+00 0.000D+00
 Coeff-En:   0.307D-01 0.969D+00
 Coeff:     -0.145D-02 0.350D-03-0.393D-02-0.792D-03 0.126D-01 0.829D-01
 Coeff:      0.346D+00 0.564D+00
 Gap=     0.124 Goal=   None    Shift=    0.000
 RMSDP=1.11D-05 MaxDP=5.89D-04 DE=-3.30D-05 OVMax= 6.91D-04

 Cycle   9  Pass 0  IDiag  1:
 RMSU=  7.33D-06    CP:  9.59D-01  1.33D-01  7.68D-01  9.13D-01  7.33D-01
                    CP:  7.66D-01  8.66D-01  6.65D-01
 E= -1417.42298759523     Delta-E=       -0.000004653963 Rises=F Damp=F
 DIIS: error= 2.80D-05 at cycle   9 NSaved=   9.
 NSaved= 9 IEnMin= 9 EnMin= -1417.42298759523     IErMin= 9 ErrMin= 2.80D-05
 ErrMax= 2.80D-05  0.00D+00 EMaxC= 1.00D-01 BMatC= 8.78D-07 BMatP= 6.40D-06
 IDIUse=1 WtCom= 1.00D+00 WtEn= 0.00D+00
 Coeff-Com: -0.290D-03 0.767D-04-0.124D-02-0.310D-02-0.225D-02 0.127D-01
 Coeff-Com:  0.120D+00 0.325D+00 0.549D+00
 Coeff:     -0.290D-03 0.767D-04-0.124D-02-0.310D-02-0.225D-02 0.127D-01
 Coeff:      0.120D+00 0.325D+00 0.549D+00
 Gap=     0.124 Goal=   None    Shift=    0.000
 RMSDP=4.70D-06 MaxDP=3.32D-04 DE=-4.65D-06 OVMax= 3.10D-04

 Initial convergence to 1.0D-05 achieved.  Increase integral accuracy.
 Cycle  10  Pass 1  IDiag  1:
 E= -1417.42300014658     Delta-E=       -0.000012551357 Rises=F Damp=F
 DIIS: error= 9.34D-05 at cycle   1 NSaved=   1.
 NSaved= 1 IEnMin= 1 EnMin= -1417.42300014658     IErMin= 1 ErrMin= 9.34D-05
 ErrMax= 9.34D-05  0.00D+00 EMaxC= 1.00D-01 BMatC= 2.21D-06 BMatP= 2.21D-06
 IDIUse=1 WtCom= 1.00D+00 WtEn= 0.00D+00
 Coeff-Com:  0.100D+01
 Coeff:      0.100D+01
 Gap=     0.124 Goal=   None    Shift=    0.000
 RMSDP=4.70D-06 MaxDP=3.32D-04 DE=-1.26D-05 OVMax= 2.60D-04

 Cycle  11  Pass 1  IDiag  1:
 RMSU=  8.51D-05    CP:  1.00D+00
 E= -1417.42300181379     Delta-E=       -0.000001667209 Rises=F Damp=F
 DIIS: error= 2.72D-05 at cycle   2 NSaved=   2.
 NSaved= 2 IEnMin= 2 EnMin= -1417.42300181379     IErMin= 2 ErrMin= 2.72D-05
 ErrMax= 2.72D-05  0.00D+00 EMaxC= 1.00D-01 BMatC= 5.43D-07 BMatP= 2.21D-06
 IDIUse=1 WtCom= 1.00D+00 WtEn= 0.00D+00
 Coeff-Com:  0.242D+00 0.758D+00
 Coeff:      0.242D+00 0.758D+00
 Gap=     0.124 Goal=   None    Shift=    0.000
 RMSDP=6.69D-06 MaxDP=4.90D-04 DE=-1.67D-06 OVMax= 3.73D-04

 Cycle  12  Pass 1  IDiag  1:
 RMSU=  6.60D-06    CP:  1.00D+00  1.01D+00
 E= -1417.42300140405     Delta-E=        0.000000409742 Rises=F Damp=F
 DIIS: error= 4.34D-05 at cycle   3 NSaved=   3.
 NSaved= 3 IEnMin= 2 EnMin= -1417.42300181379     IErMin= 2 ErrMin= 2.72D-05
 ErrMax= 4.34D-05  0.00D+00 EMaxC= 1.00D-01 BMatC= 1.02D-06 BMatP= 5.43D-07
 IDIUse=1 WtCom= 1.00D+00 WtEn= 0.00D+00
 Coeff-Com: -0.157D-02 0.580D+00 0.422D+00
 Coeff:     -0.157D-02 0.580D+00 0.422D+00
 Gap=     0.124 Goal=   None    Shift=    0.000
 RMSDP=4.12D-06 MaxDP=3.35D-04 DE= 4.10D-07 OVMax= 2.49D-04

 Cycle  13  Pass 1  IDiag  1:
 RMSU=  8.19D-07    CP:  1.00D+00  1.02D+00  4.04D-01
 E= -1417.42300226843     Delta-E=       -0.000000864377 Rises=F Damp=F
 DIIS: error= 4.93D-06 at cycle   4 NSaved=   4.
 NSaved= 4 IEnMin= 4 EnMin= -1417.42300226843     IErMin= 4 ErrMin= 4.93D-06
 ErrMax= 4.93D-06  0.00D+00 EMaxC= 1.00D-01 BMatC= 1.50D-08 BMatP= 5.43D-07
 IDIUse=1 WtCom= 1.00D+00 WtEn= 0.00D+00
 Coeff-Com: -0.480D-02 0.356D+00 0.268D+00 0.381D+00
 Coeff:     -0.480D-02 0.356D+00 0.268D+00 0.381D+00
 Gap=     0.124 Goal=   None    Shift=    0.000
 RMSDP=4.90D-07 MaxDP=3.88D-05 DE=-8.64D-07 OVMax= 3.03D-05

 Cycle  14  Pass 1  IDiag  1:
 RMSU=  2.49D-07    CP:  1.00D+00  1.02D+00  4.34D-01  5.57D-01
 E= -1417.42300228119     Delta-E=       -0.000000012767 Rises=F Damp=F
 DIIS: error= 6.95D-07 at cycle   5 NSaved=   5.
 NSaved= 5 IEnMin= 5 EnMin= -1417.42300228119     IErMin= 5 ErrMin= 6.95D-07
 ErrMax= 6.95D-07  0.00D+00 EMaxC= 1.00D-01 BMatC= 3.59D-10 BMatP= 1.50D-08
 IDIUse=1 WtCom= 1.00D+00 WtEn= 0.00D+00
 Coeff-Com: -0.264D-02 0.176D+00 0.134D+00 0.214D+00 0.479D+00
 Coeff:     -0.264D-02 0.176D+00 0.134D+00 0.214D+00 0.479D+00
 Gap=     0.124 Goal=   None    Shift=    0.000
 RMSDP=9.73D-08 MaxDP=6.97D-06 DE=-1.28D-08 OVMax= 4.26D-06

 Cycle  15  Pass 1  IDiag  1:
 RMSU=  7.79D-08    CP:  1.00D+00  1.02D+00  4.29D-01  5.59D-01  8.16D-01
 E= -1417.42300228150     Delta-E=       -0.000000000309 Rises=F Damp=F
 DIIS: error= 1.99D-07 at cycle   6 NSaved=   6.
 NSaved= 6 IEnMin= 6 EnMin= -1417.42300228150     IErMin= 6 ErrMin= 1.99D-07
 ErrMax= 1.99D-07  0.00D+00 EMaxC= 1.00D-01 BMatC= 3.01D-11 BMatP= 3.59D-10
 IDIUse=1 WtCom= 1.00D+00 WtEn= 0.00D+00
 Coeff-Com: -0.824D-03 0.508D-01 0.386D-01 0.669D-01 0.257D+00 0.588D+00
 Coeff:     -0.824D-03 0.508D-01 0.386D-01 0.669D-01 0.257D+00 0.588D+00
 Gap=     0.124 Goal=   None    Shift=    0.000
 RMSDP=2.53D-08 MaxDP=1.90D-06 DE=-3.09D-10 OVMax= 8.54D-07

 Cycle  16  Pass 1  IDiag  1:
 RMSU=  1.90D-08    CP:  1.00D+00  1.02D+00  4.30D-01  5.63D-01  8.63D-01
                    CP:  8.85D-01
 E= -1417.42300228153     Delta-E=       -0.000000000024 Rises=F Damp=F
 DIIS: error= 1.02D-07 at cycle   7 NSaved=   7.
 NSaved= 7 IEnMin= 7 EnMin= -1417.42300228153     IErMin= 7 ErrMin= 1.02D-07
 ErrMax= 1.02D-07  0.00D+00 EMaxC= 1.00D-01 BMatC= 3.89D-12 BMatP= 3.01D-11
 IDIUse=1 WtCom= 1.00D+00 WtEn= 0.00D+00
 Coeff-Com:  0.454D-04-0.529D-02-0.390D-02-0.376D-02 0.526D-01 0.306D+00
 Coeff-Com:  0.655D+00
 Coeff:      0.454D-04-0.529D-02-0.390D-02-0.376D-02 0.526D-01 0.306D+00
 Coeff:      0.655D+00
 Gap=     0.124 Goal=   None    Shift=    0.000
 RMSDP=9.89D-09 MaxDP=4.78D-07 DE=-2.41D-11 OVMax= 4.74D-07

 SCF Done:  E(RPBE1PBE) =  -1417.42300228     A.U. after   16 cycles
            NFock= 16  Conv=0.99D-08     -V/T= 2.0038
 KE= 1.412027732505D+03 PE=-7.382637794926D+03 EE= 2.536538380885D+03
 Leave Link  502 at Mon Mar  6 10:31:08 2023, MaxMem=  1048576000 cpu:             547.8 elap:             552.5
 (Enter /ssoft/spack/external/gaussian/g16-C.01/avx2/g16/l801.exe)
 DoSCS=F DFT=T ScalE2(SS,OS)=  1.000000  1.000000
 Range of M.O.s used for correlation:     1   402
 NBasis=   402 NAE=    85 NBE=    85 NFC=     0 NFV=     0
 NROrb=    402 NOA=    85 NOB=    85 NVA=   317 NVB=   317
 Leave Link  801 at Mon Mar  6 10:31:08 2023, MaxMem=  1048576000 cpu:               0.0 elap:               0.0
 (Enter /ssoft/spack/external/gaussian/g16-C.01/avx2/g16/l1101.exe)
 Using compressed storage, NAtomX=    40.
 Will process     41 centers per pass.
   1 Symmetry operations used in ECPInt.
 ECPInt:  NShTT=   17766 NPrTT=   65330 LenC2=   16499 LenP2D=   42598.
 LDataN:  DoStor=T MaxTD1= 5 Len=  102
 R6Disp: Adding Grimme-D3(BJ) dispersion energy 1st derivatives to the gradient.
 Leave Link 1101 at Mon Mar  6 10:31:09 2023, MaxMem=  1048576000 cpu:               0.7 elap:               0.8
 (Enter /ssoft/spack/external/gaussian/g16-C.01/avx2/g16/l1102.exe)
 Symmetrizing basis deriv contribution to polar:
 IMax=3 JMax=2 DiffMx= 0.00D+00
 Leave Link 1102 at Mon Mar  6 10:31:09 2023, MaxMem=  1048576000 cpu:               0.1 elap:               0.1
 (Enter /ssoft/spack/external/gaussian/g16-C.01/avx2/g16/l1110.exe)
 Forming Gx(P) for the SCF density, NAtomX=    40.
 Integral derivatives from FoFJK, PRISM(SPDF).
 Do as many integral derivatives as possible in FoFJK.
 G2DrvN: MDV=    1048571744.
 G2DrvN: will do    41 centers at a time, making    1 passes.
 Calling FoFCou, ICntrl=  3107 FMM=F I1Cent=   0 AccDes= 0.00D+00.
 FoFJK:  IHMeth= 1 ICntrl=    3107 DoSepK=F KAlg= 0 I1Cent=           0 FoldK=F
 IRaf=         0 NMat=       1 IRICut=       1 DoRegI=T DoRafI=F ISym2E= 0 IDoP0=0 IntGTp=1.
 FoFCou: FMM=F IPFlag=           0 FMFlag=      100000 FMFlg1=           0
         NFxFlg=           0 DoJE=F BraDBF=F KetDBF=F FulRan=T
         wScrn=  0.000000 ICntrl=      3107 IOpCl=  0 I1Cent=           0 NGrid=           0
         NMat0=    1 NMatS0=      1 NMatT0=    0 NMatD0=    1 NMtDS0=    0 NMtDT0=    0
 Symmetry not used in FoFCou.
 End of G2Drv F.D. properties file   721 does not exist.
 End of G2Drv F.D. properties file   722 does not exist.
 End of G2Drv F.D. properties file   788 does not exist.
 Leave Link 1110 at Mon Mar  6 10:51:41 2023, MaxMem=  1048576000 cpu:            1227.5 elap:            1232.0
 (Enter /ssoft/spack/external/gaussian/g16-C.01/avx2/g16/l1002.exe)
 Minotr:  Closed shell wavefunction.
          IDoAtm=1111111111111111111111111111111111111111
          Direct CPHF calculation.
          Differentiating once with respect to electric field.
                with respect to dipole field.
          Differentiating once with respect to nuclear coordinates.
          Requested convergence is 1.0D-08 RMS, and 1.0D-07 maximum.
          Secondary convergence is 1.0D-12 RMS, and 1.0D-12 maximum.
          NewPWx=T KeepS1=F KeepF1=F KeepIn=T MapXYZ=F SortEE=F KeepMc=T.
        12047 words used for storage of precomputed grid.
 Two-electron integrals replicated using symmetry.
          MDV=    1048576000 using IRadAn=       1.
          Solving linear equations simultaneously, MaxMat=     384.
 FoF2E skips out because all densities are zero.
 CalDSu exits because no D1Ps are significant.
 FoFJK:  IHMeth= 1 ICntrl=       0 DoSepK=F KAlg= 0 I1Cent=           0 FoldK=F
 IRaf= 850000000 NMat=     120 IRICut=     300 DoRegI=T DoRafI=T ISym2E= 2 IDoP0=3 IntGTp=3.
 FoFCou: FMM=F IPFlag=           0 FMFlag=      100000 FMFlg1=           0
         NFxFlg=           0 DoJE=F BraDBF=F KetDBF=F FulRan=T
         wScrn=  0.000000 ICntrl=         0 IOpCl=  0 I1Cent=           0 NGrid=           0
         NMat0=  120 NMatS0=    120 NMatT0=    0 NMatD0=  120 NMtDS0=    0 NMtDT0=    0
 Integrals replicated using symmetry in FoFCou.
 Raff kept on since  80.77% of shell-pairs survive, threshold=   0.20 IRatSp=81.
          There are   123 degrees of freedom in the 1st order CPHF.  IDoFFX=6 NUNeed=     3.
    120 vectors produced by pass  0 Test12= 2.69D-14 1.00D-09 XBig12= 2.09D+02 6.29D+00.
 AX will form   120 AO Fock derivatives at one time.
    120 vectors produced by pass  1 Test12= 2.69D-14 1.00D-09 XBig12= 3.21D+01 8.84D-01.
    120 vectors produced by pass  2 Test12= 2.69D-14 1.00D-09 XBig12= 3.22D-01 7.38D-02.
    120 vectors produced by pass  3 Test12= 2.69D-14 1.00D-09 XBig12= 2.28D-03 7.27D-03.
    120 vectors produced by pass  4 Test12= 2.69D-14 1.00D-09 XBig12= 6.61D-06 3.00D-04.
    116 vectors produced by pass  5 Test12= 2.69D-14 1.00D-09 XBig12= 8.63D-09 5.89D-06.
     35 vectors produced by pass  6 Test12= 2.69D-14 1.00D-09 XBig12= 9.50D-12 2.06D-07.
      3 vectors produced by pass  7 Test12= 2.69D-14 1.00D-09 XBig12= 1.05D-14 6.93D-09.
 InvSVY:  IOpt=1 It=  1 EMax= 7.11D-15
 Solved reduced A of dimension   754 with   123 vectors.
 FullF1:  Do perturbations      1 to       3.
 Isotropic polarizability for W=    0.000000      187.97 Bohr**3.
 End of Minotr F.D. properties file   721 does not exist.
 End of Minotr F.D. properties file   722 does not exist.
 End of Minotr F.D. properties file   788 does not exist.
 Leave Link 1002 at Mon Mar  6 11:30:11 2023, MaxMem=  1048576000 cpu:            2301.9 elap:            2309.6
 (Enter /ssoft/spack/external/gaussian/g16-C.01/avx2/g16/l601.exe)
 Copying SCF densities to generalized density rwf, IOpCl= 0 IROHF=0.

 **********************************************************************

            Population analysis using the SCF Density.

 **********************************************************************

 Orbital symmetries:
       Occupied  (A) (A) (A) (A) (A) (A) (A) (A) (A) (A) (A) (A)
                 (A) (A) (A) (A) (A) (A) (A) (A) (A) (A) (A) (A)
                 (A) (A) (A) (A) (A) (A) (A) (A) (A) (A) (A) (A)
                 (A) (A) (A) (A) (A) (A) (A) (A) (A) (A) (A) (A)
                 (A) (A) (A) (A) (A) (A) (A) (A) (A) (A) (A) (A)
                 (A) (A) (A) (A) (A) (A) (A) (A) (A) (A) (A) (A)
                 (A) (A) (A) (A) (A) (A) (A) (A) (A) (A) (A) (A)
                 (A)
       Virtual   (A) (A) (A) (A) (A) (A) (A) (A) (A) (A) (A) (A)
                 (A) (A) (A) (A) (A) (A) (A) (A) (A) (A) (A) (A)
                 (A) (A) (A) (A) (A) (A) (A) (A) (A) (A) (A) (A)
                 (A) (A) (A) (A) (A) (A) (A) (A) (A) (A) (A) (A)
                 (A) (A) (A) (A) (A) (A) (A) (A) (A) (A) (A) (A)
                 (A) (A) (A) (A) (A) (A) (A) (A) (A) (A) (A) (A)
                 (A) (A) (A) (A) (A) (A) (A) (A) (A) (A) (A) (A)
                 (A) (A) (A) (A) (A) (A) (A) (A) (A) (A) (A) (A)
                 (A) (A) (A) (A) (A) (A) (A) (A) (A) (A) (A) (A)
                 (A) (A) (A) (A) (A) (A) (A) (A) (A) (A) (A) (A)
                 (A) (A) (A) (A) (A) (A) (A) (A) (A) (A) (A) (A)
                 (A) (A) (A) (A) (A) (A) (A) (A) (A) (A) (A) (A)
                 (A) (A) (A) (A) (A) (A) (A) (A) (A) (A) (A) (A)
                 (A) (A) (A) (A) (A) (A) (A) (A) (A) (A) (A) (A)
                 (A) (A) (A) (A) (A) (A) (A) (A) (A) (A) (A) (A)
                 (A) (A) (A) (A) (A) (A) (A) (A) (A) (A) (A) (A)
                 (A) (A) (A) (A) (A) (A) (A) (A) (A) (A) (A) (A)
                 (A) (A) (A) (A) (A) (A) (A) (A) (A) (A) (A) (A)
                 (A) (A) (A) (A) (A) (A) (A) (A) (A) (A) (A) (A)
                 (A) (A) (A) (A) (A) (A) (A) (A) (A) (A) (A) (A)
                 (A) (A) (A) (A) (A) (A) (A) (A) (A) (A) (A) (A)
                 (A) (A) (A) (A) (A) (A) (A) (A) (A) (A) (A) (A)
                 (A) (A) (A) (A) (A) (A) (A) (A) (A) (A) (A) (A)
                 (A) (A) (A) (A) (A) (A) (A) (A) (A) (A) (A) (A)
                 (A) (A) (A) (A) (A) (A) (A) (A) (A) (A) (A) (A)
                 (A) (A) (A) (A) (A) (A) (A) (A) (A) (A) (A) (A)
                 (A) (A) (A) (A) (A)
 The electronic state is 1-A.
 Alpha  occ. eigenvalues -- -101.59163 -19.09830 -19.09135 -18.98437 -18.97996
 Alpha  occ. eigenvalues --  -10.21688 -10.19212 -10.17792 -10.13908 -10.13628
 Alpha  occ. eigenvalues --  -10.13533 -10.12858 -10.12797 -10.12777 -10.12391
 Alpha  occ. eigenvalues --  -10.11909 -10.11231 -10.10592 -10.08637 -10.06268
 Alpha  occ. eigenvalues --  -10.05179 -10.04307  -9.44377  -7.18482  -7.17538
 Alpha  occ. eigenvalues --   -7.17525  -0.96553  -0.89266  -0.83872  -0.82707
 Alpha  occ. eigenvalues --   -0.81777  -0.77337  -0.74010  -0.70523  -0.69795
 Alpha  occ. eigenvalues --   -0.69064  -0.65327  -0.64290  -0.63180  -0.60564
 Alpha  occ. eigenvalues --   -0.56465  -0.54467  -0.51481  -0.49050  -0.46436
 Alpha  occ. eigenvalues --   -0.44586  -0.44051  -0.41410  -0.40903  -0.40559
 Alpha  occ. eigenvalues --   -0.39909  -0.38221  -0.37853  -0.37097  -0.36633
 Alpha  occ. eigenvalues --   -0.35622  -0.34125  -0.33700  -0.33390  -0.32712
 Alpha  occ. eigenvalues --   -0.32281  -0.32033  -0.31704  -0.30863  -0.30583
 Alpha  occ. eigenvalues --   -0.29131  -0.28085  -0.27170  -0.26593  -0.26054
 Alpha  occ. eigenvalues --   -0.25161  -0.23774  -0.23687  -0.22795  -0.21867
 Alpha  occ. eigenvalues --   -0.21459  -0.19909  -0.17902  -0.17414  -0.16161
 Alpha  occ. eigenvalues --   -0.15615  -0.14761  -0.08635  -0.04830  -0.04407
 Alpha virt. eigenvalues --    0.07974   0.09193   0.09443   0.14825   0.15229
 Alpha virt. eigenvalues --    0.16222   0.17977   0.19862   0.21380   0.22082
 Alpha virt. eigenvalues --    0.22295   0.23398   0.23705   0.24029   0.24658
 Alpha virt. eigenvalues --    0.25559   0.26470   0.27542   0.28423   0.28868
 Alpha virt. eigenvalues --    0.30450   0.31370   0.31740   0.31805   0.32673
 Alpha virt. eigenvalues --    0.33606   0.33814   0.34596   0.35889   0.36432
 Alpha virt. eigenvalues --    0.37624   0.38196   0.38913   0.39198   0.39555
 Alpha virt. eigenvalues --    0.40082   0.40667   0.43084   0.43956   0.44872
 Alpha virt. eigenvalues --    0.45348   0.46238   0.47375   0.47778   0.50790
 Alpha virt. eigenvalues --    0.52512   0.53196   0.53575   0.55170   0.56873
 Alpha virt. eigenvalues --    0.57104   0.58327   0.58699   0.59400   0.59947
 Alpha virt. eigenvalues --    0.60639   0.61565   0.62237   0.63059   0.64167
 Alpha virt. eigenvalues --    0.64945   0.65754   0.66445   0.67595   0.68219
 Alpha virt. eigenvalues --    0.69161   0.69785   0.70081   0.70779   0.71781
 Alpha virt. eigenvalues --    0.73329   0.74096   0.74823   0.76112   0.77620
 Alpha virt. eigenvalues --    0.77717   0.78298   0.78672   0.78899   0.80007
 Alpha virt. eigenvalues --    0.80651   0.81094   0.81436   0.82290   0.82792
 Alpha virt. eigenvalues --    0.82884   0.83626   0.84225   0.85279   0.85538
 Alpha virt. eigenvalues --    0.86027   0.86711   0.86973   0.87422   0.87756
 Alpha virt. eigenvalues --    0.88319   0.88398   0.88999   0.89324   0.89899
 Alpha virt. eigenvalues --    0.90073   0.90552   0.90999   0.91523   0.91981
 Alpha virt. eigenvalues --    0.92197   0.92792   0.93160   0.94186   0.94841
 Alpha virt. eigenvalues --    0.96062   0.96374   0.97149   0.98210   0.98699
 Alpha virt. eigenvalues --    0.99534   1.00390   1.01215   1.01802   1.03620
 Alpha virt. eigenvalues --    1.04198   1.04485   1.07156   1.08192   1.09977
 Alpha virt. eigenvalues --    1.11826   1.12307   1.15151   1.16966   1.17769
 Alpha virt. eigenvalues --    1.18290   1.19429   1.20014   1.23271   1.23456
 Alpha virt. eigenvalues --    1.24439   1.26382   1.27053   1.28588   1.29076
 Alpha virt. eigenvalues --    1.29710   1.31114   1.32855   1.33773   1.34150
 Alpha virt. eigenvalues --    1.35488   1.36262   1.36374   1.37203   1.39045
 Alpha virt. eigenvalues --    1.39594   1.41742   1.42274   1.45095   1.47039
 Alpha virt. eigenvalues --    1.48061   1.50145   1.50785   1.51480   1.52621
 Alpha virt. eigenvalues --    1.54182   1.56423   1.57412   1.57804   1.58933
 Alpha virt. eigenvalues --    1.60885   1.62329   1.63386   1.65240   1.69000
 Alpha virt. eigenvalues --    1.69119   1.72452   1.74318   1.74832   1.76084
 Alpha virt. eigenvalues --    1.77494   1.79425   1.79985   1.80884   1.81861
 Alpha virt. eigenvalues --    1.82498   1.82897   1.83797   1.85623   1.86117
 Alpha virt. eigenvalues --    1.87625   1.88550   1.89362   1.90033   1.90805
 Alpha virt. eigenvalues --    1.91656   1.92370   1.93239   1.94662   1.95739
 Alpha virt. eigenvalues --    1.97380   1.97977   1.98452   1.99604   2.00764
 Alpha virt. eigenvalues --    2.01280   2.01905   2.02869   2.05635   2.06159
 Alpha virt. eigenvalues --    2.06323   2.07380   2.07754   2.10292   2.10588
 Alpha virt. eigenvalues --    2.12441   2.13328   2.13580   2.15295   2.15922
 Alpha virt. eigenvalues --    2.17507   2.18691   2.20133   2.20737   2.21612
 Alpha virt. eigenvalues --    2.21971   2.24217   2.26210   2.27035   2.28022
 Alpha virt. eigenvalues --    2.29066   2.29984   2.31422   2.31893   2.33643
 Alpha virt. eigenvalues --    2.35564   2.36265   2.38154   2.39070   2.40294
 Alpha virt. eigenvalues --    2.40440   2.41905   2.43489   2.44213   2.44798
 Alpha virt. eigenvalues --    2.44935   2.45754   2.48524   2.50088   2.50703
 Alpha virt. eigenvalues --    2.53414   2.53651   2.56819   2.58191   2.58332
 Alpha virt. eigenvalues --    2.61313   2.62653   2.64877   2.67131   2.69269
 Alpha virt. eigenvalues --    2.71482   2.72638   2.73542   2.76272   2.76618
 Alpha virt. eigenvalues --    2.77131   2.79538   2.80836   2.81899   2.82447
 Alpha virt. eigenvalues --    2.83059   2.83254   2.83990   2.85523   2.87176
 Alpha virt. eigenvalues --    2.88177   2.91753   2.92693   2.94071   2.94830
 Alpha virt. eigenvalues --    2.96603   2.98083   2.99894   3.01440   3.03966
 Alpha virt. eigenvalues --    3.04765   3.10675   3.13329   3.14024   3.17523
 Alpha virt. eigenvalues --    3.18926   3.19310   3.21273   3.23792   3.27553
 Alpha virt. eigenvalues --    3.28245   3.28694   3.32651   3.33751   3.35104
 Alpha virt. eigenvalues --    3.37305   3.38285   3.38803   3.39747   3.40376
 Alpha virt. eigenvalues --    3.41688   3.43338   3.44814   3.45934   3.50102
 Alpha virt. eigenvalues --    3.51294   3.55280   3.57408   3.58924   3.59851
 Alpha virt. eigenvalues --    3.62374   3.62994   3.78671   3.79445   3.81169
 Alpha virt. eigenvalues --    3.85401   3.90721
     Molecular Orbital Coefficients:
                          81        82        83        84        85
                           O         O         O         O         O
     Eigenvalues --    -0.15615  -0.14761  -0.08635  -0.04830  -0.04407
   1 1   O  1S          0.00151   0.00099   0.00481  -0.00201   0.01039
   2        2S          0.00198   0.00107   0.00920  -0.00507   0.02193
   3        3S          0.00557   0.00205   0.02772  -0.00654   0.05752
   4        4PX         0.01743  -0.08803  -0.23403  -0.25042   0.25619
   5        4PY         0.02427   0.03780  -0.23256  -0.00197   0.29070
   6        4PZ        -0.04448   0.02519  -0.21444   0.21277   0.21084
   7        5PX         0.01237  -0.05990  -0.16946  -0.20119   0.18918
   8        5PY         0.01773   0.02479  -0.17668  -0.00482   0.19501
   9        5PZ        -0.02886   0.01411  -0.15797   0.16816   0.15756
  10        6D 0       -0.00084   0.00200  -0.00413   0.00287   0.00423
  11        6D+1       -0.00037  -0.00025  -0.00498  -0.00030   0.00337
  12        6D-1        0.00219  -0.00079   0.00163  -0.00490  -0.00372
  13        6D+2        0.00069  -0.00018  -0.00745  -0.00231   0.00805
  14        6D-2       -0.00056   0.00352   0.00194   0.00573  -0.00427
  15 2   O  1S         -0.00506  -0.00287   0.00311   0.00493  -0.00363
  16        2S         -0.01138  -0.00730   0.00497   0.00580  -0.00759
  17        3S         -0.01143   0.00033   0.01880   0.05971  -0.01548
  18        4PX         0.11290  -0.19812   0.00242   0.03892  -0.01081
  19        4PY        -0.06098   0.20503  -0.01633   0.05133   0.01440
  20        4PZ         0.06578  -0.18297   0.00417   0.00587   0.00254
  21        5PX         0.09177  -0.15178   0.00503   0.04526  -0.01146
  22        5PY        -0.05273   0.16049  -0.01577   0.04879   0.01609
  23        5PZ         0.05077  -0.14562   0.00519   0.00409   0.00090
  24        6D 0       -0.00078   0.00124   0.00026   0.00004  -0.00036
  25        6D+1        0.00074  -0.00173  -0.00020  -0.00053   0.00020
  26        6D-1        0.00210  -0.00266  -0.00050  -0.00050   0.00067
  27        6D+2        0.00218  -0.00559   0.00073   0.00060  -0.00087
  28        6D-2        0.00044   0.00053  -0.00002   0.00079  -0.00020
  29 3   O  1S         -0.00025   0.00287  -0.00086  -0.00341   0.00017
  30        2S         -0.00027   0.00407  -0.00121  -0.00803   0.00032
  31        3S         -0.00514   0.04374  -0.00963  -0.01044   0.00126
  32        4PX        -0.03481  -0.04317  -0.01247  -0.00317  -0.00448
  33        4PY         0.07656   0.37363  -0.00113  -0.02612   0.01096
  34        4PZ         0.00727  -0.00377   0.00196  -0.00044   0.00059
  35        5PX        -0.03023  -0.02871  -0.00888  -0.00289  -0.00568
  36        5PY         0.05700   0.28642  -0.00201  -0.01849   0.01122
  37        5PZ         0.00554  -0.01433   0.00384   0.00121   0.00001
  38        6D 0       -0.00015   0.00095  -0.00021  -0.00042   0.00009
  39        6D+1        0.00045   0.00133   0.00013   0.00025   0.00008
  40        6D-1       -0.00142  -0.00791   0.00031   0.00081  -0.00003
  41        6D+2       -0.00031  -0.00025  -0.00017  -0.00044  -0.00005
  42        6D-2       -0.00030   0.00009   0.00010   0.00014  -0.00006
  43 4   C  1S         -0.00325  -0.00012   0.00312  -0.00262   0.00569
  44        2S          0.00812  -0.00604  -0.00440   0.00207  -0.01159
  45        3S          0.01458   0.07328  -0.10770   0.07905   0.18149
  46        4PX         0.02027   0.00108   0.03442   0.05934  -0.05546
  47        4PY        -0.03421  -0.01483   0.04521  -0.00744  -0.04548
  48        4PZ        -0.02618   0.05983   0.03441  -0.05583  -0.03820
  49        5PX         0.00595   0.00189  -0.10277   0.01731   0.14895
  50        5PY        -0.01177  -0.00109  -0.09161   0.01472  -0.03522
  51        5PZ        -0.02175   0.06084  -0.08431   0.05574   0.13141
  52        6D 0        0.00034   0.00139   0.01344  -0.02550  -0.01249
  53        6D+1       -0.00083   0.00301   0.01396  -0.00007  -0.01498
  54        6D-1        0.00094   0.00807  -0.00756   0.01534   0.01225
  55        6D+2       -0.00115   0.00668   0.02177   0.01730  -0.02182
  56        6D-2        0.00449  -0.00001  -0.00882  -0.01073   0.01582
  57 5   C  1S         -0.00700   0.03036   0.02607   0.00103  -0.03690
  58        2S          0.02010  -0.07071  -0.05277  -0.00356   0.07838
  59        3S          0.01756  -0.16101  -0.33846   0.04758   0.31684
  60        4PX         0.00649  -0.02882  -0.03059   0.00275   0.05226
  61        4PY         0.01172   0.11506  -0.12290  -0.00201   0.15341
  62        4PZ         0.04316  -0.14145  -0.02782   0.01749   0.04247
  63        5PX         0.00789  -0.01527  -0.04507   0.07121   0.03609
  64        5PY         0.00193   0.08988  -0.04784  -0.00506   0.07299
  65        5PZ         0.00255  -0.05785  -0.07791   0.01470   0.07716
  66        6D 0       -0.00224   0.00171   0.00128  -0.00388  -0.00087
  67        6D+1        0.00044  -0.00044  -0.00008  -0.00082  -0.00087
  68        6D-1       -0.00108   0.00515  -0.00311  -0.00312   0.00254
  69        6D+2       -0.00091   0.00651  -0.00248   0.00075   0.00122
  70        6D-2        0.00301  -0.00411  -0.00312   0.00075   0.00213
  71 6   C  1S          0.00296   0.00224  -0.01195  -0.00362   0.00780
  72        2S         -0.00550  -0.00554   0.01783   0.02688  -0.00858
  73        3S         -0.01465  -0.06041   0.22412  -0.13659  -0.18458
  74        4PX        -0.07924   0.09890   0.01355  -0.00974  -0.00018
  75        4PY        -0.00152  -0.12187   0.05601   0.01374  -0.05532
  76        4PZ        -0.02872   0.09225  -0.02965  -0.01211   0.03258
  77        5PX        -0.02488  -0.01090   0.02885  -0.09093  -0.01902
  78        5PY         0.01340  -0.03942   0.06015  -0.05576  -0.06683
  79        5PZ        -0.01362   0.00635  -0.07945  -0.04879   0.07281
  80        6D 0        0.00397  -0.01226   0.00383   0.00083  -0.00514
  81        6D+1        0.00188  -0.00604   0.00052   0.00054  -0.00035
  82        6D-1       -0.00042   0.01347  -0.00353   0.00135   0.00324
  83        6D+2       -0.00503   0.01182   0.00220  -0.00115  -0.00268
  84        6D-2        0.00684  -0.00269  -0.00128  -0.00121   0.00306
  85 7   C  1S         -0.00665   0.00219  -0.00348   0.00010  -0.00603
  86        2S          0.00975  -0.00470   0.00706  -0.01073   0.01210
  87        3S          0.01542  -0.05820  -0.04387   0.13370   0.03285
  88        4PX         0.11638  -0.15047   0.00164   0.00370   0.01157
  89        4PY         0.10448   0.16032   0.01712  -0.00044   0.03167
  90        4PZ         0.00551  -0.10001   0.00670   0.00521   0.01091
  91        5PX         0.07536  -0.18930   0.02977  -0.06862  -0.02174
  92        5PY         0.07767   0.13284   0.02552   0.03316   0.01533
  93        5PZ         0.01711  -0.08822   0.01834   0.04027  -0.00861
  94        6D 0        0.00369   0.00002   0.00100   0.00275  -0.00043
  95        6D+1       -0.00085   0.00007   0.00170   0.00134  -0.00015
  96        6D-1        0.00339   0.00612   0.00076   0.00051   0.00047
  97        6D+2       -0.00295   0.00582   0.00261  -0.00022   0.00109
  98        6D-2        0.00064   0.00683  -0.00085  -0.00093   0.00150
  99 8   C  1S         -0.01028  -0.00349   0.00838  -0.00175  -0.01136
 100        2S          0.02357   0.00874  -0.01945   0.00491   0.02675
 101        3S          0.05327   0.00293  -0.07088  -0.03457   0.07413
 102        4PX         0.03559  -0.00158  -0.01455  -0.00008   0.01671
 103        4PY         0.03614   0.03231  -0.03736  -0.00034   0.03999
 104        4PZ         0.02065   0.00209  -0.00293   0.00432   0.00388
 105        5PX         0.01653   0.02580  -0.03213  -0.00482   0.02976
 106        5PY         0.03323   0.00133  -0.03517  -0.02113   0.03095
 107        5PZ         0.01139   0.01532  -0.00648  -0.01480   0.01012
 108        6D 0        0.00071   0.00022  -0.00060  -0.00100   0.00096
 109        6D+1       -0.00085   0.00245  -0.00072   0.00026   0.00073
 110        6D-1        0.00073   0.00375  -0.00268  -0.00089   0.00322
 111        6D+2       -0.00361   0.00698  -0.00197  -0.00027   0.00247
 112        6D-2        0.00045   0.00055  -0.00026   0.00003   0.00034
 113 9   C  1S          0.00227   0.01262   0.00254   0.00148   0.00385
 114        2S         -0.00506  -0.02609  -0.00782  -0.00694  -0.00722
 115        3S         -0.02161  -0.04221   0.00395  -0.00817  -0.01751
 116        4PX         0.02962   0.00320   0.00770  -0.00346   0.00417
 117        4PY        -0.03838  -0.14794  -0.01054  -0.00381  -0.01394
 118        4PZ         0.00086   0.02759   0.00368   0.00181   0.00728
 119        5PX        -0.00522   0.00119  -0.00529   0.00938   0.01000
 120        5PY         0.00712  -0.00396   0.01083  -0.01474  -0.01198
 121        5PZ         0.01114  -0.04420   0.00833   0.00491   0.00591
 122        6D 0       -0.00074  -0.00184  -0.00045  -0.00035  -0.00106
 123        6D+1       -0.00524  -0.00241  -0.00119  -0.00051  -0.00076
 124        6D-1        0.00812   0.03558   0.00032  -0.00164   0.00163
 125        6D+2       -0.00349  -0.00067  -0.00089  -0.00077  -0.00075
 126        6D-2        0.00184  -0.00125   0.00019   0.00075   0.00036
 127 10  C  1S         -0.01083  -0.03451  -0.00160   0.00109  -0.00334
 128        2S          0.02567   0.08250   0.00239  -0.00339   0.00805
 129        3S          0.07826   0.17654   0.02386  -0.01296   0.01748
 130        4PX        -0.00966  -0.02252  -0.00076   0.00075  -0.00398
 131        4PY         0.04761   0.14576   0.00938  -0.00095   0.00936
 132        4PZ         0.02593   0.09378   0.00194  -0.00258   0.00378
 133        5PX        -0.00392  -0.03098   0.00085  -0.00309  -0.00385
 134        5PY         0.03768   0.09539   0.01347  -0.00094   0.00514
 135        5PZ         0.01599   0.04789   0.00417  -0.00355   0.00175
 136        6D 0        0.00011  -0.00047   0.00053   0.00053   0.00052
 137        6D+1       -0.00024  -0.00071  -0.00006  -0.00006  -0.00006
 138        6D-1        0.00134   0.00376   0.00044  -0.00001   0.00020
 139        6D+2       -0.00071   0.00057  -0.00004   0.00013   0.00011
 140        6D-2        0.00088  -0.00172   0.00039  -0.00021   0.00008
 141 11  H  1S         -0.03349   0.05474   0.01043  -0.02530  -0.00746
 142        2S         -0.03160   0.06803   0.04507  -0.05265  -0.05063
 143        3PX         0.00155  -0.00212  -0.00140   0.00084   0.00239
 144        3PY         0.00038   0.00347  -0.00552  -0.00033   0.00627
 145        3PZ         0.00023  -0.00331  -0.00022   0.00020   0.00080
 146 12  H  1S         -0.00405   0.04199  -0.01685   0.00734   0.00982
 147        2S         -0.01705   0.07976   0.06696   0.07061  -0.09094
 148        3PX        -0.00049   0.00074  -0.00118   0.00007   0.00215
 149        3PY         0.00049   0.00236  -0.00095   0.00206   0.00223
 150        3PZ         0.00120  -0.00331  -0.00074   0.00163   0.00185
 151 13  H  1S          0.03506   0.00921  -0.00297   0.00675  -0.00080
 152        2S          0.00894   0.02886   0.00240   0.04541  -0.00227
 153        3PX         0.00059  -0.00356  -0.00050   0.00044   0.00091
 154        3PY         0.00248   0.00510  -0.00047   0.00034   0.00116
 155        3PZ         0.00205  -0.00285  -0.00014   0.00016   0.00093
 156 14  H  1S          0.01779   0.00554  -0.01069  -0.00728   0.00941
 157        2S          0.00729   0.01467  -0.01338  -0.05002   0.00738
 158        3PX         0.00332  -0.00851   0.00051  -0.00144  -0.00080
 159        3PY        -0.00420   0.00812   0.00037  -0.00442   0.00025
 160        3PZ         0.00222  -0.00779   0.00100   0.00022  -0.00033
 161 15  H  1S         -0.02586   0.02686  -0.00552   0.00116   0.00723
 162        2S         -0.03994   0.05479  -0.01513  -0.00998   0.01236
 163        3PX         0.00043  -0.00014  -0.00091  -0.00060   0.00114
 164        3PY         0.00107   0.00158  -0.00108  -0.00011   0.00107
 165        3PZ         0.00020   0.00049  -0.00025  -0.00002   0.00029
 166 16  H  1S          0.00410  -0.03360   0.02302   0.00708  -0.02434
 167        2S          0.00763  -0.05654   0.03396   0.00705  -0.04509
 168        3PX         0.00124  -0.00032  -0.00032   0.00010   0.00045
 169        3PY         0.00154   0.00046  -0.00080   0.00005   0.00140
 170        3PZ         0.00080  -0.00023  -0.00061  -0.00003   0.00048
 171 17  H  1S          0.00215  -0.00335  -0.00677  -0.00484   0.01038
 172        2S         -0.00366   0.00077   0.00863  -0.01128  -0.00966
 173        3PX         0.00107  -0.00024  -0.00019   0.00036   0.00005
 174        3PY         0.00083   0.00177  -0.00128   0.00030   0.00130
 175        3PZ         0.00105  -0.00068  -0.00051   0.00046   0.00069
 176 18  H  1S         -0.00537  -0.02376  -0.00246  -0.00239  -0.00061
 177        2S         -0.01484  -0.06546  -0.00126   0.00241  -0.00787
 178        3PX        -0.00083  -0.00170  -0.00029   0.00013   0.00009
 179        3PY         0.00107   0.00420   0.00019   0.00008   0.00052
 180        3PZ         0.00101   0.00315   0.00007   0.00008   0.00020
 181 19  H  1S         -0.00987  -0.00766  -0.00283  -0.00034  -0.00329
 182        2S         -0.02808  -0.03791  -0.00744   0.00598  -0.00735
 183        3PX         0.00009   0.00074  -0.00010   0.00006   0.00004
 184        3PY         0.00125   0.00455   0.00034  -0.00011   0.00034
 185        3PZ         0.00090   0.00278   0.00003  -0.00011   0.00017
 186 20  H  1S         -0.00463  -0.02714   0.00160   0.00258   0.00275
 187        2S         -0.01623  -0.05750  -0.00039   0.00137  -0.00402
 188        3PX        -0.00026  -0.00068   0.00001   0.00019  -0.00007
 189        3PY         0.00168   0.00505  -0.00001  -0.00021   0.00019
 190        3PZ         0.00081   0.00150   0.00023  -0.00018   0.00014
 191 21  O  1S          0.00322   0.00219   0.00451  -0.00135  -0.01110
 192        2S          0.00663   0.00460   0.00890  -0.00384  -0.02431
 193        3S          0.00246  -0.00347   0.02021  -0.00192  -0.05541
 194        4PX        -0.10682   0.02509   0.23654  -0.22987   0.21201
 195        4PY         0.02853   0.03562   0.15069   0.00596   0.11515
 196        4PZ         0.02308  -0.04785   0.31617   0.17164   0.33950
 197        5PX        -0.07267   0.01705   0.17675  -0.18063   0.14587
 198        5PY         0.02098   0.02569   0.10858   0.00374   0.09761
 199        5PZ         0.01601  -0.03247   0.23490   0.14180   0.24221
 200        6D 0        0.00171  -0.00050   0.00370   0.00323   0.00462
 201        6D+1       -0.00112   0.00001   0.00338  -0.00067   0.00567
 202        6D-1       -0.00097   0.00202  -0.00667  -0.00378  -0.00523
 203        6D+2       -0.00085   0.00139   0.00483  -0.00190   0.00523
 204        6D-2        0.00452  -0.00104  -0.00494   0.00476  -0.00306
 205 22  C  1S          0.00303  -0.00384   0.02915  -0.00330   0.03497
 206        2S         -0.00342   0.00862  -0.06945   0.00980  -0.08063
 207        3S         -0.00762   0.04435  -0.24662   0.01337  -0.22624
 208        4PX        -0.00829  -0.02573   0.08168  -0.01315   0.08748
 209        4PY         0.03384   0.00036  -0.03888  -0.00231  -0.02784
 210        4PZ        -0.01731  -0.01502   0.11185  -0.01024   0.12567
 211        5PX         0.01197  -0.01608   0.05525   0.04622   0.06238
 212        5PY         0.00764  -0.01086   0.01618   0.02401   0.01730
 213        5PZ        -0.01444  -0.01627   0.08577  -0.04522   0.08073
 214        6D 0       -0.00081   0.00177  -0.00317   0.00282  -0.00156
 215        6D+1       -0.00066  -0.00019  -0.00011  -0.00113  -0.00022
 216        6D-1        0.00255   0.00061  -0.00270   0.00078  -0.00101
 217        6D+2        0.00247  -0.00006  -0.00432  -0.00162  -0.00399
 218        6D-2        0.00098  -0.00019  -0.00229  -0.00286  -0.00168
 219 23  C  1S         -0.00675  -0.00388   0.00371  -0.00110  -0.00600
 220        2S          0.01415   0.01024  -0.00434   0.00398   0.01266
 221        3S          0.05066  -0.01368  -0.16466   0.07454  -0.13660
 222        4PX        -0.04803   0.03356  -0.04551   0.06387  -0.02877
 223        4PY        -0.04974  -0.02548  -0.01974  -0.00146  -0.03064
 224        4PZ         0.02984  -0.00781  -0.05637  -0.04046  -0.07037
 225        5PX        -0.04194   0.00775   0.07817  -0.03661   0.02353
 226        5PY        -0.01617   0.01753   0.09265  -0.03573   0.15444
 227        5PZ         0.02035  -0.02652   0.11212  -0.00908   0.04299
 228        6D 0        0.00091   0.00363  -0.01310   0.00553  -0.01518
 229        6D+1        0.00113   0.00169  -0.01273   0.00003  -0.01351
 230        6D-1        0.00494  -0.00077   0.01828   0.02107   0.01758
 231        6D+2        0.00504   0.00318  -0.01647   0.00387  -0.01912
 232        6D-2       -0.00433   0.00384   0.01410  -0.02392   0.00802
 233 24  C  1S          0.01770   0.00645  -0.06044  -0.00640   0.00103
 234        2S         -0.03760  -0.01252   0.14043   0.02554  -0.00224
 235        3S         -0.05042   0.01315   0.48255  -0.13430  -0.05072
 236        4PX        -0.00680  -0.04740  -0.05689   0.26912   0.11802
 237        4PY         0.06920   0.05556   0.11661   0.05425   0.08578
 238        4PZ        -0.01746  -0.03675  -0.01281  -0.28459   0.10226
 239        5PX         0.00299   0.02625  -0.06860   0.32632   0.25486
 240        5PY         0.03022  -0.00708   0.18316  -0.02131   0.15994
 241        5PZ        -0.02697   0.02896  -0.01063  -0.27595   0.25373
 242        6D 0        0.00116  -0.00151   0.00058   0.00273  -0.00203
 243        6D+1       -0.00109  -0.00062  -0.00123   0.00217  -0.00108
 244        6D-1        0.00443   0.00169   0.00203  -0.00109   0.00195
 245        6D+2        0.00026   0.00102   0.00174  -0.00161  -0.00182
 246        6D-2        0.00162   0.00173   0.00103   0.00162   0.00215
 247 25  C  1S          0.00163  -0.00030   0.01667  -0.00182   0.00119
 248        2S         -0.00271   0.00017  -0.03824  -0.00637  -0.00551
 249        3S         -0.04838  -0.01565  -0.03441  -0.03281   0.00731
 250        4PX        -0.01410   0.02467   0.03574  -0.02363  -0.00834
 251        4PY        -0.09973  -0.06658  -0.06740  -0.01533  -0.00938
 252        4PZ        -0.02650  -0.00996   0.02460   0.06223  -0.01020
 253        5PX        -0.01704   0.06757   0.03553   0.01959  -0.02628
 254        5PY        -0.04597  -0.12689  -0.03615  -0.00639  -0.04745
 255        5PZ        -0.01721  -0.00875   0.00800   0.03641  -0.03866
 256        6D 0       -0.00010   0.00334  -0.00093   0.01342  -0.00108
 257        6D+1        0.00337   0.00229  -0.00048   0.00187  -0.00083
 258        6D-1        0.00314   0.00165   0.00061  -0.01094   0.00236
 259        6D+2       -0.00176   0.00678   0.00062  -0.01012  -0.00425
 260        6D-2        0.01118   0.00409  -0.00014   0.00899   0.00247
 261 26  C  1S          0.00378  -0.00758  -0.00342   0.02929   0.00579
 262        2S         -0.00705   0.01451   0.00868  -0.07573  -0.01557
 263        3S          0.00274  -0.00221   0.02673  -0.11203   0.01217
 264        4PX         0.04956  -0.03389  -0.01897   0.09320   0.01911
 265        4PY         0.25917   0.01407   0.00314  -0.02126  -0.00786
 266        4PZ         0.09274   0.00907  -0.00278  -0.01670  -0.00478
 267        5PX         0.02468   0.00557   0.01678   0.07592   0.02363
 268        5PY         0.19594   0.02566  -0.00303  -0.01322  -0.01295
[...]
 ,0.00000414,-0.00001400,-0.00048310,0.00020672,0.00116679,-0.03056198,
 0.50261633,-0.00000783,-0.00007671,0.00008607,-0.00003600,-0.00004557,
 -0.00002080,0.00017476,0.00013253,-0.00025712,0.00004369,0.00004133,-0
 .00015714,-0.00000556,0.00000728,-0.00001355,-0.00007473,0.00006842,0.
 00000722,-0.00012907,-0.00017462,0.00020844,-0.00002131,-0.00002647,0.
 00002770,0.00013713,-0.00022714,0.00013035,-0.00005577,0.00003024,-0.0
 0010788,-0.00000926,-0.00000168,-0.00000288,0.00000112,-0.00000061,0.0
 0000322,-0.00009089,-0.00002662,0.00001216,0.00001627,0.00003926,-0.00
 003706,-0.00001756,0.00000328,-0.00000048,-0.00000005,0.00000804,0.000
 00651,0.00000054,-0.00000488,-0.00000386,0.00000786,-0.00000372,0.0000
 0585,-0.00008394,-0.00001214,-0.00002928,0.00000232,0.00000775,-0.0000
 1110,-0.00000066,-0.00011791,0.00001611,0.00003500,0.00003732,-0.00002
 586,0.00009648,0.00014826,0.00002306,0.00018517,-0.00022493,-0.0002742
 0,-0.00178367,0.00165472,0.00055586,0.00121247,0.01400476,0.01156459,0
 .03587546,-0.38123867,-0.27648762,0.00207969,-0.02663394,-0.01234844,0
 .00472132,0.00120798,-0.00184648,-0.00011936,0.00089254,-0.00027740,0.
 00354700,0.00244838,0.00113039,-0.00016312,0.00021724,-0.00017118,0.00
 001786,-0.00002044,0.00001800,0.00002391,-0.00005711,0.00004801,-0.000
 21507,-0.00048907,-0.00036407,-0.04239828,0.38744889,0.27870163,-0.000
 01447,0.00001728,-0.00001816,-0.00000530,-0.00003641,-0.00000472,-0.00
 006997,-0.00003417,-0.00003008,-0.00004290,-0.00008779,0.00002935,-0.0
 0000150,0.00000262,0.00001574,-0.00000983,0.00005677,-0.00001764,-0.00
 006509,-0.00003113,0.00005084,-0.00000660,-0.00001260,0.00001844,0.000
 06856,0.00002384,0.00007009,-0.00000616,0.00002038,-0.00003684,-0.0000
 0273,0.,-0.00000495,-0.00000105,-0.00000565,-0.00000127,-0.00004527,0.
 00001743,0.00003260,-0.00000864,0.00002992,-0.00001661,-0.00000915,0.0
 0000087,-0.00000135,0.00000359,0.00000035,0.00000119,-0.00000277,-0.00
 000169,-0.00000226,-0.00000339,-0.00000473,-0.00000490,-0.00000106,0.0
 0001167,0.00000540,-0.00001159,-0.00000753,0.00001250,-0.00011239,0.00
 005405,-0.00002466,-0.00002970,-0.00000701,0.00001344,0.00031219,0.000
 00679,0.00005567,-0.00007214,0.00016140,-0.00045151,0.00005576,0.00040
 242,0.00030607,0.00588626,-0.00238172,0.00527678,-0.00105894,-0.000094
 58,0.00002734,0.00458833,-0.00333646,0.00288191,0.00592193,-0.01184281
 ,-0.00630881,0.01573655,0.06693502,0.06080947,0.00590152,0.01260747,0.
 00992891,-0.00000915,-0.00001713,-0.00000690,-0.00000296,0.00000317,0.
 00000137,-0.00001612,-0.00001693,-0.00000430,-0.00018526,-0.00002295,0
 .00015377,-0.00081109,0.00022021,-0.00037979,-0.02879293,0.00001120,-0
 .00005833,0.00000983,0.00000357,-0.00001741,0.00000221,0.00000036,-0.0
 0000149,0.00000213,-0.00000098,0.00004501,-0.00002035,-0.00000440,-0.0
 0000072,0.00000844,0.00000518,0.00000377,-0.00000207,0.00006375,-0.000
 00395,-0.00001198,0.00000026,-0.00000450,0.00000183,0.00000022,0.00001
 736,-0.00001445,0.00000100,-0.00000331,0.00001210,-0.00000780,0.000003
 51,0.00000162,0.00000076,-0.00000395,-0.00000062,-0.00001829,-0.000001
 77,-0.00002475,-0.00000630,0.00001122,-0.00000689,-0.00000091,0.000000
 62,0.00000126,0.00000182,-0.00000208,-0.00000175,-0.00000144,0.0000030
 5,-0.00000108,0.00000071,0.00000174,0.00000138,-0.00000098,-0.00000606
 ,-0.00000300,0.00000352,0.00000387,-0.00000667,0.00001616,-0.00003650,
 0.00000588,-0.00000259,0.00000169,0.00000671,-0.00000796,0.00002457,-0
 .00001275,0.00001496,-0.00004740,-0.00004606,-0.00003309,0.00046685,0.
 00026145,-0.00216004,0.00143773,0.00156654,-0.00022663,0.00020369,0.00
 115997,-0.00332226,-0.00408862,0.00274564,0.00504565,-0.01651389,-0.02
 118753,0.06424292,-0.49267318,-0.37449755,-0.00287566,0.01085813,0.008
 17005,0.00000422,-0.00000819,0.00000233,0.00000186,-0.00000594,0.00000
 307,0.00000309,0.00000370,0.00000167,-0.00005399,-0.00000715,0.0001121
 6,0.00015900,-0.00005513,0.00004169,-0.06387765,0.49946643,-0.00002009
 ,0.00021183,-0.00005229,0.00001063,0.00003449,-0.00001725,0.00002780,-
 0.00004378,0.00002853,-0.00010802,-0.00020866,0.00008928,0.00001011,-0
 .00000415,-0.00000929,-0.00000811,-0.00002615,0.00003907,-0.00015716,-
 0.00001527,-0.00005306,0.00001400,0.00001649,-0.00002510,-0.00005496,0
 .00007484,-0.00003291,0.00001038,-0.00002204,0.00001803,0.00001140,-0.
 00000241,0.00000251,0.00000058,0.00000715,-0.00000082,0.00000124,0.000
 01831,0.00005996,0.00000130,-0.00001723,0.00003827,0.00001105,-0.00000
 008,-0.00000166,-0.00000365,-0.00000067,0.00000227,-0.00000214,-0.0000
 0234,0.00000357,0.00000123,-0.00000045,0.00000053,0.00000462,0.0000000
 9,0.00000383,-0.00000350,0.00000054,-0.00000143,-0.00017028,0.00015885
 ,-0.00005519,-0.00002026,-0.00002107,0.00000647,0.00028121,-0.00006346
 ,0.00010968,-0.00009381,0.00015322,0.00003099,-0.00028434,-0.00160768,
 -0.00021870,0.00576881,0.00078011,-0.00314763,0.00010643,0.00118829,-0
 .00078364,0.00303508,0.00253123,0.00102981,0.00136108,0.01563189,0.009
 74902,0.05913804,-0.37871830,-0.26996671,0.00297480,-0.02601508,-0.010
 50620,0.00002007,0.00001831,-0.00000542,-0.00000806,0.00000911,-0.0000
 0426,-0.00001806,-0.00001098,-0.00000907,0.00027454,0.00007977,-0.0004
 0992,-0.00037454,0.00004545,-0.00018528,-0.06679876,0.38395353,0.27217
 567,-0.00009262,-0.00008469,0.00007655,-0.00005599,-0.00003132,-0.0002
 0101,-0.00009671,-0.00019959,-0.00002579,0.00031529,0.00039284,0.00004
 290,-0.00005676,0.00004492,-0.00004053,-0.00022547,-0.00003775,0.00000
 789,0.00000422,-0.00011124,0.00063576,-0.00001144,-0.00001159,0.000058
 03,0.00006948,0.00021421,-0.00003360,0.00003355,-0.00000128,-0.0000065
 9,-0.00015445,-0.00006428,0.00000419,0.00000272,-0.00003326,-0.0000411
 0,-0.00048448,0.00007352,-0.00001389,0.00007628,-0.00004457,0.00000958
 ,-0.00001916,0.00000185,-0.00001340,-0.00000207,-0.00000083,-0.0000007
 7,-0.00001749,-0.00000312,-0.00000399,-0.00000294,-0.00001338,-0.00000
 421,0.00000202,0.00000318,0.00000411,-0.00003442,0.00000207,0.00000038
 ,-0.00031946,0.00028423,-0.00007934,-0.00009419,-0.00006832,0.00006054
 ,0.00045797,-0.00020447,0.00006535,-0.00052888,0.00004316,0.00038570,-
 0.00309929,0.00040799,-0.00102458,0.00873798,0.00490498,-0.00118919,0.
 00607369,-0.00052162,0.00339667,-0.00075462,0.00070222,-0.00032308,0.0
 0653210,-0.00079650,0.00501120,0.00259420,-0.01388605,0.00373656,-0.06
 057194,-0.23315881,0.08478681,0.00001318,0.00000682,-0.00004435,-0.000
 00610,0.00003778,-0.00000134,-0.00005681,-0.00005465,-0.00004093,0.000
 04299,0.00013433,-0.00036698,-0.00011226,0.00042707,-0.00023206,-0.005
 09216,0.00154570,-0.00329761,0.04786274,0.00008991,-0.00043630,0.00006
 684,-0.00013976,0.00000469,0.00013781,0.00009043,0.00023500,-0.0000001
 7,0.00001798,0.00055125,-0.00013219,0.00001814,0.00000639,0.00001618,0
 .00018231,0.00009404,-0.00004239,0.00007719,0.00003168,-0.00026559,-0.
 00000606,-0.00001141,-0.00001129,-0.00004671,-0.00026711,0.00007983,-0
 .00003563,0.00001806,-0.00000422,-0.00000932,0.00002833,-0.00001480,-0
 .00000229,-0.00000496,0.00001409,0.00042312,-0.00010583,-0.00000332,0.
 00004478,-0.00003530,-0.00004857,0.00000081,0.00000289,0.00001029,0.00
 000343,0.00000065,-0.00000054,0.00001137,0.00000360,-0.00000647,0.0000
 0146,0.00001213,0.00000464,-0.00000630,-0.00000323,-0.00000693,0.00003
 002,0.00000020,0.00000301,0.00014674,-0.00016427,-0.00000287,0.0000342
 2,-0.00001030,0.00000737,-0.00039454,0.00016563,-0.00004578,-0.0002549
 8,0.00077200,0.00061167,0.00000006,-0.00024101,0.00227095,-0.00866550,
 -0.01492969,0.00996112,-0.00052283,-0.00298003,-0.00380860,0.00073120,
 0.00037269,-0.00098072,-0.00086387,0.00189646,-0.00075757,0.00252947,0
 .00622762,-0.00598776,-0.23475000,-0.63162570,0.20845277,-0.00000696,-
 0.00001812,0.00003214,0.00000799,0.00000133,-0.00000063,0.00000207,-0.
 00000579,-0.00001520,0.00001894,-0.00001953,0.00013364,-0.00049992,-0.
 00079096,0.00060137,0.00086228,0.00028616,0.00094322,0.24046822,0.6407
 4365,-0.00005644,-0.00034624,0.00015849,-0.00018585,0.00013380,-0.0000
 9526,0.00002199,0.00019595,-0.00006082,0.00057525,0.00093430,-0.000808
 63,0.00003100,-0.00003109,-0.00000623,-0.00001897,-0.00015881,0.000114
 34,0.00013228,0.00010529,0.00000347,-0.00003127,0.00004479,0.00000397,
 0.00002784,-0.00030443,0.00014601,-0.00001206,0.00006364,-0.00006475,0
 .00004198,-0.00001042,-0.00003957,-0.00004629,0.00003640,0.00003087,-0
 .00000204,-0.00012549,0.00000320,0.00018850,-0.00016208,-0.00004809,0.
 00000506,-0.00000322,-0.00000036,-0.00002457,0.00001862,0.00000448,-0.
 00000160,-0.00001410,-0.00000068,-0.00000657,-0.00000992,-0.00000523,-
 0.00002141,0.00002398,-0.00000539,-0.00001929,-0.00000545,0.00002604,0
 .00050236,-0.00029725,0.00026857,0.00015799,0.00006354,-0.00001475,-0.
 00127597,-0.00000853,-0.00055824,0.00071757,0.00008690,0.00068776,-0.0
 0138130,0.00060747,-0.00050308,-0.00741357,-0.02181378,0.01239574,0.00
 305033,-0.00461416,-0.00171052,-0.00013851,-0.00053972,-0.00093555,0.0
 0472824,-0.00100718,-0.00234469,0.01156653,0.02952652,-0.00446429,0.08
 423825,0.20855029,-0.05802561,-0.00002051,0.00005971,0.00002683,0.0000
 0667,0.00003495,0.00000100,0.00003133,-0.00000960,0.00000160,-0.000244
 25,0.00014918,0.00008937,-0.00056244,-0.00114136,0.00053548,-0.0032916
 9,-0.00028661,0.00084776,-0.09162494,-0.21078043,0.05567342,-0.0000232
 9,-0.00041710,0.00017957,-0.00011315,0.00001854,0.00015998,-0.00016053
 ,0.00014912,-0.00000348,0.00030346,0.00047719,-0.00017346,-0.00005156,
 0.00000731,0.00001785,-0.00002067,0.00008181,-0.00025747,-0.00013578,-
 0.00013018,0.00044146,-0.00006773,-0.00004220,0.00010374,0.00028314,-0
 .00024969,0.00011569,-0.00009271,0.00008959,-0.00008319,0.00000806,0.0
 0000815,-0.00001934,0.00000240,-0.00001496,0.00001898,0.00007151,0.000
 01306,-0.00001589,0.00005600,-0.00002887,-0.00010509,-0.00003824,-0.00
 000600,0.00000794,0.00000827,0.00001592,-0.00000695,0.00002396,0.00000
 058,-0.00001006,-0.00000629,-0.00000360,0.00001092,0.00002585,-0.00001
 763,0.00000028,0.00002605,-0.00000977,0.00000875,0.00031518,-0.0002660
 8,0.00017343,0.00004002,0.00010339,0.00007617,-0.00050564,0.00012494,-
 0.00018306,-0.00010016,0.00003287,0.00043063,-0.00069163,0.00020373,-0
 .00042290,-0.00054672,0.00086936,-0.00018026,0.00444217,0.00035646,0.0
 0189956,-0.00062265,-0.00178362,0.01286250,-0.04786169,-0.00728937,0.0
 5125097,-0.00432421,-0.00283790,0.02070053,0.00411910,-0.00342889,0.00
 025676,-0.00001239,-0.00007144,-0.00005023,0.00001398,-0.00002737,0.00
 003986,-0.00002139,-0.00001071,-0.00002634,-0.00000997,-0.00008658,0.0
 0002337,-0.00000728,-0.00037543,0.00054423,-0.00256809,0.00134990,-0.0
 0175716,-0.00016143,0.00028112,0.00070904,0.05132782,-0.00001937,-0.00
 003528,0.00004189,-0.00003067,0.00002895,0.00004344,-0.00000259,0.0001
 1566,-0.00000364,0.00006641,0.00003977,-0.00003390,-0.00000850,-0.0000
 0315,-0.00000471,0.00001154,-0.00000815,-0.00004397,0.00002405,0.00000
 547,0.00000533,-0.00001373,-0.00000475,0.00001491,0.00006480,-0.000163
 15,0.00003192,-0.00002403,0.00002786,-0.00001936,0.00001464,0.00000337
 ,-0.00000533,-0.00000161,0.00000169,0.00000515,0.00001640,-0.00000596,
 -0.00000714,0.00001599,-0.00001734,-0.00002728,-0.00000583,-0.00000174
 ,0.00000139,-0.00000121,0.00000602,0.00000054,0.00000703,-0.00000233,-
 0.00000068,-0.00000296,-0.00000135,0.00000374,-0.00000094,-0.00000643,
 -0.00000015,0.00001085,-0.00000103,0.00000327,0.00005132,-0.00000507,0
 .00004773,0.00004023,0.00004987,0.00004167,-0.00010660,-0.00002485,-0.
 00005920,0.00001605,0.00009017,0.00006069,0.00017313,0.00021308,0.0000
 2925,0.00044722,0.00212875,0.00050243,-0.00214515,-0.00347510,0.000305
 28,0.00989613,0.00588918,-0.02257657,-0.00757933,-0.04205857,0.0094224
 2,-0.01424304,-0.00015965,0.03011335,-0.00068237,-0.00430766,-0.002843
 54,-0.00001031,-0.00002600,-0.00001329,0.00000455,-0.00001345,0.000015
 50,-0.00000985,-0.00001108,-0.00001202,-0.00005467,-0.00001252,0.00011
 340,0.00027195,0.00025636,-0.00066101,0.00091622,0.00153763,0.00037621
 ,-0.00051259,0.00026100,0.00094287,0.01249510,0.03846655,0.00009537,0.
 00089985,-0.00037892,0.00023871,-0.00002810,-0.00034277,0.00045231,-0.
 00025499,0.00002919,-0.00070555,-0.00094601,0.00027344,0.00013347,-0.0
 0000388,-0.00002706,-0.00005368,-0.00016483,0.00048041,0.00014824,0.00
 007459,-0.00066019,0.00013865,0.00007501,-0.00019255,-0.00066703,0.000
 48274,-0.00035768,0.00021534,-0.00020956,0.00024473,-0.00001670,-0.000
 01908,0.00003717,-0.00000457,0.00002630,-0.00004313,-0.00018048,-0.000
 02824,0.00001567,-0.00010379,0.00004758,0.00022395,0.00007131,0.000013
 69,-0.00001970,-0.00001763,-0.00003648,0.00001215,-0.00004898,0.000002
 12,0.00002119,0.00001363,0.00001126,-0.00002432,-0.00005218,0.00002276
 ,-0.00001228,-0.00004832,0.00003347,-0.00003150,-0.00056903,0.00053219
 ,-0.00037351,-0.00004321,-0.00017105,-0.00017992,0.00081090,-0.0002887
 0,0.00043292,0.00051125,0.00006037,-0.00069129,-0.00018407,0.00005679,
 0.00042993,-0.00031911,0.00018713,-0.00058647,0.00013666,-0.00589391,0
 .00183842,0.01928132,0.00344089,-0.03740438,0.05080514,0.00964114,-0.1
 3842948,0.01529086,0.00387458,-0.02796396,0.00158961,0.00354326,0.0030
 1123,0.00002831,0.00013848,0.00013683,-0.00003101,0.00005894,-0.000085
 45,0.00006587,0.00000843,0.00007030,0.00003573,0.00007031,-0.00014450,
 0.00083235,0.00078567,-0.00140002,-0.00200636,-0.00085345,0.00049005,0
 .00064342,-0.00053741,-0.00118397,-0.08481287,-0.01625642,0.20184114,-
 0.00001357,-0.00010350,0.00002632,-0.00001784,0.00002972,-0.00001924,-
 0.00000408,0.00012296,-0.00006386,0.00009951,0.00015145,-0.00001224,-0
 .00000637,0.00000025,-0.00002622,-0.00004002,-0.00001627,-0.00000813,0
 .00006638,-0.00002913,0.00012323,-0.00001026,-0.00000470,0.00001514,0.
 00004392,-0.00020998,0.00008996,-0.00000868,0.00001974,-0.00002801,-0.
 00000518,-0.00000076,-0.00000005,-0.00000369,0.00000674,0.00000386,-0.
 00000627,-0.00002622,-0.00003719,0.00002229,-0.00002262,-0.00000956,-0
 .00000788,0.00000216,-0.00000288,-0.00000666,0.00000650,0.00000662,0.0
 0000240,-0.00000655,0.00000059,-0.00000190,0.00000154,-0.00000561,-0.0
 0003466,0.00000471,-0.00000701,0.00000520,0.00000251,0.00000437,0.0000
 2505,-0.00004217,0.00002734,0.00000395,-0.00001955,0.00005488,-0.00008
 093,0.00006852,-0.00008522,-0.00013681,-0.00014148,0.00037722,-0.00015
 027,-0.00026368,-0.00021453,0.00605027,-0.00064481,0.00511479,0.002460
 22,-0.01353927,0.00406891,-0.05870699,-0.23502539,0.08650365,0.0063866
 9,0.00615108,0.00166061,0.00542333,-0.00043698,0.00284306,-0.00087068,
 0.00043702,-0.00069567,-0.00001388,-0.00000593,-0.00004840,0.00001006,
 -0.00000934,0.00000389,-0.00000910,0.00002508,-0.00001075,0.00001238,-
 0.00002024,-0.00002444,-0.00478425,0.00173320,-0.00289828,0.00058370,0
 .00012514,0.00011609,-0.00076725,0.00013142,-0.00035268,-0.00292380,0.
 00091174,-0.00167387,0.04741566,-0.00000326,-0.00001245,0.00000388,-0.
 00000092,-0.00000993,0.00000814,-0.00003815,-0.00004354,-0.00000204,0.
 00001701,0.00000312,0.00001339,-0.00000162,0.00000159,0.00000430,0.000
 00561,0.00001184,-0.00002116,-0.00000523,-0.00000261,0.00001227,-0.000
 00272,-0.00000303,0.00000519,0.00005355,0.00004365,0.00001812,-0.00000
 546,0.00000078,-0.00001480,0.00000044,0.00000014,-0.00000177,0.0000013
 9,-0.00000220,0.00000024,-0.00000188,-0.00000015,0.00000150,-0.0000014
 2,0.00000718,-0.00000585,-0.00000206,-0.00000051,0.00000067,0.00000216
 ,0.00000052,-0.00000065,0.00000094,0.00000007,-0.00000083,0.00000099,0
 .00000035,-0.00000079,0.00000069,0.00000324,0.00000370,-0.00000219,-0.
 00000319,0.00000129,0.00003217,-0.00001332,0.00000802,0.00000918,0.000
 02695,-0.00000714,-0.00004721,-0.00001445,-0.00000679,0.00002636,0.000
 00627,-0.00004073,0.00015625,0.00010144,-0.00018566,-0.00086516,0.0018
 9069,-0.00114637,0.00172248,0.00600459,-0.00482561,-0.23299524,-0.6184
 6027,0.21383955,-0.01046045,-0.01585893,0.01295706,0.00013209,-0.00240
 578,-0.00472704,0.00059005,0.00061163,-0.00049859,-0.00000617,-0.00000
 536,-0.00000726,-0.00000030,0.00000237,-0.00000084,0.00000694,-0.00001
 466,0.00000470,-0.00001142,-0.00000669,-0.00000023,0.00102269,0.000202
 60,0.00100195,-0.00053126,-0.00083717,0.00054688,0.00014481,-0.0000658
 9,0.00009169,0.00041924,0.00122325,0.00160461,0.24063710,0.62761789,0.
 00001513,0.00013287,-0.00003194,0.00001500,-0.00001091,-0.00003084,-0.
 00008182,-0.00020591,-0.00001368,-0.00012907,-0.00007787,-0.00004440,0
 .00000034,-0.00001878,-0.00000078,0.00005280,-0.00002735,0.00002809,0.
 00003156,-0.00005570,-0.00010855,0.00002012,0.00001312,-0.00003183,-0.
 00000678,0.00027241,0.00003224,0.00000696,-0.00003395,0.00000081,0.000
 00260,-0.00000282,0.00000296,0.00000132,0.00000143,-0.00000214,0.00000
 127,-0.00001889,-0.00000710,-0.00000970,0.00001175,0.00003333,0.000013
 15,0.00000129,0.00000085,0.00000065,-0.00000318,0.00000051,-0.00000501
 ,0.00000006,0.00000130,0.00000380,0.00000041,-0.00000101,0.00000553,0.
 00000549,0.00000906,-0.00000958,-0.00000373,-0.00000389,-0.00013367,0.
 00003205,-0.00004829,-0.00009208,-0.00006949,0.00000406,0.00026772,0.0
 0006385,0.00006892,0.00010573,0.00001635,-0.00018040,0.00014236,0.0011
 5397,0.00024819,0.00535078,-0.00061139,-0.00404287,0.01102791,0.029812
 06,-0.00260837,0.08826814,0.21829069,-0.06649844,-0.00679431,-0.023995
 36,0.00887626,0.00250898,-0.00459596,-0.00137078,-0.00002979,-0.000715
 08,-0.00159865,0.00006468,0.00000814,0.00001034,-0.00000201,-0.0000012
 9,-0.00001029,-0.00001000,0.00003302,-0.00000316,-0.00004274,-0.000024
 76,0.00005541,-0.00322311,-0.00020189,0.00094110,-0.00027932,-0.001093
 96,0.00076053,-0.00031636,0.00010649,-0.00014269,-0.00192444,0.0004458
 4,0.00094435,-0.09481671,-0.21863300,0.06476179\\-0.01244963,0.0425410
 2,-0.02229304,0.06838451,0.00027721,0.00558201,0.00767678,0.01265614,0
 .00782230,-0.00238077,-0.07525888,0.03667750,0.10159910,0.14269694,0.0
 0388827,0.02128083,0.00414095,0.01887112,0.02577913,0.08981031,0.11712
 003,0.14381593,0.00719555,0.02271132,0.00494427,-0.01076691,0.00020027
 ,0.10182799,-0.02579552,0.09528386,-0.04272977,-0.07354410,-0.12967619
 ,-0.06529750,-0.06740066,0.12028673,-0.02877662,-0.08777169,-0.1214353
 2,-0.08122110,-0.01117759,-0.02822702,-0.06593608,-0.06828412,0.117469
 35,-0.04907879,0.14428473,-0.00701192,-0.03544029,-0.07580328,-0.13375
 187,-0.12158492,0.06827943,0.06562363,0.05166574,0.08784869,-0.1132825
 6,-0.03934749,-0.13535190,-0.05308719,-0.01807538,0.02989437,-0.014905
 64,-0.09127306,-0.10481864,0.00246568,0.04364550,-0.05186788,0.0273579
 5,-0.00110902,0.02690270,-0.01143764,-0.02947600,-0.12112887,-0.076825
 05,-0.01042887,-0.00968487,0.01498182,0.01164699,-0.10278564,-0.089986
 79,-0.04663230,-0.10020053,0.05936636,0.01122903,0.00210037,-0.0253909
 3,-0.02671580,0.08427394,0.09591428,0.04864494,0.12764145,-0.05207500,
 -0.07377735,0.12230707,-0.06764317,0.04585170,0.03931916,0.13962587,0.
 11660144,-0.03711347,-0.08221159,0.02973651,0.12786664,0.07810128,-0.0
 1073867,0.11913262,0.08885416,0.01558710,-0.11762719,-0.08833318,-0.04
 698734,-0.13368743,0.04568743,0.00082615,0.00025074,-0.00127292,0.0487
 1309,0.13064913,-0.04504419\\\@
 The archive entry for this job was punched.

 Writing a WFNX file to "TOGPOU_Complex_1_Ligand_1_OO_Cu_oriented.wfx"


 TERENCE, THIS IS STUPID STUFF:
 YOU EAT YOUR VICTUALS FAST ENOUGH;
 THERE CAN'T BE MUCH AMISS, 'TIS CLEAR
 TO SEE THE RATE YOU DRINK YOUR BEER.
 BUT OH, GOOD LORD, THE VERSE YOU MAKE,
 IT GIVES A CHAP THE BELLY-ACHE.
 THE COW, THE OLD COW, SHE IS DEAD;
 IT SLEEPS WELL, THE HORNED HEAD:
 WE POOR LADS, 'TIS OUR TURN NOW
 TO HEAR SUCH TUNES AS KILLED THE COW.
 PRETTY FRIENDSHIP 'TIS TO RHYME
 YOUR FRIENDS TO DEATH BEFORE THEIR TIME.
 MOPING, MELANCHOLY MAD:
 COME PIPE A TUNE TO DANCE TO, LAD.

     -- A. E. HOUSMAN
 Job cpu time:       0 days  1 hours 35 minutes 46.4 seconds.
 Elapsed time:       0 days  1 hours 36 minutes  7.5 seconds.
 File lengths (MBytes):  RWF=   1064 Int=      0 D2E=      0 Chk=     16 Scr=      8
 Normal termination of Gaussian 16 at Mon Mar  6 11:57:47 2023.
