 Entering Gaussian System, Link 0=g16
 Initial command:
 /ssoft/spack/external/gaussian/g16-C.01/avx2/g16/l1.exe "/scratch/lcmd/2387838/Gau-3436078.inp" -scrdir="/scratch/lcmd/2387838/"
 Entering Link 1 = /ssoft/spack/external/gaussian/g16-C.01/avx2/g16/l1.exe PID=   3436083.
  
 Copyright (c) 1988-2019, Gaussian, Inc.  All Rights Reserved.
  
 This is part of the Gaussian(R) 16 program.  It is based on
 the Gaussian(R) 09 system (copyright 2009, Gaussian, Inc.),
 the Gaussian(R) 03 system (copyright 2003, Gaussian, Inc.),
 the Gaussian(R) 98 system (copyright 1998, Gaussian, Inc.),
 the Gaussian(R) 94 system (copyright 1995, Gaussian, Inc.),
 the Gaussian 92(TM) system (copyright 1992, Gaussian, Inc.),
 the Gaussian 90(TM) system (copyright 1990, Gaussian, Inc.),
 the Gaussian 88(TM) system (copyright 1988, Gaussian, Inc.),
 the Gaussian 86(TM) system (copyright 1986, Carnegie Mellon
 University), and the Gaussian 82(TM) system (copyright 1983,
 Carnegie Mellon University). Gaussian is a federally registered
 trademark of Gaussian, Inc.
  
 This software contains proprietary and confidential information,
 including trade secrets, belonging to Gaussian, Inc.
  
 This software is provided under written license and may be
 used, copied, transmitted, or stored only in accord with that
 written license.
  
 The following legend is applicable only to US Government
 contracts under FAR:
  
                    RESTRICTED RIGHTS LEGEND
  
 Use, reproduction and disclosure by the US Government is
 subject to restrictions as set forth in subparagraphs (a)
 and (c) of the Commercial Computer Software - Restricted
 Rights clause in FAR 52.227-19.
  
 Gaussian, Inc.
 340 Quinnipiac St., Bldg. 40, Wallingford CT 06492
  
  
 ---------------------------------------------------------------
 Warning -- This program may not be used in any manner that
 competes with the business of Gaussian, Inc. or will provide
 assistance to any competitor of Gaussian, Inc.  The licensee
 of this program is prohibited from giving any competitor of
 Gaussian, Inc. access to this program.  By using this program,
 the user acknowledges that Gaussian, Inc. is engaged in the
 business of creating and licensing software in the field of
 computational chemistry and represents and warrants to the
 licensee that it is not a competitor of Gaussian, Inc. and that
 it will not use this program in any manner prohibited above.
 ---------------------------------------------------------------
  

 Cite this work as:
 Gaussian 16, Revision C.01,
 M. J. Frisch, G. W. Trucks, H. B. Schlegel, G. E. Scuseria, 
 M. A. Robb, J. R. Cheeseman, G. Scalmani, V. Barone, 
 G. A. Petersson, H. Nakatsuji, X. Li, M. Caricato, A. V. Marenich, 
 J. Bloino, B. G. Janesko, R. Gomperts, B. Mennucci, H. P. Hratchian, 
 J. V. Ortiz, A. F. Izmaylov, J. L. Sonnenberg, D. Williams-Young, 
 F. Ding, F. Lipparini, F. Egidi, J. Goings, B. Peng, A. Petrone, 
 T. Henderson, D. Ranasinghe, V. G. Zakrzewski, J. Gao, N. Rega, 
 G. Zheng, W. Liang, M. Hada, M. Ehara, K. Toyota, R. Fukuda, 
 J. Hasegawa, M. Ishida, T. Nakajima, Y. Honda, O. Kitao, H. Nakai, 
 T. Vreven, K. Throssell, J. A. Montgomery, Jr., J. E. Peralta, 
 F. Ogliaro, M. J. Bearpark, J. J. Heyd, E. N. Brothers, K. N. Kudin, 
 V. N. Staroverov, T. A. Keith, R. Kobayashi, J. Normand, 
 K. Raghavachari, A. P. Rendell, J. C. Burant, S. S. Iyengar, 
 J. Tomasi, M. Cossi, J. M. Millam, M. Klene, C. Adamo, R. Cammi, 
 J. W. Ochterski, R. L. Martin, K. Morokuma, O. Farkas, 
 J. B. Foresman, and D. J. Fox, Gaussian, Inc., Wallingford CT, 2019.
 
 ******************************************
 Gaussian 16:  ES64L-G16RevC.01  3-Jul-2019
                 6-Mar-2023 
 ******************************************
 %nprocshared=1
 Will use up to    1 processors via shared memory.
 %mem=8000MB
 %chk=TULZIK_Complex_0_Ligand_1_NN_Cu_oriented.chk
 ----------------------------------------------------------------------
 #p pop=(regular,nbo,savenbos) freq=noraman def2svp empiricaldispersion
 =gd3bj output=wfx pbe1pbe
 ----------------------------------------------------------------------
 1/10=4,30=1,38=1/1,3;
 2/12=2,17=6,18=5,40=1/2;
 3/5=43,7=101,11=2,25=1,30=1,71=2,74=-13,124=41,140=1/1,2,3;
 4//1;
 5/5=2,38=5,98=1/2;
 8/6=4,10=90,11=11/1;
 11/6=1,8=1,9=11,15=111,16=1/1,2,10;
 10/6=1/2;
 6/28=1,40=1,73=1/1,7;
 7/8=1,10=1,25=1/1,2,3,16;
 1/10=4,30=1/3;
 99/6=200/99;
 Leave Link    1 at Mon Mar  6 10:21:40 2023, MaxMem=  1048576000 cpu:               0.0 elap:               0.2
 (Enter /ssoft/spack/external/gaussian/g16-C.01/avx2/g16/l101.exe)
 ----------------------------------------
 TULZIK_Complex_0_Ligand_1_NN_Cu_oriented
 ----------------------------------------
 Symbolic Z-matrix:
 Charge = -1 Multiplicity = 1
 N                     1.71679   0.96933   0. 
 N                     0.73193  -1.84343   0. 
 C                     2.81199   0.3628    0.4365 
 C                     2.91704  -1.026     0.6272 
 C                     2.00325  -2.05422   0.31317 
 C                     2.59735  -3.45324   0.31872 
 H                     2.08074  -4.02523   0.92468 
 H                     3.52807  -3.41121   0.62219 
 H                     2.56577  -3.82467  -0.58815 
 C                     1.77705   2.41608  -0.27091 
 H                     2.72485   2.65322  -0.48606 
 C                     0.91701   2.72098  -1.50085 
 H                     1.21154   2.16501  -2.25139 
 H                     1.01008   3.66783  -1.73764 
 C                    -0.54273  -2.9572   -1.81705 
 C                    -1.40608  -3.94495  -2.31167 
 H                    -1.76374  -4.59043  -1.71305 
 C                    -1.74995  -4.00161  -3.64667 
 H                    -2.32872  -4.68827  -3.95672 
 C                    -1.2579   -3.06462  -4.53336 
 H                    -1.48421  -3.1083   -5.45575 
 C                    -0.43392  -2.06538  -4.06286 
 H                    -0.10775  -1.40399  -4.66196 
 C                    -0.07289  -2.01544  -2.71911 
 H                     0.50431  -1.32453  -2.41508 
 C                    -0.09816  -3.00689  -0.36392 
 H                     0.47605  -3.81895  -0.26129 
 C                     1.34656   3.22807   0.95291 
 C                     1.11525   2.63006   2.17414 
 H                     1.26227   1.69569   2.27212 
 C                     0.66838   3.37413   3.26836 
 C                     0.44657   4.72625   3.13672 
 H                     0.11268   5.2296    3.87012 
 C                     0.71089   5.34212   1.94469 
 H                     0.58209   6.27833   1.86189 
 C                     1.16896   4.60892   0.84691 
 H                     1.35954   5.0514    0.02793 
 C                     4.08358   1.14924   0.7247 
 H                     3.87065   1.91521   1.29783 
 H                     4.46862   1.46921  -0.11816 
 H                     4.7299    0.56936   1.17929 
 C                    -1.25596  -3.14965   0.6213 
 H                    -0.90206  -3.2486    1.53013 
 H                    -1.78733  -3.94055   0.38992 
 H                    -1.82254  -2.3516    0.5767 
 H                    -0.02131   2.5261   -1.29959 
 H                     0.51727   2.94689   4.10337 
 H                     3.72708  -1.31658   1.02905 
 
 ITRead=  0  0  0  0  0  0  0  0  0  0  0  0  0  0  0  0  0  0  0  0
 ITRead=  0  0  0  0  0  0  0  0  0  0  0  0  0  0  0  0  0  0  0  0
 ITRead=  0  0  0  0  0  0  0  0
 MicOpt= -1 -1 -1 -1 -1 -1 -1 -1 -1 -1 -1 -1 -1 -1 -1 -1 -1 -1 -1 -1
 MicOpt= -1 -1 -1 -1 -1 -1 -1 -1 -1 -1 -1 -1 -1 -1 -1 -1 -1 -1 -1 -1
 MicOpt= -1 -1 -1 -1 -1 -1 -1 -1
 NAtoms=     48 NQM=       48 NQMF=       0 NMMI=      0 NMMIF=      0
                NMic=       0 NMicF=      0.
                    Isotopes and Nuclear Properties:
 (Nuclear quadrupole moments (NQMom) in fm**2, nuclear magnetic moments (NMagM)
  in nuclear magnetons)

  Atom         1           2           3           4           5           6           7           8           9          10
 IAtWgt=          14          14          12          12          12          12           1           1           1          12
 AtmWgt=  14.0030740  14.0030740  12.0000000  12.0000000  12.0000000  12.0000000   1.0078250   1.0078250   1.0078250  12.0000000
 NucSpn=           2           2           0           0           0           0           1           1           1           0
 AtZEff=  -0.0000000  -0.0000000  -0.0000000  -0.0000000  -0.0000000  -0.0000000  -0.0000000  -0.0000000  -0.0000000  -0.0000000
 NQMom=    2.0440000   2.0440000   0.0000000   0.0000000   0.0000000   0.0000000   0.0000000   0.0000000   0.0000000   0.0000000
 NMagM=    0.4037610   0.4037610   0.0000000   0.0000000   0.0000000   0.0000000   2.7928460   2.7928460   2.7928460   0.0000000
 AtZNuc=   7.0000000   7.0000000   6.0000000   6.0000000   6.0000000   6.0000000   1.0000000   1.0000000   1.0000000   6.0000000

  Atom        11          12          13          14          15          16          17          18          19          20
 IAtWgt=           1          12           1           1          12          12           1          12           1          12
 AtmWgt=   1.0078250  12.0000000   1.0078250   1.0078250  12.0000000  12.0000000   1.0078250  12.0000000   1.0078250  12.0000000
 NucSpn=           1           0           1           1           0           0           1           0           1           0
 AtZEff=  -0.0000000  -0.0000000  -0.0000000  -0.0000000  -0.0000000  -0.0000000  -0.0000000  -0.0000000  -0.0000000  -0.0000000
 NQMom=    0.0000000   0.0000000   0.0000000   0.0000000   0.0000000   0.0000000   0.0000000   0.0000000   0.0000000   0.0000000
 NMagM=    2.7928460   0.0000000   2.7928460   2.7928460   0.0000000   0.0000000   2.7928460   0.0000000   2.7928460   0.0000000
 AtZNuc=   1.0000000   6.0000000   1.0000000   1.0000000   6.0000000   6.0000000   1.0000000   6.0000000   1.0000000   6.0000000

  Atom        21          22          23          24          25          26          27          28          29          30
 IAtWgt=           1          12           1          12           1          12           1          12          12           1
 AtmWgt=   1.0078250  12.0000000   1.0078250  12.0000000   1.0078250  12.0000000   1.0078250  12.0000000  12.0000000   1.0078250
 NucSpn=           1           0           1           0           1           0           1           0           0           1
 AtZEff=  -0.0000000  -0.0000000  -0.0000000  -0.0000000  -0.0000000  -0.0000000  -0.0000000  -0.0000000  -0.0000000  -0.0000000
 NQMom=    0.0000000   0.0000000   0.0000000   0.0000000   0.0000000   0.0000000   0.0000000   0.0000000   0.0000000   0.0000000
 NMagM=    2.7928460   0.0000000   2.7928460   0.0000000   2.7928460   0.0000000   2.7928460   0.0000000   0.0000000   2.7928460
 AtZNuc=   1.0000000   6.0000000   1.0000000   6.0000000   1.0000000   6.0000000   1.0000000   6.0000000   6.0000000   1.0000000

  Atom        31          32          33          34          35          36          37          38          39          40
 IAtWgt=          12          12           1          12           1          12           1          12           1           1
 AtmWgt=  12.0000000  12.0000000   1.0078250  12.0000000   1.0078250  12.0000000   1.0078250  12.0000000   1.0078250   1.0078250
 NucSpn=           0           0           1           0           1           0           1           0           1           1
 AtZEff=  -0.0000000  -0.0000000  -0.0000000  -0.0000000  -0.0000000  -0.0000000  -0.0000000  -0.0000000  -0.0000000  -0.0000000
 NQMom=    0.0000000   0.0000000   0.0000000   0.0000000   0.0000000   0.0000000   0.0000000   0.0000000   0.0000000   0.0000000
 NMagM=    0.0000000   0.0000000   2.7928460   0.0000000   2.7928460   0.0000000   2.7928460   0.0000000   2.7928460   2.7928460
 AtZNuc=   6.0000000   6.0000000   1.0000000   6.0000000   1.0000000   6.0000000   1.0000000   6.0000000   1.0000000   1.0000000

  Atom        41          42          43          44          45          46          47          48
 IAtWgt=           1          12           1           1           1           1           1           1
 AtmWgt=   1.0078250  12.0000000   1.0078250   1.0078250   1.0078250   1.0078250   1.0078250   1.0078250
 NucSpn=           1           0           1           1           1           1           1           1
 AtZEff=  -0.0000000  -0.0000000  -0.0000000  -0.0000000  -0.0000000  -0.0000000  -0.0000000  -0.0000000
 NQMom=    0.0000000   0.0000000   0.0000000   0.0000000   0.0000000   0.0000000   0.0000000   0.0000000
 NMagM=    2.7928460   0.0000000   2.7928460   2.7928460   2.7928460   2.7928460   2.7928460   2.7928460
 AtZNuc=   1.0000000   6.0000000   1.0000000   1.0000000   1.0000000   1.0000000   1.0000000   1.0000000
 Leave Link  101 at Mon Mar  6 10:21:40 2023, MaxMem=  1048576000 cpu:               0.1 elap:               0.1
 (Enter /ssoft/spack/external/gaussian/g16-C.01/avx2/g16/l103.exe)

 GradGradGradGradGradGradGradGradGradGradGradGradGradGradGradGradGradGrad
 Berny optimization.
 Initialization pass.
 Trust Radius=3.00D-01 FncErr=1.00D-07 GrdErr=1.00D-07 EigMax=2.50D+02 EigMin=1.00D-04
 Number of steps in this run=      2 maximum allowed number of steps=      2.
 GradGradGradGradGradGradGradGradGradGradGradGradGradGradGradGradGradGrad

 Leave Link  103 at Mon Mar  6 10:21:40 2023, MaxMem=  1048576000 cpu:               0.0 elap:               0.0
 (Enter /ssoft/spack/external/gaussian/g16-C.01/avx2/g16/l202.exe)
                          Input orientation:                          
 ---------------------------------------------------------------------
 Center     Atomic      Atomic             Coordinates (Angstroms)
 Number     Number       Type             X           Y           Z
 ---------------------------------------------------------------------
      1          7           0        1.716793    0.969332    0.000000
      2          7           0        0.731925   -1.843427    0.000000
      3          6           0        2.811991    0.362802    0.436503
      4          6           0        2.917036   -1.025999    0.627201
      5          6           0        2.003250   -2.054220    0.313169
      6          6           0        2.597350   -3.453242    0.318724
      7          1           0        2.080745   -4.025228    0.924680
      8          1           0        3.528075   -3.411211    0.622187
      9          1           0        2.565768   -3.824673   -0.588154
     10          6           0        1.777046    2.416079   -0.270907
     11          1           0        2.724851    2.653219   -0.486062
     12          6           0        0.917006    2.720979   -1.500855
     13          1           0        1.211545    2.165011   -2.251394
     14          1           0        1.010081    3.667830   -1.737637
     15          6           0       -0.542727   -2.957199   -1.817052
     16          6           0       -1.406078   -3.944954   -2.311671
     17          1           0       -1.763742   -4.590432   -1.713055
     18          6           0       -1.749948   -4.001606   -3.646674
     19          1           0       -2.328720   -4.688269   -3.956719
     20          6           0       -1.257898   -3.064622   -4.533365
     21          1           0       -1.484208   -3.108302   -5.455748
     22          6           0       -0.433919   -2.065383   -4.062857
     23          1           0       -0.107750   -1.403992   -4.661960
     24          6           0       -0.072887   -2.015437   -2.719105
     25          1           0        0.504306   -1.324529   -2.415077
     26          6           0       -0.098164   -3.006890   -0.363919
     27          1           0        0.476053   -3.818954   -0.261290
     28          6           0        1.346559    3.228074    0.952907
     29          6           0        1.115253    2.630061    2.174138
     30          1           0        1.262269    1.695693    2.272116
     31          6           0        0.668380    3.374127    3.268356
     32          6           0        0.446573    4.726252    3.136722
     33          1           0        0.112683    5.229602    3.870121
     34          6           0        0.710889    5.342117    1.944689
     35          1           0        0.582090    6.278330    1.861895
     36          6           0        1.168955    4.608918    0.846907
     37          1           0        1.359544    5.051397    0.027934
     38          6           0        4.083579    1.149241    0.724696
     39          1           0        3.870648    1.915213    1.297827
     40          1           0        4.468624    1.469207   -0.118159
     41          1           0        4.729896    0.569364    1.179287
     42          6           0       -1.255957   -3.149648    0.621297
     43          1           0       -0.902064   -3.248599    1.530128
     44          1           0       -1.787333   -3.940550    0.389920
     45          1           0       -1.822544   -2.351598    0.576703
     46          1           0       -0.021312    2.526099   -1.299587
     47          1           0        0.517273    2.946887    4.103370
     48          1           0        3.727082   -1.316576    1.029049
 ---------------------------------------------------------------------
                    Distance matrix (angstroms):
                    1          2          3          4          5
     1  N    0.000000
     2  N    2.980197   0.000000
     3  C    1.325848   3.063438   0.000000
     4  C    2.411496   2.415839   1.405763   0.000000
     5  C    3.053194   1.326188   2.551718   1.410978   0.000000
     6  C    4.520633   2.484532   3.823890   2.467562   1.519950
     7  H    5.092457   2.726647   4.475248   3.127818   2.065145
     8  H    4.780901   3.265504   3.845832   2.462240   2.064463
     9  H    4.903995   2.763013   4.318043   3.071328   2.064780
    10  C    1.473126   4.394207   2.405720   3.735516   4.513965
    11  H    2.021860   4.942452   2.470776   3.848758   4.829023
    12  C    2.441412   4.808391   3.592398   4.750641   5.222369
    13  H    2.598788   4.622378   3.610288   4.623587   5.000569
    14  H    3.286444   5.785387   4.347065   5.591151   6.159062
    15  C    4.881061   2.483325   5.230206   4.655520   3.440234
    16  C    6.264691   3.785670   6.625808   5.987202   4.699807
    17  H    6.779354   4.087658   7.077602   6.331798   4.972744
    18  C    7.072958   4.910770   7.518755   6.992923   5.793027
    19  H    8.001890   5.754677   8.440416   7.870356   6.628433
    20  C    6.758177   5.099226   7.280853   6.943882   5.928313
    21  H    7.525868   6.022985   8.076170   7.791612   6.823039
    22  C    5.508345   4.232643   6.056093   5.857121   5.008945
    23  H    5.540351   4.757313   6.135208   6.104706   5.443439
    24  C    4.416484   2.840923   4.892484   4.595258   3.675124
    25  H    3.544646   2.480657   4.037821   3.894334   3.197281
    26  C    4.385982   1.474833   4.523771   3.741347   2.404573
    27  H    4.953321   2.009092   4.840517   3.814238   2.403460
    28  C    2.479319   5.196722   3.259440   4.546386   5.361262
    29  C    2.801205   4.988578   3.322463   4.359611   5.118030
    30  H    2.428313   4.239002   2.747310   3.584914   4.295156
    31  C    4.190985   6.157033   4.656451   5.602969   6.323128
    32  C    5.056376   7.285680   5.650317   6.744574   7.508029
    33  H    5.975023   8.086348   6.539246   7.583763   8.323473
    34  C    4.890287   7.444078   5.610957   6.867005   7.683609
    35  H    5.739309   8.333788   6.480561   7.767217   8.593581
    36  C    3.776767   6.522346   4.571379   5.903927   6.736344
    37  H    4.097763   6.923386   4.925389   6.302353   7.140414
    38  C    2.481780   4.551354   1.522655   2.470222   3.841781
    39  H    2.686659   5.065896   2.067030   3.163834   4.495900
    40  H    2.799360   4.995040   2.067901   3.031343   4.321880
    41  H    3.260289   4.816228   2.067065   2.477185   3.881746
    42  C    5.117543   2.458435   5.377700   4.682285   3.452149
    43  H    5.195252   2.643052   5.294567   4.510073   3.368736
    44  H    6.044657   3.301004   6.298793   5.539134   4.234697
    45  H    4.887542   2.667609   5.372759   4.921726   3.846373
    46  H    2.670853   4.620503   3.965031   4.996379   5.261098
    47  H    4.710331   6.311167   5.038764   5.798830   6.448629
    48  H    3.213344   3.210526   2.002202   0.949784   2.007037
                    6          7          8          9         10
     6  C    0.000000
     7  H    0.980424   0.000000
     8  H    0.979849   1.601026   0.000000
     9  H    0.980503   1.601292   1.600597   0.000000
    10  C    5.955627   6.558361   6.149880   6.298390   0.000000
    11  H    6.160585   6.856145   6.216968   6.480650   1.000431
    12  C    6.652476   7.262838   6.994908   6.811535   1.531472
    13  H    6.331724   7.011563   6.687154   6.362122   2.074887
    14  H    7.580086   8.210809   7.875397   7.738157   2.075190
    15  C    3.829841   3.942129   4.767330   3.453324   6.053432
    16  C    4.815413   4.757977   5.765264   4.331344   7.399983
    17  H    4.943728   4.696507   5.903155   4.538331   7.981740
    18  C    5.909660   5.964230   6.813901   5.292566   8.063632
    19  H    6.638590   6.611434   7.543162   6.004086   8.995237
    20  C    6.209407   6.469896   7.043108   5.546421   7.577435
    21  H    7.079734   7.366105   7.883909   6.372517   8.248464
    22  C    5.505725   5.919464   6.281583   4.915973   6.273018
    23  H    6.026957   6.547590   6.720890   5.440891   6.117740
    24  C    4.292535   4.685570   5.106794   3.844059   5.390201
    25  H    4.047953   4.575249   4.766800   3.719945   4.495495
    26  C    2.816209   2.728579   3.779615   2.795637   5.738785
    27  H    2.229364   2.006019   3.203377   2.115132   6.369326
    28  C    6.826906   7.290419   6.996320   7.321378   1.530482
    29  C    6.530371   6.840043   6.687842   7.169229   2.542047
    30  H    5.666543   5.934174   5.825513   6.352534   2.692752
    31  C    7.683373   7.889109   7.824377   8.384239   3.830584
    32  C    8.914655   9.173443   9.057419   9.564728   4.326545
    33  H    9.704523   9.909630   9.842643  10.386228   5.275805
    34  C    9.141162   9.521768   9.290118   9.689474   3.821944
    35  H   10.057144  10.454073  10.203083  10.583401   4.570967
    36  C    8.204738   8.682505   8.362919   8.668100   2.535316
    37  H    8.599163   9.149284   8.756220   8.978817   2.684868
    38  C    4.853508   5.552159   4.595303   5.363501   2.813574
    39  H    5.603591   6.215451   5.380022   6.181094   2.663636
    40  H    5.284225   6.080978   5.025059   5.645079   2.857357
    41  H    4.633539   5.309718   4.195201   5.207193   3.772631
    42  C    3.877073   3.462984   4.791177   4.064974   6.400973
    43  H    3.708811   3.141158   4.525145   4.104247   6.519965
    44  H    4.412254   3.905786   5.346748   4.463132   7.317666
    45  H    4.562416   4.261196   5.454720   4.773272   6.033758
    46  H    6.725239   7.230898   7.179346   6.894304   2.074700
    47  H    7.720875   7.820416   7.849138   8.488861   4.582912
    48  H    2.519165   3.171453   2.143043   3.202272   4.407407
                   11         12         13         14         15
    11  H    0.000000
    12  C    2.074295   0.000000
    13  H    2.375887   0.979369   0.000000
    14  H    2.352936   0.980436   1.600937   0.000000
    15  C    6.627624   5.871330   5.431681   6.805037   0.000000
    16  C    7.995831   7.105548   6.647349   8.007610   1.402028
    17  H    8.609498   7.790261   7.401226   8.711692   2.041847
    18  C    8.619744   7.543894   6.981719   8.371525   2.428103
    19  H    9.564596   8.453577   7.899940   9.268026   3.280937
    20  C    8.058328   6.884730   6.217282   7.634509   2.810937
    21  H    8.695349   7.442280   6.733706   8.121687   3.761560
    22  C    6.710924   5.594472   4.887247   6.353071   2.418847
    23  H    6.474775   5.296989   4.504347   5.960250   3.270346
    24  C    5.883041   4.989756   4.398256   5.868187   1.386134
    25  H    4.947161   4.168004   3.564248   5.063435   2.029661
    26  C    6.326229   5.927198   5.659192   6.904143   1.520428
    27  H    6.855410   6.670958   6.348960   7.649622   2.049616
    28  C    2.073832   2.542166   3.378739   2.746931   7.035601
    29  C    3.109342   3.681459   4.450941   4.048457   7.063708
    30  H    3.265509   3.925012   4.548073   4.475605   6.452031
    31  C    4.341018   4.820143   5.676674   5.026230   8.210593
    32  C    4.755269   5.074401   6.014727   5.019679   9.195326
    33  H    5.695393   5.982265   6.933409   5.889941   9.989855
    34  C    4.146657   4.334123   5.286944   4.056141   9.197875
    35  H    4.821385   4.906627   5.851047   4.467048  10.004742
    36  C    2.832380   3.023206   3.946387   2.755133   8.201992
    37  H    2.807047   2.822035   3.680824   2.270159   8.435652
    38  C    2.360938   4.177395   4.258813   4.674694   6.687753
    39  H    2.244942   4.147997   4.441869   4.524218   7.274665
    40  H    2.139622   4.011580   3.955174   4.406605   6.898764
    41  H    3.337072   5.133298   5.166668   5.652076   7.015359
    42  C    7.123647   6.609808   6.525834   7.561581   2.547798
    43  H    7.214638   6.937704   6.933572   7.884896   3.379001
    44  H    8.037721   7.434007   7.297101   8.380900   2.717857
    45  H    6.845179   6.128003   6.132176   7.043682   2.781141
    46  H    2.866949   0.979248   1.598830   1.599753   5.532287
    47  H    5.101228   5.623002   6.440215   5.905927   8.428121
    48  H    4.365696   5.531618   5.404691   6.315136   5.387318
                   16         17         18         19         20
    16  C    0.000000
    17  H    0.950214   0.000000
    18  C    1.379742   2.021333   0.000000
    19  H    2.027306   2.315773   0.950059   0.000000
    20  C    2.394340   3.246247   1.380679   2.028647   0.000000
    21  H    3.254430   4.035171   2.035033   2.335933   0.950745
    22  C    2.746732   3.696738   2.377835   3.237447   1.377968
    23  H    3.696756   4.646693   3.236544   4.026978   2.024122
    24  C    2.380428   3.240637   2.760033   3.710054   2.407608
    25  H    3.244517   4.037697   3.710153   4.660198   3.258900
    26  C    2.526725   2.664943   3.807141   4.550893   4.328116
    27  H    2.786100   2.778395   4.055769   4.720027   4.671854
    28  C    8.347863   8.826684   9.111134  10.014020   8.745307
    29  C    8.349277   8.691053   9.277404  10.149203   9.113279
    30  H    7.742614   8.034531   8.750127   9.615017   8.679078
    31  C    9.434459   9.703806  10.395546  11.233278  10.297323
    32  C   10.407071  10.733426  11.270078  12.110011  11.064952
    33  H   11.166631  11.451021  12.049348  12.867946  11.886597
    34  C   10.433017  10.870070  11.163521  12.028071  10.794191
    35  H   11.219937  11.679605  11.893687  12.751289  11.470642
    36  C    9.475028   9.989102  10.141666  11.033868   9.680917
    37  H    9.698286  10.283522  10.253221  11.150868   9.670895
    38  C    8.081255   8.548546   8.925813   9.854428   8.598559
    39  H    8.672593   9.117849   9.541903  10.471313   9.225157
    40  H    8.284731   8.837720   9.002824   9.942482   8.534794
    41  H    8.379501   8.783876   9.282890  10.190453   9.038469
    42  C    3.042589   2.789785   4.380118   4.947364   5.155363
    43  H    3.936796   3.614034   5.299547   5.849230   6.076711
    44  H    2.728364   2.201228   4.037228   4.443586   5.028547
    45  H    3.324896   3.202940   4.534832   5.125247   5.190377
    46  H    6.694507   7.338394   7.148981   8.026929   6.575912
    47  H    9.609865   9.790046  10.652935  11.461253  10.671581
    48  H    6.664691   6.956034   7.685676   8.538087   7.671123
                   21         22         23         24         25
    21  H    0.000000
    22  C    2.032470   0.000000
    23  H    2.330110   0.950131   0.000000
    24  C    3.267323   1.392303   2.037097   0.000000
    25  H    4.047434   2.035759   2.330110   0.950231   0.000000
    26  C    5.278080   3.831620   4.587214   2.555488   2.720396
    27  H    5.597325   4.284270   5.053589   3.097558   3.295717
    28  C    9.446363   7.506576   7.422788   6.556898   5.725286
    29  C    9.894502   7.959098   8.031286   6.850997   6.088754
    30  H    9.504809   7.560068   7.717927   6.361400   5.627257
    31  C   11.079960   9.195108   9.291001   8.089905   7.376021
    32  C   11.787226   9.936575   9.935120   8.944883   8.212049
    33  H   12.611207  10.791094  10.809697   9.795046   9.089208
    34  C   11.445283   9.605845   9.477762   8.746364   7.968337
    35  H   12.079998  10.283604  10.102209   9.497427   8.723646
    36  C   10.311073   8.439271   8.254252   7.625005   6.803535
    37  H   10.234177   8.402359   8.112959   7.716102   6.881291
    38  C    9.344775   7.325453   7.287133   6.257089   5.365529
    39  H    9.976019   7.944267   7.897077   6.865655   5.967733
    40  H    9.213016   7.217264   7.060071   6.287526   5.366247
    41  H    9.806326   7.815815   7.836908   6.704132   5.861902
    42  C    6.081471   4.877774   5.681417   3.720803   3.955901
    43  H    7.011494   5.735909   6.509644   4.501579   4.609183
    44  H    5.912390   5.017491   5.897171   4.038741   4.468018
    45  H    6.089133   4.851363   5.593037   3.746553   3.926812
    46  H    7.152637   5.374720   5.172875   4.758491   4.043257
    47  H   11.491213   9.628857   9.805703   8.456897   7.793286
    48  H    8.510019   6.618319   6.863028   5.383013   4.716815
                   26         27         28         29         30
    26  C    0.000000
    27  H    0.999853   0.000000
    28  C    6.534220   7.203656   0.000000
    29  C    6.299947   6.923127   1.379321   0.000000
    30  H    5.560013   6.119445   2.023761   0.950925   0.000000
    31  C    7.382302   8.014724   2.417139   1.396654   2.040181
    32  C    8.506040   9.196081   2.797063   2.401607   3.255333
    33  H    9.263441   9.953741   3.746825   3.261766   4.045205
    34  C    8.700009   9.425853   2.420100   2.751618   3.702382
    35  H    9.572476  10.318638   3.273336   3.700219   4.650966
    36  C    7.814872   8.528613   1.396249   2.383338   3.244504
    37  H    8.198442   8.918931   2.044566   3.244802   4.038139
    38  C    5.995455   6.218471   3.444548   3.620037   3.263880
    39  H    6.537581   6.843595   2.865938   2.978444   2.793039
    40  H    6.399328   6.627651   3.740065   4.224607   4.005674
    41  H    6.203326   6.279155   4.308939   4.278065   3.806223
    42  C    1.526930   2.055916   6.896259   6.437313   5.704734
    43  H    2.071737   2.331028   6.880173   6.248437   5.448019
    44  H    2.072025   2.358342   7.843941   7.401445   6.679070
    45  H    2.070667   2.852878   6.427868   5.999949   5.363867
    46  H    5.612071   6.448653   2.727191   3.656412   3.885127
    47  H    7.468794   8.051619   3.269892   2.044479   2.339657
    48  H    4.407950   4.300704   5.130939   4.869171   4.085864
                   31         32         33         34         35
    31  C    0.000000
    32  C    1.376506   0.000000
    33  H    2.028228   0.950114   0.000000
    34  C    2.372105   1.367514   2.019355   0.000000
    35  H    3.227998   2.013081   2.313687   0.948651   0.000000
    36  C    2.763820   2.403925   3.262021   1.397330   2.039987
    37  H    3.713661   3.256348   4.043368   2.044315   2.339490
    38  C    4.804572   5.642756   6.504695   5.517575   6.313573
    39  H    4.033105   4.796641   5.632421   4.705972   5.492684
    40  H    5.434985   6.113877   7.001512   5.777140   6.492567
    41  H    5.359741   6.281571   7.090632   6.286289   7.089608
    42  C    7.298604   8.441314   9.090647   8.816457   9.685260
    43  H    7.024829   8.246103   8.853540   8.750650   9.647546
    44  H    8.235315   9.362090   9.990673   9.737881  10.592752
    45  H    6.799531   7.861206   8.489187   8.214799   9.050394
    46  H    4.696906   4.973975   5.835474   4.357913   4.943510
    47  H    0.950061   2.026215   2.329996   3.230250   4.015834
    48  H    6.030991   7.191648   7.999251   7.367090   8.262397
                   36         37         38         39         40
    36  C    0.000000
    37  H    0.950173   0.000000
    38  C    4.525410   4.809643   0.000000
    39  H    3.841682   4.213540   0.980068   0.000000
    40  H    4.655852   4.745504   0.980328   1.600473   0.000000
    41  H    5.395255   5.724815   0.980120   1.601146   1.600421
    42  C    8.131817   8.628445   6.855785   7.238272   7.392662
    43  H    8.154538   8.732777   6.696743   7.035460   7.336133
    44  H    9.057698   9.533572   7.777253   8.193107   8.286171
    45  H    7.580955   8.076582   6.867319   7.151093   7.393253
    46  H    3.219054   3.169575   4.779497   4.718802   4.761546
    47  H    3.713702   4.663428   5.231205   4.492276   5.968083
    48  H    6.456677   6.867208   2.509975   3.246123   3.102670
                   41         42         43         44         45
    41  H    0.000000
    42  C    7.069147   0.000000
    43  H    6.813143   0.980309   0.000000
    44  H    7.964717   0.980522   1.600804   0.000000
    45  H    7.199279   0.979741   1.600286   1.600280   0.000000
    46  H    5.705051   6.117863   6.490774   6.913090   5.527823
    47  H    5.652351   7.241334   6.857123   8.157065   6.781303
    48  H    2.141257   5.325138   5.041110   6.140236   5.663412
                   46         47         48
    46  H    0.000000
    47  H    5.446014   0.000000
    48  H    5.851423   6.158851   0.000000
 Stoichiometry    C21H25N2(1-)
 Framework group  C1[X(C21H25N2)]
 Deg. of freedom   138
 Full point group                 C1      NOp   1
 Largest Abelian subgroup         C1      NOp   1
 Largest concise Abelian subgroup C1      NOp   1
                         Standard orientation:                         
 ---------------------------------------------------------------------
 Center     Atomic      Atomic             Coordinates (Angstroms)
 Number     Number       Type             X           Y           Z
 ---------------------------------------------------------------------
      1          7           0       -1.208262    0.135429   -0.681167
      2          7           0        1.401594    1.013643    0.458554
      3          6           0       -1.161191    1.361607   -1.183307
      4          6           0       -0.102579    2.259903   -0.962916
      5          6           0        1.131781    2.060960   -0.308976
      6          6           0        2.173132    3.134145   -0.581204
      7          1           0        2.487593    3.507496    0.269064
      8          1           0        1.773975    3.845890   -1.123604
      9          1           0        2.929324    2.739710   -1.064921
     10          6           0       -2.316191   -0.746521   -1.087072
     11          1           0       -2.635817   -0.450376   -1.987627
     12          6           0       -1.782999   -2.176422   -1.215507
     13          1           0       -1.022101   -2.187197   -1.832015
     14          1           0       -2.492169   -2.759559   -1.559431
     15          6           0        3.513249   -0.293015    0.480090
     16          6           0        4.788110   -0.596504    0.978393
     17          1           0        5.130990   -0.096977    1.710385
     18          6           0        5.556454   -1.604011    0.432255
     19          1           0        6.421488   -1.781323    0.782809
     20          6           0        5.073585   -2.356082   -0.620124
     21          1           0        5.605646   -3.043261   -1.005625
     22          6           0        3.809797   -2.096613   -1.104180
     23          1           0        3.461073   -2.623056   -1.814109
     24          6           0        3.038908   -1.070142   -0.565109
     25          1           0        2.173538   -0.899714   -0.918701
     26          6           0        2.754630    0.902202    1.034755
     27          1           0        3.257677    1.721307    0.759586
     28          6           0       -3.488590   -0.651030   -0.107920
     29          6           0       -3.513873    0.287642    0.902417
     30          1           0       -2.805015    0.917591    0.972709
     31          6           0       -4.562866    0.327506    1.823648
     32          6           0       -5.591397   -0.583029    1.735213
     33          1           0       -6.290350   -0.578777    2.378767
     34          6           0       -5.602943   -1.493366    0.714798
     35          1           0       -6.324908   -2.104125    0.639439
     36          6           0       -4.564057   -1.534542   -0.218771
     37          1           0       -4.590469   -2.164729   -0.929401
     38          6           0       -2.262542    1.878202   -2.099076
     39          1           0       -3.135162    1.717028   -1.683034
     40          1           0       -2.219470    1.409896   -2.959237
     41          1           0       -2.141462    2.839845   -2.244739
     42          6           0        2.674587    0.916911    2.559514
     43          1           0        2.239751    1.743789    2.856492
     44          1           0        3.578972    0.870393    2.935474
     45          1           0        2.153791    0.145844    2.866305
     46          1           0       -1.494684   -2.497558   -0.336489
     47          1           0       -4.566286    0.982917    2.511427
     48          1           0       -0.239285    3.134644   -1.306763
 ---------------------------------------------------------------------
 Rotational constants (GHZ):           0.4303647           0.1210240           0.1125792
 Leave Link  202 at Mon Mar  6 10:21:40 2023, MaxMem=  1048576000 cpu:               0.0 elap:               0.0
 (Enter /ssoft/spack/external/gaussian/g16-C.01/avx2/g16/l301.exe)
 Standard basis: def2SVP (5D, 7F)
 Ernie: Thresh=  0.10000D-02 Tol=  0.10000D-05 Strict=F.
 There are   470 symmetry adapted cartesian basis functions of A   symmetry.
 There are   447 symmetry adapted basis functions of A   symmetry.
   447 basis functions,   750 primitive gaussians,   470 cartesian basis functions
    83 alpha electrons       83 beta electrons
       nuclear repulsion energy      1807.8409863068 Hartrees.
 IExCor= 1009 DFT=T Ex+Corr=PBE1PBE ExCW=0 ScaHFX=  0.250000
 ScaDFX=  0.750000  0.750000  1.000000  1.000000 ScalE2=  1.000000  1.000000
 IRadAn=      5 IRanWt=     -1 IRanGd=            0 ICorTp=0 IEmpDi=141
 NAtoms=   48 NActive=   48 NUniq=   48 SFac= 1.00D+00 NAtFMM=   60 NAOKFM=F Big=F
 Integral buffers will be    131072 words long.
 Raffenetti 2 integral format.
 Two-electron integral symmetry is turned on.
 R6Disp:  Grimme-D3(BJ) Dispersion energy=       -0.0537213485 Hartrees.
 Nuclear repulsion after empirical dispersion term =     1807.7872649583 Hartrees.
 Leave Link  301 at Mon Mar  6 10:21:40 2023, MaxMem=  1048576000 cpu:               0.0 elap:               0.1
 (Enter /ssoft/spack/external/gaussian/g16-C.01/avx2/g16/l302.exe)
 NPDir=0 NMtPBC=     1 NCelOv=     1 NCel=       1 NClECP=     1 NCelD=      1
         NCelK=      1 NCelE2=     1 NClLst=     1 CellRange=     0.0.
 One-electron integrals computed using PRISM.
 One-electron integral symmetry used in STVInt
   1 Symmetry operations used in ECPInt.
 ECPInt:  NShTT=   22791 NPrTT=   80975 LenC2=   19744 LenP2D=   47829.
 LDataN:  DoStor=T MaxTD1= 4 Len=   56
 NBasis=   447 RedAO= T EigKep=  2.84D-04  NBF=   447
 NBsUse=   447 1.00D-06 EigRej= -1.00D+00 NBFU=   447
 Precomputing XC quadrature grid using
 IXCGrd= 4 IRadAn=           5 IRanWt=          -1 IRanGd=           0 AccXCQ= 0.00D+00.
 Generated NRdTot=       0 NPtTot=           0 NUsed=           0 NTot=          32
 NSgBfM=   461   461   461   461   461 MxSgAt=    48 MxSgA2=    48.
 Leave Link  302 at Mon Mar  6 10:21:42 2023, MaxMem=  1048576000 cpu:               1.9 elap:               1.9
 (Enter /ssoft/spack/external/gaussian/g16-C.01/avx2/g16/l303.exe)
 DipDrv:  MaxL=1.
 Leave Link  303 at Mon Mar  6 10:21:42 2023, MaxMem=  1048576000 cpu:               0.1 elap:               0.1
 (Enter /ssoft/spack/external/gaussian/g16-C.01/avx2/g16/l401.exe)
 ExpMin= 1.22D-01 ExpMax= 1.71D+03 ExpMxC= 2.58D+02 IAcc=3 IRadAn=         5 AccDes= 0.00D+00
 Harris functional with IExCor= 1009 and IRadAn=       5 diagonalized for initial guess.
 HarFok:  IExCor= 1009 AccDes= 0.00D+00 IRadAn=         5 IDoV= 1 UseB2=F ITyADJ=14
 ICtDFT=  3500011 ScaDFX=  1.000000  1.000000  1.000000  1.000000
 FoFCou: FMM=F IPFlag=           0 FMFlag=      100000 FMFlg1=           0
         NFxFlg=           0 DoJE=T BraDBF=F KetDBF=T FulRan=T
         wScrn=  0.000000 ICntrl=       500 IOpCl=  0 I1Cent=   200000004 NGrid=           0
         NMat0=    1 NMatS0=      1 NMatT0=    0 NMatD0=    1 NMtDS0=    0 NMtDT0=    0
 Petite list used in FoFCou.
 Harris En= -923.442153612039    
 JPrj=0 DoOrth=F DoCkMO=F.
 Leave Link  401 at Mon Mar  6 10:21:58 2023, MaxMem=  1048576000 cpu:              15.9 elap:              16.1
 (Enter /ssoft/spack/external/gaussian/g16-C.01/avx2/g16/l502.exe)
 Integral symmetry usage will be decided dynamically.
 Closed shell SCF:
 Using DIIS extrapolation, IDIIS=  1040.
 NGot=  1048576000 LenX=  1048125142 LenY=  1047903772
 Requested convergence on RMS density matrix=1.00D-08 within 128 cycles.
 Requested convergence on MAX density matrix=1.00D-06.
 Requested convergence on             energy=1.00D-06.
 No special actions if energy rises.
 Fock matrices will be formed incrementally for  20 cycles.
 Integral accuracy reduced to 1.0D-05 until final iterations.

 Cycle   1  Pass 0  IDiag  1:
 FoFJK:  IHMeth= 1 ICntrl=       0 DoSepK=F KAlg= 0 I1Cent=           0 FoldK=F
 IRaf= 780000000 NMat=       1 IRICut=       1 DoRegI=T DoRafI=F ISym2E= 0 IDoP0=0 IntGTp=1.
 FoFCou: FMM=F IPFlag=           0 FMFlag=      100000 FMFlg1=           0
         NFxFlg=           0 DoJE=F BraDBF=F KetDBF=F FulRan=T
         wScrn=  0.000000 ICntrl=         0 IOpCl=  0 I1Cent=           0 NGrid=           0
         NMat0=    1 NMatS0=      1 NMatT0=    0 NMatD0=    1 NMtDS0=    0 NMtDT0=    0
 Symmetry not used in FoFCou.
 E= -921.991776199619    
 DIIS: error= 2.86D-02 at cycle   1 NSaved=   1.
 NSaved= 1 IEnMin= 1 EnMin= -921.991776199619     IErMin= 1 ErrMin= 2.86D-02
 ErrMax= 2.86D-02  0.00D+00 EMaxC= 1.00D-01 BMatC= 6.34D-01 BMatP= 6.34D-01
 IDIUse=3 WtCom= 7.14D-01 WtEn= 2.86D-01
 Coeff-Com:  0.100D+01
 Coeff-En:   0.100D+01
 Coeff:      0.100D+01
 Gap=     0.060 Goal=   None    Shift=    0.000
 GapD=    0.060 DampG=0.500 DampE=0.500 DampFc=0.2500 IDamp=-1.
 Damping current iteration by 2.50D-01
 RMSDP=6.39D-03 MaxDP=2.84D-01              OVMax= 2.07D-01

 Cycle   2  Pass 0  IDiag  1:
 RMSU=  1.56D-03    CP:  9.80D-01
 E= -922.246874636603     Delta-E=       -0.255098436984 Rises=F Damp=T
 DIIS: error= 1.71D-02 at cycle   2 NSaved=   2.
 NSaved= 2 IEnMin= 2 EnMin= -922.246874636603     IErMin= 2 ErrMin= 1.71D-02
 ErrMax= 1.71D-02  0.00D+00 EMaxC= 1.00D-01 BMatC= 1.92D-01 BMatP= 6.34D-01
 IDIUse=3 WtCom= 8.29D-01 WtEn= 1.71D-01
 Coeff-Com: -0.111D+01 0.211D+01
 Coeff-En:   0.000D+00 0.100D+01
 Coeff:     -0.918D+00 0.192D+01
 Gap=     0.123 Goal=   None    Shift=    0.000
 RMSDP=2.10D-03 MaxDP=5.71D-02 DE=-2.55D-01 OVMax= 1.15D-01

 Cycle   3  Pass 0  IDiag  1:
 RMSU=  1.44D-03    CP:  9.28D-01  1.80D+00
 E= -922.708881641799     Delta-E=       -0.462007005196 Rises=F Damp=F
 DIIS: error= 3.42D-03 at cycle   3 NSaved=   3.
 NSaved= 3 IEnMin= 3 EnMin= -922.708881641799     IErMin= 3 ErrMin= 3.42D-03
 ErrMax= 3.42D-03  0.00D+00 EMaxC= 1.00D-01 BMatC= 1.20D-02 BMatP= 1.92D-01
 IDIUse=3 WtCom= 9.66D-01 WtEn= 3.42D-02
 Coeff-Com: -0.364D+00 0.739D+00 0.625D+00
 Coeff-En:   0.000D+00 0.000D+00 0.100D+01
 Coeff:     -0.352D+00 0.714D+00 0.638D+00
 Gap=     0.107 Goal=   None    Shift=    0.000
 RMSDP=6.07D-04 MaxDP=2.62D-02 DE=-4.62D-01 OVMax= 5.03D-02

 Cycle   4  Pass 0  IDiag  1:
 RMSU=  5.40D-04    CP:  9.33D-01  1.90D+00  8.51D-01
 E= -922.714024337170     Delta-E=       -0.005142695371 Rises=F Damp=F
 DIIS: error= 3.01D-03 at cycle   4 NSaved=   4.
 NSaved= 4 IEnMin= 4 EnMin= -922.714024337170     IErMin= 4 ErrMin= 3.01D-03
 ErrMax= 3.01D-03  0.00D+00 EMaxC= 1.00D-01 BMatC= 6.98D-03 BMatP= 1.20D-02
 IDIUse=3 WtCom= 9.70D-01 WtEn= 3.01D-02
 Coeff-Com: -0.447D-01 0.119D+00 0.431D+00 0.494D+00
 Coeff-En:   0.000D+00 0.000D+00 0.377D+00 0.623D+00
 Coeff:     -0.433D-01 0.115D+00 0.430D+00 0.498D+00
 Gap=     0.111 Goal=   None    Shift=    0.000
 RMSDP=3.35D-04 MaxDP=1.82D-02 DE=-5.14D-03 OVMax= 3.04D-02

 Cycle   5  Pass 0  IDiag  1:
 RMSU=  1.40D-04    CP:  9.30D-01  1.82D+00  9.30D-01  5.50D-01
 E= -922.720342436258     Delta-E=       -0.006318099088 Rises=F Damp=F
 DIIS: error= 6.69D-04 at cycle   5 NSaved=   5.
 NSaved= 5 IEnMin= 5 EnMin= -922.720342436258     IErMin= 5 ErrMin= 6.69D-04
 ErrMax= 6.69D-04  0.00D+00 EMaxC= 1.00D-01 BMatC= 3.01D-04 BMatP= 6.98D-03
 IDIUse=3 WtCom= 9.93D-01 WtEn= 6.69D-03
 Coeff-Com:  0.156D-02 0.975D-02 0.166D+00 0.258D+00 0.564D+00
 Coeff-En:   0.000D+00 0.000D+00 0.000D+00 0.000D+00 0.100D+01
 Coeff:      0.155D-02 0.968D-02 0.165D+00 0.256D+00 0.567D+00
 Gap=     0.113 Goal=   None    Shift=    0.000
 RMSDP=7.53D-05 MaxDP=3.64D-03 DE=-6.32D-03 OVMax= 8.20D-03

 Cycle   6  Pass 0  IDiag  1:
 RMSU=  5.06D-05    CP:  9.30D-01  1.81D+00  9.33D-01  5.87D-01  6.31D-01
 E= -922.720602602546     Delta-E=       -0.000260166288 Rises=F Damp=F
 DIIS: error= 1.89D-04 at cycle   6 NSaved=   6.
 NSaved= 6 IEnMin= 6 EnMin= -922.720602602546     IErMin= 6 ErrMin= 1.89D-04
 ErrMax= 1.89D-04  0.00D+00 EMaxC= 1.00D-01 BMatC= 4.65D-05 BMatP= 3.01D-04
 IDIUse=3 WtCom= 9.98D-01 WtEn= 1.89D-03
 Coeff-Com:  0.573D-02-0.786D-02 0.443D-01 0.910D-01 0.336D+00 0.531D+00
 Coeff-En:   0.000D+00 0.000D+00 0.000D+00 0.000D+00 0.121D+00 0.879D+00
 Coeff:      0.572D-02-0.785D-02 0.442D-01 0.909D-01 0.335D+00 0.532D+00
 Gap=     0.113 Goal=   None    Shift=    0.000
 RMSDP=2.57D-05 MaxDP=1.07D-03 DE=-2.60D-04 OVMax= 1.99D-03

 Cycle   7  Pass 0  IDiag  1:
 RMSU=  1.17D-05    CP:  9.30D-01  1.82D+00  9.34D-01  5.89D-01  6.94D-01
                    CP:  5.88D-01
 E= -922.720651427853     Delta-E=       -0.000048825307 Rises=F Damp=F
 DIIS: error= 8.10D-05 at cycle   7 NSaved=   7.
 NSaved= 7 IEnMin= 7 EnMin= -922.720651427853     IErMin= 7 ErrMin= 8.10D-05
 ErrMax= 8.10D-05  0.00D+00 EMaxC= 1.00D-01 BMatC= 2.38D-06 BMatP= 4.65D-05
 IDIUse=1 WtCom= 1.00D+00 WtEn= 0.00D+00
 Coeff-Com:  0.285D-02-0.441D-02 0.169D-01 0.393D-01 0.161D+00 0.296D+00
 Coeff-Com:  0.489D+00
 Coeff:      0.285D-02-0.441D-02 0.169D-01 0.393D-01 0.161D+00 0.296D+00
 Coeff:      0.489D+00
 Gap=     0.112 Goal=   None    Shift=    0.000
 RMSDP=5.11D-06 MaxDP=1.68D-04 DE=-4.88D-05 OVMax= 6.03D-04

 Initial convergence to 1.0D-05 achieved.  Increase integral accuracy.
 Cycle   8  Pass 1  IDiag  1:
 E= -922.720735920321     Delta-E=       -0.000084492468 Rises=F Damp=F
 DIIS: error= 1.09D-04 at cycle   1 NSaved=   1.
 NSaved= 1 IEnMin= 1 EnMin= -922.720735920321     IErMin= 1 ErrMin= 1.09D-04
 ErrMax= 1.09D-04  0.00D+00 EMaxC= 1.00D-01 BMatC= 4.53D-06 BMatP= 4.53D-06
 IDIUse=3 WtCom= 9.99D-01 WtEn= 1.09D-03
 Coeff-Com:  0.100D+01
 Coeff-En:   0.100D+01
 Coeff:      0.100D+01
 Gap=     0.113 Goal=   None    Shift=    0.000
 RMSDP=5.11D-06 MaxDP=1.68D-04 DE=-8.45D-05 OVMax= 6.08D-04

 Cycle   9  Pass 1  IDiag  1:
 RMSU=  1.21D-04    CP:  1.00D+00
 E= -922.720741026523     Delta-E=       -0.000005106202 Rises=F Damp=F
 DIIS: error= 3.07D-05 at cycle   2 NSaved=   2.
 NSaved= 2 IEnMin= 2 EnMin= -922.720741026523     IErMin= 2 ErrMin= 3.07D-05
 ErrMax= 3.07D-05  0.00D+00 EMaxC= 1.00D-01 BMatC= 3.39D-07 BMatP= 4.53D-06
 IDIUse=1 WtCom= 1.00D+00 WtEn= 0.00D+00
 Coeff-Com:  0.929D-01 0.907D+00
 Coeff:      0.929D-01 0.907D+00
 Gap=     0.112 Goal=   None    Shift=    0.000
 RMSDP=4.55D-06 MaxDP=1.28D-04 DE=-5.11D-06 OVMax= 5.13D-04

 Cycle  10  Pass 1  IDiag  1:
 RMSU=  4.10D-06    CP:  1.00D+00  1.02D+00
 E= -922.720740547946     Delta-E=        0.000000478577 Rises=F Damp=F
 DIIS: error= 4.65D-05 at cycle   3 NSaved=   3.
 NSaved= 3 IEnMin= 2 EnMin= -922.720741026523     IErMin= 2 ErrMin= 3.07D-05
 ErrMax= 4.65D-05  0.00D+00 EMaxC= 1.00D-01 BMatC= 7.60D-07 BMatP= 3.39D-07
 IDIUse=1 WtCom= 1.00D+00 WtEn= 0.00D+00
 Coeff-Com: -0.681D-02 0.603D+00 0.404D+00
 Coeff:     -0.681D-02 0.603D+00 0.404D+00
 Gap=     0.112 Goal=   None    Shift=    0.000
 RMSDP=2.50D-06 MaxDP=7.60D-05 DE= 4.79D-07 OVMax= 3.13D-04

 Cycle  11  Pass 1  IDiag  1:
 RMSU=  6.62D-07    CP:  1.00D+00  1.02D+00  4.18D-01
 E= -922.720741407097     Delta-E=       -0.000000859151 Rises=F Damp=F
 DIIS: error= 1.72D-06 at cycle   4 NSaved=   4.
 NSaved= 4 IEnMin= 4 EnMin= -922.720741407097     IErMin= 4 ErrMin= 1.72D-06
 ErrMax= 1.72D-06  0.00D+00 EMaxC= 1.00D-01 BMatC= 5.41D-09 BMatP= 3.39D-07
 IDIUse=1 WtCom= 1.00D+00 WtEn= 0.00D+00
 Coeff-Com: -0.487D-02 0.337D+00 0.231D+00 0.437D+00
 Coeff:     -0.487D-02 0.337D+00 0.231D+00 0.437D+00
 Gap=     0.112 Goal=   None    Shift=    0.000
 RMSDP=2.88D-07 MaxDP=1.11D-05 DE=-8.59D-07 OVMax= 2.63D-05

 Cycle  12  Pass 1  IDiag  1:
 RMSU=  2.24D-07    CP:  1.00D+00  1.02D+00  4.31D-01  7.50D-01
 E= -922.720741412186     Delta-E=       -0.000000005090 Rises=F Damp=F
 DIIS: error= 4.69D-07 at cycle   5 NSaved=   5.
 NSaved= 5 IEnMin= 5 EnMin= -922.720741412186     IErMin= 5 ErrMin= 4.69D-07
 ErrMax= 4.69D-07  0.00D+00 EMaxC= 1.00D-01 BMatC= 1.53D-10 BMatP= 5.41D-09
 IDIUse=1 WtCom= 1.00D+00 WtEn= 0.00D+00
 Coeff-Com: -0.205D-02 0.135D+00 0.933D-01 0.219D+00 0.554D+00
 Coeff:     -0.205D-02 0.135D+00 0.933D-01 0.219D+00 0.554D+00
 Gap=     0.112 Goal=   None    Shift=    0.000
 RMSDP=6.38D-08 MaxDP=2.77D-06 DE=-5.09D-09 OVMax= 8.25D-06

 Cycle  13  Pass 1  IDiag  1:
 RMSU=  5.46D-08    CP:  1.00D+00  1.02D+00  4.29D-01  7.84D-01  8.99D-01
 E= -922.720741412302     Delta-E=       -0.000000000116 Rises=F Damp=F
 DIIS: error= 2.41D-07 at cycle   6 NSaved=   6.
 NSaved= 6 IEnMin= 6 EnMin= -922.720741412302     IErMin= 6 ErrMin= 2.41D-07
 ErrMax= 2.41D-07  0.00D+00 EMaxC= 1.00D-01 BMatC= 3.83D-11 BMatP= 1.53D-10
 IDIUse=1 WtCom= 1.00D+00 WtEn= 0.00D+00
 Coeff-Com: -0.466D-03 0.278D-01 0.193D-01 0.672D-01 0.354D+00 0.532D+00
 Coeff:     -0.466D-03 0.278D-01 0.193D-01 0.672D-01 0.354D+00 0.532D+00
 Gap=     0.112 Goal=   None    Shift=    0.000
 RMSDP=2.68D-08 MaxDP=1.08D-06 DE=-1.16D-10 OVMax= 3.85D-06

 Cycle  14  Pass 1  IDiag  1:
 RMSU=  1.81D-08    CP:  1.00D+00  1.02D+00  4.30D-01  7.90D-01  9.19D-01
                    CP:  6.62D-01
 E= -922.720741412332     Delta-E=       -0.000000000030 Rises=F Damp=F
 DIIS: error= 4.12D-08 at cycle   7 NSaved=   7.
 NSaved= 7 IEnMin= 7 EnMin= -922.720741412332     IErMin= 7 ErrMin= 4.12D-08
 ErrMax= 4.12D-08  0.00D+00 EMaxC= 1.00D-01 BMatC= 3.02D-12 BMatP= 3.83D-11
 IDIUse=1 WtCom= 1.00D+00 WtEn= 0.00D+00
 Coeff-Com:  0.440D-04-0.423D-02-0.290D-02 0.549D-02 0.104D+00 0.281D+00
 Coeff-Com:  0.616D+00
 Coeff:      0.440D-04-0.423D-02-0.290D-02 0.549D-02 0.104D+00 0.281D+00
 Coeff:      0.616D+00
 Gap=     0.112 Goal=   None    Shift=    0.000
 RMSDP=8.71D-09 MaxDP=3.00D-07 DE=-3.00D-11 OVMax= 8.15D-07

 SCF Done:  E(RPBE1PBE) =  -922.720741412     A.U. after   14 cycles
            NFock= 14  Conv=0.87D-08     -V/T= 2.0047
 KE= 9.183854138568D+02 PE=-5.778603853083D+03 EE= 2.129710432856D+03
 Leave Link  502 at Mon Mar  6 10:30:46 2023, MaxMem=  1048576000 cpu:             523.6 elap:             528.1
 (Enter /ssoft/spack/external/gaussian/g16-C.01/avx2/g16/l801.exe)
 DoSCS=F DFT=T ScalE2(SS,OS)=  1.000000  1.000000
 Range of M.O.s used for correlation:     1   447
 NBasis=   447 NAE=    83 NBE=    83 NFC=     0 NFV=     0
 NROrb=    447 NOA=    83 NOB=    83 NVA=   364 NVB=   364

 **** Warning!!: The largest alpha MO coefficient is  0.13582068D+02

 Leave Link  801 at Mon Mar  6 10:30:46 2023, MaxMem=  1048576000 cpu:               0.0 elap:               0.0
 (Enter /ssoft/spack/external/gaussian/g16-C.01/avx2/g16/l1101.exe)
 Using compressed storage, NAtomX=    48.
 Will process     49 centers per pass.
   1 Symmetry operations used in ECPInt.
 ECPInt:  NShTT=   22791 NPrTT=   80975 LenC2=   19744 LenP2D=   47829.
 LDataN:  DoStor=T MaxTD1= 5 Len=  102
 R6Disp: Adding Grimme-D3(BJ) dispersion energy 1st derivatives to the gradient.
 Leave Link 1101 at Mon Mar  6 10:30:47 2023, MaxMem=  1048576000 cpu:               1.0 elap:               1.0
 (Enter /ssoft/spack/external/gaussian/g16-C.01/avx2/g16/l1102.exe)
 Symmetrizing basis deriv contribution to polar:
 IMax=3 JMax=2 DiffMx= 0.00D+00
 Leave Link 1102 at Mon Mar  6 10:30:47 2023, MaxMem=  1048576000 cpu:               0.1 elap:               0.1
 (Enter /ssoft/spack/external/gaussian/g16-C.01/avx2/g16/l1110.exe)
 Forming Gx(P) for the SCF density, NAtomX=    48.
 Integral derivatives from FoFJK, PRISM(SPDF).
 Do as many integral derivatives as possible in FoFJK.
 G2DrvN: MDV=    1048570920.
 G2DrvN: will do    49 centers at a time, making    1 passes.
 Calling FoFCou, ICntrl=  3107 FMM=F I1Cent=   0 AccDes= 0.00D+00.
 FoFJK:  IHMeth= 1 ICntrl=    3107 DoSepK=F KAlg= 0 I1Cent=           0 FoldK=F
 IRaf=         0 NMat=       1 IRICut=       1 DoRegI=T DoRafI=F ISym2E= 0 IDoP0=0 IntGTp=1.
 FoFCou: FMM=F IPFlag=           0 FMFlag=      100000 FMFlg1=           0
         NFxFlg=           0 DoJE=F BraDBF=F KetDBF=F FulRan=T
         wScrn=  0.000000 ICntrl=      3107 IOpCl=  0 I1Cent=           0 NGrid=           0
         NMat0=    1 NMatS0=      1 NMatT0=    0 NMatD0=    1 NMtDS0=    0 NMtDT0=    0
 Symmetry not used in FoFCou.
 End of G2Drv F.D. properties file   721 does not exist.
 End of G2Drv F.D. properties file   722 does not exist.
 End of G2Drv F.D. properties file   788 does not exist.
 Leave Link 1110 at Mon Mar  6 10:53:54 2023, MaxMem=  1048576000 cpu:            1382.0 elap:            1386.8
 (Enter /ssoft/spack/external/gaussian/g16-C.01/avx2/g16/l1002.exe)
 Minotr:  Closed shell wavefunction.
          IDoAtm=111111111111111111111111111111111111111111111111
          Direct CPHF calculation.
          Differentiating once with respect to electric field.
                with respect to dipole field.
          Differentiating once with respect to nuclear coordinates.
          Requested convergence is 1.0D-08 RMS, and 1.0D-07 maximum.
          Secondary convergence is 1.0D-12 RMS, and 1.0D-12 maximum.
          NewPWx=T KeepS1=F KeepF1=F KeepIn=T MapXYZ=F SortEE=F KeepMc=T.
        14606 words used for storage of precomputed grid.
 Two-electron integrals replicated using symmetry.
          MDV=    1048576000 using IRadAn=       1.
          Solving linear equations simultaneously, MaxMat=     384.
 FoF2E skips out because all densities are zero.
 CalDSu exits because no D1Ps are significant.
 FoFJK:  IHMeth= 1 ICntrl=       0 DoSepK=F KAlg= 0 I1Cent=           0 FoldK=F
 IRaf= 750000000 NMat=     144 IRICut=     360 DoRegI=T DoRafI=T ISym2E= 2 IDoP0=3 IntGTp=3.
 FoFCou: FMM=F IPFlag=           0 FMFlag=      100000 FMFlg1=           0
         NFxFlg=           0 DoJE=F BraDBF=F KetDBF=F FulRan=T
         wScrn=  0.000000 ICntrl=         0 IOpCl=  0 I1Cent=           0 NGrid=           0
         NMat0=  144 NMatS0=    144 NMatT0=    0 NMatD0=  144 NMtDS0=    0 NMtDT0=    0
 Integrals replicated using symmetry in FoFCou.
 Raff kept on since  68.95% of shell-pairs survive, threshold=   0.20 IRatSp=69.
          There are   147 degrees of freedom in the 1st order CPHF.  IDoFFX=6 NUNeed=     3.
    144 vectors produced by pass  0 Test12= 3.02D-14 1.00D-09 XBig12= 2.86D+02 9.31D+00.
 AX will form   144 AO Fock derivatives at one time.
    144 vectors produced by pass  1 Test12= 3.02D-14 1.00D-09 XBig12= 4.09D+01 1.44D+00.
    144 vectors produced by pass  2 Test12= 3.02D-14 1.00D-09 XBig12= 2.95D-01 8.15D-02.
    144 vectors produced by pass  3 Test12= 3.02D-14 1.00D-09 XBig12= 1.29D-03 2.80D-03.
    144 vectors produced by pass  4 Test12= 3.02D-14 1.00D-09 XBig12= 2.65D-06 1.39D-04.
    131 vectors produced by pass  5 Test12= 3.02D-14 1.00D-09 XBig12= 3.09D-09 4.39D-06.
     30 vectors produced by pass  6 Test12= 3.02D-14 1.00D-09 XBig12= 3.12D-12 1.57D-07.
      3 vectors produced by pass  7 Test12= 3.02D-14 1.00D-09 XBig12= 3.35D-15 6.71D-09.
      2 vectors produced by pass  8 Test12= 3.02D-14 1.00D-09 XBig12= 1.01D-15 2.85D-09.
 InvSVY:  IOpt=1 It=  1 EMax= 1.07D-14
 Solved reduced A of dimension   886 with   147 vectors.
 FullF1:  Do perturbations      1 to       3.
 Isotropic polarizability for W=    0.000000      239.81 Bohr**3.
 End of Minotr F.D. properties file   721 does not exist.
 End of Minotr F.D. properties file   722 does not exist.
 End of Minotr F.D. properties file   788 does not exist.
 Leave Link 1002 at Mon Mar  6 11:43:38 2023, MaxMem=  1048576000 cpu:            2974.8 elap:            2984.1
 (Enter /ssoft/spack/external/gaussian/g16-C.01/avx2/g16/l601.exe)
 Copying SCF densities to generalized density rwf, IOpCl= 0 IROHF=0.

 **********************************************************************

            Population analysis using the SCF Density.

 **********************************************************************

 Orbital symmetries:
       Occupied  (A) (A) (A) (A) (A) (A) (A) (A) (A) (A) (A) (A)
                 (A) (A) (A) (A) (A) (A) (A) (A) (A) (A) (A) (A)
                 (A) (A) (A) (A) (A) (A) (A) (A) (A) (A) (A) (A)
                 (A) (A) (A) (A) (A) (A) (A) (A) (A) (A) (A) (A)
                 (A) (A) (A) (A) (A) (A) (A) (A) (A) (A) (A) (A)
                 (A) (A) (A) (A) (A) (A) (A) (A) (A) (A) (A) (A)
                 (A) (A) (A) (A) (A) (A) (A) (A) (A) (A) (A)
       Virtual   (A) (A) (A) (A) (A) (A) (A) (A) (A) (A) (A) (A)
                 (A) (A) (A) (A) (A) (A) (A) (A) (A) (A) (A) (A)
                 (A) (A) (A) (A) (A) (A) (A) (A) (A) (A) (A) (A)
                 (A) (A) (A) (A) (A) (A) (A) (A) (A) (A) (A) (A)
                 (A) (A) (A) (A) (A) (A) (A) (A) (A) (A) (A) (A)
                 (A) (A) (A) (A) (A) (A) (A) (A) (A) (A) (A) (A)
                 (A) (A) (A) (A) (A) (A) (A) (A) (A) (A) (A) (A)
                 (A) (A) (A) (A) (A) (A) (A) (A) (A) (A) (A) (A)
                 (A) (A) (A) (A) (A) (A) (A) (A) (A) (A) (A) (A)
                 (A) (A) (A) (A) (A) (A) (A) (A) (A) (A) (A) (A)
                 (A) (A) (A) (A) (A) (A) (A) (A) (A) (A) (A) (A)
                 (A) (A) (A) (A) (A) (A) (A) (A) (A) (A) (A) (A)
                 (A) (A) (A) (A) (A) (A) (A) (A) (A) (A) (A) (A)
                 (A) (A) (A) (A) (A) (A) (A) (A) (A) (A) (A) (A)
                 (A) (A) (A) (A) (A) (A) (A) (A) (A) (A) (A) (A)
                 (A) (A) (A) (A) (A) (A) (A) (A) (A) (A) (A) (A)
                 (A) (A) (A) (A) (A) (A) (A) (A) (A) (A) (A) (A)
                 (A) (A) (A) (A) (A) (A) (A) (A) (A) (A) (A) (A)
                 (A) (A) (A) (A) (A) (A) (A) (A) (A) (A) (A) (A)
                 (A) (A) (A) (A) (A) (A) (A) (A) (A) (A) (A) (A)
                 (A) (A) (A) (A) (A) (A) (A) (A) (A) (A) (A) (A)
                 (A) (A) (A) (A) (A) (A) (A) (A) (A) (A) (A) (A)
                 (A) (A) (A) (A) (A) (A) (A) (A) (A) (A) (A) (A)
                 (A) (A) (A) (A) (A) (A) (A) (A) (A) (A) (A) (A)
                 (A) (A) (A) (A) (A) (A) (A) (A) (A) (A) (A) (A)
                 (A) (A) (A) (A) (A) (A) (A) (A) (A) (A) (A) (A)
                 (A) (A) (A) (A) (A) (A) (A) (A) (A) (A) (A) (A)
                 (A) (A) (A) (A) (A) (A) (A) (A) (A) (A) (A) (A)
                 (A) (A) (A) (A) (A) (A) (A) (A) (A) (A) (A) (A)
                 (A) (A) (A) (A) (A) (A) (A) (A) (A) (A) (A) (A)
                 (A) (A) (A) (A)
 The electronic state is 1-A.
 Alpha  occ. eigenvalues --  -14.17134 -14.16863 -10.11550 -10.11461 -10.11258
 Alpha  occ. eigenvalues --  -10.11040 -10.10944 -10.10889 -10.10861 -10.10804
 Alpha  occ. eigenvalues --  -10.10599 -10.10532 -10.10491 -10.10482 -10.09644
 Alpha  occ. eigenvalues --  -10.09417 -10.09283 -10.09264 -10.06229 -10.05854
 Alpha  occ. eigenvalues --  -10.05541 -10.05372 -10.00672  -0.77534  -0.77262
 Alpha  occ. eigenvalues --   -0.75146  -0.74391  -0.68327  -0.67359  -0.66102
 Alpha  occ. eigenvalues --   -0.65978  -0.64122  -0.63708  -0.61130  -0.60617
 Alpha  occ. eigenvalues --   -0.56846  -0.53775  -0.52915  -0.52833  -0.52438
 Alpha  occ. eigenvalues --   -0.49019  -0.47940  -0.44600  -0.44004  -0.41230
 Alpha  occ. eigenvalues --   -0.38672  -0.38508  -0.38228  -0.36432  -0.35248
 Alpha  occ. eigenvalues --   -0.35134  -0.34318  -0.33960  -0.33745  -0.33424
 Alpha  occ. eigenvalues --   -0.31766  -0.31547  -0.31062  -0.30588  -0.30150
 Alpha  occ. eigenvalues --   -0.29460  -0.29381  -0.28595  -0.27839  -0.27480
 Alpha  occ. eigenvalues --   -0.26804  -0.25433  -0.25228  -0.25047  -0.24283
 Alpha  occ. eigenvalues --   -0.23324  -0.23105  -0.20836  -0.20763  -0.16238
 Alpha  occ. eigenvalues --   -0.15373  -0.15300  -0.14694  -0.14218  -0.11133
 Alpha  occ. eigenvalues --   -0.08271  -0.04759  -0.00747
 Alpha virt. eigenvalues --    0.10502   0.11001   0.11690   0.11721   0.16922
 Alpha virt. eigenvalues --    0.19170   0.19401   0.20556   0.20642   0.22093
 Alpha virt. eigenvalues --    0.22415   0.22989   0.23828   0.24471   0.24755
 Alpha virt. eigenvalues --    0.25703   0.25980   0.27108   0.27181   0.27569
 Alpha virt. eigenvalues --    0.27878   0.28748   0.29041   0.29302   0.30091
 Alpha virt. eigenvalues --    0.30794   0.31570   0.31732   0.32469   0.32709
 Alpha virt. eigenvalues --    0.33307   0.33867   0.35040   0.35289   0.36735
 Alpha virt. eigenvalues --    0.38331   0.38729   0.39269   0.39467   0.40289
 Alpha virt. eigenvalues --    0.41896   0.42266   0.42430   0.43072   0.43609
 Alpha virt. eigenvalues --    0.44800   0.45014   0.45966   0.46720   0.48447
 Alpha virt. eigenvalues --    0.48677   0.50451   0.52340   0.52739   0.53088
 Alpha virt. eigenvalues --    0.54784   0.55049   0.55580   0.56802   0.57579
 Alpha virt. eigenvalues --    0.58110   0.58903   0.59252   0.59841   0.60477
 Alpha virt. eigenvalues --    0.60675   0.61176   0.61445   0.61894   0.62448
 Alpha virt. eigenvalues --    0.62931   0.63577   0.64108   0.64531   0.64848
 Alpha virt. eigenvalues --    0.65129   0.65705   0.66133   0.66431   0.67289
 Alpha virt. eigenvalues --    0.68125   0.68817   0.69065   0.70309   0.71414
 Alpha virt. eigenvalues --    0.71430   0.73460   0.74526   0.74711   0.76056
 Alpha virt. eigenvalues --    0.76711   0.77893   0.78565   0.79123   0.79653
 Alpha virt. eigenvalues --    0.80693   0.81107   0.81811   0.81979   0.82369
 Alpha virt. eigenvalues --    0.83293   0.83563   0.83864   0.84164   0.84361
 Alpha virt. eigenvalues --    0.84772   0.85087   0.85229   0.85650   0.85774
 Alpha virt. eigenvalues --    0.86050   0.86394   0.86764   0.87047   0.87532
 Alpha virt. eigenvalues --    0.87745   0.88182   0.88363   0.88732   0.89286
 Alpha virt. eigenvalues --    0.89545   0.89807   0.90487   0.91433   0.91631
 Alpha virt. eigenvalues --    0.91675   0.92281   0.92498   0.92960   0.93287
 Alpha virt. eigenvalues --    0.93992   0.94255   0.95150   0.95601   0.96725
 Alpha virt. eigenvalues --    0.97070   0.97846   0.98325   0.98766   0.99876
 Alpha virt. eigenvalues --    1.00844   1.01578   1.02111   1.04028   1.05402
 Alpha virt. eigenvalues --    1.07776   1.08799   1.09677   1.10754   1.12362
 Alpha virt. eigenvalues --    1.13671   1.14359   1.16498   1.17723   1.18404
 Alpha virt. eigenvalues --    1.19825   1.21376   1.24572   1.25166   1.27179
 Alpha virt. eigenvalues --    1.29508   1.31007   1.32123   1.32505   1.33254
 Alpha virt. eigenvalues --    1.34931   1.35437   1.36610   1.37964   1.38202
 Alpha virt. eigenvalues --    1.39549   1.39758   1.41592   1.42130   1.42555
 Alpha virt. eigenvalues --    1.43694   1.44656   1.45486   1.46249   1.47271
 Alpha virt. eigenvalues --    1.48422   1.49218   1.51491   1.52343   1.55973
 Alpha virt. eigenvalues --    1.56990   1.57725   1.59241   1.61842   1.63401
 Alpha virt. eigenvalues --    1.66829   1.67421   1.68078   1.70564   1.73519
 Alpha virt. eigenvalues --    1.74120   1.75735   1.75986   1.77094   1.77542
 Alpha virt. eigenvalues --    1.77649   1.78156   1.79682   1.79934   1.81956
 Alpha virt. eigenvalues --    1.83122   1.84447   1.85938   1.87215   1.87427
 Alpha virt. eigenvalues --    1.88738   1.89505   1.89513   1.90246   1.90796
 Alpha virt. eigenvalues --    1.91131   1.91486   1.91791   1.92421   1.92520
 Alpha virt. eigenvalues --    1.94423   1.94906   1.95337   1.95987   1.96457
 Alpha virt. eigenvalues --    1.98515   1.99128   1.99483   2.01133   2.01678
 Alpha virt. eigenvalues --    2.02495   2.02895   2.03120   2.03863   2.04167
 Alpha virt. eigenvalues --    2.04370   2.04996   2.05544   2.05946   2.06531
 Alpha virt. eigenvalues --    2.06928   2.07512   2.08987   2.09830   2.10670
 Alpha virt. eigenvalues --    2.17319   2.17449   2.20216   2.20414   2.20731
 Alpha virt. eigenvalues --    2.21124   2.21489   2.22776   2.22976   2.23514
 Alpha virt. eigenvalues --    2.24180   2.24604   2.26189   2.27028   2.27404
 Alpha virt. eigenvalues --    2.28026   2.28138   2.29888   2.30140   2.30798
 Alpha virt. eigenvalues --    2.32241   2.32696   2.33422   2.33449   2.34315
 Alpha virt. eigenvalues --    2.35415   2.35775   2.37301   2.37520   2.38215
 Alpha virt. eigenvalues --    2.41555   2.41674   2.41825   2.42753   2.43815
 Alpha virt. eigenvalues --    2.44477   2.44918   2.45662   2.46794   2.47862
 Alpha virt. eigenvalues --    2.49226   2.52254   2.54384   2.55408   2.56152
 Alpha virt. eigenvalues --    2.57154   2.58438   2.58849   2.59248   2.61131
 Alpha virt. eigenvalues --    2.63816   2.65188   2.66797   2.67421   2.69153
 Alpha virt. eigenvalues --    2.70648   2.73924   2.75174   2.75297   2.77108
 Alpha virt. eigenvalues --    2.77578   2.79605   2.80252   2.80865   2.81984
 Alpha virt. eigenvalues --    2.83823   2.84116   2.85134   2.85838   2.86357
 Alpha virt. eigenvalues --    2.86815   2.88060   2.89395   2.90369   2.91855
 Alpha virt. eigenvalues --    2.95655   2.96865   2.98704   2.98963   3.06284
 Alpha virt. eigenvalues --    3.10758   3.13332   3.14894   3.15930   3.16349
 Alpha virt. eigenvalues --    3.17504   3.20521   3.22157   3.23180   3.23466
 Alpha virt. eigenvalues --    3.24742   3.25175   3.26473   3.26649   3.27387
 Alpha virt. eigenvalues --    3.27992   3.30165   3.30327   3.32162   3.33625
 Alpha virt. eigenvalues --    3.34265   3.34525   3.36411   3.38769   3.40431
 Alpha virt. eigenvalues --    3.42518   3.42780   3.47541   3.48287   3.52026
 Alpha virt. eigenvalues --    3.52912   3.55364   3.56859   3.60910   3.61453
 Alpha virt. eigenvalues --    3.63138   3.74561   4.02894   4.02945
     Molecular Orbital Coefficients:
                          79        80        81        82        83
                           O         O         O         O         O
     Eigenvalues --    -0.14218  -0.11133  -0.08271  -0.04759  -0.00747
   1 1   N  1S         -0.00158   0.00508  -0.06194   0.07530  -0.00678
   2        2S         -0.00365   0.00695  -0.11900   0.15203  -0.01350
   3        3S          0.00259   0.04533  -0.22402   0.27566  -0.03563
   4        4PX         0.02379   0.12980   0.25016  -0.26832  -0.15395
   5        4PY        -0.01083  -0.08960  -0.11685   0.11867   0.10967
   6        4PZ        -0.02346  -0.24586   0.18763  -0.21074   0.25384
   7        5PX        -0.01572  -0.09412  -0.16590   0.15589   0.13543
   8        5PY         0.00940   0.05809   0.11413  -0.11857  -0.08767
   9        5PZ         0.01315   0.16219  -0.13792   0.14111  -0.20867
  10        6D 0       -0.00175  -0.01320  -0.00180   0.00191   0.00929
  11        6D+1        0.00031  -0.00013   0.00919  -0.01203   0.00326
  12        6D-1        0.00080   0.00700  -0.00533   0.00454  -0.00017
  13        6D+2       -0.00050  -0.00107   0.00149  -0.00448  -0.00265
  14        6D-2       -0.00127  -0.00826  -0.00419   0.00295   0.00461
  15 2   N  1S         -0.01349   0.00137  -0.06359  -0.07356  -0.00677
  16        2S         -0.02933   0.00291  -0.12433  -0.14979  -0.01279
  17        3S         -0.02946  -0.00123  -0.21772  -0.25573  -0.03682
  18        4PX        -0.03536  -0.07718  -0.24599  -0.24908  -0.09404
  19        4PY        -0.02547   0.15964  -0.23361  -0.24262   0.16547
  20        4PZ         0.02394   0.24772   0.06705   0.05211   0.23657
  21        5PX         0.01588   0.04710   0.15766   0.13608   0.06929
  22        5PY         0.01878  -0.10561   0.18238   0.18375  -0.12620
  23        5PZ        -0.02302  -0.17256  -0.07400  -0.06931  -0.20294
  24        6D 0       -0.00321   0.01177  -0.00499  -0.00733   0.00243
  25        6D+1       -0.00107  -0.00623  -0.00165   0.00021  -0.00656
  26        6D-1       -0.00046  -0.00834  -0.00606  -0.00393  -0.00505
  27        6D+2        0.00143   0.00867   0.00009   0.00175   0.00640
  28        6D-2        0.00244   0.00186   0.00869   0.01039  -0.00207
  29 3   C  1S         -0.00022   0.00621  -0.02195   0.03021  -0.00324
  30        2S          0.00084  -0.01573   0.05377  -0.07163   0.00192
  31        3S         -0.00744  -0.01483  -0.04479  -0.05726   0.11657
  32        4PX        -0.02768  -0.14406   0.02748  -0.05860  -0.02144
  33        4PY         0.01069   0.09101  -0.08197   0.05412   0.01794
  34        4PZ         0.02972   0.19709   0.07315  -0.07091   0.03673
  35        5PX        -0.02047  -0.09337  -0.10770   0.07666   0.05191
  36        5PY         0.01360   0.06967  -0.01805   0.00494   0.03370
  37        5PZ         0.01712   0.15114  -0.02992   0.01958  -0.02352
  38        6D 0        0.00155   0.00881  -0.00606   0.00740  -0.00590
  39        6D+1        0.00055  -0.00311  -0.00685   0.00852   0.01557
  40        6D-1       -0.00018  -0.01031   0.00699  -0.00721   0.02265
  41        6D+2        0.00074   0.00606  -0.00243   0.00468  -0.01460
  42        6D-2        0.00080   0.00592   0.01718  -0.01949  -0.00965
  43 4   C  1S         -0.00379   0.00248  -0.03800   0.00061   0.00428
  44        2S          0.00827  -0.00594   0.09047  -0.00182  -0.00276
  45        3S          0.03803  -0.01803   0.27332  -0.02292  -0.17121
  46        4PX         0.00932   0.00579   0.00897   0.10496  -0.15929
  47        4PY        -0.00153   0.01663  -0.05940   0.03611   0.10555
  48        4PZ         0.03818  -0.00154   0.03562   0.04890   0.32307
  49        5PX         0.01693   0.00157   0.01431   0.08089  -0.15159
  50        5PY        -0.00635   0.00902  -0.10061   0.03378   0.14734
  51        5PZ         0.03090   0.00002   0.04972   0.04293   0.34530
  52        6D 0        0.00006  -0.00726   0.00002   0.00246  -0.00108
  53        6D+1       -0.00004  -0.00883  -0.00111   0.00410   0.00000
  54        6D-1       -0.00078  -0.00672  -0.00024  -0.00035   0.00083
  55        6D+2        0.00125   0.00650  -0.00124   0.00140  -0.00043
  56        6D-2       -0.00036  -0.00501  -0.00127  -0.00468  -0.00015
  57 5   C  1S         -0.00139  -0.00130  -0.02342  -0.03002  -0.00170
  58        2S          0.00459   0.00410   0.05878   0.07211  -0.00089
  59        3S         -0.04585  -0.00476  -0.05074   0.05654   0.06546
  60        4PX        -0.03053   0.08445  -0.01748  -0.05878  -0.01183
  61        4PY        -0.01379  -0.13590  -0.10572  -0.07159   0.02871
  62        4PZ         0.00355  -0.21456   0.03735   0.04162   0.03750
  63        5PX         0.00220   0.05736   0.10081   0.04583  -0.00636
  64        5PY         0.00847  -0.10151   0.02820   0.04171   0.00378
  65        5PZ         0.00624  -0.16357   0.00617   0.00235  -0.04618
  66        6D 0       -0.00065  -0.01397   0.00291   0.00365  -0.02835
  67        6D+1        0.00163  -0.00048   0.01202   0.01292  -0.01074
  68        6D-1       -0.00005   0.00503   0.00171   0.00114   0.00722
  69        6D+2        0.00195  -0.00634   0.00988   0.00963  -0.00005
  70        6D-2       -0.00315  -0.00590  -0.01475  -0.01650  -0.01012
  71 6   C  1S          0.00827  -0.00031   0.01819   0.02435  -0.00774
  72        2S         -0.02186   0.00158  -0.04270  -0.05526   0.02009
  73        3S         -0.00138   0.00045  -0.15783  -0.19118   0.02533
  74        4PX         0.00736  -0.02193   0.07927   0.09833  -0.02089
  75        4PY         0.02670   0.03197   0.09472   0.09411  -0.01456
  76        4PZ        -0.02773   0.06040  -0.02181  -0.02367  -0.00621
  77        5PX         0.02025  -0.01386   0.08126   0.11027  -0.01994
  78        5PY         0.00450   0.01454   0.08306   0.08922   0.03656
  79        5PZ        -0.01263   0.02759  -0.01320  -0.01044   0.06009
  80        6D 0       -0.00022  -0.00002   0.00089   0.00063  -0.00224
  81        6D+1        0.00086   0.00960   0.00062  -0.00048  -0.00393
  82        6D-1       -0.00200   0.00508  -0.00128  -0.00082  -0.00220
  83        6D+2       -0.00020  -0.00663  -0.00293  -0.00039   0.00030
  84        6D-2       -0.00238   0.00373  -0.00105  -0.00136  -0.00275
  85 7   H  1S         -0.01801   0.07181   0.01407   0.01033  -0.03127
  86        2S         -0.00529   0.05218   0.02294   0.02211  -0.08541
  87        3PX         0.00101   0.00014   0.00110   0.00151  -0.00035
  88        3PY         0.00027   0.00209   0.00313   0.00307  -0.00029
  89        3PZ         0.00061  -0.00135  -0.00197  -0.00165  -0.00081
  90 8   H  1S          0.02534   0.00061   0.03420   0.02046   0.00860
  91        2S          0.02401  -0.00015   0.05116   0.05146  -0.01744
  92        3PX         0.00061  -0.00116   0.00434   0.00401   0.00004
  93        3PY         0.00032   0.00160   0.00239   0.00289  -0.00004
  94        3PZ        -0.00032   0.00261   0.00017  -0.00047   0.00004
  95 9   H  1S         -0.00251  -0.07360   0.00540   0.01841   0.01964
  96        2S         -0.02588  -0.05030   0.02387   0.03644   0.04605
  97        3PX         0.00090  -0.00011   0.00065   0.00154  -0.00130
  98        3PY         0.00107  -0.00240   0.00311   0.00343  -0.00210
  99        3PZ        -0.00086   0.00126  -0.00079  -0.00100  -0.00072
 100 10  C  1S         -0.00093  -0.00101  -0.02297   0.02861   0.00017
 101        2S          0.00209  -0.00085   0.05970  -0.07746   0.00581
 102        3S          0.00915   0.02443   0.11232  -0.12010  -0.06630
 103        4PX         0.01039   0.01844   0.10897  -0.11994  -0.00148
 104        4PY        -0.00853  -0.02377   0.02281  -0.04498   0.01660
 105        4PZ        -0.00189  -0.05980   0.06261  -0.06468   0.03259
 106        5PX        -0.00519  -0.06642   0.05266  -0.06774   0.09358
 107        5PY        -0.00283  -0.00307   0.06320  -0.11285   0.01356
 108        5PZ         0.00566   0.03226   0.01510  -0.00493  -0.06950
 109        6D 0       -0.00054   0.00522  -0.00905   0.00924  -0.00564
 110        6D+1        0.00101   0.01004  -0.00694   0.00811  -0.01081
 111        6D-1        0.00117   0.00595   0.00177  -0.00103  -0.00788
 112        6D+2       -0.00135  -0.00904  -0.01149   0.01290   0.01143
 113        6D-2       -0.00059  -0.00405   0.00610  -0.00716   0.00380
 114 11  H  1S         -0.00324   0.05767  -0.09033   0.08980  -0.04493
 115        2S         -0.00252   0.05283  -0.11785   0.14376  -0.05872
 116        3PX         0.00036   0.00226   0.00324  -0.00411  -0.00086
 117        3PY        -0.00033  -0.00285   0.00120  -0.00148   0.00289
 118        3PZ        -0.00032  -0.00104  -0.00127   0.00110   0.00078
 119 12  C  1S         -0.00275  -0.00937  -0.01786   0.01765   0.01280
 120        2S          0.00625   0.01700   0.04096  -0.04204  -0.02594
 121        3S          0.01005   0.08040   0.13245  -0.15726  -0.09435
 122        4PX        -0.00557  -0.00035  -0.01462   0.01449  -0.00288
 123        4PY         0.01427   0.04983   0.05805  -0.05173  -0.04751
 124        4PZ         0.00261   0.01060   0.00398  -0.00354  -0.00015
 125        5PX        -0.00226   0.00068  -0.04392   0.05611   0.00122
 126        5PY         0.01076   0.04971   0.00795  -0.01222  -0.04146
 127        5PZ        -0.00162  -0.02359   0.01256  -0.00749   0.04699
 128        6D 0       -0.00016   0.00066  -0.00049   0.00064  -0.00133
 129        6D+1        0.00024   0.00134  -0.00198   0.00236  -0.00071
 130        6D-1       -0.00010  -0.00274   0.00156  -0.00184   0.00214
 131        6D+2       -0.00049  -0.00145  -0.00235   0.00262   0.00027
 132        6D-2       -0.00026  -0.00259  -0.00025  -0.00010   0.00319
 133 13  H  1S         -0.00423  -0.00605   0.00500  -0.00538  -0.00625
 134        2S         -0.00558  -0.04556  -0.01738   0.02274   0.06306
 135        3PX        -0.00017  -0.00058  -0.00125   0.00084   0.00108
 136        3PY         0.00025  -0.00014   0.00174  -0.00154   0.00104
 137        3PZ         0.00007   0.00083  -0.00026   0.00025  -0.00072
 138 14  H  1S         -0.00221  -0.02681  -0.01080   0.00773   0.02662
 139        2S         -0.00304  -0.02960  -0.05028   0.05792   0.05296
 140        3PX        -0.00024  -0.00080  -0.00026   0.00010   0.00052
 141        3PY         0.00037   0.00102   0.00178  -0.00147  -0.00172
 142        3PZ         0.00009   0.00072  -0.00044   0.00014  -0.00029
 143 15  C  1S         -0.00137   0.02054  -0.00639  -0.00774   0.02156
 144        2S          0.00449  -0.04791   0.02104   0.02490  -0.05282
 145        3S          0.02145  -0.15292   0.10223   0.07235  -0.20215
 146        4PX        -0.13422   0.05468  -0.00038  -0.00762   0.04320
 147        4PY        -0.20001  -0.05517   0.01975   0.01347  -0.05287
 148        4PZ         0.22020  -0.03233   0.00666   0.00892  -0.01765
 149        5PX        -0.09508   0.06631  -0.00276  -0.02520   0.04740
 150        5PY        -0.13071  -0.09171  -0.01469   0.04428  -0.09009
 151        5PZ         0.15591  -0.03866  -0.00613   0.04085  -0.03572
 152        6D 0       -0.00838   0.00135   0.00147   0.00120  -0.00005
 153        6D+1        0.00601   0.00050  -0.00065  -0.00084   0.00068
 154        6D-1       -0.00319  -0.00028  -0.00033  -0.00129  -0.00147
 155        6D+2       -0.00869   0.00279   0.00461   0.00423   0.00246
 156        6D-2       -0.00024   0.00075  -0.00252  -0.00354  -0.00140
 157 16  C  1S         -0.00067  -0.00654  -0.00445  -0.00424  -0.00748
 158        2S          0.00097   0.01401   0.01149   0.01184   0.01729
 159        3S          0.00657   0.01182  -0.02679   0.00369   0.04737
 160        4PX        -0.07100  -0.01691   0.00030  -0.00204  -0.02195
 161        4PY        -0.10834   0.02487   0.02470   0.01678   0.00910
 162        4PZ         0.10664  -0.01295  -0.02147  -0.01197  -0.00460
 163        5PX        -0.05107  -0.00633   0.00383   0.00234  -0.02186
 164        5PY        -0.08823   0.02432   0.02845   0.00482   0.01283
 165        5PZ         0.08269  -0.00607  -0.00499  -0.01181  -0.00449
 166        6D 0       -0.00296   0.00152   0.00053   0.00073   0.00135
 167        6D+1       -0.00930   0.00187  -0.00077  -0.00057   0.00145
 168        6D-1        0.00602   0.00015  -0.00037  -0.00006   0.00051
 169        6D+2        0.01094   0.00022   0.00079   0.00108   0.00036
 170        6D-2        0.00681   0.00180  -0.00055   0.00018   0.00219
 171 17  H  1S         -0.00188   0.01007  -0.00104   0.00171   0.00863
 172        2S         -0.00593   0.00692  -0.00650  -0.00099   0.00676
 173        3PX        -0.00245  -0.00048   0.00005   0.00007  -0.00052
 174        3PY        -0.00412   0.00066   0.00029   0.00007   0.00017
 175        3PZ         0.00384  -0.00085  -0.00101  -0.00044  -0.00029
[...]
 9,0.00001200,-0.00000515,0.00001813,-0.00001094,-0.00031079,0.00075503
 ,0.00009194,-0.00010037,-0.00029164,-0.00015436,0.00012683,-0.00002765
 ,0.00000167,-0.00003620,0.00011374,-0.00009450,0.00000609,-0.00001480,
 -0.00000884,-0.00004479,-0.00008101,-0.00006786,-0.00000074,0.00000254
 ,-0.00000384,0.00004657,0.00001837,0.00008001,-0.00000115,0.00000179,-
 0.00000846,0.00004826,-0.00004814,-0.00031625,-0.00001489,0.00001485,0
 .00008026,-0.00500791,0.00523876,0.00059807,-0.00137605,0.00044111,0.0
 0064727,0.00001033,0.00003335,-0.00004506,-0.00000813,-0.00000944,0.00
 001305,0.00001406,-0.00001024,-0.00002314,0.00000073,-0.00000062,-0.00
 000887,-0.00000742,0.00001165,0.00000938,-0.00000005,0.00000500,0.0000
 0344,-0.00000643,0.00001591,0.00000093,-0.00000159,0.00000568,0.000003
 05,-0.00000882,0.00000311,0.00002259,0.00000409,-0.00000347,-0.0000028
 3,0.00001197,0.00002111,0.00000221,0.00000927,0.00001636,0.00000760,0.
 00000674,0.00001123,-0.00000531,-0.00000051,-0.00000924,0.00000132,0.3
 0508246,-0.43866062,0.02738911,-0.00243059,0.00006022,-0.00348424,0.02
 140999,-0.01916729,0.00346838,-0.31771907,0.45052927,0.00007235,-0.000
 03780,-0.00005523,-0.00289996,-0.00025025,0.00025193,-0.00006852,0.000
 10354,-0.00000865,-0.00006061,-0.00012150,-0.00006565,-0.00000775,0.00
 017205,0.00007064,0.00020547,0.00004377,0.00007302,0.00009483,-0.00007
 136,-0.00012086,0.00003275,0.00009019,0.00006333,-0.00010963,-0.000002
 31,0.00012993,0.00000678,0.00002598,0.00001824,-0.00000001,-0.00000381
 ,-0.00000713,0.00000096,-0.00001187,-0.00000614,0.00000831,0.00000267,
 -0.00000748,-0.00000284,-0.00000307,0.00000109,0.00010840,-0.00135673,
 0.00248891,-0.00055808,-0.00004462,0.00007034,0.00015462,-0.00002062,0
 .00004404,-0.00003106,0.00004770,-0.00015946,0.00001570,-0.00000096,-0
 .00000600,-0.00004586,-0.00011297,0.00005077,-0.00000042,0.00000435,0.
 00000414,0.00009880,0.00003099,0.00011584,0.00001722,-0.00000962,0.000
 02407,-0.00006826,0.00047798,-0.00005761,0.00004760,-0.00000928,-0.000
 01329,0.01727637,-0.02208891,-0.00162149,0.00421238,0.00087998,-0.0031
 8471,-0.00001341,0.00000732,0.00002562,0.00001505,-0.00000683,-0.00001
 070,-0.00002142,-0.00000385,0.00001382,0.00000925,0.00000437,0.0000027
 6,0.00000812,-0.00000538,-0.00000816,-0.00000239,-0.00000160,-0.000000
 35,-0.00000019,0.00000420,0.00000131,0.00000036,0.00000092,-0.00000128
 ,0.00000309,-0.00000236,-0.00001311,-0.00000027,0.00000457,-0.00000071
 ,-0.00000598,0.00000365,0.00000924,-0.00000263,-0.00000261,-0.00000092
 ,0.00000051,-0.00000093,-0.00000062,0.00000005,0.00000074,-0.00000001,
 -0.02322964,0.02565480,-0.00298958,-0.02062624,0.03229111,0.00202169,0
 .00709946,-0.00776674,-0.00139151,0.01826492,-0.02790025,0.00429313,0.
 00181206,-0.00107000,0.00113771,0.00017108,-0.00002342,0.00008138,0.00
 033940,0.00008809,0.00010132,0.00005541,0.00010351,0.00002486,-0.00019
 626,-0.00006737,-0.00006374,0.00002061,-0.00000235,-0.00000460,0.00000
 114,0.00000623,-0.00000218,0.00000549,-0.00000648,0.00000112,-0.000000
 77,0.00000088,0.00000216,-0.01772844,-0.00415624,0.00371753,-0.0009672
 2,0.00066782,-0.00376977,-0.59984622,-0.12723933,0.13916010,-0.0065652
 1,-0.00473079,-0.00297311,0.00197983,0.00469724,-0.00178767,-0.0000007
 4,0.00000927,-0.00002464,0.00000286,-0.00000244,0.00001422,-0.00000349
 ,-0.00000203,-0.00000043,-0.00000297,-0.00000457,-0.00000543,-0.000001
 54,-0.00000082,0.00000087,0.00000350,-0.00000299,0.00000450,-0.0000030
 2,0.00000060,-0.00000118,0.00000756,-0.00001238,0.00000412,-0.00000716
 ,0.00000685,0.00001045,0.00002722,0.00000747,0.00001884,-0.00003290,0.
 00003555,-0.00000221,-0.00001547,-0.00001678,-0.00001939,-0.00000006,-
 0.00000169,0.00000470,0.00092736,0.00072393,0.00188306,0.00023162,-0.0
 0004413,-0.00044270,0.00004178,0.00000384,0.00001341,-0.00017852,0.000
 10118,0.00000967,0.00003660,-0.00009768,-0.00001231,0.00002860,0.00000
 453,0.00000968,-0.00009234,-0.00006300,-0.00006377,0.00000580,-0.00001
 044,-0.00001496,0.00013480,-0.00025576,-0.00009875,0.00000553,0.000043
 68,-0.00000319,0.00006473,-0.00004736,-0.00001886,-0.00001072,-0.00002
 121,0.00010071,0.00008470,-0.00003766,-0.00008136,0.00008517,0.0000930
 0,-0.00001479,0.00000575,0.00001406,0.00000780,-0.00000230,-0.00000133
 ,0.00000462,0.00000659,-0.00000043,-0.00000403,0.00000279,0.00000037,-
 0.00000282,0.61957289,-0.00016361,0.00136777,-0.00118630,0.00005860,0.
 00011319,-0.00004924,0.00033792,-0.00067155,0.00008486,-0.00006799,0.0
 0033292,0.00002243,-0.00008699,-0.00011399,-0.00002590,-0.00002147,0.0
 0002774,-0.00000574,0.00000741,0.00001672,-0.00000218,-0.00001116,-0.0
 0000299,-0.00000239,0.00000102,0.00000856,0.00000504,0.00808479,0.0009
 8110,-0.00177583,0.00079312,0.00022135,0.00152949,-0.12536888,-0.02978
 895,0.02590609,0.02485923,0.00560912,-0.00336539,-0.03898956,-0.003490
 12,0.00698722,0.00001435,0.00002350,0.00001889,-0.00000161,-0.00000707
 ,0.00000232,0.00000271,0.00000268,-0.00000418,0.00001455,0.00001729,0.
 00001778,0.00000392,0.00000508,0.00000419,0.00001004,0.00000697,0.0000
 1269,0.00000558,0.00000472,0.00000809,-0.00001239,0.00003353,-0.000031
 95,0.00000387,-0.00000984,-0.00000917,-0.00007427,-0.00000787,0.000002
 70,0.00009210,-0.00007805,-0.00005175,-0.00006724,-0.00007431,-0.00000
 688,0.00000167,0.00003248,0.00000077,-0.00041800,0.00009998,-0.0002368
 6,-0.00000548,0.00000887,-0.00015204,-0.00002890,0.00004429,0.00007792
 ,-0.00000878,0.00009583,0.00012862,-0.00003099,-0.00015214,0.00006144,
 -0.00002058,-0.00000273,-0.00000445,0.00029412,0.00002363,-0.00021214,
 -0.00002314,-0.00000462,-0.00000804,0.00007906,-0.00020810,0.00032930,
 -0.00023738,0.00003726,-0.00001682,-0.00013452,-0.00010893,0.00000533,
 -0.00006954,-0.00003372,-0.00003752,-0.00009782,-0.00002588,0.00000813
 ,-0.00001585,-0.00004193,0.00001107,0.00002349,0.00001054,0.00000018,-
 0.00001050,-0.00000051,-0.00000001,0.00001165,0.00001489,-0.00000090,-
 0.00000997,-0.00000916,0.00000738,0.13131316,0.02565430,0.00229877,-0.
 00263295,0.00171384,-0.00024644,-0.00002338,-0.00015622,-0.00025392,0.
 00042653,-0.00013255,0.00000768,-0.00042070,-0.00004084,0.00035051,0.0
 0017787,0.00011114,-0.00001715,-0.00000035,0.00002464,-0.00000287,-0.0
 0001617,0.00000524,-0.00000107,0.00000402,0.00000048,0.00000245,-0.000
 00239,-0.00000592,-0.03378452,-0.00693868,0.00316157,-0.00361909,0.001
 75093,-0.00534593,0.13568707,0.02597944,-0.02770349,0.02840281,0.00983
 069,-0.00411550,0.00857087,-0.00062483,-0.00368038,-0.00000861,-0.0000
 4163,0.00007453,-0.00000560,0.00001428,-0.00003059,0.00000701,0.000005
 90,0.00000332,0.00000044,0.00000570,0.00000079,0.00000389,-0.00000081,
 -0.00000460,-0.00002334,0.00000299,-0.00002486,0.00000514,-0.00000549,
 -0.00000155,-0.00002063,0.00002494,0.00000408,0.00002297,-0.00001575,-
 0.00002901,-0.00004716,0.00003464,-0.00002969,0.00007610,-0.00005386,0
 .00003665,0.00006420,0.00008888,0.00004777,0.00000070,-0.00001652,-0.0
 0001746,-0.00112872,-0.00009722,0.00285098,0.00035638,0.00037053,-0.00
 004653,-0.00002799,-0.00000199,-0.00003483,-0.00010237,0.00007551,0.00
 002081,-0.00003293,-0.00005336,0.00011600,0.00000975,0.00000569,0.0000
 0953,0.00002735,-0.00009532,-0.00013855,-0.00000459,0.00001028,-0.0000
 0905,0.00042693,-0.00005067,0.00026473,-0.00005947,0.00004635,0.000003
 24,-0.00011322,0.00019291,-0.00018333,-0.00000986,0.00005825,0.0001774
 2,0.00011404,-0.00005730,-0.00012306,0.00001796,0.00014759,0.00000187,
 -0.00002861,-0.00002906,-0.00002326,0.00000620,0.00000898,-0.00001260,
 -0.00001408,-0.00001145,0.00000806,0.00000746,0.00000646,0.00000997,-0
 .13689938,-0.02805123,0.03323620,0.00010345,-0.00006019,-0.00008573,-0
 .00008199,-0.00000479,-0.00002354,0.00004835,0.00005670,0.00000278,-0.
 00002534,-0.00004375,-0.00005712,0.00009007,0.00003332,0.00002171,-0.0
 0000670,0.00000259,0.00000058,0.00000097,-0.00000078,0.00000264,-0.000
 00452,0.00000287,0.00000146,-0.00000037,-0.00000014,-0.00000212,-0.000
 25311,-0.00053931,0.00010489,0.00000180,-0.00001315,0.00013256,0.00000
 272,0.00017804,0.00016337,0.00003595,0.00001489,0.00005985,-0.00003443
 ,-0.00000873,-0.00005657,-0.00000683,-0.00000724,0.00000547,-0.0000028
 9,0.00000290,-0.00000436,0.00000147,-0.00000130,0.00000012,-0.00000273
 ,-0.00000056,-0.00000064,0.00000089,-0.00000078,-0.00000110,-0.0000023
 6,0.00000068,-0.00000184,0.00000087,-0.00000090,-0.00000029,-0.0000020
 5,0.00000117,0.00000101,0.00000131,-0.00000124,-0.00000170,-0.00000174
 ,0.00000288,-0.00000201,0.00000293,-0.00000341,0.00000435,0.00002179,0
 .00002047,0.00000442,-0.00000196,-0.00000128,0.00000195,0.00709675,0.0
 0229109,0.00394080,0.00578891,-0.00628405,0.00953198,-0.00564614,-0.00
 109276,-0.00224256,0.00638909,-0.05145676,0.11725661,0.00806862,0.0039
 3608,-0.00534667,-0.00555444,-0.00183434,-0.00183403,0.00766223,0.0029
 7388,0.00157552,0.00051417,0.00021994,-0.00031138,-0.00110126,0.000706
 58,0.00019024,-0.00138139,-0.00021032,-0.00041491,-0.00001741,0.000027
 88,0.00001591,0.00003320,-0.00003884,0.00001427,0.00000620,-0.00001517
 ,-0.00002139,-0.00001429,0.00001771,0.00000272,-0.00000478,-0.00001118
 ,0.00000166,0.00000561,-0.00000282,-0.00000156,-0.00000592,-0.00000003
 ,0.00000266,-0.00000219,0.00000297,-0.00000620,-0.00000762,-0.00000264
 ,-0.00002800,-0.02170266,0.00002317,-0.00004308,0.00020223,-0.00005481
 ,0.00001044,0.00002756,-0.00007653,0.00009416,-0.00000974,-0.00000750,
 -0.00010339,0.00004748,0.00006621,0.00001241,0.00001252,-0.00000140,0.
 00000390,0.00000357,-0.00000090,-0.00000584,-0.00000234,0.00000043,-0.
 00000022,-0.00000275,0.00000001,0.00000044,0.00000147,-0.00007466,0.00
 072320,-0.00061461,0.00004143,-0.00006567,-0.00009855,0.00011351,-0.00
 011044,-0.00014168,-0.00004739,0.00002153,-0.00005991,0.00000191,0.000
 00432,-0.00000115,-0.00000680,0.00000056,-0.00001006,0.00000094,0.0000
 0021,0.00000320,-0.00000071,-0.00000183,-0.00000152,-0.00000055,0.0000
 0015,-0.00000043,0.00000046,0.00000060,0.00000048,0.00000104,0.0000000
 9,0.00000368,0.00000025,-0.00000001,0.00000086,-0.00000062,-0.00000038
 ,-0.00000104,0.00000007,-0.00000025,0.00000127,0.00000110,-0.00000036,
 0.00000525,0.00000056,0.00000099,-0.00000234,0.00000416,-0.00000110,-0
 .00000682,-0.00000156,0.00000191,0.00000292,0.00290299,-0.00151285,-0.
 00357587,0.00515449,0.01366171,-0.02166699,-0.00168723,0.00080325,0.00
 105114,-0.05219649,-0.15459969,0.31338051,-0.00645244,-0.00891127,0.03
 334171,-0.00130411,0.00199021,-0.00132059,0.00293569,-0.00629428,0.000
 04439,-0.00043101,-0.00055099,0.00160371,0.00025479,-0.00071495,-0.000
 83529,-0.00031192,-0.00000398,-0.00005924,0.00001004,-0.00000448,0.000
 01827,0.00001402,0.00001285,-0.00001677,-0.00000649,0.00000782,0.00000
 552,0.00000627,-0.00000359,-0.00000312,0.00000062,0.00000062,-0.000000
 97,0.00000251,-0.00000919,0.00000221,-0.00000174,0.00000397,0.00000464
 ,-0.00000492,-0.00000018,-0.00000701,-0.00000783,0.00000670,0.00000891
 ,0.05113254,0.15558394,0.00024808,-0.00021895,0.00020688,-0.00019585,-
 0.00001846,-0.00000850,-0.00035883,0.00036746,-0.00012784,-0.00004246,
 -0.00033295,0.00005295,0.00024782,0.00011052,0.00007342,-0.00000619,-0
 .00000429,0.00000816,-0.00000456,-0.00001643,0.00000062,0.00000212,0.0
 0000533,-0.00000228,0.00000007,-0.00000324,-0.00000230,-0.00013688,0.0
 0114214,-0.00038661,0.00005625,-0.00012641,-0.00019026,0.00019237,-0.0
 0019392,-0.00016748,-0.00006683,0.00003512,-0.00009557,0.00000720,0.00
 001039,0.00000472,-0.00001884,-0.00001474,-0.00000421,-0.00000161,0.00
 000305,-0.00000426,-0.00000004,-0.00000272,0.00000040,-0.00000523,-0.0
 0000434,-0.00000384,-0.00000044,-0.00000134,-0.00000171,-0.00000158,-0
 .00000144,0.00000018,0.,-0.00000049,-0.00000093,-0.00000107,-0.0000017
 6,0.00000095,0.00000112,0.00000103,0.00000254,0.00000361,0.00000422,0.
 00000286,0.00000285,0.00000460,0.00000711,0.00004493,0.00004666,-0.000
 00040,-0.00000229,-0.00000889,0.00000273,0.00340666,-0.00319624,-0.001
 90292,0.00332068,0.01530547,-0.01447668,-0.00197548,-0.00016290,0.0011
 5692,0.11667699,0.31549230,-0.60300452,0.00186993,-0.00627708,0.004894
 42,-0.00186943,0.00029239,0.00006634,0.00167110,0.00029919,0.00234795,
 0.00007676,-0.00015421,0.00008586,-0.00016249,-0.00102477,0.00038351,-
 0.00038926,-0.00001154,-0.00016468,0.00003600,0.00000030,0.00002701,-0
 .00001292,0.00001686,-0.00002638,-0.00000952,0.00000944,0.00000807,0.0
 0001524,-0.00001686,-0.00000095,-0.00001196,-0.00001536,-0.00000171,0.
 00000960,-0.00000798,0.00000014,-0.00001162,-0.00000123,0.00000629,-0.
 00000247,0.00000524,-0.00001122,-0.00001544,0.00001262,0.00001790,-0.1
 2260020,-0.32132190,0.61123837,0.00115365,0.00073130,-0.00099954,-0.00
 075870,-0.00396874,-0.00217415,-0.00148886,-0.00607223,0.00102831,-0.5
 5393715,0.20671816,-0.29970184,-0.01776050,0.01097039,-0.00667141,-0.0
 0050542,0.00139055,0.00297559,0.00012962,-0.00050777,-0.00015980,0.001
 26720,-0.00024968,-0.00009922,0.00048295,0.00057371,0.00013145,0.00040
 154,-0.00033297,-0.00106296,0.00008492,0.00019064,-0.00003228,0.000024
 63,0.00028083,-0.00006870,0.00000664,0.00000034,0.00002265,-0.00006769
 ,0.00004979,-0.00008379,-0.00022270,-0.00030452,0.00013585,-0.00002435
 ,0.00003407,-0.00016472,0.00000376,0.00000527,0.00001799,-0.00003429,-
 0.00004784,-0.00000823,-0.00000747,-0.00000775,-0.00002127,-0.00000499
 ,0.00000304,-0.00002648,-0.00000202,-0.00000053,-0.00000777,-0.0000014
 5,0.00000221,0.00000233,0.00000232,0.00000449,-0.00000401,0.00005427,0
 .00003599,0.00000083,0.00003730,-0.00001955,0.00005651,-0.00045894,-0.
 00008082,-0.00104137,0.00000279,-0.00015068,-0.00003753,0.00004652,-0.
 00030863,-0.00007572,-0.00002686,-0.00000680,0.00006945,0.00001994,-0.
 00001671,-0.00008143,0.00001036,0.00000690,-0.00000964,-0.00001122,0.0
 0001419,0.00003228,-0.00000367,0.00000468,0.00000235,0.00001211,-0.000
 00931,-0.00000021,0.00000587,0.00000171,0.00000170,-0.00001206,-0.0000
 0908,-0.00001841,-0.00000464,-0.00001614,-0.00000618,-0.00079342,-0.00
 183484,0.00228848,0.00035054,0.00017480,0.00010635,-0.00006880,-0.0005
 9469,0.00005173,0.00097556,-0.00095808,0.00013030,0.00007868,-0.000018
 39,-0.00008159,0.00000756,0.00002114,0.00002782,-0.00001113,-0.0000009
 4,0.00002243,0.00001257,0.00003621,0.00001082,0.00000213,-0.00003309,0
 .00001293,-0.00001223,0.00000839,0.00001409,0.57104512,-0.00093982,-0.
 00664153,0.00132014,-0.00270412,-0.00383382,-0.00127474,0.03189139,-0.
 00930110,0.01345359,0.20526559,-0.05960928,0.10351022,-0.02567407,0.00
 667341,-0.01095421,-0.00158992,-0.00011474,-0.00093895,-0.00001425,0.0
 0003505,-0.00012623,-0.00033785,-0.00092281,-0.00034976,-0.00001925,-0
 .00006348,0.00011445,0.00100000,-0.00042494,0.00032281,-0.00010480,-0.
 00005882,0.00004809,-0.00006390,-0.00048732,0.00003159,-0.00003200,0.0
 0004487,-0.00003177,0.00011109,-0.00008116,0.00015773,-0.00003690,-0.0
 0012134,0.00017678,-0.00001543,0.00002075,-0.00010128,0.00000666,0.000
 01048,0.00001793,-0.00001265,-0.00002309,-0.00000575,-0.00000395,-0.00
 000486,-0.00001418,-0.00001540,-0.00000248,-0.00003871,-0.00000158,-0.
 00000222,-0.00000674,0.00000259,0.00000676,0.00000712,-0.00000010,-0.0
 0000107,-0.00002061,-0.00001333,0.00001424,-0.00005935,-0.00001489,-0.
 00004976,0.00002673,-0.00116727,0.00020121,0.00049698,0.00005787,-0.00
 000497,-0.00000606,-0.00007489,-0.00012821,0.00033653,-0.00000196,-0.0
 0001626,-0.00009999,0.00000266,0.00003687,0.00012210,-0.00001000,-0.00
 000609,-0.00000360,0.00002087,-0.00002801,-0.00005631,0.00000525,-0.00
 000894,-0.00000823,0.00000196,-0.00005388,0.00002636,0.00000955,-0.000
 02039,-0.00001754,0.00005966,-0.00007220,-0.00017789,-0.00000389,0.000
 02586,0.00001678,0.00173004,0.00003519,0.00027858,-0.00017414,0.000107
 10,0.00004768,-0.00009402,0.00009463,-0.00018450,-0.00099013,-0.000635
 35,-0.00026471,-0.00025568,-0.00036433,-0.00018465,0.00004176,0.000011
 14,-0.00000900,-0.00016131,-0.00003470,0.00009901,0.00001297,0.0000250
 8,-0.00001504,0.00000526,0.00003145,-0.00003718,0.00001127,-0.00000799
 ,-0.00002390,-0.20570898,0.07575102,-0.00061606,0.00071356,0.00224272,
 -0.00263976,-0.00142858,0.00101506,-0.00207528,-0.00322961,-0.00314853
 ,-0.30299098,0.10269574,-0.08703446,0.00021991,0.00702290,-0.00265909,
 0.00141264,0.00178081,-0.00418687,0.00060427,0.00095951,0.00025195,0.0
 0028869,-0.00093951,0.00097472,-0.00034412,-0.00092700,0.00006144,-0.0
 0069660,0.00010939,0.00286434,-0.00002389,-0.00007316,-0.00000795,0.00
 003047,-0.00048376,0.00013062,-0.00003654,-0.00005133,-0.00001479,0.00
 012979,-0.00005107,0.00012115,0.00030114,0.00023876,0.00017786,0.00000
 873,-0.00000496,0.00006447,0.00000435,0.00001210,0.00001976,0.00000590
 ,0.00000489,-0.00001513,-0.00000480,-0.00000303,-0.00000103,-0.0000209
 5,-0.00001900,-0.00006801,-0.00001028,-0.00000559,-0.00001196,-0.00000
 397,-0.00002815,0.00002875,-0.00000691,0.00001307,-0.00002056,0.000021
 52,0.00007015,-0.00011190,-0.00000349,-0.00003311,0.00015767,-0.000207
 52,0.00090131,0.00307511,-0.00002921,-0.00019680,-0.00002755,-0.000002
 06,0.00079877,-0.00012816,0.00008479,-0.00002436,-0.00005507,-0.000047
 79,-0.00003821,0.00000885,-0.00000562,0.00000563,0.00001000,0.00001293
 ,-0.00000378,-0.00001130,-0.00000392,-0.00000060,0.00000152,-0.0000270
 3,0.00007426,-0.00001431,-0.00002159,0.00001434,0.00001123,-0.00002984
 ,0.00006437,0.00017413,0.00000922,0.00000847,-0.00000423,0.00190043,-0
 .00182622,-0.00458340,-0.00019415,-0.00107949,0.00029790,0.00029869,0.
 00115420,0.00011005,-0.00002161,0.00026636,0.00112680,-0.00059464,-0.0
 0081168,-0.00022553,0.00007134,0.00002648,-0.00006538,-0.00033062,-0.0
 0009031,0.00016983,0.00007015,0.00003497,-0.00004194,0.00001388,-0.000
 00763,-0.00001092,0.00000437,-0.00001279,-0.00001103,0.30549601,-0.105
 60029,0.08936316\\-0.00835305,-0.00891304,0.00011102,-0.00178677,0.012
 25007,0.00354906,0.02582052,-0.01499443,0.01016775,0.11536776,-0.03977
 287,0.05396745,0.03178270,-0.00828144,0.00882828,0.03980541,-0.0997119
 0,-0.00561367,0.05717553,0.06843906,-0.06776054,-0.10477115,-0.0038489
 7,-0.03363724,0.00320491,0.04348160,0.10244489,0.07522705,0.05336710,-
 0.02906333,-0.08458350,-0.03094478,0.01988457,-0.06129898,0.01494237,-
 0.09156139,-0.03479867,0.06489573,0.08334647,-0.00898922,-0.10837066,0
 .02915851,0.00515016,0.01019341,-0.00490352,-0.05550834,-0.09830035,0.
 08061216,0.05545760,0.10270099,-0.09419438,-0.08193556,-0.09691078,-0.
 04565640,0.09175598,0.10924884,0.04858790,-0.03206933,-0.00696708,-0.1
 2939815,0.03630897,0.00648124,0.14471509,0.04505149,0.09520654,-0.0936
 2564,-0.05302506,-0.10496815,0.09380913,0.08171456,0.09522116,0.046814
 42,-0.09082676,-0.10869390,-0.05245854,0.01915630,-0.09010218,-0.00007
 139,-0.04411938,0.08003345,-0.00331587,-0.00386111,-0.00571501,0.02203
 747,0.02537105,-0.13212561,-0.00196855,-0.02164974,0.14660459,-0.01180
 175,-0.02700960,-0.05299419,0.13101248,-0.04448229,0.07447230,0.092931
 17,0.05165026,-0.07996172,-0.11645280,-0.02622333,0.13437289,0.0119102
 9,0.02080268,-0.15091073,0.01453053,0.03159289,0.06395021,-0.13209447,
 -0.02860781,-0.06980199,0.12922196,0.09063928,0.05940693,0.01639094,0.
 02197652,-0.08850639,-0.06466616,-0.04491542,-0.03779493,0.09550514,-0
 .07369520,0.06438845,-0.05039443,-0.07747499,-0.00936391,0.07454371,-0
 .04172242,0.01009595,-0.10147290,0.06243515,0.09012582,0.02427115,0.06
 337770,-0.09229437,0.00451071,0.10700877,0.02452982,-0.02358774,0.0244
 2326,0.06916443,-0.13121580,-0.13054882,0.04667643,-0.05794759\\\@
 The archive entry for this job was punched.

 Writing a WFNX file to "TULZIK_Complex_0_Ligand_1_NN_Cu_oriented.wfx"


 SUCCESS-- IF YOU HAVE TRIED TO DO SOMETHING AND FAILED
           YOU ARE BETTER OFF THAN IF YOU HAD TRIED TO DO
           NOTHING AND SUCCEEDED.

                   -- FROM THE BACK OF A SUGAR PACKET
 Job cpu time:       0 days  1 hours 54 minutes 43.6 seconds.
 Elapsed time:       0 days  1 hours 55 minutes 10.1 seconds.
 File lengths (MBytes):  RWF=   1224 Int=      0 D2E=      0 Chk=     20 Scr=      8
 Normal termination of Gaussian 16 at Mon Mar  6 12:16:50 2023.
