 Entering Gaussian System, Link 0=g16
 Initial command:
 /ssoft/spack/external/gaussian/g16-C.01/avx2/g16/l1.exe "/scratch/lcmd/2316163/Gau-1366489.inp" -scrdir="/scratch/lcmd/2316163/"
 Entering Link 1 = /ssoft/spack/external/gaussian/g16-C.01/avx2/g16/l1.exe PID=   1366491.
  
 Copyright (c) 1988-2019, Gaussian, Inc.  All Rights Reserved.
  
 This is part of the Gaussian(R) 16 program.  It is based on
 the Gaussian(R) 09 system (copyright 2009, Gaussian, Inc.),
 the Gaussian(R) 03 system (copyright 2003, Gaussian, Inc.),
 the Gaussian(R) 98 system (copyright 1998, Gaussian, Inc.),
 the Gaussian(R) 94 system (copyright 1995, Gaussian, Inc.),
 the Gaussian 92(TM) system (copyright 1992, Gaussian, Inc.),
 the Gaussian 90(TM) system (copyright 1990, Gaussian, Inc.),
 the Gaussian 88(TM) system (copyright 1988, Gaussian, Inc.),
 the Gaussian 86(TM) system (copyright 1986, Carnegie Mellon
 University), and the Gaussian 82(TM) system (copyright 1983,
 Carnegie Mellon University). Gaussian is a federally registered
 trademark of Gaussian, Inc.
  
 This software contains proprietary and confidential information,
 including trade secrets, belonging to Gaussian, Inc.
  
 This software is provided under written license and may be
 used, copied, transmitted, or stored only in accord with that
 written license.
  
 The following legend is applicable only to US Government
 contracts under FAR:
  
                    RESTRICTED RIGHTS LEGEND
  
 Use, reproduction and disclosure by the US Government is
 subject to restrictions as set forth in subparagraphs (a)
 and (c) of the Commercial Computer Software - Restricted
 Rights clause in FAR 52.227-19.
  
 Gaussian, Inc.
 340 Quinnipiac St., Bldg. 40, Wallingford CT 06492
  
  
 ---------------------------------------------------------------
 Warning -- This program may not be used in any manner that
 competes with the business of Gaussian, Inc. or will provide
 assistance to any competitor of Gaussian, Inc.  The licensee
 of this program is prohibited from giving any competitor of
 Gaussian, Inc. access to this program.  By using this program,
 the user acknowledges that Gaussian, Inc. is engaged in the
 business of creating and licensing software in the field of
 computational chemistry and represents and warrants to the
 licensee that it is not a competitor of Gaussian, Inc. and that
 it will not use this program in any manner prohibited above.
 ---------------------------------------------------------------
  

 Cite this work as:
 Gaussian 16, Revision C.01,
 M. J. Frisch, G. W. Trucks, H. B. Schlegel, G. E. Scuseria, 
 M. A. Robb, J. R. Cheeseman, G. Scalmani, V. Barone, 
 G. A. Petersson, H. Nakatsuji, X. Li, M. Caricato, A. V. Marenich, 
 J. Bloino, B. G. Janesko, R. Gomperts, B. Mennucci, H. P. Hratchian, 
 J. V. Ortiz, A. F. Izmaylov, J. L. Sonnenberg, D. Williams-Young, 
 F. Ding, F. Lipparini, F. Egidi, J. Goings, B. Peng, A. Petrone, 
 T. Henderson, D. Ranasinghe, V. G. Zakrzewski, J. Gao, N. Rega, 
 G. Zheng, W. Liang, M. Hada, M. Ehara, K. Toyota, R. Fukuda, 
 J. Hasegawa, M. Ishida, T. Nakajima, Y. Honda, O. Kitao, H. Nakai, 
 T. Vreven, K. Throssell, J. A. Montgomery, Jr., J. E. Peralta, 
 F. Ogliaro, M. J. Bearpark, J. J. Heyd, E. N. Brothers, K. N. Kudin, 
 V. N. Staroverov, T. A. Keith, R. Kobayashi, J. Normand, 
 K. Raghavachari, A. P. Rendell, J. C. Burant, S. S. Iyengar, 
 J. Tomasi, M. Cossi, J. M. Millam, M. Klene, C. Adamo, R. Cammi, 
 J. W. Ochterski, R. L. Martin, K. Morokuma, O. Farkas, 
 J. B. Foresman, and D. J. Fox, Gaussian, Inc., Wallingford CT, 2019.
 
 ******************************************
 Gaussian 16:  ES64L-G16RevC.01  3-Jul-2019
                 4-Mar-2023 
 ******************************************
 %nprocshared=1
 Will use up to    1 processors via shared memory.
 %mem=8000MB
 %chk=TUYHOK_Complex_2_Ligand_0_NN_Cu_oriented.chk
 ----------------------------------------------------------------------
 #p pop=(regular,nbo,savenbos) freq=noraman def2svp empiricaldispersion
 =gd3bj output=wfx pbe1pbe
 ----------------------------------------------------------------------
 1/10=4,30=1,38=1/1,3;
 2/12=2,17=6,18=5,40=1/2;
 3/5=43,7=101,11=2,25=1,30=1,71=2,74=-13,124=41,140=1/1,2,3;
 4//1;
 5/5=2,38=5,98=1/2;
 8/6=4,10=90,11=11/1;
 11/6=1,8=1,9=11,15=111,16=1/1,2,10;
 10/6=1/2;
 6/28=1,40=1,73=1/1,7;
 7/8=1,10=1,25=1/1,2,3,16;
 1/10=4,30=1/3;
 99/6=200/99;
 Leave Link    1 at Sat Mar  4 11:37:58 2023, MaxMem=  1048576000 cpu:               0.0 elap:               0.1
 (Enter /ssoft/spack/external/gaussian/g16-C.01/avx2/g16/l101.exe)
 ----------------------------------------
 TUYHOK_Complex_2_Ligand_0_NN_Cu_oriented
 ----------------------------------------
 Symbolic Z-matrix:
 Charge =  0 Multiplicity = 1
 N                    -2.00089   0.52354   0. 
 C                    -2.39936   0.53816   1.43976 
 C                    -1.33348   1.22779   2.25158 
 N                    -1.12302   2.61362   1.77 
 C                     0.21571   3.09737   2.16985 
 C                     1.19741   2.56564   1.09769 
 N                     0.31587   2.06619   0. 
 C                     0.67653   2.47441  -1.38053 
 C                    -0.33189   1.83208  -2.31245 
 N                    -1.72754   2.08101  -1.89762 
 C                    -2.68801   1.29106  -2.69299 
 C                    -2.97632  -0.29067  -0.77907 
 C                    -2.03149   1.94841  -0.48832 
 C                    -1.0168    2.68319   0.32736 
 H                    -2.51825  -0.38974   1.76393 
 H                    -3.26059   1.01538   1.54348 
 H                    -0.48522   0.72114   2.18187 
 H                     0.45765   2.75037   3.06474 
 H                     0.23269   4.08668   2.19764 
 H                     1.78988   3.28887   0.7726 
 H                     1.75514   1.83425   1.46289 
 H                     1.59167   2.16882  -1.60149 
 H                     0.64449   3.45976  -1.46678 
 H                    -0.19811   2.1864   -3.22728 
 H                    -0.17139   0.85593  -2.33833 
 H                    -2.44269   1.3489   -3.65096 
 H                    -2.93642   2.33561  -0.31068 
 H                    -1.00841   3.64282   0.04787 
 C                    -2.71662  -0.18143  -2.26826 
 H                    -3.42801  -0.6575   -2.76568 
 H                    -3.89562   0.02019  -0.58192 
 H                    -1.84992  -0.60777  -2.48653 
 H                    -2.90817  -1.23859  -0.50249 
 H                    -1.60278   1.24593   3.20366 
 H                    -3.59341   1.67711  -2.58729 
 
 ITRead=  0  0  0  0  0  0  0  0  0  0  0  0  0  0  0  0  0  0  0  0
 ITRead=  0  0  0  0  0  0  0  0  0  0  0  0  0  0  0
 MicOpt= -1 -1 -1 -1 -1 -1 -1 -1 -1 -1 -1 -1 -1 -1 -1 -1 -1 -1 -1 -1
 MicOpt= -1 -1 -1 -1 -1 -1 -1 -1 -1 -1 -1 -1 -1 -1 -1
 NAtoms=     35 NQM=       35 NQMF=       0 NMMI=      0 NMMIF=      0
                NMic=       0 NMicF=      0.
                    Isotopes and Nuclear Properties:
 (Nuclear quadrupole moments (NQMom) in fm**2, nuclear magnetic moments (NMagM)
  in nuclear magnetons)

  Atom         1           2           3           4           5           6           7           8           9          10
 IAtWgt=          14          12          12          14          12          12          14          12          12          14
 AtmWgt=  14.0030740  12.0000000  12.0000000  14.0030740  12.0000000  12.0000000  14.0030740  12.0000000  12.0000000  14.0030740
 NucSpn=           2           0           0           2           0           0           2           0           0           2
 AtZEff=  -0.0000000  -0.0000000  -0.0000000  -0.0000000  -0.0000000  -0.0000000  -0.0000000  -0.0000000  -0.0000000  -0.0000000
 NQMom=    2.0440000   0.0000000   0.0000000   2.0440000   0.0000000   0.0000000   2.0440000   0.0000000   0.0000000   2.0440000
 NMagM=    0.4037610   0.0000000   0.0000000   0.4037610   0.0000000   0.0000000   0.4037610   0.0000000   0.0000000   0.4037610
 AtZNuc=   7.0000000   6.0000000   6.0000000   7.0000000   6.0000000   6.0000000   7.0000000   6.0000000   6.0000000   7.0000000

  Atom        11          12          13          14          15          16          17          18          19          20
 IAtWgt=          12          12          12          12           1           1           1           1           1           1
 AtmWgt=  12.0000000  12.0000000  12.0000000  12.0000000   1.0078250   1.0078250   1.0078250   1.0078250   1.0078250   1.0078250
 NucSpn=           0           0           0           0           1           1           1           1           1           1
 AtZEff=  -0.0000000  -0.0000000  -0.0000000  -0.0000000  -0.0000000  -0.0000000  -0.0000000  -0.0000000  -0.0000000  -0.0000000
 NQMom=    0.0000000   0.0000000   0.0000000   0.0000000   0.0000000   0.0000000   0.0000000   0.0000000   0.0000000   0.0000000
 NMagM=    0.0000000   0.0000000   0.0000000   0.0000000   2.7928460   2.7928460   2.7928460   2.7928460   2.7928460   2.7928460
 AtZNuc=   6.0000000   6.0000000   6.0000000   6.0000000   1.0000000   1.0000000   1.0000000   1.0000000   1.0000000   1.0000000

  Atom        21          22          23          24          25          26          27          28          29          30
 IAtWgt=           1           1           1           1           1           1           1           1          12           1
 AtmWgt=   1.0078250   1.0078250   1.0078250   1.0078250   1.0078250   1.0078250   1.0078250   1.0078250  12.0000000   1.0078250
 NucSpn=           1           1           1           1           1           1           1           1           0           1
 AtZEff=  -0.0000000  -0.0000000  -0.0000000  -0.0000000  -0.0000000  -0.0000000  -0.0000000  -0.0000000  -0.0000000  -0.0000000
 NQMom=    0.0000000   0.0000000   0.0000000   0.0000000   0.0000000   0.0000000   0.0000000   0.0000000   0.0000000   0.0000000
 NMagM=    2.7928460   2.7928460   2.7928460   2.7928460   2.7928460   2.7928460   2.7928460   2.7928460   0.0000000   2.7928460
 AtZNuc=   1.0000000   1.0000000   1.0000000   1.0000000   1.0000000   1.0000000   1.0000000   1.0000000   6.0000000   1.0000000

  Atom        31          32          33          34          35
 IAtWgt=           1           1           1           1           1
 AtmWgt=   1.0078250   1.0078250   1.0078250   1.0078250   1.0078250
 NucSpn=           1           1           1           1           1
 AtZEff=  -0.0000000  -0.0000000  -0.0000000  -0.0000000  -0.0000000
 NQMom=    0.0000000   0.0000000   0.0000000   0.0000000   0.0000000
 NMagM=    2.7928460   2.7928460   2.7928460   2.7928460   2.7928460
 AtZNuc=   1.0000000   1.0000000   1.0000000   1.0000000   1.0000000
 Leave Link  101 at Sat Mar  4 11:37:58 2023, MaxMem=  1048576000 cpu:               0.1 elap:               0.1
 (Enter /ssoft/spack/external/gaussian/g16-C.01/avx2/g16/l103.exe)

 GradGradGradGradGradGradGradGradGradGradGradGradGradGradGradGradGradGrad
 Berny optimization.
 Initialization pass.
 Trust Radius=3.00D-01 FncErr=1.00D-07 GrdErr=1.00D-07 EigMax=2.50D+02 EigMin=1.00D-04
 Number of steps in this run=      2 maximum allowed number of steps=      2.
 GradGradGradGradGradGradGradGradGradGradGradGradGradGradGradGradGradGrad

 Leave Link  103 at Sat Mar  4 11:37:59 2023, MaxMem=  1048576000 cpu:               0.0 elap:               0.0
 (Enter /ssoft/spack/external/gaussian/g16-C.01/avx2/g16/l202.exe)
                          Input orientation:                          
 ---------------------------------------------------------------------
 Center     Atomic      Atomic             Coordinates (Angstroms)
 Number     Number       Type             X           Y           Z
 ---------------------------------------------------------------------
      1          7           0       -2.000887    0.523538    0.000000
      2          6           0       -2.399355    0.538161    1.439763
      3          6           0       -1.333477    1.227785    2.251580
      4          7           0       -1.123018    2.613615    1.769997
      5          6           0        0.215707    3.097373    2.169853
      6          6           0        1.197408    2.565644    1.097692
      7          7           0        0.315869    2.066195    0.000000
      8          6           0        0.676535    2.474411   -1.380532
      9          6           0       -0.331890    1.832083   -2.312452
     10          7           0       -1.727543    2.081015   -1.897623
     11          6           0       -2.688014    1.291065   -2.692993
     12          6           0       -2.976325   -0.290669   -0.779069
     13          6           0       -2.031491    1.948412   -0.488316
     14          6           0       -1.016805    2.683195    0.327358
     15          1           0       -2.518248   -0.389735    1.763926
     16          1           0       -3.260594    1.015378    1.543481
     17          1           0       -0.485224    0.721139    2.181866
     18          1           0        0.457654    2.750373    3.064741
     19          1           0        0.232692    4.086675    2.197644
     20          1           0        1.789884    3.288872    0.772601
     21          1           0        1.755141    1.834248    1.462894
     22          1           0        1.591666    2.168823   -1.601486
     23          1           0        0.644492    3.459759   -1.466777
     24          1           0       -0.198115    2.186396   -3.227279
     25          1           0       -0.171386    0.855931   -2.338332
     26          1           0       -2.442688    1.348896   -3.650965
     27          1           0       -2.936419    2.335613   -0.310683
     28          1           0       -1.008412    3.642821    0.047867
     29          6           0       -2.716618   -0.181429   -2.268261
     30          1           0       -3.428008   -0.657503   -2.765679
     31          1           0       -3.895622    0.020189   -0.581921
     32          1           0       -1.849923   -0.607765   -2.486531
     33          1           0       -2.908169   -1.238591   -0.502487
     34          1           0       -1.602778    1.245934    3.203657
     35          1           0       -3.593408    1.677110   -2.587292
 ---------------------------------------------------------------------
                    Distance matrix (angstroms):
                    1          2          3          4          5
     1  N    0.000000
     2  C    1.493957   0.000000
     3  C    2.451737   1.506893   0.000000
     4  N    2.876103   2.458781   1.482140   0.000000
     5  C    4.030655   3.731106   2.429405   1.478543   0.000000
     6  C    3.950217   4.142995   3.086536   2.416334   1.547902
     7  N    2.783370   3.432237   2.914256   2.345837   2.404501
     8  C    3.588922   4.600460   4.334335   3.630923   3.633962
     9  C    3.137718   4.475239   4.711554   4.231201   4.689550
    10  N    2.470106   3.737630   4.254313   3.755071   4.620992
    11  C    2.883306   4.210684   5.127141   4.910869   5.944881
    12  C    1.490423   2.437840   3.766893   4.285715   5.510357
    13  C    1.506537   2.416944   2.917800   2.523449   3.665497
    14  C    2.395767   2.783893   2.433337   1.448216   2.255087
    15  H    2.052599   0.990054   2.063459   3.311619   4.449631
    16  H    2.052097   0.990064   2.064050   2.678601   4.100209
    17  H    2.663986   2.061091   0.990496   2.039088   2.477486
    18  H    4.516177   3.961937   2.487500   2.047825   0.989834
    19  H    4.744940   4.482634   3.260222   2.047129   0.989838
    20  H    4.755410   5.055813   4.023784   3.152105   2.113532
    21  H    4.238604   4.352036   3.244901   2.997586   2.113086
    22  H    4.263585   5.276032   4.928299   4.351350   4.120493
    23  H    4.215549   5.123350   4.766576   3.783749   3.679709
    24  H    4.053445   5.416957   5.676785   5.100072   5.489095
    25  H    2.987533   4.397593   4.749318   4.568744   5.049519
    26  H    3.769078   5.155063   6.007083   5.720828   6.633714
    27  H    2.062853   2.565801   3.218990   2.773976   4.082798
    28  H    3.273717   3.675733   3.285486   2.009510   2.509742
    29  C    2.480777   3.790502   4.932335   5.163270   6.248674
    30  H    3.328741   4.491490   5.754500   6.048600   7.192721
    31  H    2.044997   2.567939   4.006445   4.465950   5.826178
    32  H    2.735959   4.126840   5.107412   5.387366   6.298951
    33  H    2.044689   2.681058   4.018402   4.815645   5.974997
    34  H    3.308136   2.060777   0.989598   2.038652   2.793469
    35  H    3.249758   4.352027   5.359465   5.095668   6.257550
                    6          7          8          9         10
     6  C    0.000000
     7  N    1.493817   0.000000
     8  C    2.534014   1.484112   0.000000
     9  C    3.808667   2.412848   1.515909   0.000000
    10  N    4.214513   2.788678   2.490328   1.477124   0.000000
    11  C    5.575872   4.108083   3.800401   2.447209   1.476190
    12  C    5.394516   4.123141   4.620693   3.721609   2.904394
    13  C    3.649957   2.400505   2.899332   2.495926   1.447797
    14  C    2.347333   1.504617   2.414100   2.856938   2.412118
    15  H    4.794188   4.144303   5.319548   5.131617   4.487400
    16  H    4.740868   4.034555   5.116601   4.910451   3.914974
    17  H    2.721926   2.685417   4.136947   4.632127   4.476031
    18  H    2.109655   3.143381   4.459207   5.511882   5.463350
    19  H    2.110476   2.986452   3.949650   5.073746   4.963508
    20  H    0.989833   2.065084   2.557123   4.017675   4.578352
    21  H    0.989635   2.065275   3.107776   4.313808   4.845932
    22  H    2.756532   2.050109   0.989783   2.078205   3.333550
    23  H    2.771581   2.049744   0.989635   2.077935   2.777249
    24  H    4.560339   3.270162   2.063599   0.990123   2.029345
    25  H    4.074675   2.677677   2.062966   0.989598   2.028960
    26  H    6.105777   4.631814   4.018856   2.545694   2.030181
    27  H    4.373210   3.278184   3.770581   3.323281   2.011115
    28  H    2.669847   2.059553   2.498910   3.050829   2.596405
    29  C    5.847705   4.403725   4.399436   3.121396   2.496857
    30  H    6.834383   5.392970   5.345539   3.998676   3.338351
    31  H    5.936278   4.718202   5.250296   4.356362   3.267820
    32  H    5.674804   4.245415   4.135944   2.878817   2.755236
    33  H    5.821386   4.644192   5.235212   4.397980   3.789468
    34  H    3.744031   3.823278   5.264905   5.690887   5.170686
    35  H    6.109052   4.704031   4.508255   3.276744   2.029836
                   11         12         13         14         15
    11  C    0.000000
    12  C    2.499622   0.000000
    13  C    2.392432   2.447597   0.000000
    14  C    3.722027   3.729311   1.494931   0.000000
    15  H    4.766343   2.585820   3.282751   3.709576   0.000000
    16  H    4.283872   2.679702   2.551361   3.048796   1.604374
    17  H    5.379716   3.999559   3.320694   2.751625   2.354125
    18  H    6.721332   5.984565   4.411711   3.109953   4.517565
    19  H    6.345415   6.190294   4.112551   2.651220   5.272005
    20  H    6.004427   6.159345   4.241421   2.905613   5.751076
    21  H    6.108033   5.650525   4.261318   3.113493   4.826860
    22  H    4.503056   5.252810   3.796709   3.284682   5.896068
    23  H    4.160821   5.258228   3.225281   2.565517   5.937926
    24  H    2.699385   4.455113   3.304516   3.681373   6.077137
    25  H    2.578476   3.407884   2.841842   3.340588   4.887531
    26  H    0.990575   3.349735   3.245127   4.431766   5.687669
    27  H    2.613080   2.668021   1.000187   2.052518   3.450564
    28  H    3.982980   4.475359   2.050659   0.999534   4.635296
    29  C    1.532793   1.515610   2.858990   4.222875   4.042433
    30  H    2.085616   2.070074   3.731948   5.151800   4.627816
    31  H    2.744097   0.990257   2.683615   4.025665   2.751034
    32  H    2.085804   2.069966   3.249595   4.409362   4.308199
    33  H    3.353497   0.989797   3.305412   4.432415   2.451371
    34  H    5.995853   4.484405   3.782583   3.268361   2.363541
    35  H    0.989920   2.742739   2.630378   4.018243   4.935677
                   16         17         18         19         20
    16  H    0.000000
    17  H    2.863004   0.000000
    18  H    4.376049   2.405468   0.000000
    19  H    4.697216   3.441291   1.608779   0.000000
    20  H    5.591990   3.708827   2.705314   2.256565   0.000000
    21  H    5.082779   2.602916   2.255809   2.816227   1.610478
    22  H    5.896243   4.552254   4.837134   4.467478   2.632506
    23  H    5.503303   4.699883   4.590512   3.740399   2.521099
    24  H    5.788801   5.611441   6.351191   5.764239   4.600722
    25  H    4.963577   4.533085   5.760018   5.583553   4.409500
    26  H    5.269010   6.184469   7.448277   6.989944   6.422314
    27  H    2.299137   3.850673   4.804711   4.404678   4.941675
    28  H    3.769965   3.655667   3.470928   2.521684   2.912212
    29  C    4.032075   5.059385   6.863846   6.845396   6.449681
    30  H    4.625518   5.919361   7.791393   7.780908   7.437722
    31  H    2.431253   4.445297   6.301036   6.426917   6.696566
    32  H    4.567886   5.042055   6.886118   6.951010   6.249313
    33  H    3.064402   4.113023   6.321844   6.746419   6.647967
    34  H    2.357476   1.602621   2.554998   3.528573   4.646911
    35  H    4.196658   5.772309   7.036226   6.583362   6.547250
                   21         22         23         24         25
    21  H    0.000000
    22  H    3.086922   0.000000
    23  H    3.529703   1.606799   0.000000
    24  H    5.092833   2.418022   2.330409   0.000000
    25  H    4.372406   2.318401   2.864470   1.600338   0.000000
    26  H    6.633919   4.598767   4.330947   2.432905   2.669238
    27  H    5.040603   4.711428   3.927236   4.003387   3.734465
    28  H    3.593113   3.413714   2.249389   3.674825   3.763152
    29  C    6.162881   4.952735   5.019730   3.587363   2.749405
    30  H    7.138256   5.877125   5.935002   4.328169   3.616448
    31  H    6.277197   5.980508   5.764221   5.036064   4.201592
    32  H    5.878594   4.509688   4.879217   3.329341   2.232007
    33  H    5.920433   5.750373   5.968731   5.147759   3.904783
    34  H    3.827792   5.843424   5.635974   6.649398   5.737128
    35  H    6.710862   5.300810   4.732144   3.492416   3.527966
                   26         27         28         29         30
    26  H    0.000000
    27  H    3.517792   0.000000
    28  H    4.582640   2.356811   0.000000
    29  C    2.080577   3.196236   4.786157   0.000000
    30  H    2.404209   3.902232   5.680077   0.990024   0.000000
    31  H    3.646301   2.520879   4.675048   2.067473   2.333823
    32  H    2.352828   3.818149   5.019840   0.990235   1.603356
    33  H    4.101789   3.579458   5.266891   2.066940   2.393729
    34  H    6.906656   3.913641   4.007163   5.763670   6.525911
    35  H    1.601024   2.459311   4.182138   2.079593   2.347253
                   31         32         33         34         35
    31  H    0.000000
    32  H    2.864743   0.000000
    33  H    1.601843   2.335435   0.000000
    34  H    4.592405   5.989618   4.648915   0.000000
    35  H    2.618823   2.875856   3.649284   6.138698   0.000000
 Stoichiometry    C11H20N4
 Framework group  C1[X(C11H20N4)]
 Deg. of freedom    99
 Full point group                 C1      NOp   1
 Largest Abelian subgroup         C1      NOp   1
 Largest concise Abelian subgroup C1      NOp   1
                         Standard orientation:                         
 ---------------------------------------------------------------------
 Center     Atomic      Atomic             Coordinates (Angstroms)
 Number     Number       Type             X           Y           Z
 ---------------------------------------------------------------------
      1          7           0        0.728101    1.088345   -0.401978
      2          6           0       -0.134469    2.286385   -0.172669
      3          6           0       -1.585170    1.887797   -0.258218
      4          7           0       -1.899653    0.838452    0.740138
      5          6           0       -3.106883    0.088480    0.332425
      6          6           0       -2.619886   -0.991749   -0.663536
      7          7           0       -1.132093   -0.978146   -0.530207
      8          6           0       -0.464143   -2.296754   -0.397140
      9          6           0        1.025984   -2.033725   -0.305955
     10          7           0        1.362505   -1.021191    0.715527
     11          6           0        2.785235   -0.631801    0.657620
     12          6           0        2.156513    1.508183   -0.470780
     13          6           0        0.531562    0.163129    0.770627
     14          6           0       -0.912913   -0.221519    0.751724
     15          1           0        0.063065    2.976836   -0.854186
     16          1           0        0.055571    2.669192    0.720398
     17          1           0       -1.781646    1.548332   -1.167747
     18          1           0       -3.760599    0.691674   -0.101839
     19          1           0       -3.536232   -0.331424    1.119267
     20          1           0       -2.986920   -1.880141   -0.427283
     21          1           0       -2.893495   -0.767388   -1.587754
     22          1           0       -0.665211   -2.864873   -1.182304
     23          1           0       -0.781013   -2.761684    0.416991
     24          1           0        1.490941   -2.880267   -0.087953
     25          1           0        1.353832   -1.725389   -1.187289
     26          1           0        3.342443   -1.446228    0.571213
     27          1           0        0.726390    0.660759    1.616073
     28          1           0       -1.097443   -0.829090    1.523653
     29          6           0        3.079853    0.307211   -0.517501
     30          1           0        4.021484    0.609805   -0.473706
     31          1           0        2.375358    2.060601    0.321400
     32          1           0        2.951433   -0.177600   -1.371335
     33          1           0        2.297604    2.062525   -1.278553
     34          1           0       -2.155890    2.679863   -0.096313
     35          1           0        3.034209   -0.181541    1.503327
 ---------------------------------------------------------------------
 Rotational constants (GHZ):           1.0826215           0.6198107           0.4486530
 Leave Link  202 at Sat Mar  4 11:37:59 2023, MaxMem=  1048576000 cpu:               0.0 elap:               0.0
 (Enter /ssoft/spack/external/gaussian/g16-C.01/avx2/g16/l301.exe)
 Standard basis: def2SVP (5D, 7F)
 Ernie: Thresh=  0.10000D-02 Tol=  0.10000D-05 Strict=F.
 There are   325 symmetry adapted cartesian basis functions of A   symmetry.
 There are   310 symmetry adapted basis functions of A   symmetry.
   310 basis functions,   515 primitive gaussians,   325 cartesian basis functions
    57 alpha electrons       57 beta electrons
       nuclear repulsion energy      1174.3090496068 Hartrees.
 IExCor= 1009 DFT=T Ex+Corr=PBE1PBE ExCW=0 ScaHFX=  0.250000
 ScaDFX=  0.750000  0.750000  1.000000  1.000000 ScalE2=  1.000000  1.000000
 IRadAn=      5 IRanWt=     -1 IRanGd=            0 ICorTp=0 IEmpDi=141
 NAtoms=   35 NActive=   35 NUniq=   35 SFac= 1.00D+00 NAtFMM=   60 NAOKFM=F Big=F
 Integral buffers will be    131072 words long.
 Raffenetti 2 integral format.
 Two-electron integral symmetry is turned on.
 R6Disp:  Grimme-D3(BJ) Dispersion energy=       -0.0400148938 Hartrees.
 Nuclear repulsion after empirical dispersion term =     1174.2690347130 Hartrees.
 Leave Link  301 at Sat Mar  4 11:37:59 2023, MaxMem=  1048576000 cpu:               0.1 elap:               0.1
 (Enter /ssoft/spack/external/gaussian/g16-C.01/avx2/g16/l302.exe)
 NPDir=0 NMtPBC=     1 NCelOv=     1 NCel=       1 NClECP=     1 NCelD=      1
         NCelK=      1 NCelE2=     1 NClLst=     1 CellRange=     0.0.
 One-electron integrals computed using PRISM.
 One-electron integral symmetry used in STVInt
   1 Symmetry operations used in ECPInt.
 ECPInt:  NShTT=   11325 NPrTT=   39595 LenC2=   11131 LenP2D=   29822.
 LDataN:  DoStor=T MaxTD1= 4 Len=   56
 NBasis=   310 RedAO= T EigKep=  5.23D-04  NBF=   310
 NBsUse=   310 1.00D-06 EigRej= -1.00D+00 NBFU=   310
 Precomputing XC quadrature grid using
 IXCGrd= 4 IRadAn=           5 IRanWt=          -1 IRanGd=           0 AccXCQ= 0.00D+00.
 Generated NRdTot=       0 NPtTot=           0 NUsed=           0 NTot=          32
 NSgBfM=   325   325   325   325   325 MxSgAt=    35 MxSgA2=    35.
 Leave Link  302 at Sat Mar  4 11:38:00 2023, MaxMem=  1048576000 cpu:               1.2 elap:               1.2
 (Enter /ssoft/spack/external/gaussian/g16-C.01/avx2/g16/l303.exe)
 DipDrv:  MaxL=1.
 Leave Link  303 at Sat Mar  4 11:38:00 2023, MaxMem=  1048576000 cpu:               0.1 elap:               0.1
 (Enter /ssoft/spack/external/gaussian/g16-C.01/avx2/g16/l401.exe)
 ExpMin= 1.22D-01 ExpMax= 1.71D+03 ExpMxC= 2.58D+02 IAcc=3 IRadAn=         5 AccDes= 0.00D+00
 Harris functional with IExCor= 1009 and IRadAn=       5 diagonalized for initial guess.
 HarFok:  IExCor= 1009 AccDes= 0.00D+00 IRadAn=         5 IDoV= 1 UseB2=F ITyADJ=14
 ICtDFT=  3500011 ScaDFX=  1.000000  1.000000  1.000000  1.000000
 FoFCou: FMM=F IPFlag=           0 FMFlag=      100000 FMFlg1=           0
         NFxFlg=           0 DoJE=T BraDBF=F KetDBF=T FulRan=T
         wScrn=  0.000000 ICntrl=       500 IOpCl=  0 I1Cent=   200000004 NGrid=           0
         NMat0=    1 NMatS0=      1 NMatT0=    0 NMatD0=    1 NMtDS0=    0 NMtDT0=    0
 Petite list used in FoFCou.
 Harris En= -649.023566194871    
 JPrj=0 DoOrth=F DoCkMO=F.
 Leave Link  401 at Sat Mar  4 11:38:11 2023, MaxMem=  1048576000 cpu:              10.9 elap:              11.0
 (Enter /ssoft/spack/external/gaussian/g16-C.01/avx2/g16/l502.exe)
 Integral symmetry usage will be decided dynamically.
 Closed shell SCF:
 Using DIIS extrapolation, IDIIS=  1040.
 NGot=  1048576000 LenX=  1048358334 LenY=  1048252268
 Requested convergence on RMS density matrix=1.00D-08 within 128 cycles.
 Requested convergence on MAX density matrix=1.00D-06.
 Requested convergence on             energy=1.00D-06.
 No special actions if energy rises.
 Fock matrices will be formed incrementally for  20 cycles.
 Integral accuracy reduced to 1.0D-05 until final iterations.

 Cycle   1  Pass 0  IDiag  1:
 FoFJK:  IHMeth= 1 ICntrl=       0 DoSepK=F KAlg= 0 I1Cent=           0 FoldK=F
 IRaf= 950000000 NMat=       1 IRICut=       1 DoRegI=T DoRafI=F ISym2E= 0 IDoP0=0 IntGTp=1.
 FoFCou: FMM=F IPFlag=           0 FMFlag=      100000 FMFlg1=           0
         NFxFlg=           0 DoJE=F BraDBF=F KetDBF=F FulRan=T
         wScrn=  0.000000 ICntrl=         0 IOpCl=  0 I1Cent=           0 NGrid=           0
         NMat0=    1 NMatS0=      1 NMatT0=    0 NMatD0=    1 NMtDS0=    0 NMtDT0=    0
 Symmetry not used in FoFCou.
 E= -648.490771767724    
 DIIS: error= 1.86D-02 at cycle   1 NSaved=   1.
 NSaved= 1 IEnMin= 1 EnMin= -648.490771767724     IErMin= 1 ErrMin= 1.86D-02
 ErrMax= 1.86D-02  0.00D+00 EMaxC= 1.00D-01 BMatC= 2.82D-01 BMatP= 2.82D-01
 IDIUse=3 WtCom= 8.14D-01 WtEn= 1.86D-01
 Coeff-Com:  0.100D+01
 Coeff-En:   0.100D+01
 Coeff:      0.100D+01
 Gap=     0.300 Goal=   None    Shift=    0.000
 GapD=    0.300 DampG=1.000 DampE=0.500 DampFc=0.5000 IDamp=-1.
 Damping current iteration by 5.00D-01
 RMSDP=4.51D-03 MaxDP=1.36D-01              OVMax= 1.22D-01

 Cycle   2  Pass 0  IDiag  1:
 RMSU=  2.19D-03    CP:  9.72D-01
 E= -648.650896828966     Delta-E=       -0.160125061242 Rises=F Damp=T
 DIIS: error= 4.18D-03 at cycle   2 NSaved=   2.
 NSaved= 2 IEnMin= 2 EnMin= -648.650896828966     IErMin= 2 ErrMin= 4.18D-03
 ErrMax= 4.18D-03  0.00D+00 EMaxC= 1.00D-01 BMatC= 1.72D-02 BMatP= 2.82D-01
 IDIUse=3 WtCom= 9.58D-01 WtEn= 4.18D-02
 Coeff-Com: -0.877D-01 0.109D+01
 Coeff-En:   0.000D+00 0.100D+01
 Coeff:     -0.840D-01 0.108D+01
 Gap=     0.287 Goal=   None    Shift=    0.000
 RMSDP=1.28D-03 MaxDP=3.26D-02 DE=-1.60D-01 OVMax= 6.47D-02

 Cycle   3  Pass 0  IDiag  1:
 RMSU=  1.18D-03    CP:  9.58D-01  1.19D+00
 E= -648.799985706827     Delta-E=       -0.149088877861 Rises=F Damp=F
 DIIS: error= 2.00D-03 at cycle   3 NSaved=   3.
 NSaved= 3 IEnMin= 3 EnMin= -648.799985706827     IErMin= 3 ErrMin= 2.00D-03
 ErrMax= 2.00D-03  0.00D+00 EMaxC= 1.00D-01 BMatC= 4.02D-03 BMatP= 1.72D-02
 IDIUse=3 WtCom= 9.80D-01 WtEn= 2.00D-02
 Coeff-Com: -0.642D-01 0.354D+00 0.710D+00
 Coeff-En:   0.000D+00 0.000D+00 0.100D+01
 Coeff:     -0.629D-01 0.347D+00 0.716D+00
 Gap=     0.276 Goal=   None    Shift=    0.000
 RMSDP=4.10D-04 MaxDP=1.13D-02 DE=-1.49D-01 OVMax= 1.10D-02

 Cycle   4  Pass 0  IDiag  1:
 RMSU=  3.13D-04    CP:  9.57D-01  1.22D+00  7.87D-01
 E= -648.802903744558     Delta-E=       -0.002918037731 Rises=F Damp=F
 DIIS: error= 9.57D-04 at cycle   4 NSaved=   4.
 NSaved= 4 IEnMin= 4 EnMin= -648.802903744558     IErMin= 4 ErrMin= 9.57D-04
 ErrMax= 9.57D-04  0.00D+00 EMaxC= 1.00D-01 BMatC= 6.84D-04 BMatP= 4.02D-03
 IDIUse=3 WtCom= 9.90D-01 WtEn= 9.57D-03
 Coeff-Com: -0.238D-01 0.105D+00 0.338D+00 0.581D+00
 Coeff-En:   0.000D+00 0.000D+00 0.345D-01 0.965D+00
 Coeff:     -0.236D-01 0.104D+00 0.335D+00 0.585D+00
 Gap=     0.281 Goal=   None    Shift=    0.000
 RMSDP=1.51D-04 MaxDP=3.73D-03 DE=-2.92D-03 OVMax= 4.97D-03

 Cycle   5  Pass 0  IDiag  1:
 RMSU=  8.17D-05    CP:  9.57D-01  1.21D+00  8.37D-01  6.46D-01
 E= -648.803402675822     Delta-E=       -0.000498931264 Rises=F Damp=F
 DIIS: error= 3.29D-04 at cycle   5 NSaved=   5.
 NSaved= 5 IEnMin= 5 EnMin= -648.803402675822     IErMin= 5 ErrMin= 3.29D-04
 ErrMax= 3.29D-04  0.00D+00 EMaxC= 1.00D-01 BMatC= 1.05D-04 BMatP= 6.84D-04
 IDIUse=3 WtCom= 9.97D-01 WtEn= 3.29D-03
 Coeff-Com: -0.419D-02 0.101D-01 0.889D-01 0.323D+00 0.583D+00
 Coeff-En:   0.000D+00 0.000D+00 0.000D+00 0.107D+00 0.893D+00
 Coeff:     -0.418D-02 0.100D-01 0.886D-01 0.322D+00 0.584D+00
 Gap=     0.279 Goal=   None    Shift=    0.000
 RMSDP=4.09D-05 MaxDP=1.69D-03 DE=-4.99D-04 OVMax= 1.70D-03

 Cycle   6  Pass 0  IDiag  1:
 RMSU=  1.49D-05    CP:  9.57D-01  1.22D+00  8.35D-01  6.96D-01  5.96D-01
 E= -648.803489394672     Delta-E=       -0.000086718850 Rises=F Damp=F
 DIIS: error= 4.40D-05 at cycle   6 NSaved=   6.
 NSaved= 6 IEnMin= 6 EnMin= -648.803489394672     IErMin= 6 ErrMin= 4.40D-05
 ErrMax= 4.40D-05  0.00D+00 EMaxC= 1.00D-01 BMatC= 2.03D-06 BMatP= 1.05D-04
 IDIUse=1 WtCom= 1.00D+00 WtEn= 0.00D+00
 Coeff-Com: -0.111D-02 0.151D-02 0.284D-01 0.123D+00 0.254D+00 0.594D+00
 Coeff:     -0.111D-02 0.151D-02 0.284D-01 0.123D+00 0.254D+00 0.594D+00
 Gap=     0.279 Goal=   None    Shift=    0.000
 RMSDP=7.00D-06 MaxDP=2.00D-04 DE=-8.67D-05 OVMax= 2.33D-04

 Initial convergence to 1.0D-05 achieved.  Increase integral accuracy.
 Cycle   7  Pass 1  IDiag  1:
 E= -648.803432279535     Delta-E=        0.000057115137 Rises=F Damp=F
 DIIS: error= 3.60D-05 at cycle   1 NSaved=   1.
 NSaved= 1 IEnMin= 1 EnMin= -648.803432279535     IErMin= 1 ErrMin= 3.60D-05
 ErrMax= 3.60D-05  0.00D+00 EMaxC= 1.00D-01 BMatC= 5.62D-07 BMatP= 5.62D-07
 IDIUse=1 WtCom= 1.00D+00 WtEn= 0.00D+00
 Coeff-Com:  0.100D+01
 Coeff:      0.100D+01
 Gap=     0.279 Goal=   None    Shift=    0.000
 RMSDP=7.00D-06 MaxDP=2.00D-04 DE= 5.71D-05 OVMax= 1.51D-04

 Cycle   8  Pass 1  IDiag  1:
 RMSU=  2.36D-05    CP:  1.00D+00
 E= -648.803432588621     Delta-E=       -0.000000309087 Rises=F Damp=F
 DIIS: error= 1.53D-05 at cycle   2 NSaved=   2.
 NSaved= 2 IEnMin= 2 EnMin= -648.803432588621     IErMin= 2 ErrMin= 1.53D-05
 ErrMax= 1.53D-05  0.00D+00 EMaxC= 1.00D-01 BMatC= 2.63D-07 BMatP= 5.62D-07
 IDIUse=1 WtCom= 1.00D+00 WtEn= 0.00D+00
 Coeff-Com:  0.376D+00 0.624D+00
 Coeff:      0.376D+00 0.624D+00
 Gap=     0.279 Goal=   None    Shift=    0.000
 RMSDP=3.11D-06 MaxDP=8.29D-05 DE=-3.09D-07 OVMax= 1.05D-04

 Cycle   9  Pass 1  IDiag  1:
 RMSU=  3.10D-06    CP:  1.00D+00  9.88D-01
 E= -648.803432763943     Delta-E=       -0.000000175321 Rises=F Damp=F
 DIIS: error= 8.81D-06 at cycle   3 NSaved=   3.
 NSaved= 3 IEnMin= 3 EnMin= -648.803432763943     IErMin= 3 ErrMin= 8.81D-06
 ErrMax= 8.81D-06  0.00D+00 EMaxC= 1.00D-01 BMatC= 6.86D-08 BMatP= 2.63D-07
 IDIUse=1 WtCom= 1.00D+00 WtEn= 0.00D+00
 Coeff-Com:  0.101D-01 0.337D+00 0.653D+00
 Coeff:      0.101D-01 0.337D+00 0.653D+00
 Gap=     0.279 Goal=   None    Shift=    0.000
 RMSDP=1.20D-06 MaxDP=3.92D-05 DE=-1.75D-07 OVMax= 4.45D-05

 Cycle  10  Pass 1  IDiag  1:
 RMSU=  4.10D-07    CP:  1.00D+00  1.01D+00  6.62D-01
 E= -648.803432820660     Delta-E=       -0.000000056717 Rises=F Damp=F
 DIIS: error= 1.48D-06 at cycle   4 NSaved=   4.
 NSaved= 4 IEnMin= 4 EnMin= -648.803432820660     IErMin= 4 ErrMin= 1.48D-06
 ErrMax= 1.48D-06  0.00D+00 EMaxC= 1.00D-01 BMatC= 3.01D-09 BMatP= 6.86D-08
 IDIUse=1 WtCom= 1.00D+00 WtEn= 0.00D+00
 Coeff-Com: -0.423D-02 0.168D+00 0.354D+00 0.482D+00
 Coeff:     -0.423D-02 0.168D+00 0.354D+00 0.482D+00
 Gap=     0.279 Goal=   None    Shift=    0.000
 RMSDP=2.11D-07 MaxDP=7.02D-06 DE=-5.67D-08 OVMax= 7.73D-06

 Cycle  11  Pass 1  IDiag  1:
 RMSU=  1.19D-07    CP:  1.00D+00  1.01D+00  6.86D-01  6.15D-01
 E= -648.803432823307     Delta-E=       -0.000000002647 Rises=F Damp=F
 DIIS: error= 2.58D-07 at cycle   5 NSaved=   5.
 NSaved= 5 IEnMin= 5 EnMin= -648.803432823307     IErMin= 5 ErrMin= 2.58D-07
 ErrMax= 2.58D-07  0.00D+00 EMaxC= 1.00D-01 BMatC= 5.89D-11 BMatP= 3.01D-09
 IDIUse=1 WtCom= 1.00D+00 WtEn= 0.00D+00
 Coeff-Com: -0.226D-02 0.614D-01 0.131D+00 0.214D+00 0.596D+00
 Coeff:     -0.226D-02 0.614D-01 0.131D+00 0.214D+00 0.596D+00
 Gap=     0.279 Goal=   None    Shift=    0.000
 RMSDP=4.51D-08 MaxDP=1.39D-06 DE=-2.65D-09 OVMax= 1.39D-06

 Cycle  12  Pass 1  IDiag  1:
 RMSU=  3.41D-08    CP:  1.00D+00  1.01D+00  6.81D-01  6.37D-01  8.06D-01
 E= -648.803432823351     Delta-E=       -0.000000000044 Rises=F Damp=F
 DIIS: error= 5.84D-08 at cycle   6 NSaved=   6.
 NSaved= 6 IEnMin= 6 EnMin= -648.803432823351     IErMin= 6 ErrMin= 5.84D-08
 ErrMax= 5.84D-08  0.00D+00 EMaxC= 1.00D-01 BMatC= 4.58D-12 BMatP= 5.89D-11
 IDIUse=1 WtCom= 1.00D+00 WtEn= 0.00D+00
 Coeff-Com: -0.702D-03 0.151D-01 0.319D-01 0.603D-01 0.259D+00 0.634D+00
 Coeff:     -0.702D-03 0.151D-01 0.319D-01 0.603D-01 0.259D+00 0.634D+00
 Gap=     0.279 Goal=   None    Shift=    0.000
 RMSDP=1.06D-08 MaxDP=3.62D-07 DE=-4.43D-11 OVMax= 3.61D-07

 Cycle  13  Pass 1  IDiag  1:
 RMSU=  9.51D-09    CP:  1.00D+00  1.01D+00  6.82D-01  6.38D-01  8.33D-01
                    CP:  9.11D-01
 E= -648.803432823352     Delta-E=       -0.000000000001 Rises=F Damp=F
 DIIS: error= 1.65D-08 at cycle   7 NSaved=   7.
 NSaved= 7 IEnMin= 7 EnMin= -648.803432823352     IErMin= 7 ErrMin= 1.65D-08
 ErrMax= 1.65D-08  0.00D+00 EMaxC= 1.00D-01 BMatC= 5.54D-13 BMatP= 4.58D-12
 IDIUse=1 WtCom= 1.00D+00 WtEn= 0.00D+00
 Coeff-Com:  0.136D-04-0.197D-02-0.448D-02-0.346D-02 0.235D-01 0.280D+00
 Coeff-Com:  0.706D+00
 Coeff:      0.136D-04-0.197D-02-0.448D-02-0.346D-02 0.235D-01 0.280D+00
 Coeff:      0.706D+00
 Gap=     0.279 Goal=   None    Shift=    0.000
 RMSDP=4.04D-09 MaxDP=1.30D-07 DE=-1.36D-12 OVMax= 1.47D-07

 SCF Done:  E(RPBE1PBE) =  -648.803432823     A.U. after   13 cycles
            NFock= 13  Conv=0.40D-08     -V/T= 2.0056
 KE= 6.451688172678D+02 PE=-3.856314008049D+03 EE= 1.388072723245D+03
 Leave Link  502 at Sat Mar  4 11:43:32 2023, MaxMem=  1048576000 cpu:             320.0 elap:             321.3
 (Enter /ssoft/spack/external/gaussian/g16-C.01/avx2/g16/l801.exe)
 DoSCS=F DFT=T ScalE2(SS,OS)=  1.000000  1.000000
 Range of M.O.s used for correlation:     1   310
 NBasis=   310 NAE=    57 NBE=    57 NFC=     0 NFV=     0
 NROrb=    310 NOA=    57 NOB=    57 NVA=   253 NVB=   253
 Leave Link  801 at Sat Mar  4 11:43:32 2023, MaxMem=  1048576000 cpu:               0.1 elap:               0.1
 (Enter /ssoft/spack/external/gaussian/g16-C.01/avx2/g16/l1101.exe)
 Using compressed storage, NAtomX=    35.
 Will process     36 centers per pass.
   1 Symmetry operations used in ECPInt.
 ECPInt:  NShTT=   11325 NPrTT=   39595 LenC2=   11131 LenP2D=   29822.
 LDataN:  DoStor=T MaxTD1= 5 Len=  102
 R6Disp: Adding Grimme-D3(BJ) dispersion energy 1st derivatives to the gradient.
 Leave Link 1101 at Sat Mar  4 11:43:33 2023, MaxMem=  1048576000 cpu:               0.6 elap:               0.6
 (Enter /ssoft/spack/external/gaussian/g16-C.01/avx2/g16/l1102.exe)
 Symmetrizing basis deriv contribution to polar:
 IMax=3 JMax=2 DiffMx= 0.00D+00
 Leave Link 1102 at Sat Mar  4 11:43:33 2023, MaxMem=  1048576000 cpu:               0.1 elap:               0.1
 (Enter /ssoft/spack/external/gaussian/g16-C.01/avx2/g16/l1110.exe)
 Forming Gx(P) for the SCF density, NAtomX=    35.
 Integral derivatives from FoFJK, PRISM(SPDF).
 Do as many integral derivatives as possible in FoFJK.
 G2DrvN: MDV=    1048572259.
 G2DrvN: will do    36 centers at a time, making    1 passes.
 Calling FoFCou, ICntrl=  3107 FMM=F I1Cent=   0 AccDes= 0.00D+00.
 FoFJK:  IHMeth= 1 ICntrl=    3107 DoSepK=F KAlg= 0 I1Cent=           0 FoldK=F
 IRaf=         0 NMat=       1 IRICut=       1 DoRegI=T DoRafI=F ISym2E= 0 IDoP0=0 IntGTp=1.
 FoFCou: FMM=F IPFlag=           0 FMFlag=      100000 FMFlg1=           0
         NFxFlg=           0 DoJE=F BraDBF=F KetDBF=F FulRan=T
         wScrn=  0.000000 ICntrl=      3107 IOpCl=  0 I1Cent=           0 NGrid=           0
         NMat0=    1 NMatS0=      1 NMatT0=    0 NMatD0=    1 NMtDS0=    0 NMtDT0=    0
 Symmetry not used in FoFCou.
 End of G2Drv F.D. properties file   721 does not exist.
 End of G2Drv F.D. properties file   722 does not exist.
 End of G2Drv F.D. properties file   788 does not exist.
 Leave Link 1110 at Sat Mar  4 11:59:15 2023, MaxMem=  1048576000 cpu:             938.4 elap:             941.8
 (Enter /ssoft/spack/external/gaussian/g16-C.01/avx2/g16/l1002.exe)
 Minotr:  Closed shell wavefunction.
          IDoAtm=11111111111111111111111111111111111
          Direct CPHF calculation.
          Differentiating once with respect to electric field.
                with respect to dipole field.
          Differentiating once with respect to nuclear coordinates.
          Requested convergence is 1.0D-08 RMS, and 1.0D-07 maximum.
          Secondary convergence is 1.0D-12 RMS, and 1.0D-12 maximum.
          NewPWx=T KeepS1=F KeepF1=F KeepIn=T MapXYZ=F SortEE=F KeepMc=T.
        10508 words used for storage of precomputed grid.
 Two-electron integrals replicated using symmetry.
          MDV=    1048576000 using IRadAn=       1.
          Solving linear equations simultaneously, MaxMat=     384.
 FoF2E skips out because all densities are zero.
 CalDSu exits because no D1Ps are significant.
 FoFJK:  IHMeth= 1 ICntrl=       0 DoSepK=F KAlg= 0 I1Cent=           0 FoldK=F
 IRaf= 930000000 NMat=     105 IRICut=     262 DoRegI=T DoRafI=T ISym2E= 2 IDoP0=3 IntGTp=3.
 FoFCou: FMM=F IPFlag=           0 FMFlag=      100000 FMFlg1=           0
         NFxFlg=           0 DoJE=F BraDBF=F KetDBF=F FulRan=T
         wScrn=  0.000000 ICntrl=         0 IOpCl=  0 I1Cent=           0 NGrid=           0
         NMat0=  105 NMatS0=    105 NMatT0=    0 NMatD0=  105 NMtDS0=    0 NMtDT0=    0
 Integrals replicated using symmetry in FoFCou.
 Raff kept on since  89.76% of shell-pairs survive, threshold=   0.20 IRatSp=90.
          There are   108 degrees of freedom in the 1st order CPHF.  IDoFFX=6 NUNeed=     3.
    105 vectors produced by pass  0 Test12= 1.44D-14 1.00D-09 XBig12= 7.41D+01 1.34D+00.
 AX will form   105 AO Fock derivatives at one time.
    105 vectors produced by pass  1 Test12= 1.44D-14 1.00D-09 XBig12= 9.08D+00 2.99D-01.
    105 vectors produced by pass  2 Test12= 1.44D-14 1.00D-09 XBig12= 1.14D-01 3.29D-02.
    105 vectors produced by pass  3 Test12= 1.44D-14 1.00D-09 XBig12= 2.17D-04 2.06D-03.
    105 vectors produced by pass  4 Test12= 1.44D-14 1.00D-09 XBig12= 3.48D-07 7.34D-05.
     83 vectors produced by pass  5 Test12= 1.44D-14 1.00D-09 XBig12= 3.32D-10 1.59D-06.
      4 vectors produced by pass  6 Test12= 1.44D-14 1.00D-09 XBig12= 3.14D-13 4.50D-08.
      2 vectors produced by pass  7 Test12= 1.44D-14 1.00D-09 XBig12= 3.62D-16 1.70D-09.
 InvSVY:  IOpt=1 It=  1 EMax= 7.11D-15
 Solved reduced A of dimension   614 with   108 vectors.
 FullF1:  Do perturbations      1 to       3.
 Isotropic polarizability for W=    0.000000      122.47 Bohr**3.
 End of Minotr F.D. properties file   721 does not exist.
 End of Minotr F.D. properties file   722 does not exist.
 End of Minotr F.D. properties file   788 does not exist.
 Leave Link 1002 at Sat Mar  4 12:24:22 2023, MaxMem=  1048576000 cpu:            1500.8 elap:            1507.3
 (Enter /ssoft/spack/external/gaussian/g16-C.01/avx2/g16/l601.exe)
 Copying SCF densities to generalized density rwf, IOpCl= 0 IROHF=0.

 **********************************************************************

            Population analysis using the SCF Density.

 **********************************************************************

 Orbital symmetries:
       Occupied  (A) (A) (A) (A) (A) (A) (A) (A) (A) (A) (A) (A)
                 (A) (A) (A) (A) (A) (A) (A) (A) (A) (A) (A) (A)
                 (A) (A) (A) (A) (A) (A) (A) (A) (A) (A) (A) (A)
                 (A) (A) (A) (A) (A) (A) (A) (A) (A) (A) (A) (A)
                 (A) (A) (A) (A) (A) (A) (A) (A) (A)
       Virtual   (A) (A) (A) (A) (A) (A) (A) (A) (A) (A) (A) (A)
                 (A) (A) (A) (A) (A) (A) (A) (A) (A) (A) (A) (A)
                 (A) (A) (A) (A) (A) (A) (A) (A) (A) (A) (A) (A)
                 (A) (A) (A) (A) (A) (A) (A) (A) (A) (A) (A) (A)
                 (A) (A) (A) (A) (A) (A) (A) (A) (A) (A) (A) (A)
                 (A) (A) (A) (A) (A) (A) (A) (A) (A) (A) (A) (A)
                 (A) (A) (A) (A) (A) (A) (A) (A) (A) (A) (A) (A)
                 (A) (A) (A) (A) (A) (A) (A) (A) (A) (A) (A) (A)
                 (A) (A) (A) (A) (A) (A) (A) (A) (A) (A) (A) (A)
                 (A) (A) (A) (A) (A) (A) (A) (A) (A) (A) (A) (A)
                 (A) (A) (A) (A) (A) (A) (A) (A) (A) (A) (A) (A)
                 (A) (A) (A) (A) (A) (A) (A) (A) (A) (A) (A) (A)
                 (A) (A) (A) (A) (A) (A) (A) (A) (A) (A) (A) (A)
                 (A) (A) (A) (A) (A) (A) (A) (A) (A) (A) (A) (A)
                 (A) (A) (A) (A) (A) (A) (A) (A) (A) (A) (A) (A)
                 (A) (A) (A) (A) (A) (A) (A) (A) (A) (A) (A) (A)
                 (A) (A) (A) (A) (A) (A) (A) (A) (A) (A) (A) (A)
                 (A) (A) (A) (A) (A) (A) (A) (A) (A) (A) (A) (A)
                 (A) (A) (A) (A) (A) (A) (A) (A) (A) (A) (A) (A)
                 (A) (A) (A) (A) (A) (A) (A) (A) (A) (A) (A) (A)
                 (A) (A) (A) (A) (A) (A) (A) (A) (A) (A) (A) (A)
                 (A)
 The electronic state is 1-A.
 Alpha  occ. eigenvalues --  -14.37328 -14.37160 -14.36173 -14.36042 -10.25774
 Alpha  occ. eigenvalues --  -10.25273 -10.22753 -10.22660 -10.22440 -10.22229
 Alpha  occ. eigenvalues --  -10.22211 -10.22128 -10.22034 -10.21961 -10.19725
 Alpha  occ. eigenvalues --   -0.99105  -0.94618  -0.90787  -0.86826  -0.81232
 Alpha  occ. eigenvalues --   -0.78754  -0.76026  -0.74764  -0.67866  -0.66936
 Alpha  occ. eigenvalues --   -0.65944  -0.64172  -0.61825  -0.59019  -0.55614
 Alpha  occ. eigenvalues --   -0.52722  -0.51239  -0.50063  -0.49893  -0.49572
 Alpha  occ. eigenvalues --   -0.48204  -0.46344  -0.45492  -0.44229  -0.43590
 Alpha  occ. eigenvalues --   -0.42814  -0.41583  -0.40727  -0.39858  -0.39746
 Alpha  occ. eigenvalues --   -0.38623  -0.38146  -0.36520  -0.36425  -0.34789
 Alpha  occ. eigenvalues --   -0.34359  -0.33200  -0.31760  -0.23275  -0.22906
 Alpha  occ. eigenvalues --   -0.21434  -0.19867
 Alpha virt. eigenvalues --    0.08014   0.08492   0.10073   0.10663   0.11292
 Alpha virt. eigenvalues --    0.12297   0.12665   0.14069   0.14311   0.14808
 Alpha virt. eigenvalues --    0.14990   0.15449   0.15928   0.16219   0.17687
 Alpha virt. eigenvalues --    0.17710   0.18638   0.19314   0.19584   0.20685
 Alpha virt. eigenvalues --    0.21327   0.22128   0.22465   0.23338   0.24316
 Alpha virt. eigenvalues --    0.24651   0.24731   0.25409   0.25901   0.27048
 Alpha virt. eigenvalues --    0.27754   0.28663   0.29119   0.30504   0.32075
 Alpha virt. eigenvalues --    0.32886   0.33594   0.36033   0.44799   0.46652
 Alpha virt. eigenvalues --    0.47038   0.48540   0.48889   0.49881   0.50223
 Alpha virt. eigenvalues --    0.51674   0.52526   0.52990   0.56106   0.56317
 Alpha virt. eigenvalues --    0.56784   0.57672   0.59212   0.60944   0.62450
 Alpha virt. eigenvalues --    0.63916   0.64362   0.65756   0.66123   0.66654
 Alpha virt. eigenvalues --    0.67995   0.68489   0.69654   0.69969   0.70252
 Alpha virt. eigenvalues --    0.71543   0.72195   0.72623   0.72920   0.73326
 Alpha virt. eigenvalues --    0.73494   0.73992   0.74197   0.74459   0.74935
 Alpha virt. eigenvalues --    0.75211   0.76215   0.76478   0.76695   0.77254
 Alpha virt. eigenvalues --    0.78254   0.78478   0.78789   0.79784   0.80682
 Alpha virt. eigenvalues --    0.81411   0.82125   0.82493   0.83556   0.86035
 Alpha virt. eigenvalues --    0.87065   0.90412   0.92223   0.94583   0.95487
 Alpha virt. eigenvalues --    0.96761   0.97434   1.01006   1.04693   1.05642
 Alpha virt. eigenvalues --    1.08232   1.11138   1.12757   1.13819   1.15427
 Alpha virt. eigenvalues --    1.18699   1.19162   1.20112   1.23090   1.24436
 Alpha virt. eigenvalues --    1.26154   1.26678   1.28152   1.28346   1.32430
 Alpha virt. eigenvalues --    1.35225   1.36066   1.39038   1.39876   1.41521
 Alpha virt. eigenvalues --    1.43115   1.43478   1.45930   1.47056   1.50954
 Alpha virt. eigenvalues --    1.52644   1.54405   1.56267   1.59370   1.60723
 Alpha virt. eigenvalues --    1.63494   1.65524   1.67049   1.67998   1.69546
 Alpha virt. eigenvalues --    1.74158   1.75038   1.75646   1.76983   1.77969
 Alpha virt. eigenvalues --    1.79871   1.80551   1.81820   1.82472   1.83030
 Alpha virt. eigenvalues --    1.83859   1.84836   1.85123   1.86386   1.87184
 Alpha virt. eigenvalues --    1.88135   1.89796   1.90092   1.90423   1.90873
 Alpha virt. eigenvalues --    1.91617   1.93765   1.94526   1.95673   1.96959
 Alpha virt. eigenvalues --    1.98350   1.98668   1.99774   1.99856   2.01751
 Alpha virt. eigenvalues --    2.02277   2.04147   2.04262   2.06060   2.07380
 Alpha virt. eigenvalues --    2.07784   2.09608   2.10939   2.11211   2.12557
 Alpha virt. eigenvalues --    2.13449   2.14114   2.15043   2.16453   2.17638
 Alpha virt. eigenvalues --    2.17930   2.19407   2.21351   2.22587   2.23866
 Alpha virt. eigenvalues --    2.24927   2.26935   2.29446   2.31256   2.33055
 Alpha virt. eigenvalues --    2.35729   2.38210   2.38794   2.40473   2.43860
 Alpha virt. eigenvalues --    2.44452   2.46351   2.48154   2.49217   2.51581
 Alpha virt. eigenvalues --    2.52791   2.54516   2.55970   2.57115   2.60819
 Alpha virt. eigenvalues --    2.63011   2.63614   2.66344   2.67741   2.68913
 Alpha virt. eigenvalues --    2.69649   2.72560   2.75130   2.77002   2.79718
 Alpha virt. eigenvalues --    2.81866   2.85343   2.85542   2.87016   2.88231
 Alpha virt. eigenvalues --    2.90001   2.90720   2.91580   2.95657   2.98544
 Alpha virt. eigenvalues --    3.00212   3.00644   3.01584   3.05171   3.09728
 Alpha virt. eigenvalues --    3.10328   3.11252   3.13350   3.14606   3.16432
 Alpha virt. eigenvalues --    3.17550   3.18783   3.18997   3.20661   3.21532
 Alpha virt. eigenvalues --    3.23108   3.24349   3.25307   3.28834   3.29424
 Alpha virt. eigenvalues --    3.30898   3.31252   3.32040   3.34642   3.37354
 Alpha virt. eigenvalues --    3.37808   3.38492   3.43685
     Molecular Orbital Coefficients:
                          53        54        55        56        57
                           O         O         O         O         O
     Eigenvalues --    -0.31760  -0.23275  -0.22906  -0.21434  -0.19867
   1 1   N  1S         -0.00559  -0.02581   0.05562  -0.02518   0.04618
   2        2S         -0.01188  -0.05458   0.10939  -0.05354   0.10279
   3        3S         -0.01882  -0.04750   0.25328  -0.11101   0.09151
   4        4PX         0.18335  -0.06054   0.10876  -0.02401   0.08610
   5        4PY        -0.04532  -0.09259   0.19148  -0.12546   0.12899
   6        4PZ        -0.08028  -0.19206   0.22410   0.07042   0.33652
   7        5PX        -0.10734   0.03764  -0.10688   0.01887  -0.05422
   8        5PY         0.03297   0.07746  -0.14643   0.10020  -0.09820
   9        5PZ         0.04890   0.16390  -0.16394  -0.07860  -0.27912
  10        6D 0        0.00490   0.00332  -0.00272  -0.00542  -0.00698
  11        6D+1       -0.00075   0.00002  -0.00323   0.00255  -0.00445
  12        6D-1        0.00139   0.00169  -0.00641   0.00434  -0.00640
  13        6D+2       -0.00827   0.00057   0.00114  -0.00233   0.00022
  14        6D-2       -0.01118   0.00150  -0.00187  -0.00176  -0.00298
  15 2   C  1S         -0.00522  -0.00887   0.01260  -0.01329   0.01237
  16        2S          0.01043   0.02488  -0.03404   0.03835  -0.03195
  17        3S          0.01796   0.04855  -0.01258   0.02413  -0.00635
  18        4PX         0.19588  -0.01070  -0.01433   0.01523   0.00511
  19        4PY        -0.04081  -0.02251   0.07645  -0.06442   0.04194
  20        4PZ        -0.05913  -0.04290   0.04631  -0.00677   0.05224
  21        5PX         0.08732  -0.01471  -0.04135   0.02513  -0.01835
  22        5PY        -0.02758   0.02081   0.07811  -0.00630   0.00130
  23        5PZ        -0.01211   0.03440   0.00986  -0.00652  -0.02186
  24        6D 0       -0.00138  -0.00745   0.00491  -0.00250   0.00825
  25        6D+1       -0.00173  -0.00137  -0.00557  -0.00361  -0.00443
  26        6D-1       -0.00307  -0.01089   0.00908   0.00313   0.01528
  27        6D+2       -0.00978   0.00381  -0.00786   0.00481  -0.00611
  28        6D-2       -0.00713  -0.00279   0.00344  -0.00312   0.00395
  29 3   C  1S          0.00619  -0.02175   0.00146  -0.00886   0.00678
  30        2S         -0.01388   0.05715  -0.00736   0.01831  -0.01498
  31        3S         -0.03526   0.02486  -0.02939   0.05314  -0.07140
  32        4PX        -0.16784   0.00802  -0.06548   0.00548  -0.04655
  33        4PY        -0.02179   0.01043  -0.00600   0.01492  -0.02057
  34        4PZ         0.03830   0.09355   0.10017   0.06021  -0.01556
  35        5PX        -0.08038  -0.00572  -0.03160   0.01551  -0.03139
  36        5PY        -0.01561   0.01491  -0.07426  -0.01453  -0.01577
  37        5PZ         0.00343  -0.02782   0.05204   0.02184   0.01338
  38        6D 0        0.00166  -0.01776  -0.01354  -0.00904   0.00219
  39        6D+1       -0.00241   0.00002   0.00050  -0.00041   0.00227
  40        6D-1       -0.00352  -0.00520  -0.00091  -0.00061   0.00169
  41        6D+2       -0.00478  -0.00681  -0.00900  -0.00178  -0.00117
  42        6D-2       -0.00914  -0.00072  -0.00114  -0.00162  -0.00097
  43 4   N  1S          0.00873  -0.05160  -0.04101  -0.02770  -0.00012
  44        2S          0.01914  -0.11387  -0.08700  -0.05837   0.00730
  45        3S          0.03300  -0.06785  -0.12640  -0.09318  -0.06167
  46        4PX        -0.13046  -0.05664  -0.04263   0.00284  -0.02781
  47        4PY        -0.03086   0.15666   0.11411   0.06810   0.00321
  48        4PZ         0.00382   0.35581   0.27650   0.15191   0.00156
  49        5PX         0.07221   0.07120   0.00268  -0.02201   0.02745
  50        5PY         0.02561  -0.12776  -0.11361  -0.06119   0.01581
  51        5PZ        -0.00220  -0.29483  -0.22104  -0.13417   0.00736
  52        6D 0        0.00045   0.00450   0.00649   0.00325  -0.00069
  53        6D+1       -0.00449  -0.00499  -0.00114   0.00062  -0.00165
  54        6D-1       -0.00400   0.00727   0.00459   0.00283   0.00068
  55        6D+2       -0.00713  -0.00098  -0.00487  -0.00143   0.00047
  56        6D-2       -0.00751  -0.00056  -0.00227   0.00052  -0.00110
  57 5   C  1S          0.02391  -0.01574  -0.00861  -0.01203   0.00630
  58        2S         -0.05868   0.03029   0.02206   0.02636  -0.01157
  59        3S         -0.06567   0.04579  -0.02902   0.02099  -0.02091
  60        4PX        -0.11722   0.01460   0.00678   0.03016  -0.02207
  61        4PY        -0.07092   0.04982   0.01199   0.01396   0.00959
  62        4PZ         0.00093   0.09873   0.02782   0.00978   0.03948
  63        5PX        -0.05773   0.00902  -0.03790   0.00415   0.00025
  64        5PY        -0.04017   0.00823  -0.03348  -0.02429   0.03884
  65        5PZ        -0.00936   0.00834  -0.01430  -0.01060   0.01099
  66        6D 0        0.00370  -0.00454  -0.00558  -0.00385   0.00198
  67        6D+1       -0.00159  -0.00878  -0.00597  -0.00289  -0.00145
  68        6D-1       -0.00448  -0.01257  -0.00997  -0.00388  -0.00219
  69        6D+2        0.00075   0.01121   0.00564   0.00248   0.00316
  70        6D-2       -0.00355   0.00301   0.00328   0.00286  -0.00241
  71 6   C  1S          0.01698   0.00864   0.02490   0.01142  -0.01315
  72        2S         -0.04088  -0.01982  -0.05791  -0.02846   0.03190
  73        3S         -0.06493  -0.07625  -0.08399  -0.02812   0.01893
  74        4PX        -0.08822   0.08823  -0.02662  -0.01387   0.07327
  75        4PY         0.02731  -0.04928  -0.07533  -0.04583   0.02618
  76        4PZ        -0.06298  -0.12413  -0.02978   0.00038  -0.05696
  77        5PX        -0.05677   0.07269   0.02021   0.03211   0.01478
  78        5PY         0.00749  -0.06680  -0.03825  -0.01928  -0.02702
  79        5PZ        -0.02537  -0.06429  -0.03094  -0.02470   0.01015
  80        6D 0        0.00618   0.00510  -0.00214  -0.00320   0.00669
  81        6D+1        0.00369   0.00897  -0.00862  -0.00838   0.01627
  82        6D-1       -0.00153  -0.00089  -0.00018   0.00074  -0.00120
  83        6D+2        0.00022   0.00128  -0.00396  -0.00244   0.00330
  84        6D-2       -0.00158  -0.00543   0.00622   0.00556  -0.01016
  85 7   N  1S          0.00531  -0.05499   0.01139   0.01829  -0.05539
  86        2S          0.01125  -0.10869   0.02385   0.03554  -0.12077
  87        3S          0.02915  -0.26436  -0.00825   0.08014  -0.13705
  88        4PX        -0.05967   0.11322  -0.08452  -0.07179   0.15531
  89        4PY        -0.01677   0.19757  -0.05571  -0.05911   0.19293
  90        4PZ        -0.09915  -0.09009   0.20803   0.17657  -0.29163
  91        5PX         0.02645  -0.10331   0.05829   0.07634  -0.11897
  92        5PY         0.00830  -0.15319   0.06112   0.04468  -0.15701
  93        5PZ         0.05629   0.05449  -0.18361  -0.13426   0.23445
  94        6D 0        0.00723  -0.00069  -0.00446  -0.00412   0.00350
  95        6D+1       -0.00202  -0.00152   0.00119   0.00395  -0.00592
  96        6D-1        0.00179  -0.00423   0.00245   0.00399  -0.00775
  97        6D+2       -0.00564  -0.00256  -0.00360  -0.00029   0.00052
  98        6D-2       -0.00234   0.00229  -0.00096  -0.00173   0.00393
  99 8   C  1S          0.00821  -0.01361   0.00591  -0.00115  -0.01899
 100        2S         -0.02201   0.04114  -0.01264   0.00367   0.04903
 101        3S         -0.00618   0.01969  -0.03103   0.04138   0.03372
 102        4PX        -0.09315  -0.00243  -0.02359   0.02214   0.02034
 103        4PY        -0.02355   0.09496   0.00081  -0.01599   0.06731
 104        4PZ        -0.06916  -0.02047   0.03896   0.02680  -0.05362
 105        5PX        -0.03507  -0.02358  -0.01561   0.03651  -0.02348
 106        5PY        -0.00487   0.06169   0.01904  -0.04844   0.00759
 107        5PZ        -0.01185   0.00149  -0.02172   0.00826   0.03072
 108        6D 0        0.00149  -0.00437   0.00308  -0.00014  -0.00649
 109        6D+1        0.00080  -0.00011   0.00019   0.00622   0.00029
 110        6D-1        0.00687   0.00473  -0.01180  -0.00836   0.01622
 111        6D+2       -0.00544   0.00729  -0.00267  -0.00263   0.00790
 112        6D-2       -0.00086  -0.00625   0.00284   0.00126  -0.00797
 113 9   C  1S          0.00104  -0.00977   0.00845  -0.00892  -0.01455
 114        2S         -0.00198   0.02550  -0.02488   0.02409   0.03746
 115        3S         -0.02654   0.03485  -0.00009  -0.01422   0.07908
 116        4PX         0.09297  -0.04554   0.02056   0.01509  -0.05587
 117        4PY         0.01639  -0.01169   0.01290  -0.01313  -0.01342
 118        4PZ         0.05040  -0.03554  -0.01682   0.11874   0.04800
 119        5PX         0.05380  -0.02318  -0.00841   0.02681  -0.03704
 120        5PY         0.00800  -0.05149   0.03576   0.04499  -0.01600
 121        5PZ         0.00857  -0.03824   0.05071   0.03632  -0.01930
 122        6D 0        0.00108   0.00225   0.00819  -0.02239  -0.00804
 123        6D+1        0.00012  -0.00072  -0.00199   0.00292   0.00407
 124        6D-1        0.00375  -0.00018  -0.00255   0.00151   0.00323
 125        6D+2       -0.00673   0.00380   0.00218  -0.00947  -0.00042
 126        6D-2       -0.00465  -0.00145  -0.00122   0.00113   0.00128
 127 10  N  1S          0.00144   0.00831   0.01279  -0.05217  -0.02008
 128        2S          0.00168   0.01638   0.03329  -0.11042  -0.04536
 129        3S          0.01759   0.06426  -0.06473  -0.14752  -0.04274
 130        4PX         0.18027   0.00320   0.01574  -0.05064  -0.04080
 131        4PY        -0.01425   0.00034   0.09137  -0.20901  -0.04608
 132        4PZ         0.04418  -0.05240  -0.15831   0.40996   0.12756
 133        5PX        -0.10947  -0.02379   0.02444   0.06607   0.04442
 134        5PY         0.00440  -0.00855  -0.07434   0.18136   0.04218
 135        5PZ        -0.02977   0.02746   0.13863  -0.33641  -0.11462
 136        6D 0        0.00182  -0.00248   0.00026   0.00497   0.00184
 137        6D+1        0.00263   0.00098  -0.00178  -0.00041  -0.00050
 138        6D-1        0.00170  -0.00072   0.00389  -0.00681  -0.00058
 139        6D+2       -0.00909   0.00220  -0.00132  -0.00329   0.00030
 140        6D-2       -0.00568   0.00056   0.00049   0.00027   0.00122
 141 11  C  1S          0.01279  -0.00475   0.00767  -0.00749  -0.00377
 142        2S         -0.03537   0.00716  -0.01085   0.01369   0.00684
 143        3S         -0.04245   0.06375  -0.09809  -0.00114  -0.05546
 144        4PX         0.16241  -0.01039   0.02480  -0.03996  -0.03050
 145        4PY        -0.02103   0.00113   0.02706  -0.05916  -0.02288
 146        4PZ        -0.00161  -0.00834  -0.04382   0.08920   0.02097
 147        5PX         0.07002  -0.02067   0.00247   0.03068  -0.01586
 148        5PY         0.00002   0.00973  -0.01497   0.00718  -0.01700
 149        5PZ        -0.00051  -0.00635   0.00261   0.00040   0.00481
 150        6D 0        0.00102  -0.00099   0.00270  -0.00336  -0.00001
 151        6D+1        0.00523  -0.00256  -0.00691   0.01815   0.00495
 152        6D-1        0.00174  -0.00254  -0.00333   0.01175   0.00417
 153        6D+2       -0.00859   0.00025  -0.00237   0.00520   0.00258
 154        6D-2       -0.01238   0.00028   0.00323  -0.00849  -0.00041
 155 12  C  1S          0.00812  -0.01039   0.01401   0.00054   0.01424
 156        2S         -0.01959   0.02622  -0.03732  -0.00090  -0.03726
 157        3S         -0.02708   0.02105  -0.03696  -0.01663  -0.04198
 158        4PX         0.20707  -0.03871   0.06588  -0.01604   0.04566
 159        4PY        -0.07341  -0.02693   0.05521  -0.02736   0.03280
 160        4PZ        -0.04561  -0.03445   0.03734   0.02495   0.06080
 161        5PX         0.09712  -0.02922   0.02662  -0.01787   0.02276
 162        5PY        -0.03556   0.00426   0.00981  -0.01371  -0.00475
 163        5PZ        -0.01816   0.00449  -0.02468   0.03273  -0.02485
 164        6D 0        0.00219  -0.00155   0.00299  -0.00229   0.00073
 165        6D+1       -0.00334  -0.00833   0.01235  -0.00056   0.01547
 166        6D-1       -0.00218  -0.00627   0.00549   0.00547   0.01149
 167        6D+2       -0.00770   0.00223  -0.00581   0.00536  -0.00169
 168        6D-2       -0.01025  -0.00316   0.00642  -0.00336   0.00554
 169 13  C  1S          0.00042  -0.01643   0.02275  -0.01339  -0.00674
 170        2S         -0.00391   0.04598  -0.06069   0.02219   0.01307
 171        3S          0.03676   0.03086   0.01907   0.04536   0.10853
 172        4PX         0.22801  -0.06033   0.04348   0.03990  -0.03642
 173        4PY         0.02986   0.00280   0.02801  -0.06289  -0.03479
 174        4PZ         0.00161  -0.05844   0.06331   0.04795   0.07582
 175        5PX         0.08941  -0.04173   0.03148   0.04159  -0.07648
 176        5PY         0.01748   0.04534  -0.08287  -0.00119  -0.03247
 177        5PZ        -0.01005   0.04187   0.07046  -0.04312   0.00400
 178        6D 0        0.00183  -0.01197   0.01657  -0.00328   0.01164
 179        6D+1        0.00442  -0.00231   0.00541  -0.01001   0.00171
 180        6D-1        0.00098  -0.00923  -0.00434   0.02256   0.01362
 181        6D+2       -0.01489  -0.00003  -0.00039   0.00881   0.00907
 182        6D-2       -0.00745   0.00050  -0.00323  -0.00167  -0.00443
 183 14  C  1S          0.00633  -0.03403   0.00415  -0.01425  -0.00637
 184        2S         -0.01227   0.07703  -0.01774   0.03300   0.01283
 185        3S         -0.01630   0.06376  -0.04122   0.05915  -0.01293
 186        4PX        -0.22602   0.00372  -0.10490   0.01410  -0.00825
 187        4PY        -0.07264   0.05527   0.01607   0.02001   0.00617
 188        4PZ        -0.05426  -0.02472   0.07028   0.06841  -0.06621
 189        5PX        -0.13581   0.02033  -0.07134   0.00996  -0.09488
 190        5PY        -0.04683  -0.06245   0.02701   0.02559  -0.01288
 191        5PZ        -0.02646  -0.08436  -0.04082   0.06318  -0.01135
 192        6D 0        0.00470  -0.01513   0.00701   0.00472  -0.01236
 193        6D+1       -0.00127   0.01117   0.00338   0.00188   0.00812
 194        6D-1        0.00269  -0.01198  -0.02045  -0.01044   0.01080
 195        6D+2       -0.01105   0.00257   0.00067   0.00537  -0.00261
 196        6D-2       -0.00599   0.00130  -0.00390  -0.00345   0.00462
 197 15  H  1S          0.06288   0.03458  -0.00315  -0.03375  -0.03958
 198        2S          0.03801   0.02668  -0.00719  -0.04724  -0.03071
 199        3PX         0.00486  -0.00016   0.00169   0.00069   0.00188
 200        3PY        -0.00297  -0.00155   0.00098  -0.00182   0.00152
 201        3PZ         0.00081  -0.00191   0.00234  -0.00195   0.00241
 202 16  H  1S         -0.02600  -0.07959   0.07068  -0.01309   0.09536
 203        2S         -0.01684  -0.12636   0.03981  -0.02363   0.11566
 204        3PX         0.00536   0.00121   0.00034   0.00054  -0.00059
 205        3PY        -0.00037   0.00048   0.00161  -0.00250   0.00176
 206        3PZ        -0.00094  -0.00039  -0.00151   0.00086   0.00008
 207 17  H  1S         -0.00458  -0.10872  -0.09311  -0.06564   0.02769
 208        2S         -0.00420  -0.14931  -0.02727  -0.04847   0.03458
 209        3PX        -0.00426  -0.00226  -0.00070   0.00022  -0.00123
 210        3PY         0.00031  -0.00040  -0.00311  -0.00169   0.00247
 211        3PZ         0.00113   0.00032  -0.00021  -0.00009  -0.00015
 212 18  H  1S          0.01045  -0.00252   0.00396  -0.00207   0.00054
 213        2S          0.01956  -0.00633  -0.01328  -0.00932   0.00679
 214        3PX        -0.00269  -0.00016   0.00056   0.00123  -0.00168
 215        3PY        -0.00178   0.00116   0.00213   0.00143  -0.00052
 216        3PZ        -0.00015   0.00471   0.00165   0.00122   0.00086
 217 19  H  1S          0.05289   0.09722   0.04657   0.01355   0.03333
 218        2S          0.03422   0.05216   0.02653   0.00777   0.02902
 219        3PX        -0.00175   0.00018   0.00043   0.00064  -0.00044
 220        3PY        -0.00042   0.00318  -0.00026   0.00022   0.00143
 221        3PZ        -0.00190  -0.00040   0.00014  -0.00022   0.00042
 222 20  H  1S         -0.02945  -0.04512   0.05881   0.04765  -0.08391
 223        2S         -0.00922  -0.03363   0.06609   0.06074  -0.10281
 224        3PX        -0.00253   0.00226  -0.00161  -0.00133   0.00333
 225        3PY        -0.00015  -0.00245  -0.00068   0.00036  -0.00115
 226        3PZ        -0.00145  -0.00460  -0.00124  -0.00019  -0.00254
 227 21  H  1S          0.07147   0.08543  -0.02802  -0.03968   0.09362
 228        2S          0.04481   0.06586  -0.00663  -0.03231   0.07771
 229        3PX        -0.00142   0.00167   0.00008  -0.00026   0.00083
 230        3PY         0.00037  -0.00278  -0.00303  -0.00200   0.00139
 231        3PZ         0.00149  -0.00044  -0.00117  -0.00045   0.00016
 232 22  H  1S          0.08291  -0.01878  -0.04568  -0.02614   0.03995
 233        2S          0.05305  -0.01007  -0.03322  -0.03147   0.02792
 234        3PX        -0.00223   0.00030  -0.00196  -0.00196   0.00260
 235        3PY         0.00144   0.00182  -0.00036   0.00061   0.00234
 236        3PZ         0.00154  -0.00279   0.00033   0.00012  -0.00247
 237 23  H  1S         -0.02933  -0.05913   0.06552   0.03037  -0.11165
 238        2S         -0.01830  -0.04846   0.08738  -0.00127  -0.14317
 239        3PX        -0.00319  -0.00051   0.00045   0.00036  -0.00084
 240        3PY        -0.00121   0.00202   0.00090  -0.00031   0.00199
 241        3PZ        -0.00147   0.00181   0.00110  -0.00051  -0.00017
 242 24  H  1S          0.04618  -0.01394  -0.02183   0.09065   0.01926
 243        2S          0.02944  -0.03001  -0.00453   0.07754  -0.00302
 244        3PX         0.00198  -0.00041   0.00139  -0.00264  -0.00195
 245        3PY         0.00235   0.00048   0.00002  -0.00123  -0.00024
 246        3PZ         0.00109  -0.00028  -0.00121   0.00202   0.00226
 247 25  H  1S         -0.01182   0.02051   0.04289  -0.13351  -0.06696
 248        2S         -0.00979  -0.02642   0.09932  -0.10908  -0.08052
 249        3PX         0.00246  -0.00054  -0.00084   0.00147  -0.00002
 250        3PY        -0.00005  -0.00167   0.00048   0.00260   0.00252
 251        3PZ         0.00100  -0.00018   0.00025  -0.00005   0.00056
 252 26  H  1S          0.10359  -0.00199  -0.01914   0.04703   0.00611
 253        2S          0.06619   0.00293  -0.01087   0.03011   0.00534
 254        3PX         0.00104  -0.00020   0.00138  -0.00240  -0.00105
 255        3PY         0.00290   0.00043   0.00017  -0.00131   0.00007
 256        3PZ         0.00077  -0.00005  -0.00252   0.00453   0.00109
 257 27  H  1S          0.06197  -0.08257   0.06208   0.05938   0.09481
 258        2S          0.03154  -0.12148   0.03887   0.03275   0.07784
 259        3PX         0.00598   0.00006   0.00151  -0.00063  -0.00130
 260        3PY        -0.00047  -0.00005   0.00060  -0.00141  -0.00217
 261        3PZ        -0.00295  -0.00090  -0.00048   0.00050   0.00091
 262 28  H  1S          0.03491  -0.00744   0.10918   0.06551  -0.09080
 263        2S          0.01487  -0.02030   0.12174  -0.01418  -0.10757
 264        3PX        -0.00489   0.00114   0.00001  -0.00072   0.00047
 265        3PY        -0.00099   0.00172   0.00062   0.00212  -0.00149
 266        3PZ        -0.00243   0.00021   0.00055  -0.00028  -0.00082
 267 29  C  1S         -0.00892  -0.00744  -0.00144   0.02136   0.01294
 268        2S          0.02423   0.01811  -0.00248  -0.04897  -0.03681
 269        3S          0.03374   0.02991   0.05722  -0.11462  -0.05352
 270        4PX        -0.15929  -0.01168  -0.00353   0.03449   0.02588
 271        4PY         0.08647   0.00741  -0.06556   0.10099   0.00231
 272        4PZ        -0.00620   0.01262   0.04908  -0.12088  -0.03689
 273        5PX        -0.06711  -0.00082  -0.00370  -0.00925  -0.01090
 274        5PY         0.04998   0.01326  -0.06256   0.09398  -0.00616
 275        5PZ        -0.00674  -0.01434   0.07812  -0.11262   0.01703
 276        6D 0        0.00096  -0.00030   0.00139  -0.00218  -0.00048
 277        6D+1        0.00244  -0.00028   0.00049  -0.00083  -0.00038
 278        6D-1       -0.00201  -0.00237   0.00128   0.00376   0.00418
 279        6D+2       -0.00932   0.00049  -0.00357   0.00421  -0.00004
 280        6D-2       -0.00789  -0.00142   0.00063   0.00252   0.00269
 281 30  H  1S         -0.12273  -0.00047  -0.02519   0.04670   0.01512
 282        2S         -0.07459  -0.00806  -0.02141   0.06046   0.03390
 283        3PX         0.00110  -0.00048   0.00024   0.00021   0.00007
 284        3PY         0.00487  -0.00028  -0.00101   0.00259   0.00062
 285        3PZ         0.00077   0.00088   0.00093  -0.00421  -0.00258
 286 31  H  1S         -0.04060  -0.06455   0.08824   0.00480   0.10740
 287        2S         -0.01639  -0.06279   0.10385   0.01021   0.13416
 288        3PX         0.00534  -0.00093   0.00219  -0.00037   0.00200
 289        3PY        -0.00079  -0.00019   0.00006  -0.00113  -0.00043
 290        3PZ         0.00105   0.00003  -0.00159   0.00110  -0.00005
 291 32  H  1S         -0.00439  -0.01265   0.00496   0.01910   0.01925
 292        2S         -0.00634  -0.02863   0.01785   0.01599   0.05626
 293        3PX        -0.00509   0.00037  -0.00098   0.00194   0.00058
 294        3PY         0.00155  -0.00004  -0.00177   0.00297   0.00106
 295        3PZ        -0.00063   0.00035   0.00005  -0.00133  -0.00037
 296 33  H  1S          0.01973   0.03131  -0.01706  -0.05186  -0.07061
 297        2S          0.01509   0.01843  -0.00780  -0.02877  -0.05691
 298        3PX         0.00535   0.00002   0.00058   0.00021  -0.00014
 299        3PY        -0.00250  -0.00155   0.00243  -0.00074   0.00241
 300        3PZ        -0.00106  -0.00096   0.00265  -0.00160   0.00154
 301 34  H  1S          0.08343   0.06705   0.07238   0.04325   0.00196
 302        2S          0.05141   0.03234   0.06932   0.02764   0.01249
 303        3PX        -0.00312   0.00245   0.00108   0.00132  -0.00166
 304        3PY        -0.00430   0.00014   0.00083   0.00042  -0.00078
 305        3PZ         0.00030   0.00286   0.00156   0.00137  -0.00133
 306 35  H  1S          0.01653  -0.01483  -0.02904   0.07756   0.02185
 307        2S          0.01037  -0.02377   0.00600   0.05266   0.03782
 308        3PX         0.00421   0.00019  -0.00001  -0.00082  -0.00063
 309        3PY        -0.00174  -0.00089   0.00257  -0.00320  -0.00041
 310        3PZ        -0.00073  -0.00063   0.00034   0.00094   0.00059
                          58        59        60        61        62
                           V         V         V         V         V
     Eigenvalues --     0.08014   0.08492   0.10073   0.10663   0.11292
   1 1   N  1S          0.03063   0.00964   0.00907  -0.00295  -0.00303
   2        2S          0.07431   0.03707   0.03543  -0.00665  -0.01050
   3        3S          0.15269  -0.06711  -0.11062   0.02216  -0.06566
   4        4PX         0.00842   0.01444  -0.00825   0.00656   0.01578
   5        4PY         0.02829  -0.00316   0.00073   0.00210  -0.01594
   6        4PZ         0.01628   0.03168   0.02950   0.00463   0.01749
   7        5PX        -0.02681  -0.04358   0.03846   0.00017  -0.06667
   8        5PY        -0.05887  -0.02641  -0.07333  -0.01368   0.02350
   9        5PZ        -0.00936  -0.05394  -0.06948   0.08024  -0.05997
  10        6D 0       -0.00074  -0.00143   0.00025  -0.00355   0.00310
  11        6D+1        0.00062  -0.00103   0.00008  -0.00184   0.00195
  12        6D-1       -0.00134  -0.00201   0.00037  -0.00168  -0.00030
  13        6D+2       -0.00213   0.00092  -0.00504  -0.00430  -0.00172
  14        6D-2       -0.00005   0.00497  -0.00089   0.00240   0.00303
  15 2   C  1S         -0.02495  -0.01241  -0.05337  -0.00064   0.05567
  16        2S          0.03153   0.01109   0.05935   0.00975  -0.09188
  17        3S          0.59546   0.50183   1.46510  -0.10595  -1.20182
  18        4PX         0.01626  -0.03480   0.03152   0.03643   0.00591
  19        4PY         0.08544   0.05945   0.09723   0.02986  -0.04882
  20        4PZ         0.01655   0.01871   0.03352  -0.08437   0.00861
  21        5PX         0.09402  -0.12743   0.12114   0.19271  -0.02290
  22        5PY         0.28098   0.12934   0.25401   0.15313  -0.23750
  23        5PZ        -0.00367   0.05389   0.06583  -0.29324   0.03839
  24        6D 0       -0.00269  -0.00146  -0.00238  -0.00195   0.00217
  25        6D+1        0.00214  -0.00498  -0.00165   0.00493  -0.00043
  26        6D-1        0.00456   0.00078   0.00111   0.00020   0.00113
  27        6D+2        0.00023  -0.00289   0.00207   0.00450   0.00201
  28        6D-2       -0.00312  -0.00278  -0.00421  -0.00016  -0.00001
  29 3   C  1S         -0.03355   0.02493  -0.02549  -0.03470   0.00592
  30        2S          0.03174  -0.03118   0.03843   0.02711  -0.00411
  31        3S          0.83340  -0.60012   0.54421   1.25245  -0.22962
  32        4PX        -0.05451   0.00440  -0.06863  -0.02370   0.03551
  33        4PY         0.01152  -0.01544   0.04390   0.06383   0.00294
  34        4PZ        -0.04773   0.04621  -0.00839  -0.09068   0.00324
  35        5PX        -0.13771  -0.03835  -0.31348  -0.04984   0.22506
  36        5PY         0.00539  -0.07665   0.14713   0.13199   0.11306
  37        5PZ        -0.11540   0.11851   0.01286  -0.18590  -0.00064
  38        6D 0        0.00001  -0.00044  -0.00014  -0.00204   0.00676
  39        6D+1       -0.00265   0.00317   0.00214  -0.00420   0.00074
  40        6D-1       -0.00181   0.00375  -0.00048  -0.00389  -0.00219
  41        6D+2       -0.00122   0.00091   0.00122  -0.00456  -0.00538
  42        6D-2        0.00544   0.00349   0.00522   0.00043  -0.00514
  43 4   N  1S          0.01821  -0.01134   0.01064   0.01133   0.01103
  44        2S          0.05258  -0.02804   0.03660   0.03476   0.02777
  45        3S          0.02747  -0.08331  -0.02887  -0.03511   0.08614
  46        4PX         0.03722   0.00288  -0.00748  -0.02275  -0.05223
  47        4PY         0.00594  -0.01587  -0.00097  -0.00256  -0.00396
  48        4PZ         0.00561  -0.01497  -0.03044  -0.00360   0.00561
  49        5PX        -0.06605  -0.04440   0.01783   0.03794   0.15028
  50        5PY        -0.05755   0.05073  -0.03271  -0.04628   0.05495
  51        5PZ        -0.02312   0.03968   0.04558   0.07594  -0.04326
  52        6D 0        0.00017   0.00123  -0.00108   0.00408  -0.00325
  53        6D+1        0.00192  -0.00010   0.00247   0.00100  -0.00163
  54        6D-1       -0.00364   0.00023  -0.00315   0.00244   0.00188
  55        6D+2       -0.00202  -0.00118  -0.00110   0.00323  -0.00025
  56        6D-2       -0.00455   0.00074  -0.00194  -0.00221   0.00546
  57 5   C  1S         -0.01861   0.04172  -0.00588  -0.01601  -0.06672
  58        2S          0.02892  -0.06416   0.00148   0.01982   0.09013
  59        3S          0.50309  -0.92250   0.31682   0.41562   1.70062
  60        4PX        -0.10683   0.07698  -0.02510  -0.04934  -0.04353
  61        4PY        -0.01986   0.00604  -0.01536   0.06002  -0.03617
  62        4PZ         0.01066  -0.01418  -0.01830  -0.08446   0.01496
  63        5PX        -0.35534   0.26349  -0.05917  -0.12141  -0.13743
  64        5PY         0.00064  -0.02018  -0.07166   0.19973  -0.14765
  65        5PZ         0.08327  -0.09452  -0.08237  -0.25614   0.03315
  66        6D 0       -0.00283   0.00255  -0.00060   0.00114  -0.00219
  67        6D+1        0.00250  -0.00068   0.00083  -0.00221   0.00166
  68        6D-1        0.00586  -0.00542  -0.00145   0.00060   0.00001
  69        6D+2        0.00062  -0.00118   0.00007   0.00192   0.00264
  70        6D-2        0.00710  -0.00284  -0.00012   0.00195  -0.00297
  71 6   C  1S         -0.02654   0.04237   0.00854  -0.01569  -0.00486
  72        2S          0.02659  -0.06598  -0.00014   0.02112   0.02915
  73        3S          0.82546  -0.89988  -0.40156   0.23397  -0.18817
  74        4PX        -0.09303   0.03693   0.03921   0.03098   0.03525
  75        4PY        -0.04848   0.05995   0.00805   0.05459  -0.05418
[...]
 002106,0.00008170,0.00004258,0.00002128,-0.00015650,-0.00041781,0.0002
 5035,0.00020382,0.00074173,0.00349606,0.00065450,0.01040176,0.00573026
 ,0.00572547,-0.02746485,-0.01809412,-0.01565143,0.00048229,0.00127820,
 -0.00077869,0.00009044,-0.00000960,0.00004292,-0.00007289,0.00004863,0
 .00008243,0.00009293,-0.00008092,-0.00016443,0.00000950,0.00000557,0.0
 0005015,0.00001201,0.00001512,0.00000904,-0.00002634,-0.00001574,0.000
 00709,-0.00001117,-0.00000570,0.00000489,0.00000610,0.00000628,-0.0000
 0255,0.00001733,-0.00001255,0.00004338,0.00001354,-0.00001772,0.000047
 30,0.00001063,0.00002765,0.00000991,-0.00015813,-0.00015593,-0.0000477
 0,0.00020634,-0.00073301,0.00011565,-0.00000520,-0.00017076,0.00007508
 ,-0.00009338,-0.00006883,-0.00002465,-0.22068777,-0.14513880,-0.156946
 36,0.22662372,0.14850685,0.16629394,-0.03112257,-0.00413490,-0.0062385
 2,0.00178241,-0.00016273,0.00348170,0.00038889,-0.00009200,-0.00010326
 ,0.00007365,0.00001772,0.00005443,0.00002563,0.00004486,0.00002806,0.0
 0015377,-0.00005658,0.00018429,-0.00028251,-0.00052574,0.00009164,0.00
 010015,0.00000105,-0.00025159,0.00003189,0.00040534,0.00004859,-0.0000
 4627,-0.00061285,0.00049631,-0.00001107,0.00022748,-0.00082824,-0.5100
 1078,0.18565452,0.11408319,0.00148723,0.00422254,-0.00138092,0.0000584
 6,0.00022797,-0.00006001,-0.00020664,0.00017559,-0.00030407,0.00046062
 ,-0.00050484,-0.00204306,0.00021653,0.00014932,0.00029750,-0.00000416,
 0.00001420,-0.00002222,-0.00000392,-0.00001489,0.00000333,-0.00005665,
 -0.00005369,-0.00004911,-0.00000466,0.00003673,-0.00002805,-0.00000287
 ,0.00001231,0.00001488,0.00000355,-0.00008267,0.00007734,0.00000075,-0
 .00007639,0.00002680,-0.00006535,-0.00010211,-0.00006062,0.00028418,0.
 00003142,0.00001338,0.00026378,-0.00193353,0.00042693,-0.00008779,-0.0
 0011347,-0.00002776,-0.00200690,0.00198576,-0.00049587,0.00058934,0.00
 000366,0.00036209,0.53822704,-0.02810941,0.00326984,-0.00186409,-0.001
 30554,0.00097946,0.00217777,-0.00000648,-0.00003439,0.00015670,0.00002
 498,-0.00001286,0.00007804,0.00001638,-0.00001670,0.00004080,-0.000003
 65,-0.00012012,0.00008257,-0.00019805,-0.00031151,0.00008613,-0.000019
 62,-0.00005643,-0.00011448,-0.00001245,-0.00024177,-0.00006106,0.00041
 224,-0.00019787,0.00024076,-0.00153736,0.00041864,-0.00013257,0.180980
 41,-0.07828728,-0.03619496,-0.00294143,0.00451131,0.00000196,-0.000015
 85,0.00015349,-0.00034629,0.00030020,-0.00030643,-0.00011012,0.0011234
 3,-0.00019216,0.00036585,0.00007795,-0.00001884,0.00002770,0.00001146,
 0.00000207,0.00000168,-0.00001013,-0.00000020,-0.00000026,-0.00003504,
 -0.00002294,-0.00004508,0.00001292,0.00001573,0.00000782,0.00000328,-0
 .00000553,0.00002092,-0.00002223,0.00000185,0.00006457,0.00001045,0.00
 000699,0.00001418,0.00009479,0.00003721,-0.00003027,0.00014281,0.00007
 985,-0.00008092,0.00154788,0.00034228,-0.00019022,0.00000340,-0.000030
 22,-0.00001587,-0.00443158,0.00078622,0.00218187,0.00032460,0.00033229
 ,-0.00067097,-0.18227724,0.07680543,-0.02623970,-0.00046827,-0.0013145
 2,-0.00330889,0.00145637,0.00343142,0.00016489,-0.00005161,-0.00005418
 ,0.00007658,0.00005661,0.00005539,-0.00000256,0.00006669,-0.00001287,0
 .00000252,-0.00006675,0.00011051,-0.00026981,-0.00031691,0.00000733,-0
 .00004764,0.00007730,-0.00021864,0.00025627,-0.00019842,-0.00000445,-0
 .00004747,0.00036739,0.00024198,-0.00004488,-0.00168109,0.00240449,0.1
 1374431,-0.03684975,-0.02970146,0.00080129,0.00222095,-0.00064474,-0.0
 0001312,0.00033081,-0.00004218,-0.00013551,0.00005290,-0.00031095,0.00
 126488,-0.00050699,0.00055577,0.00018540,0.00003220,0.00003042,-0.0000
 1297,-0.00000560,-0.00001419,0.00001374,0.00000553,0.00000048,-0.00003
 802,-0.00003368,-0.00005051,-0.00000562,0.00000923,-0.00000788,-0.0000
 1777,-0.00001616,0.00000160,0.00002653,0.00000455,0.00009769,-0.000012
 44,-0.00001973,0.00001953,-0.00013055,0.00013940,-0.00005346,-0.000580
 66,-0.00034392,0.00010097,0.00074376,-0.00031793,0.00013036,-0.0000182
 6,-0.00004011,-0.00003860,0.03644425,-0.01361317,-0.01115393,-0.000559
 38,-0.00029046,0.00177799,-0.11073899,0.04312853,0.03936522,0.00111171
 ,0.00009748,-0.00026738,0.00022960,-0.00002773,-0.00026166,-0.00004055
 ,0.00000918,0.00004790,0.00004764,-0.00000189,0.00001822,-0.00002525,-
 0.00001500,0.00000170,-0.00000640,0.00000230,-0.00002806,0.00003859,0.
 00002710,-0.00001861,0.00001900,-0.00010148,0.00001490,-0.00078717,-0.
 00057136,0.00018781,0.00007352,0.00079669,-0.00016911,0.00485477,-0.00
 400016,-0.00095892,-0.00310274,0.00029329,-0.00107309,0.00003027,-0.00
 013744,0.00002991,-0.00009399,0.00002107,-0.00001944,-0.00002356,-0.00
 000582,0.00001526,-0.00009031,-0.00002470,-0.00012040,-0.00000008,0.00
 000177,-0.00000173,0.00000614,-0.00000203,0.00000444,0.00000475,0.0000
 0443,-0.00000404,0.00000915,0.00000742,0.00000240,0.00000810,-0.000002
 31,0.00001059,0.00003075,-0.00000031,0.00002050,-0.00002184,-0.0000033
 2,-0.00004006,0.00000920,-0.00010245,-0.00001937,-0.00049656,-0.001113
 17,0.00002002,0.00055533,0.00063442,-0.00025423,-0.00009700,0.00002884
 ,-0.00001670,0.00001850,0.00001207,0.00000549,-0.47871938,0.22563759,0
 .11310149,-0.01969622,0.01409233,0.00878028,0.00104010,-0.00033568,0.0
 0092160,0.49362678,0.00065850,0.00003622,0.00009859,-0.00000733,-0.000
 02559,-0.00021853,0.00003019,0.00001227,-0.00001428,-0.00007898,-0.000
 00647,0.00006098,0.00002983,-0.00001334,-0.00000816,-0.00008499,0.0000
 0950,-0.00003352,-0.00003242,0.00010058,0.00012446,-0.00026614,0.00031
 154,-0.00013692,-0.00016595,-0.00047849,0.00001017,-0.00010008,0.00330
 567,-0.00039179,0.03335499,-0.01685940,-0.00631495,-0.00584761,0.00135
 972,0.00230103,0.00006712,-0.00074559,-0.00018705,0.00017772,-0.000002
 13,-0.00007995,-0.00003685,-0.00001487,0.00003441,-0.00004297,-0.00000
 756,0.00002001,-0.00000132,0.00000705,-0.00001160,-0.00000953,0.000000
 25,0.00001119,-0.00000340,0.00000397,0.00000088,0.00000644,0.00001252,
 0.00000092,0.00000948,-0.00000501,0.00001231,-0.00002730,-0.00006717,-
 0.00001836,0.00014221,0.00008483,0.00016385,-0.00000612,-0.00000222,0.
 00001357,-0.00150810,-0.00034700,0.00003323,-0.00043957,0.00205794,-0.
 00029976,-0.00006313,0.00006670,0.00017880,-0.00001272,0.00002182,-0.0
 0001682,0.22861943,-0.11786187,-0.05868105,-0.01894541,0.00911540,0.00
 551306,0.00013340,0.00098459,0.00137536,-0.23387684,0.12520322,-0.0005
 7512,0.00042145,0.00338323,-0.00019601,0.00027995,-0.00016052,-0.00009
 310,0.00006164,0.00004678,-0.00003852,0.00001691,0.00002499,0.00001518
 ,-0.00001531,0.00000139,-0.00002557,-0.00000315,-0.00002781,-0.0000403
 6,0.00006319,0.00002782,0.00004525,-0.00004201,-0.00006605,0.00034662,
 -0.00055519,0.00015278,0.00079006,-0.00099386,0.00001621,-0.01285931,0
 .00601375,0.00110226,0.03669515,-0.01579399,-0.01089257,0.00014424,-0.
 00010587,-0.00045198,0.00006794,-0.00011614,0.00000837,0.00007872,-0.0
 0002433,0.00004094,-0.00019877,0.00017294,0.00031097,-0.00004420,-0.00
 003775,-0.00004660,0.00000035,-0.00000026,0.00000625,-0.00000694,0.000
 00034,0.00000179,0.00000546,0.00001064,0.00000494,-0.00000113,-0.00000
 435,-0.00000073,0.00000807,-0.00000567,0.00002921,-0.00000249,0.000023
 47,0.00001838,-0.00001086,0.00023562,-0.00005503,-0.00007851,0.0001358
 4,0.00041104,-0.00060309,-0.00045271,0.00049950,-0.00008523,0.00019980
 ,-0.00002657,-0.00003306,-0.00001239,-0.00000730,0.11413650,-0.0579350
 3,-0.03510068,-0.01798325,0.01042434,0.00451872,0.00056962,0.00066877,
 -0.00766868,-0.12031390,0.05437215,0.04138380,-0.00192728,-0.03093249,
 0.00714918,0.00066443,0.00012115,0.00094936,-0.00015753,-0.00002278,0.
 00037104,-0.00000242,0.00006430,0.00007415,0.00003537,0.00001034,-0.00
 003075,0.00001846,-0.00001086,0.00002182,0.00003949,0.00022514,0.00005
 214,0.00003108,0.00002755,-0.00008642,0.00019715,0.00006151,0.00002661
 ,0.00003688,0.00038307,0.00048844,0.00034831,0.00029546,0.00105566,-0.
 01334089,0.05286104,-0.01404815,-0.00223129,-0.00122326,-0.00489905,0.
 00063025,-0.00145875,0.00068968,0.00039679,0.00032231,-0.00012497,-0.0
 0011949,0.00012793,-0.00031685,-0.00004775,0.00000642,-0.00001673,-0.0
 0002446,0.00000101,-0.00001453,-0.00000306,0.00001201,0.00000227,0.000
 00025,-0.00000227,0.00000084,-0.00001987,-0.00000254,-0.00001721,-0.00
 001284,-0.00000861,0.00001689,0.00002568,-0.00000068,0.00000141,-0.000
 02808,0.00001322,0.00002068,-0.00009806,0.00002930,-0.00001699,0.00031
 624,-0.00020350,0.00004658,-0.00009281,-0.00073582,0.00002146,-0.00044
 211,-0.00024907,-0.00024042,-0.00046166,-0.00741872,0.00414716,0.00025
 120,0.00031622,-0.00053113,-0.00117237,0.03589604,-0.01190048,0.000477
 42,-0.00073814,-0.00038557,0.01657810,-0.00325737,-0.01698752,0.002946
 59,0.00051619,0.00063788,0.00138694,-0.00015815,0.00017922,-0.00016706
 ,0.00011134,0.00020516,0.00005848,-0.00000337,0.00011254,-0.00004926,0
 .00001110,-0.00001747,0.00007120,-0.00009986,0.00009480,-0.00012594,0.
 00002182,0.00002048,-0.00006100,0.00014661,-0.00001410,0.00000332,0.00
 029413,0.00007508,0.00031357,-0.00016168,0.00139762,-0.00046469,0.0529
 6411,-0.56331561,0.16376694,-0.00200108,0.00074441,-0.00386916,0.00050
 611,-0.00083543,0.00100215,0.00005344,0.00003099,-0.00092252,0.0001312
 2,-0.00008260,0.00000099,-0.00000782,0.00001194,0.00003350,-0.00003418
 ,-0.00000578,-0.00002427,0.00003031,0.00001258,0.00000927,-0.00001584,
 -0.00001771,-0.00001643,-0.00002831,-0.00000090,-0.00002377,-0.0000188
 6,-0.00000334,0.00000650,0.00001657,-0.00001806,-0.00000194,-0.0000377
 9,0.00000677,0.00002927,-0.00003932,-0.00001779,-0.00000297,-0.0000501
 8,0.00001683,-0.00013045,0.00012044,0.00026942,0.00003099,-0.00032605,
 -0.00017600,-0.00022764,0.00055193,0.00327746,-0.00162224,0.00003151,0
 .00019494,0.00054470,-0.00172569,-0.00908297,0.00455513,-0.00022405,0.
 00057126,0.00008775,-0.04730727,0.58263037,-0.00159569,-0.02317275,0.0
 0438888,0.00027655,-0.00166177,0.00176436,-0.00011426,0.00002225,0.000
 22546,0.00012232,0.00005527,0.00016439,0.00001485,0.00003700,-0.000028
 86,-0.00002615,0.00001656,0.00003109,0.00001075,0.00009823,0.00002591,
 0.00004951,-0.00002079,-0.00012028,-0.00013968,0.00011999,0.00020292,0
 .00008632,-0.00007172,0.00117378,0.00116094,-0.00191960,-0.00856215,-0
 .01337554,0.16755440,-0.05295576,-0.00210208,-0.00218871,-0.00376888,0
 .00016068,-0.00118612,0.00071511,0.00007447,0.00061917,-0.00016729,0.0
 0003182,0.00021990,-0.00015044,0.00000417,0.00000500,-0.00000144,-0.00
 002103,0.00000232,-0.00000708,0.00001139,0.00001898,-0.00000459,-0.000
 00263,-0.00000620,-0.00000513,-0.00000922,-0.00000374,-0.00000318,0.00
 001891,0.00001302,0.00003597,0.00000703,-0.00001420,0.00000336,-0.0000
 7172,-0.00002469,0.00000096,-0.00002414,-0.00002421,-0.00007691,0.0002
 7407,0.00239864,-0.00046201,0.00003719,0.00022123,-0.00003632,-0.00032
 580,-0.00019582,-0.00022562,-0.00338586,0.03645535,-0.01206852,-0.0006
 8909,-0.00029267,0.00146850,0.00214428,-0.00938493,0.00308834,0.000210
 35,-0.00029578,0.00221306,0.01714688,-0.16698812,0.06298518,-0.0039210
 5,-0.00324725,-0.00262044,0.00820653,-0.00060101,-0.02838398,-0.059167
 44,0.00891153,0.16195726,0.00058030,-0.00285301,0.00169335,0.00068045,
 0.00044355,0.00084590,0.00007263,0.00057081,0.00003582,-0.00020355,-0.
 00015125,0.00053810,0.00006666,-0.00023098,-0.00025329,-0.00010017,-0.
 00001055,-0.00000181,0.00010224,0.00019242,-0.00006943,-0.00000118,-0.
 00011000,0.00003043,0.00060809,0.00034447,-0.00147699,-0.00022147,-0.0
 0052722,0.00041152,-0.00048692,0.00005697,-0.00082448,0.00134046,0.000
 21186,0.00094261,0.00100441,0.00106312,0.00055689,-0.00631761,0.001054
 08,0.03427124,-0.00044840,-0.00015930,-0.00017053,-0.00000572,0.000080
 33,-0.00016286,0.00007169,-0.00006109,-0.00000728,0.00009346,-0.000001
 03,0.00010182,0.00000059,0.00001856,0.00001333,-0.00002946,-0.00004593
 ,0.00016226,0.00001987,-0.00000716,0.00000573,0.00000217,-0.00000431,-
 0.00001381,0.00000551,0.00002213,-0.00000340,0.00000053,0.00009225,-0.
 00003169,0.00008619,0.00004991,-0.00002127,-0.00046361,-0.00032023,-0.
 00021578,0.00004610,0.00002784,-0.00019895,-0.00005042,0.00006490,0.00
 002290,0.00000998,-0.00000661,0.00002195,0.00003493,-0.00000643,0.0000
 3522,0.05838266,-0.00342488,-0.00160026,-0.00259783,0.00839486,-0.0011
 9135,-0.01555197,0.00685090,-0.00419784,-0.02437138,-0.00822660,-0.008
 24012,0.04113334,0.00118696,0.00112912,0.00117916,-0.00022479,0.000020
 65,-0.00006417,0.00010025,0.00022637,0.00013382,-0.00034513,0.00018544
 ,0.00007308,-0.00004322,-0.00011682,-0.00002062,0.00020033,0.00043658,
 -0.00018128,-0.00005436,-0.00011500,0.00005727,0.00003313,0.00078102,-
 0.00099790,-0.00050217,-0.00091845,-0.00023599,-0.00278893,-0.00651255
 ,0.00058634,0.00058775,0.00020299,0.00026721,0.00013095,0.00075532,0.0
 0078865,0.00356361,0.00068557,-0.01934302,-0.00029857,0.00028159,-0.00
 047778,0.00030535,0.00004846,-0.00003614,-0.00004281,0.00001996,-0.000
 02099,-0.00013429,-0.00002712,0.00000597,-0.00002070,0.00002153,0.0001
 4779,0.00002094,0.00008650,-0.00007153,0.00000892,0.00001004,0.0000043
 3,0.00000296,0.00002048,0.00001864,0.00002525,0.00004155,0.00000590,0.
 00004405,0.00020857,-0.00007205,-0.00015068,0.00009655,0.00145961,-0.0
 0031156,-0.00023237,-0.00010305,0.00003741,0.00004293,-0.00015657,-0.0
 0015102,-0.00005880,-0.00009596,0.00001654,0.00000235,0.00001081,0.000
 07842,-0.00001199,0.00005126,-0.00487438,0.01791182,-0.00312481,-0.002
 14807,-0.00070705,0.00709751,-0.00027091,-0.01433513,0.16435779,-0.021
 59284,-0.56830560,0.00024500,0.00316858,-0.00639828,-0.00053418,-0.000
 18413,0.00012832,-0.00010191,-0.00013998,-0.00013474,-0.00004480,0.000
 05750,0.00006877,0.00008096,0.00002546,0.00003790,-0.00007049,0.000011
 16,0.00004667,-0.00001074,-0.00003752,-0.00005150,0.00008064,-0.000047
 58,0.00003244,0.00030572,0.00065683,-0.00061554,0.00017339,-0.00038119
 ,0.00056710,0.00055457,0.00116316,0.00163961,0.00021300,-0.00022206,0.
 00049223,0.00013139,0.00066517,0.00067268,-0.00248839,0.00094326,-0.00
 026691,0.00038386,0.00011798,0.00008925,0.00010287,0.00000570,0.000197
 83,0.00007377,-0.00000444,0.00001761,0.00002404,-0.00003494,0.00002708
 ,0.00000872,-0.00001083,-0.00003427,-0.00000926,-0.00000168,-0.0000139
 4,0.00000850,0.00000580,-0.00001460,0.00000010,-0.00000908,0.00000670,
 0.00000051,0.00000099,-0.00002176,-0.00001442,0.00007180,-0.00004131,0
 .00013400,-0.00004407,-0.00038095,-0.00032949,-0.00020495,-0.00009565,
 0.00003282,-0.00000199,-0.00012321,-0.00012985,-0.00002148,-0.00006228
 ,0.00001984,0.00000932,0.00001311,0.00003227,-0.00001652,0.00003462,-0
 .16719334,0.01846945,0.58751923,0.00007823,-0.00013738,-0.00024289,-0.
 00008400,0.00014304,0.00009299,-0.00003256,-0.00003287,0.00001116,0.00
 015741,-0.00001175,-0.00014849,-0.00003988,0.00002885,-0.00000075,0.00
 016831,-0.00000008,0.00002159,0.00027042,-0.00001944,0.00000005,-0.000
 98058,0.00066046,0.00094419,-0.00082443,-0.00129174,-0.00447245,-0.023
 47627,0.00096716,0.00193402,-0.50918590,0.21959073,0.06771090,0.000457
 49,-0.00042705,-0.00018426,0.00022420,0.00094293,0.00212645,0.00003135
 ,-0.00028614,0.00015937,0.00001441,0.00000262,-0.00004712,0.00004792,-
 0.00003108,-0.00002062,0.00000881,0.00000613,0.00001297,0.00001425,-0.
 00000490,-0.00001562,0.00000879,-0.00000399,-0.00000084,0.00000671,-0.
 00000107,0.00001639,-0.00000838,0.00000405,-0.00001122,-0.00025643,-0.
 00023975,-0.00033129,0.00001004,-0.00004747,-0.00007774,0.00034330,-0.
 00004326,-0.00004106,0.00012301,0.00017704,0.00014754,-0.00539298,0.00
 331753,-0.00234691,0.00052898,0.00010040,-0.00094518,0.00001167,0.0000
 2068,0.00003849,0.00434149,-0.00313023,0.00092307,0.00049923,0.0006193
 3,-0.00026883,-0.00005302,0.00021363,-0.00054422,0.00099976,-0.0009278
 0,0.00064990,0.00009995,-0.00000355,0.00000521,0.00000156,0.00000550,-
 0.00000960,0.53188715,-0.00009001,-0.00011481,-0.00000245,0.00010611,0
 .00016623,-0.00003036,-0.00002450,-0.00002994,0.00004428,0.00010225,-0
 .00000327,-0.00007746,-0.00002646,0.00001703,-0.00000130,0.00007256,-0
 .00000270,0.00002737,0.00003485,-0.00004964,0.00002018,-0.00117953,0.0
 0056876,0.00045810,-0.00268980,-0.00125719,-0.00338283,-0.02656971,0.0
 0620996,0.00245699,0.22362475,-0.09849492,-0.02999205,0.00065006,0.002
 15844,-0.00165713,-0.00016887,0.00049669,0.00109869,-0.00022345,0.0000
 0717,0.00036880,0.00000702,-0.00000846,-0.00005244,-0.00001948,0.00002
 194,0.00002148,-0.00001066,-0.00000482,-0.00000108,0.00001113,-0.00000
 111,-0.00000954,0.00000541,-0.00000246,-0.00000353,-0.00000063,0.00000
 207,-0.00000055,-0.00001387,-0.00000434,-0.00001407,-0.00025550,-0.000
 20157,-0.00029690,0.00005812,-0.00001520,0.00001291,0.00024877,-0.0001
 6856,-0.00007001,-0.00025950,0.00010551,-0.00003473,-0.00415614,0.0012
 4148,0.00157330,0.00042985,0.00003984,-0.00003883,-0.00001281,-0.00001
 495,-0.00000763,0.03313726,-0.01853026,-0.00506084,-0.00024168,0.00158
 384,-0.00066424,-0.00072354,0.00026977,0.00103756,-0.00113678,-0.00683
 070,0.00289867,-0.00053770,0.00009751,-0.00045675,0.00001302,0.0000072
 4,0.00000214,-0.22016055,0.11274145,0.00058877,-0.00017369,-0.00026700
 ,-0.00001825,0.00006723,-0.00012293,-0.00001858,-0.00000722,0.00000269
 ,0.00017376,0.00002263,0.00002738,-0.00003453,-0.00002155,0.00002452,0
 .00002761,-0.00001196,0.00000415,0.00015627,0.00001714,0.00013449,-0.0
 0094163,0.00022140,0.00049349,-0.00125979,-0.00089852,-0.00272735,-0.0
 2400888,0.00415259,0.00104823,0.06860446,-0.02771039,-0.02111308,-0.00
 164894,-0.00032452,0.00096305,-0.00196075,0.00116437,0.00153483,-0.000
 17496,-0.00013525,0.00022147,0.00001541,-0.00000603,-0.00000925,0.0000
 1367,0.00000741,0.00000160,0.00001111,-0.00000093,0.00000393,0.0000191
 1,0.00000118,0.00000551,0.00000845,0.00000747,-0.00000299,0.00001072,0
 .00001007,-0.00000556,0.00000314,-0.00000509,0.00000400,-0.00015392,-0
 .00015553,-0.00022222,0.00003221,0.00001534,0.00000312,0.00002112,-0.0
 0021237,0.00042222,-0.00015357,0.00000615,-0.00017379,0.03491514,-0.01
 622420,-0.00044694,0.00064783,-0.00021237,-0.00017591,0.00002471,0.000
 01890,0.00001635,-0.01090573,0.00727568,0.00087168,0.00026172,-0.00088
 564,0.00060641,0.00035779,-0.00008304,-0.00006597,0.00015400,0.0023742
 1,0.00028897,0.00031473,-0.00013330,0.00012257,0.00000299,0.00000562,0
 .00001156,-0.06508520,0.03183423,0.01852075\\0.02498354,-0.00150593,0.
 00083650,-0.10450272,-0.04399948,0.06500706,0.04899694,-0.05571768,0.0
 9061347,-0.00329679,0.00302399,0.00127454,0.03023302,0.06902231,0.0910
 8504,0.11891064,0.00279686,0.01894958,-0.00343098,-0.02704362,-0.00456
 173,0.09358974,0.07461200,-0.05389188,0.03806676,-0.05335877,-0.096626
 25,0.00495843,-0.00016032,0.00467579,-0.07492495,0.04258896,-0.0871917
 5,-0.09444458,-0.07275532,0.03570720,-0.08238200,0.06391211,0.00914000
 ,-0.02797052,0.09580839,-0.02420683,0.00943801,0.09470066,-0.03012403,
 0.09169658,-0.05111705,-0.01253498,-0.08475493,0.05555236,0.00993750,-
 0.02109792,0.03410418,-0.09058162,0.00162610,-0.09953926,-0.00076232,-
 0.06130933,-0.07597489,0.03194560,-0.05588892,0.07647062,-0.03417543,-
 0.09123076,0.03423541,0.02225395,0.00399112,-0.10546192,0.01044409,-0.
 00925018,-0.03876311,0.09261235,-0.02134073,0.10094237,0.00013323,-0.0
 2602697,-0.00879016,0.09552052,0.08605117,-0.03646749,-0.01143527,0.00
 198052,-0.09059980,0.02376406,0.01193695,-0.09216137,-0.06872847,0.072
 68563,0.04824518,0.05010618,0.09960472,-0.03258597,-0.01936598,-0.0874
 8311,0.04303215,0.02116423,-0.00977923,0.09547955,-0.03112687,0.028996
 75,-0.00672465,-0.09668548,0.09136801,-0.04180032,-0.01317198\\\@
 The archive entry for this job was punched.

 Writing a WFNX file to "TUYHOK_Complex_2_Ligand_0_NN_Cu_oriented.wfx"


 THE ... SCIENTISTS WERE WRONG ... THE MOST PERSISTENT PRINCIPLES 
 OF THE UNIVERSE WERE ACCIDENT AND ERROR.

                          -- FRANK HERBERT IN DUNE
 Job cpu time:       0 days  1 hours 10 minutes 12.3 seconds.
 Elapsed time:       0 days  1 hours 10 minutes 28.7 seconds.
 File lengths (MBytes):  RWF=    528 Int=      0 D2E=      0 Chk=     12 Scr=      8
 Normal termination of Gaussian 16 at Sat Mar  4 12:48:28 2023.
