 Entering Gaussian System, Link 0=g16
 Initial command:
 /ssoft/spack/external/gaussian/g16-C.01/avx2/g16/l1.exe "/scratch/lcmd/2316164/Gau-1366488.inp" -scrdir="/scratch/lcmd/2316164/"
 Entering Link 1 = /ssoft/spack/external/gaussian/g16-C.01/avx2/g16/l1.exe PID=   1366490.
  
 Copyright (c) 1988-2019, Gaussian, Inc.  All Rights Reserved.
  
 This is part of the Gaussian(R) 16 program.  It is based on
 the Gaussian(R) 09 system (copyright 2009, Gaussian, Inc.),
 the Gaussian(R) 03 system (copyright 2003, Gaussian, Inc.),
 the Gaussian(R) 98 system (copyright 1998, Gaussian, Inc.),
 the Gaussian(R) 94 system (copyright 1995, Gaussian, Inc.),
 the Gaussian 92(TM) system (copyright 1992, Gaussian, Inc.),
 the Gaussian 90(TM) system (copyright 1990, Gaussian, Inc.),
 the Gaussian 88(TM) system (copyright 1988, Gaussian, Inc.),
 the Gaussian 86(TM) system (copyright 1986, Carnegie Mellon
 University), and the Gaussian 82(TM) system (copyright 1983,
 Carnegie Mellon University). Gaussian is a federally registered
 trademark of Gaussian, Inc.
  
 This software contains proprietary and confidential information,
 including trade secrets, belonging to Gaussian, Inc.
  
 This software is provided under written license and may be
 used, copied, transmitted, or stored only in accord with that
 written license.
  
 The following legend is applicable only to US Government
 contracts under FAR:
  
                    RESTRICTED RIGHTS LEGEND
  
 Use, reproduction and disclosure by the US Government is
 subject to restrictions as set forth in subparagraphs (a)
 and (c) of the Commercial Computer Software - Restricted
 Rights clause in FAR 52.227-19.
  
 Gaussian, Inc.
 340 Quinnipiac St., Bldg. 40, Wallingford CT 06492
  
  
 ---------------------------------------------------------------
 Warning -- This program may not be used in any manner that
 competes with the business of Gaussian, Inc. or will provide
 assistance to any competitor of Gaussian, Inc.  The licensee
 of this program is prohibited from giving any competitor of
 Gaussian, Inc. access to this program.  By using this program,
 the user acknowledges that Gaussian, Inc. is engaged in the
 business of creating and licensing software in the field of
 computational chemistry and represents and warrants to the
 licensee that it is not a competitor of Gaussian, Inc. and that
 it will not use this program in any manner prohibited above.
 ---------------------------------------------------------------
  

 Cite this work as:
 Gaussian 16, Revision C.01,
 M. J. Frisch, G. W. Trucks, H. B. Schlegel, G. E. Scuseria, 
 M. A. Robb, J. R. Cheeseman, G. Scalmani, V. Barone, 
 G. A. Petersson, H. Nakatsuji, X. Li, M. Caricato, A. V. Marenich, 
 J. Bloino, B. G. Janesko, R. Gomperts, B. Mennucci, H. P. Hratchian, 
 J. V. Ortiz, A. F. Izmaylov, J. L. Sonnenberg, D. Williams-Young, 
 F. Ding, F. Lipparini, F. Egidi, J. Goings, B. Peng, A. Petrone, 
 T. Henderson, D. Ranasinghe, V. G. Zakrzewski, J. Gao, N. Rega, 
 G. Zheng, W. Liang, M. Hada, M. Ehara, K. Toyota, R. Fukuda, 
 J. Hasegawa, M. Ishida, T. Nakajima, Y. Honda, O. Kitao, H. Nakai, 
 T. Vreven, K. Throssell, J. A. Montgomery, Jr., J. E. Peralta, 
 F. Ogliaro, M. J. Bearpark, J. J. Heyd, E. N. Brothers, K. N. Kudin, 
 V. N. Staroverov, T. A. Keith, R. Kobayashi, J. Normand, 
 K. Raghavachari, A. P. Rendell, J. C. Burant, S. S. Iyengar, 
 J. Tomasi, M. Cossi, J. M. Millam, M. Klene, C. Adamo, R. Cammi, 
 J. W. Ochterski, R. L. Martin, K. Morokuma, O. Farkas, 
 J. B. Foresman, and D. J. Fox, Gaussian, Inc., Wallingford CT, 2019.
 
 ******************************************
 Gaussian 16:  ES64L-G16RevC.01  3-Jul-2019
                 4-Mar-2023 
 ******************************************
 %nprocshared=1
 Will use up to    1 processors via shared memory.
 %mem=8000MB
 %chk=TUYHUQ_Complex_2_Ligand_0_NN_Cu_oriented.chk
 ----------------------------------------------------------------------
 #p pop=(regular,nbo,savenbos) freq=noraman def2svp empiricaldispersion
 =gd3bj output=wfx pbe1pbe
 ----------------------------------------------------------------------
 1/10=4,30=1,38=1/1,3;
 2/12=2,17=6,18=5,40=1/2;
 3/5=43,7=101,11=2,25=1,30=1,71=2,74=-13,124=41,140=1/1,2,3;
 4//1;
 5/5=2,38=5,98=1/2;
 8/6=4,10=90,11=11/1;
 11/6=1,8=1,9=11,15=111,16=1/1,2,10;
 10/6=1/2;
 6/28=1,40=1,73=1/1,7;
 7/8=1,10=1,25=1/1,2,3,16;
 1/10=4,30=1/3;
 99/6=200/99;
 Leave Link    1 at Sat Mar  4 11:37:58 2023, MaxMem=  1048576000 cpu:               0.0 elap:               0.1
 (Enter /ssoft/spack/external/gaussian/g16-C.01/avx2/g16/l101.exe)
 ----------------------------------------
 TUYHUQ_Complex_2_Ligand_0_NN_Cu_oriented
 ----------------------------------------
 Symbolic Z-matrix:
 Charge =  0 Multiplicity = 1
 N                     2.06072  -0.19895   0. 
 C                    -0.16517  -2.49015  -1.40453 
 C                     0.76381  -1.63338  -2.27107 
 N                     2.17015  -1.66195  -1.82501 
 C                     2.90727  -0.43397  -2.2347 
 C                     2.76901   0.57719  -1.06746 
 C                     2.36129  -1.60825  -0.389 
 H                    -1.09939  -2.35065  -1.66668 
 H                     0.7182   -1.9536   -3.19661 
 H                     0.44551  -0.70722  -2.25895 
 H                     2.5227   -0.0622   -3.05601 
 H                     3.85125  -0.64071  -2.39783 
 H                     3.64956   0.87744  -0.75691 
 H                     2.24469   1.35827  -1.34083 
 H                     3.29859  -1.83218  -0.16167 
 C                     2.48625  -0.02237   1.40704 
 C                     1.55179  -0.86703   2.2687 
 N                     1.47754  -2.27892   1.83568 
 C                     0.18486  -2.90181   2.24037 
 C                    -0.78499  -2.74386   1.03567 
 N                     0.04179  -2.07131   0. 
 C                     1.42144  -2.46449   0.39739 
 H                     2.42535   0.92095   1.66471 
 H                     3.41318  -0.31733   1.52183 
 H                     1.86125  -0.83502   3.19851 
 H                     0.65303  -0.47828   2.23973 
 H                    -0.17709  -2.45009   3.03209 
 H                    -1.55947  -2.19335   1.27815 
 H                    -1.09918  -3.61726   0.72137 
 H                     1.57382  -3.41747   0.17738 
 H                     0.04964  -3.44093  -1.51148 
 H                     0.3148   -3.84924   2.45321 
 
 ITRead=  0  0  0  0  0  0  0  0  0  0  0  0  0  0  0  0  0  0  0  0
 ITRead=  0  0  0  0  0  0  0  0  0  0  0  0
 MicOpt= -1 -1 -1 -1 -1 -1 -1 -1 -1 -1 -1 -1 -1 -1 -1 -1 -1 -1 -1 -1
 MicOpt= -1 -1 -1 -1 -1 -1 -1 -1 -1 -1 -1 -1
 NAtoms=     32 NQM=       32 NQMF=       0 NMMI=      0 NMMIF=      0
                NMic=       0 NMicF=      0.
                    Isotopes and Nuclear Properties:
 (Nuclear quadrupole moments (NQMom) in fm**2, nuclear magnetic moments (NMagM)
  in nuclear magnetons)

  Atom         1           2           3           4           5           6           7           8           9          10
 IAtWgt=          14          12          12          14          12          12          12           1           1           1
 AtmWgt=  14.0030740  12.0000000  12.0000000  14.0030740  12.0000000  12.0000000  12.0000000   1.0078250   1.0078250   1.0078250
 NucSpn=           2           0           0           2           0           0           0           1           1           1
 AtZEff=  -0.0000000  -0.0000000  -0.0000000  -0.0000000  -0.0000000  -0.0000000  -0.0000000  -0.0000000  -0.0000000  -0.0000000
 NQMom=    2.0440000   0.0000000   0.0000000   2.0440000   0.0000000   0.0000000   0.0000000   0.0000000   0.0000000   0.0000000
 NMagM=    0.4037610   0.0000000   0.0000000   0.4037610   0.0000000   0.0000000   0.0000000   2.7928460   2.7928460   2.7928460
 AtZNuc=   7.0000000   6.0000000   6.0000000   7.0000000   6.0000000   6.0000000   6.0000000   1.0000000   1.0000000   1.0000000

  Atom        11          12          13          14          15          16          17          18          19          20
 IAtWgt=           1           1           1           1           1          12          12          14          12          12
 AtmWgt=   1.0078250   1.0078250   1.0078250   1.0078250   1.0078250  12.0000000  12.0000000  14.0030740  12.0000000  12.0000000
 NucSpn=           1           1           1           1           1           0           0           2           0           0
 AtZEff=  -0.0000000  -0.0000000  -0.0000000  -0.0000000  -0.0000000  -0.0000000  -0.0000000  -0.0000000  -0.0000000  -0.0000000
 NQMom=    0.0000000   0.0000000   0.0000000   0.0000000   0.0000000   0.0000000   0.0000000   2.0440000   0.0000000   0.0000000
 NMagM=    2.7928460   2.7928460   2.7928460   2.7928460   2.7928460   0.0000000   0.0000000   0.4037610   0.0000000   0.0000000
 AtZNuc=   1.0000000   1.0000000   1.0000000   1.0000000   1.0000000   6.0000000   6.0000000   7.0000000   6.0000000   6.0000000

  Atom        21          22          23          24          25          26          27          28          29          30
 IAtWgt=          14          12           1           1           1           1           1           1           1           1
 AtmWgt=  14.0030740  12.0000000   1.0078250   1.0078250   1.0078250   1.0078250   1.0078250   1.0078250   1.0078250   1.0078250
 NucSpn=           2           0           1           1           1           1           1           1           1           1
 AtZEff=  -0.0000000  -0.0000000  -0.0000000  -0.0000000  -0.0000000  -0.0000000  -0.0000000  -0.0000000  -0.0000000  -0.0000000
 NQMom=    2.0440000   0.0000000   0.0000000   0.0000000   0.0000000   0.0000000   0.0000000   0.0000000   0.0000000   0.0000000
 NMagM=    0.4037610   0.0000000   2.7928460   2.7928460   2.7928460   2.7928460   2.7928460   2.7928460   2.7928460   2.7928460
 AtZNuc=   7.0000000   6.0000000   1.0000000   1.0000000   1.0000000   1.0000000   1.0000000   1.0000000   1.0000000   1.0000000

  Atom        31          32
 IAtWgt=           1           1
 AtmWgt=   1.0078250   1.0078250
 NucSpn=           1           1
 AtZEff=  -0.0000000  -0.0000000
 NQMom=    0.0000000   0.0000000
 NMagM=    2.7928460   2.7928460
 AtZNuc=   1.0000000   1.0000000
 Leave Link  101 at Sat Mar  4 11:37:58 2023, MaxMem=  1048576000 cpu:               0.1 elap:               0.1
 (Enter /ssoft/spack/external/gaussian/g16-C.01/avx2/g16/l103.exe)

 GradGradGradGradGradGradGradGradGradGradGradGradGradGradGradGradGradGrad
 Berny optimization.
 Initialization pass.
 Trust Radius=3.00D-01 FncErr=1.00D-07 GrdErr=1.00D-07 EigMax=2.50D+02 EigMin=1.00D-04
 Number of steps in this run=      2 maximum allowed number of steps=      2.
 GradGradGradGradGradGradGradGradGradGradGradGradGradGradGradGradGradGrad

 Leave Link  103 at Sat Mar  4 11:37:59 2023, MaxMem=  1048576000 cpu:               0.0 elap:               0.0
 (Enter /ssoft/spack/external/gaussian/g16-C.01/avx2/g16/l202.exe)
                          Input orientation:                          
 ---------------------------------------------------------------------
 Center     Atomic      Atomic             Coordinates (Angstroms)
 Number     Number       Type             X           Y           Z
 ---------------------------------------------------------------------
      1          7           0        2.060720   -0.198952    0.000000
      2          6           0       -0.165167   -2.490149   -1.404530
      3          6           0        0.763810   -1.633378   -2.271068
      4          7           0        2.170154   -1.661946   -1.825014
      5          6           0        2.907267   -0.433969   -2.234696
      6          6           0        2.769010    0.577188   -1.067455
      7          6           0        2.361287   -1.608251   -0.389002
      8          1           0       -1.099386   -2.350648   -1.666676
      9          1           0        0.718201   -1.953601   -3.196608
     10          1           0        0.445506   -0.707224   -2.258952
     11          1           0        2.522699   -0.062200   -3.056007
     12          1           0        3.851255   -0.640709   -2.397827
     13          1           0        3.649558    0.877444   -0.756911
     14          1           0        2.244692    1.358267   -1.340831
     15          1           0        3.298588   -1.832176   -0.161666
     16          6           0        2.486253   -0.022375    1.407035
     17          6           0        1.551791   -0.867026    2.268703
     18          7           0        1.477542   -2.278923    1.835677
     19          6           0        0.184864   -2.901805    2.240366
     20          6           0       -0.784988   -2.743861    1.035671
     21          7           0        0.041791   -2.071315    0.000000
     22          6           0        1.421442   -2.464490    0.397388
     23          1           0        2.425352    0.920951    1.664706
     24          1           0        3.413185   -0.317334    1.521827
     25          1           0        1.861253   -0.835015    3.198514
     26          1           0        0.653031   -0.478284    2.239729
     27          1           0       -0.177095   -2.450089    3.032088
     28          1           0       -1.559467   -2.193347    1.278150
     29          1           0       -1.099175   -3.617256    0.721367
     30          1           0        1.573819   -3.417469    0.177383
     31          1           0        0.049639   -3.440926   -1.511480
     32          1           0        0.314803   -3.849239    2.453214
 ---------------------------------------------------------------------
                    Distance matrix (angstroms):
                    1          2          3          4          5
     1  N    0.000000
     2  C    3.489535   0.000000
     3  C    2.982835   1.532300   0.000000
     4  N    2.341581   2.513255   1.475665   0.000000
     5  C    2.401195   3.789049   2.456483   1.489664   0.000000
     6  C    1.497842   4.258118   3.218092   2.438492   1.550485
     7  C    1.492576   2.862169   2.468752   1.449671   2.254688
     8  H    4.170596   0.980278   2.085968   3.345037   4.477674
     9  H    3.885801   2.068759   0.980432   2.018539   2.833119
    10  H    2.823140   2.069245   0.979400   2.018466   2.476998
    11  H    3.093753   3.980821   2.485642   2.049102   0.980131
    12  H    3.025019   4.531965   3.245578   2.048691   0.980034
    13  H    2.062996   5.129544   4.113933   3.126976   2.110604
    14  H    2.063154   4.541121   3.465298   3.059685   2.109529
    15  H    2.055693   3.738347   3.303665   2.017193   2.530922
    16  C    1.480543   4.585284   4.369278   3.637892   3.689020
    17  C    2.419162   4.367506   4.670946   4.215779   4.722865
    18  N    2.834798   3.638962   4.217996   3.776378   4.692110
    19  C    3.980388   3.684732   4.721983   4.691050   5.790325
    20  C    3.955658   2.530440   3.816605   4.252873   5.446434
    21  N    2.753510   1.480188   2.422984   2.833406   3.985689
    22  C    2.387311   2.401020   2.871217   2.478653   3.641230
    23  H    2.039212   5.269402   4.977513   4.349095   4.156126
    24  H    2.039395   5.107767   4.810116   3.815030   3.792232
    25  H    3.267239   5.294701   5.635432   5.100497   5.547499
    26  H    2.660075   4.242367   4.657661   4.497206   5.010391
    27  H    4.389646   4.436815   5.447548   5.451806   6.427833
    28  H    4.326319   3.037916   4.278800   4.880788   5.948714
    29  H    4.710638   2.581120   4.044893   4.582119   5.909585
    30  H    3.259967   2.527142   3.135923   2.728933   4.061709
    31  H    4.103586   0.980591   2.086683   2.785617   4.210804
    32  H    4.731921   4.118214   5.237413   5.150711   6.353065
                    6          7          8          9         10
     6  C    0.000000
     7  C    2.324366   0.000000
     8  H    4.888331   3.762959   0.000000
     9  H    3.891530   3.271337   2.408725   0.000000
    10  H    2.909992   2.824673   2.332021   1.583356   0.000000
    11  H    2.103289   3.086947   4.504079   2.617896   2.316481
    12  H    2.103430   2.681701   5.288413   3.489665   3.409228
    13  H    0.980794   2.823770   5.813839   4.749715   3.877274
    14  H    0.979657   3.117659   5.004506   4.091767   2.888991
    15  H    2.627916   0.990130   4.677183   3.985475   3.715401
    16  C    2.561744   2.399243   5.265488   5.296147   4.251250
    17  C    3.833709   2.875429   4.971628   5.634282   4.663589
    18  N    4.272404   2.485961   4.348813   5.099639   4.505698
    19  C    5.451870   3.650161   4.149464   5.544747   5.012782
    20  C    5.299378   3.635705   2.748844   4.560292   4.064055
    21  N    3.948639   2.397042   2.039147   3.269509   2.669568
    22  C    3.635039   1.494946   3.260045   3.697616   3.331152
    23  H    2.775064   3.258632   5.850234   5.899982   4.686773
    24  H    2.814163   2.534605   5.887632   5.674851   4.822180
    25  H    4.584411   3.703808   5.893437   6.592069   5.639557
    26  H    4.065570   3.332445   4.672978   5.633344   4.509281
    27  H    5.886442   4.342341   4.789456   6.312266   5.605382
    28  H    5.649199   4.300470   2.984698   5.026799   4.328922
    29  H    5.979641   4.152568   2.703155   4.628297   4.442592
    30  H    4.351481   2.052844   3.418287   3.776083   3.815003
    31  H    4.872103   3.156323   1.591556   2.344944   2.861564
    32  H    6.165347   4.157922   4.606431   5.972994   5.665143
                   11         12         13         14         15
    11  H    0.000000
    12  H    1.591520   0.000000
    13  H    2.727377   2.244565   0.000000
    14  H    2.244292   2.773841   1.595558   0.000000
    15  H    3.480234   2.593347   2.796344   3.560907   0.000000
    16  C    4.463369   4.089321   2.616413   3.084687   2.529050
    17  C    5.472015   5.207231   4.074082   4.296600   3.144759
    18  N    5.471269   5.122578   4.626210   4.889567   2.739557
    19  C    6.448286   6.329914   5.938897   5.934313   4.075432
    20  C    5.905415   6.140595   5.999367   5.626204   4.352055
    21  N    4.419347   4.723158   4.720602   4.290994   3.269565
    22  C    4.348529   4.128365   4.179166   4.279324   2.058165
    23  H    4.822986   4.579973   2.713818   3.042554   3.417293
    24  H    4.670613   3.957292   2.583799   3.516792   2.267604
    25  H    6.336701   5.942801   4.666469   5.056002   3.788281
    26  H    5.631484   5.635773   4.449385   4.327437   3.820824
    27  H    7.075012   6.998959   6.330266   6.284190   4.760489
    28  H    6.323827   6.723050   6.380061   5.826204   5.079785
    29  H    6.326528   6.564751   6.703589   6.339553   4.827689
    30  H    4.755315   4.419142   4.860852   5.055957   2.367052
    31  H    4.462889   4.804072   5.672488   5.280117   3.868559
    32  H    7.040454   6.806890   6.615665   6.725873   4.450743
                   16         17         18         19         20
    16  C    0.000000
    17  C    1.526147   0.000000
    18  N    2.508633   1.478674   0.000000
    19  C    3.779147   2.451452   1.490896   0.000000
    20  C    4.271465   3.240897   2.444426   1.554623   0.000000
    21  N    3.486158   2.979501   2.339699   2.393622   1.486101
    22  C    2.849059   2.463879   1.451294   2.262065   2.313825
    23  H    0.979779   2.079611   3.341671   4.468180   4.912516
    24  H    0.979480   2.079608   2.773634   4.197361   4.873298
    25  H    2.064074   0.980479   2.022234   2.828418   3.914610
    26  H    2.064445   0.979658   2.021231   2.468327   2.941173
    27  H    3.953228   2.465338   2.049029   0.980757   2.107491
    28  H    4.593210   3.524238   3.088945   2.114347   0.980652
    29  H    5.123339   4.121363   3.110030   2.113761   0.979959
    30  H    3.724412   3.298312   2.013825   2.539882   2.598919
    31  H    5.112858   4.813648   3.820029   3.792794   2.769563
    32  H    4.522673   3.233848   2.049197   0.979703   2.107328
                   21         22         23         24         25
    21  N    0.000000
    22  C    1.488604   0.000000
    23  H    4.172082   3.751685   0.000000
    24  H    4.093739   3.137145   1.590465   0.000000
    25  H    3.881929   3.270310   2.398789   2.342597   0.000000
    26  H    2.815626   2.815971   2.330156   2.856525   1.583137
    27  H    3.063485   3.081748   4.472848   4.440680   2.605959
    28  H    2.052459   3.120108   5.072185   5.320345   4.151408
    29  H    2.052342   2.790581   5.823015   5.647266   4.758283
    30  H    2.047121   0.989844   4.664668   3.847289   3.984836
    31  H    2.039723   2.545398   5.895604   5.501929   5.679504
    32  H    3.042007   2.714516   5.275497   4.789760   3.468793
                   26         27         28         29         30
    26  H    0.000000
    27  H    2.281438   0.000000
    28  H    2.959937   2.247925   0.000000
    29  H    3.902409   2.748079   1.596681   0.000000
    30  H    3.706741   3.485808   3.539441   2.735092   0.000000
    31  H    4.817978   4.655876   3.453652   2.517236   2.275069
    32  H    3.394600   1.592067   2.763266   2.247764   2.636466
                   31         32
    31  H    0.000000
    32  H    3.994476   0.000000
 Stoichiometry    C10H18N4
 Framework group  C1[X(C10H18N4)]
 Deg. of freedom    90
 Full point group                 C1      NOp   1
 Largest Abelian subgroup         C1      NOp   1
 Largest concise Abelian subgroup C1      NOp   1
                         Standard orientation:                         
 ---------------------------------------------------------------------
 Center     Atomic      Atomic             Coordinates (Angstroms)
 Number     Number       Type             X           Y           Z
 ---------------------------------------------------------------------
      1          7           0        0.911256    1.034007   -0.457412
      2          6           0       -0.151253   -2.286045   -0.298722
      3          6           0        1.335270   -1.914306   -0.299407
      4          7           0        1.675591   -0.864541    0.680266
      5          6           0        2.892654   -0.104890    0.279282
      6          6           0        2.404260    1.110678   -0.550098
      7          6           0        0.717889    0.219326    0.778180
      8          1           0       -0.348899   -2.899078   -1.037689
      9          1           0        1.862457   -2.716618   -0.100369
     10          1           0        1.585666   -1.606367   -1.194784
     11          1           0        3.486261   -0.669307   -0.258975
     12          1           0        3.383350    0.197165    1.072029
     13          1           0        2.736489    1.951470   -0.169769
     14          1           0        2.702750    1.042530   -1.480683
     15          1           0        0.905276    0.767769    1.580959
     16          6           0        0.144827    2.289662   -0.290311
     17          6           0       -1.335299    1.917897   -0.302266
     18          7           0       -1.679989    0.867831    0.680092
     19          6           0       -2.893619    0.110815    0.259615
     20          6           0       -2.394725   -1.137065   -0.521891
     21          7           0       -0.914047   -1.027566   -0.457885
     22          6           0       -0.713699   -0.211212    0.770678
     23          1           0        0.344826    2.909858   -1.021969
     24          1           0        0.379582    2.721487    0.556918
     25          1           0       -1.865913    2.719790   -0.110547
     26          1           0       -1.578521    1.606346   -1.198652
     27          1           0       -3.460820    0.668928   -0.313689
     28          1           0       -2.707981   -1.117968   -1.450968
     29          1           0       -2.704243   -1.964041   -0.096886
     30          1           0       -0.901533   -0.761379    1.571817
     31          1           0       -0.392245   -2.726020    0.543836
     32          1           0       -3.414007   -0.161844    1.043626
 ---------------------------------------------------------------------
 Rotational constants (GHZ):           1.1919297           0.7751699           0.5326205
 Leave Link  202 at Sat Mar  4 11:37:59 2023, MaxMem=  1048576000 cpu:               0.0 elap:               0.0
 (Enter /ssoft/spack/external/gaussian/g16-C.01/avx2/g16/l301.exe)
 Standard basis: def2SVP (5D, 7F)
 Ernie: Thresh=  0.10000D-02 Tol=  0.10000D-05 Strict=F.
 There are   300 symmetry adapted cartesian basis functions of A   symmetry.
 There are   286 symmetry adapted basis functions of A   symmetry.
   286 basis functions,   476 primitive gaussians,   300 cartesian basis functions
    53 alpha electrons       53 beta electrons
       nuclear repulsion energy      1048.9225239765 Hartrees.
 IExCor= 1009 DFT=T Ex+Corr=PBE1PBE ExCW=0 ScaHFX=  0.250000
 ScaDFX=  0.750000  0.750000  1.000000  1.000000 ScalE2=  1.000000  1.000000
 IRadAn=      5 IRanWt=     -1 IRanGd=            0 ICorTp=0 IEmpDi=141
 NAtoms=   32 NActive=   32 NUniq=   32 SFac= 1.00D+00 NAtFMM=   60 NAOKFM=F Big=F
 Integral buffers will be    131072 words long.
 Raffenetti 2 integral format.
 Two-electron integral symmetry is turned on.
 R6Disp:  Grimme-D3(BJ) Dispersion energy=       -0.0357798268 Hartrees.
 Nuclear repulsion after empirical dispersion term =     1048.8867441496 Hartrees.
 Leave Link  301 at Sat Mar  4 11:37:59 2023, MaxMem=  1048576000 cpu:               0.1 elap:               0.1
 (Enter /ssoft/spack/external/gaussian/g16-C.01/avx2/g16/l302.exe)
 NPDir=0 NMtPBC=     1 NCelOv=     1 NCel=       1 NClECP=     1 NCelD=      1
         NCelK=      1 NCelE2=     1 NClLst=     1 CellRange=     0.0.
 One-electron integrals computed using PRISM.
 One-electron integral symmetry used in STVInt
   1 Symmetry operations used in ECPInt.
 ECPInt:  NShTT=    9591 NPrTT=   33647 LenC2=    9475 LenP2D=   25802.
 LDataN:  DoStor=T MaxTD1= 4 Len=   56
 NBasis=   286 RedAO= T EigKep=  4.96D-04  NBF=   286
 NBsUse=   286 1.00D-06 EigRej= -1.00D+00 NBFU=   286
 Precomputing XC quadrature grid using
 IXCGrd= 4 IRadAn=           5 IRanWt=          -1 IRanGd=           0 AccXCQ= 0.00D+00.
 Generated NRdTot=       0 NPtTot=           0 NUsed=           0 NTot=          32
 NSgBfM=   300   300   300   300   300 MxSgAt=    32 MxSgA2=    32.
 Leave Link  302 at Sat Mar  4 11:38:00 2023, MaxMem=  1048576000 cpu:               1.0 elap:               1.0
 (Enter /ssoft/spack/external/gaussian/g16-C.01/avx2/g16/l303.exe)
 DipDrv:  MaxL=1.
 Leave Link  303 at Sat Mar  4 11:38:00 2023, MaxMem=  1048576000 cpu:               0.1 elap:               0.1
 (Enter /ssoft/spack/external/gaussian/g16-C.01/avx2/g16/l401.exe)
 ExpMin= 1.22D-01 ExpMax= 1.71D+03 ExpMxC= 2.58D+02 IAcc=3 IRadAn=         5 AccDes= 0.00D+00
 Harris functional with IExCor= 1009 and IRadAn=       5 diagonalized for initial guess.
 HarFok:  IExCor= 1009 AccDes= 0.00D+00 IRadAn=         5 IDoV= 1 UseB2=F ITyADJ=14
 ICtDFT=  3500011 ScaDFX=  1.000000  1.000000  1.000000  1.000000
 FoFCou: FMM=F IPFlag=           0 FMFlag=      100000 FMFlg1=           0
         NFxFlg=           0 DoJE=T BraDBF=F KetDBF=T FulRan=T
         wScrn=  0.000000 ICntrl=       500 IOpCl=  0 I1Cent=   200000004 NGrid=           0
         NMat0=    1 NMatS0=      1 NMatT0=    0 NMatD0=    1 NMtDS0=    0 NMtDT0=    0
 Petite list used in FoFCou.
 Harris En= -609.731948577473    
 JPrj=0 DoOrth=F DoCkMO=F.
 Leave Link  401 at Sat Mar  4 11:38:09 2023, MaxMem=  1048576000 cpu:               9.3 elap:               9.3
 (Enter /ssoft/spack/external/gaussian/g16-C.01/avx2/g16/l502.exe)
 Keep R1 ints in memory in canonical form, NReq=855840450.
 FoFCou: FMM=F IPFlag=           0 FMFlag=           0 FMFlg1=           0
         NFxFlg=           0 DoJE=F BraDBF=F KetDBF=F FulRan=T
         wScrn=  0.000000 ICntrl=       600 IOpCl=  0 I1Cent=           0 NGrid=           0
         NMat0=    1 NMatS0=  41041 NMatT0=    0 NMatD0=    1 NMtDS0=    0 NMtDT0=    0
 Symmetry not used in FoFCou.
 Two-electron integral symmetry not used.
 Closed shell SCF:
 Using DIIS extrapolation, IDIIS=  1040.
 NGot=  1048576000 LenX=   206187721 LenY=   206097280
 Requested convergence on RMS density matrix=1.00D-08 within 128 cycles.
 Requested convergence on MAX density matrix=1.00D-06.
 Requested convergence on             energy=1.00D-06.
 No special actions if energy rises.
 Integral accuracy reduced to 1.0D-05 until final iterations.

 Cycle   1  Pass 0  IDiag  1:
 E= -609.261989833366    
 DIIS: error= 2.04D-02 at cycle   1 NSaved=   1.
 NSaved= 1 IEnMin= 1 EnMin= -609.261989833366     IErMin= 1 ErrMin= 2.04D-02
 ErrMax= 2.04D-02  0.00D+00 EMaxC= 1.00D-01 BMatC= 2.46D-01 BMatP= 2.46D-01
 IDIUse=3 WtCom= 7.96D-01 WtEn= 2.04D-01
 Coeff-Com:  0.100D+01
 Coeff-En:   0.100D+01
 Coeff:      0.100D+01
 Gap=     0.298 Goal=   None    Shift=    0.000
 GapD=    0.298 DampG=1.000 DampE=0.500 DampFc=0.5000 IDamp=-1.
 Damping current iteration by 5.00D-01
 RMSDP=4.52D-03 MaxDP=1.09D-01              OVMax= 1.14D-01

 Cycle   2  Pass 0  IDiag  1:
 E= -609.402699867344     Delta-E=       -0.140710033978 Rises=F Damp=T
 DIIS: error= 5.08D-03 at cycle   2 NSaved=   2.
 NSaved= 2 IEnMin= 2 EnMin= -609.402699867344     IErMin= 2 ErrMin= 5.08D-03
 ErrMax= 5.08D-03  0.00D+00 EMaxC= 1.00D-01 BMatC= 1.61D-02 BMatP= 2.46D-01
 IDIUse=3 WtCom= 9.49D-01 WtEn= 5.08D-02
 Coeff-Com: -0.113D+00 0.111D+01
 Coeff-En:   0.000D+00 0.100D+01
 Coeff:     -0.107D+00 0.111D+01
 Gap=     0.287 Goal=   None    Shift=    0.000
 RMSDP=1.32D-03 MaxDP=2.92D-02 DE=-1.41D-01 OVMax= 5.38D-02

 Cycle   3  Pass 0  IDiag  1:
 E= -609.530371421336     Delta-E=       -0.127671553992 Rises=F Damp=F
 DIIS: error= 2.34D-03 at cycle   3 NSaved=   3.
 NSaved= 3 IEnMin= 3 EnMin= -609.530371421336     IErMin= 3 ErrMin= 2.34D-03
 ErrMax= 2.34D-03  0.00D+00 EMaxC= 1.00D-01 BMatC= 3.65D-03 BMatP= 1.61D-02
 IDIUse=3 WtCom= 9.77D-01 WtEn= 2.34D-02
 Coeff-Com: -0.721D-01 0.365D+00 0.707D+00
 Coeff-En:   0.000D+00 0.000D+00 0.100D+01
 Coeff:     -0.704D-01 0.356D+00 0.714D+00
 Gap=     0.274 Goal=   None    Shift=    0.000
 RMSDP=4.58D-04 MaxDP=1.44D-02 DE=-1.28D-01 OVMax= 1.15D-02

 Cycle   4  Pass 0  IDiag  1:
 E= -609.532884797493     Delta-E=       -0.002513376158 Rises=F Damp=F
 DIIS: error= 1.01D-03 at cycle   4 NSaved=   4.
 NSaved= 4 IEnMin= 4 EnMin= -609.532884797493     IErMin= 4 ErrMin= 1.01D-03
 ErrMax= 1.01D-03  0.00D+00 EMaxC= 1.00D-01 BMatC= 7.35D-04 BMatP= 3.65D-03
 IDIUse=3 WtCom= 9.90D-01 WtEn= 1.01D-02
 Coeff-Com: -0.273D-01 0.114D+00 0.355D+00 0.557D+00
 Coeff-En:   0.000D+00 0.000D+00 0.838D-01 0.916D+00
 Coeff:     -0.271D-01 0.113D+00 0.353D+00 0.561D+00
 Gap=     0.280 Goal=   None    Shift=    0.000
 RMSDP=1.63D-04 MaxDP=3.66D-03 DE=-2.51D-03 OVMax= 4.90D-03

 Cycle   5  Pass 0  IDiag  1:
 E= -609.533442040887     Delta-E=       -0.000557243394 Rises=F Damp=F
 DIIS: error= 3.43D-04 at cycle   5 NSaved=   5.
 NSaved= 5 IEnMin= 5 EnMin= -609.533442040887     IErMin= 5 ErrMin= 3.43D-04
 ErrMax= 3.43D-04  0.00D+00 EMaxC= 1.00D-01 BMatC= 7.99D-05 BMatP= 7.35D-04
 IDIUse=3 WtCom= 9.97D-01 WtEn= 3.43D-03
 Coeff-Com: -0.386D-02 0.892D-02 0.855D-01 0.291D+00 0.619D+00
 Coeff-En:   0.000D+00 0.000D+00 0.000D+00 0.522D-01 0.948D+00
 Coeff:     -0.384D-02 0.889D-02 0.852D-01 0.290D+00 0.620D+00
 Gap=     0.278 Goal=   None    Shift=    0.000
 RMSDP=3.73D-05 MaxDP=1.50D-03 DE=-5.57D-04 OVMax= 1.43D-03

 Cycle   6  Pass 0  IDiag  1:
 E= -609.533507925034     Delta-E=       -0.000065884147 Rises=F Damp=F
 DIIS: error= 3.87D-05 at cycle   6 NSaved=   6.
 NSaved= 6 IEnMin= 6 EnMin= -609.533507925034     IErMin= 6 ErrMin= 3.87D-05
 ErrMax= 3.87D-05  0.00D+00 EMaxC= 1.00D-01 BMatC= 1.50D-06 BMatP= 7.99D-05
 IDIUse=1 WtCom= 1.00D+00 WtEn= 0.00D+00
 Coeff-Com: -0.105D-02 0.157D-02 0.285D-01 0.112D+00 0.266D+00 0.592D+00
 Coeff:     -0.105D-02 0.157D-02 0.285D-01 0.112D+00 0.266D+00 0.592D+00
 Gap=     0.278 Goal=   None    Shift=    0.000
 RMSDP=6.10D-06 MaxDP=2.17D-04 DE=-6.59D-05 OVMax= 2.13D-04

 Initial convergence to 1.0D-05 achieved.  Increase integral accuracy.
 Cycle   7  Pass 1  IDiag  1:
 E= -609.533364810151     Delta-E=        0.000143114883 Rises=F Damp=F
 DIIS: error= 1.32D-05 at cycle   1 NSaved=   1.
 NSaved= 1 IEnMin= 1 EnMin= -609.533364810151     IErMin= 1 ErrMin= 1.32D-05
 ErrMax= 1.32D-05  0.00D+00 EMaxC= 1.00D-01 BMatC= 1.86D-07 BMatP= 1.86D-07
 IDIUse=1 WtCom= 1.00D+00 WtEn= 0.00D+00
 Coeff-Com:  0.100D+01
 Coeff:      0.100D+01
 Gap=     0.278 Goal=   None    Shift=    0.000
 RMSDP=6.10D-06 MaxDP=2.17D-04 DE= 1.43D-04 OVMax= 1.12D-04

 Cycle   8  Pass 1  IDiag  1:
 E= -609.533364765044     Delta-E=        0.000000045107 Rises=F Damp=F
 DIIS: error= 1.81D-05 at cycle   2 NSaved=   2.
 NSaved= 2 IEnMin= 1 EnMin= -609.533364810151     IErMin= 1 ErrMin= 1.32D-05
 ErrMax= 1.81D-05  0.00D+00 EMaxC= 1.00D-01 BMatC= 2.69D-07 BMatP= 1.86D-07
 IDIUse=1 WtCom= 1.00D+00 WtEn= 0.00D+00
 Coeff-Com:  0.549D+00 0.451D+00
 Coeff:      0.549D+00 0.451D+00
 Gap=     0.278 Goal=   None    Shift=    0.000
 RMSDP=2.31D-06 MaxDP=7.15D-05 DE= 4.51D-08 OVMax= 7.82D-05

 Cycle   9  Pass 1  IDiag  1:
 E= -609.533364988994     Delta-E=       -0.000000223950 Rises=F Damp=F
 DIIS: error= 2.98D-06 at cycle   3 NSaved=   3.
 NSaved= 3 IEnMin= 3 EnMin= -609.533364988994     IErMin= 3 ErrMin= 2.98D-06
 ErrMax= 2.98D-06  0.00D+00 EMaxC= 1.00D-01 BMatC= 4.84D-09 BMatP= 1.86D-07
 IDIUse=1 WtCom= 1.00D+00 WtEn= 0.00D+00
 Coeff-Com:  0.810D-01 0.141D+00 0.778D+00
 Coeff:      0.810D-01 0.141D+00 0.778D+00
 Gap=     0.278 Goal=   None    Shift=    0.000
 RMSDP=4.50D-07 MaxDP=1.68D-05 DE=-2.24D-07 OVMax= 1.43D-05

 Cycle  10  Pass 1  IDiag  1:
 E= -609.533364992196     Delta-E=       -0.000000003202 Rises=F Damp=F
 DIIS: error= 9.82D-07 at cycle   4 NSaved=   4.
 NSaved= 4 IEnMin= 4 EnMin= -609.533364992196     IErMin= 4 ErrMin= 9.82D-07
 ErrMax= 9.82D-07  0.00D+00 EMaxC= 1.00D-01 BMatC= 1.04D-09 BMatP= 4.84D-09
 IDIUse=1 WtCom= 1.00D+00 WtEn= 0.00D+00
 Coeff-Com: -0.869D-02 0.317D-01 0.387D+00 0.590D+00
 Coeff:     -0.869D-02 0.317D-01 0.387D+00 0.590D+00
 Gap=     0.278 Goal=   None    Shift=    0.000
 RMSDP=1.43D-07 MaxDP=4.08D-06 DE=-3.20D-09 OVMax= 4.89D-06

 Cycle  11  Pass 1  IDiag  1:
 E= -609.533364993050     Delta-E=       -0.000000000854 Rises=F Damp=F
 DIIS: error= 3.46D-07 at cycle   5 NSaved=   5.
 NSaved= 5 IEnMin= 5 EnMin= -609.533364993050     IErMin= 5 ErrMin= 3.46D-07
 ErrMax= 3.46D-07  0.00D+00 EMaxC= 1.00D-01 BMatC= 7.15D-11 BMatP= 1.04D-09
 IDIUse=1 WtCom= 1.00D+00 WtEn= 0.00D+00
 Coeff-Com: -0.879D-02 0.714D-02 0.133D+00 0.289D+00 0.579D+00
 Coeff:     -0.879D-02 0.714D-02 0.133D+00 0.289D+00 0.579D+00
 Gap=     0.278 Goal=   None    Shift=    0.000
 RMSDP=5.92D-08 MaxDP=2.19D-06 DE=-8.54D-10 OVMax= 1.59D-06

 Cycle  12  Pass 1  IDiag  1:
 E= -609.533364993122     Delta-E=       -0.000000000072 Rises=F Damp=F
 DIIS: error= 5.61D-08 at cycle   6 NSaved=   6.
 NSaved= 6 IEnMin= 6 EnMin= -609.533364993122     IErMin= 6 ErrMin= 5.61D-08
 ErrMax= 5.61D-08  0.00D+00 EMaxC= 1.00D-01 BMatC= 3.56D-12 BMatP= 7.15D-11
 IDIUse=1 WtCom= 1.00D+00 WtEn= 0.00D+00
 Coeff-Com: -0.376D-02 0.207D-02 0.436D-01 0.108D+00 0.263D+00 0.587D+00
 Coeff:     -0.376D-02 0.207D-02 0.436D-01 0.108D+00 0.263D+00 0.587D+00
 Gap=     0.278 Goal=   None    Shift=    0.000
 RMSDP=9.89D-09 MaxDP=3.42D-07 DE=-7.16D-11 OVMax= 2.94D-07

 SCF Done:  E(RPBE1PBE) =  -609.533364993     A.U. after   12 cycles
            NFock= 12  Conv=0.99D-08     -V/T= 2.0052
 KE= 6.063852415051D+02 PE=-3.514880801200D+03 EE= 1.250075450552D+03
 Leave Link  502 at Sat Mar  4 11:40:52 2023, MaxMem=  1048576000 cpu:             162.5 elap:             163.1
 (Enter /ssoft/spack/external/gaussian/g16-C.01/avx2/g16/l801.exe)
 DoSCS=F DFT=T ScalE2(SS,OS)=  1.000000  1.000000
 Range of M.O.s used for correlation:     1   286
 NBasis=   286 NAE=    53 NBE=    53 NFC=     0 NFV=     0
 NROrb=    286 NOA=    53 NOB=    53 NVA=   233 NVB=   233
 Leave Link  801 at Sat Mar  4 11:40:52 2023, MaxMem=  1048576000 cpu:               0.0 elap:               0.0
 (Enter /ssoft/spack/external/gaussian/g16-C.01/avx2/g16/l1101.exe)
 Using compressed storage, NAtomX=    32.
 Will process     33 centers per pass.
   1 Symmetry operations used in ECPInt.
 ECPInt:  NShTT=    9591 NPrTT=   33647 LenC2=    9475 LenP2D=   25802.
 LDataN:  DoStor=T MaxTD1= 5 Len=  102
 R6Disp: Adding Grimme-D3(BJ) dispersion energy 1st derivatives to the gradient.
 Leave Link 1101 at Sat Mar  4 11:40:53 2023, MaxMem=  1048576000 cpu:               0.4 elap:               0.4
 (Enter /ssoft/spack/external/gaussian/g16-C.01/avx2/g16/l1102.exe)
 Symmetrizing basis deriv contribution to polar:
 IMax=3 JMax=2 DiffMx= 0.00D+00
 Leave Link 1102 at Sat Mar  4 11:40:53 2023, MaxMem=  1048576000 cpu:               0.1 elap:               0.1
 (Enter /ssoft/spack/external/gaussian/g16-C.01/avx2/g16/l1110.exe)
 Forming Gx(P) for the SCF density, NAtomX=    32.
 Integral derivatives from FoFJK, PRISM(SPDF).
 Do as many integral derivatives as possible in FoFJK.
 G2DrvN: MDV=    1048572568.
 G2DrvN: will do    33 centers at a time, making    1 passes.
 Calling FoFCou, ICntrl=  3107 FMM=F I1Cent=   0 AccDes= 0.00D+00.
 FoFJK:  IHMeth= 1 ICntrl=    3107 DoSepK=F KAlg= 0 I1Cent=           0 FoldK=F
 IRaf=         0 NMat=       1 IRICut=       1 DoRegI=T DoRafI=F ISym2E= 0 IDoP0=0 IntGTp=1.
 FoFCou: FMM=F IPFlag=           0 FMFlag=      100000 FMFlg1=           0
         NFxFlg=           0 DoJE=F BraDBF=F KetDBF=F FulRan=T
         wScrn=  0.000000 ICntrl=      3107 IOpCl=  0 I1Cent=           0 NGrid=           0
         NMat0=    1 NMatS0=      1 NMatT0=    0 NMatD0=    1 NMtDS0=    0 NMtDT0=    0
 Symmetry not used in FoFCou.
 End of G2Drv F.D. properties file   721 does not exist.
 End of G2Drv F.D. properties file   722 does not exist.
 End of G2Drv F.D. properties file   788 does not exist.
 Leave Link 1110 at Sat Mar  4 11:52:52 2023, MaxMem=  1048576000 cpu:             716.5 elap:             719.1
 (Enter /ssoft/spack/external/gaussian/g16-C.01/avx2/g16/l1002.exe)
 Minotr:  Closed shell wavefunction.
          IDoAtm=11111111111111111111111111111111
          Direct CPHF calculation.
          Differentiating once with respect to electric field.
                with respect to dipole field.
          Differentiating once with respect to nuclear coordinates.
          Requested convergence is 1.0D-08 RMS, and 1.0D-07 maximum.
          Secondary convergence is 1.0D-12 RMS, and 1.0D-12 maximum.
          NewPWx=T KeepS1=F KeepF1=F KeepIn=T MapXYZ=F SortEE=F KeepMc=T.
         9593 words used for storage of precomputed grid.
 Keep R1 ints in memory in canonical form, NReq=855853793.
 FoFCou: FMM=F IPFlag=           0 FMFlag=           0 FMFlg1=           0
         NFxFlg=           0 DoJE=F BraDBF=F KetDBF=F FulRan=T
         wScrn=  0.000000 ICntrl=       600 IOpCl=  0 I1Cent=           0 NGrid=           0
         NMat0=    1 NMatS0=  41041 NMatT0=    0 NMatD0=    1 NMtDS0=    0 NMtDT0=    0
 Symmetry not used in FoFCou.
 Two-electron integral symmetry not used.
          MDV=    1048576000 using IRadAn=       1.
          Solving linear equations simultaneously, MaxMat=       0.
          There are    99 degrees of freedom in the 1st order CPHF.  IDoFFX=6 NUNeed=     3.
     96 vectors produced by pass  0 Test12= 1.25D-14 1.01D-09 XBig12= 6.82D+01 1.64D+00.
 AX will form    96 AO Fock derivatives at one time.
     96 vectors produced by pass  1 Test12= 1.25D-14 1.01D-09 XBig12= 8.40D+00 3.28D-01.
     96 vectors produced by pass  2 Test12= 1.25D-14 1.01D-09 XBig12= 1.02D-01 3.33D-02.
     96 vectors produced by pass  3 Test12= 1.25D-14 1.01D-09 XBig12= 2.05D-04 2.11D-03.
     96 vectors produced by pass  4 Test12= 1.25D-14 1.01D-09 XBig12= 3.63D-07 6.90D-05.
     81 vectors produced by pass  5 Test12= 1.25D-14 1.01D-09 XBig12= 3.46D-10 1.85D-06.
      6 vectors produced by pass  6 Test12= 1.25D-14 1.01D-09 XBig12= 3.75D-13 5.41D-08.
      3 vectors produced by pass  7 Test12= 1.25D-14 1.01D-09 XBig12= 3.54D-16 2.04D-09.
 InvSVY:  IOpt=1 It=  1 EMax= 6.22D-15
 Solved reduced A of dimension   570 with    99 vectors.
 FullF1:  Do perturbations      1 to       3.
 Isotropic polarizability for W=    0.000000      111.33 Bohr**3.
 End of Minotr F.D. properties file   721 does not exist.
 End of Minotr F.D. properties file   722 does not exist.
 End of Minotr F.D. properties file   788 does not exist.
 Leave Link 1002 at Sat Mar  4 12:04:43 2023, MaxMem=  1048576000 cpu:             708.4 elap:             711.4
 (Enter /ssoft/spack/external/gaussian/g16-C.01/avx2/g16/l601.exe)
 Copying SCF densities to generalized density rwf, IOpCl= 0 IROHF=0.

 **********************************************************************

            Population analysis using the SCF Density.

 **********************************************************************

 Orbital symmetries:
       Occupied  (A) (A) (A) (A) (A) (A) (A) (A) (A) (A) (A) (A)
                 (A) (A) (A) (A) (A) (A) (A) (A) (A) (A) (A) (A)
                 (A) (A) (A) (A) (A) (A) (A) (A) (A) (A) (A) (A)
                 (A) (A) (A) (A) (A) (A) (A) (A) (A) (A) (A) (A)
                 (A) (A) (A) (A) (A)
       Virtual   (A) (A) (A) (A) (A) (A) (A) (A) (A) (A) (A) (A)
                 (A) (A) (A) (A) (A) (A) (A) (A) (A) (A) (A) (A)
                 (A) (A) (A) (A) (A) (A) (A) (A) (A) (A) (A) (A)
                 (A) (A) (A) (A) (A) (A) (A) (A) (A) (A) (A) (A)
                 (A) (A) (A) (A) (A) (A) (A) (A) (A) (A) (A) (A)
                 (A) (A) (A) (A) (A) (A) (A) (A) (A) (A) (A) (A)
                 (A) (A) (A) (A) (A) (A) (A) (A) (A) (A) (A) (A)
                 (A) (A) (A) (A) (A) (A) (A) (A) (A) (A) (A) (A)
                 (A) (A) (A) (A) (A) (A) (A) (A) (A) (A) (A) (A)
                 (A) (A) (A) (A) (A) (A) (A) (A) (A) (A) (A) (A)
                 (A) (A) (A) (A) (A) (A) (A) (A) (A) (A) (A) (A)
                 (A) (A) (A) (A) (A) (A) (A) (A) (A) (A) (A) (A)
                 (A) (A) (A) (A) (A) (A) (A) (A) (A) (A) (A) (A)
                 (A) (A) (A) (A) (A) (A) (A) (A) (A) (A) (A) (A)
                 (A) (A) (A) (A) (A) (A) (A) (A) (A) (A) (A) (A)
                 (A) (A) (A) (A) (A) (A) (A) (A) (A) (A) (A) (A)
                 (A) (A) (A) (A) (A) (A) (A) (A) (A) (A) (A) (A)
                 (A) (A) (A) (A) (A) (A) (A) (A) (A) (A) (A) (A)
                 (A) (A) (A) (A) (A) (A) (A) (A) (A) (A) (A) (A)
                 (A) (A) (A) (A) (A)
 The electronic state is 1-A.
 Alpha  occ. eigenvalues --  -14.37270 -14.37248 -14.36068 -14.36055 -10.25283
 Alpha  occ. eigenvalues --  -10.25227 -10.22715 -10.22668 -10.22507 -10.22426
 Alpha  occ. eigenvalues --  -10.22139 -10.22087 -10.22056 -10.21950  -0.99628
 Alpha  occ. eigenvalues --   -0.95487  -0.90468  -0.86231  -0.80078  -0.78429
 Alpha  occ. eigenvalues --   -0.74662  -0.73538  -0.67525  -0.65466  -0.63440
 Alpha  occ. eigenvalues --   -0.63308  -0.60593  -0.55838  -0.53126  -0.51576
 Alpha  occ. eigenvalues --   -0.50568  -0.49341  -0.48756  -0.48347  -0.46860
 Alpha  occ. eigenvalues --   -0.44063  -0.43900  -0.43136  -0.42683  -0.41909
 Alpha  occ. eigenvalues --   -0.39868  -0.39561  -0.38530  -0.37785  -0.36087
 Alpha  occ. eigenvalues --   -0.35542  -0.34086  -0.33905  -0.32760  -0.23105
 Alpha  occ. eigenvalues --   -0.22908  -0.22158  -0.19917
 Alpha virt. eigenvalues --    0.07891   0.08448   0.10438   0.11016   0.11577
 Alpha virt. eigenvalues --    0.12766   0.12919   0.13964   0.14099   0.14401
 Alpha virt. eigenvalues --    0.15804   0.15908   0.16438   0.16852   0.17585
 Alpha virt. eigenvalues --    0.18966   0.19345   0.19369   0.21454   0.21908
 Alpha virt. eigenvalues --    0.21955   0.22333   0.23417   0.23657   0.24062
 Alpha virt. eigenvalues --    0.24787   0.25404   0.26809   0.28352   0.30052
 Alpha virt. eigenvalues --    0.30428   0.32075   0.32686   0.33708   0.37225
 Alpha virt. eigenvalues --    0.44641   0.46951   0.48164   0.48753   0.49104
 Alpha virt. eigenvalues --    0.50085   0.51725   0.53006   0.53709   0.55058
 Alpha virt. eigenvalues --    0.56189   0.56628   0.59488   0.59808   0.60976
 Alpha virt. eigenvalues --    0.61289   0.63135   0.64151   0.64613   0.65081
 Alpha virt. eigenvalues --    0.66349   0.67371   0.68765   0.70123   0.70442
 Alpha virt. eigenvalues --    0.71197   0.72316   0.72987   0.73329   0.73986
 Alpha virt. eigenvalues --    0.74086   0.74482   0.74669   0.74980   0.75408
 Alpha virt. eigenvalues --    0.76235   0.76557   0.76992   0.77462   0.77626
 Alpha virt. eigenvalues --    0.78494   0.79235   0.79966   0.80450   0.81089
 Alpha virt. eigenvalues --    0.83011   0.83548   0.85341   0.85711   0.90965
 Alpha virt. eigenvalues --    0.92691   0.94536   0.94873   0.96091   0.96889
 Alpha virt. eigenvalues --    0.97296   1.04365   1.05175   1.08713   1.12597
 Alpha virt. eigenvalues --    1.13705   1.14460   1.16926   1.18017   1.22521
 Alpha virt. eigenvalues --    1.23945   1.25221   1.26643   1.27099   1.32917
 Alpha virt. eigenvalues --    1.35224   1.36131   1.38062   1.39641   1.41294
 Alpha virt. eigenvalues --    1.42465   1.44123   1.44829   1.51357   1.51517
 Alpha virt. eigenvalues --    1.52624   1.53744   1.56749   1.57758   1.60141
 Alpha virt. eigenvalues --    1.63173   1.64713   1.66913   1.68242   1.68683
 Alpha virt. eigenvalues --    1.73517   1.75010   1.76118   1.76924   1.79737
 Alpha virt. eigenvalues --    1.80787   1.81778   1.82790   1.83429   1.83954
 Alpha virt. eigenvalues --    1.84423   1.85768   1.86053   1.87084   1.88130
 Alpha virt. eigenvalues --    1.89551   1.90560   1.90914   1.91420   1.93299
 Alpha virt. eigenvalues --    1.94715   1.96855   1.98183   1.98491   2.00140
 Alpha virt. eigenvalues --    2.00665   2.00900   2.03034   2.03520   2.06680
 Alpha virt. eigenvalues --    2.07201   2.09335   2.09351   2.10777   2.13074
 Alpha virt. eigenvalues --    2.13299   2.13438   2.15706   2.16160   2.17705
 Alpha virt. eigenvalues --    2.19147   2.19932   2.22387   2.23207   2.23908
 Alpha virt. eigenvalues --    2.25287   2.26953   2.30277   2.31296   2.32373
 Alpha virt. eigenvalues --    2.32873   2.38828   2.41811   2.42776   2.44518
 Alpha virt. eigenvalues --    2.44604   2.46650   2.47657   2.50988   2.52739
 Alpha virt. eigenvalues --    2.54855   2.54927   2.56554   2.57146   2.63804
 Alpha virt. eigenvalues --    2.64641   2.65576   2.66606   2.70306   2.74510
 Alpha virt. eigenvalues --    2.76972   2.78397   2.84511   2.84781   2.86209
 Alpha virt. eigenvalues --    2.87104   2.88038   2.91309   2.91836   2.94131
 Alpha virt. eigenvalues --    2.99916   3.00836   3.01206   3.01849   3.02121
 Alpha virt. eigenvalues --    3.07728   3.10999   3.12088   3.12403   3.15457
 Alpha virt. eigenvalues --    3.16049   3.19270   3.19445   3.20631   3.21095
 Alpha virt. eigenvalues --    3.21235   3.23634   3.25725   3.26449   3.28268
 Alpha virt. eigenvalues --    3.30574   3.31027   3.33475   3.34161   3.36224
 Alpha virt. eigenvalues --    3.37292   3.39550   3.42316
     Molecular Orbital Coefficients:
                          49        50        51        52        53
                           O         O         O         O         O
     Eigenvalues --    -0.32760  -0.23105  -0.22908  -0.22158  -0.19917
   1 1   N  1S          0.00206   0.04612  -0.03444  -0.00253   0.05729
   2        2S          0.00404   0.09343  -0.06556  -0.00873   0.12474
   3        3S          0.01577   0.15612  -0.22203  -0.00957   0.14955
   4        4PX         0.07025   0.12591  -0.04565   0.04093   0.14299
   5        4PY         0.08067   0.17798  -0.11425  -0.01621   0.19882
   6        4PZ        -0.14665   0.23400   0.01447   0.14703   0.31481
   7        5PX        -0.03073  -0.10326   0.05969  -0.04204  -0.11049
   8        5PY        -0.04065  -0.14767   0.07917   0.00754  -0.15761
   9        5PZ         0.08116  -0.18861  -0.03620  -0.12550  -0.25175
  10        6D 0        0.01170  -0.00337  -0.00214  -0.00456  -0.00475
  11        6D+1        0.00201  -0.00167   0.00097  -0.00151  -0.00636
  12        6D-1       -0.00403  -0.00441   0.00293  -0.00155  -0.00849
  13        6D+2       -0.00537  -0.00078  -0.00302  -0.00325  -0.00012
  14        6D-2       -0.00280  -0.00218   0.00099  -0.00088  -0.00365
  15 2   C  1S          0.00785   0.01494   0.00211  -0.00144  -0.01695
  16        2S         -0.02219  -0.04326  -0.00894   0.00972   0.04312
  17        3S         -0.02626  -0.02531   0.01437   0.00396   0.03084
  18        4PX        -0.07452   0.00075   0.00904  -0.00872   0.00752
  19        4PY        -0.05718  -0.08267  -0.03964   0.01865   0.06712
  20        4PZ        -0.08759   0.04994  -0.02714   0.01358  -0.05474
  21        5PX        -0.02775   0.02274   0.01873  -0.00035  -0.02497
  22        5PY        -0.01508  -0.04676  -0.06023  -0.02608   0.01712
  23        5PZ        -0.01702  -0.01328   0.02965   0.00484   0.02266
  24        6D 0        0.00183   0.00643  -0.00209  -0.00090  -0.00715
  25        6D+1        0.00014   0.00142   0.00254   0.00642  -0.00291
  26        6D-1        0.00978  -0.01225   0.00772  -0.00623   0.01592
  27        6D+2       -0.00651  -0.00857  -0.00177   0.00015   0.00853
  28        6D-2        0.00131   0.00550  -0.00019  -0.00113  -0.00607
  29 3   C  1S         -0.00365   0.01563  -0.01188  -0.01249  -0.00895
  30        2S          0.01342  -0.04282   0.03135   0.02829   0.02037
  31        3S         -0.01291  -0.04427   0.00091   0.02812   0.06976
  32        4PX         0.08234   0.05293   0.02621   0.02416  -0.05800
  33        4PY         0.07333   0.01052  -0.00716  -0.01127  -0.02156
  34        4PZ         0.05578   0.01274   0.10032   0.11226   0.01586
  35        5PX         0.03879   0.02572   0.01891   0.00652  -0.03654
  36        5PY         0.02855   0.06614   0.00809   0.03612  -0.02293
  37        5PZ         0.00754   0.05156  -0.00658   0.03725  -0.01686
  38        6D 0        0.00325   0.00137  -0.01733  -0.01712  -0.00228
  39        6D+1        0.00350   0.00018   0.00075  -0.00014   0.00259
  40        6D-1        0.00624  -0.00218   0.00365   0.00117   0.00180
  41        6D+2       -0.00511  -0.00229  -0.00937  -0.00853   0.00185
  42        6D-2       -0.00081  -0.00013  -0.00085  -0.00275   0.00112
  43 4   N  1S          0.00678   0.00228  -0.04715  -0.04904  -0.00299
  44        2S          0.01576   0.00716  -0.10471  -0.10365  -0.01234
  45        3S          0.01816  -0.05600  -0.07133  -0.13768   0.02908
  46        4PX         0.09958  -0.01161   0.06301   0.05275  -0.03400
  47        4PY         0.07907   0.02747  -0.14995  -0.15225   0.00377
  48        4PZ         0.03671  -0.03148   0.34446   0.32508   0.00598
  49        5PX        -0.05065   0.04734  -0.06438  -0.02085   0.03330
  50        5PY        -0.05651  -0.00784   0.13091   0.14022   0.00631
  51        5PZ        -0.02108   0.03160  -0.28073  -0.27361  -0.01663
  52        6D 0        0.00227   0.00226   0.00473   0.00578   0.00114
  53        6D+1        0.00605  -0.00204   0.00405   0.00255  -0.00149
  54        6D-1        0.00552   0.00164  -0.00626  -0.00619   0.00014
  55        6D+2       -0.00698  -0.00259  -0.00213  -0.00433   0.00008
  56        6D-2       -0.00441  -0.00120  -0.00155  -0.00107   0.00148
  57 5   C  1S          0.02763   0.00659  -0.01461  -0.01394  -0.00544
  58        2S         -0.06868  -0.00987   0.03028   0.02905   0.00672
  59        3S         -0.06962  -0.06868   0.03090   0.01229   0.02908
  60        4PX         0.13299   0.00907  -0.01204  -0.01705  -0.02433
  61        4PY         0.04356   0.01793  -0.03561  -0.03010  -0.00022
  62        4PZ         0.03084  -0.03509   0.07343   0.04967  -0.02749
  63        5PX         0.06366   0.03559   0.00671   0.01375  -0.01512
  64        5PY         0.02392   0.01824   0.00721   0.02851   0.02938
  65        5PZ         0.00162  -0.00632   0.00091  -0.00927   0.00078
  66        6D 0        0.00440  -0.00117  -0.00388  -0.00497  -0.00254
  67        6D+1        0.00260  -0.00129   0.00955   0.00792  -0.00091
  68        6D-1        0.00411   0.00032   0.01080   0.01068  -0.00079
  69        6D+2        0.00049  -0.00367   0.01034   0.00907  -0.00314
  70        6D-2       -0.00122   0.00064   0.00341   0.00341   0.00280
  71 6   C  1S          0.02037   0.01256   0.01322   0.02184   0.01312
  72        2S         -0.05108  -0.03176  -0.03001  -0.05376  -0.03343
  73        3S         -0.07913  -0.00019  -0.07738  -0.08449  -0.02376
  74        4PX         0.11151   0.07617  -0.05224  -0.00192   0.07011
  75        4PY         0.00191   0.02371   0.06472   0.08015   0.02983
  76        4PZ        -0.10044   0.06176  -0.07752  -0.04243   0.06176
  77        5PX         0.06973   0.03171  -0.05402  -0.04832   0.01382
  78        5PY         0.00514  -0.02697   0.06354   0.05451  -0.02420
  79        5PZ        -0.03480   0.01858  -0.03850  -0.03742  -0.01452
  80        6D 0        0.00889  -0.00435   0.00279   0.00013  -0.00627
  81        6D+1       -0.00721   0.01315  -0.00215   0.00548   0.01768
  82        6D-1        0.00035   0.00261  -0.00044   0.00071   0.00258
  83        6D+2        0.00040  -0.00436   0.00011  -0.00283  -0.00464
  84        6D-2        0.00085   0.00776  -0.00126   0.00354   0.01013
  85 7   C  1S         -0.00094   0.02409  -0.02151  -0.01282  -0.00015
  86        2S         -0.00197  -0.06292   0.04428   0.02482   0.00101
  87        3S          0.04367  -0.04278   0.04305   0.03166   0.08871
  88        4PX         0.24820   0.07780   0.02402   0.06301  -0.03167
  89        4PY         0.16709   0.02012  -0.04690  -0.02943  -0.00448
  90        4PZ        -0.06896   0.07118   0.00966   0.05918   0.06968
  91        5PX         0.13615   0.05511  -0.01384   0.03194  -0.12063
  92        5PY         0.07490  -0.06997   0.03687  -0.00243  -0.03590
  93        5PZ        -0.04409   0.00408  -0.09892   0.00387   0.02969
  94        6D 0        0.01043   0.01674  -0.00552   0.00349   0.01406
  95        6D+1        0.00185   0.00557  -0.00826  -0.00730   0.00683
  96        6D-1       -0.00232   0.00718   0.01805   0.01849   0.00950
  97        6D+2       -0.01494  -0.00077   0.00102   0.00460   0.00532
  98        6D-2       -0.00053  -0.00315   0.00136  -0.00324  -0.00499
  99 8   H  1S          0.11391  -0.01559   0.05069  -0.02631   0.03415
 100        2S          0.07188  -0.01844   0.03583  -0.02569   0.02285
 101        3PX        -0.00140  -0.00104   0.00033  -0.00264   0.00238
 102        3PY         0.00163  -0.00184   0.00033   0.00133   0.00211
 103        3PZ         0.00208   0.00297   0.00030  -0.00097  -0.00278
 104 9   H  1S          0.00138   0.00732   0.07898   0.08885  -0.00253
 105        2S          0.00478   0.03015   0.05013   0.06224  -0.01740
 106        3PX         0.00274   0.00072  -0.00198  -0.00222  -0.00185
 107        3PY         0.00212  -0.00080  -0.00030  -0.00069  -0.00053
 108        3PZ         0.00211  -0.00059   0.00233   0.00177   0.00149
 109 10  H  1S         -0.00532   0.00081  -0.10735  -0.11150  -0.03129
 110        2S         -0.00903   0.07274  -0.11230  -0.07850  -0.03384
 111        3PX         0.00178  -0.00049   0.00221   0.00131  -0.00128
 112        3PY         0.00168   0.00190   0.00156   0.00226   0.00219
 113        3PZ         0.00130  -0.00001   0.00067   0.00050   0.00042
 114 11  H  1S          0.00423   0.00912  -0.01320  -0.00487   0.00257
 115        2S          0.00998  -0.00346  -0.02066  -0.01792  -0.00196
 116        3PX         0.00348  -0.00039   0.00005  -0.00039  -0.00148
 117        3PY         0.00153  -0.00084  -0.00179  -0.00241  -0.00069
 118        3PZ         0.00103  -0.00171   0.00368   0.00300  -0.00007
 119 12  H  1S          0.07039  -0.02804   0.08747   0.06483  -0.03102
 120        2S          0.04435  -0.00979   0.04549   0.03785  -0.02332
 121        3PX         0.00162  -0.00000  -0.00032  -0.00036  -0.00002
 122        3PY        -0.00035   0.00207  -0.00143  -0.00084   0.00097
 123        3PZ        -0.00193   0.00051  -0.00052  -0.00039  -0.00057
 124 13  H  1S         -0.02610   0.08169  -0.01315   0.03460   0.09641
 125        2S         -0.00682   0.07984  -0.00622   0.05349   0.11662
 126        3PX         0.00319   0.00275  -0.00087   0.00113   0.00344
 127        3PY         0.00063  -0.00130   0.00224   0.00106  -0.00133
 128        3PZ        -0.00289   0.00151  -0.00268  -0.00215   0.00195
 129 14  H  1S          0.10648  -0.07448   0.04245  -0.00126  -0.09303
 130        2S          0.06502  -0.04326   0.03944   0.00888  -0.07685
 131        3PX         0.00137   0.00111  -0.00165  -0.00019   0.00083
 132        3PY         0.00039   0.00119   0.00284   0.00359   0.00201
 133        3PZ         0.00212   0.00008  -0.00079  -0.00049   0.00039
 134 15  H  1S          0.08593   0.09312   0.04316   0.08669   0.08908
 135        2S          0.03899   0.11717   0.05752   0.03245   0.07881
 136        3PX         0.00563   0.00082  -0.00117   0.00083   0.00054
 137        3PY         0.00188   0.00078  -0.00164  -0.00142  -0.00155
 138        3PZ        -0.00521   0.00049   0.00080  -0.00028   0.00056
 139 16  C  1S          0.00912   0.01211  -0.00768  -0.00180   0.01735
 140        2S         -0.02527  -0.03405   0.02468   0.01063  -0.04505
 141        3S         -0.03335  -0.03001  -0.00449   0.00330  -0.02974
 142        4PX         0.07854   0.00345   0.00875   0.01031   0.00943
 143        4PY         0.07155   0.05917  -0.06851  -0.02007   0.07025
 144        4PZ        -0.09406   0.05416   0.00618   0.01377   0.05749
 145        5PX         0.03097  -0.01366   0.02731   0.00294  -0.02666
 146        5PY         0.02164   0.02202  -0.07445   0.02589   0.01839
 147        5PZ        -0.02003  -0.02346  -0.02302   0.00417  -0.02231
 148        6D 0        0.00199   0.00671  -0.00037  -0.00085   0.00770
 149        6D+1        0.00008  -0.00023   0.00298  -0.00638  -0.00297
 150        6D-1       -0.01088   0.01336   0.00260   0.00621   0.01630
 151        6D+2       -0.00723  -0.00728   0.00500   0.00010  -0.00922
 152        6D-2        0.00214   0.00496  -0.00192  -0.00115   0.00626
 153 17  C  1S         -0.00414   0.01945   0.00547  -0.01215   0.01013
 154        2S          0.01462  -0.05257  -0.01380   0.02739  -0.02351
 155        3S         -0.00647  -0.04195   0.01665   0.02917  -0.07440
 156        4PX        -0.08789  -0.03842   0.04549  -0.02589  -0.06322
 157        4PY        -0.08746  -0.01222  -0.00145   0.01035  -0.02237
 158        4PZ         0.05668  -0.02618  -0.10060   0.11070  -0.01657
 159        5PX        -0.03986  -0.01672   0.02757  -0.00640  -0.04034
 160        5PY        -0.03422  -0.05844   0.03516  -0.03682  -0.02655
 161        5PZ         0.00805   0.05112  -0.01507   0.03813   0.01747
 162        6D 0        0.00424   0.00795   0.01568  -0.01661   0.00242
 163        6D+1       -0.00382  -0.00009   0.00072   0.00026   0.00256
 164        6D-1       -0.00700   0.00342   0.00275  -0.00124   0.00197
 165        6D+2       -0.00534   0.00164   0.00967  -0.00821  -0.00202
 166        6D-2       -0.00015   0.00021   0.00081  -0.00278  -0.00132
 167 18  N  1S          0.00839   0.02047   0.04450  -0.04900   0.00360
 168        2S          0.01907   0.04749   0.09790  -0.10353   0.01358
 169        3S          0.02339  -0.02629   0.09164  -0.13927  -0.02842
 170        4PX        -0.10693   0.03714   0.05642  -0.05308  -0.03274
 171        4PY        -0.09596  -0.08583  -0.12810   0.14635   0.00326
 172        4PZ         0.03395  -0.16496  -0.31261   0.31706  -0.00796
 173        5PX         0.05514  -0.06868  -0.04322   0.02183   0.02792
 174        5PY         0.06565   0.05984   0.11905  -0.13549   0.00652
 175        5PZ        -0.01821   0.13974   0.25234  -0.26680   0.01856
 176        6D 0        0.00275   0.00022  -0.00551   0.00580  -0.00107
 177        6D+1       -0.00596   0.00363   0.00315  -0.00257  -0.00140
 178        6D-1       -0.00663  -0.00418  -0.00523   0.00601   0.00008
 179        6D+2       -0.00696  -0.00151   0.00306  -0.00420  -0.00025
 180        6D-2       -0.00424  -0.00051   0.00196  -0.00115  -0.00148
 181 19  C  1S          0.02651   0.01232   0.01130  -0.01374   0.00517
 182        2S         -0.06600  -0.02260  -0.02487   0.02841  -0.00545
 183        3S         -0.06826  -0.07532  -0.00093   0.01356  -0.02992
 184        4PX        -0.13318  -0.01268  -0.00727   0.01658  -0.02413
 185        4PY        -0.06140  -0.02829  -0.02620   0.02928  -0.00446
 186        4PZ         0.02063  -0.06119  -0.05663   0.04987   0.02356
 187        5PX        -0.06440  -0.02729   0.02014  -0.01254  -0.01948
 188        5PY        -0.03075  -0.01125   0.01294  -0.02685   0.02287
 189        5PZ        -0.00404  -0.00613   0.00152  -0.00838  -0.00317
 190        6D 0        0.00446   0.00052   0.00422  -0.00495   0.00247
 191        6D+1       -0.00380   0.00486   0.00864  -0.00789  -0.00081
 192        6D-1       -0.00349   0.00323   0.00989  -0.01009  -0.00028
 193        6D+2       -0.00023  -0.00771  -0.00847   0.00895   0.00294
 194        6D-2       -0.00139  -0.00091  -0.00369   0.00352  -0.00256
 195 20  C  1S          0.01816   0.00687  -0.01747   0.02115  -0.01299
 196        2S         -0.04583  -0.01895   0.04146  -0.05254   0.03370
 197        3S         -0.06598   0.02896   0.06988  -0.07951   0.02375
 198        4PX        -0.10255  -0.08910  -0.01815   0.00202   0.06498
 199        4PY         0.01286   0.00264   0.07015  -0.07853   0.02997
 200        4PZ        -0.08835   0.09005   0.04531  -0.03656  -0.06061
 201        5PX        -0.06330  -0.04774  -0.03689   0.04752   0.01158
 202        5PY         0.00150   0.05163   0.04919  -0.05438  -0.02296
 203        5PZ        -0.02554   0.03105   0.02427  -0.03121   0.01354
 204        6D 0        0.00823  -0.00477  -0.00120   0.00045   0.00530
 205        6D+1        0.00681  -0.01379   0.00351  -0.00583   0.01743
 206        6D-1        0.00107  -0.00398   0.00058  -0.00086   0.00389
 207        6D+2        0.00118  -0.00477   0.00154  -0.00276   0.00513
 208        6D-2       -0.00033   0.00764  -0.00177   0.00328  -0.00955
 209 21  N  1S          0.00177   0.05810   0.01332  -0.00166  -0.05590
 210        2S          0.00362   0.11643   0.02327  -0.00727  -0.12193
 211        3S          0.01339   0.23432   0.14179  -0.00374  -0.14414
 212        4PX        -0.06271  -0.13139   0.00657  -0.03842   0.13014
 213        4PY        -0.06120  -0.21233  -0.03456   0.01364   0.19010
 214        4PZ        -0.12872   0.22723  -0.10871   0.14825  -0.30771
 215        5PX         0.02738   0.11691   0.01665   0.03971  -0.09911
 216        5PY         0.02802   0.17105   0.01367  -0.00474  -0.15098
 217        5PZ         0.07062  -0.17233   0.11074  -0.12651   0.24570
 218        6D 0        0.01090  -0.00270   0.00338  -0.00462   0.00480
 219        6D+1       -0.00187   0.00211   0.00026   0.00147  -0.00619
 220        6D-1        0.00315   0.00542   0.00085   0.00168  -0.00834
 221        6D+2       -0.00474   0.00067   0.00317  -0.00313  -0.00005
 222        6D-2       -0.00307  -0.00246   0.00000  -0.00089   0.00359
 223 22  C  1S          0.00253   0.03131   0.01065  -0.01271   0.00132
 224        2S         -0.01004  -0.07622  -0.01719   0.02507  -0.00433
 225        3S          0.03012  -0.06553  -0.02048   0.03079  -0.08906
 226        4PX        -0.24448  -0.06029   0.05615  -0.06230  -0.03629
 227        4PY        -0.16720  -0.03641  -0.03484   0.02853  -0.00642
 228        4PZ        -0.04140   0.06777  -0.03934   0.06101  -0.06768
 229        5PX        -0.13377  -0.05672   0.00935  -0.03045  -0.12469
 230        5PY        -0.07398   0.07957   0.00775   0.00320  -0.03063
 231        5PZ        -0.03093   0.04617   0.08851   0.00808  -0.03179
 232        6D 0        0.00983   0.01825  -0.00168   0.00368  -0.01330
 233        6D+1       -0.00317  -0.00890  -0.00556   0.00705   0.00618
 234        6D-1        0.00058  -0.00041   0.01988  -0.01817   0.00916
 235        6D+2       -0.01532  -0.00088  -0.00057   0.00449  -0.00544
 236        6D-2       -0.00014  -0.00343   0.00002  -0.00326   0.00473
 237 23  H  1S          0.12777  -0.02960  -0.04192  -0.02634  -0.03288
 238        2S          0.07924  -0.02811  -0.02694  -0.02611  -0.02137
 239        3PX         0.00134   0.00101  -0.00011   0.00262   0.00249
 240        3PY        -0.00164   0.00173  -0.00038  -0.00134   0.00219
 241        3PZ         0.00244   0.00259  -0.00141  -0.00099   0.00303
 242 24  H  1S         -0.04253   0.09779  -0.00094   0.01256   0.10881
 243        2S         -0.01911   0.11456   0.03569  -0.00769   0.12792
 244        3PX         0.00331  -0.00091  -0.00037   0.00055  -0.00078
 245        3PY         0.00268   0.00036  -0.00199  -0.00113   0.00251
 246        3PZ        -0.00170  -0.00017   0.00201   0.00052  -0.00011
 247 25  H  1S         -0.00692  -0.02371  -0.07635   0.08688   0.00384
 248        2S          0.00021   0.00849  -0.05872   0.06108   0.02012
 249        3PX        -0.00309  -0.00145  -0.00157   0.00208  -0.00198
 250        3PY        -0.00223   0.00065  -0.00059   0.00064  -0.00054
 251        3PZ         0.00220  -0.00142  -0.00207   0.00180  -0.00154
 252 26  H  1S         -0.00042   0.04120   0.10102  -0.10896   0.03201
 253        2S         -0.00793   0.11273   0.07623  -0.07490   0.03572
 254        3PX        -0.00184   0.00131   0.00181  -0.00126  -0.00125
 255        3PY        -0.00190  -0.00130   0.00231  -0.00227   0.00218
 256        3PZ         0.00152  -0.00024  -0.00062   0.00048  -0.00049
 257 27  H  1S         -0.00307   0.01742   0.01282  -0.00840  -0.00454
 258        2S          0.00521   0.00725   0.02456  -0.02145  -0.00010
 259        3PX        -0.00356   0.00040   0.00000   0.00028  -0.00133
 260        3PY        -0.00178   0.00006  -0.00209   0.00244  -0.00067
 261        3PZ         0.00056  -0.00294  -0.00280   0.00297  -0.00016
 262 28  H  1S          0.09746  -0.08883  -0.01076  -0.00191   0.08944
 263        2S          0.06157  -0.05687  -0.02018   0.00905   0.07311
 264        3PX        -0.00119  -0.00162  -0.00121   0.00030   0.00069
 265        3PY         0.00039  -0.00014   0.00315  -0.00348   0.00209
 266        3PZ         0.00182   0.00043   0.00064  -0.00038  -0.00044
 267 29  H  1S         -0.04102   0.08656  -0.01872   0.03331  -0.09636
 268        2S         -0.01644   0.08385  -0.02388   0.05157  -0.11788
 269        3PX        -0.00331  -0.00276   0.00038  -0.00120   0.00315
 270        3PY        -0.00090   0.00204   0.00162  -0.00101  -0.00121
 271        3PZ        -0.00211   0.00240   0.00182  -0.00199  -0.00174
 272 30  H  1S          0.10345   0.07503  -0.08042   0.08767  -0.08486
 273        2S          0.04901   0.09208  -0.10123   0.03088  -0.07348
 274        3PX        -0.00557  -0.00124  -0.00070  -0.00087   0.00047
 275        3PY        -0.00151  -0.00129  -0.00121   0.00141  -0.00169
 276        3PZ        -0.00540   0.00019  -0.00087  -0.00031  -0.00049
 277 31  H  1S         -0.04101   0.09499  -0.03705   0.01214  -0.10436
 278        2S         -0.01925   0.09725  -0.07674  -0.00806  -0.12394
 279        3PX        -0.00315   0.00073  -0.00063  -0.00058  -0.00074
 280        3PY        -0.00222  -0.00116  -0.00165   0.00104   0.00238
 281        3PZ        -0.00146  -0.00093  -0.00180   0.00053   0.00002
 282 32  H  1S          0.07115  -0.06138  -0.07308   0.06473   0.02923
 283        2S          0.04523  -0.02572  -0.04071   0.03795   0.02079
 284        3PX        -0.00141  -0.00026  -0.00035   0.00039   0.00010
 285        3PY        -0.00027  -0.00240  -0.00043   0.00070   0.00085
 286        3PZ        -0.00213   0.00070   0.00035  -0.00044   0.00059
                          54        55        56        57        58
                           V         V         V         V         V
     Eigenvalues --     0.07891   0.08448   0.10438   0.11016   0.11577
   1 1   N  1S          0.03788  -0.00857   0.00755  -0.00050  -0.01150
   2        2S          0.09080  -0.03199   0.03143  -0.00588  -0.02846
   3        3S          0.20198   0.03611  -0.09539   0.09646  -0.09547
   4        4PX        -0.01999   0.00518   0.00060  -0.00488   0.03937
   5        4PY         0.00915   0.01875   0.01543   0.00529  -0.01187
   6        4PZ         0.02169  -0.02169   0.02521  -0.02462   0.01289
   7        5PX         0.02433  -0.00447   0.03069  -0.00656  -0.10044
   8        5PY        -0.04764   0.01278  -0.09474   0.03381   0.00859
   9        5PZ        -0.00921   0.03308  -0.03328   0.12463  -0.04282
  10        6D 0       -0.00034   0.00000  -0.00180  -0.00415   0.00473
  11        6D+1       -0.00009   0.00337   0.00094  -0.00217  -0.00304
  12        6D-1       -0.00289   0.00295   0.00055  -0.00087  -0.00131
  13        6D+2       -0.00142  -0.00244  -0.00571  -0.00187   0.00075
  14        6D-2        0.00044  -0.00360  -0.00115  -0.00071   0.00453
  15 2   C  1S         -0.03311  -0.01579   0.05494   0.01359   0.05758
  16        2S          0.04194   0.01086  -0.06753   0.00167  -0.10125
  17        3S          0.83749   0.62390  -1.43399  -0.60729  -1.20220
  18        4PX        -0.00522   0.02994   0.05248  -0.02862  -0.01257
  19        4PY        -0.09293  -0.05949   0.08380   0.02607   0.03493
  20        4PZ         0.02325   0.03655   0.01191  -0.07853   0.03844
  21        5PX        -0.05526   0.12781   0.20782  -0.13306   0.01222
  22        5PY        -0.29632  -0.12866   0.25251  -0.03661   0.21356
  23        5PZ        -0.00008   0.10480   0.07650  -0.26177   0.14007
  24        6D 0       -0.00298   0.00017   0.00248  -0.00144   0.00197
  25        6D+1       -0.00150   0.00539   0.00135  -0.00444   0.00107
  26        6D-1       -0.00473  -0.00018   0.00093   0.00140   0.00002
  27        6D+2       -0.00109  -0.00440  -0.00221   0.00344   0.00004
  28        6D-2       -0.00454  -0.00376   0.00320   0.00149   0.00070
  29 3   C  1S         -0.02832   0.02740   0.03808  -0.02061   0.00166
  30        2S          0.02571  -0.03325  -0.04998  -0.00180  -0.00568
  31        3S          0.71968  -0.69815  -1.00827   1.00977  -0.05138
  32        4PX         0.06097   0.00464  -0.07668  -0.00261  -0.02076
  33        4PY        -0.00900   0.01516   0.06579  -0.04132  -0.00243
  34        4PZ        -0.04981   0.04858   0.03755  -0.09392  -0.00503
  35        5PX         0.19578   0.05465  -0.32839  -0.06516  -0.18664
  36        5PY        -0.00360   0.06275   0.20254  -0.03512  -0.10206
  37        5PZ        -0.13344   0.14972   0.05825  -0.22522  -0.02035
  38        6D 0       -0.00123  -0.00037   0.00115  -0.00152   0.00706
  39        6D+1        0.00247  -0.00422  -0.00075   0.00392  -0.00261
  40        6D-1        0.00234  -0.00296  -0.00300   0.00258   0.00108
  41        6D+2        0.00030   0.00123  -0.00007  -0.00457  -0.00583
  42        6D-2        0.00733   0.00328  -0.00363  -0.00172  -0.00575
  43 4   N  1S          0.01738  -0.01178  -0.01963   0.00687   0.00491
  44        2S          0.05112  -0.03187  -0.06229   0.01767   0.01704
  45        3S          0.01648  -0.05156   0.02394  -0.01603   0.01887
  46        4PX        -0.04631   0.00079  -0.01858   0.00872   0.04328
  47        4PY         0.00075   0.01875   0.00426  -0.00057   0.01054
  48        4PZ         0.01214  -0.01513   0.03152   0.00568  -0.01493
  49        5PX         0.07735   0.03559   0.02564  -0.02141  -0.16030
  50        5PY         0.04240  -0.04776  -0.05064   0.03096  -0.05164
  51        5PZ        -0.03251   0.03136  -0.07328   0.07087   0.00013
  52        6D 0        0.00066   0.00118  -0.00014   0.00454  -0.00376
  53        6D+1       -0.00266   0.00048   0.00240  -0.00018   0.00172
  54        6D-1        0.00443  -0.00053  -0.00243  -0.00459  -0.00132
  55        6D+2       -0.00166  -0.00101   0.00156   0.00457   0.00157
  56        6D-2       -0.00576   0.00110   0.00184  -0.00224   0.00507
  57 5   C  1S         -0.00927   0.04307   0.01536  -0.00918  -0.07479
  58        2S          0.00870  -0.06513  -0.00917   0.00907   0.10014
  59        3S          0.36525  -0.98147  -0.62524   0.24618   1.93601
  60        4PX         0.10388  -0.08301  -0.04176   0.03163   0.05447
  61        4PY         0.00853   0.00273  -0.02035  -0.06829   0.01554
  62        4PZ         0.00487  -0.00626   0.04900  -0.09186   0.01055
  63        5PX         0.31385  -0.28247  -0.09022   0.05771   0.19056
  64        5PY        -0.03656   0.05533  -0.10652  -0.22955   0.07951
  65        5PZ         0.04276  -0.06105   0.17535  -0.30004   0.03693
  66        6D 0       -0.00496   0.00458   0.00067   0.00133  -0.00071
  67        6D+1       -0.00231   0.00129   0.00173   0.00295  -0.00213
  68        6D-1       -0.00583   0.00564  -0.00143  -0.00311  -0.00075
  69        6D+2       -0.00080  -0.00067  -0.00181   0.00146   0.00125
  70        6D-2        0.00694  -0.00271  -0.00025   0.00319  -0.00179
  71 6   C  1S         -0.02602   0.04513  -0.01074  -0.01112  -0.00582
  72        2S          0.02783  -0.06920  -0.00487   0.01489   0.02382
  73        3S          0.80154  -0.98361   0.58713   0.20834  -0.08200
  74        4PX         0.09458  -0.03912   0.05786   0.00149  -0.01324
  75        4PY         0.04543  -0.06838   0.02047  -0.05738   0.04985
  76        4PZ        -0.02343   0.02674   0.02309  -0.09922  -0.02181
  77        5PX         0.26966  -0.12653   0.18761   0.00462  -0.19257
  78        5PY         0.12652  -0.28055  -0.03751  -0.16859   0.33605
  79        5PZ        -0.11370   0.15242   0.12262  -0.31246  -0.16498
  80        6D 0       -0.00545   0.00431  -0.00136  -0.00297   0.00069
  81        6D+1        0.00179  -0.00323  -0.00001  -0.00094   0.00371
  82        6D-1       -0.00240   0.00550   0.00354   0.00074  -0.00702
  83        6D+2        0.00965  -0.00383   0.00017  -0.00097  -0.00444
  84        6D-2       -0.00060   0.00318   0.00444  -0.00194  -0.00602
  85 7   C  1S         -0.02555   0.02627  -0.00709   0.02820   0.00173
  86        2S          0.04757  -0.05562   0.00885  -0.04733  -0.00898
  87        3S          0.42278  -0.43464   0.18051  -0.71761   0.09693
  88        4PX         0.04075   0.01981  -0.00131  -0.01873   0.01776
  89        4PY         0.01173  -0.03437   0.00945  -0.04499   0.06988
  90        4PZ         0.07162  -0.03799   0.02309  -0.08572  -0.01017
  91        5PX         0.08896   0.12277  -0.02062  -0.10580  -0.02789
  92        5PY         0.08498  -0.12362   0.00403  -0.23772   0.23190
  93        5PZ         0.21425  -0.15513   0.09805  -0.24636   0.03608
  94        6D 0        0.00499  -0.00162   0.00586   0.00479  -0.00341
  95        6D+1       -0.00295  -0.00113  -0.00020   0.00132   0.00419
  96        6D-1       -0.00204  -0.00112   0.00505   0.00195   0.00380
  97        6D+2        0.00217   0.00153   0.00002  -0.00333  -0.00649
  98        6D-2       -0.00037   0.00572   0.00539  -0.00293  -0.00160
  99 8   H  1S         -0.02118   0.01252   0.00701  -0.00809   0.00097
 100        2S         -0.60368  -0.16709   0.99246  -0.18172   0.87077
 101        3PX         0.00294   0.00172  -0.00191  -0.00117  -0.00356
 102        3PY         0.00053  -0.00051  -0.00203  -0.00081  -0.00211
 103        3PZ         0.00475   0.00101  -0.00461  -0.00065  -0.00301
 104 9   H  1S         -0.01559  -0.02157   0.00155   0.02260   0.00841
 105        2S         -0.44791   0.20110   0.89890  -0.23533   0.09096
 106        3PX        -0.00294   0.00230   0.00230  -0.00377  -0.00344
 107        3PY         0.00235  -0.00073  -0.00228  -0.00117  -0.00251
 108        3PZ        -0.00165   0.00059   0.00247  -0.00170  -0.00033
 109 10  H  1S          0.00534   0.01197  -0.00904  -0.01247   0.02556
 110        2S         -0.48328   0.42522   0.46869  -0.71061   0.16062
 111        3PX        -0.00213   0.00606   0.00116  -0.00310  -0.00460
 112        3PY        -0.00267   0.00431   0.00090  -0.00191  -0.00266
 113        3PZ         0.00417  -0.00278  -0.00433   0.00145  -0.00079
 114 11  H  1S         -0.02040   0.00597  -0.01175  -0.01253   0.01371
 115        2S         -0.40307   0.61903   0.37831  -0.67300  -0.84110
 116        3PX         0.00087   0.00032  -0.00064   0.00019  -0.00280
 117        3PY         0.00361  -0.00447  -0.00279   0.00348   0.00365
 118        3PZ         0.00372  -0.00585  -0.00026   0.00456   0.00310
 119 12  H  1S         -0.00623   0.00875   0.00036   0.01070  -0.00598
 120        2S         -0.37735   0.63665   0.11421   0.40051  -1.02656
 121        3PX         0.00261  -0.00117  -0.00010  -0.00041  -0.00262
 122        3PY        -0.00144   0.00350  -0.00075  -0.00044  -0.00282
 123        3PZ        -0.00498   0.00596   0.00147   0.00038  -0.00517
 124 13  H  1S         -0.00329   0.00544   0.02345  -0.00049  -0.01249
 125        2S         -0.53109   0.72812  -0.34572   0.37608  -0.23251
 126        3PX         0.00391  -0.00127   0.00269  -0.00289  -0.00298
 127        3PY        -0.00548   0.00482  -0.00101   0.00022   0.00096
 128        3PZ        -0.00452   0.00547  -0.00044   0.00174  -0.00343
 129 14  H  1S         -0.01629   0.02016   0.00217   0.00370  -0.00685
 130        2S         -0.54182   0.62229  -0.11608  -0.64897  -0.08457
 131        3PX         0.00304   0.00071   0.00118   0.00118  -0.00316
 132        3PY         0.00346  -0.00402  -0.00267   0.00239   0.00267
 133        3PZ         0.00452  -0.00481   0.00105   0.00181   0.00118
 134 15  H  1S          0.00263  -0.00916   0.02644   0.01928   0.01365
 135        2S         -0.51310   0.40444  -0.10803   0.87853  -0.23023
 136        3PX        -0.00284   0.00546   0.00166   0.00013  -0.00208
 137        3PY        -0.00630   0.00389  -0.00268   0.00203   0.00649
 138        3PZ        -0.00008   0.00028   0.00038   0.00296  -0.00177
 139 16  C  1S         -0.03282   0.01286  -0.05449   0.01316   0.05753
 140        2S          0.04019  -0.00629   0.06651   0.00310  -0.10239
 141        3S          0.85687  -0.56016   1.43690  -0.61248  -1.20109
 142        4PX         0.00197   0.02807   0.05290   0.02923   0.01031
 143        4PY         0.09468  -0.05128   0.08680  -0.02744  -0.03857
 144        4PZ         0.02598  -0.03577  -0.01208  -0.07849   0.03872
 145        5PX         0.03623   0.13270   0.20557   0.13450  -0.01897
 146        5PY         0.29657  -0.10094   0.26399   0.03575  -0.23046
 147        5PZ         0.00941  -0.10840  -0.07925  -0.25891   0.14096
 148        6D 0       -0.00267  -0.00059  -0.00250  -0.00138   0.00227
 149        6D+1        0.00122   0.00554   0.00153   0.00455  -0.00084
 150        6D-1        0.00466   0.00030   0.00121  -0.00158  -0.00002
 151        6D+2       -0.00124   0.00441   0.00224   0.00346  -0.00007
 152        6D-2       -0.00484   0.00330  -0.00328   0.00145   0.00072
 153 17  C  1S         -0.02536  -0.02786  -0.03912  -0.02012   0.00205
 154        2S          0.02147   0.03194   0.05090  -0.00180  -0.00692
 155        3S          0.64792   0.73643   1.02848   0.98892  -0.04851
 156        4PX        -0.05888   0.00251  -0.07766   0.00328   0.01837
 157        4PY         0.00814   0.01677   0.06594   0.04021   0.00214
 158        4PZ        -0.04696  -0.05214  -0.03977  -0.09128  -0.00810
 159        5PX        -0.19703   0.04522  -0.33135   0.06837   0.17398
 160        5PY        -0.00296   0.05944   0.20054   0.03618   0.10053
 161        5PZ        -0.12420  -0.15902  -0.06338  -0.21984  -0.02645
 162        6D 0       -0.00115   0.00009  -0.00119  -0.00138   0.00684
[...]
 005149,-0.00008952,0.00002781,-0.00000002,0.00000448,-0.00000640,-0.00
 001789,-0.00001229,0.00001352,-0.00000994,-0.00001570,0.00001095,0.000
 10446,0.00006965,-0.00008030,0.00008364,0.00012791,0.00023171,0.002201
 63,0.00240304,0.00057339,-0.01510544,0.01304123,0.02871502,-0.08537351
 ,0.10931973,0.18861082,0.00663535,-0.01156398,-0.02085529,-0.00037813,
 -0.00059490,-0.00261416,-0.00717498,-0.00268949,-0.00080845,0.00004135
 ,0.00001438,-0.00003750,0.00009009,0.00009639,-0.00006799,-0.00048343,
 -0.00030455,-0.00019969,0.00053723,-0.00051880,-0.00006204,0.09789599,
 0.00006000,0.00009039,-0.00019810,-0.00006085,-0.00029364,0.00024181,-
 0.00009776,0.00001575,0.00010293,-0.00018473,-0.00030511,0.00017014,0.
 00005236,0.00002908,0.00013387,-0.00000136,-0.00003513,0.00000417,0.00
 031681,0.00064900,0.00103602,-0.00000084,0.00000976,0.00000983,-0.0000
 1094,-0.00001787,0.00001802,0.00001930,0.00000387,-0.00000053,-0.00003
 516,-0.00004263,0.00000563,-0.00000279,-0.00000808,-0.00000422,0.00001
 049,0.00000175,-0.00000191,-0.00000110,0.00000419,-0.00000081,0.000033
 27,0.00001302,-0.00005098,-0.00000461,0.00012202,0.00018681,-0.0016968
 1,0.00070632,0.00117640,-0.00968641,0.00651404,0.01822206,0.11439228,-
 0.15204198,-0.24879144,-0.00239476,0.00379010,0.00750768,0.00019004,-0
 .00056490,0.00122977,-0.00286572,-0.00205455,0.00149996,0.00001868,0.0
 0002025,-0.00007725,0.00008578,-0.00001371,-0.00006765,-0.00010461,0.0
 0015915,-0.00009111,-0.00004467,-0.00014844,0.00045470,-0.11149798,0.1
 5509548,-0.00003511,0.00014251,0.00013133,0.00026606,0.00069235,-0.000
 22923,-0.00004447,-0.00013898,-0.00028303,0.00007934,0.00016529,-0.000
 05821,-0.00004638,-0.00005684,-0.00002755,0.00003134,0.00006588,0.0000
 2670,-0.00020602,-0.00066366,-0.00024234,-0.00000837,-0.00002200,0.000
 00032,0.00007774,0.00005811,-0.00006005,0.00000259,0.00001172,0.000009
 50,0.00000766,0.00002874,0.00000996,0.00001366,0.00001310,0.00001070,0
 .00001414,0.00001380,-0.00000695,-0.00000037,0.00000659,-0.00000659,0.
 00006047,0.00006273,0.00000563,-0.00033934,0.00013638,-0.00019100,-0.0
 0093911,-0.00229335,0.00094473,0.00187062,-0.00128914,-0.00480605,0.19
 274011,-0.24649283,-0.41989719,0.00850049,-0.01229100,-0.01565869,-0.0
 0039153,0.00011331,-0.00202499,0.00078608,0.00112369,-0.00094294,0.000
 04728,0.00001333,0.00000139,-0.00009832,-0.00011911,0.00016193,0.00003
 553,0.00040953,0.00006644,-0.00022938,0.00087466,-0.00001373,-0.196525
 65,0.25093091,0.43290948,0.00010063,-0.00020449,-0.00008002,-0.0007247
 3,0.00066566,-0.00021158,0.00003362,0.00014557,0.00004027,0.00006871,-
 0.00003627,-0.00003158,0.00004087,0.00004155,-0.00000194,-0.00001783,0
 .00000898,-0.00006428,-0.00065288,0.00074118,-0.00049381,-0.00003414,0
 .00005254,0.00012108,-0.00002514,-0.00003794,0.00003719,0.00002931,-0.
 00001528,-0.00006438,0.00000250,-0.00001803,0.00000877,-0.00000576,-0.
 00000570,-0.00000962,-0.00001995,-0.00000800,0.00000847,-0.00000403,-0
 .00002032,0.00001775,-0.00017479,-0.00027566,0.00022363,0.00005747,-0.
 00011411,0.00008476,-0.00043833,0.00066807,0.00013864,-0.00142572,-0.0
 0071519,0.00016533,-0.01059800,0.01145381,0.00456165,-0.39539511,0.293
 31603,0.12135222,-0.01303717,0.00202198,0.00666105,-0.00207420,-0.0008
 1706,0.00200970,-0.00003881,-0.00003693,0.00001332,0.00002966,0.000049
 01,-0.00007147,0.00008964,-0.00010951,-0.00005040,-0.00000231,-0.00032
 779,-0.00007902,0.00171394,-0.00071953,0.00102644,0.41135222,0.0002437
 7,-0.00000208,-0.00012757,-0.00066698,0.00077597,0.00023286,-0.0000666
 5,0.00006974,-0.00010654,0.00004235,-0.00001664,-0.00006241,-0.0000058
 2,0.00003672,0.00001400,0.00001416,-0.00003535,0.00004067,-0.00078445,
 0.00056801,-0.00035667,0.00038682,0.00000532,-0.00015272,0.00003102,-0
 .00004258,-0.00001468,0.00002107,-0.00002007,0.00001668,-0.00000202,-0
 .00001018,-0.00000049,0.00000351,-0.00001119,-0.00000092,0.00001913,0.
 00001330,-0.00001829,-0.00000865,-0.00000305,0.00000456,-0.00016386,-0
 .00025565,0.00016634,0.00006584,-0.00004494,0.00005828,-0.00013912,0.0
 0013906,-0.00008910,-0.00044841,-0.00028018,-0.00028515,-0.00183949,-0
 .00004209,0.00015660,0.29261876,-0.22265177,-0.09609896,-0.02158832,0.
 01244236,0.00729630,-0.00300924,-0.00025683,0.00291285,-0.00001948,-0.
 00000618,-0.00001115,0.00004559,0.00003445,-0.00002194,0.00003542,-0.0
 0005208,0.00000073,-0.00000306,-0.00016460,-0.00011352,-0.00026212,0.0
 0101591,0.00034632,-0.29468631,0.22568625,-0.00007189,0.00021179,-0.00
 007717,0.00180576,-0.00027611,0.00023050,-0.00010216,0.00016157,-0.000
 17716,-0.00013539,-0.00004047,0.00007781,-0.00003844,-0.00003104,0.000
 00449,0.00003955,-0.00000266,0.00005487,0.00057828,-0.00063701,0.00066
 449,-0.00043888,-0.00002224,-0.00017507,0.00001176,0.00005218,-0.00000
 393,0.00004451,0.00004566,-0.00004254,0.00000142,0.00001229,-0.0000067
 3,-0.00000187,0.00000235,0.00000288,0.00002036,0.00000770,-0.00000721,
 0.00000535,0.00001562,-0.00000513,0.00024204,0.00026314,-0.00018883,-0
 .00000959,-0.00014846,-0.00018135,-0.00033864,0.00029190,0.00010787,-0
 .00324288,-0.00032971,0.00058956,-0.02238062,0.01929860,0.00399433,0.1
 1854990,-0.09546058,-0.03491183,0.02572011,-0.00831946,-0.00833173,-0.
 00022320,0.00062118,-0.00591172,-0.00001917,-0.00002313,0.00005710,0.0
 0005507,0.00000931,-0.00002254,-0.00004147,-0.00008000,0.00000299,-0.0
 0002905,-0.00016273,-0.00007677,0.00086901,-0.00025821,0.00229233,-0.1
 2908063,0.09256923,0.04611034,-0.00030325,0.00001638,0.00003316,0.0010
 8004,0.00029308,-0.00271634,-0.00021553,0.00009443,-0.00026598,0.00003
 063,0.00003065,0.00001165,0.00002987,0.00000984,-0.00000122,-0.0000796
 4,0.00009329,-0.00011983,-0.00044049,0.00010313,0.00012172,0.00014633,
 0.00021412,0.00016578,-0.00000658,0.00004503,0.00003562,0.00010751,0.0
 0009784,-0.00011890,0.00000127,-0.00001136,0.00001486,-0.00000109,0.00
 000107,-0.00000139,-0.00004073,-0.00003415,0.00004462,0.00001614,-0.00
 000745,0.00000852,-0.00010965,-0.00010348,0.00012089,0.00009214,-0.000
 06208,0.00003333,-0.00029929,0.00053360,0.00028415,-0.00293778,0.00025
 003,-0.00159218,-0.00556032,-0.01869881,-0.00689957,-0.06591296,-0.174
 20941,-0.06253271,-0.01013678,-0.02173441,-0.00141424,0.00278581,-0.00
 276605,0.00000836,-0.00002110,-0.00003667,0.00001169,-0.00000893,0.000
 03695,-0.00004893,0.00005946,-0.00000436,-0.00006605,0.00011781,-0.000
 05148,0.00001436,-0.00148471,0.00019904,-0.00131018,0.01265718,0.03052
 449,0.01087535,0.06928237,-0.00040695,-0.00011780,-0.00006303,-0.00007
 783,0.00352981,-0.00269512,0.00005698,0.00008111,-0.00011106,0.0000734
 4,0.00004882,-0.00005443,0.00007775,0.00002839,-0.00002864,-0.00000197
 ,0.00008217,-0.00013843,-0.00012578,-0.00005254,-0.00019355,0.00021011
 ,-0.00033846,0.00046113,-0.00006159,0.00002074,0.00005963,0.00009936,0
 .00006072,-0.00021114,0.00000896,-0.00001892,0.00001663,-0.00001011,0.
 00000943,-0.00000393,-0.00005062,-0.00003607,0.00004176,0.00002015,-0.
 00001870,0.00002252,-0.00012538,-0.00009128,0.00008421,0.00002866,0.00
 012154,0.00025899,0.00044238,-0.00007073,-0.00010365,0.00110797,0.0004
 3082,0.00098042,0.00625809,0.00927633,0.00548792,-0.17103759,-0.516898
 66,-0.19484771,-0.00972023,-0.01433718,0.00487025,0.00165685,-0.000356
 85,0.00109339,0.00001937,0.00001096,-0.00003724,-0.00004530,0.00001774
 ,-0.00004067,-0.00004699,-0.00001374,-0.00002212,0.00000314,0.00004427
 ,0.00006056,0.00034318,0.00031007,0.00089971,-0.01085636,-0.01729391,-
 0.00773070,0.18368948,0.53389774,0.00045323,0.00014183,0.00015467,-0.0
 0071194,0.00228925,0.00382076,-0.00008150,-0.00004645,0.00025578,-0.00
 009016,-0.00015041,0.00018594,-0.00005500,-0.00000166,0.00005199,0.000
 09128,-0.00000490,0.00011508,0.00028268,0.00008348,0.00009438,0.000055
 89,0.00020589,-0.00035073,0.00003692,-0.00009531,-0.00003267,-0.000080
 04,-0.00014726,0.00007689,-0.00000024,0.00001155,-0.00000710,-0.000009
 71,-0.00000624,0.00000310,0.00004182,0.00003857,-0.00006765,-0.0000184
 1,0.00000697,-0.00000626,0.00016598,0.00012300,-0.00014740,0.00009607,
 -0.00013485,-0.00037804,-0.00032666,0.00059216,0.00031241,-0.00178188,
 -0.00030169,-0.00231282,-0.00770710,-0.02279581,-0.00847750,-0.0626953
 2,-0.19509641,-0.06864915,0.01775127,0.03191577,0.00159201,-0.00218251
 ,0.00184577,-0.00167907,-0.00000783,-0.00003526,0.00007852,0.00001179,
 0.00001214,0.00009784,0.00005617,0.00004083,0.00000308,0.00025351,0.00
 007199,-0.00005986,-0.00254030,0.00028716,-0.00209398,-0.00484281,-0.0
 0743252,-0.00119386,0.06305027,0.19056304,0.07542599,-0.00227864,-0.00
 271203,0.00378888,0.00138350,0.00250489,0.00520731,-0.00033067,-0.0004
 1367,-0.00032070,0.00101956,0.00150188,-0.00047285,-0.00025787,-0.0002
 4572,-0.00023890,0.00015540,-0.00120272,-0.00038248,0.00524188,-0.0252
 3294,-0.00648065,0.00010864,-0.00063370,0.00019489,0.00021923,0.000035
 84,-0.00007543,-0.00010341,-0.00011986,0.00016707,0.00001884,0.0000808
 5,0.00007026,-0.00000828,0.00002862,0.00004813,-0.00011543,-0.00012360
 ,0.00016522,-0.00027335,-0.00026351,0.00027625,0.00048674,0.00065107,-
 0.00081216,0.00009835,0.00040587,0.00053794,0.00135883,-0.00015860,-0.
 00066921,0.00145260,-0.00569729,-0.00287973,-0.00013367,0.00033200,0.0
 0064664,0.00250079,0.00255761,-0.00277756,-0.02640749,0.03997585,-0.00
 219127,-0.01655132,0.08047188,0.02510888,-0.00004030,0.00002588,-0.000
 11033,-0.00004110,0.00003314,-0.00005808,0.00007265,-0.00011006,-0.000
 11235,0.00006924,-0.00046723,-0.00034811,0.00007078,-0.00012847,-0.000
 21946,0.00001959,-0.00060776,0.00021761,-0.00024991,-0.00086273,-0.000
 09341,0.03145072,-0.00249082,-0.00078085,0.00247074,-0.00134204,0.0021
 2252,-0.00118017,0.00029618,-0.00026015,0.00027018,0.00072586,0.001752
 23,-0.00050968,-0.00034693,-0.00021533,-0.00009514,0.00015795,-0.00049
 599,-0.00058608,0.00413954,-0.01825565,-0.00577876,-0.00008038,0.00035
 639,0.00009041,0.00000274,-0.00003964,0.00003702,-0.00000080,0.0000657
 5,-0.00025608,0.00003500,0.00009373,0.00006224,-0.00000354,0.00000338,
 0.00001316,-0.00012900,-0.00010141,0.00018449,-0.00014072,-0.00013372,
 0.00021236,-0.00022611,0.00045299,-0.00008697,0.00029733,0.00012305,0.
 00054146,0.00063655,0.00187081,0.00065859,-0.00193986,0.00124025,-0.00
 195473,-0.00015704,0.00076037,0.00046365,-0.00023442,0.00131307,0.0007
 2352,0.00796025,-0.00661764,0.00118704,0.07853648,-0.57065784,-0.12419
 255,-0.00002734,-0.00000780,-0.00008188,-0.00006029,0.00000812,-0.0000
 5558,0.00006642,-0.00002304,-0.00001318,0.00001221,-0.00008113,-0.0000
 1179,0.00009802,0.00017926,-0.00012332,0.00002363,-0.00001164,-0.00029
 331,0.00092703,0.00003765,-0.00065012,-0.08790920,0.58729233,0.0023362
 8,0.00247551,-0.00221783,-0.00077367,0.00342530,0.00252920,-0.00005094
 ,0.00017444,-0.00034558,-0.00066345,-0.00095141,0.00103900,0.00019977,
 0.00005203,0.00041387,0.00011935,0.00125946,0.00027217,-0.00300060,0.0
 1981775,0.00570583,0.00013130,-0.00028890,0.00005069,0.00006262,0.0000
 1812,-0.00003891,-0.00001655,-0.00018989,0.00005151,-0.00005781,-0.000
 07776,0.00000112,-0.00000133,-0.00000469,-0.00001654,0.00009956,0.0001
 3104,-0.00017086,0.00016416,0.00019853,-0.00017829,-0.00015002,-0.0007
 9425,0.00035497,0.00013244,0.00047052,-0.00067951,0.00343395,0.0007507
 6,-0.00530462,-0.00161537,-0.03933165,-0.02039370,-0.00076820,-0.00103
 849,0.00135049,0.00083285,0.00000105,-0.00018350,-0.00727172,0.0100535
 5,0.00121357,0.02411380,-0.12085025,-0.03069559,0.00000466,0.00004106,
 0.00017304,-0.00013039,0.00002109,0.00024566,0.00020494,-0.00120341,-0
 .00028647,-0.00013000,-0.00115709,-0.00055635,-0.00029400,0.00022951,0
 .00008975,-0.00002984,0.00000684,0.00016635,0.00005437,-0.00025381,0.0
 0013207,-0.01766310,0.12749629,0.04715374,-0.00003158,0.00027054,-0.00
 006860,-0.04221381,0.14191005,0.01191702,0.00516257,-0.02655575,-0.000
 50918,0.00193921,0.00105532,-0.00076288,-0.00034209,-0.00005985,0.0003
 5942,0.00008714,0.00013407,0.00014467,-0.00043247,-0.00027593,-0.00021
 682,-0.00478141,0.03852113,0.00419017,0.00114792,0.00115528,-0.0008464
 6,-0.00269101,-0.00252639,0.00300867,0.00001858,0.00009346,-0.00012050
 ,-0.00004149,0.00006849,-0.00007475,0.00001254,0.00003939,0.00001180,0
 .00004269,0.00005365,0.00001440,0.00000558,0.00002661,0.00000623,-0.00
 002143,0.00003961,-0.00001289,-0.00017654,0.00007692,-0.00000899,-0.00
 036078,0.00025269,0.00015047,0.00015656,0.00002463,0.00010707,0.000485
 28,0.00097017,-0.00022533,0.00235823,-0.00612769,-0.00263438,0.0017653
 0,-0.00411623,-0.00127950,0.00000770,0.00000553,0.00002267,0.00002154,
 -0.00001672,-0.00000449,-0.00000538,0.00000781,0.00001458,0.00004654,0
 .00009780,0.00006001,-0.00006039,-0.00002756,0.00000536,-0.00013632,-0
 .00006230,-0.00015446,-0.00016791,-0.00021524,0.00007296,0.00061914,0.
 00073146,0.00038681,0.03758713,-0.00030718,0.00001787,0.00002608,0.144
 94851,-0.60084612,-0.05540265,0.00611642,-0.01690345,-0.00065575,0.000
 40450,0.00151124,-0.00088998,-0.00016455,0.00011421,0.00022771,0.00018
 244,0.00023890,-0.00008601,-0.00028148,-0.00065744,-0.00038410,-0.0029
 9009,-0.00275323,-0.00082113,0.00009955,0.00084651,-0.00004143,-0.0025
 2098,-0.00076267,0.00228941,0.00009277,0.00006188,-0.00007694,-0.00006
 501,-0.00000993,-0.00003977,-0.00004519,-0.00000610,0.00001468,0.00004
 795,0.00002814,0.00005212,-0.00006466,-0.00004270,-0.00012832,0.000074
 44,0.00005037,0.00015760,0.00020592,-0.00011393,0.00018930,-0.00009078
 ,0.00057528,-0.00000165,0.00014893,0.00003046,0.00020346,-0.00007432,0
 .00187617,0.00113484,-0.00105971,-0.00702747,-0.01059261,0.00212419,0.
 00181292,0.00216042,0.00000552,-0.00000776,0.00000049,-0.00005953,0.00
 002868,-0.00002322,-0.00005248,0.00006574,0.00000008,-0.00007041,0.000
 03322,0.00005530,0.00001664,0.00000954,-0.00000424,0.00016092,-0.00014
 820,-0.00011495,0.00074587,0.00007439,-0.00148891,-0.00196148,-0.00002
 114,-0.00090044,-0.14551794,0.62189416,-0.00033433,-0.00000225,0.00044
 695,0.01314305,-0.05869680,-0.00375494,-0.00677085,0.02511494,0.000271
 02,-0.00019717,-0.00148320,0.00091329,0.00009587,-0.00024000,-0.000218
 83,-0.00021140,0.00006041,-0.00015072,-0.00011484,-0.00006450,-0.00058
 891,-0.00165455,0.01090672,0.00197658,-0.00094674,-0.00041879,0.000856
 48,0.00423263,0.00240789,-0.00229465,-0.00008101,-0.00005117,0.0001541
 1,0.00009852,0.00002327,0.00006730,-0.00003520,-0.00004591,0.00009599,
 -0.00002724,-0.00007845,-0.00001926,-0.00005648,-0.00004477,0.00024488
 ,0.00017574,0.00006641,-0.00001110,0.00022560,0.00010383,0.00011614,-0
 .00027389,0.00068690,-0.00000475,0.00006473,-0.00010866,0.00067984,-0.
 00284968,-0.00403502,0.00353953,0.00343097,-0.04126650,-0.02521669,0.0
 0536177,-0.00285433,0.00150204,0.00000288,-0.00000421,0.00002358,-0.00
 002284,-0.00000218,0.00004147,-0.00013396,0.00005408,0.00000068,-0.000
 05223,0.00017898,0.00022209,0.00007177,-0.00003125,0.00008332,0.000549
 72,0.00063872,0.00005426,0.00074561,0.00211560,0.00063012,-0.00083771,
 0.00182616,0.00045505,-0.01355411,0.06523518,0.01993496,0.00007548,0.0
 0024460,-0.00009974,0.00047330,0.00044312,0.00018839,-0.00012651,-0.00
 015521,-0.00021915,-0.00002428,0.00010700,0.00020453,0.00002263,-0.000
 05143,0.00004214,0.00003646,0.00011589,-0.00002585,-0.00007566,-0.0000
 1465,-0.00012675,0.00000202,0.00001966,0.00010131,0.00006967,0.0000438
 0,-0.00004200,0.00000626,-0.00000916,0.00001371,-0.00001115,0.00000235
 ,0.00001471,0.00000954,0.00001864,0.00000904,0.00000831,0.00000151,-0.
 00000687,-0.00001129,-0.00000763,0.00000460,0.00000509,0.00002715,-0.0
 0000582,0.00021673,-0.00183781,-0.00097393,-0.00326574,-0.00265460,0.0
 0461396,-0.00378068,-0.03882750,0.00474056,-0.00949878,0.09858639,-0.0
 1458705,-0.00503535,0.01985587,-0.00671997,-0.00222271,0.00033835,-0.0
 0007709,0.00025938,-0.00143225,-0.00096233,-0.00041762,-0.00027151,0.0
 0039902,-0.00000534,0.00007474,0.00002326,-0.00005782,0.00023968,-0.00
 014173,-0.00003749,-0.00022840,0.00009244,-0.00065151,0.01418861,-0.00
 517125,-0.00139013,0.00031211,-0.00272775,0.00157009,-0.00045120,0.000
 80498,0.00044494,0.00044183,0.00034013,-0.00000104,-0.00004879,-0.0000
 4465,0.02341319,0.00007235,0.00017344,0.00001142,0.00008353,-0.0000020
 0,-0.00006303,-0.00006775,-0.00003060,-0.00004432,-0.00000625,0.000045
 37,0.00012465,0.00002166,-0.00002930,0.00001477,0.00001650,0.00010715,
 -0.00002143,-0.00014292,0.00010581,0.00005219,0.00000921,0.00001128,0.
 00000613,0.00002079,0.00000546,0.00000040,0.00000876,-0.00000148,-0.00
 000862,-0.00000344,-0.00000142,0.00001386,-0.00000141,0.00000840,0.000
 00284,-0.00001176,-0.00000129,-0.00000827,0.00000267,-0.00000765,0.000
 00150,-0.00000454,-0.00000695,-0.00000128,0.00002983,-0.00046658,-0.00
 067538,-0.00130163,-0.00011325,0.00261832,-0.00456694,-0.00837063,-0.0
 0033286,0.09537129,-0.61532439,0.12784155,-0.00137267,0.00284036,-0.00
 400486,-0.00028750,0.00057842,-0.00053539,0.00051069,-0.00042484,-0.00
 075513,-0.00016482,-0.00010472,0.00015389,-0.00007059,-0.00004079,0.00
 009804,0.00005205,0.00004632,0.00000257,0.00010427,0.00041143,-0.00003
 919,0.00108766,-0.01321289,0.00738578,-0.00034444,0.00056215,0.0003682
 6,-0.00018562,0.00156213,0.00015839,0.00024520,0.00003107,0.00041920,-
 0.00003302,0.00003045,0.00000889,-0.08907116,0.63161955,-0.00001645,-0
 .00008091,0.00013624,0.00055108,0.00073598,0.00019522,-0.00004792,-0.0
 0016761,-0.00030397,0.00003870,-0.00001080,0.00003019,0.00001851,-0.00
 003340,0.00001358,-0.00001304,-0.00000916,0.00000049,0.00016921,-0.000
 25893,-0.00015217,0.00001628,-0.00000208,0.00008306,0.00008281,0.00006
 046,-0.00005829,-0.00001444,-0.00002652,0.00002206,-0.00000477,-0.0000
 0414,0.00001068,0.00000529,0.00001034,0.00000213,-0.00000333,-0.000001
 08,0.00000423,-0.00000265,-0.00000901,0.00000343,0.00002325,0.00005419
 ,-0.00001975,-0.00030615,0.00023810,0.00000736,-0.00007766,-0.00046763
 ,-0.00037369,0.00126572,0.00790584,-0.00047915,-0.01593256,0.13129110,
 -0.03298580,-0.00830456,0.02760424,-0.00666599,-0.00191996,-0.00083109
 ,-0.00154061,-0.00010206,0.00079904,0.00052596,0.00006654,0.00001879,-
 0.00004328,-0.00004646,-0.00007537,0.00007110,0.00009667,-0.00003889,0
 .00010672,0.00006004,0.00047682,-0.00017358,0.00419873,-0.03387392,0.0
 0979902,-0.00190859,0.00043163,-0.00309659,0.00145321,-0.00048056,0.00
 242545,0.00031441,-0.00036798,-0.00033035,0.00000100,-0.00009455,-0.00
 004986,0.02033915,-0.13279287,0.03283620\\-0.02703052,0.00238270,0.009
 30605,-0.08868940,-0.10130123,-0.05984036,-0.04021804,0.06332827,-0.10
 485861,-0.01011130,-0.00435660,-0.00395869,0.07171313,0.02450545,-0.10
 946679,0.04609140,0.12632839,-0.01368001,0.11046899,-0.04500282,0.0181
 0507,0.10557357,-0.01985681,0.03040959,0.00156686,0.03910111,0.1057817
 7,0.04238853,-0.10742909,-0.00527341,0.04433320,-0.03925653,0.09397554
 ,-0.10706210,0.02703793,0.01651024,-0.10391486,-0.03393743,-0.03401809
 ,0.06291084,-0.08923336,0.02838615,-0.10019426,0.02517944,-0.02002395,
 0.10606824,0.07649631,0.06281346,-0.06002735,0.04831353,0.10260465,0.0
 0649964,0.00550556,0.00396665,-0.03202647,-0.06326619,0.11228127,-0.12
 676181,-0.04402326,0.00297295,-0.00032602,0.02488972,-0.00393636,0.034
 78147,-0.10759484,-0.01832792,0.01081677,-0.10767373,-0.03005594,-0.11
 197194,0.03616588,-0.01548759,-0.03770310,0.00042688,-0.10629565,0.103
 40565,-0.05008258,0.00733625,0.03786485,-0.05130709,-0.08979783,0.0875
 2678,-0.06446405,-0.02516934,0.03600789,0.10453842,0.03458374,-0.01767
 902,0.10277050,0.01928281,-0.02650449,0.11341200,0.01427078,-0.0177971
 2,0.10840351,-0.02239643\\\@
 The archive entry for this job was punched.

 Writing a WFNX file to "TUYHUQ_Complex_2_Ligand_0_NN_Cu_oriented.wfx"


 UNDER MOST GREENE GRASSE LY MOST GREATE SNAKES.
 -- PROVERBS AND REASONS OF THE YEAR 1585
           AS REPRINTED IN PAISLEY MAGAZINE 1828.
 Job cpu time:       0 days  0 hours 45 minutes 42.7 seconds.
 Elapsed time:       0 days  0 hours 45 minutes 52.8 seconds.
 File lengths (MBytes):  RWF=    476 Int=      0 D2E=      0 Chk=     12 Scr=      8
 Normal termination of Gaussian 16 at Sat Mar  4 12:23:52 2023.
