 Entering Gaussian System, Link 0=g16
 Initial command:
 /ssoft/spack/external/gaussian/g16-C.01/avx2/g16/l1.exe "/scratch/lcmd/2316165/Gau-1366487.inp" -scrdir="/scratch/lcmd/2316165/"
 Entering Link 1 = /ssoft/spack/external/gaussian/g16-C.01/avx2/g16/l1.exe PID=   1366492.
  
 Copyright (c) 1988-2019, Gaussian, Inc.  All Rights Reserved.
  
 This is part of the Gaussian(R) 16 program.  It is based on
 the Gaussian(R) 09 system (copyright 2009, Gaussian, Inc.),
 the Gaussian(R) 03 system (copyright 2003, Gaussian, Inc.),
 the Gaussian(R) 98 system (copyright 1998, Gaussian, Inc.),
 the Gaussian(R) 94 system (copyright 1995, Gaussian, Inc.),
 the Gaussian 92(TM) system (copyright 1992, Gaussian, Inc.),
 the Gaussian 90(TM) system (copyright 1990, Gaussian, Inc.),
 the Gaussian 88(TM) system (copyright 1988, Gaussian, Inc.),
 the Gaussian 86(TM) system (copyright 1986, Carnegie Mellon
 University), and the Gaussian 82(TM) system (copyright 1983,
 Carnegie Mellon University). Gaussian is a federally registered
 trademark of Gaussian, Inc.
  
 This software contains proprietary and confidential information,
 including trade secrets, belonging to Gaussian, Inc.
  
 This software is provided under written license and may be
 used, copied, transmitted, or stored only in accord with that
 written license.
  
 The following legend is applicable only to US Government
 contracts under FAR:
  
                    RESTRICTED RIGHTS LEGEND
  
 Use, reproduction and disclosure by the US Government is
 subject to restrictions as set forth in subparagraphs (a)
 and (c) of the Commercial Computer Software - Restricted
 Rights clause in FAR 52.227-19.
  
 Gaussian, Inc.
 340 Quinnipiac St., Bldg. 40, Wallingford CT 06492
  
  
 ---------------------------------------------------------------
 Warning -- This program may not be used in any manner that
 competes with the business of Gaussian, Inc. or will provide
 assistance to any competitor of Gaussian, Inc.  The licensee
 of this program is prohibited from giving any competitor of
 Gaussian, Inc. access to this program.  By using this program,
 the user acknowledges that Gaussian, Inc. is engaged in the
 business of creating and licensing software in the field of
 computational chemistry and represents and warrants to the
 licensee that it is not a competitor of Gaussian, Inc. and that
 it will not use this program in any manner prohibited above.
 ---------------------------------------------------------------
  

 Cite this work as:
 Gaussian 16, Revision C.01,
 M. J. Frisch, G. W. Trucks, H. B. Schlegel, G. E. Scuseria, 
 M. A. Robb, J. R. Cheeseman, G. Scalmani, V. Barone, 
 G. A. Petersson, H. Nakatsuji, X. Li, M. Caricato, A. V. Marenich, 
 J. Bloino, B. G. Janesko, R. Gomperts, B. Mennucci, H. P. Hratchian, 
 J. V. Ortiz, A. F. Izmaylov, J. L. Sonnenberg, D. Williams-Young, 
 F. Ding, F. Lipparini, F. Egidi, J. Goings, B. Peng, A. Petrone, 
 T. Henderson, D. Ranasinghe, V. G. Zakrzewski, J. Gao, N. Rega, 
 G. Zheng, W. Liang, M. Hada, M. Ehara, K. Toyota, R. Fukuda, 
 J. Hasegawa, M. Ishida, T. Nakajima, Y. Honda, O. Kitao, H. Nakai, 
 T. Vreven, K. Throssell, J. A. Montgomery, Jr., J. E. Peralta, 
 F. Ogliaro, M. J. Bearpark, J. J. Heyd, E. N. Brothers, K. N. Kudin, 
 V. N. Staroverov, T. A. Keith, R. Kobayashi, J. Normand, 
 K. Raghavachari, A. P. Rendell, J. C. Burant, S. S. Iyengar, 
 J. Tomasi, M. Cossi, J. M. Millam, M. Klene, C. Adamo, R. Cammi, 
 J. W. Ochterski, R. L. Martin, K. Morokuma, O. Farkas, 
 J. B. Foresman, and D. J. Fox, Gaussian, Inc., Wallingford CT, 2019.
 
 ******************************************
 Gaussian 16:  ES64L-G16RevC.01  3-Jul-2019
                 4-Mar-2023 
 ******************************************
 %nprocshared=1
 Will use up to    1 processors via shared memory.
 %mem=8000MB
 %chk=TUYJAY_Complex_3_Ligand_0_NN_Cu_oriented.chk
 ----------------------------------------------------------------------
 #p pop=(regular,nbo,savenbos) freq=noraman def2svp empiricaldispersion
 =gd3bj output=wfx pbe1pbe
 ----------------------------------------------------------------------
 1/10=4,30=1,38=1/1,3;
 2/12=2,17=6,18=5,40=1/2;
 3/5=43,7=101,11=2,25=1,30=1,71=2,74=-13,124=41,140=1/1,2,3;
 4//1;
 5/5=2,38=5,98=1/2;
 8/6=4,10=90,11=11/1;
 11/6=1,8=1,9=11,15=111,16=1/1,2,10;
 10/6=1/2;
 6/28=1,40=1,73=1/1,7;
 7/8=1,10=1,25=1/1,2,3,16;
 1/10=4,30=1/3;
 99/6=200/99;
 Leave Link    1 at Sat Mar  4 11:37:58 2023, MaxMem=  1048576000 cpu:               0.0 elap:               0.1
 (Enter /ssoft/spack/external/gaussian/g16-C.01/avx2/g16/l101.exe)
 ----------------------------------------
 TUYJAY_Complex_3_Ligand_0_NN_Cu_oriented
 ----------------------------------------
 Symbolic Z-matrix:
 Charge =  0 Multiplicity = 1
 N                     2.99544   0.80967  -2.16734 
 C                     2.10336   0.19672  -3.15755 
 C                     0.9868    1.1482   -3.48577 
 N                     0.20706   1.39406  -2.2606 
 C                    -0.96343   2.21627  -2.58915 
 C                    -1.82601   2.3964   -1.34666 
 N                     0.23299   2.08152   0. 
 C                     1.50122   1.50654   2.05363 
 C                     2.50849   0.58209   1.38086 
 N                     2.08922   0.19507   0. 
 C                     2.98506  -0.9026   -0.5096 
 C                     3.86541  -0.21728  -1.55193 
 C                     2.31472   1.34132  -0.98021 
 C                     1.0265    2.08488  -1.26455 
 H                     1.72948  -0.64539  -2.79576 
 H                     2.61267  -0.01788  -3.97902 
 H                     1.3573    2.00113  -3.82839 
 H                     0.41781   0.76393  -4.27095 
 H                    -1.49175   1.77835  -3.30292 
 H                    -2.2371    1.52941  -1.1015 
 H                     3.38798   1.03588   1.33876 
 H                     2.61585  -0.23588   1.92888 
 H                     2.45411  -1.63018  -0.9193 
 H                     3.53458  -1.27969   0.22367 
 H                     4.65485   0.20125  -1.12404 
 H                     4.17575  -0.86665  -2.2309 
 H                     2.94011   1.98694  -0.54302 
 C                     0.9814    2.62891   1.17002 
 H                     0.38477   3.21461   1.69815 
 H                     1.74217   3.17466   0.84886 
 C                    -1.00483   2.90421  -0.19966 
 H                    -1.54878   2.88206   0.62776 
 H                    -0.74961   3.84413  -0.3715 
 H                    -0.66824   3.10158  -2.9229 
 H                     0.73134   0.96516   2.36034 
 H                     1.92516   1.90577   2.85457 
 H                    -2.55557   3.03766  -1.54024 
 H                     1.21834   3.02205  -1.55722 
 
 ITRead=  0  0  0  0  0  0  0  0  0  0  0  0  0  0  0  0  0  0  0  0
 ITRead=  0  0  0  0  0  0  0  0  0  0  0  0  0  0  0  0  0  0
 MicOpt= -1 -1 -1 -1 -1 -1 -1 -1 -1 -1 -1 -1 -1 -1 -1 -1 -1 -1 -1 -1
 MicOpt= -1 -1 -1 -1 -1 -1 -1 -1 -1 -1 -1 -1 -1 -1 -1 -1 -1 -1
 NAtoms=     38 NQM=       38 NQMF=       0 NMMI=      0 NMMIF=      0
                NMic=       0 NMicF=      0.
                    Isotopes and Nuclear Properties:
 (Nuclear quadrupole moments (NQMom) in fm**2, nuclear magnetic moments (NMagM)
  in nuclear magnetons)

  Atom         1           2           3           4           5           6           7           8           9          10
 IAtWgt=          14          12          12          14          12          12          14          12          12          14
 AtmWgt=  14.0030740  12.0000000  12.0000000  14.0030740  12.0000000  12.0000000  14.0030740  12.0000000  12.0000000  14.0030740
 NucSpn=           2           0           0           2           0           0           2           0           0           2
 AtZEff=  -0.0000000  -0.0000000  -0.0000000  -0.0000000  -0.0000000  -0.0000000  -0.0000000  -0.0000000  -0.0000000  -0.0000000
 NQMom=    2.0440000   0.0000000   0.0000000   2.0440000   0.0000000   0.0000000   2.0440000   0.0000000   0.0000000   2.0440000
 NMagM=    0.4037610   0.0000000   0.0000000   0.4037610   0.0000000   0.0000000   0.4037610   0.0000000   0.0000000   0.4037610
 AtZNuc=   7.0000000   6.0000000   6.0000000   7.0000000   6.0000000   6.0000000   7.0000000   6.0000000   6.0000000   7.0000000

  Atom        11          12          13          14          15          16          17          18          19          20
 IAtWgt=          12          12          12          12           1           1           1           1           1           1
 AtmWgt=  12.0000000  12.0000000  12.0000000  12.0000000   1.0078250   1.0078250   1.0078250   1.0078250   1.0078250   1.0078250
 NucSpn=           0           0           0           0           1           1           1           1           1           1
 AtZEff=  -0.0000000  -0.0000000  -0.0000000  -0.0000000  -0.0000000  -0.0000000  -0.0000000  -0.0000000  -0.0000000  -0.0000000
 NQMom=    0.0000000   0.0000000   0.0000000   0.0000000   0.0000000   0.0000000   0.0000000   0.0000000   0.0000000   0.0000000
 NMagM=    0.0000000   0.0000000   0.0000000   0.0000000   2.7928460   2.7928460   2.7928460   2.7928460   2.7928460   2.7928460
 AtZNuc=   6.0000000   6.0000000   6.0000000   6.0000000   1.0000000   1.0000000   1.0000000   1.0000000   1.0000000   1.0000000

  Atom        21          22          23          24          25          26          27          28          29          30
 IAtWgt=           1           1           1           1           1           1           1          12           1           1
 AtmWgt=   1.0078250   1.0078250   1.0078250   1.0078250   1.0078250   1.0078250   1.0078250  12.0000000   1.0078250   1.0078250
 NucSpn=           1           1           1           1           1           1           1           0           1           1
 AtZEff=  -0.0000000  -0.0000000  -0.0000000  -0.0000000  -0.0000000  -0.0000000  -0.0000000  -0.0000000  -0.0000000  -0.0000000
 NQMom=    0.0000000   0.0000000   0.0000000   0.0000000   0.0000000   0.0000000   0.0000000   0.0000000   0.0000000   0.0000000
 NMagM=    2.7928460   2.7928460   2.7928460   2.7928460   2.7928460   2.7928460   2.7928460   0.0000000   2.7928460   2.7928460
 AtZNuc=   1.0000000   1.0000000   1.0000000   1.0000000   1.0000000   1.0000000   1.0000000   6.0000000   1.0000000   1.0000000

  Atom        31          32          33          34          35          36          37          38
 IAtWgt=          12           1           1           1           1           1           1           1
 AtmWgt=  12.0000000   1.0078250   1.0078250   1.0078250   1.0078250   1.0078250   1.0078250   1.0078250
 NucSpn=           0           1           1           1           1           1           1           1
 AtZEff=  -0.0000000  -0.0000000  -0.0000000  -0.0000000  -0.0000000  -0.0000000  -0.0000000  -0.0000000
 NQMom=    0.0000000   0.0000000   0.0000000   0.0000000   0.0000000   0.0000000   0.0000000   0.0000000
 NMagM=    0.0000000   2.7928460   2.7928460   2.7928460   2.7928460   2.7928460   2.7928460   2.7928460
 AtZNuc=   6.0000000   1.0000000   1.0000000   1.0000000   1.0000000   1.0000000   1.0000000   1.0000000
 Leave Link  101 at Sat Mar  4 11:37:58 2023, MaxMem=  1048576000 cpu:               0.1 elap:               0.1
 (Enter /ssoft/spack/external/gaussian/g16-C.01/avx2/g16/l103.exe)

 GradGradGradGradGradGradGradGradGradGradGradGradGradGradGradGradGradGrad
 Berny optimization.
 Initialization pass.
 Trust Radius=3.00D-01 FncErr=1.00D-07 GrdErr=1.00D-07 EigMax=2.50D+02 EigMin=1.00D-04
 Number of steps in this run=      2 maximum allowed number of steps=      2.
 GradGradGradGradGradGradGradGradGradGradGradGradGradGradGradGradGradGrad

 Leave Link  103 at Sat Mar  4 11:37:59 2023, MaxMem=  1048576000 cpu:               0.0 elap:               0.0
 (Enter /ssoft/spack/external/gaussian/g16-C.01/avx2/g16/l202.exe)
                          Input orientation:                          
 ---------------------------------------------------------------------
 Center     Atomic      Atomic             Coordinates (Angstroms)
 Number     Number       Type             X           Y           Z
 ---------------------------------------------------------------------
      1          7           0        2.995439    0.809668   -2.167336
      2          6           0        2.103364    0.196718   -3.157546
      3          6           0        0.986803    1.148196   -3.485765
      4          7           0        0.207060    1.394064   -2.260602
      5          6           0       -0.963430    2.216272   -2.589147
      6          6           0       -1.826008    2.396399   -1.346664
      7          7           0        0.232988    2.081521    0.000000
      8          6           0        1.501225    1.506543    2.053634
      9          6           0        2.508487    0.582088    1.380863
     10          7           0        2.089223    0.195069    0.000000
     11          6           0        2.985055   -0.902598   -0.509597
     12          6           0        3.865414   -0.217279   -1.551931
     13          6           0        2.314717    1.341320   -0.980214
     14          6           0        1.026495    2.084882   -1.264552
     15          1           0        1.729479   -0.645392   -2.795758
     16          1           0        2.612674   -0.017881   -3.979020
     17          1           0        1.357296    2.001131   -3.828392
     18          1           0        0.417810    0.763932   -4.270948
     19          1           0       -1.491745    1.778354   -3.302923
     20          1           0       -2.237104    1.529407   -1.101503
     21          1           0        3.387976    1.035876    1.338762
     22          1           0        2.615849   -0.235884    1.928876
     23          1           0        2.454106   -1.630183   -0.919302
     24          1           0        3.534577   -1.279695    0.223668
     25          1           0        4.654854    0.201249   -1.124044
     26          1           0        4.175751   -0.866650   -2.230895
     27          1           0        2.940106    1.986944   -0.543019
     28          6           0        0.981404    2.628906    1.170020
     29          1           0        0.384773    3.214611    1.698153
     30          1           0        1.742171    3.174661    0.848862
     31          6           0       -1.004828    2.904206   -0.199656
     32          1           0       -1.548782    2.882059    0.627758
     33          1           0       -0.749609    3.844130   -0.371498
     34          1           0       -0.668239    3.101585   -2.922900
     35          1           0        0.731343    0.965162    2.360339
     36          1           0        1.925161    1.905768    2.854567
     37          1           0       -2.555567    3.037659   -1.540237
     38          1           0        1.218345    3.022053   -1.557221
 ---------------------------------------------------------------------
                    Distance matrix (angstroms):
                    1          2          3          4          5
     1  N    0.000000
     2  C    1.466977   0.000000
     3  C    2.426413   1.503245   0.000000
     4  N    2.850486   2.415390   1.472913   0.000000
     5  C    4.222452   3.715763   2.397523   1.467656   0.000000
     6  C    5.141748   4.853643   3.747755   2.444039   1.523237
     7  N    3.734446   4.125637   3.686447   2.362962   2.855391
     8  C    4.531544   5.406903   5.574763   4.505568   5.304116
     9  C    3.588680   4.572722   5.130309   4.383621   5.521389
    10  N    2.428230   3.157578   3.778140   3.176546   4.484153
    11  C    2.383288   2.999585   4.129934   4.007235   5.444485
    12  C    1.479932   2.419548   3.727015   4.059826   5.505971
    13  C    1.468092   2.468918   2.842259   2.466656   3.755057
    14  C    2.513549   2.882401   2.410963   1.463154   2.394079
    15  H    2.028489   0.989863   2.060252   2.600679   3.934916
    16  H    2.028188   0.990086   2.060703   3.276206   4.439787
    17  H    2.619581   2.064596   0.991038   2.037042   2.639656
    18  H    3.327378   2.098210   1.043036   2.117303   2.616404
    19  H    4.728925   3.930332   2.563928   2.029791   0.990135
    20  H    5.388277   4.984279   4.027853   2.708463   2.075359
    21  H    3.535248   4.750915   5.390205   4.816839   5.979677
    22  H    4.244552   5.130446   5.821324   5.100071   6.263932
    23  H    2.793475   2.910382   4.056982   3.999296   5.409542
    24  H    3.220715   3.957370   5.113287   4.938922   6.353407
    25  H    2.052386   3.262706   4.464195   4.743146   6.145889
    26  H    2.051150   2.506835   3.975386   4.567517   6.003660
    27  H    2.006849   3.277315   3.630241   3.281941   4.413255
    28  C    4.301616   5.089416   4.885577   3.727413   4.252526
    29  H    5.247984   5.969844   5.612978   4.360931   4.603832
    30  H    4.032533   5.004989   4.844186   3.898187   4.478693
    31  C    4.925544   5.073505   4.224769   2.827843   2.486892
    32  H    5.723399   5.905738   5.133862   3.693201   3.336823
    33  H    5.143770   5.404177   4.470105   3.238326   2.759277
    34  H    4.387060   4.021826   2.621394   2.029880   0.991114
    35  H    5.064598   5.737595   5.854545   4.670324   5.379121
    36  H    5.250375   6.252848   6.454010   5.420208   6.170444
    37  H    6.014221   5.691420   4.461337   3.294304   2.076003
    38  H    2.902576   3.365533   2.698932   2.041516   2.544463
                    6          7          8          9         10
     6  C    0.000000
     7  N    2.480346   0.000000
     8  C    4.839870   2.481216   0.000000
     9  C    5.433137   3.054992   1.523750   0.000000
    10  N    4.689178   2.646565   2.506615   1.494105   0.000000
    11  C    5.893250   4.091275   3.817835   2.450561   1.505682
    12  C    6.266238   4.570283   4.643388   3.328892   2.394447
    13  C    4.288716   2.417087   3.145362   2.487703   1.524978
    14  C    2.870638   1.492902   3.401500   3.384215   2.509955
    15  H    4.898352   4.182320   5.310322   4.422411   2.941437
    16  H    5.697363   5.089498   6.320767   5.394364   4.018948
    17  H    4.055692   3.990879   5.904537   5.520441   4.295831
    18  H    4.031266   4.473387   6.459535   6.028844   4.621496
    19  H    2.078620   3.738438   6.142024   6.274613   5.122444
    20  H    0.990342   2.760343   4.891882   5.438768   4.659493
    21  H    6.020645   3.583239   2.071810   0.990553   2.045971
    22  H    6.114587   3.843040   2.072198   0.990416   2.045390
    23  H    5.891976   4.422129   4.425537   3.191843   2.076006
    24  H    6.686963   4.716809   3.904666   2.420371   2.077018
    25  H    6.846153   4.934753   4.663347   3.320615   2.801066
    26  H    6.888430   5.404996   5.580531   4.233604   3.233843
    27  H    4.850706   2.762662   3.007286   2.420999   2.056621
    28  C    3.777475   1.492884   1.520094   2.562401   2.918865
    29  H    3.850706   2.047109   2.071310   3.397206   3.860895
    30  H    4.261212   2.047720   2.071750   2.755304   3.117528
    31  C    1.499277   1.499621   3.648435   4.498183   4.117333
    32  H    2.052087   2.051742   3.636991   4.724242   4.566078
    33  H    2.050734   2.051901   4.051151   4.932228   4.638170
    34  H    2.078999   3.224296   5.658323   5.912853   4.959312
    35  H    4.725500   2.658160   0.989889   2.065033   2.829856
    36  H    5.653523   3.323084   0.990250   2.064994   3.331960
    37  H    0.990424   3.326044   5.631854   6.340922   5.659215
    38  H    3.115102   2.068928   3.926202   4.031157   3.342933
                   11         12         13         14         15
    11  C    0.000000
    12  C    1.526812   0.000000
    13  C    2.388724   2.271729   0.000000
    14  C    3.651158   3.666332   1.514347   0.000000
    15  H    2.620908   2.508506   2.754219   3.208297   0.000000
    16  H    3.599762   2.738590   3.305910   3.782316   1.604341
    17  H    4.700601   4.048984   3.076382   2.586449   2.865124
    18  H    4.849313   4.499089   3.841947   3.339734   2.425460
    19  H    5.918777   5.978936   4.480528   3.254298   4.063010
    20  H    5.791024   6.363531   4.557320   3.314547   4.830532
    21  H    2.708589   3.186605   2.573486   3.668003   4.761462
    22  H    2.554794   3.698348   3.322809   4.255583   4.824470
    23  H    0.989518   2.094829   2.975394   3.994869   2.239639
    24  H    0.990885   2.095455   3.131630   4.452600   3.574584
    25  H    2.093860   0.990691   2.607046   4.090575   3.474082
    26  H    2.093303   0.989436   3.146868   4.423027   2.520371
    27  H    2.890085   2.594744   0.999541   2.047464   3.670101
    28  C    4.394002   4.881321   2.838857   2.495022   5.196925
    29  H    5.346685   5.869904   3.795729   3.235076   6.074791
    30  H    4.473725   4.666608   2.652258   2.483210   5.279794
    31  C    5.523313   5.940671   3.751168   2.435481   5.178399
    32  H    6.014390   6.608362   4.459380   3.293688   5.908499
    33  H    6.041375   6.259944   4.003085   2.654627   5.672629
    34  H    5.933302   5.783461   3.971220   2.579908   4.450287
    35  H    4.099303   5.150381   3.715894   3.805355   5.493223
    36  H    4.508647   5.262047   3.895626   4.219813   6.202651
    37  H    6.876506   7.198871   5.187567   3.716847   5.788161
    38  H    4.429635   4.183333   2.088021   1.000375   3.904533
                   16         17         18         19         20
    16  H    0.000000
    17  H    2.382241   0.000000
    18  H    2.348166   1.615287   0.000000
    19  H    4.530985   2.905647   2.369077   0.000000
    20  H    5.847611   4.536316   4.204748   2.337474   0.000000
    21  H    5.476340   5.635145   6.353321   6.775559   6.151422
    22  H    5.911918   6.303518   6.653482   6.949907   5.987538
    23  H    3.462157   4.780402   4.594760   5.733194   5.658945
    24  H    4.483822   5.650094   5.838854   6.859477   6.554345
    25  H    3.517016   4.628927   5.307745   6.709356   7.018803
    26  H    2.493904   4.326644   4.576323   6.345534   6.938395
    27  H    3.991570   3.646802   4.664246   5.225121   5.227309
    28  C    6.014909   5.051685   5.779264   5.181421   4.089927
    29  H    6.902379   5.741171   6.452681   5.531268   4.189538
    30  H    5.853080   4.837563   5.811885   5.444742   4.727094
    31  C    5.992370   4.422997   4.814570   3.336900   2.054727
    32  H    6.851990   5.392457   5.687817   4.083096   2.300825
    33  H    6.263728   4.448124   5.104527   3.662165   2.846663
    34  H    4.648747   2.476632   2.908841   1.604220   2.872380
    35  H    6.685301   6.305985   6.641744   6.138073   4.595041
    36  H    7.132391   6.707720   7.372168   7.043164   5.754701
    37  H    6.480332   4.649789   4.633312   2.413427   1.602725
    38  H    4.129220   2.493954   3.619983   3.455265   3.791543
                   21         22         23         24         25
    21  H    0.000000
    22  H    1.600558   0.000000
    23  H    3.616467   3.175272   0.000000
    24  H    2.574256   2.200304   1.611409   0.000000
    25  H    2.892576   3.697154   2.870427   2.294459   0.000000
    26  H    4.121001   4.487188   2.295064   2.570329   1.610921
    27  H    2.155509   3.340116   3.668977   3.407658   2.542962
    28  C    2.890987   3.384419   4.967288   4.763553   4.964925
    29  H    3.727637   4.115440   5.882622   5.682795   5.939591
    30  H    2.742823   3.682603   5.169118   4.841991   4.606220
    31  C    5.015387   5.244055   5.748286   6.187926   6.339753
    32  H    5.318410   5.362707   6.227104   6.582098   6.981450
    33  H    5.284968   5.767542   6.366473   6.705375   6.560878
    34  H    6.235527   6.742675   6.012742   6.838140   6.323223
    35  H    2.847160   2.275969   4.523248   4.178860   5.302681
    36  H    2.279080   2.433234   5.198540   4.433850   5.117221
    37  H    6.900831   7.035224   6.875400   7.670773   7.759420
    38  H    4.127822   4.971925   4.855650   5.200147   4.467009
                   26         27         28         29         30
    26  H    0.000000
    27  H    3.538183   0.000000
    28  C    5.830007   2.680137   0.000000
    29  H    6.816570   3.613828   0.988911   0.000000
    30  H    5.633774   2.187020   0.989827   1.601693   0.000000
    31  C    6.721881   4.064699   2.428357   2.372556   2.952717
    32  H    7.415860   4.724623   2.599995   2.234943   3.311325
    33  H    7.064557   4.134314   2.617145   2.442657   2.854196
    34  H    6.299999   4.463901   4.438101   4.740859   4.476785
    35  H    6.024858   3.788425   2.060930   2.370363   2.861507
    36  H    6.213967   3.546871   2.061869   2.328767   2.380425
    37  H    7.812251   5.683385   4.474677   4.377680   4.919056
    38  H    4.931743   2.250448   2.765600   3.365914   2.467168
                   31         32         33         34         35
    31  C    0.000000
    32  H    0.990450   0.000000
    33  H    0.989002   1.600866   0.000000
    34  H    2.751056   3.664795   2.658505   0.000000
    35  H    3.650720   3.446055   4.236107   5.868198   0.000000
    36  H    4.348561   4.240294   4.617264   6.444751   1.598187
    37  H    2.054205   2.395419   2.297353   2.340481   5.505771
    38  H    2.607560   3.528558   2.440203   2.330366   4.451432
                   36         37         38
    36  H    0.000000
    37  H    6.377491   0.000000
    38  H    4.605382   3.773982   0.000000
 Stoichiometry    C12H22N4
 Framework group  C1[X(C12H22N4)]
 Deg. of freedom   108
 Full point group                 C1      NOp   1
 Largest Abelian subgroup         C1      NOp   1
 Largest concise Abelian subgroup C1      NOp   1
                         Standard orientation:                         
 ---------------------------------------------------------------------
 Center     Atomic      Atomic             Coordinates (Angstroms)
 Number     Number       Type             X           Y           Z
 ---------------------------------------------------------------------
      1          7           0        1.611031   -1.303472   -0.731854
      2          6           0        1.093512   -2.387693    0.109967
      3          6           0       -0.381991   -2.548798   -0.128111
      4          7           0       -1.058196   -1.301801    0.268395
      5          6           0       -2.510702   -1.485845    0.166567
      6          6           0       -3.220341   -0.233454    0.664743
      7          7           0       -1.194819    1.043932    0.018473
      8          6           0        0.366140    2.970056    0.117911
      9          6           0        1.644044    2.149785    0.244135
     10          7           0        1.369906    0.721477    0.586381
     11          6           0        2.660492    0.031478    0.940451
     12          6           0        2.944754   -0.873375   -0.256041
     13          6           0        0.863420   -0.043993   -0.631439
     14          6           0       -0.642656   -0.198508   -0.598144
     15          1           0        1.257423   -2.178817    1.063557
     16          1           0        1.561879   -3.232489   -0.107337
     17          1           0       -0.552752   -2.736934   -1.086027
     18          1           0       -0.729609   -3.390443    0.380533
     19          1           0       -2.789092   -2.266377    0.708450
     20          1           0       -3.085239   -0.143861    1.641728
     21          1           0        2.141312    2.189710   -0.611626
     22          1           0        2.217888    2.547633    0.946519
     23          1           0        2.561053   -0.499952    1.769209
     24          1           0        3.390401    0.689640    1.066576
     25          1           0        3.427564   -0.377000   -0.964542
     26          1           0        3.488705   -1.653952    0.015622
     27          1           0        1.088420    0.500538   -1.438869
     28          6           0       -0.747320    2.293419   -0.665068
     29          1           0       -1.512660    2.913574   -0.752288
     30          1           0       -0.424290    2.074174   -1.574650
     31          6           0       -2.692611    0.986704   -0.028472
     32          1           0       -3.064198    1.796113    0.404854
     33          1           0       -2.991115    0.981539   -0.971337
     34          1           0       -2.761305   -1.659833   -0.776425
     35          1           0        0.031791    3.175804    1.026623
     36          1           0        0.584957    3.829394   -0.322832
     37          1           0       -4.192898   -0.314753    0.496034
     38          1           0       -1.004132   -0.323322   -1.522539
 ---------------------------------------------------------------------
 Rotational constants (GHZ):           0.7679668           0.6037164           0.3722617
 Leave Link  202 at Sat Mar  4 11:37:59 2023, MaxMem=  1048576000 cpu:               0.0 elap:               0.0
 (Enter /ssoft/spack/external/gaussian/g16-C.01/avx2/g16/l301.exe)
 Standard basis: def2SVP (5D, 7F)
 Ernie: Thresh=  0.10000D-02 Tol=  0.10000D-05 Strict=F.
 There are   350 symmetry adapted cartesian basis functions of A   symmetry.
 There are   334 symmetry adapted basis functions of A   symmetry.
   334 basis functions,   554 primitive gaussians,   350 cartesian basis functions
    61 alpha electrons       61 beta electrons
       nuclear repulsion energy      1296.9136610838 Hartrees.
 IExCor= 1009 DFT=T Ex+Corr=PBE1PBE ExCW=0 ScaHFX=  0.250000
 ScaDFX=  0.750000  0.750000  1.000000  1.000000 ScalE2=  1.000000  1.000000
 IRadAn=      5 IRanWt=     -1 IRanGd=            0 ICorTp=0 IEmpDi=141
 NAtoms=   38 NActive=   38 NUniq=   38 SFac= 1.00D+00 NAtFMM=   60 NAOKFM=F Big=F
 Integral buffers will be    131072 words long.
 Raffenetti 2 integral format.
 Two-electron integral symmetry is turned on.
 R6Disp:  Grimme-D3(BJ) Dispersion energy=       -0.0434368769 Hartrees.
 Nuclear repulsion after empirical dispersion term =     1296.8702242069 Hartrees.
 Leave Link  301 at Sat Mar  4 11:37:59 2023, MaxMem=  1048576000 cpu:               0.1 elap:               0.1
 (Enter /ssoft/spack/external/gaussian/g16-C.01/avx2/g16/l302.exe)
 NPDir=0 NMtPBC=     1 NCelOv=     1 NCel=       1 NClECP=     1 NCelD=      1
         NCelK=      1 NCelE2=     1 NClLst=     1 CellRange=     0.0.
 One-electron integrals computed using PRISM.
 One-electron integral symmetry used in STVInt
   1 Symmetry operations used in ECPInt.
 ECPInt:  NShTT=   13203 NPrTT=   46027 LenC2=   12924 LenP2D=   33957.
 LDataN:  DoStor=T MaxTD1= 4 Len=   56
 NBasis=   334 RedAO= T EigKep=  5.66D-04  NBF=   334
 NBsUse=   334 1.00D-06 EigRej= -1.00D+00 NBFU=   334
 Precomputing XC quadrature grid using
 IXCGrd= 4 IRadAn=           5 IRanWt=          -1 IRanGd=           0 AccXCQ= 0.00D+00.
 Generated NRdTot=       0 NPtTot=           0 NUsed=           0 NTot=          32
 NSgBfM=   349   349   349   349   349 MxSgAt=    38 MxSgA2=    38.
 Leave Link  302 at Sat Mar  4 11:38:00 2023, MaxMem=  1048576000 cpu:               1.4 elap:               1.4
 (Enter /ssoft/spack/external/gaussian/g16-C.01/avx2/g16/l303.exe)
 DipDrv:  MaxL=1.
 Leave Link  303 at Sat Mar  4 11:38:00 2023, MaxMem=  1048576000 cpu:               0.1 elap:               0.1
 (Enter /ssoft/spack/external/gaussian/g16-C.01/avx2/g16/l401.exe)
 ExpMin= 1.22D-01 ExpMax= 1.71D+03 ExpMxC= 2.58D+02 IAcc=3 IRadAn=         5 AccDes= 0.00D+00
 Harris functional with IExCor= 1009 and IRadAn=       5 diagonalized for initial guess.
 HarFok:  IExCor= 1009 AccDes= 0.00D+00 IRadAn=         5 IDoV= 1 UseB2=F ITyADJ=14
 ICtDFT=  3500011 ScaDFX=  1.000000  1.000000  1.000000  1.000000
 FoFCou: FMM=F IPFlag=           0 FMFlag=      100000 FMFlg1=           0
         NFxFlg=           0 DoJE=T BraDBF=F KetDBF=T FulRan=T
         wScrn=  0.000000 ICntrl=       500 IOpCl=  0 I1Cent=   200000004 NGrid=           0
         NMat0=    1 NMatS0=      1 NMatT0=    0 NMatD0=    1 NMtDS0=    0 NMtDT0=    0
 Petite list used in FoFCou.
 Harris En= -688.275490582789    
 JPrj=0 DoOrth=F DoCkMO=F.
 Leave Link  401 at Sat Mar  4 11:38:12 2023, MaxMem=  1048576000 cpu:              11.9 elap:              12.0
 (Enter /ssoft/spack/external/gaussian/g16-C.01/avx2/g16/l502.exe)
 Integral symmetry usage will be decided dynamically.
 Closed shell SCF:
 Using DIIS extrapolation, IDIIS=  1040.
 NGot=  1048576000 LenX=  1048324086 LenY=  1048201145
 Requested convergence on RMS density matrix=1.00D-08 within 128 cycles.
 Requested convergence on MAX density matrix=1.00D-06.
 Requested convergence on             energy=1.00D-06.
 No special actions if energy rises.
 Fock matrices will be formed incrementally for  20 cycles.
 Integral accuracy reduced to 1.0D-05 until final iterations.

 Cycle   1  Pass 0  IDiag  1:
 FoFJK:  IHMeth= 1 ICntrl=       0 DoSepK=F KAlg= 0 I1Cent=           0 FoldK=F
 IRaf= 930000000 NMat=       1 IRICut=       1 DoRegI=T DoRafI=F ISym2E= 0 IDoP0=0 IntGTp=1.
 FoFCou: FMM=F IPFlag=           0 FMFlag=      100000 FMFlg1=           0
         NFxFlg=           0 DoJE=F BraDBF=F KetDBF=F FulRan=T
         wScrn=  0.000000 ICntrl=         0 IOpCl=  0 I1Cent=           0 NGrid=           0
         NMat0=    1 NMatS0=      1 NMatT0=    0 NMatD0=    1 NMtDS0=    0 NMtDT0=    0
 Symmetry not used in FoFCou.
 E= -687.657362548178    
 DIIS: error= 1.77D-02 at cycle   1 NSaved=   1.
 NSaved= 1 IEnMin= 1 EnMin= -687.657362548178     IErMin= 1 ErrMin= 1.77D-02
 ErrMax= 1.77D-02  0.00D+00 EMaxC= 1.00D-01 BMatC= 3.25D-01 BMatP= 3.25D-01
 IDIUse=3 WtCom= 8.23D-01 WtEn= 1.77D-01
 Coeff-Com:  0.100D+01
 Coeff-En:   0.100D+01
 Coeff:      0.100D+01
 Gap=     0.312 Goal=   None    Shift=    0.000
 GapD=    0.312 DampG=1.000 DampE=0.500 DampFc=0.5000 IDamp=-1.
 Damping current iteration by 5.00D-01
 RMSDP=4.66D-03 MaxDP=1.38D-01              OVMax= 1.38D-01

 Cycle   2  Pass 0  IDiag  1:
 RMSU=  2.28D-03    CP:  9.72D-01
 E= -687.840450684537     Delta-E=       -0.183088136358 Rises=F Damp=T
 DIIS: error= 4.83D-03 at cycle   2 NSaved=   2.
 NSaved= 2 IEnMin= 2 EnMin= -687.840450684537     IErMin= 2 ErrMin= 4.83D-03
 ErrMax= 4.83D-03  0.00D+00 EMaxC= 1.00D-01 BMatC= 1.79D-02 BMatP= 3.25D-01
 IDIUse=3 WtCom= 9.52D-01 WtEn= 4.83D-02
 Coeff-Com: -0.688D-01 0.107D+01
 Coeff-En:   0.000D+00 0.100D+01
 Coeff:     -0.655D-01 0.107D+01
 Gap=     0.285 Goal=   None    Shift=    0.000
 RMSDP=1.26D-03 MaxDP=4.23D-02 DE=-1.83D-01 OVMax= 6.47D-02

 Cycle   3  Pass 0  IDiag  1:
 RMSU=  1.18D-03    CP:  9.56D-01  1.15D+00
 E= -688.015383052675     Delta-E=       -0.174932368138 Rises=F Damp=F
 DIIS: error= 1.79D-03 at cycle   3 NSaved=   3.
 NSaved= 3 IEnMin= 3 EnMin= -688.015383052675     IErMin= 3 ErrMin= 1.79D-03
 ErrMax= 1.79D-03  0.00D+00 EMaxC= 1.00D-01 BMatC= 3.78D-03 BMatP= 1.79D-02
 IDIUse=3 WtCom= 9.82D-01 WtEn= 1.79D-02
 Coeff-Com: -0.556D-01 0.324D+00 0.731D+00
 Coeff-En:   0.000D+00 0.000D+00 0.100D+01
 Coeff:     -0.546D-01 0.318D+00 0.736D+00
 Gap=     0.272 Goal=   None    Shift=    0.000
 RMSDP=3.51D-04 MaxDP=8.56D-03 DE=-1.75D-01 OVMax= 1.12D-02

 Cycle   4  Pass 0  IDiag  1:
 RMSU=  2.71D-04    CP:  9.56D-01  1.19D+00  8.29D-01
 E= -688.018159559723     Delta-E=       -0.002776507048 Rises=F Damp=F
 DIIS: error= 7.27D-04 at cycle   4 NSaved=   4.
 NSaved= 4 IEnMin= 4 EnMin= -688.018159559723     IErMin= 4 ErrMin= 7.27D-04
 ErrMax= 7.27D-04  0.00D+00 EMaxC= 1.00D-01 BMatC= 7.23D-04 BMatP= 3.78D-03
 IDIUse=3 WtCom= 9.93D-01 WtEn= 7.27D-03
 Coeff-Com: -0.222D-01 0.102D+00 0.351D+00 0.568D+00
 Coeff-En:   0.000D+00 0.000D+00 0.453D-01 0.955D+00
 Coeff:     -0.220D-01 0.102D+00 0.349D+00 0.571D+00
 Gap=     0.277 Goal=   None    Shift=    0.000
 RMSDP=1.44D-04 MaxDP=4.18D-03 DE=-2.78D-03 OVMax= 5.21D-03

 Cycle   5  Pass 0  IDiag  1:
 RMSU=  8.00D-05    CP:  9.56D-01  1.17D+00  8.70D-01  6.17D-01
 E= -688.018692787366     Delta-E=       -0.000533227643 Rises=F Damp=F
 DIIS: error= 3.24D-04 at cycle   5 NSaved=   5.
 NSaved= 5 IEnMin= 5 EnMin= -688.018692787366     IErMin= 5 ErrMin= 3.24D-04
 ErrMax= 3.24D-04  0.00D+00 EMaxC= 1.00D-01 BMatC= 1.13D-04 BMatP= 7.23D-04
 IDIUse=3 WtCom= 9.97D-01 WtEn= 3.24D-03
 Coeff-Com: -0.382D-02 0.880D-02 0.858D-01 0.317D+00 0.592D+00
 Coeff-En:   0.000D+00 0.000D+00 0.000D+00 0.115D+00 0.885D+00
 Coeff:     -0.381D-02 0.877D-02 0.855D-01 0.317D+00 0.593D+00
 Gap=     0.275 Goal=   None    Shift=    0.000
 RMSDP=4.03D-05 MaxDP=1.54D-03 DE=-5.33D-04 OVMax= 1.57D-03

 Cycle   6  Pass 0  IDiag  1:
 RMSU=  1.40D-05    CP:  9.56D-01  1.18D+00  8.68D-01  6.82D-01  6.17D-01
 E= -688.018786669860     Delta-E=       -0.000093882494 Rises=F Damp=F
 DIIS: error= 3.77D-05 at cycle   6 NSaved=   6.
 NSaved= 6 IEnMin= 6 EnMin= -688.018786669860     IErMin= 6 ErrMin= 3.77D-05
 ErrMax= 3.77D-05  0.00D+00 EMaxC= 1.00D-01 BMatC= 2.24D-06 BMatP= 1.13D-04
 IDIUse=1 WtCom= 1.00D+00 WtEn= 0.00D+00
 Coeff-Com: -0.111D-02 0.129D-02 0.287D-01 0.127D+00 0.265D+00 0.579D+00
 Coeff:     -0.111D-02 0.129D-02 0.287D-01 0.127D+00 0.265D+00 0.579D+00
 Gap=     0.276 Goal=   None    Shift=    0.000
 RMSDP=6.98D-06 MaxDP=2.20D-04 DE=-9.39D-05 OVMax= 2.88D-04

 Initial convergence to 1.0D-05 achieved.  Increase integral accuracy.
 Cycle   7  Pass 1  IDiag  1:
 E= -688.018765949121     Delta-E=        0.000020720739 Rises=F Damp=F
 DIIS: error= 6.33D-05 at cycle   1 NSaved=   1.
 NSaved= 1 IEnMin= 1 EnMin= -688.018765949121     IErMin= 1 ErrMin= 6.33D-05
 ErrMax= 6.33D-05  0.00D+00 EMaxC= 1.00D-01 BMatC= 8.90D-07 BMatP= 8.90D-07
 IDIUse=1 WtCom= 1.00D+00 WtEn= 0.00D+00
 Coeff-Com:  0.100D+01
 Coeff:      0.100D+01
 Gap=     0.275 Goal=   None    Shift=    0.000
 RMSDP=6.98D-06 MaxDP=2.20D-04 DE= 2.07D-05 OVMax= 1.88D-04

 Cycle   8  Pass 1  IDiag  1:
 RMSU=  3.02D-05    CP:  1.00D+00
 E= -688.018766375160     Delta-E=       -0.000000426039 Rises=F Damp=F
 DIIS: error= 2.24D-05 at cycle   2 NSaved=   2.
 NSaved= 2 IEnMin= 2 EnMin= -688.018766375160     IErMin= 2 ErrMin= 2.24D-05
 ErrMax= 2.24D-05  0.00D+00 EMaxC= 1.00D-01 BMatC= 4.57D-07 BMatP= 8.90D-07
 IDIUse=1 WtCom= 1.00D+00 WtEn= 0.00D+00
 Coeff-Com:  0.389D+00 0.611D+00
 Coeff:      0.389D+00 0.611D+00
 Gap=     0.276 Goal=   None    Shift=    0.000
 RMSDP=4.03D-06 MaxDP=1.30D-04 DE=-4.26D-07 OVMax= 1.69D-04

 Cycle   9  Pass 1  IDiag  1:
 RMSU=  4.01D-06    CP:  1.00D+00  9.89D-01
 E= -688.018766655817     Delta-E=       -0.000000280657 Rises=F Damp=F
 DIIS: error= 1.33D-05 at cycle   3 NSaved=   3.
 NSaved= 3 IEnMin= 3 EnMin= -688.018766655817     IErMin= 3 ErrMin= 1.33D-05
 ErrMax= 1.33D-05  0.00D+00 EMaxC= 1.00D-01 BMatC= 1.37D-07 BMatP= 4.57D-07
 IDIUse=1 WtCom= 1.00D+00 WtEn= 0.00D+00
 Coeff-Com:  0.540D-02 0.353D+00 0.642D+00
 Coeff:      0.540D-02 0.353D+00 0.642D+00
 Gap=     0.275 Goal=   None    Shift=    0.000
 RMSDP=1.52D-06 MaxDP=5.67D-05 DE=-2.81D-07 OVMax= 6.76D-05

 Cycle  10  Pass 1  IDiag  1:
 RMSU=  4.23D-07    CP:  1.00D+00  1.01D+00  6.58D-01
 E= -688.018766770341     Delta-E=       -0.000000114524 Rises=F Damp=F
 DIIS: error= 1.25D-06 at cycle   4 NSaved=   4.
 NSaved= 4 IEnMin= 4 EnMin= -688.018766770341     IErMin= 4 ErrMin= 1.25D-06
 ErrMax= 1.25D-06  0.00D+00 EMaxC= 1.00D-01 BMatC= 3.45D-09 BMatP= 1.37D-07
 IDIUse=1 WtCom= 1.00D+00 WtEn= 0.00D+00
 Coeff-Com: -0.340D-02 0.180D+00 0.345D+00 0.478D+00
 Coeff:     -0.340D-02 0.180D+00 0.345D+00 0.478D+00
 Gap=     0.275 Goal=   None    Shift=    0.000
 RMSDP=2.26D-07 MaxDP=8.02D-06 DE=-1.15D-07 OVMax= 8.11D-06

 Cycle  11  Pass 1  IDiag  1:
 RMSU=  1.29D-07    CP:  1.00D+00  1.01D+00  6.70D-01  5.81D-01
 E= -688.018766773338     Delta-E=       -0.000000002997 Rises=F Damp=F
 DIIS: error= 2.55D-07 at cycle   5 NSaved=   5.
 NSaved= 5 IEnMin= 5 EnMin= -688.018766773338     IErMin= 5 ErrMin= 2.55D-07
 ErrMax= 2.55D-07  0.00D+00 EMaxC= 1.00D-01 BMatC= 8.96D-11 BMatP= 3.45D-09
 IDIUse=1 WtCom= 1.00D+00 WtEn= 0.00D+00
 Coeff-Com: -0.187D-02 0.722D-01 0.139D+00 0.231D+00 0.560D+00
 Coeff:     -0.187D-02 0.722D-01 0.139D+00 0.231D+00 0.560D+00
 Gap=     0.275 Goal=   None    Shift=    0.000
 RMSDP=4.84D-08 MaxDP=1.63D-06 DE=-3.00D-09 OVMax= 1.79D-06

 Cycle  12  Pass 1  IDiag  1:
 RMSU=  3.83D-08    CP:  1.00D+00  1.01D+00  6.68D-01  5.96D-01  7.91D-01
 E= -688.018766773415     Delta-E=       -0.000000000077 Rises=F Damp=F
 DIIS: error= 6.06D-08 at cycle   6 NSaved=   6.
 NSaved= 6 IEnMin= 6 EnMin= -688.018766773415     IErMin= 6 ErrMin= 6.06D-08
 ErrMax= 6.06D-08  0.00D+00 EMaxC= 1.00D-01 BMatC= 5.69D-12 BMatP= 8.96D-11
 IDIUse=1 WtCom= 1.00D+00 WtEn= 0.00D+00
 Coeff-Com: -0.627D-03 0.210D-01 0.401D-01 0.741D-01 0.259D+00 0.607D+00
 Coeff:     -0.627D-03 0.210D-01 0.401D-01 0.741D-01 0.259D+00 0.607D+00
 Gap=     0.275 Goal=   None    Shift=    0.000
 RMSDP=1.12D-08 MaxDP=3.90D-07 DE=-7.73D-11 OVMax= 4.95D-07

 Cycle  13  Pass 1  IDiag  1:
 RMSU=  9.18D-09    CP:  1.00D+00  1.01D+00  6.68D-01  5.98D-01  8.24D-01
                    CP:  8.79D-01
 E= -688.018766773435     Delta-E=       -0.000000000020 Rises=F Damp=F
 DIIS: error= 1.37D-08 at cycle   7 NSaved=   7.
 NSaved= 7 IEnMin= 7 EnMin= -688.018766773435     IErMin= 7 ErrMin= 1.37D-08
 ErrMax= 1.37D-08  0.00D+00 EMaxC= 1.00D-01 BMatC= 2.99D-13 BMatP= 5.69D-12
 IDIUse=1 WtCom= 1.00D+00 WtEn= 0.00D+00
 Coeff-Com:  0.133D-04-0.156D-02-0.324D-02-0.255D-02 0.172D-01 0.202D+00
 Coeff-Com:  0.788D+00
 Coeff:      0.133D-04-0.156D-02-0.324D-02-0.255D-02 0.172D-01 0.202D+00
 Coeff:      0.788D+00
 Gap=     0.275 Goal=   None    Shift=    0.000
 RMSDP=3.31D-09 MaxDP=9.91D-08 DE=-2.00D-11 OVMax= 1.22D-07

 SCF Done:  E(RPBE1PBE) =  -688.018766773     A.U. after   13 cycles
            NFock= 13  Conv=0.33D-08     -V/T= 2.0055
 KE= 6.842336409575D+02 PE=-4.192387078086D+03 EE= 1.523264446148D+03
 Leave Link  502 at Sat Mar  4 11:44:23 2023, MaxMem=  1048576000 cpu:             369.5 elap:             371.0
 (Enter /ssoft/spack/external/gaussian/g16-C.01/avx2/g16/l801.exe)
 DoSCS=F DFT=T ScalE2(SS,OS)=  1.000000  1.000000
 Range of M.O.s used for correlation:     1   334
 NBasis=   334 NAE=    61 NBE=    61 NFC=     0 NFV=     0
 NROrb=    334 NOA=    61 NOB=    61 NVA=   273 NVB=   273

 **** Warning!!: The largest alpha MO coefficient is  0.11760219D+02

 Leave Link  801 at Sat Mar  4 11:44:23 2023, MaxMem=  1048576000 cpu:               0.0 elap:               0.0
 (Enter /ssoft/spack/external/gaussian/g16-C.01/avx2/g16/l1101.exe)
 Using compressed storage, NAtomX=    38.
 Will process     39 centers per pass.
   1 Symmetry operations used in ECPInt.
 ECPInt:  NShTT=   13203 NPrTT=   46027 LenC2=   12924 LenP2D=   33957.
 LDataN:  DoStor=T MaxTD1= 5 Len=  102
 R6Disp: Adding Grimme-D3(BJ) dispersion energy 1st derivatives to the gradient.
 Leave Link 1101 at Sat Mar  4 11:44:24 2023, MaxMem=  1048576000 cpu:               0.7 elap:               0.7
 (Enter /ssoft/spack/external/gaussian/g16-C.01/avx2/g16/l1102.exe)
 Symmetrizing basis deriv contribution to polar:
 IMax=3 JMax=2 DiffMx= 0.00D+00
 Leave Link 1102 at Sat Mar  4 11:44:24 2023, MaxMem=  1048576000 cpu:               0.1 elap:               0.1
 (Enter /ssoft/spack/external/gaussian/g16-C.01/avx2/g16/l1110.exe)
 Forming Gx(P) for the SCF density, NAtomX=    38.
 Integral derivatives from FoFJK, PRISM(SPDF).
 Do as many integral derivatives as possible in FoFJK.
 G2DrvN: MDV=    1048571950.
 G2DrvN: will do    39 centers at a time, making    1 passes.
 Calling FoFCou, ICntrl=  3107 FMM=F I1Cent=   0 AccDes= 0.00D+00.
 FoFJK:  IHMeth= 1 ICntrl=    3107 DoSepK=F KAlg= 0 I1Cent=           0 FoldK=F
 IRaf=         0 NMat=       1 IRICut=       1 DoRegI=T DoRafI=F ISym2E= 0 IDoP0=0 IntGTp=1.
 FoFCou: FMM=F IPFlag=           0 FMFlag=      100000 FMFlg1=           0
         NFxFlg=           0 DoJE=F BraDBF=F KetDBF=F FulRan=T
         wScrn=  0.000000 ICntrl=      3107 IOpCl=  0 I1Cent=           0 NGrid=           0
         NMat0=    1 NMatS0=      1 NMatT0=    0 NMatD0=    1 NMtDS0=    0 NMtDT0=    0
 Symmetry not used in FoFCou.
 End of G2Drv F.D. properties file   721 does not exist.
 End of G2Drv F.D. properties file   722 does not exist.
 End of G2Drv F.D. properties file   788 does not exist.
 Leave Link 1110 at Sat Mar  4 12:02:35 2023, MaxMem=  1048576000 cpu:            1086.8 elap:            1090.6
 (Enter /ssoft/spack/external/gaussian/g16-C.01/avx2/g16/l1002.exe)
 Minotr:  Closed shell wavefunction.
          IDoAtm=11111111111111111111111111111111111111
          Direct CPHF calculation.
          Differentiating once with respect to electric field.
                with respect to dipole field.
          Differentiating once with respect to nuclear coordinates.
          Requested convergence is 1.0D-08 RMS, and 1.0D-07 maximum.
          Secondary convergence is 1.0D-12 RMS, and 1.0D-12 maximum.
          NewPWx=T KeepS1=F KeepF1=F KeepIn=T MapXYZ=F SortEE=F KeepMc=T.
        11444 words used for storage of precomputed grid.
 Two-electron integrals replicated using symmetry.
          MDV=    1048576000 using IRadAn=       1.
          Solving linear equations simultaneously, MaxMat=     384.
 FoF2E skips out because all densities are zero.
 CalDSu exits because no D1Ps are significant.
 FoFJK:  IHMeth= 1 ICntrl=       0 DoSepK=F KAlg= 0 I1Cent=           0 FoldK=F
 IRaf= 910000000 NMat=     114 IRICut=     285 DoRegI=T DoRafI=T ISym2E= 2 IDoP0=3 IntGTp=3.
 FoFCou: FMM=F IPFlag=           0 FMFlag=      100000 FMFlg1=           0
         NFxFlg=           0 DoJE=F BraDBF=F KetDBF=F FulRan=T
         wScrn=  0.000000 ICntrl=         0 IOpCl=  0 I1Cent=           0 NGrid=           0
         NMat0=  114 NMatS0=    114 NMatT0=    0 NMatD0=  114 NMtDS0=    0 NMtDT0=    0
 Integrals replicated using symmetry in FoFCou.
 Raff kept on since  87.82% of shell-pairs survive, threshold=   0.20 IRatSp=88.
          There are   117 degrees of freedom in the 1st order CPHF.  IDoFFX=6 NUNeed=     3.
    114 vectors produced by pass  0 Test12= 1.67D-14 1.00D-09 XBig12= 8.13D+01 1.79D+00.
 AX will form   114 AO Fock derivatives at one time.
    114 vectors produced by pass  1 Test12= 1.67D-14 1.00D-09 XBig12= 9.00D+00 2.23D-01.
    114 vectors produced by pass  2 Test12= 1.67D-14 1.00D-09 XBig12= 1.33D-01 4.94D-02.
    114 vectors produced by pass  3 Test12= 1.67D-14 1.00D-09 XBig12= 2.80D-04 1.98D-03.
    114 vectors produced by pass  4 Test12= 1.67D-14 1.00D-09 XBig12= 4.29D-07 5.07D-05.
     85 vectors produced by pass  5 Test12= 1.67D-14 1.00D-09 XBig12= 4.24D-10 1.62D-06.
      8 vectors produced by pass  6 Test12= 1.67D-14 1.00D-09 XBig12= 3.91D-13 4.76D-08.
      1 vectors produced by pass  7 Test12= 1.67D-14 1.00D-09 XBig12= 3.65D-16 1.17D-09.
 InvSVY:  IOpt=1 It=  1 EMax= 1.07D-14
 Solved reduced A of dimension   664 with   117 vectors.
 FullF1:  Do perturbations      1 to       3.
 Isotropic polarizability for W=    0.000000      134.12 Bohr**3.
 End of Minotr F.D. properties file   721 does not exist.
 End of Minotr F.D. properties file   722 does not exist.
 End of Minotr F.D. properties file   788 does not exist.
 Leave Link 1002 at Sat Mar  4 12:34:52 2023, MaxMem=  1048576000 cpu:            1929.7 elap:            1937.7
 (Enter /ssoft/spack/external/gaussian/g16-C.01/avx2/g16/l601.exe)
 Copying SCF densities to generalized density rwf, IOpCl= 0 IROHF=0.

 **********************************************************************

            Population analysis using the SCF Density.

 **********************************************************************

 Orbital symmetries:
       Occupied  (A) (A) (A) (A) (A) (A) (A) (A) (A) (A) (A) (A)
                 (A) (A) (A) (A) (A) (A) (A) (A) (A) (A) (A) (A)
                 (A) (A) (A) (A) (A) (A) (A) (A) (A) (A) (A) (A)
                 (A) (A) (A) (A) (A) (A) (A) (A) (A) (A) (A) (A)
                 (A) (A) (A) (A) (A) (A) (A) (A) (A) (A) (A) (A)
                 (A)
       Virtual   (A) (A) (A) (A) (A) (A) (A) (A) (A) (A) (A) (A)
                 (A) (A) (A) (A) (A) (A) (A) (A) (A) (A) (A) (A)
                 (A) (A) (A) (A) (A) (A) (A) (A) (A) (A) (A) (A)
                 (A) (A) (A) (A) (A) (A) (A) (A) (A) (A) (A) (A)
                 (A) (A) (A) (A) (A) (A) (A) (A) (A) (A) (A) (A)
                 (A) (A) (A) (A) (A) (A) (A) (A) (A) (A) (A) (A)
                 (A) (A) (A) (A) (A) (A) (A) (A) (A) (A) (A) (A)
                 (A) (A) (A) (A) (A) (A) (A) (A) (A) (A) (A) (A)
                 (A) (A) (A) (A) (A) (A) (A) (A) (A) (A) (A) (A)
                 (A) (A) (A) (A) (A) (A) (A) (A) (A) (A) (A) (A)
                 (A) (A) (A) (A) (A) (A) (A) (A) (A) (A) (A) (A)
                 (A) (A) (A) (A) (A) (A) (A) (A) (A) (A) (A) (A)
                 (A) (A) (A) (A) (A) (A) (A) (A) (A) (A) (A) (A)
                 (A) (A) (A) (A) (A) (A) (A) (A) (A) (A) (A) (A)
                 (A) (A) (A) (A) (A) (A) (A) (A) (A) (A) (A) (A)
                 (A) (A) (A) (A) (A) (A) (A) (A) (A) (A) (A) (A)
                 (A) (A) (A) (A) (A) (A) (A) (A) (A) (A) (A) (A)
                 (A) (A) (A) (A) (A) (A) (A) (A) (A) (A) (A) (A)
                 (A) (A) (A) (A) (A) (A) (A) (A) (A) (A) (A) (A)
                 (A) (A) (A) (A) (A) (A) (A) (A) (A) (A) (A) (A)
                 (A) (A) (A) (A) (A) (A) (A) (A) (A) (A) (A) (A)
                 (A) (A) (A) (A) (A) (A) (A) (A) (A) (A) (A) (A)
                 (A) (A) (A) (A) (A) (A) (A) (A) (A)
 The electronic state is 1-A.
 Alpha  occ. eigenvalues --  -14.37595 -14.36650 -14.36298 -14.36020 -10.25978
 Alpha  occ. eigenvalues --  -10.25912 -10.22819 -10.22537 -10.22315 -10.22149
 Alpha  occ. eigenvalues --  -10.22118 -10.22003 -10.21905 -10.21821 -10.19314
 Alpha  occ. eigenvalues --  -10.19094  -0.98573  -0.94656  -0.90847  -0.87078
 Alpha  occ. eigenvalues --   -0.81540  -0.79615  -0.76349  -0.75985  -0.70235
 Alpha  occ. eigenvalues --   -0.68060  -0.66965  -0.64934  -0.61580  -0.60442
 Alpha  occ. eigenvalues --   -0.59514  -0.56250  -0.53111  -0.51491  -0.50809
 Alpha  occ. eigenvalues --   -0.49679  -0.48712  -0.47631  -0.47026  -0.46002
 Alpha  occ. eigenvalues --   -0.45109  -0.44016  -0.43534  -0.42952  -0.41065
 Alpha  occ. eigenvalues --   -0.39915  -0.39386  -0.39033  -0.38925  -0.38404
 Alpha  occ. eigenvalues --   -0.36647  -0.35992  -0.35232  -0.34456  -0.33145
 Alpha  occ. eigenvalues --   -0.32452  -0.31251  -0.23557  -0.22059  -0.21816
 Alpha  occ. eigenvalues --   -0.19683
 Alpha virt. eigenvalues --    0.07866   0.08544   0.09408   0.10128   0.10855
 Alpha virt. eigenvalues --    0.11621   0.12534   0.13413   0.13848   0.14338
 Alpha virt. eigenvalues --    0.14806   0.14864   0.15675   0.16219   0.16662
 Alpha virt. eigenvalues --    0.17313   0.17724   0.18044   0.18867   0.19636
 Alpha virt. eigenvalues --    0.20420   0.20833   0.21224   0.21713   0.22464
 Alpha virt. eigenvalues --    0.23029   0.23744   0.24442   0.24699   0.26134
 Alpha virt. eigenvalues --    0.26467   0.27293   0.27474   0.28008   0.29166
 Alpha virt. eigenvalues --    0.30130   0.30553   0.31577   0.32802   0.34243
 Alpha virt. eigenvalues --    0.36493   0.45771   0.46101   0.47269   0.47420
 Alpha virt. eigenvalues --    0.48267   0.49030   0.49477   0.51301   0.51934
 Alpha virt. eigenvalues --    0.52793   0.53967   0.55468   0.56207   0.56964
 Alpha virt. eigenvalues --    0.57995   0.59860   0.60558   0.62879   0.63422
 Alpha virt. eigenvalues --    0.63572   0.65248   0.66051   0.67134   0.68590
 Alpha virt. eigenvalues --    0.69067   0.69235   0.69542   0.70125   0.70344
 Alpha virt. eigenvalues --    0.71284   0.71657   0.72006   0.72686   0.73264
 Alpha virt. eigenvalues --    0.73472   0.73748   0.73867   0.74713   0.75611
 Alpha virt. eigenvalues --    0.75880   0.75979   0.76999   0.77192   0.77387
 Alpha virt. eigenvalues --    0.77616   0.78205   0.78331   0.79109   0.79258
 Alpha virt. eigenvalues --    0.80165   0.80315   0.80899   0.81392   0.81862
 Alpha virt. eigenvalues --    0.82736   0.83309   0.85130   0.85780   0.87700
 Alpha virt. eigenvalues --    0.92033   0.94279   0.96304   0.98885   1.00156
 Alpha virt. eigenvalues --    1.01335   1.03135   1.07986   1.09413   1.10185
 Alpha virt. eigenvalues --    1.12443   1.13320   1.14917   1.16733   1.18577
 Alpha virt. eigenvalues --    1.20201   1.22420   1.24056   1.25215   1.25855
 Alpha virt. eigenvalues --    1.27095   1.30484   1.32398   1.32683   1.34163
 Alpha virt. eigenvalues --    1.35794   1.37642   1.39355   1.39770   1.42445
 Alpha virt. eigenvalues --    1.43037   1.44611   1.45669   1.48552   1.50487
 Alpha virt. eigenvalues --    1.52748   1.54849   1.55571   1.58317   1.59880
 Alpha virt. eigenvalues --    1.61715   1.65307   1.68193   1.69991   1.70797
 Alpha virt. eigenvalues --    1.71753   1.75170   1.75588   1.76224   1.77080
 Alpha virt. eigenvalues --    1.77941   1.78576   1.80287   1.81391   1.81813
 Alpha virt. eigenvalues --    1.83190   1.83810   1.84774   1.84879   1.85632
 Alpha virt. eigenvalues --    1.86751   1.87639   1.87887   1.90104   1.90495
 Alpha virt. eigenvalues --    1.90747   1.92083   1.93162   1.93905   1.94355
 Alpha virt. eigenvalues --    1.95134   1.96147   1.97155   1.97893   1.98631
 Alpha virt. eigenvalues --    2.00086   2.00185   2.01639   2.02894   2.03122
 Alpha virt. eigenvalues --    2.04266   2.04597   2.06113   2.07059   2.07601
 Alpha virt. eigenvalues --    2.08746   2.10431   2.12114   2.13309   2.13946
 Alpha virt. eigenvalues --    2.14264   2.15255   2.16694   2.17287   2.17629
 Alpha virt. eigenvalues --    2.19881   2.20902   2.21220   2.22963   2.24159
 Alpha virt. eigenvalues --    2.24914   2.28157   2.29186   2.32174   2.32935
 Alpha virt. eigenvalues --    2.34783   2.36514   2.37555   2.38704   2.40653
 Alpha virt. eigenvalues --    2.44935   2.46162   2.46609   2.49550   2.50395
 Alpha virt. eigenvalues --    2.53398   2.53532   2.54832   2.56952   2.60415
 Alpha virt. eigenvalues --    2.60859   2.63744   2.65113   2.65704   2.66900
 Alpha virt. eigenvalues --    2.69053   2.70044   2.71453   2.71642   2.73609
 Alpha virt. eigenvalues --    2.75412   2.77692   2.79063   2.81294   2.83930
 Alpha virt. eigenvalues --    2.86035   2.86395   2.88314   2.89816   2.90616
 Alpha virt. eigenvalues --    2.93925   2.94574   2.96768   2.98539   3.00494
 Alpha virt. eigenvalues --    3.04289   3.05102   3.07942   3.09631   3.10749
 Alpha virt. eigenvalues --    3.12778   3.13633   3.14451   3.15745   3.18054
 Alpha virt. eigenvalues --    3.18836   3.20460   3.20971   3.22465   3.24546
 Alpha virt. eigenvalues --    3.25064   3.26059   3.26237   3.27015   3.29096
 Alpha virt. eigenvalues --    3.31464   3.32464   3.34014   3.35611   3.35907
 Alpha virt. eigenvalues --    3.37756   3.38217   3.39851
     Molecular Orbital Coefficients:
                          57        58        59        60        61
                           O         O         O         O         O
     Eigenvalues --    -0.31251  -0.23557  -0.22059  -0.21816  -0.19683
   1 1   N  1S          0.01238   0.06157   0.01935   0.02827   0.00305
   2        2S          0.02770   0.13281   0.03720   0.06674   0.00719
   3        3S          0.02649   0.15662   0.09245  -0.01851   0.01282
   4        4PX         0.15981  -0.02134  -0.02033  -0.00907  -0.01118
   5        4PY         0.01149   0.11622   0.06419   0.07962  -0.02005
   6        4PZ         0.03616   0.40656   0.15452   0.23604  -0.02753
   7        5PX        -0.08831   0.02614  -0.02692   0.00530   0.04196
   8        5PY        -0.01724  -0.09578  -0.06141  -0.08348   0.02396
   9        5PZ        -0.02671  -0.33516  -0.12361  -0.20535   0.01338
  10        6D 0       -0.00025  -0.00723  -0.00465  -0.00474   0.00204
  11        6D+1       -0.00457   0.00383  -0.00059  -0.00036   0.00263
  12        6D-1       -0.00444  -0.00670  -0.00243  -0.00239  -0.00105
  13        6D+2       -0.00959   0.00179   0.00380   0.00179  -0.00087
  14        6D-2       -0.00485   0.00071   0.00043  -0.00124   0.00116
  15 2   C  1S          0.01003   0.01435  -0.00811   0.01844  -0.00079
  16        2S         -0.02343  -0.03493   0.02542  -0.04774   0.00373
  17        3S         -0.04678  -0.02207   0.03058  -0.05705   0.02185
  18        4PX         0.19007  -0.02202  -0.07206   0.02429   0.00234
  19        4PY         0.00853  -0.00372  -0.00110   0.00069  -0.00528
  20        4PZ        -0.00996   0.12154   0.04768   0.07135  -0.00680
  21        5PX         0.10189  -0.01302  -0.03453   0.00932   0.00411
  22        5PY         0.00957  -0.02803  -0.07303   0.01206   0.00380
  23        5PZ         0.00323   0.00580   0.04991  -0.01799  -0.00080
  24        6D 0        0.00262   0.02089   0.00624   0.01387  -0.00240
  25        6D+1       -0.00374  -0.00135  -0.00231   0.00043   0.00002
  26        6D-1       -0.00323  -0.00188  -0.00343   0.00066   0.00028
  27        6D+2       -0.00767   0.00778   0.00557   0.00320  -0.00104
  28        6D-2       -0.00713  -0.00179   0.00043  -0.00179   0.00096
  29 3   C  1S         -0.00532   0.00650  -0.01373   0.01569  -0.00240
  30        2S          0.01033  -0.01663   0.03415  -0.04501   0.00247
  31        3S          0.03385  -0.04160   0.04798  -0.05038   0.01220
  32        4PX        -0.21291  -0.02277  -0.00448  -0.00922   0.00206
  33        4PY         0.05533   0.00430   0.04769  -0.04654  -0.00184
  34        4PZ         0.03867   0.00158   0.08901  -0.06703  -0.00239
  35        5PX        -0.09131  -0.02136  -0.01883  -0.00007  -0.00194
  36        5PY         0.03797   0.05298   0.06441  -0.00445  -0.00960
  37        5PZ         0.01525   0.03536   0.00280   0.01532  -0.01765
  38        6D 0       -0.00043   0.00416  -0.01455   0.01183  -0.00188
  39        6D+1       -0.00353   0.00372   0.00463   0.00024   0.00090
  40        6D-1        0.00139  -0.00011  -0.01693   0.00961  -0.00137
  41        6D+2       -0.01256  -0.00042   0.00262  -0.00214  -0.00115
  42        6D-2       -0.00250   0.00033  -0.00559   0.00525  -0.00047
  43 4   N  1S         -0.00026  -0.00519  -0.06227   0.04209   0.00691
  44        2S          0.00001  -0.00919  -0.12689   0.09338   0.01525
  45        3S         -0.00591  -0.07625  -0.22145   0.12323   0.07117
  46        4PX        -0.19473   0.00445   0.11623  -0.06432  -0.01861
  47        4PY         0.05262   0.00309   0.08999  -0.08692  -0.03190
  48        4PZ         0.03696  -0.01031   0.42872  -0.24297   0.06769
  49        5PX         0.11470  -0.03279  -0.09298   0.05601   0.03412
  50        5PY        -0.02987   0.00025  -0.05623   0.06747   0.02706
  51        5PZ        -0.02314   0.02929  -0.34514   0.18003  -0.06510
  52        6D 0        0.00257   0.00203   0.00923  -0.00686   0.00066
  53        6D+1       -0.00481   0.00118   0.00372  -0.00279   0.00060
  54        6D-1        0.00138   0.00097   0.00304  -0.00388  -0.00174
  55        6D+2       -0.01184  -0.00082   0.00071   0.00086  -0.00026
  56        6D-2       -0.00740  -0.00022   0.00187   0.00124  -0.00029
  57 5   C  1S          0.00723   0.00411  -0.02037   0.00645  -0.00146
  58        2S         -0.01887  -0.00592   0.05090  -0.01985   0.00435
  59        3S         -0.01565  -0.06433   0.08835   0.06015   0.06814
  60        4PX        -0.20640  -0.00350   0.06747  -0.02796  -0.01455
  61        4PY         0.10282  -0.00089   0.03129  -0.02044  -0.00610
  62        4PZ         0.05406   0.00324   0.07839  -0.05117   0.00752
  63        5PX        -0.09484  -0.00791   0.03327  -0.03457  -0.02979
  64        5PY         0.05293  -0.01668   0.02481   0.01587   0.01536
  65        5PZ         0.02507  -0.00235  -0.01916   0.01546  -0.00392
  66        6D 0        0.00145   0.00138  -0.01076   0.00440  -0.00228
  67        6D+1       -0.00401  -0.00034  -0.02084   0.01271  -0.00326
  68        6D-1        0.00127   0.00054  -0.00476   0.00207  -0.00228
  69        6D+2       -0.01136   0.00040   0.00102  -0.00153  -0.00239
  70        6D-2       -0.00632  -0.00031  -0.00423   0.00338   0.00165
  71 6   C  1S         -0.01498   0.00543  -0.01590   0.00026  -0.00948
  72        2S          0.03755  -0.01460   0.04610   0.00070   0.02992
  73        3S          0.06382  -0.01563   0.01852  -0.00809   0.02406
  74        4PX         0.16540  -0.00861   0.02938  -0.01203   0.01289
  75        4PY        -0.08852  -0.02035  -0.04636   0.06183   0.02749
  76        4PZ        -0.05669   0.01322  -0.02365  -0.00731  -0.01837
  77        5PX         0.07095   0.01267  -0.02902  -0.01420  -0.02614
  78        5PY        -0.03991  -0.03567  -0.05639   0.10305   0.05324
  79        5PZ        -0.03217  -0.01315   0.04505   0.00064   0.02808
  80        6D 0       -0.00041   0.00144  -0.00311  -0.00121  -0.00297
  81        6D+1       -0.00158   0.00088  -0.00237  -0.00047  -0.00208
  82        6D-1        0.00226  -0.00075  -0.00161   0.00217   0.00100
  83        6D+2       -0.01357   0.00113  -0.00154   0.00048  -0.00180
  84        6D-2       -0.00400  -0.00045  -0.00179   0.00261   0.00137
  85 7   N  1S          0.00282   0.02257  -0.00392  -0.05198  -0.05438
  86        2S          0.00556   0.04261  -0.00564  -0.10993  -0.11726
  87        3S          0.00168   0.09341   0.01536  -0.19346  -0.17069
  88        4PX        -0.18726  -0.04655   0.01498   0.12318   0.10927
  89        4PY         0.05784  -0.01336   0.05494  -0.02202   0.01062
  90        4PZ         0.06345  -0.18982   0.11735   0.29064   0.34581
  91        5PX         0.11332   0.05704   0.00995  -0.10785  -0.07496
  92        5PY        -0.03796   0.02351  -0.05402  -0.00090  -0.01588
  93        5PZ        -0.03929   0.14166  -0.11973  -0.22364  -0.26125
  94        6D 0        0.00333  -0.00468  -0.00006   0.00781   0.00852
  95        6D+1       -0.00528  -0.00135  -0.00040   0.00407   0.00703
  96        6D-1        0.00365  -0.00116   0.00269  -0.00067   0.00087
  97        6D+2       -0.01000   0.00110   0.00125   0.00117   0.00159
  98        6D-2       -0.00047   0.00042  -0.00183  -0.00005   0.00113
  99 8   C  1S          0.00280   0.01931  -0.01131  -0.02576  -0.00381
 100        2S         -0.00073  -0.05031   0.03005   0.06897   0.00927
 101        3S         -0.06225  -0.05260   0.04176   0.06754   0.00820
 102        4PX         0.06435  -0.00436  -0.00011  -0.03222  -0.10916
 103        4PY        -0.00339   0.04363  -0.03448  -0.06403  -0.00443
 104        4PZ        -0.02379   0.02769  -0.00520  -0.04086  -0.03044
 105        5PX         0.02248  -0.00754   0.01776  -0.01531  -0.13487
 106        5PY         0.01618  -0.01870   0.00703   0.02752   0.01314
 107        5PZ         0.01320   0.00967   0.00850  -0.00615  -0.06797
 108        6D 0       -0.00447   0.00165  -0.00010  -0.00185  -0.00028
 109        6D+1        0.00165  -0.00208   0.00227   0.00408  -0.00204
 110        6D-1       -0.00336  -0.00005   0.00125   0.00182   0.00190
 111        6D+2        0.00129   0.00015   0.00135   0.00205   0.00139
 112        6D-2       -0.00017   0.00182  -0.00131  -0.00002   0.00174
 113 9   C  1S         -0.00114   0.01424  -0.00554  -0.01054   0.01413
 114        2S          0.00178  -0.03582   0.01604   0.02275  -0.04007
 115        3S          0.03389  -0.06297  -0.00600   0.07125   0.03516
 116        4PX        -0.04139   0.05792  -0.01463  -0.01426   0.05868
 117        4PY         0.04807   0.06834   0.00289  -0.01177   0.03258
 118        4PZ         0.02932  -0.03915   0.02561   0.05219  -0.05603
 119        5PX        -0.03568   0.03325   0.00876  -0.00399  -0.02721
 120        5PY         0.03456   0.06497  -0.00119  -0.02197   0.04407
 121        5PZ        -0.00107  -0.00494  -0.00005  -0.01611   0.01214
 122        6D 0       -0.00174   0.00429  -0.00351  -0.00589   0.00994
 123        6D+1        0.00316  -0.00505   0.00451   0.00792  -0.00769
 124        6D-1        0.00163  -0.00028   0.00487   0.00735  -0.01002
 125        6D+2       -0.00091   0.00380  -0.00100  -0.00196   0.00911
 126        6D-2       -0.00097   0.00609  -0.00329  -0.00376   0.01051
 127 10  N  1S          0.00536   0.05201  -0.01603  -0.01920   0.05697
 128        2S          0.01009   0.10374  -0.03111  -0.04088   0.13053
 129        3S          0.03529   0.24802  -0.04882  -0.02728   0.08236
 130        4PX        -0.00674   0.16864  -0.09898  -0.12142   0.26254
 131        4PY         0.03383   0.08436   0.01659   0.02247   0.02136
 132        4PZ         0.03276  -0.07003   0.12508   0.21316  -0.31558
 133        5PX         0.00236  -0.14814   0.09276   0.10927  -0.20260
 134        5PY        -0.02146  -0.05583   0.00063  -0.02730  -0.00442
 135        5PZ        -0.02255   0.03686  -0.10323  -0.17403   0.26559
 136        6D 0        0.00310  -0.00094   0.00138   0.00333  -0.00324
 137        6D+1       -0.00178   0.00359  -0.00274  -0.00538   0.01119
 138        6D-1        0.00221   0.00216   0.00006   0.00078   0.00059
 139        6D+2       -0.00124   0.00007   0.00298   0.00149  -0.00587
 140        6D-2       -0.00294  -0.00265  -0.00119   0.00068   0.00077
 141 11  C  1S          0.00325  -0.01379  -0.01694  -0.01499   0.01525
 142        2S         -0.00819   0.03144   0.04047   0.03502  -0.03360
 143        3S         -0.00554   0.09762   0.03091   0.03618  -0.02414
 144        4PX        -0.00277   0.06865  -0.04080  -0.02435   0.08272
 145        4PY        -0.01461  -0.07723  -0.01765  -0.03778  -0.01825
 146        4PZ         0.00557  -0.14436  -0.02047  -0.02540  -0.04875
 147        5PX         0.00670   0.04507   0.01181   0.04328  -0.01504
 148        5PY        -0.01063  -0.06650  -0.01321  -0.02898  -0.01343
 149        5PZ        -0.00002  -0.08172  -0.01866  -0.03210   0.00992
 150        6D 0        0.00066  -0.00318   0.00255   0.00420  -0.00768
 151        6D+1       -0.00089  -0.00601   0.00398   0.00557  -0.01213
 152        6D-1       -0.00227   0.00717  -0.00485  -0.00771   0.01436
 153        6D+2        0.00242   0.00461  -0.00159  -0.00291   0.00678
 154        6D-2       -0.00258  -0.00191  -0.00332  -0.00289   0.00257
 155 12  C  1S          0.02526   0.00724   0.00554   0.01686  -0.01631
 156        2S         -0.06063  -0.01273  -0.01900  -0.03755   0.04114
 157        3S         -0.08119   0.00515   0.04335  -0.02326   0.05193
 158        4PX         0.14552   0.00932   0.00270   0.03130  -0.02851
 159        4PY         0.03337   0.05696  -0.01326  -0.00503   0.05170
 160        4PZ         0.03093   0.12849  -0.00085   0.00351   0.06949
 161        5PX         0.07525   0.00036  -0.04739  -0.01961   0.03480
 162        5PY         0.02002   0.01744  -0.01918  -0.02436   0.04650
 163        5PZ         0.01585   0.03040  -0.02668  -0.03698   0.07058
 164        6D 0        0.00124   0.01030   0.00360   0.00558   0.00085
 165        6D+1       -0.00362   0.01178   0.00370   0.00458   0.00150
 166        6D-1       -0.00467   0.01290   0.00420   0.00441   0.00259
 167        6D+2       -0.00402  -0.00906  -0.00344  -0.00517   0.00113
 168        6D-2       -0.00585   0.00048  -0.00123  -0.00237   0.00536
 169 13  C  1S          0.01306   0.03888  -0.01093  -0.00286   0.00458
 170        2S         -0.02772  -0.08944   0.03185   0.01464  -0.02207
 171        3S         -0.04480  -0.06908   0.07901   0.02534   0.15270
 172        4PX         0.21682  -0.02217  -0.07878  -0.03839  -0.01822
 173        4PY        -0.00021   0.04259   0.02748   0.02536   0.00372
 174        4PZ        -0.02959  -0.01079   0.04428   0.07999  -0.07662
 175        5PX         0.14349  -0.05624  -0.08005   0.01005  -0.10075
 176        5PY        -0.02035  -0.01896   0.05029  -0.05867  -0.04016
 177        5PZ        -0.01852  -0.08209   0.01623   0.00903   0.02665
 178        6D 0        0.00321   0.01219  -0.00552  -0.00467   0.01175
 179        6D+1       -0.00209  -0.00724  -0.00110   0.00297  -0.01040
 180        6D-1        0.00201   0.01989   0.00889   0.01274  -0.00574
 181        6D+2       -0.01099  -0.00230   0.00382   0.00265  -0.00401
 182        6D-2       -0.00300  -0.00032   0.00537   0.00651  -0.00909
 183 14  C  1S         -0.00062   0.01382  -0.02595  -0.01128   0.00625
 184        2S          0.00176  -0.04086   0.08298   0.03519  -0.01090
 185        3S          0.03663  -0.04487  -0.06335   0.00601  -0.16557
 186        4PX        -0.20726  -0.02105   0.04674   0.04360  -0.06644
 187        4PY         0.04861  -0.04314  -0.01624   0.06206   0.02750
 188        4PZ         0.02771  -0.03422   0.11118   0.00739   0.05741
 189        5PX        -0.07118  -0.02692  -0.00716   0.02565  -0.13328
 190        5PY         0.03086  -0.05304  -0.07364   0.08109   0.06239
 191        5PZ         0.01263   0.05884  -0.01057  -0.00852  -0.01691
 192        6D 0        0.00242   0.00935  -0.02719  -0.00027  -0.01228
 193        6D+1        0.00309   0.00187  -0.00488   0.00300  -0.00207
 194        6D-1        0.00311   0.00674   0.00271  -0.01261  -0.01216
 195        6D+2       -0.01630  -0.00097  -0.00568   0.00442  -0.00303
 196        6D-2       -0.00517   0.00598   0.00475  -0.00915  -0.00420
 197 15  H  1S          0.01200   0.13268   0.04534   0.08671  -0.01329
 198        2S          0.01098   0.13612  -0.03001   0.11669  -0.01247
 199        3PX         0.00452  -0.00205  -0.00004  -0.00044  -0.00054
 200        3PY        -0.00053  -0.00185  -0.00074  -0.00159   0.00074
 201        3PZ        -0.00104  -0.00118  -0.00031   0.00056  -0.00036
 202 16  H  1S          0.07881  -0.07939  -0.05152  -0.04026   0.00902
 203        2S          0.04954  -0.05810  -0.05845  -0.01428   0.00221
 204        3PX         0.00421   0.00196  -0.00033   0.00230  -0.00072
 205        3PY         0.00372   0.00006   0.00031  -0.00005  -0.00037
 206        3PZ         0.00100   0.00354  -0.00017   0.00272  -0.00013
 207 17  H  1S         -0.00465   0.01587  -0.12372   0.09336  -0.00681
 208        2S         -0.00103   0.08060  -0.11554   0.12404  -0.02575
 209        3PX        -0.00546   0.00090   0.00008   0.00131  -0.00008
 210        3PY         0.00070   0.00059   0.00107  -0.00200  -0.00041
 211        3PZ         0.00129  -0.00076  -0.00072   0.00048   0.00078
 212 18  H  1S          0.06093  -0.00323   0.05078  -0.02614   0.00652
 213        2S          0.03671   0.00524   0.04790  -0.01488   0.00715
 214        3PX        -0.00480   0.00004   0.00195  -0.00098   0.00052
 215        3PY         0.00359  -0.00073   0.00100  -0.00155   0.00019
 216        3PZ        -0.00119  -0.00059   0.00331  -0.00360  -0.00008
 217 19  H  1S          0.00323  -0.00132   0.04510  -0.02322   0.02327
 218        2S          0.00925  -0.00053   0.03302  -0.02269   0.01732
 219        3PX        -0.00494  -0.00004   0.00075   0.00048  -0.00006
 220        3PY         0.00232   0.00010   0.00176  -0.00182  -0.00025
 221        3PZ         0.00189   0.00070   0.00332  -0.00285  -0.00014
 222 20  H  1S         -0.02213   0.00906  -0.01963  -0.00592  -0.01486
 223        2S         -0.01879   0.03612  -0.08497  -0.01173  -0.05666
 224        3PX         0.00532  -0.00012   0.00009  -0.00008   0.00007
 225        3PY        -0.00198  -0.00037  -0.00048   0.00046   0.00030
 226        3PZ         0.00020  -0.00025   0.00030   0.00010  -0.00028
 227 21  H  1S         -0.04298   0.06159  -0.04187  -0.07526   0.10568
 228        2S         -0.02597   0.05093  -0.04714  -0.09922   0.11793
 229        3PX        -0.00009   0.00109   0.00001   0.00132   0.00118
 230        3PY         0.00061   0.00190  -0.00014  -0.00024   0.00218
 231        3PZ        -0.00089   0.00103   0.00014   0.00118   0.00101
 232 22  H  1S          0.01748   0.01170   0.02215   0.04797  -0.01666
 233        2S          0.00932   0.00333   0.01464   0.03889  -0.01143
 234        3PX        -0.00155   0.00130  -0.00136  -0.00204   0.00406
 235        3PY         0.00081   0.00126   0.00069   0.00004  -0.00136
 236        3PZ         0.00059  -0.00281   0.00043   0.00021  -0.00270
 237 23  H  1S          0.01187  -0.07876   0.02931   0.04491  -0.09822
 238        2S          0.00897  -0.06211   0.01806   0.02726  -0.07804
 239        3PX        -0.00015  -0.00009  -0.00106  -0.00087   0.00070
 240        3PY        -0.00059  -0.00393  -0.00069  -0.00192  -0.00081
 241        3PZ        -0.00022  -0.00104  -0.00122  -0.00101   0.00014
 242 24  H  1S         -0.01886  -0.00090  -0.03289  -0.03874   0.04319
 243        2S         -0.01045  -0.00636  -0.04077  -0.05196   0.07083
 244        3PX         0.00046   0.00264  -0.00135  -0.00111   0.00370
 245        3PY        -0.00030  -0.00257   0.00076   0.00056  -0.00202
 246        3PZ        -0.00013  -0.00609  -0.00043  -0.00063  -0.00345
 247 25  H  1S          0.03461  -0.09676  -0.02478  -0.02724  -0.01572
 248        2S          0.02444  -0.05940  -0.01627  -0.01328  -0.01681
 249        3PX         0.00261   0.00021   0.00055   0.00095  -0.00129
 250        3PY        -0.00025   0.00343  -0.00079   0.00004   0.00225
 251        3PZ         0.00184   0.00087   0.00035   0.00004   0.00055
 252 26  H  1S          0.03990  -0.02273   0.00268   0.00376  -0.03090
 253        2S          0.03611  -0.01475   0.01236   0.01737  -0.05011
 254        3PX         0.00242   0.00009   0.00079   0.00167  -0.00185
 255        3PY         0.00144   0.00123   0.00090   0.00023   0.00056
 256        3PZ         0.00051   0.00585  -0.00001   0.00103   0.00249
 257 27  H  1S          0.04989  -0.03638  -0.05424  -0.09159   0.09112
 258        2S          0.02166   0.00389  -0.05579  -0.06466   0.09809
 259        3PX         0.00466   0.00178   0.00048  -0.00058   0.00009
 260        3PY        -0.00134   0.00013  -0.00060   0.00217  -0.00151
 261        3PZ         0.00135  -0.00085   0.00070   0.00055  -0.00023
 262 28  C  1S         -0.00539   0.00465  -0.00375  -0.01627  -0.00959
 263        2S          0.00998  -0.01447   0.00312   0.03718   0.02994
 264        3S          0.04119  -0.03826   0.05468   0.12574  -0.03173
 265        4PX        -0.06859   0.01103   0.01198   0.01841   0.00881
 266        4PY         0.00061   0.01063   0.01249  -0.02851  -0.02703
 267        4PZ         0.04494  -0.05130   0.00608   0.08006   0.07797
 268        5PX         0.00079   0.00036   0.02530   0.02242  -0.03239
 269        5PY        -0.00606   0.01776   0.00408  -0.03868  -0.05714
 270        5PZ         0.02180  -0.02780  -0.00286   0.02636   0.00734
 271        6D 0       -0.00586   0.00890  -0.00464  -0.01131  -0.01163
 272        6D+1        0.00324  -0.00299   0.00210   0.00365   0.00368
 273        6D-1       -0.00389  -0.00272   0.00258   0.00629   0.00845
 274        6D+2       -0.00454   0.00065   0.00028   0.00010  -0.00332
 275        6D-2       -0.00528  -0.00478   0.00122   0.01042   0.00988
 276 29  H  1S          0.06939  -0.00375   0.00623  -0.02783  -0.02624
 277        2S          0.05058   0.00063   0.01157  -0.03462  -0.02899
 278        3PX        -0.00023   0.00056   0.00041  -0.00032  -0.00015
 279        3PY        -0.00207   0.00000  -0.00027   0.00032   0.00151
 280        3PZ         0.00182  -0.00205   0.00050   0.00368   0.00471
 281 30  H  1S         -0.06590   0.05924  -0.02199  -0.07177  -0.06890
 282        2S         -0.04574   0.04091  -0.05348  -0.09722  -0.06521
 283        3PX        -0.00215  -0.00075  -0.00002   0.00070   0.00328
 284        3PY        -0.00039   0.00121   0.00089  -0.00152  -0.00270
 285        3PZ        -0.00136  -0.00041   0.00048   0.00109   0.00050
 286 31  C  1S          0.01195   0.00480  -0.00928  -0.01169  -0.01479
 287        2S         -0.03331  -0.01024   0.01831   0.03073   0.04151
 288        3S         -0.04486  -0.00586   0.12715  -0.01918   0.04064
 289        4PX        -0.16115  -0.01725   0.01850   0.06248   0.05537
 290        4PY         0.04142  -0.00108   0.01050  -0.00196   0.00353
 291        4PZ         0.06355  -0.04185   0.01665   0.06053   0.06400
 292        5PX        -0.06565  -0.01267   0.00453   0.04806   0.03072
 293        5PY         0.02096   0.00588  -0.02612   0.01276  -0.00611
 294        5PZ         0.01909   0.01310  -0.00168  -0.02299  -0.03125
 295        6D 0        0.00049   0.00368  -0.00450  -0.00501  -0.00670
 296        6D+1       -0.00294   0.00959  -0.00488  -0.01491  -0.01849
 297        6D-1        0.00305   0.00043   0.00049  -0.00111  -0.00027
 298        6D+2       -0.01456   0.00087  -0.00189   0.00144  -0.00094
 299        6D-2       -0.00822   0.00025  -0.00247   0.00179  -0.00111
 300 32  H  1S          0.11853  -0.02796   0.02911   0.02538   0.04828
 301        2S          0.07061  -0.02489   0.01687   0.01856   0.04308
 302        3PX        -0.00204   0.00004   0.00052   0.00036   0.00058
 303        3PY        -0.00269   0.00108  -0.00010  -0.00166  -0.00137
 304        3PZ        -0.00160  -0.00167  -0.00034   0.00340   0.00351
 305 33  H  1S         -0.02846   0.05990  -0.03524  -0.09011  -0.10309
 306        2S         -0.01319   0.05994  -0.06525  -0.08619  -0.13464
 307        3PX        -0.00468  -0.00026   0.00018   0.00174   0.00221
 308        3PY         0.00197  -0.00036   0.00175  -0.00065   0.00023
 309        3PZ         0.00084   0.00028   0.00112  -0.00119  -0.00093
 310 34  H  1S         -0.02512   0.00119  -0.13033   0.07558  -0.01807
 311        2S         -0.01173   0.00244  -0.15934   0.06343  -0.04155
 312        3PX        -0.00540   0.00013   0.00172  -0.00063  -0.00011
 313        3PY         0.00277   0.00028  -0.00019  -0.00123  -0.00091
 314        3PZ        -0.00023  -0.00136  -0.00029   0.00109   0.00084
 315 35  H  1S         -0.05151   0.01994  -0.00269  -0.02067   0.01448
 316        2S         -0.03370   0.04920  -0.03261  -0.07414   0.00598
 317        3PX         0.00092  -0.00021   0.00014  -0.00060  -0.00122
 318        3PY        -0.00026   0.00093  -0.00060  -0.00139   0.00014
 319        3PZ         0.00168  -0.00031   0.00013  -0.00016  -0.00069
 320 36  H  1S          0.02090   0.00489  -0.02130  -0.02344  -0.01348
 321        2S          0.01777   0.03066  -0.03390  -0.05419  -0.01658
 322        3PX         0.00219   0.00039  -0.00048  -0.00108  -0.00155
 323        3PY        -0.00107   0.00166  -0.00057  -0.00199  -0.00016
 324        3PZ        -0.00126   0.00160  -0.00103  -0.00265  -0.00024
 325 37  H  1S         -0.13702   0.00319  -0.00663   0.01001  -0.00454
 326        2S         -0.08550   0.01000  -0.02633   0.00778  -0.02153
 327        3PX        -0.00175  -0.00036   0.00080   0.00002   0.00023
 328        3PY        -0.00361   0.00024  -0.00065  -0.00013  -0.00056
 329        3PZ        -0.00358   0.00089  -0.00191  -0.00016  -0.00126
 330 38  H  1S          0.04292   0.05768  -0.15194  -0.01615  -0.08366
 331        2S          0.02055   0.09399  -0.14959  -0.00693  -0.08013
 332        3PX        -0.00477   0.00134  -0.00031   0.00030  -0.00114
 333        3PY         0.00096  -0.00132  -0.00033   0.00138   0.00069
 334        3PZ         0.00296  -0.00075   0.00024  -0.00043   0.00019
                          62        63        64        65        66
                           V         V         V         V         V
     Eigenvalues --     0.07866   0.08544   0.09408   0.10128   0.10855
   1 1   N  1S          0.01303  -0.00972   0.02904  -0.00773   0.00827
   2        2S          0.04663  -0.02804   0.07749  -0.01525   0.01702
   3        3S         -0.02914  -0.03517   0.07964  -0.12044   0.08993
   4        4PX        -0.01561  -0.01574   0.01546  -0.02607   0.06109
   5        4PY        -0.00634   0.01710  -0.01158   0.02332  -0.01457
   6        4PZ        -0.01395   0.01290   0.03321  -0.01168  -0.01760
   7        5PX         0.02300   0.05856   0.00446   0.06119  -0.14331
   8        5PY         0.02761  -0.02696   0.08235   0.00096  -0.01154
   9        5PZ         0.03303  -0.04181  -0.05697  -0.03734   0.04077
[...]
 .00000532,-0.00000135,0.00000220,-0.00000171,0.00000320,-0.00008277,-0
 .00001795,-0.00002576,0.00010132,-0.00015633,-0.00018381,-0.00004315,-
 0.00003399,-0.00004455,0.00004866,0.00002789,0.00000590,0.00050889,0.0
 0023694,-0.00168979,-0.00014235,0.00020249,-0.00020158,0.00063473,0.00
 055922,0.00039929,0.07564020,-0.00006185,0.00008329,0.00000298,0.00020
 201,0.00026407,-0.00038602,-0.00204155,0.00157518,0.00225023,0.0093517
 5,-0.02566339,0.01093137,-0.17106380,-0.47566171,0.16846046,0.00352343
 ,0.00771971,-0.00517303,-0.00002622,-0.00004749,-0.00001352,-0.0000075
 6,0.00001337,0.00000529,0.00003371,-0.00001807,-0.00015373,0.00005011,
 0.00012683,0.00010074,-0.00009364,0.00004815,0.00000022,-0.00004771,0.
 00002510,-0.00003638,-0.00002864,0.00016648,-0.00028215,-0.00266171,0.
 00103605,-0.00378148,-0.00031413,0.00029944,-0.00001338,0.00024667,-0.
 00002369,-0.00000522,0.00125213,-0.00006224,-0.00131250,-0.00005801,-0
 .00029288,-0.00015772,-0.00411559,-0.01294634,0.00877745,0.00094879,0.
 00049636,-0.00175674,0.00002490,0.00003213,0.00004022,0.00000085,-0.00
 000638,0.00000772,-0.00002429,0.00002493,-0.00002276,0.00001443,0.0000
 0652,0.00002122,0.00001296,-0.00000097,0.00001688,-0.00000064,-0.00001
 657,-0.00001067,0.00013562,-0.00006527,0.00006276,-0.00022128,0.000033
 51,-0.00006584,0.00001556,0.00001516,0.00008185,0.00004781,0.00000780,
 -0.00004186,0.00043507,0.00047575,0.00026727,0.00001321,0.00006445,0.0
 0005983,0.00015439,0.00008584,0.00049114,0.16352494,0.50029312,0.00002
 377,-0.00006499,-0.00002343,0.00011843,0.00000896,0.00007838,-0.000598
 71,-0.00191531,0.00085294,-0.00353312,0.01024628,-0.00300704,0.0594579
 3,0.17105308,-0.07461743,0.01195594,0.02769443,-0.01136378,-0.00019714
 ,-0.00066476,-0.00013389,-0.00001339,0.00001182,-0.00001183,-0.0000250
 3,-0.00000660,0.00003045,0.00004111,-0.00019259,-0.00008582,0.00003190
 ,-0.00000536,0.00003743,0.00001819,-0.00006728,-0.00003970,-0.00016157
 ,-0.00010555,0.00013301,0.00199973,0.00327379,0.00095447,0.00011029,-0
 .00004750,-0.00009498,-0.00005559,-0.00001655,-0.00000031,-0.00038873,
 0.00058690,0.00066297,-0.00018609,-0.00004984,0.00003407,-0.00898529,-
 0.02703014,0.01110141,0.00344743,-0.00135060,-0.00469821,-0.00000866,-
 0.00000221,-0.00001604,0.00000337,-0.00000637,-0.00000045,0.00001112,-
 0.00002212,0.00000495,0.00000567,-0.00001607,-0.00001291,-0.00001090,0
 .00001050,-0.00001466,0.00001542,-0.00001132,0.00000533,-0.00005574,0.
 00000439,-0.00003993,-0.00003852,0.00003518,-0.00003435,0.00001600,0.0
 0000404,-0.00001443,-0.00003104,0.00000111,-0.00000606,-0.00045361,0.0
 0180776,0.00195963,0.00019310,-0.00050513,0.00044543,-0.00054808,-0.00
 079293,-0.00034698,-0.06137914,-0.18080944,0.07670797,0.00003578,-0.00
 003134,0.00007968,-0.00002860,-0.00002070,-0.00004216,-0.00000628,0.00
 001233,0.00000794,0.00001745,-0.00009266,0.00000409,0.00000834,0.00002
 329,0.00000399,0.00000787,-0.00009349,0.00001558,0.00106288,-0.0001790
 9,0.00113235,-0.37764378,-0.26407555,0.14251621,-0.02053513,-0.0114519
 1,0.00499443,0.00162692,0.00001621,-0.00012639,0.00013917,0.00004681,-
 0.00017057,0.00001184,-0.00005141,-0.00012890,0.00005535,0.00009462,-0
 .00031403,0.00008023,0.00012519,-0.00016119,0.00000303,0.00000591,-0.0
 0000286,0.00000253,0.00000481,0.00000980,-0.00000125,-0.00000187,-0.00
 000023,0.00000895,-0.00000173,0.00000585,0.00000173,-0.00000383,0.0000
 1040,-0.00000359,0.00000134,-0.00000723,-0.00220402,0.00363797,0.00259
 291,0.00130335,-0.00034305,-0.00045467,-0.00001290,0.00002391,0.000062
 97,-0.00006341,-0.00009262,-0.00001668,0.00006555,0.00000286,-0.000033
 55,0.00002588,0.00001806,0.00000341,-0.00007581,0.00006966,-0.00011151
 ,0.01203828,0.01233238,-0.00770280,0.00096512,-0.00069124,0.00067458,-
 0.00070899,0.00243339,-0.00261845,-0.00000664,0.00029102,0.00008889,-0
 .00004668,0.00001167,0.00000947,0.00001689,-0.00007041,0.00002355,0.00
 000084,-0.00000663,0.00000394,0.39423886,-0.00001732,0.00004776,0.0000
 3211,-0.00001841,0.00002119,0.00000448,0.00003569,-0.00002940,-0.00001
 492,0.00002518,0.00012210,0.00013500,-0.00006697,0.00000499,-0.0000077
 3,0.00007463,-0.00001524,-0.00003311,0.00004346,0.00178886,-0.00256955
 ,-0.26393311,-0.18970565,0.09953748,0.02550755,0.01165531,-0.00879754,
 -0.00094510,0.00052240,0.00102606,-0.00009957,-0.00020979,0.00015579,0
 .00002606,0.00005508,0.00014363,-0.00016611,-0.00005164,-0.00011232,0.
 00001603,0.00018871,-0.00026634,0.00000659,0.00000066,0.00000200,0.000
 00245,0.00000240,0.00000579,-0.00000990,-0.00000175,0.00000746,-0.0000
 0607,0.00000415,0.00001073,0.00001072,-0.00000078,-0.00000290,-0.00000
 022,0.00001064,0.00001789,0.00367393,-0.00272499,-0.00304889,-0.000462
 38,0.00183395,0.00058280,-0.00001091,0.00001741,-0.00002905,0.00001697
 ,0.00007805,0.00002876,-0.00005974,-0.00001615,0.00003010,-0.00003938,
 -0.00001433,0.00001330,0.00010958,-0.00015673,0.00006123,-0.02124960,-
 0.01738614,0.00908128,-0.00024721,0.00084453,-0.00071836,0.00286382,-0
 .00340204,0.00337835,-0.00013383,0.00020319,0.00000015,0.00009325,-0.0
 0010904,0.00003286,-0.00008222,0.00004789,-0.00007124,0.00000925,-0.00
 000445,-0.00000884,0.26431631,0.20405011,-0.00010036,0.00000851,0.0000
 4059,0.00001234,0.00000737,0.00000024,0.00003037,-0.00002293,-0.000019
 70,-0.00009194,-0.00009208,0.00003979,0.00000527,0.00003274,-0.0000510
 2,0.00005750,-0.00005444,-0.00002076,0.00108442,-0.00072224,0.00240054
 ,0.14526238,0.10022115,-0.06453446,0.01407936,0.00910837,-0.00552554,-
 0.00028424,0.00047001,0.00104093,-0.00010025,-0.00029080,0.00003280,-0
 .00001666,0.00008628,0.00009491,0.00000231,0.00027881,0.00009389,0.000
 26862,-0.00031020,-0.00024192,0.00000127,-0.00000944,-0.00000657,-0.00
 000692,-0.00000328,0.00000330,-0.00000779,-0.00000244,0.00001272,-0.00
 000253,0.00000598,0.00000512,-0.00000163,0.00000605,0.00000741,-0.0000
 3109,-0.00000357,-0.00002242,0.00218003,-0.00216606,-0.00053178,-0.001
 34675,0.00020097,0.00107706,0.00001959,0.00001357,-0.00002788,-0.00004
 376,0.00006075,0.00002850,-0.00003310,-0.00000803,0.00001389,-0.000026
 59,-0.00001763,0.00002841,-0.00018884,-0.00012464,0.00011535,0.0168593
 8,0.01468120,-0.00956298,-0.00026863,-0.00108704,0.00100438,-0.0021395
 8,0.00385777,-0.00205013,-0.00024257,0.00026797,0.00010965,-0.00000463
 ,0.00007805,-0.00005817,0.00010571,-0.00019523,0.00005102,-0.00001203,
 -0.00001242,0.00000723,-0.14813803,-0.10535717,0.06396972,-0.00002873,
 -0.00016243,0.00018632,-0.00002022,0.00001191,-0.00006096,-0.00011058,
 0.00004915,0.00003738,0.00008580,-0.00008132,-0.00017927,0.00001911,-0
 .00003531,0.00005968,-0.00011557,0.00009529,0.00002904,-0.00034552,0.0
 0180231,-0.00276682,-0.12091399,-0.10831467,-0.20920754,0.01046165,0.0
 1075791,0.02421937,-0.00340441,0.00418397,0.00183365,0.00037225,0.0002
 9967,0.00137963,-0.00006605,0.00021829,0.00007111,-0.00022038,0.000597
 62,-0.00047464,-0.00046076,0.00058513,0.00008547,-0.00000876,-0.000001
 99,-0.00000443,0.00001199,-0.00000286,-0.00000003,0.00001586,-0.000000
 48,-0.00001145,0.00001768,-0.00001422,-0.00002600,-0.00000324,-0.00000
 847,-0.00001589,0.00002050,-0.00001141,0.00000560,0.00148373,-0.001195
 93,-0.00002971,0.00069771,-0.00022533,-0.00079745,-0.00021376,0.000208
 25,0.00013775,0.00003115,-0.00004014,-0.00006543,-0.00002825,-0.000018
 05,0.00001970,-0.00006231,-0.00007346,0.00007037,0.00001900,-0.0000886
 6,0.00004799,-0.00562170,-0.00663600,-0.00600266,0.00004536,-0.0002364
 8,0.00020439,0.00053120,0.00003024,0.00014379,0.00035105,0.00004041,-0
 .00054743,-0.00002476,-0.00008123,0.00008081,-0.00013204,0.00014698,-0
 .00006135,0.00001201,0.00001109,0.00000594,-0.01033492,-0.00936539,-0.
 02673916,0.12779016,0.00016609,0.00014460,-0.00035245,0.00004635,-0.00
 001284,0.00011086,0.00011337,-0.00002781,0.00000376,-0.00024116,0.0001
 2566,0.00020338,0.00003222,-0.00000089,-0.00008713,0.00030408,-0.00028
 949,-0.00000226,0.00249782,-0.00365703,0.00383191,-0.10918644,-0.10754
 695,-0.19673158,-0.01144857,-0.00762686,-0.01524883,0.00314646,-0.0023
 5769,-0.00096821,-0.00007595,0.00039106,-0.00092136,0.00010461,-0.0002
 7690,-0.00016615,0.00017903,-0.00055033,0.00026932,0.00077045,-0.00032
 471,0.00009262,-0.00000949,-0.00000478,0.00000016,-0.00001713,-0.00000
 004,-0.00001415,-0.00000329,0.00000604,0.00000838,-0.00003123,0.000011
 99,0.00002715,-0.00000728,0.00000806,0.00001306,0.00000046,0.00001271,
 0.00000094,-0.00015256,0.00154073,0.00027342,-0.00033783,-0.00010559,0
 .00050659,0.00008893,-0.00011594,-0.00010284,-0.00000600,0.00003119,0.
 00001448,-0.00000526,0.00002074,0.00000898,0.00006930,0.00007918,-0.00
 010921,0.00003080,0.00013166,-0.00004721,0.01323406,0.01183612,0.02398
 948,0.00008205,0.00152118,-0.00107866,-0.00099140,0.00109763,-0.000567
 05,0.00021661,0.00018141,0.00115083,-0.00000335,0.00001891,-0.00009699
 ,0.00005533,-0.00007237,0.00004877,-0.00001510,0.00000613,-0.00000664,
 -0.00615105,-0.00768798,-0.01878700,0.10757546,0.11340378,0.00010535,0
 .00002943,-0.00008477,0.00002897,0.00000706,0.00004633,-0.00005923,-0.
 00000824,0.00003178,0.00009355,0.00000395,-0.00008997,0.00002538,-0.00
 003855,0.00006937,-0.00019857,0.00022620,0.00002422,-0.00221841,0.0029
 7470,-0.00182929,-0.21161206,-0.19815644,-0.39840499,-0.00780023,-0.00
 347920,-0.01147403,0.00241852,-0.00263028,-0.00034038,-0.00024041,0.00
 017698,-0.00063509,0.00001081,-0.00021976,-0.00010253,-0.00013772,-0.0
 0015034,0.00052796,-0.00038366,0.00013819,0.00028703,-0.00000414,0.000
 00309,0.00001035,0.00000591,-0.00000723,-0.00001032,0.00000746,0.00001
 305,-0.00000330,0.00000171,-0.00000863,-0.00002192,-0.00000451,-0.0000
 0567,-0.00001641,0.00001007,-0.00001896,-0.00000322,-0.00017047,0.0007
 8096,0.00065289,-0.00005745,-0.00014782,0.00015176,0.00012880,-0.00012
 196,-0.00011140,-0.00001177,-0.00001172,0.00002556,0.00003285,0.000022
 65,-0.00000291,0.00006183,0.00004820,-0.00005376,0.00002074,0.00005237
 ,-0.00008497,-0.00724518,-0.01034359,-0.01445041,-0.00008679,-0.000399
 08,0.00108717,0.00068356,-0.00038217,0.00031368,0.00035167,-0.00004367
 ,-0.00088258,0.00000482,-0.00000593,0.00007557,-0.00013691,0.00015442,
 -0.00005323,0.00000797,0.00001583,0.00000130,0.00771955,0.00698579,0.0
 1213894,0.21866195,0.20453978,0.41343108,-0.00000962,0.00002865,-0.000
 01300,-0.00018791,-0.00000598,0.00041876,-0.00064942,0.00038507,-0.000
 74394,-0.00109737,0.00029041,0.00449068,-0.01321540,0.01114696,-0.0062
 3022,-0.33076176,0.28959629,-0.08767117,-0.00053613,-0.00224762,-0.003
 72015,-0.00015401,-0.00017973,-0.00018138,0.00004676,-0.00001842,-0.00
 000659,0.00000197,0.00003526,0.00001116,-0.00000266,-0.00002235,-0.000
 02028,0.00002142,-0.00002785,0.00001968,0.00010252,-0.00006046,0.00004
 892,0.00114303,-0.00006054,0.00001936,0.00003118,-0.00001380,-0.000016
 12,-0.00010648,0.00008641,-0.00004247,-0.00008636,-0.00004263,0.000070
 66,0.00004424,0.00002448,0.00000977,0.00070581,0.00006392,-0.00021067,
 0.01436852,-0.01328749,0.00387657,-0.00000644,-0.00000655,0.00000178,-
 0.00000817,0.00001522,0.00000133,-0.00000313,0.00000251,0.00001296,-0.
 00000531,0.00000428,-0.00000890,-0.00000397,0.00000398,-0.00001817,0.0
 0000149,0.00000465,0.00000617,0.00000557,0.00000625,-0.00002218,-0.000
 63362,0.00056371,0.00033816,0.00005135,0.00003733,-0.00003958,-0.00015
 578,-0.00003804,-0.00013566,-0.01375799,0.01275466,-0.00096982,0.00061
 175,0.00013939,0.00008358,0.00055616,-0.00010089,0.00082961,0.00045288
 ,-0.00050623,-0.00059933,0.00001665,0.00000559,0.00002357,-0.00003928,
 0.00007836,-0.00006266,0.34332591,0.00000627,-0.00001170,0.00001581,-0
 .00003137,0.00002395,-0.00005632,0.00018342,0.00059123,0.00033467,0.00
 060318,0.00060858,-0.00094655,-0.00177878,-0.00226543,0.00218553,0.288
 06875,-0.26794085,0.07914019,-0.00154365,-0.00051676,-0.00268090,-0.00
 013451,-0.00013849,-0.00018501,0.00002386,-0.00004042,-0.00005105,0.00
 004842,-0.00001577,0.00007531,-0.00000979,-0.00000260,0.00001468,-0.00
 002136,0.00001916,0.00000043,-0.00003466,0.00005490,-0.00000049,0.0000
 3388,-0.00040749,-0.00036133,-0.00000567,0.00000943,0.00002346,0.00001
 670,-0.00000145,0.00000655,0.00012971,-0.00003786,-0.00016836,-0.00003
 316,-0.00001833,0.00000572,0.00006152,-0.00007887,-0.00019409,0.027612
 68,-0.01740202,0.00495927,0.00000802,0.00000956,0.00001032,-0.00000038
 ,0.00000221,0.00000708,-0.00000726,0.00000851,-0.00000357,0.00000436,-
 0.00000165,0.00000745,0.00000850,-0.00000174,0.00000817,-0.00000271,-0
 .00000119,-0.00000136,0.00003728,-0.00001237,0.00001098,-0.00062921,0.
 00062872,-0.00027475,0.00005582,0.00000825,-0.00001872,-0.00002546,0.0
 0001112,-0.00000855,-0.01470092,0.00950656,-0.00379572,0.00059156,0.00
 040694,0.00053503,0.00008451,0.00085773,0.00082568,-0.00010367,0.00056
 979,-0.00019841,0.00000708,-0.00000748,0.00000081,-0.00001601,0.000069
 70,-0.00004859,-0.29860695,0.27545653,-0.00009393,0.00002738,0.0000883
 2,0.00023553,-0.00004126,-0.00067790,0.00158525,-0.00055408,0.00074697
 ,0.00378828,-0.00086066,-0.00626831,0.02340146,-0.02196908,0.00797826,
 -0.08683818,0.07892469,-0.02963612,-0.00245735,-0.00301016,-0.00488179
 ,-0.00018124,-0.00019341,-0.00020014,0.00008230,-0.00006394,-0.0000931
 6,-0.00006774,0.00002699,0.00013881,0.00001275,-0.00006115,-0.00001081
 ,-0.00001739,0.00007785,0.00002765,0.00013089,0.00004219,-0.00001614,-
 0.00009454,-0.00036013,-0.00126349,-0.00003273,0.00003171,0.00002420,0
 .00017450,-0.00011830,0.00007933,0.00012287,0.00001670,-0.00011952,-0.
 00009541,-0.00004831,0.00003959,-0.00114261,-0.00027183,0.00104442,-0.
 00771771,0.00440809,-0.00264847,-0.00000453,0.00000002,0.00001412,-0.0
 0000760,0.00002532,0.00002122,-0.00000367,0.00002293,0.00000270,-0.000
 00549,0.00000258,0.00000997,0.00001417,-0.00001050,0.00001584,-0.00002
 122,0.00000972,0.00000153,0.00007963,-0.00002835,0.00002408,-0.0014787
 7,0.00041524,0.00048064,0.00004751,0.00003706,0.00002039,-0.00027231,-
 0.00012195,-0.00036240,-0.02031416,0.02144082,-0.00448329,0.00091477,0
 .00061144,0.00049264,0.00044543,-0.00007659,0.00169629,-0.00057414,0.0
 0072353,0.00168818,0.00002337,0.00002243,0.00003328,-0.00005406,0.0001
 0169,-0.00007416,0.09044013,-0.07925604,0.03580936,0.00009033,-0.00074
 129,0.00049383,-0.00024707,0.00002912,-0.00063076,-0.00082405,0.000422
 50,0.00148135,-0.00950560,-0.02501362,-0.00471683,0.00207017,-0.004165
 83,0.00167832,-0.00041704,0.00055168,-0.00014533,-0.00863977,-0.016511
 79,0.01732455,0.00025446,0.00003426,0.00035072,-0.00028991,0.00080510,
 0.00054295,-0.00422932,0.00255473,-0.00028024,-0.00039287,0.00072403,-
 0.00116679,-0.00007023,0.00016353,-0.00035146,0.00673226,0.02945832,-0
 .01083314,-0.03026441,-0.08971749,0.02710447,-0.00005946,0.00004595,0.
 00003707,0.00014128,0.00003239,0.00007693,0.00061309,0.00032673,-0.000
 47393,0.00013053,0.00007875,-0.00022905,0.00034194,0.00044682,-0.00013
 206,0.00032160,-0.00001546,-0.00001816,-0.00004976,-0.00008051,-0.0001
 6730,-0.00008033,-0.00010873,-0.00028414,-0.00008322,0.00016666,0.0000
 4969,-0.00026292,0.00046270,0.00014797,-0.00003081,0.00001405,-0.00000
 745,-0.00010702,0.00000444,0.00010229,0.00154955,-0.00065022,-0.000212
 31,-0.00078922,-0.00049567,-0.00157294,0.00002270,0.00003592,0.0000441
 9,0.00039624,0.00039442,0.00020100,0.00224021,-0.00334130,0.00035909,0
 .00030584,0.00044841,-0.00012485,0.00016142,0.00108745,-0.00048628,0.0
 0041803,0.00128007,-0.00018960,-0.00006149,0.00007635,-0.00016503,0.00
 018902,-0.00010877,0.00004874,-0.00006641,0.00009996,-0.00002407,0.040
 49225,0.00028787,0.00069361,-0.00009030,-0.00009224,-0.00009829,-0.000
 29308,-0.00138903,0.00067665,0.00272125,-0.01181493,-0.02080792,-0.004
 89777,0.00347716,0.00172392,0.00064033,-0.00005711,-0.00004711,-0.0000
 2532,0.00069890,0.00359971,-0.00042918,0.00016700,0.00000248,0.0000092
 1,-0.00006460,-0.00037397,-0.00021235,0.00179188,0.00019035,-0.0000677
 5,0.00015128,-0.00006668,0.00047823,0.00015377,-0.00011855,0.00009760,
 -0.00560583,-0.01205270,0.00480613,-0.08830388,-0.50028931,0.15470816,
 -0.00018997,0.00027778,0.00010398,0.00013629,-0.00002541,0.00001953,0.
 00083368,0.00000322,-0.00142614,0.00020291,0.00026332,-0.00033825,0.00
 020390,0.00038385,-0.00025255,0.00031718,-0.00026582,0.00000338,0.0000
 9367,0.00005175,0.00010434,0.00003251,0.00003721,0.00010715,-0.0000074
 3,-0.00000386,-0.00005033,0.00013808,-0.00016017,-0.00007633,0.0000177
 4,-0.00002199,0.00003991,0.00004777,-0.00001186,-0.00005640,0.00014832
 ,0.00095388,0.00000285,0.00079457,0.00129585,0.00025464,0.00013665,0.0
 0011738,0.00016999,0.00003231,-0.00030821,0.00131161,0.00020412,0.0027
 2777,-0.00103518,0.00001518,0.00007470,0.00002661,-0.00173243,0.000181
 76,0.00039078,-0.00186376,0.00134028,-0.00084170,-0.00011627,0.0000241
 9,-0.00011969,-0.00000385,0.00001971,0.00005519,-0.00004783,0.00005960
 ,0.00007736,0.10120638,0.51995286,0.00013892,0.00010720,0.00004679,0.0
 0019337,-0.00008629,-0.00034298,-0.00340549,-0.00111389,0.00469731,-0.
 01566830,-0.03294531,-0.00288313,0.00296566,-0.00393655,0.00189813,0.0
 0003784,0.00003719,-0.00006840,0.01708490,0.02748200,-0.02559558,-0.00
 072106,-0.00011740,-0.00028416,0.00028647,-0.00009539,-0.00002109,-0.0
 0076365,0.00097857,0.00046996,0.00006122,-0.00014270,-0.00018779,-0.00
 016517,0.00028679,0.00008439,0.00018345,0.00452173,-0.00065671,0.02752
 886,0.15498776,-0.05216397,-0.00007214,0.00020022,-0.00005233,0.000174
 18,0.00000323,0.00006654,0.00081489,0.00166554,-0.00010682,0.00015493,
 0.00051497,-0.00019562,0.00026763,0.00028742,-0.00015755,-0.00007969,0
 .00004461,-0.00021587,-0.00006516,-0.00001731,0.00003516,-0.00001412,0
 .00000358,-0.00001503,-0.00003012,0.00008445,0.00002677,-0.00005593,0.
 00004815,0.00006729,0.00000790,-0.00002377,0.00001129,-0.00007037,0.00
 001985,0.00002073,0.00018188,0.00057864,0.00009113,0.00361980,0.002541
 35,0.00378459,-0.00007178,-0.00009550,-0.00003560,-0.00147453,-0.00112
 975,0.00017456,-0.00421895,0.00199268,0.00070413,-0.00033174,-0.000474
 42,0.00004619,0.00054153,-0.00192707,0.00063719,0.00097615,0.00171789,
 -0.00014291,0.00004631,-0.00025750,0.00030364,-0.00023566,0.00009219,-
 0.00014536,0.00000944,0.00008270,0.00025790,-0.02783146,-0.15591588,0.
 06984721\\-0.00386915,0.00482230,-0.01782449,0.01001416,-0.10357537,-0
 .05094052,0.01232614,0.06222210,-0.07724827,0.00122309,-0.00458667,0.0
 2087915,-0.02526466,0.04968798,-0.11252915,-0.10624598,-0.01515371,0.0
 1340956,0.01122989,-0.03190955,0.00230128,-0.03082616,-0.00870953,0.10
 463429,0.10524995,-0.03876878,0.06931997,-0.02787578,0.00604483,0.0039
 2278,0.00913298,-0.12427309,0.02285302,0.11171831,-0.02296149,-0.01498
 758,0.05366356,0.07752536,0.03318142,0.04636921,0.10597620,-0.04568481
 ,0.04446959,0.08631394,-0.03489543,-0.05584052,0.01834737,0.08136208,-
 0.04328771,-0.08927845,0.03597242,0.03256150,0.02048603,0.02593995,0.0
 5107613,0.04718189,0.07136617,0.03848978,0.08859707,-0.02367317,-0.093
 90959,-0.04833947,0.00349087,-0.00756876,0.08275969,-0.05247121,0.0568
 8763,0.07243165,0.04124941,-0.05297381,0.03731132,-0.07386557,-0.07703
 557,-0.04578308,-0.04235831,-0.03286760,0.06259102,0.07174895,-0.05930
 524,-0.05842131,-0.03804009,0.01603306,0.12430542,0.03977768,0.0620227
 3,-0.05794079,-0.05278517,-0.07839511,-0.06031001,0.03102144,-0.048431
 68,0.09857654,0.05725800,0.05131803,0.00532027,-0.08492174,-0.02688134
 ,-0.10251893,0.01872798,-0.02998091,-0.09487073,0.03537493,0.07943747,
 0.05392592,-0.02843783,-0.04459170,-0.04045619,-0.08188388,0.07322030,
 -0.06567460,0.01962577,-0.02129227,-0.09089514,0.02913009\\\@
 The archive entry for this job was punched.

 Writing a WFNX file to "TUYJAY_Complex_3_Ligand_0_NN_Cu_oriented.wfx"


 If fifty million people say a stupid thing,
 it is still a stupid thing.
                   -- Anatole France
 Job cpu time:       0 days  1 hours 23 minutes 53.4 seconds.
 Elapsed time:       0 days  1 hours 24 minutes 12.4 seconds.
 File lengths (MBytes):  RWF=    576 Int=      0 D2E=      0 Chk=     16 Scr=      8
 Normal termination of Gaussian 16 at Sat Mar  4 13:02:11 2023.
