 Entering Gaussian System, Link 0=g16
 Initial command:
 /ssoft/spack/external/gaussian/g16-C.01/avx2/g16/l1.exe "/scratch/lcmd/2387840/Gau-3436361.inp" -scrdir="/scratch/lcmd/2387840/"
 Entering Link 1 = /ssoft/spack/external/gaussian/g16-C.01/avx2/g16/l1.exe PID=   3436363.
  
 Copyright (c) 1988-2019, Gaussian, Inc.  All Rights Reserved.
  
 This is part of the Gaussian(R) 16 program.  It is based on
 the Gaussian(R) 09 system (copyright 2009, Gaussian, Inc.),
 the Gaussian(R) 03 system (copyright 2003, Gaussian, Inc.),
 the Gaussian(R) 98 system (copyright 1998, Gaussian, Inc.),
 the Gaussian(R) 94 system (copyright 1995, Gaussian, Inc.),
 the Gaussian 92(TM) system (copyright 1992, Gaussian, Inc.),
 the Gaussian 90(TM) system (copyright 1990, Gaussian, Inc.),
 the Gaussian 88(TM) system (copyright 1988, Gaussian, Inc.),
 the Gaussian 86(TM) system (copyright 1986, Carnegie Mellon
 University), and the Gaussian 82(TM) system (copyright 1983,
 Carnegie Mellon University). Gaussian is a federally registered
 trademark of Gaussian, Inc.
  
 This software contains proprietary and confidential information,
 including trade secrets, belonging to Gaussian, Inc.
  
 This software is provided under written license and may be
 used, copied, transmitted, or stored only in accord with that
 written license.
  
 The following legend is applicable only to US Government
 contracts under FAR:
  
                    RESTRICTED RIGHTS LEGEND
  
 Use, reproduction and disclosure by the US Government is
 subject to restrictions as set forth in subparagraphs (a)
 and (c) of the Commercial Computer Software - Restricted
 Rights clause in FAR 52.227-19.
  
 Gaussian, Inc.
 340 Quinnipiac St., Bldg. 40, Wallingford CT 06492
  
  
 ---------------------------------------------------------------
 Warning -- This program may not be used in any manner that
 competes with the business of Gaussian, Inc. or will provide
 assistance to any competitor of Gaussian, Inc.  The licensee
 of this program is prohibited from giving any competitor of
 Gaussian, Inc. access to this program.  By using this program,
 the user acknowledges that Gaussian, Inc. is engaged in the
 business of creating and licensing software in the field of
 computational chemistry and represents and warrants to the
 licensee that it is not a competitor of Gaussian, Inc. and that
 it will not use this program in any manner prohibited above.
 ---------------------------------------------------------------
  

 Cite this work as:
 Gaussian 16, Revision C.01,
 M. J. Frisch, G. W. Trucks, H. B. Schlegel, G. E. Scuseria, 
 M. A. Robb, J. R. Cheeseman, G. Scalmani, V. Barone, 
 G. A. Petersson, H. Nakatsuji, X. Li, M. Caricato, A. V. Marenich, 
 J. Bloino, B. G. Janesko, R. Gomperts, B. Mennucci, H. P. Hratchian, 
 J. V. Ortiz, A. F. Izmaylov, J. L. Sonnenberg, D. Williams-Young, 
 F. Ding, F. Lipparini, F. Egidi, J. Goings, B. Peng, A. Petrone, 
 T. Henderson, D. Ranasinghe, V. G. Zakrzewski, J. Gao, N. Rega, 
 G. Zheng, W. Liang, M. Hada, M. Ehara, K. Toyota, R. Fukuda, 
 J. Hasegawa, M. Ishida, T. Nakajima, Y. Honda, O. Kitao, H. Nakai, 
 T. Vreven, K. Throssell, J. A. Montgomery, Jr., J. E. Peralta, 
 F. Ogliaro, M. J. Bearpark, J. J. Heyd, E. N. Brothers, K. N. Kudin, 
 V. N. Staroverov, T. A. Keith, R. Kobayashi, J. Normand, 
 K. Raghavachari, A. P. Rendell, J. C. Burant, S. S. Iyengar, 
 J. Tomasi, M. Cossi, J. M. Millam, M. Klene, C. Adamo, R. Cammi, 
 J. W. Ochterski, R. L. Martin, K. Morokuma, O. Farkas, 
 J. B. Foresman, and D. J. Fox, Gaussian, Inc., Wallingford CT, 2019.
 
 ******************************************
 Gaussian 16:  ES64L-G16RevC.01  3-Jul-2019
                 6-Mar-2023 
 ******************************************
 %nprocshared=1
 Will use up to    1 processors via shared memory.
 %mem=8000MB
 %chk=UCEGEP_Complex_3_Ligand_0_NN_Cu_oriented.chk
 ----------------------------------------------------------------------
 #p pop=(regular,nbo,savenbos) freq=noraman def2svp empiricaldispersion
 =gd3bj output=wfx pbe1pbe
 ----------------------------------------------------------------------
 1/10=4,30=1,38=1/1,3;
 2/12=2,17=6,18=5,40=1/2;
 3/5=43,7=101,11=2,25=1,30=1,71=2,74=-13,124=41,140=1/1,2,3;
 4//1;
 5/5=2,38=5,98=1/2;
 8/6=4,10=90,11=11/1;
 11/6=1,8=1,9=11,15=111,16=1/1,2,10;
 10/6=1/2;
 6/28=1,40=1,73=1/1,7;
 7/8=1,10=1,25=1/1,2,3,16;
 1/10=4,30=1/3;
 99/6=200/99;
 Leave Link    1 at Mon Mar  6 10:21:43 2023, MaxMem=  1048576000 cpu:               0.0 elap:               0.2
 (Enter /ssoft/spack/external/gaussian/g16-C.01/avx2/g16/l101.exe)
 ----------------------------------------
 UCEGEP_Complex_3_Ligand_0_NN_Cu_oriented
 ----------------------------------------
 Symbolic Z-matrix:
 Charge = -1 Multiplicity = 1
 S                     2.61114   1.65527  -0.1507 
 O                     3.11365   1.83623  -1.47721 
 N                     1.86993   0.24211   0. 
 N                     0.54191  -1.9405    0. 
 C                    -0.27256  -3.07128   0.0956 
 H                    -1.19716  -2.99672   0.16353 
 C                     0.35519  -4.31523   0.08488 
 H                    -0.16663  -5.07663   0.20727 
 C                     1.67442  -4.46362  -0.09331 
 H                     2.07236  -5.30377  -0.10584 
 C                     2.36111  -3.39822  -0.2452 
 H                     3.27642  -3.4744   -0.38249 
 C                     1.81621  -2.17796  -0.2135 
 C                     2.71177  -0.86173  -0.35484 
 H                     3.47789  -0.90762   0.2388 
 H                     3.03171  -0.7644   -1.26608 
 C                     4.00116   1.576     0.97544 
 C                     3.76649   1.61044   2.31255 
 C                     4.78915   1.54508   3.21068 
 H                     4.57907   1.51601   4.11684 
 C                     6.16726   1.51746   2.82967 
 C                     6.35769   1.52248   1.5653 
 H                     7.24137   1.48535   1.27858 
 C                     5.3616    1.57988   0.54892 
 C                     7.36598   1.47014   3.76457 
 H                     7.07046   1.58355   4.67034 
 H                     7.9768    2.17365   3.53755 
 H                     7.80697   0.62227   3.67557 
 C                     2.37707   1.67483   2.97346 
 H                     1.81828   0.98509   2.60983 
 H                     1.97999   2.53156   2.80149 
 H                     2.46743   1.54846   3.921 
 C                     5.7725    1.54014  -0.88149 
 H                     6.72138   1.40197  -0.93756 
 H                     5.5452    2.37205  -1.30248 
 H                     5.31864   0.82087  -1.32629 
 O                     1.70354   2.63066   0.28072 
 
 ITRead=  0  0  0  0  0  0  0  0  0  0  0  0  0  0  0  0  0  0  0  0
 ITRead=  0  0  0  0  0  0  0  0  0  0  0  0  0  0  0  0  0
 MicOpt= -1 -1 -1 -1 -1 -1 -1 -1 -1 -1 -1 -1 -1 -1 -1 -1 -1 -1 -1 -1
 MicOpt= -1 -1 -1 -1 -1 -1 -1 -1 -1 -1 -1 -1 -1 -1 -1 -1 -1
 NAtoms=     37 NQM=       37 NQMF=       0 NMMI=      0 NMMIF=      0
                NMic=       0 NMicF=      0.
                    Isotopes and Nuclear Properties:
 (Nuclear quadrupole moments (NQMom) in fm**2, nuclear magnetic moments (NMagM)
  in nuclear magnetons)

  Atom         1           2           3           4           5           6           7           8           9          10
 IAtWgt=          32          16          14          14          12           1          12           1          12           1
 AtmWgt=  31.9720718  15.9949146  14.0030740  14.0030740  12.0000000   1.0078250  12.0000000   1.0078250  12.0000000   1.0078250
 NucSpn=           0           0           2           2           0           1           0           1           0           1
 AtZEff=  -0.0000000  -0.0000000  -0.0000000  -0.0000000  -0.0000000  -0.0000000  -0.0000000  -0.0000000  -0.0000000  -0.0000000
 NQMom=    0.0000000   0.0000000   2.0440000   2.0440000   0.0000000   0.0000000   0.0000000   0.0000000   0.0000000   0.0000000
 NMagM=    0.0000000   0.0000000   0.4037610   0.4037610   0.0000000   2.7928460   0.0000000   2.7928460   0.0000000   2.7928460
 AtZNuc=  16.0000000   8.0000000   7.0000000   7.0000000   6.0000000   1.0000000   6.0000000   1.0000000   6.0000000   1.0000000

  Atom        11          12          13          14          15          16          17          18          19          20
 IAtWgt=          12           1          12          12           1           1          12          12          12           1
 AtmWgt=  12.0000000   1.0078250  12.0000000  12.0000000   1.0078250   1.0078250  12.0000000  12.0000000  12.0000000   1.0078250
 NucSpn=           0           1           0           0           1           1           0           0           0           1
 AtZEff=  -0.0000000  -0.0000000  -0.0000000  -0.0000000  -0.0000000  -0.0000000  -0.0000000  -0.0000000  -0.0000000  -0.0000000
 NQMom=    0.0000000   0.0000000   0.0000000   0.0000000   0.0000000   0.0000000   0.0000000   0.0000000   0.0000000   0.0000000
 NMagM=    0.0000000   2.7928460   0.0000000   0.0000000   2.7928460   2.7928460   0.0000000   0.0000000   0.0000000   2.7928460
 AtZNuc=   6.0000000   1.0000000   6.0000000   6.0000000   1.0000000   1.0000000   6.0000000   6.0000000   6.0000000   1.0000000

  Atom        21          22          23          24          25          26          27          28          29          30
 IAtWgt=          12          12           1          12          12           1           1           1          12           1
 AtmWgt=  12.0000000  12.0000000   1.0078250  12.0000000  12.0000000   1.0078250   1.0078250   1.0078250  12.0000000   1.0078250
 NucSpn=           0           0           1           0           0           1           1           1           0           1
 AtZEff=  -0.0000000  -0.0000000  -0.0000000  -0.0000000  -0.0000000  -0.0000000  -0.0000000  -0.0000000  -0.0000000  -0.0000000
 NQMom=    0.0000000   0.0000000   0.0000000   0.0000000   0.0000000   0.0000000   0.0000000   0.0000000   0.0000000   0.0000000
 NMagM=    0.0000000   0.0000000   2.7928460   0.0000000   0.0000000   2.7928460   2.7928460   2.7928460   0.0000000   2.7928460
 AtZNuc=   6.0000000   6.0000000   1.0000000   6.0000000   6.0000000   1.0000000   1.0000000   1.0000000   6.0000000   1.0000000

  Atom        31          32          33          34          35          36          37
 IAtWgt=           1           1          12           1           1           1          16
 AtmWgt=   1.0078250   1.0078250  12.0000000   1.0078250   1.0078250   1.0078250  15.9949146
 NucSpn=           1           1           0           1           1           1           0
 AtZEff=  -0.0000000  -0.0000000  -0.0000000  -0.0000000  -0.0000000  -0.0000000  -0.0000000
 NQMom=    0.0000000   0.0000000   0.0000000   0.0000000   0.0000000   0.0000000   0.0000000
 NMagM=    2.7928460   2.7928460   0.0000000   2.7928460   2.7928460   2.7928460   0.0000000
 AtZNuc=   1.0000000   1.0000000   6.0000000   1.0000000   1.0000000   1.0000000   8.0000000
 Leave Link  101 at Mon Mar  6 10:21:43 2023, MaxMem=  1048576000 cpu:               0.1 elap:               0.1
 (Enter /ssoft/spack/external/gaussian/g16-C.01/avx2/g16/l103.exe)

 GradGradGradGradGradGradGradGradGradGradGradGradGradGradGradGradGradGrad
 Berny optimization.
 Initialization pass.
 Trust Radius=3.00D-01 FncErr=1.00D-07 GrdErr=1.00D-07 EigMax=2.50D+02 EigMin=1.00D-04
 Number of steps in this run=      2 maximum allowed number of steps=      2.
 GradGradGradGradGradGradGradGradGradGradGradGradGradGradGradGradGradGrad

 Leave Link  103 at Mon Mar  6 10:21:43 2023, MaxMem=  1048576000 cpu:               0.0 elap:               0.0
 (Enter /ssoft/spack/external/gaussian/g16-C.01/avx2/g16/l202.exe)
                          Input orientation:                          
 ---------------------------------------------------------------------
 Center     Atomic      Atomic             Coordinates (Angstroms)
 Number     Number       Type             X           Y           Z
 ---------------------------------------------------------------------
      1         16           0        2.611140    1.655271   -0.150699
      2          8           0        3.113653    1.836228   -1.477206
      3          7           0        1.869926    0.242111    0.000000
      4          7           0        0.541906   -1.940502    0.000000
      5          6           0       -0.272564   -3.071282    0.095597
      6          1           0       -1.197159   -2.996724    0.163531
      7          6           0        0.355194   -4.315232    0.084884
      8          1           0       -0.166628   -5.076632    0.207271
      9          6           0        1.674421   -4.463623   -0.093313
     10          1           0        2.072360   -5.303774   -0.105841
     11          6           0        2.361112   -3.398217   -0.245197
     12          1           0        3.276423   -3.474401   -0.382490
     13          6           0        1.816209   -2.177957   -0.213503
     14          6           0        2.711769   -0.861729   -0.354837
     15          1           0        3.477892   -0.907616    0.238804
     16          1           0        3.031713   -0.764398   -1.266076
     17          6           0        4.001156    1.575997    0.975435
     18          6           0        3.766489    1.610442    2.312546
     19          6           0        4.789152    1.545078    3.210679
     20          1           0        4.579068    1.516014    4.116843
     21          6           0        6.167261    1.517463    2.829669
     22          6           0        6.357694    1.522479    1.565301
     23          1           0        7.241367    1.485346    1.278581
     24          6           0        5.361604    1.579878    0.548922
     25          6           0        7.365981    1.470137    3.764568
     26          1           0        7.070463    1.583547    4.670340
     27          1           0        7.976795    2.173654    3.537546
     28          1           0        7.806967    0.622267    3.675567
     29          6           0        2.377074    1.674833    2.973457
     30          1           0        1.818282    0.985087    2.609829
     31          1           0        1.979991    2.531563    2.801491
     32          1           0        2.467434    1.548464    3.921005
     33          6           0        5.772500    1.540138   -0.881493
     34          1           0        6.721377    1.401971   -0.937562
     35          1           0        5.545202    2.372046   -1.302476
     36          1           0        5.318639    0.820875   -1.326287
     37          8           0        1.703535    2.630661    0.280716
 ---------------------------------------------------------------------
                    Distance matrix (angstroms):
                    1          2          3          4          5
     1  S    0.000000
     2  O    1.429995   0.000000
     3  N    1.602851   2.504038   0.000000
     4  N    4.151388   4.802053   2.554885   0.000000
     5  C    5.542266   6.166347   3.946894   1.396841   0.000000
     6  H    6.020210   6.680759   4.463609   2.041248   0.930080
     7  C    6.386837   6.920237   4.803227   2.383570   1.393415
     8  H    7.291272   7.834879   5.699082   3.221845   2.011248
     9  C    6.190445   6.608682   4.710718   2.767208   2.401053
    10  H    6.980015   7.344696   5.550587   3.696632   3.243958
    11  C    5.060552   5.429878   3.681490   2.344049   2.675682
    12  H    5.177824   5.424728   3.992116   3.158595   3.603662
    13  C    3.915290   4.403861   2.430061   1.313703   2.292715
    14  C    2.527269   2.949609   1.432854   2.449074   3.740489
    15  H    2.733379   3.256692   1.991093   3.121521   4.332191
    16  H    2.697359   2.610468   1.991421   3.030727   4.253717
    17  C    1.790700   2.621227   2.696825   5.028285   6.374637
    18  C    2.721106   3.852194   3.288944   5.324942   6.568665
    19  C    4.006837   4.986816   4.530791   6.363712   7.525655
    20  H    4.701495   5.791664   5.090253   6.722691   7.794360
    21  C    4.641937   5.289169   5.301003   7.183952   8.366784
    22  C    4.122979   4.458598   4.922354   6.947359   8.198963
    23  H    4.848785   4.975491   5.659751   7.632430   8.866875
    24  C    2.839050   3.037136   3.779253   5.993653   7.320016
    25  C    6.162151   6.759624   6.773967   8.507198   9.614219
    26  H    6.567581   7.315225   7.117381   8.766587   9.824243
    27  H    6.531625   6.993693   7.317031   9.204243  10.363797
    28  H    6.534832   7.074742   6.993051   8.535731   9.577960
    29  C    3.132973   4.514090   3.339362   5.027915   6.150469
    30  H    2.949286   4.371074   2.714017   4.123035   5.210291
    31  H    3.143511   4.480617   3.619676   5.469534   6.617231
    32  H    4.075639   5.444363   4.175865   5.590601   6.594193
    33  C    3.246769   2.740804   4.206184   6.344367   7.665683
    34  H    4.192536   3.673617   5.075517   7.087807   8.366159
    35  H    3.232503   2.496009   4.443053   6.732569   8.088932
    36  H    3.067372   2.432217   3.740003   5.674629   6.959324
    37  O    1.400446   2.389528   2.410738   4.724798   6.037498
                    6          7          8          9         10
     6  H    0.000000
     7  C    2.038247   0.000000
     8  H    2.321621   0.931132   0.000000
     9  C    3.234770   1.339453   1.963566   0.000000
    10  H    4.010585   1.990540   2.272157   0.929712   0.000000
    11  C    3.604101   2.230151   3.067779   1.276599   1.932342
    12  H    4.532024   3.075550   3.843118   1.904887   2.207467
    13  C    3.145301   2.606058   3.537090   2.293212   3.138142
    14  C    4.484041   4.203983   5.134835   3.757410   4.494731
    15  H    5.121145   4.624583   5.537527   4.000999   4.628229
    16  H    4.991033   4.647285   5.567359   4.111190   4.782514
    17  C    6.970756   6.985176   7.887836   6.559949   7.226386
    18  C    7.105072   7.191177   8.038566   6.859969   7.518315
    19  C    8.108575   7.985850   8.799275   7.531428   8.080040
    20  H    8.328162   8.252347   9.014952   7.868827   8.403818
    21  C    9.039958   8.679532   9.511950   8.031364   8.480254
    22  C    8.914256   8.502970   9.378661   7.779297   8.231315
    23  H    9.619824   9.082455   9.954177   8.262156   8.644502
    24  C    8.006945   7.748018   8.659514   7.108564   7.657186
    25  C   10.307651   9.806207  10.595033   9.082213   9.428062
    26  H   10.471092  10.045737  10.800576   9.400953   9.758490
    27  H   11.057948  10.588452  11.400557   9.846649  10.200419
    28  H   10.320164   9.633318  10.396381   8.813561   9.072085
    29  C    6.518762   6.950735   7.726867   6.897785   7.633864
    30  H    5.561661   6.050566   6.815906   6.084087   6.854866
    31  H    6.900367   7.543110   8.320010   7.576668   8.357848
    32  H    6.943096   7.318491   8.038780   7.272469   7.957684
    33  C    8.381606   8.035324   8.957694   7.311677   7.818683
    34  H    9.124918   8.617429   9.525100   7.783940   8.201959
    35  H    8.742556   8.577915   9.507214   7.948043   8.509452
    36  H    7.697352   7.280575   8.198813   6.536549   7.038405
    37  O    6.332078   7.078262   7.931283   7.104197   7.952403
                   11         12         13         14         15
    11  C    0.000000
    12  H    0.928680   0.000000
    13  C    1.336771   1.959986   0.000000
    14  C    2.562957   2.673135   1.598268   0.000000
    15  H    2.772101   2.648580   2.139985   0.970289   0.000000
    16  H    2.903257   2.860895   2.140913   0.970667   1.576151
    17  C    5.377963   5.279745   4.503303   3.061805   2.642871
    18  C    5.796878   5.775726   4.953432   3.786687   3.274800
    19  C    6.501893   6.355657   5.867232   4.777149   4.070277
    20  H    6.935156   6.844349   6.326983   5.397814   4.703803
    21  C    6.935811   6.602545   6.469055   5.267073   4.452673
    22  C    6.592710   6.185219   6.122292   4.760688   3.994774
    23  H    7.070218   6.563462   6.714049   5.356686   4.579427
    24  C    5.866430   5.546281   5.222302   3.714815   3.135629
    25  C    8.051570   7.640093   7.741680   6.638433   5.762114
    26  H    8.435547   8.093742   8.099878   7.087312   6.225028
    27  H    8.768739   8.328307   8.423759   7.216973   6.373073
    28  H    7.822661   7.333236   7.671722   6.663892   5.735223
    29  C    6.007979   6.211748   5.031429   4.198060   3.919078
    30  H    5.259200   5.564815   4.239818   3.605314   3.458090
    31  H    6.677563   6.920265   5.594336   4.691730   4.543019
    32  H    6.468245   6.663610   5.603969   4.914423   4.540039
    33  C    6.035709   5.623611   5.470163   3.926119   3.537201
    34  H    6.521739   5.996233   6.115621   4.641214   4.151895
    35  H    6.674743   6.338349   5.982790   4.402688   4.171990
    36  H    5.264642   4.848793   4.743237   3.251252   2.970781
    37  O    6.087393   6.339210   4.835261   3.690155   3.958472
                   16         17         18         19         20
    16  H    0.000000
    17  C    3.382550   0.000000
    18  C    4.357328   1.357984   0.000000
    19  C    5.335130   2.370276   1.362628   0.000000
    20  H    6.047348   3.194687   1.981083   0.930652   0.000000
    21  C    5.640362   2.851950   2.457593   1.430075   2.044303
    22  C    4.930381   2.429831   2.698232   2.273347   3.110293
    23  H    5.409050   3.255624   3.627604   3.122488   3.891595
    24  C    3.770709   1.425745   2.378171   2.722841   3.653286
    25  C    7.006169   4.371786   3.883863   2.636751   2.809464
    26  H    7.554164   4.803439   4.059083   2.708592   2.553031
    27  H    7.494050   4.767317   4.420917   3.265428   3.508935
    28  H    7.010402   4.762826   4.377189   3.189814   3.378290
    29  C    4.934779   2.576723   1.539943   2.427186   2.486229
    30  H    4.422189   2.790225   2.067596   3.082317   3.189814
    31  H    5.339904   2.886640   2.068599   3.005324   3.084914
    32  H    5.707324   3.321060   2.068459   2.427952   2.120944
    33  C    3.601486   2.566540   3.772388   4.208667   5.138894
    34  H    4.291235   3.330082   4.397502   4.578415   5.490857
    35  H    4.019482   2.864725   4.100274   4.650167   5.570927
    36  H    2.783298   2.757516   4.034067   4.624812   5.536953
    37  O    3.960182   2.621833   3.070010   4.391378   4.922093
                   21         22         23         24         25
    21  C    0.000000
    22  C    1.278639   0.000000
    23  H    1.886958   0.929766   0.000000
    24  C    2.419666   1.424260   2.018625   0.000000
    25  C    1.520923   2.419950   2.489154   3.790771   0.000000
    26  H    2.051392   3.186383   3.397481   4.461647   0.959487
    27  H    2.050876   2.633489   2.473367   4.015428   0.958942
    28  H    2.050745   2.713668   2.609664   4.083225   0.959829
    29  C    3.796177   4.225098   5.154596   3.846402   5.055389
    30  H    4.386954   4.688933   5.606454   4.142009   5.687324
    31  H    4.308412   4.659474   5.576369   4.173137   5.573421
    32  H    3.857550   4.547982   5.456815   4.443889   4.901670
    33  C    3.732168   2.515863   2.612756   1.488793   4.912226
    34  H    3.809517   2.532017   2.277857   2.022441   4.746598
    35  H    4.265195   3.099363   3.213264   2.022106   5.459268
    36  H    4.298531   3.151693   3.305109   2.023448   5.525392
    37  O    5.259393   4.953728   5.742391   3.815435   6.748876
                   26         27         28         29         30
    26  H    0.000000
    27  H    1.566169   0.000000
    28  H    1.567186   1.566746   0.000000
    29  C    4.991558   5.650124   5.575356   0.000000
    30  H    5.673558   6.340397   6.093585   0.959282   0.000000
    31  H    5.504928   6.052399   6.193793   0.959809   1.566676
    32  H    4.663755   5.557964   5.424823   0.960198   1.567792
    33  C    5.701706   4.978772   5.074282   5.138843   5.304079
    34  H    5.621690   4.711493   4.802854   5.851794   6.066145
    35  H    6.214715   5.420130   5.740924   5.367192   5.578505
    36  H    6.293655   5.705496   5.590149   5.279190   5.269959
    37  O    7.012072   7.083049   7.267086   2.935663   2.854093
                   31         32         33         34         35
    31  H    0.000000
    32  H    1.567608   0.000000
    33  C    5.378700   5.829882   0.000000
    34  H    6.143063   6.459347   0.960521   0.000000
    35  H    5.438632   6.118472   0.959667   1.567671   0.000000
    36  H    5.577774   6.016047   0.959776   1.567308   1.567810
    37  O    2.537825   3.873809   4.369947   5.307788   4.163145
                   36         37
    36  H    0.000000
    37  O    4.350489   0.000000
 Stoichiometry    C15H17N2O2S(1-)
 Framework group  C1[X(C15H17N2O2S)]
 Deg. of freedom   105
 Full point group                 C1      NOp   1
 Largest Abelian subgroup         C1      NOp   1
 Largest concise Abelian subgroup C1      NOp   1
                         Standard orientation:                         
 ---------------------------------------------------------------------
 Center     Atomic      Atomic             Coordinates (Angstroms)
 Number     Number       Type             X           Y           Z
 ---------------------------------------------------------------------
      1         16           0        0.383986    1.799767    0.028229
      2          8           0        0.435234    2.425762   -1.256446
      3          7           0       -1.036999    1.100617    0.275457
      4          7           0       -3.421317    0.237051    0.586451
      5          6           0       -4.709880   -0.203968    0.896726
      6          1           0       -5.238634    0.245500    1.515957
      7          6           0       -5.171591   -1.343762    0.241515
      8          1           0       -6.004373   -1.685620    0.479451
      9          6           0       -4.471031   -1.968445   -0.714059
     10          1           0       -4.801404   -2.723006   -1.145171
     11          6           0       -3.328153   -1.480367   -1.006144
     12          1           0       -2.827569   -1.887890   -1.673817
     13          6           0       -2.822715   -0.407559   -0.389238
     14          6           0       -1.366059    0.147321   -0.742392
     15          1           0       -0.720083   -0.576642   -0.749637
     16          1           0       -1.366073    0.570846   -1.615789
     17          6           0        1.573640    0.461606    0.053881
     18          6           0        1.849862   -0.149641    1.234643
     19          6           0        2.741285   -1.177775    1.305777
     20          1           0        2.858770   -1.603710    2.124855
     21          6           0        3.502880   -1.634695    0.184923
     22          6           0        3.247411   -1.016181   -0.904615
     23          1           0        3.709388   -1.298787   -1.660376
     24          6           0        2.331917    0.059901   -1.084712
     25          6           0        4.532493   -2.754115    0.183643
     26          1           0        4.693568   -3.042213    1.084571
     27          1           0        5.351139   -2.435447   -0.200856
     28          1           0        4.201584   -3.491626   -0.333897
     29          6           0        1.191280    0.181663    2.586654
     30          1           0        0.237233    0.177174    2.486672
     31          1           0        1.477903    1.050010    2.878294
     32          1           0        1.448879   -0.475610    3.237512
     33          6           0        2.138360    0.636373   -2.443653
     34          1           0        2.642178    0.125392   -3.082140
     35          1           0        2.442707    1.546472   -2.451002
     36          1           0        1.207410    0.607454   -2.675313
     37          8           0        0.603969    2.653692    1.116194
 ---------------------------------------------------------------------
 Rotational constants (GHZ):           0.5026539           0.1895275           0.1723866
 Leave Link  202 at Mon Mar  6 10:21:43 2023, MaxMem=  1048576000 cpu:               0.0 elap:               0.0
 (Enter /ssoft/spack/external/gaussian/g16-C.01/avx2/g16/l301.exe)
 Standard basis: def2SVP (5D, 7F)
 Ernie: Thresh=  0.10000D-02 Tol=  0.10000D-05 Strict=F.
 There are   389 symmetry adapted cartesian basis functions of A   symmetry.
 There are   369 symmetry adapted basis functions of A   symmetry.
   369 basis functions,   631 primitive gaussians,   389 cartesian basis functions
    77 alpha electrons       77 beta electrons
       nuclear repulsion energy      1727.6021426811 Hartrees.
 IExCor= 1009 DFT=T Ex+Corr=PBE1PBE ExCW=0 ScaHFX=  0.250000
 ScaDFX=  0.750000  0.750000  1.000000  1.000000 ScalE2=  1.000000  1.000000
 IRadAn=      5 IRanWt=     -1 IRanGd=            0 ICorTp=0 IEmpDi=141
 NAtoms=   37 NActive=   37 NUniq=   37 SFac= 1.00D+00 NAtFMM=   60 NAOKFM=F Big=F
 Integral buffers will be    131072 words long.
 Raffenetti 2 integral format.
 Two-electron integral symmetry is turned on.
 R6Disp:  Grimme-D3(BJ) Dispersion energy=       -0.0452409621 Hartrees.
 Nuclear repulsion after empirical dispersion term =     1727.5569017190 Hartrees.
 Leave Link  301 at Mon Mar  6 10:21:43 2023, MaxMem=  1048576000 cpu:               0.1 elap:               0.1
 (Enter /ssoft/spack/external/gaussian/g16-C.01/avx2/g16/l302.exe)
 NPDir=0 NMtPBC=     1 NCelOv=     1 NCel=       1 NClECP=     1 NCelD=      1
         NCelK=      1 NCelE2=     1 NClLst=     1 CellRange=     0.0.
 One-electron integrals computed using PRISM.
 One-electron integral symmetry used in STVInt
   1 Symmetry operations used in ECPInt.
 ECPInt:  NShTT=   15051 NPrTT=   55267 LenC2=   13520 LenP2D=   34500.
 LDataN:  DoStor=T MaxTD1= 4 Len=   56
 NBasis=   369 RedAO= T EigKep=  1.94D-04  NBF=   369
 NBsUse=   369 1.00D-06 EigRej= -1.00D+00 NBFU=   369
 Precomputing XC quadrature grid using
 IXCGrd= 4 IRadAn=           5 IRanWt=          -1 IRanGd=           0 AccXCQ= 0.00D+00.
 Generated NRdTot=       0 NPtTot=           0 NUsed=           0 NTot=          32
 NSgBfM=   387   387   387   387   387 MxSgAt=    37 MxSgA2=    37.
 Leave Link  302 at Mon Mar  6 10:21:44 2023, MaxMem=  1048576000 cpu:               1.3 elap:               1.3
 (Enter /ssoft/spack/external/gaussian/g16-C.01/avx2/g16/l303.exe)
 DipDrv:  MaxL=1.
 Leave Link  303 at Mon Mar  6 10:21:44 2023, MaxMem=  1048576000 cpu:               0.1 elap:               0.1
 (Enter /ssoft/spack/external/gaussian/g16-C.01/avx2/g16/l401.exe)
 ExpMin= 1.22D-01 ExpMax= 9.18D+03 ExpMxC= 1.38D+03 IAcc=3 IRadAn=         5 AccDes= 0.00D+00
 Harris functional with IExCor= 1009 and IRadAn=       5 diagonalized for initial guess.
 HarFok:  IExCor= 1009 AccDes= 0.00D+00 IRadAn=         5 IDoV= 1 UseB2=F ITyADJ=14
 ICtDFT=  3500011 ScaDFX=  1.000000  1.000000  1.000000  1.000000
 FoFCou: FMM=F IPFlag=           0 FMFlag=      100000 FMFlg1=           0
         NFxFlg=           0 DoJE=T BraDBF=F KetDBF=T FulRan=T
         wScrn=  0.000000 ICntrl=       500 IOpCl=  0 I1Cent=   200000004 NGrid=           0
         NMat0=    1 NMatS0=      1 NMatT0=    0 NMatD0=    1 NMtDS0=    0 NMtDT0=    0
 Petite list used in FoFCou.
 Harris En= -1238.36851700650    
 JPrj=0 DoOrth=F DoCkMO=F.
 Leave Link  401 at Mon Mar  6 10:21:55 2023, MaxMem=  1048576000 cpu:              10.3 elap:              10.4
 (Enter /ssoft/spack/external/gaussian/g16-C.01/avx2/g16/l502.exe)
 Integral symmetry usage will be decided dynamically.
 Closed shell SCF:
 Using DIIS extrapolation, IDIIS=  1040.
 NGot=  1048576000 LenX=  1048265984 LenY=  1048114222
 Requested convergence on RMS density matrix=1.00D-08 within 128 cycles.
 Requested convergence on MAX density matrix=1.00D-06.
 Requested convergence on             energy=1.00D-06.
 No special actions if energy rises.
 Fock matrices will be formed incrementally for  20 cycles.
 Integral accuracy reduced to 1.0D-05 until final iterations.

 Cycle   1  Pass 0  IDiag  1:
 FoFJK:  IHMeth= 1 ICntrl=       0 DoSepK=F KAlg= 0 I1Cent=           0 FoldK=F
 IRaf= 830000000 NMat=       1 IRICut=       1 DoRegI=T DoRafI=F ISym2E= 0 IDoP0=0 IntGTp=1.
 FoFCou: FMM=F IPFlag=           0 FMFlag=      100000 FMFlg1=           0
         NFxFlg=           0 DoJE=F BraDBF=F KetDBF=F FulRan=T
         wScrn=  0.000000 ICntrl=         0 IOpCl=  0 I1Cent=           0 NGrid=           0
         NMat0=    1 NMatS0=      1 NMatT0=    0 NMatD0=    1 NMtDS0=    0 NMtDT0=    0
 Symmetry not used in FoFCou.
 E= -1236.99342253269    
 DIIS: error= 2.63D-02 at cycle   1 NSaved=   1.
 NSaved= 1 IEnMin= 1 EnMin= -1236.99342253269     IErMin= 1 ErrMin= 2.63D-02
 ErrMax= 2.63D-02  0.00D+00 EMaxC= 1.00D-01 BMatC= 7.83D-01 BMatP= 7.83D-01
 IDIUse=3 WtCom= 7.37D-01 WtEn= 2.63D-01
 Coeff-Com:  0.100D+01
 Coeff-En:   0.100D+01
 Coeff:      0.100D+01
 Gap=     0.088 Goal=   None    Shift=    0.000
 GapD=    0.088 DampG=0.500 DampE=0.500 DampFc=0.2500 IDamp=-1.
 Damping current iteration by 2.50D-01
 RMSDP=6.93D-03 MaxDP=3.98D-01              OVMax= 2.73D-01

 Cycle   2  Pass 0  IDiag  1:
 RMSU=  1.73D-03    CP:  9.93D-01
 E= -1237.25849418998     Delta-E=       -0.265071657290 Rises=F Damp=T
 DIIS: error= 1.55D-02 at cycle   2 NSaved=   2.
 NSaved= 2 IEnMin= 2 EnMin= -1237.25849418998     IErMin= 2 ErrMin= 1.55D-02
 ErrMax= 1.55D-02  0.00D+00 EMaxC= 1.00D-01 BMatC= 1.93D-01 BMatP= 7.83D-01
 IDIUse=3 WtCom= 8.45D-01 WtEn= 1.55D-01
 Coeff-Com: -0.803D+00 0.180D+01
 Coeff-En:   0.000D+00 0.100D+01
 Coeff:     -0.678D+00 0.168D+01
 Gap=     0.146 Goal=   None    Shift=    0.000
 RMSDP=2.60D-03 MaxDP=1.07D-01 DE=-2.65D-01 OVMax= 2.42D-01

 Cycle   3  Pass 0  IDiag  1:
 RMSU=  2.25D-03    CP:  9.53D-01  1.59D+00
 E= -1237.68991110653     Delta-E=       -0.431416916552 Rises=F Damp=F
 DIIS: error= 8.14D-03 at cycle   3 NSaved=   3.
 NSaved= 3 IEnMin= 3 EnMin= -1237.68991110653     IErMin= 3 ErrMin= 8.14D-03
 ErrMax= 8.14D-03  0.00D+00 EMaxC= 1.00D-01 BMatC= 5.34D-02 BMatP= 1.93D-01
 IDIUse=3 WtCom= 9.19D-01 WtEn= 8.14D-02
 Coeff-Com: -0.450D+00 0.963D+00 0.487D+00
 Coeff-En:   0.000D+00 0.000D+00 0.100D+01
 Coeff:     -0.413D+00 0.885D+00 0.528D+00
 Gap=     0.120 Goal=   None    Shift=    0.000
 RMSDP=1.22D-03 MaxDP=5.35D-02 DE=-4.31D-01 OVMax= 6.08D-02

 Cycle   4  Pass 0  IDiag  1:
 RMSU=  8.33D-04    CP:  9.62D-01  1.76D+00  6.32D-01
 E= -1237.73830255683     Delta-E=       -0.048391450302 Rises=F Damp=F
 DIIS: error= 4.03D-03 at cycle   4 NSaved=   4.
 NSaved= 4 IEnMin= 4 EnMin= -1237.73830255683     IErMin= 4 ErrMin= 4.03D-03
 ErrMax= 4.03D-03  0.00D+00 EMaxC= 1.00D-01 BMatC= 5.60D-03 BMatP= 5.34D-02
 IDIUse=3 WtCom= 9.60D-01 WtEn= 4.03D-02
 Coeff-Com: -0.120D+00 0.256D+00 0.266D+00 0.598D+00
 Coeff-En:   0.000D+00 0.000D+00 0.493D-01 0.951D+00
 Coeff:     -0.115D+00 0.245D+00 0.257D+00 0.613D+00
 Gap=     0.128 Goal=   None    Shift=    0.000
 RMSDP=4.19D-04 MaxDP=1.97D-02 DE=-4.84D-02 OVMax= 2.61D-02

 Cycle   5  Pass 0  IDiag  1:
 RMSU=  2.38D-04    CP:  9.60D-01  1.68D+00  7.23D-01  7.15D-01
 E= -1237.74279123094     Delta-E=       -0.004488674108 Rises=F Damp=F
 DIIS: error= 1.67D-03 at cycle   5 NSaved=   5.
 NSaved= 5 IEnMin= 5 EnMin= -1237.74279123094     IErMin= 5 ErrMin= 1.67D-03
 ErrMax= 1.67D-03  0.00D+00 EMaxC= 1.00D-01 BMatC= 1.23D-03 BMatP= 5.60D-03
 IDIUse=3 WtCom= 9.83D-01 WtEn= 1.67D-02
 Coeff-Com: -0.243D-01 0.483D-01 0.938D-01 0.384D+00 0.498D+00
 Coeff-En:   0.000D+00 0.000D+00 0.000D+00 0.195D+00 0.805D+00
 Coeff:     -0.239D-01 0.475D-01 0.922D-01 0.381D+00 0.504D+00
 Gap=     0.126 Goal=   None    Shift=    0.000
 RMSDP=1.40D-04 MaxDP=3.51D-03 DE=-4.49D-03 OVMax= 8.66D-03

 Cycle   6  Pass 0  IDiag  1:
 RMSU=  6.98D-05    CP:  9.60D-01  1.70D+00  7.13D-01  7.76D-01  5.71D-01
 E= -1237.74401198254     Delta-E=       -0.001220751603 Rises=F Damp=F
 DIIS: error= 3.41D-04 at cycle   6 NSaved=   6.
 NSaved= 6 IEnMin= 6 EnMin= -1237.74401198254     IErMin= 6 ErrMin= 3.41D-04
 ErrMax= 3.41D-04  0.00D+00 EMaxC= 1.00D-01 BMatC= 4.97D-05 BMatP= 1.23D-03
 IDIUse=3 WtCom= 9.97D-01 WtEn= 3.41D-03
 Coeff-Com: -0.581D-02 0.972D-02 0.267D-01 0.146D+00 0.252D+00 0.571D+00
 Coeff-En:   0.000D+00 0.000D+00 0.000D+00 0.000D+00 0.000D+00 0.100D+01
 Coeff:     -0.579D-02 0.969D-02 0.266D-01 0.146D+00 0.251D+00 0.572D+00
 Gap=     0.127 Goal=   None    Shift=    0.000
 RMSDP=3.28D-05 MaxDP=1.19D-03 DE=-1.22D-03 OVMax= 2.91D-03

 Cycle   7  Pass 0  IDiag  1:
 RMSU=  2.15D-05    CP:  9.60D-01  1.70D+00  7.13D-01  7.78D-01  6.19D-01
                    CP:  6.90D-01
 E= -1237.74405106408     Delta-E=       -0.000039081536 Rises=F Damp=F
 DIIS: error= 1.34D-04 at cycle   7 NSaved=   7.
 NSaved= 7 IEnMin= 7 EnMin= -1237.74405106408     IErMin= 7 ErrMin= 1.34D-04
 ErrMax= 1.34D-04  0.00D+00 EMaxC= 1.00D-01 BMatC= 9.48D-06 BMatP= 4.97D-05
 IDIUse=3 WtCom= 9.99D-01 WtEn= 1.34D-03
 Coeff-Com: -0.833D-03 0.335D-03 0.513D-02 0.461D-01 0.980D-01 0.357D+00
 Coeff-Com:  0.495D+00
 Coeff-En:   0.000D+00 0.000D+00 0.000D+00 0.000D+00 0.000D+00 0.135D+00
 Coeff-En:   0.865D+00
 Coeff:     -0.832D-03 0.334D-03 0.513D-02 0.460D-01 0.979D-01 0.356D+00
 Coeff:      0.495D+00
 Gap=     0.126 Goal=   None    Shift=    0.000
 RMSDP=1.30D-05 MaxDP=4.78D-04 DE=-3.91D-05 OVMax= 1.01D-03

 Cycle   8  Pass 0  IDiag  1:
 RMSU=  8.00D-06    CP:  9.60D-01  1.70D+00  7.13D-01  7.80D-01  6.13D-01
                    CP:  7.31D-01  5.84D-01
 E= -1237.74405976130     Delta-E=       -0.000008697225 Rises=F Damp=F
 DIIS: error= 4.66D-05 at cycle   8 NSaved=   8.
 NSaved= 8 IEnMin= 8 EnMin= -1237.74405976130     IErMin= 8 ErrMin= 4.66D-05
 ErrMax= 4.66D-05  0.00D+00 EMaxC= 1.00D-01 BMatC= 6.35D-07 BMatP= 9.48D-06
 IDIUse=1 WtCom= 1.00D+00 WtEn= 0.00D+00
 Coeff-Com: -0.842D-04-0.522D-03 0.265D-03 0.124D-01 0.314D-01 0.148D+00
 Coeff-Com:  0.271D+00 0.538D+00
 Coeff:     -0.842D-04-0.522D-03 0.265D-03 0.124D-01 0.314D-01 0.148D+00
 Coeff:      0.271D+00 0.538D+00
 Gap=     0.127 Goal=   None    Shift=    0.000
 RMSDP=4.56D-06 MaxDP=1.62D-04 DE=-8.70D-06 OVMax= 3.69D-04

 Initial convergence to 1.0D-05 achieved.  Increase integral accuracy.
 Cycle   9  Pass 1  IDiag  1:
 E= -1237.74410500703     Delta-E=       -0.000045245727 Rises=F Damp=F
 DIIS: error= 1.16D-04 at cycle   1 NSaved=   1.
 NSaved= 1 IEnMin= 1 EnMin= -1237.74410500703     IErMin= 1 ErrMin= 1.16D-04
 ErrMax= 1.16D-04  0.00D+00 EMaxC= 1.00D-01 BMatC= 2.06D-06 BMatP= 2.06D-06
 IDIUse=3 WtCom= 9.99D-01 WtEn= 1.16D-03
 Coeff-Com:  0.100D+01
 Coeff-En:   0.100D+01
 Coeff:      0.100D+01
 Gap=     0.126 Goal=   None    Shift=    0.000
 RMSDP=4.56D-06 MaxDP=1.62D-04 DE=-4.52D-05 OVMax= 2.58D-04

 Cycle  10  Pass 1  IDiag  1:
 RMSU=  9.94D-05    CP:  1.00D+00
 E= -1237.74410711393     Delta-E=       -0.000002106905 Rises=F Damp=F
 DIIS: error= 1.56D-05 at cycle   2 NSaved=   2.
 NSaved= 2 IEnMin= 2 EnMin= -1237.74410711393     IErMin= 2 ErrMin= 1.56D-05
 ErrMax= 1.56D-05  0.00D+00 EMaxC= 1.00D-01 BMatC= 1.53D-07 BMatP= 2.06D-06
 IDIUse=1 WtCom= 1.00D+00 WtEn= 0.00D+00
 Coeff-Com:  0.904D-01 0.910D+00
 Coeff:      0.904D-01 0.910D+00
 Gap=     0.127 Goal=   None    Shift=    0.000
 RMSDP=4.86D-06 MaxDP=1.68D-04 DE=-2.11D-06 OVMax= 3.97D-04

 Cycle  11  Pass 1  IDiag  1:
 RMSU=  4.57D-06    CP:  1.00D+00  1.02D+00
 E= -1237.74410683268     Delta-E=        0.000000281257 Rises=F Damp=F
 DIIS: error= 2.43D-05 at cycle   3 NSaved=   3.
 NSaved= 3 IEnMin= 2 EnMin= -1237.74410711393     IErMin= 2 ErrMin= 1.56D-05
 ErrMax= 2.43D-05  0.00D+00 EMaxC= 1.00D-01 BMatC= 4.37D-07 BMatP= 1.53D-07
 IDIUse=1 WtCom= 1.00D+00 WtEn= 0.00D+00
 Coeff-Com: -0.584D-02 0.632D+00 0.373D+00
 Coeff:     -0.584D-02 0.632D+00 0.373D+00
 Gap=     0.127 Goal=   None    Shift=    0.000
 RMSDP=2.86D-06 MaxDP=1.04D-04 DE= 2.81D-07 OVMax= 2.43D-04

 Cycle  12  Pass 1  IDiag  1:
 RMSU=  6.08D-07    CP:  1.00D+00  1.02D+00  3.95D-01
 E= -1237.74410726558     Delta-E=       -0.000000432899 Rises=F Damp=F
 DIIS: error= 2.18D-06 at cycle   4 NSaved=   4.
 NSaved= 4 IEnMin= 4 EnMin= -1237.74410726558     IErMin= 4 ErrMin= 2.18D-06
 ErrMax= 2.18D-06  0.00D+00 EMaxC= 1.00D-01 BMatC= 4.51D-09 BMatP= 1.53D-07
 IDIUse=1 WtCom= 1.00D+00 WtEn= 0.00D+00
 Coeff-Com: -0.494D-02 0.368D+00 0.224D+00 0.413D+00
 Coeff:     -0.494D-02 0.368D+00 0.224D+00 0.413D+00
 Gap=     0.127 Goal=   None    Shift=    0.000
 RMSDP=2.45D-07 MaxDP=7.60D-06 DE=-4.33D-07 OVMax= 1.60D-05

 Cycle  13  Pass 1  IDiag  1:
 RMSU=  1.95D-07    CP:  1.00D+00  1.02D+00  4.02D-01  7.64D-01
 E= -1237.74410726964     Delta-E=       -0.000000004060 Rises=F Damp=F
 DIIS: error= 4.87D-07 at cycle   5 NSaved=   5.
 NSaved= 5 IEnMin= 5 EnMin= -1237.74410726964     IErMin= 5 ErrMin= 4.87D-07
 ErrMax= 4.87D-07  0.00D+00 EMaxC= 1.00D-01 BMatC= 8.18D-11 BMatP= 4.51D-09
 IDIUse=1 WtCom= 1.00D+00 WtEn= 0.00D+00
 Coeff-Com: -0.201D-02 0.140D+00 0.850D-01 0.193D+00 0.584D+00
 Coeff:     -0.201D-02 0.140D+00 0.850D-01 0.193D+00 0.584D+00
 Gap=     0.127 Goal=   None    Shift=    0.000
 RMSDP=4.27D-08 MaxDP=2.36D-06 DE=-4.06D-09 OVMax= 3.48D-06

 Cycle  14  Pass 1  IDiag  1:
 RMSU=  3.84D-08    CP:  1.00D+00  1.02D+00  4.01D-01  7.86D-01  9.46D-01
 E= -1237.74410726969     Delta-E=       -0.000000000056 Rises=F Damp=F
 DIIS: error= 1.79D-07 at cycle   6 NSaved=   6.
 NSaved= 6 IEnMin= 6 EnMin= -1237.74410726969     IErMin= 6 ErrMin= 1.79D-07
 ErrMax= 1.79D-07  0.00D+00 EMaxC= 1.00D-01 BMatC= 1.34D-11 BMatP= 8.18D-11
 IDIUse=1 WtCom= 1.00D+00 WtEn= 0.00D+00
 Coeff-Com: -0.247D-03 0.138D-01 0.766D-02 0.362D-01 0.307D+00 0.635D+00
 Coeff:     -0.247D-03 0.138D-01 0.766D-02 0.362D-01 0.307D+00 0.635D+00
 Gap=     0.127 Goal=   None    Shift=    0.000
 RMSDP=2.02D-08 MaxDP=6.46D-07 DE=-5.59D-11 OVMax= 1.30D-06

 Cycle  15  Pass 1  IDiag  1:
 RMSU=  1.44D-08    CP:  1.00D+00  1.02D+00  4.01D-01  7.99D-01  9.73D-01
                    CP:  7.60D-01
 E= -1237.74410726971     Delta-E=       -0.000000000015 Rises=F Damp=F
 DIIS: error= 7.53D-08 at cycle   7 NSaved=   7.
 NSaved= 7 IEnMin= 7 EnMin= -1237.74410726971     IErMin= 7 ErrMin= 7.53D-08
 ErrMax= 7.53D-08  0.00D+00 EMaxC= 1.00D-01 BMatC= 2.40D-12 BMatP= 1.34D-11
 IDIUse=1 WtCom= 1.00D+00 WtEn= 0.00D+00
 Coeff-Com:  0.872D-04-0.798D-02-0.547D-02-0.622D-03 0.114D+00 0.372D+00
 Coeff-Com:  0.528D+00
 Coeff:      0.872D-04-0.798D-02-0.547D-02-0.622D-03 0.114D+00 0.372D+00
 Coeff:      0.528D+00
 Gap=     0.127 Goal=   None    Shift=    0.000
 RMSDP=7.86D-09 MaxDP=3.65D-07 DE=-1.50D-11 OVMax= 4.49D-07

 SCF Done:  E(RPBE1PBE) =  -1237.74410727     A.U. after   15 cycles
            NFock= 15  Conv=0.79D-08     -V/T= 2.0027
 KE= 1.234353756862D+03 PE=-6.379229676284D+03 EE= 2.179574910433D+03
 Leave Link  502 at Mon Mar  6 10:27:44 2023, MaxMem=  1048576000 cpu:             345.4 elap:             348.8
 (Enter /ssoft/spack/external/gaussian/g16-C.01/avx2/g16/l801.exe)
 DoSCS=F DFT=T ScalE2(SS,OS)=  1.000000  1.000000
 Range of M.O.s used for correlation:     1   369
 NBasis=   369 NAE=    77 NBE=    77 NFC=     0 NFV=     0
 NROrb=    369 NOA=    77 NOB=    77 NVA=   292 NVB=   292

 **** Warning!!: The largest alpha MO coefficient is  0.11577856D+02

 Leave Link  801 at Mon Mar  6 10:27:44 2023, MaxMem=  1048576000 cpu:               0.0 elap:               0.1
 (Enter /ssoft/spack/external/gaussian/g16-C.01/avx2/g16/l1101.exe)
 Using compressed storage, NAtomX=    37.
 Will process     38 centers per pass.
   1 Symmetry operations used in ECPInt.
 ECPInt:  NShTT=   15051 NPrTT=   55267 LenC2=   13520 LenP2D=   34500.
 LDataN:  DoStor=T MaxTD1= 5 Len=  102
 R6Disp: Adding Grimme-D3(BJ) dispersion energy 1st derivatives to the gradient.
 Leave Link 1101 at Mon Mar  6 10:27:44 2023, MaxMem=  1048576000 cpu:               0.7 elap:               0.7
 (Enter /ssoft/spack/external/gaussian/g16-C.01/avx2/g16/l1102.exe)
 Symmetrizing basis deriv contribution to polar:
 IMax=3 JMax=2 DiffMx= 0.00D+00
 Leave Link 1102 at Mon Mar  6 10:27:45 2023, MaxMem=  1048576000 cpu:               0.1 elap:               0.1
 (Enter /ssoft/spack/external/gaussian/g16-C.01/avx2/g16/l1110.exe)
 Forming Gx(P) for the SCF density, NAtomX=    37.
 Integral derivatives from FoFJK, PRISM(SPDF).
 Do as many integral derivatives as possible in FoFJK.
 G2DrvN: MDV=    1048572053.
 G2DrvN: will do    38 centers at a time, making    1 passes.
 Calling FoFCou, ICntrl=  3107 FMM=F I1Cent=   0 AccDes= 0.00D+00.
 FoFJK:  IHMeth= 1 ICntrl=    3107 DoSepK=F KAlg= 0 I1Cent=           0 FoldK=F
 IRaf=         0 NMat=       1 IRICut=       1 DoRegI=T DoRafI=F ISym2E= 0 IDoP0=0 IntGTp=1.
 FoFCou: FMM=F IPFlag=           0 FMFlag=      100000 FMFlg1=           0
         NFxFlg=           0 DoJE=F BraDBF=F KetDBF=F FulRan=T
         wScrn=  0.000000 ICntrl=      3107 IOpCl=  0 I1Cent=           0 NGrid=           0
         NMat0=    1 NMatS0=      1 NMatT0=    0 NMatD0=    1 NMtDS0=    0 NMtDT0=    0
 Symmetry not used in FoFCou.
 End of G2Drv F.D. properties file   721 does not exist.
 End of G2Drv F.D. properties file   722 does not exist.
 End of G2Drv F.D. properties file   788 does not exist.
 Leave Link 1110 at Mon Mar  6 10:42:10 2023, MaxMem=  1048576000 cpu:             861.4 elap:             865.0
 (Enter /ssoft/spack/external/gaussian/g16-C.01/avx2/g16/l1002.exe)
 Minotr:  Closed shell wavefunction.
          IDoAtm=1111111111111111111111111111111111111
          Direct CPHF calculation.
          Differentiating once with respect to electric field.
                with respect to dipole field.
          Differentiating once with respect to nuclear coordinates.
          Requested convergence is 1.0D-08 RMS, and 1.0D-07 maximum.
          Secondary convergence is 1.0D-12 RMS, and 1.0D-12 maximum.
          NewPWx=T KeepS1=F KeepF1=F KeepIn=T MapXYZ=F SortEE=F KeepMc=T.
        11188 words used for storage of precomputed grid.
 Two-electron integrals replicated using symmetry.
          MDV=    1048576000 using IRadAn=       1.
          Solving linear equations simultaneously, MaxMat=     384.
 FoF2E skips out because all densities are zero.
 CalDSu exits because no D1Ps are significant.
 FoFJK:  IHMeth= 1 ICntrl=       0 DoSepK=F KAlg= 0 I1Cent=           0 FoldK=F
 IRaf= 810000000 NMat=     111 IRICut=     277 DoRegI=T DoRafI=T ISym2E= 2 IDoP0=3 IntGTp=3.
 FoFCou: FMM=F IPFlag=           0 FMFlag=      100000 FMFlg1=           0
         NFxFlg=           0 DoJE=F BraDBF=F KetDBF=F FulRan=T
         wScrn=  0.000000 ICntrl=         0 IOpCl=  0 I1Cent=           0 NGrid=           0
         NMat0=  111 NMatS0=    111 NMatT0=    0 NMatD0=  111 NMtDS0=    0 NMtDT0=    0
 Integrals replicated using symmetry in FoFCou.
 Raff kept on since  76.02% of shell-pairs survive, threshold=   0.20 IRatSp=76.
          There are   114 degrees of freedom in the 1st order CPHF.  IDoFFX=6 NUNeed=     3.
    111 vectors produced by pass  0 Test12= 2.25D-14 1.00D-09 XBig12= 2.23D+02 5.99D+00.
 AX will form   111 AO Fock derivatives at one time.
    111 vectors produced by pass  1 Test12= 2.25D-14 1.00D-09 XBig12= 3.91D+01 1.71D+00.
    111 vectors produced by pass  2 Test12= 2.25D-14 1.00D-09 XBig12= 3.37D-01 9.21D-02.
    111 vectors produced by pass  3 Test12= 2.25D-14 1.00D-09 XBig12= 1.57D-03 5.43D-03.
    111 vectors produced by pass  4 Test12= 2.25D-14 1.00D-09 XBig12= 3.95D-06 1.65D-04.
    105 vectors produced by pass  5 Test12= 2.25D-14 1.00D-09 XBig12= 5.85D-09 8.37D-06.
     24 vectors produced by pass  6 Test12= 2.25D-14 1.00D-09 XBig12= 7.03D-12 2.65D-07.
      3 vectors produced by pass  7 Test12= 2.25D-14 1.00D-09 XBig12= 7.92D-15 6.78D-09.
      2 vectors produced by pass  8 Test12= 2.25D-14 1.00D-09 XBig12= 5.88D-16 2.93D-09.
 InvSVY:  IOpt=1 It=  1 EMax= 1.60D-14
 Solved reduced A of dimension   689 with   114 vectors.
 FullF1:  Do perturbations      1 to       3.
 Isotropic polarizability for W=    0.000000      185.89 Bohr**3.
 End of Minotr F.D. properties file   721 does not exist.
 End of Minotr F.D. properties file   722 does not exist.
 End of Minotr F.D. properties file   788 does not exist.
 Leave Link 1002 at Mon Mar  6 11:07:41 2023, MaxMem=  1048576000 cpu:            1526.9 elap:            1531.8
 (Enter /ssoft/spack/external/gaussian/g16-C.01/avx2/g16/l601.exe)
 Copying SCF densities to generalized density rwf, IOpCl= 0 IROHF=0.

 **********************************************************************

            Population analysis using the SCF Density.

 **********************************************************************

 Orbital symmetries:
       Occupied  (A) (A) (A) (A) (A) (A) (A) (A) (A) (A) (A) (A)
                 (A) (A) (A) (A) (A) (A) (A) (A) (A) (A) (A) (A)
                 (A) (A) (A) (A) (A) (A) (A) (A) (A) (A) (A) (A)
                 (A) (A) (A) (A) (A) (A) (A) (A) (A) (A) (A) (A)
                 (A) (A) (A) (A) (A) (A) (A) (A) (A) (A) (A) (A)
                 (A) (A) (A) (A) (A) (A) (A) (A) (A) (A) (A) (A)
                 (A) (A) (A) (A) (A)
       Virtual   (A) (A) (A) (A) (A) (A) (A) (A) (A) (A) (A) (A)
                 (A) (A) (A) (A) (A) (A) (A) (A) (A) (A) (A) (A)
                 (A) (A) (A) (A) (A) (A) (A) (A) (A) (A) (A) (A)
                 (A) (A) (A) (A) (A) (A) (A) (A) (A) (A) (A) (A)
                 (A) (A) (A) (A) (A) (A) (A) (A) (A) (A) (A) (A)
                 (A) (A) (A) (A) (A) (A) (A) (A) (A) (A) (A) (A)
                 (A) (A) (A) (A) (A) (A) (A) (A) (A) (A) (A) (A)
                 (A) (A) (A) (A) (A) (A) (A) (A) (A) (A) (A) (A)
                 (A) (A) (A) (A) (A) (A) (A) (A) (A) (A) (A) (A)
                 (A) (A) (A) (A) (A) (A) (A) (A) (A) (A) (A) (A)
                 (A) (A) (A) (A) (A) (A) (A) (A) (A) (A) (A) (A)
                 (A) (A) (A) (A) (A) (A) (A) (A) (A) (A) (A) (A)
                 (A) (A) (A) (A) (A) (A) (A) (A) (A) (A) (A) (A)
                 (A) (A) (A) (A) (A) (A) (A) (A) (A) (A) (A) (A)
                 (A) (A) (A) (A) (A) (A) (A) (A) (A) (A) (A) (A)
                 (A) (A) (A) (A) (A) (A) (A) (A) (A) (A) (A) (A)
                 (A) (A) (A) (A) (A) (A) (A) (A) (A) (A) (A) (A)
                 (A) (A) (A) (A) (A) (A) (A) (A) (A) (A) (A) (A)
                 (A) (A) (A) (A) (A) (A) (A) (A) (A) (A) (A) (A)
                 (A) (A) (A) (A) (A) (A) (A) (A) (A) (A) (A) (A)
                 (A) (A) (A) (A) (A) (A) (A) (A) (A) (A) (A) (A)
                 (A) (A) (A) (A) (A) (A) (A) (A) (A) (A) (A) (A)
                 (A) (A) (A) (A) (A) (A) (A) (A) (A) (A) (A) (A)
                 (A) (A) (A) (A) (A) (A) (A) (A) (A) (A) (A) (A)
                 (A) (A) (A) (A)
 The electronic state is 1-A.
 Alpha  occ. eigenvalues --  -89.01911 -18.99383 -18.99312 -14.25906 -14.14488
 Alpha  occ. eigenvalues --  -10.14346 -10.13570 -10.12259 -10.11415 -10.11117
 Alpha  occ. eigenvalues --  -10.11044 -10.10991 -10.10249 -10.10125 -10.09440
 Alpha  occ. eigenvalues --  -10.08877 -10.08197 -10.07595 -10.06166 -10.05142
 Alpha  occ. eigenvalues --   -7.98752  -5.92997  -5.92878  -5.92755  -0.96206
 Alpha  occ. eigenvalues --   -0.84608  -0.83428  -0.77493  -0.73872  -0.71993
 Alpha  occ. eigenvalues --   -0.70522  -0.68790  -0.67587  -0.63568  -0.60991
 Alpha  occ. eigenvalues --   -0.59214  -0.56781  -0.55921  -0.51823  -0.49390
 Alpha  occ. eigenvalues --   -0.48080  -0.45804  -0.44754  -0.40068  -0.39405
 Alpha  occ. eigenvalues --   -0.39079  -0.37128  -0.36915  -0.34325  -0.33800
 Alpha  occ. eigenvalues --   -0.33699  -0.33605  -0.32853  -0.32415  -0.32034
 Alpha  occ. eigenvalues --   -0.31579  -0.30651  -0.29433  -0.29266  -0.28858
 Alpha  occ. eigenvalues --   -0.28080  -0.26737  -0.25316  -0.24426  -0.24277
 Alpha  occ. eigenvalues --   -0.21947  -0.19360  -0.17401  -0.16123  -0.15769
 Alpha  occ. eigenvalues --   -0.15125  -0.13562  -0.13284  -0.12194  -0.11848
 Alpha  occ. eigenvalues --   -0.07008  -0.03206
 Alpha virt. eigenvalues --    0.09450   0.11363   0.11535   0.13513   0.17889
 Alpha virt. eigenvalues --    0.18896   0.21368   0.22057   0.22169   0.23582
 Alpha virt. eigenvalues --    0.24337   0.24573   0.24897   0.26349   0.27385
 Alpha virt. eigenvalues --    0.27967   0.28570   0.28973   0.30411   0.30784
 Alpha virt. eigenvalues --    0.31552   0.31795   0.33162   0.33704   0.34339
 Alpha virt. eigenvalues --    0.35467   0.35925   0.37733   0.38036   0.38830
 Alpha virt. eigenvalues --    0.39009   0.39887   0.42347   0.43147   0.43700
 Alpha virt. eigenvalues --    0.45098   0.45901   0.46202   0.47713   0.49926
 Alpha virt. eigenvalues --    0.50900   0.51865   0.52725   0.54577   0.54959
 Alpha virt. eigenvalues --    0.55204   0.55814   0.56513   0.57390   0.57584
 Alpha virt. eigenvalues --    0.58847   0.59149   0.59609   0.60417   0.60507
 Alpha virt. eigenvalues --    0.62879   0.63909   0.64739   0.65083   0.65908
 Alpha virt. eigenvalues --    0.66424   0.67446   0.69376   0.71096   0.71279
 Alpha virt. eigenvalues --    0.72648   0.73237   0.74136   0.75359   0.75732
 Alpha virt. eigenvalues --    0.76541   0.77034   0.77537   0.78465   0.79722
 Alpha virt. eigenvalues --    0.80888   0.81402   0.81455   0.82118   0.83199
 Alpha virt. eigenvalues --    0.83313   0.84132   0.84497   0.84902   0.86099
 Alpha virt. eigenvalues --    0.86420   0.86646   0.86996   0.87744   0.88167
 Alpha virt. eigenvalues --    0.88642   0.88753   0.90143   0.90261   0.90768
 Alpha virt. eigenvalues --    0.91245   0.91633   0.92245   0.93098   0.93591
 Alpha virt. eigenvalues --    0.94444   0.95870   0.96558   0.97061   0.98015
 Alpha virt. eigenvalues --    0.98285   0.99197   1.00510   1.01628   1.02551
 Alpha virt. eigenvalues --    1.03527   1.05228   1.07270   1.07479   1.08827
 Alpha virt. eigenvalues --    1.11619   1.12177   1.13202   1.15720   1.16187
 Alpha virt. eigenvalues --    1.18741   1.19669   1.20780   1.22672   1.24206
 Alpha virt. eigenvalues --    1.24835   1.26983   1.28563   1.28616   1.29635
 Alpha virt. eigenvalues --    1.31103   1.32002   1.33269   1.33849   1.35870
 Alpha virt. eigenvalues --    1.36964   1.38723   1.40384   1.40576   1.41907
 Alpha virt. eigenvalues --    1.42724   1.43689   1.44303   1.45902   1.46489
 Alpha virt. eigenvalues --    1.48930   1.49802   1.51480   1.52706   1.53588
 Alpha virt. eigenvalues --    1.55296   1.57871   1.59441   1.61854   1.63061
 Alpha virt. eigenvalues --    1.66024   1.66088   1.68495   1.71167   1.72402
 Alpha virt. eigenvalues --    1.72936   1.73983   1.75115   1.75951   1.78360
 Alpha virt. eigenvalues --    1.78757   1.79221   1.79820   1.80529   1.83314
 Alpha virt. eigenvalues --    1.85101   1.86145   1.88473   1.88636   1.89579
 Alpha virt. eigenvalues --    1.90283   1.92985   1.93856   1.94861   1.95634
 Alpha virt. eigenvalues --    1.96351   1.96803   1.98731   1.99838   2.00908
 Alpha virt. eigenvalues --    2.01525   2.01709   2.04472   2.06083   2.06225
 Alpha virt. eigenvalues --    2.07323   2.07399   2.09567   2.10962   2.15632
 Alpha virt. eigenvalues --    2.16036   2.16427   2.17480   2.19802   2.20068
 Alpha virt. eigenvalues --    2.20294   2.21489   2.22811   2.23865   2.25725
 Alpha virt. eigenvalues --    2.27761   2.29683   2.31227   2.31639   2.32118
 Alpha virt. eigenvalues --    2.32864   2.33657   2.34985   2.35388   2.36982
 Alpha virt. eigenvalues --    2.39112   2.39350   2.40666   2.43571   2.44542
 Alpha virt. eigenvalues --    2.48146   2.48481   2.49442   2.50815   2.51558
 Alpha virt. eigenvalues --    2.53295   2.54160   2.54507   2.56356   2.58514
 Alpha virt. eigenvalues --    2.59893   2.63870   2.64645   2.67136   2.67844
 Alpha virt. eigenvalues --    2.70238   2.72178   2.74223   2.74726   2.77672
 Alpha virt. eigenvalues --    2.78309   2.80029   2.81573   2.83119   2.83637
 Alpha virt. eigenvalues --    2.84400   2.85233   2.85520   2.86377   2.88067
 Alpha virt. eigenvalues --    2.88321   2.91142   2.91489   2.94398   2.94707
 Alpha virt. eigenvalues --    2.96298   2.99040   3.00171   3.02233   3.04467
 Alpha virt. eigenvalues --    3.04633   3.07530   3.13307   3.18342   3.22940
 Alpha virt. eigenvalues --    3.25209   3.25742   3.27288   3.28977   3.30413
 Alpha virt. eigenvalues --    3.32822   3.32949   3.33442   3.34592   3.35152
 Alpha virt. eigenvalues --    3.36219   3.37427   3.38840   3.39393   3.41041
 Alpha virt. eigenvalues --    3.41672   3.42176   3.45292   3.50519   3.51827
 Alpha virt. eigenvalues --    3.58161   3.59492   3.61125   3.67143   3.74642
 Alpha virt. eigenvalues --    3.84665   4.13309
     Molecular Orbital Coefficients:
                          73        74        75        76        77
                           O         O         O         O         O
     Eigenvalues --    -0.13284  -0.12194  -0.11848  -0.07008  -0.03206
   1 1   S  1S          0.00013   0.00078  -0.00126   0.00797   0.00137
   2        2S          0.00076   0.00501  -0.00830   0.05311   0.00906
   3        3S          0.00404  -0.00082   0.01468  -0.09583  -0.00012
   4        4S         -0.02451  -0.04882   0.02672  -0.05734  -0.10137
   5        5PX        -0.00191   0.01049  -0.02289   0.05648   0.00697
   6        5PY         0.00443   0.00398  -0.00123   0.03146  -0.01055
   7        5PZ         0.00105   0.00117  -0.00154  -0.00804   0.00714
   8        6PX        -0.00842   0.02185  -0.05561   0.11968   0.01224
   9        6PY         0.00830   0.00869  -0.00009   0.05783  -0.01421
  10        6PZ        -0.00381  -0.00407   0.00263  -0.01914   0.00898
  11        7PX         0.04002   0.01049   0.04548   0.03025   0.02275
  12        7PY         0.01013   0.00422  -0.04376   0.11424  -0.08866
  13        7PZ         0.05507   0.06274  -0.05953   0.04597   0.09425
  14        8D 0        0.02449   0.03377  -0.00985   0.01290   0.03766
  15        8D+1        0.01352   0.00248   0.01082   0.00456  -0.01572
  16        8D-1       -0.07771  -0.06740   0.05232   0.00154  -0.03613
  17        8D+2        0.02129  -0.02233   0.02600   0.02291  -0.08768
  18        8D-2        0.03707  -0.00801   0.10221  -0.07607   0.04217
  19 2   O  1S          0.00093   0.00140  -0.00033  -0.00138   0.00978
  20        2S          0.00435   0.00559  -0.00380  -0.00186   0.01838
  21        3S          0.00836   0.01419   0.00206  -0.00091   0.08654
  22        4PX         0.01496  -0.01057   0.14089  -0.20355  -0.14021
  23        4PY         0.11913   0.16006  -0.21120  -0.13459  -0.08028
  24        4PZ         0.17409   0.20354  -0.16702  -0.03432   0.05961
  25        5PX         0.00808  -0.00824   0.10517  -0.16781  -0.11107
  26        5PY         0.08915   0.12338  -0.16338  -0.11941  -0.06676
  27        5PZ         0.12417   0.14883  -0.11859  -0.03289   0.06718
  28        6D 0        0.00727   0.00887  -0.00834  -0.00295   0.00055
  29        6D+1        0.00078  -0.00007   0.00482  -0.00558  -0.00427
  30        6D-1        0.00276   0.00407  -0.00636  -0.00348  -0.00207
  31        6D+2        0.00390   0.00426  -0.00508  -0.00214  -0.00344
  32        6D-2       -0.00007  -0.00021  -0.00092   0.00200   0.00296
  33 3   N  1S          0.01856  -0.00266   0.01759   0.09370   0.00596
  34        2S          0.03736  -0.01127   0.04266   0.18993   0.00291
  35        3S          0.07413   0.02107   0.05986   0.26922   0.05970
  36        4PX        -0.03932   0.02897  -0.12605   0.30294  -0.18012
  37        4PY        -0.01937   0.05612  -0.08727  -0.12605   0.36422
  38        4PZ        -0.04976  -0.03207  -0.00784  -0.29074  -0.31587
  39        5PX         0.04810  -0.01221   0.09419  -0.22587   0.16552
  40        5PY         0.00482  -0.04398   0.04981   0.11136  -0.32425
  41        5PZ         0.02043   0.01928  -0.00572   0.20832   0.25336
  42        6D 0       -0.00213   0.00049  -0.00335  -0.00444  -0.01358
  43        6D+1        0.00281   0.00316  -0.00404   0.01773   0.00499
  44        6D-1       -0.00140   0.00188  -0.00463  -0.00725   0.00834
  45        6D+2        0.00137  -0.00004   0.00497  -0.01010   0.00776
  46        6D-2        0.00150  -0.00190   0.00293   0.00475  -0.01201
  47 4   N  1S         -0.04720   0.00634  -0.02408  -0.02645   0.00086
  48        2S         -0.10019   0.01412  -0.05199  -0.05910   0.00257
  49        3S         -0.09758  -0.00045  -0.03710  -0.09044  -0.01741
  50        4PX         0.09765  -0.02049   0.05558   0.04623  -0.01089
  51        4PY         0.19638  -0.01619   0.09585   0.09066   0.01045
  52        4PZ         0.08665  -0.02143   0.03661   0.06571  -0.01950
  53        5PX        -0.05988   0.01232  -0.03400  -0.01917   0.01812
  54        5PY        -0.14014   0.01386  -0.07747  -0.03498  -0.02174
  55        5PZ        -0.06477   0.02450  -0.03790  -0.02739   0.03908
  56        6D 0       -0.00345  -0.00065  -0.00168  -0.00219  -0.00046
  57        6D+1        0.00092   0.00049  -0.00105   0.00447   0.00159
  58        6D-1        0.00641  -0.00050   0.00220   0.00412   0.00047
  59        6D+2       -0.00199  -0.00035   0.00021  -0.00169   0.00089
  60        6D-2        0.00551  -0.00103   0.00234   0.00602  -0.00136
  61 5   C  1S         -0.01636   0.00282  -0.01047  -0.00645   0.00080
  62        2S          0.04300  -0.00676   0.02612   0.02172  -0.00221
  63        3S          0.01655  -0.00882   0.01947   0.03081  -0.00330
  64        4PX         0.06670  -0.01852   0.04609   0.02085  -0.01635
  65        4PY         0.06180   0.00074   0.03089   0.02306   0.01956
  66        4PZ         0.00435  -0.01249   0.00131   0.00055  -0.02656
  67        5PX        -0.00360  -0.00696   0.00901  -0.01507  -0.01058
  68        5PY        -0.00608   0.00715  -0.00253  -0.02965   0.02370
  69        5PZ        -0.00811  -0.00608  -0.00498  -0.02387  -0.02693
  70        6D 0        0.00235   0.00017   0.00064   0.00195   0.00024
  71        6D+1       -0.00852   0.00176  -0.00343  -0.00713   0.00086
  72        6D-1       -0.00043   0.00066  -0.00037  -0.00052   0.00049
  73        6D+2        0.00702   0.00021   0.00338   0.00280   0.00090
  74        6D-2       -0.00757   0.00053  -0.00285  -0.00545  -0.00004
  75 6   H  1S          0.03604  -0.00360   0.01238   0.02406  -0.00049
  76        2S          0.02331  -0.00157   0.00703   0.03045   0.00043
  77        3PX         0.00208  -0.00066   0.00135   0.00069  -0.00084
  78        3PY         0.00323   0.00001   0.00156   0.00225   0.00080
  79        3PZ         0.00098  -0.00067   0.00052   0.00118  -0.00120
  80 7   C  1S          0.01211  -0.00109   0.00452   0.00940  -0.00032
  81        2S         -0.03255   0.00300  -0.01323  -0.02233   0.00027
  82        3S         -0.00995   0.00383   0.00619  -0.05989  -0.00406
  83        4PX        -0.03811  -0.00617  -0.01827  -0.00964  -0.00579
  84        4PY        -0.04886   0.02087  -0.02381  -0.03363   0.00906
  85        4PZ        -0.04387  -0.01163  -0.02130  -0.00158  -0.01010
  86        5PX         0.01957  -0.01032   0.01305   0.00529  -0.00998
  87        5PY        -0.03950   0.01898  -0.02082  -0.05327   0.01806
  88        5PZ        -0.06533  -0.00641  -0.03501  -0.02838  -0.00666
  89        6D 0       -0.00135  -0.00031  -0.00056  -0.00124  -0.00254
  90        6D+1       -0.00050  -0.00004  -0.00040   0.00003  -0.00051
  91        6D-1       -0.00164   0.00021  -0.00121  -0.00053  -0.00035
  92        6D+2        0.00213  -0.00079   0.00165   0.00052  -0.00118
  93        6D-2        0.00240  -0.00046   0.00134   0.00137  -0.00122
  94 8   H  1S          0.03591  -0.00546   0.02082   0.01445  -0.00060
  95        2S          0.04829  -0.00680   0.02708   0.02792  -0.00147
  96        3PX        -0.00066  -0.00041  -0.00029  -0.00009  -0.00024
  97        3PY        -0.00088   0.00067  -0.00034  -0.00081   0.00022
  98        3PZ        -0.00153  -0.00052  -0.00071   0.00029  -0.00052
  99 9   C  1S          0.00009   0.00211  -0.00524   0.00578   0.00092
 100        2S         -0.00121  -0.00425   0.01036  -0.01117  -0.00271
 101        3S         -0.10712  -0.00983  -0.04146  -0.00545  -0.02938
 102        4PX         0.00955  -0.00767   0.02259  -0.00884   0.01378
 103        4PY         0.02059  -0.00755   0.02137  -0.00905  -0.02311
 104        4PZ        -0.00413   0.00292  -0.00811   0.00454   0.02657
 105        5PX        -0.00811  -0.00852   0.01007   0.01917   0.00064
 106        5PY        -0.02301  -0.00464  -0.00769  -0.01235  -0.02961
 107        5PZ        -0.02513   0.00810  -0.02301  -0.01430   0.04642
 108        6D 0       -0.00011  -0.00138   0.00044   0.00028  -0.00084
 109        6D+1       -0.00290   0.00143  -0.00228  -0.00053   0.00040
 110        6D-1       -0.00180   0.00095  -0.00138  -0.00054   0.00031
 111        6D+2        0.00353  -0.00007   0.00234   0.00013   0.00012
 112        6D-2       -0.00279  -0.00030  -0.00240   0.00125  -0.00058
 113 10  H  1S         -0.02930   0.00727  -0.02360   0.00131   0.00077
 114        2S         -0.02829   0.00841  -0.02627   0.00142   0.00442
 115        3PX         0.00035  -0.00019   0.00072  -0.00072   0.00087
 116        3PY         0.00094  -0.00022   0.00094  -0.00025  -0.00100
 117        3PZ        -0.00015  -0.00001  -0.00017   0.00049   0.00081
 118 11  C  1S          0.01519  -0.00517   0.01515   0.00164  -0.00115
 119        2S         -0.04111   0.01392  -0.03870  -0.00642   0.00479
 120        3S         -0.01262   0.03428  -0.02735  -0.00270   0.01328
 121        4PX        -0.02701   0.02227  -0.03541  -0.00510   0.00694
 122        4PY        -0.07138   0.00475  -0.05699   0.00599  -0.00326
 123        4PZ        -0.02858   0.02158  -0.02021  -0.00970   0.00438
 124        5PX        -0.05087   0.01174  -0.03954   0.03956  -0.03079
 125        5PY        -0.04623  -0.00171  -0.02645   0.04127  -0.01684
 126        5PZ         0.00281   0.01275   0.00828  -0.01250  -0.01117
 127        6D 0        0.00065   0.00097  -0.00142   0.00163   0.00054
 128        6D+1       -0.00069   0.00015   0.00018  -0.00147  -0.00183
 129        6D-1        0.00102   0.00045  -0.00094   0.00210  -0.00126
 130        6D+2        0.00150  -0.00040   0.00229  -0.00172  -0.00255
 131        6D-2       -0.00026  -0.00047   0.00227  -0.00272   0.00063
 132 12  H  1S          0.02382   0.00220  -0.00167   0.01533   0.00348
 133        2S          0.03075  -0.00539   0.01368   0.03197  -0.00272
 134        3PX        -0.00099   0.00083  -0.00088  -0.00040   0.00069
 135        3PY        -0.00178   0.00013  -0.00166  -0.00024   0.00039
 136        3PZ        -0.00034   0.00081  -0.00068  -0.00036   0.00031
 137 13  C  1S         -0.01472   0.00771  -0.02352   0.02304   0.00245
 138        2S          0.03757  -0.01855   0.05517  -0.05314  -0.01185
 139        3S         -0.03283  -0.01519   0.05560  -0.20056   0.07408
 140        4PX         0.02562  -0.02140   0.08471  -0.09952  -0.01584
 141        4PY         0.05018  -0.02915   0.05721  -0.01924   0.00854
 142        4PZ         0.05940   0.00656   0.01444   0.03022  -0.01509
 143        5PX        -0.01661  -0.02107   0.08271  -0.16924  -0.00336
 144        5PY        -0.03350   0.00501   0.00464  -0.02021   0.02430
 145        5PZ         0.00011   0.02605  -0.03474   0.09269  -0.01757
 146        6D 0        0.00005   0.00105  -0.00029   0.00066   0.00474
 147        6D+1       -0.00995   0.00078  -0.00677  -0.00427  -0.00037
 148        6D-1       -0.00808   0.00064  -0.00582  -0.00078  -0.00160
 149        6D+2        0.00982  -0.00362   0.00712   0.00477  -0.00089
 150        6D-2       -0.00082   0.00181  -0.00148  -0.00251   0.00320
 151 14  C  1S         -0.00906  -0.00161   0.01133   0.02053   0.00572
 152        2S          0.01609   0.00304  -0.02524  -0.06300  -0.01981
 153        3S          0.07458  -0.00376  -0.03472   0.05890  -0.03390
 154        4PX        -0.08179   0.00611  -0.09543  -0.00218  -0.03811
 155        4PY        -0.02315   0.05762  -0.07196  -0.09864   0.05430
 156        4PZ        -0.02401  -0.02204  -0.02569  -0.09056  -0.06683
 157        5PX        -0.09287  -0.01071  -0.01961  -0.11993   0.04126
 158        5PY        -0.02901   0.01683  -0.02371  -0.07873  -0.04437
 159        5PZ        -0.00479  -0.02310  -0.02041   0.00338   0.00301
 160        6D 0        0.00173   0.00582  -0.00623   0.00916   0.02589
 161        6D+1       -0.00063   0.00057   0.00003  -0.00878   0.01043
 162        6D-1       -0.00298  -0.00084  -0.00370   0.00096  -0.00837
 163        6D+2        0.00207  -0.00005   0.00441  -0.00691   0.01523
 164        6D-2        0.00116  -0.00151   0.00619  -0.01804   0.00536
 165 15  H  1S         -0.02495  -0.02648  -0.02436   0.08115  -0.13277
 166        2S         -0.01079  -0.00024  -0.01094   0.09893  -0.17381
 167        3PX        -0.00071   0.00361  -0.00172  -0.00027   0.00288
 168        3PY        -0.00085   0.00123  -0.00395  -0.00001   0.00293
 169        3PZ        -0.00014  -0.00012  -0.00021  -0.00591   0.00099
 170 16  H  1S          0.02135   0.04434  -0.02406   0.03795   0.14172
 171        2S         -0.01115   0.00172  -0.00900   0.10326   0.17379
 172        3PX        -0.00261  -0.00120  -0.00251   0.00543  -0.00377
 173        3PY        -0.00215  -0.00055  -0.00064  -0.00287  -0.00190
 174        3PZ         0.00004   0.00119  -0.00181  -0.00088  -0.00172
 175 17  C  1S          0.01331  -0.00259   0.02854  -0.02850   0.01813
 176        2S         -0.03836   0.00489  -0.07768   0.07074  -0.05149
 177        3S          0.04653  -0.02386   0.05689  -0.01773  -0.14283
 178        4PX         0.00521  -0.11803   0.03051  -0.11783   0.06012
 179        4PY        -0.10843  -0.11839  -0.20820   0.07070  -0.04817
 180        4PZ        -0.04283  -0.04789  -0.00950  -0.00998  -0.00765
 181        5PX         0.02664  -0.11877   0.10333  -0.11749  -0.04100
 182        5PY        -0.09503  -0.07170  -0.21018   0.13917  -0.03908
 183        5PZ         0.02091  -0.00064  -0.02541  -0.08159  -0.00335
 184        6D 0       -0.00149   0.00375   0.00652  -0.00206  -0.00104
 185        6D+1       -0.01153   0.00410   0.00388   0.00071  -0.00338
 186        6D-1       -0.00292   0.01094   0.00155   0.00120   0.00002
 187        6D+2       -0.00261  -0.00355  -0.00216  -0.00834   0.01023
 188        6D-2        0.00295  -0.00327   0.00192  -0.00130  -0.00008
 189 18  C  1S          0.00463   0.00667  -0.01248   0.00632   0.00377
 190        2S         -0.01472  -0.01679   0.02772  -0.01380  -0.01695
 191        3S         -0.11266  -0.06239  -0.04645   0.10213   0.07656
 192        4PX        -0.16010   0.07789  -0.01707  -0.01405   0.03852
 193        4PY        -0.13265   0.05400   0.06102  -0.04623   0.03101
 194        4PZ        -0.02521   0.02685  -0.02779   0.00907   0.00913
 195        5PX        -0.10152   0.05907  -0.04536  -0.03475   0.04899
 196        5PY        -0.09096   0.03699   0.04994  -0.00351   0.00959
 197        5PZ         0.00555  -0.01528   0.07326  -0.08787  -0.04855
 198        6D 0        0.00380   0.00198   0.00738  -0.00291   0.00179
 199        6D+1        0.00017   0.00713   0.00127   0.00520  -0.00138
 200        6D-1        0.00524   0.00085   0.00395  -0.00059  -0.00035
 201        6D+2       -0.00703   0.01491   0.00894  -0.00045   0.00254
 202        6D-2        0.00178  -0.00322   0.00227  -0.00286   0.00046
 203 19  C  1S          0.00237  -0.00062   0.01060  -0.00599   0.00189
 204        2S         -0.00602  -0.00047  -0.02362   0.01428  -0.00143
 205        3S          0.03109   0.00005   0.06473  -0.00607  -0.08139
 206        4PX        -0.09928   0.19965   0.13350  -0.00889   0.01186
 207        4PY        -0.11825   0.18224   0.04427   0.03313  -0.00207
 208        4PZ        -0.05259   0.05842   0.04108   0.00180  -0.00258
 209        5PX        -0.09143   0.13738   0.10952  -0.02571   0.03441
 210        5PY        -0.08154   0.15587   0.05283   0.03630  -0.01532
 211        5PZ        -0.04147   0.06823  -0.03055   0.04093   0.02904
 212        6D 0       -0.00085  -0.00113   0.00067  -0.00107   0.00092
 213        6D+1       -0.00102  -0.00246  -0.00001  -0.00127   0.00082
 214        6D-1       -0.00212  -0.00137  -0.00387   0.00024   0.00197
 215        6D+2        0.01032  -0.00076   0.00066   0.00332  -0.00411
 216        6D-2       -0.00095   0.00100   0.00038   0.00021   0.00017
 217 20  H  1S         -0.00849  -0.00533   0.02545  -0.01152  -0.00088
 218        2S         -0.00692  -0.00785   0.03497  -0.02081  -0.00202
 219        3PX        -0.00387   0.00834   0.00480   0.00021  -0.00031
 220        3PY        -0.00451   0.00710   0.00250   0.00110   0.00011
 221        3PZ        -0.00137   0.00253   0.00193  -0.00036   0.00007
 222 21  C  1S         -0.00102   0.00061  -0.00054  -0.00094   0.00070
 223        2S          0.00221  -0.00162   0.00102   0.00240  -0.00209
 224        3S         -0.05444   0.00044  -0.10590   0.05140   0.04594
 225        4PX         0.04797   0.09313   0.05743   0.04015  -0.04745
 226        4PY         0.05853   0.08560   0.06862   0.03369  -0.04363
 227        4PZ         0.03464   0.03215   0.01456   0.01051  -0.01074
 228        5PX         0.04620   0.06694   0.08418   0.01622  -0.06940
 229        5PY         0.02229   0.06668   0.01463   0.03505  -0.01583
 230        5PZ         0.03800   0.05348   0.00075   0.03179  -0.01743
 231        6D 0       -0.00328   0.00502   0.00508  -0.00182   0.00119
 232        6D+1       -0.01025   0.00807   0.00308   0.00043   0.00019
 233        6D-1       -0.00730   0.00942   0.00346   0.00028   0.00070
 234        6D+2       -0.00048  -0.00449  -0.00261  -0.00071   0.00043
 235        6D-2        0.00391  -0.00242   0.00109  -0.00099  -0.00009
 236 22  C  1S          0.00677  -0.00022   0.00794  -0.00706   0.00543
 237        2S         -0.01543   0.00213  -0.01996   0.01522  -0.01164
 238        3S          0.03457  -0.00108   0.06134  -0.00491  -0.10106
 239        4PX         0.16558  -0.08221   0.00095  -0.01580   0.00478
 240        4PY         0.10275  -0.07951  -0.06038   0.03053  -0.02519
 241        4PZ         0.02495  -0.03007  -0.00152   0.00229  -0.00508
 242        5PX         0.11736  -0.05738  -0.03444   0.00811   0.02036
 243        5PY         0.07494  -0.09129  -0.02686   0.00578  -0.03297
 244        5PZ         0.06293  -0.00992   0.03228  -0.00498  -0.01970
 245        6D 0        0.00157   0.00239   0.00228   0.00069  -0.00117
 246        6D+1       -0.00117   0.00584   0.00248   0.00377  -0.00407
 247        6D-1        0.00363   0.00303   0.00288  -0.00087   0.00020
 248        6D+2        0.00032   0.01218   0.00744   0.00311  -0.00414
 249        6D-2       -0.00045  -0.00273  -0.00189  -0.00027   0.00072
 250 23  H  1S          0.02835   0.00832   0.01546  -0.01518   0.01145
 251        2S          0.02980   0.00295   0.02695  -0.02235   0.01535
 252        3PX         0.00603  -0.00369  -0.00009  -0.00072  -0.00005
 253        3PY         0.00473  -0.00281  -0.00230   0.00134  -0.00080
 254        3PZ         0.00122  -0.00099  -0.00025  -0.00009   0.00004
 255 24  C  1S         -0.01189  -0.00177  -0.00373   0.01039  -0.01147
 256        2S          0.03178   0.00547   0.00885  -0.02755   0.03132
 257        3S          0.01617   0.07899  -0.14213   0.02055   0.09193
 258        4PX         0.02251  -0.20276  -0.13478  -0.01336   0.02733
 259        4PY         0.09039  -0.17330  -0.06917  -0.06175   0.06646
 260        4PZ         0.05421  -0.04502  -0.01452  -0.03567   0.03796
 261        5PX         0.01837  -0.14444  -0.08197  -0.01897   0.06308
 262        5PY         0.06689  -0.12753  -0.04586  -0.08416   0.04562
 263        5PZ        -0.01314  -0.01834  -0.09033  -0.00069   0.08274
 264        6D 0        0.00165  -0.00311   0.00320  -0.00511   0.00367
 265        6D+1        0.00023  -0.00538  -0.00405  -0.00157   0.00059
 266        6D-1       -0.00255  -0.00528  -0.00468  -0.00025  -0.00028
 267        6D+2        0.00944  -0.00256   0.00015   0.00077  -0.00030
 268        6D-2        0.00101   0.00296   0.00471  -0.00175   0.00119
 269 25  C  1S          0.00307   0.00031   0.00467  -0.00267   0.00121
 270        2S         -0.00749   0.00014  -0.01239   0.00738  -0.00190
 271        3S         -0.01523  -0.00473  -0.03139   0.00900   0.00845
 272        4PX        -0.00863  -0.01811  -0.00004  -0.01318   0.00959
 273        4PY        -0.02678  -0.01777  -0.02750   0.00041   0.00430
 274        4PZ        -0.00317  -0.00731  -0.00529  -0.00243   0.00287
 275        5PX        -0.00832   0.00562   0.01104  -0.00155  -0.00042
 276        5PY        -0.02036   0.00454  -0.01149   0.00436   0.00220
 277        5PZ        -0.00081  -0.00994  -0.00303  -0.00121  -0.00003
 278        6D 0        0.00011   0.00049   0.00068  -0.00026   0.00021
 279        6D+1       -0.00013   0.00153   0.00087   0.00040  -0.00032
 280        6D-1        0.00123   0.00311   0.00186   0.00114  -0.00135
 281        6D+2       -0.00398  -0.00604  -0.00423  -0.00268   0.00335
 282        6D-2        0.00066   0.00028   0.00045   0.00018  -0.00033
 283 26  H  1S         -0.00187  -0.00473  -0.00018  -0.00371   0.00354
 284        2S         -0.00238   0.00532   0.00883  -0.00635   0.00398
 285        3PX        -0.00057  -0.00085  -0.00034  -0.00059   0.00050
 286        3PY        -0.00136  -0.00048  -0.00082  -0.00018   0.00033
 287        3PZ        -0.00018   0.00009   0.00007  -0.00013   0.00025
 288 27  H  1S         -0.01824  -0.03060  -0.01972  -0.01149   0.01278
 289        2S          0.00327  -0.03949  -0.01728  -0.01662   0.01552
 290        3PX        -0.00049  -0.00039   0.00009  -0.00068   0.00064
 291        3PY         0.00056  -0.00020  -0.00072   0.00060  -0.00041
 292        3PZ        -0.00089  -0.00056  -0.00054  -0.00022   0.00020
 293 28  H  1S          0.02456   0.03591   0.02609   0.01400  -0.01649
 294        2S          0.01168   0.03870   0.03049   0.01173  -0.01852
 295        3PX         0.00100   0.00000   0.00085  -0.00015  -0.00033
 296        3PY        -0.00110  -0.00039  -0.00088  -0.00014   0.00049
 297        3PZ         0.00076   0.00020   0.00026   0.00024  -0.00033
 298 29  C  1S          0.00377   0.00744  -0.00847   0.00629   0.00506
 299        2S         -0.01204  -0.01945   0.01796  -0.00525  -0.00922
 300        3S         -0.00229   0.00331  -0.00971  -0.07857  -0.05396
 301        4PX         0.07268  -0.01277  -0.00109   0.00895   0.03910
 302        4PY         0.00206  -0.04684  -0.00466   0.01437  -0.00068
 303        4PZ        -0.00246   0.00243  -0.03007   0.02476   0.00360
 304        5PX         0.01482   0.00616   0.00049   0.05209   0.07627
 305        5PY         0.01003   0.00143  -0.01443   0.00548   0.00720
 306        5PZ        -0.04865  -0.03610   0.01055   0.02470  -0.02667
 307        6D 0        0.00283  -0.00088   0.00107  -0.00029   0.00015
 308        6D+1        0.00369  -0.00069  -0.00041   0.00048  -0.00002
 309        6D-1        0.00362  -0.00474  -0.00088   0.00187  -0.00182
 310        6D+2       -0.00864   0.00397   0.00229  -0.00166   0.00112
 311        6D-2       -0.00013  -0.00196   0.00084  -0.00006  -0.00029
 312 30  H  1S         -0.07954   0.01408   0.01456  -0.00772  -0.01293
 313        2S         -0.04936   0.03991  -0.01719   0.09654   0.13651
 314        3PX        -0.00197  -0.00045   0.00008  -0.00082  -0.00283
 315        3PY         0.00127  -0.00083  -0.00128   0.00127   0.00134
 316        3PZ        -0.00190  -0.00002  -0.00067  -0.00059  -0.00539
 317 31  H  1S          0.03601  -0.05556  -0.00757   0.01601  -0.00327
 318        2S          0.06731  -0.01435  -0.00948   0.00563  -0.03145
 319        3PX         0.00123  -0.00073   0.00094  -0.00045   0.00157
 320        3PY         0.00094   0.00237  -0.00094   0.00027  -0.00147
 321        3PZ        -0.00054  -0.00069  -0.00113   0.00139   0.00211
[...]
 01649,0.00002754,-0.00000436,0.00000545,-0.00000891,-0.00000338,0.0000
 1823,-0.00002265,0.00006135,-0.00004993,-0.00002250,-0.00013435,-0.000
 06141,-0.00012275,0.00000752,0.00001548,0.00015197,-0.00008084,-0.0041
 2429,0.00016934,0.03108347,-0.00673502,0.00017866,0.00002871,0.0001126
 7,0.00000305,-0.00110290,0.00014590,-0.00010906,0.00010122,-0.00306256
 ,0.00105563,-0.00114313,0.00762001,0.00078979,-0.02222305,0.00110939,-
 0.00078481,-0.00163398,-0.10513304,0.00098269,0.05061861,0.00029467,-0
 .00010200,-0.00098525,-0.00025957,0.00000148,-0.00019440,0.00002399,-0
 .00005647,0.00005358,0.00004987,0.00005558,0.00002578,0.00029852,-0.00
 006684,0.00154417,0.00010894,0.00001475,-0.00003230,0.00006322,0.00000
 167,-0.00001339,-0.00049537,0.00004434,0.00024838,1.01240487,-0.000335
 22,-0.00485135,0.00059363,0.00178659,-0.00052384,-0.00025588,-0.000884
 07,0.00066826,-0.00064003,-0.00006108,-0.00001188,0.00004352,0.0000203
 7,-0.00001680,-0.00000497,-0.00000530,-0.00000385,0.00000199,-0.000029
 04,-0.00001000,-0.00000172,-0.00000321,-0.00000871,0.00000202,0.000015
 42,-0.00000398,-0.00000227,0.00000324,-0.00000354,-0.00000012,-0.00000
 012,-0.00002816,0.00001057,0.00000283,0.00001773,0.00000135,0.00002977
 ,0.00002852,-0.00006233,0.00000949,0.00019232,0.00004036,0.00003695,-0
 .00004276,0.00003933,-0.00021568,-0.00030468,0.00009502,-0.00082150,0.
 00298623,-0.00020238,0.00048646,0.00655375,-0.00013997,-0.00003315,-0.
 00080639,0.00028186,0.00000651,-0.00064709,-0.00002869,0.00042085,0.00
 795218,-0.00008345,0.00016614,0.00883006,0.00084342,-0.00006199,-0.005
 93944,0.00023724,0.00292547,-0.07429549,-0.00758965,0.00006053,-0.0001
 0019,0.00003769,0.00000433,-0.00016395,0.00000583,-0.00002610,-0.00001
 422,0.00001682,0.00002404,-0.00000928,0.00003091,0.00004514,0.00014778
 ,-0.00002027,0.00002777,0.00000011,-0.00002450,-0.00002576,0.00000599,
 0.00001141,0.00001783,-0.00008900,-0.00001489,0.00378630,1.02705472,-0
 .00056924,0.00071445,-0.00326336,-0.00059444,-0.00016682,0.00216943,0.
 00030094,-0.00024561,0.00091210,-0.00000263,0.00004041,0.00005605,-0.0
 0001584,-0.00000831,-0.00000197,0.00000464,0.00000019,-0.00000554,0.00
 001013,0.00001080,0.00000071,0.00000123,0.00000499,-0.00000458,-0.0000
 0647,0.00000285,0.00001338,-0.00000006,0.00000505,-0.00000392,0.000023
 88,0.00001990,-0.00001022,-0.00000690,-0.00000459,-0.00001585,0.000003
 41,-0.00002673,-0.00006457,-0.00002357,-0.00026999,-0.00027106,0.00010
 715,-0.00000411,-0.00009421,-0.00017079,-0.00000832,0.00009024,0.00984
 901,-0.00091371,-0.00809497,-0.00066877,-0.00034983,0.00292432,0.00027
 600,-0.00025744,-0.00212451,0.00001629,0.00013796,0.00007396,-0.002260
 96,-0.00000937,0.00184696,0.00466478,-0.00110451,-0.03070562,0.0023964
 4,0.00024537,0.00172999,0.03705603,-0.00153622,-0.24008436,0.00022738,
 0.00003864,-0.00051592,-0.00010512,0.00001326,-0.00009670,0.00001476,0
 .00001755,0.00005611,0.00001068,-0.00001212,0.00003472,-0.00036606,0.0
 0005728,0.00017571,0.00002335,-0.00001453,-0.00001565,-0.00000595,-0.0
 0001171,-0.00001376,-0.00002379,0.00001061,0.00005373,0.15007368,-0.01
 275128,0.53048844,0.00165369,0.00058579,-0.00204591,-0.00247016,0.0000
 5977,0.00081013,-0.00021108,-0.00057912,0.00017156,-0.00008618,-0.0000
 0203,0.00001602,0.00002096,-0.00000848,-0.00000826,-0.00000547,-0.0000
 0392,-0.00000188,-0.00002353,-0.00002535,0.00000484,-0.00000088,-0.000
 01031,0.00000363,0.00002095,-0.00003411,-0.00000164,-0.00000383,-0.000
 01176,0.00000338,-0.00005728,-0.00002539,0.00000605,0.00000914,0.00000
 882,-0.00000122,0.00011707,0.00009703,-0.00001368,-0.00016474,0.000154
 18,0.00005963,0.00005161,0.00000076,-0.00001322,0.00005615,0.00006404,
 -0.00001599,0.00066093,0.00035220,0.00114976,-0.00056501,0.00003545,-0
 .00030133,0.00036762,-0.00000026,0.00006476,0.00003876,0.00005198,0.00
 002477,0.00008846,-0.00020086,0.00026719,0.00092928,-0.00037216,-0.003
 68702,0.00092693,0.00025388,0.00057440,-0.00697877,0.00003434,-0.00246
 461,-0.00000186,-0.00001001,0.00002673,0.00001432,-0.00000126,0.000009
 25,0.00001427,0.00002259,0.00002349,0.00001744,-0.00001820,0.00003312,
 0.00008520,-0.00002651,0.00015797,0.00000979,0.00000348,-0.00003613,0.
 00000417,-0.00000421,-0.00003182,-0.00003957,-0.00000240,0.00006027,-0
 .70271473,0.10279800,0.03413150,0.72643106,-0.00002530,-0.00036196,-0.
 00016622,0.00017302,0.00120875,0.00005730,0.00006298,0.00007487,-0.000
 00507,-0.00002109,-0.00001766,0.00000229,-0.00000087,0.00000235,-0.000
 00325,-0.00000008,-0.00000108,-0.00000040,0.00000033,-0.00000266,0.000
 00095,0.00000212,0.00000146,-0.00000009,0.00000631,-0.00000347,-0.0000
 0236,-0.00000349,-0.00000232,0.00000029,-0.00001853,-0.00000217,0.0000
 0133,0.00000270,-0.00000511,-0.00000004,0.00000602,0.00004660,0.000028
 30,-0.00000218,-0.00007151,-0.00010641,0.00001403,0.00004511,-0.000018
 08,0.00004003,0.00005055,0.00006452,-0.00000803,0.00153712,0.00001971,
 -0.00003365,0.00040680,0.00035413,-0.00012760,0.00009629,-0.00018673,-
 0.00002388,0.00004467,0.00000932,0.00003718,-0.00026889,-0.00003114,-0
 .00008220,-0.00014284,0.00029228,-0.00012787,0.00051509,-0.00012751,-0
 .00029598,-0.00327922,0.00113200,0.00000186,-0.00005586,0.00000165,0.0
 0000061,-0.00000491,0.00000235,-0.00002355,-0.00000132,-0.00001644,0.0
 0001787,0.00000140,0.00001692,-0.00001374,-0.00015687,0.00001340,-0.00
 003397,0.00000140,0.00001714,0.00003414,-0.00000295,-0.00001559,-0.000
 01438,-0.00001958,-0.00000109,0.10287354,-0.01189605,-0.00615064,-0.10
 724484,0.00363603,-0.00031170,0.00027909,-0.00308917,-0.00278241,0.000
 04328,0.00152393,0.00002390,-0.00017230,0.00042210,-0.00003920,-0.0000
 0057,0.00000728,0.00000217,-0.00000657,-0.00000446,-0.00000202,-0.0000
 0216,-0.00000170,-0.00001066,-0.00000724,0.00000209,-0.00000069,-0.000
 00312,0.00000168,0.00000680,-0.00000641,-0.00000083,-0.00000014,-0.000
 00308,0.00000250,-0.00001330,-0.00001574,-0.00000564,0.00000141,0.0000
 0522,0.00000048,0.00004989,0.00005108,0.00001561,-0.00004744,-0.000004
 38,-0.00001439,0.00001332,-0.00000691,-0.00003751,0.00002907,0.0000553
 7,0.00002563,0.00010427,0.00008912,-0.00621855,0.00192834,0.00011479,0
 .00038589,-0.00036120,-0.00000614,-0.00004791,-0.00012567,0.00002555,-
 0.00000261,0.00020365,-0.00002345,-0.00018502,0.00163031,0.00012903,0.
 00276473,-0.00110183,0.00001329,-0.00027624,0.04152308,-0.00582684,-0.
 00510987,-0.00006735,0.00001208,0.00015805,0.00003971,-0.00000536,0.00
 005547,-0.00002399,-0.00001772,-0.00004169,-0.00001201,0.00001341,-0.0
 0003239,-0.00011404,0.00004896,-0.00048273,-0.00002787,0.00000188,0.00
 000319,-0.00002455,-0.00001116,-0.00000417,0.00016458,-0.00002377,-0.0
 0006805,0.03610714,-0.00609555,0.00927396,-0.03705177,0.00540443,-0.00
 207303,-0.00234544,-0.00172110,0.00666080,0.00093683,0.00064436,-0.003
 18242,0.00022628,0.00122501,-0.00135984,0.00004282,-0.00004733,-0.0000
 2447,-0.00000911,0.00001266,0.00001321,0.00000390,0.00000166,0.0000063
 4,0.00000793,0.00001950,-0.00000621,0.00000147,0.00000958,-0.00000307,
 -0.00000332,0.00004427,-0.00000850,0.00000101,0.00000729,-0.00000254,0
 .00003160,-0.00000861,0.00000336,-0.00000571,-0.00000481,0.00001098,-0
 .00011247,-0.00002444,0.00001026,0.00029737,-0.00024909,-0.00007564,-0
 .00006725,0.00012900,-0.00000702,-0.00000099,-0.00006170,0.00010470,-0
 .00106289,0.00055925,0.00083939,0.00000506,0.00073342,-0.00093246,0.00
 038453,-0.00006432,0.00076759,0.00000631,0.00003427,-0.00004976,-0.000
 35948,-0.00003215,0.00011470,0.00001125,0.00011967,-0.00033461,0.00012
 823,0.00032447,0.00004579,0.00302329,-0.01246692,0.00372445,-0.0000464
 5,0.00003789,0.00002495,-0.00000866,-0.00001742,-0.00000032,-0.0000037
 3,0.00000221,-0.00002789,0.00000399,-0.00000712,-0.00002009,0.00003295
 ,0.00000162,-0.00006945,-0.00001890,-0.00000238,0.00006954,0.00000278,
 0.00001572,0.00005045,-0.00000043,-0.00000369,-0.00003453,-0.03084047,
 0.15532192,-0.07474675,-0.00480309,0.03648358,-0.02002958,0.02971262,-
 0.00045326,-0.00015518,0.00213767,0.00299087,0.00008187,-0.00142650,-0
 .00007919,0.00029114,-0.00031471,-0.00000484,0.00000429,0.00000255,-0.
 00000889,-0.00000063,0.00000366,-0.00000019,-0.00000186,0.00000285,-0.
 00000551,0.00000316,-0.00000245,-0.00000138,0.00000105,-0.00000059,0.0
 0000100,0.00001014,-0.00000208,0.00000102,0.00000074,-0.00000046,0.000
 01191,-0.00001073,0.00000293,-0.00000168,0.00000755,0.00000198,-0.0000
 0598,0.00005223,-0.00000477,0.00012009,-0.00007394,0.00013787,-0.00002
 364,-0.00000748,-0.00009175,0.00008573,-0.00001323,0.00003161,0.000969
 58,0.00053258,0.00012200,-0.00026467,-0.00027402,0.00005246,0.00020187
 ,-0.00003867,-0.00022186,-0.00000547,0.00004230,0.00000124,-0.00027058
 ,-0.00042696,0.00027994,-0.00051894,-0.00084020,-0.00150981,-0.0000213
 5,0.00028782,-0.00001657,-0.00248254,0.00752248,-0.00421590,-0.0000298
 0,0.00006686,-0.00004932,-0.00000445,0.00001266,-0.00000653,0.00000372
 ,0.00000213,-0.00000223,-0.00000581,-0.00000034,-0.00001828,-0.0000006
 5,-0.00000417,-0.00000918,0.00000067,-0.00000469,0.00000752,0.00000385
 ,0.00000663,0.00001960,-0.00001028,-0.00000196,-0.00000483,0.15567869,
 -0.54829722,0.27899493,-0.00454066,0.00016058,-0.00124611,-0.16255646,
 0.56019919,0.00096958,0.00171289,-0.00053279,-0.00089097,-0.00097203,-
 0.00025074,0.00031860,0.00001495,0.00034291,0.00000138,-0.00000397,-0.
 00001471,-0.00001371,-0.00000037,0.00000408,0.00000091,-0.00000054,0.0
 0000022,-0.00000282,0.00000858,0.00000104,-0.00000082,0.00000349,-0.00
 000050,0.00000031,0.00001980,-0.00000201,0.00000176,0.00000267,-0.0000
 0044,0.00001985,-0.00001763,-0.00000273,-0.00000370,0.00000385,0.00000
 009,-0.00001484,0.00001154,0.00002291,0.00011957,-0.00028218,-0.000101
 62,-0.00006557,-0.00000063,-0.00013332,0.00001439,0.00005146,0.0000736
 3,-0.00094642,-0.00101139,0.00153411,-0.00053048,-0.00118448,-0.000457
 74,-0.00005737,0.00014608,-0.00017101,0.00000543,0.00003239,0.00000916
 ,-0.00018104,-0.00161365,-0.00079897,0.00178222,-0.00048445,-0.0025295
 5,0.00004426,0.00087939,-0.00000338,-0.00927371,0.03123057,-0.02064399
 ,0.00005061,0.00002044,-0.00017562,-0.00003929,0.00004335,-0.00003910,
 0.00000121,0.00000017,0.00001758,-0.00001286,0.00000671,0.00000411,-0.
 00000063,0.00001967,0.00008621,0.00001691,-0.00000201,0.00000534,0.000
 02151,0.00000370,0.00000551,-0.00003031,0.00002497,0.00001349,-0.07831
 393,0.28696242,-0.12393719,0.00281839,-0.00609049,0.00107136,0.0782465
 1,-0.28914557,0.13710596,-0.00262340,0.00002977,0.00541964,-0.00101283
 ,0.00067789,-0.00220786,-0.00017293,0.00020022,-0.00096050,0.00019162,
 0.00003587,-0.00005201,-0.00001018,0.00003487,0.00002221,0.00001341,0.
 00001000,0.00000778,0.00005308,0.00001882,-0.00001159,0.00000193,0.000
 01274,-0.00000437,-0.00005782,0.00002092,0.00000814,0.00000486,0.00001
 777,-0.00000522,0.00011457,0.00007891,0.00000373,-0.00001370,-0.000005
 93,0.00000495,-0.00022749,-0.00026932,-0.00011756,0.00012909,0.0005002
 2,0.00088410,-0.00008851,-0.00012302,0.00012194,-0.00022148,-0.0004461
 7,-0.00042618,-0.00062524,-0.00000847,0.00067025,0.00016757,-0.0005234
 0,-0.00094964,0.00022989,0.00013447,0.00080905,0.00000908,-0.00007192,
 -0.00006270,-0.00011229,-0.00025143,-0.00009500,-0.00016725,-0.0003840
 6,0.00064837,0.00020570,-0.00018003,0.00010982,0.00664192,0.01218921,0
 .00560225,-0.00005231,0.00000635,0.00005624,-0.00000313,0.00001801,-0.
 00000027,0.00000644,0.00000423,-0.00001412,-0.00001297,-0.00000485,-0.
 00003575,0.00002682,-0.00000800,-0.00008160,-0.00000989,-0.00000552,0.
 00006062,-0.00000197,0.00001646,0.00004719,0.00001968,0.00000318,-0.00
 003643,-0.15800752,-0.26622129,-0.15964437,-0.01301417,-0.03166598,-0.
 01967669,0.00456082,0.01102295,0.00604060,0.16366259,0.00130848,0.0018
 7477,-0.00409590,-0.00322094,-0.00014478,0.00242946,-0.00005385,-0.000
 98943,0.00028472,0.00012300,0.00002726,-0.00004053,0.00000951,0.000023
 97,-0.00000365,0.00000425,0.00000681,-0.00000178,0.00004048,-0.0000056
 8,0.00000101,0.00000444,0.00000208,0.00000010,-0.00002802,-0.00003557,
 0.00000638,-0.00000395,0.00000082,-0.00000143,-0.00000153,0.00008216,-
 0.00000153,0.00000602,-0.00001690,-0.00000301,-0.00005250,-0.00019666,
 0.00003385,-0.00010592,0.00042824,0.00044443,-0.00007886,-0.00015004,0
 .00017977,0.00002166,0.00021811,-0.00043250,-0.00060816,0.00054188,0.0
 0031731,0.00007597,-0.00000711,-0.00007802,0.00009730,-0.00002313,-0.0
 0003819,0.00000433,0.00002535,0.00002264,0.00008698,-0.00033350,0.0002
 4433,0.00014860,-0.00067974,0.00120143,-0.00007009,0.00033554,-0.00003
 621,0.00272890,0.00362798,0.00464174,0.00002231,0.00002914,0.00004848,
 0.00001375,0.00000480,0.00001153,0.00000233,0.00000381,0.00000725,0.00
 000273,0.00000162,0.00000951,-0.00000581,0.00000050,0.00002858,-0.0000
 0353,0.00000488,-0.00002163,0.00000058,-0.00001197,-0.00003139,0.00000
 199,-0.00001208,0.00001355,-0.26566313,-0.40665083,-0.25665027,0.00844
 275,0.00841054,0.00715794,-0.01831508,-0.01897157,-0.02016563,0.275398
 11,0.41261840,0.00093556,-0.00154950,-0.00005413,-0.00080144,0.0008945
 5,-0.00047786,-0.00003940,0.00026291,-0.00005887,-0.00013618,-0.000067
 54,0.00000290,-0.00000482,-0.00001153,0.00001446,-0.00001039,-0.000007
 53,0.00000257,-0.00003637,-0.00000697,0.00000185,-0.00000532,-0.000006
 56,-0.00000024,0.00002591,0.00002250,-0.00000535,0.00000237,-0.0000072
 3,0.00000093,-0.00002274,-0.00007448,0.00001084,0.00000337,0.00001828,
 0.00000684,0.00002526,0.00025003,-0.00004108,0.00013744,-0.00029836,0.
 00030745,-0.00008510,0.00009509,-0.00042741,0.00018980,-0.00007083,0.0
 0011853,-0.00100405,0.00136936,0.00195220,-0.00066302,0.00102111,-0.00
 016315,-0.00009113,-0.00015842,-0.00019947,0.00001958,-0.00003823,0.00
 001389,-0.00031166,0.00147795,-0.00075289,0.00214865,-0.00011660,-0.00
 351595,0.00005452,-0.00078725,0.00005070,-0.01784652,-0.02672577,-0.02
 108665,0.00009007,-0.00000117,-0.00022297,-0.00005321,-0.00002528,-0.0
 0004818,-0.00000945,-0.00001016,0.00002215,-0.00000035,0.00000508,0.00
 001746,0.00002920,-0.00002068,0.00015262,0.00001534,-0.00000328,-0.000
 01052,0.00002064,0.00000241,-0.00000707,-0.00005418,-0.00002517,0.0000
 2350,-0.16386010,-0.26147481,-0.14121933,0.00482022,0.00539816,0.00137
 973,0.01123878,0.01701701,0.00956064,0.16504059,0.26354045,0.15458733,
 -0.39531543,0.38112489,0.17596027,-0.00179759,0.02054728,0.01112292,0.
 00826971,-0.01340515,-0.00115525,0.00071712,-0.00002923,-0.00010873,-0
 .00007893,0.00029172,0.00000402,0.00003072,0.00009491,0.00000405,0.000
 20888,0.00006501,-0.00003429,0.00000100,0.00003272,-0.00000920,-0.0001
 3778,0.00001879,0.00003401,0.00000908,0.00002629,0.00000522,0.00027838
 ,0.00020532,-0.00014287,-0.00001012,-0.00005160,-0.00000484,-0.0007183
 0,0.00014965,0.00031971,0.00541194,-0.00328488,0.00098106,0.00039258,-
 0.00117407,-0.00012409,-0.00001847,-0.00060036,-0.00004770,-0.01558074
 ,0.02014111,0.00824904,-0.00428824,0.00030585,0.00281994,0.00008472,-0
 .00145901,-0.00142719,-0.00031030,0.00005067,-0.00046583,0.00035315,0.
 00025914,0.00046146,-0.00178905,-0.00183183,0.00025294,-0.00061203,-0.
 00018520,-0.00054182,0.00060324,0.00139098,-0.00666796,-0.00025591,0.0
 0037108,-0.00012850,-0.00001107,-0.00000656,-0.00014138,-0.00001682,-0
 .00002916,-0.00005886,-0.00015804,0.00002650,-0.00010928,0.00079695,0.
 00057079,0.00081238,-0.00025749,0.00099603,-0.00048929,-0.00045530,-0.
 00061586,-0.00227775,0.00096121,-0.00029516,0.00010218,0.00006432,0.00
 072758,0.00002045,-0.00037741,0.00001090,-0.00000353,0.00026734,0.0002
 0428,-0.00009554,0.00039602,-0.00033312,0.00023811,0.40334266,0.369250
 64,-0.44461472,-0.18028135,0.00249246,0.01131692,0.00402708,0.03333973
 ,-0.05030250,-0.01146096,-0.00134721,0.00109711,0.00018718,0.00010120,
 -0.00050282,0.00003304,-0.00009703,-0.00014611,-0.00003204,-0.00060760
 ,-0.00015144,0.00010462,-0.00005470,-0.00014766,0.00001124,0.00060227,
 -0.00050349,0.00002719,-0.00005188,-0.00018040,0.00001263,-0.00137361,
 -0.00133403,0.00036876,0.00000430,0.00028804,-0.00007248,0.00485497,0.
 00006614,-0.00150189,-0.00715129,-0.00549470,-0.00002608,0.00039946,-0
 .00134894,0.00005007,0.00084875,-0.00096863,-0.00134614,-0.00028681,0.
 00231545,-0.00809160,0.00190296,0.00009752,0.00031647,-0.00091279,0.00
 003411,0.00051148,0.00008864,-0.00008432,0.00016975,0.00057961,0.00006
 264,-0.00012184,0.00036368,-0.00038362,-0.00048793,0.00023876,0.000013
 96,0.00024325,0.00199589,-0.00156664,0.00246363,0.00004943,0.00000210,
 0.00001752,0.00001632,-0.00001315,0.00008434,0.00009368,0.00001359,0.0
 0002588,0.00004078,-0.00002424,0.00006866,-0.00029252,-0.00032506,-0.0
 0053761,0.00038813,-0.00081641,-0.00083184,-0.00068385,0.00001646,0.00
 234744,-0.00025963,0.00092951,-0.00016631,0.00002704,0.00028103,0.0001
 8186,0.00015680,0.00005678,0.00004007,-0.00014472,-0.00016252,-0.00022
 402,-0.00026158,-0.00003968,0.00011246,-0.40431030,0.49251971,0.157607
 78,-0.16607272,-0.13617620,0.03997829,-0.03510603,-0.01352736,0.003580
 67,-0.00260323,0.00730780,-0.00034140,-0.00004765,0.00028981,0.0000117
 1,-0.00004017,-0.00009163,-0.00002264,-0.00002970,-0.00002654,-0.00006
 159,-0.00009922,-0.00000016,-0.00000751,-0.00002841,0.00000226,0.00003
 670,-0.00007269,0.00005240,-0.00000354,-0.00003454,0.00004198,-0.00025
 364,-0.00024486,-0.00026047,-0.00000945,0.00005398,-0.00004686,0.00075
 386,0.00004015,0.00049225,0.00030539,-0.00053830,0.00646724,0.00057192
 ,-0.00133535,-0.00051154,-0.00069177,0.00204154,0.00023192,-0.01445107
 ,0.00896390,0.00844567,0.00460206,-0.00132755,0.00120183,-0.00040409,0
 .00022966,0.00126382,0.00019290,-0.00001634,0.00015495,-0.00005511,0.0
 0008327,0.00043350,-0.00138717,-0.00092855,0.00014279,-0.00031073,-0.0
 0008642,-0.00017649,0.00123460,0.00017605,-0.00418294,-0.00018021,0.00
 003173,0.00006664,0.00003422,-0.00000486,-0.00000335,-0.00002205,-0.00
 001044,-0.00006299,-0.00003800,0.00002780,-0.00003563,-0.00050742,0.00
 019389,-0.00578780,0.00039848,-0.00129146,0.00005876,-0.00122077,0.001
 94330,0.00075872,-0.00151001,0.00166234,-0.00086950,0.00127836,0.00013
 735,0.00064348,0.00043740,0.00010511,0.00060230,-0.00101666,-0.0005263
 2,-0.00006294,-0.00117563,0.00097723,0.00006453,-0.18735387,0.19377748
 ,0.13309973\\0.01242169,0.11383688,-0.00662152,-0.04009210,-0.01511693
 ,0.05944509,-0.01771941,-0.02535092,-0.01210665,0.05357771,0.03817947,
 0.00416494,-0.23807844,-0.00695279,0.01654647,0.18070573,-0.02296729,-
 0.01651950,-0.01350159,-0.12981137,0.01221760,0.10494262,0.14755821,-0
 .02206268,0.09844729,-0.05702425,-0.01273254,-0.07535736,0.16537634,0.
 00149438,0.05669971,-0.06272662,-0.00242842,-0.18318146,0.00985734,0.0
 2784131,-0.00343168,-0.10246097,-0.00420094,0.16749453,0.02056536,-0.0
 4500373,-0.10431158,0.01880095,-0.07935180,-0.04255582,-0.00288366,0.1
 2462349,-0.03453458,-0.02107827,0.04783846,0.03973634,0.00336006,-0.05
 136601,-0.08492213,-0.00445747,0.13855393,0.04139137,0.00345792,-0.176
 56583,0.04919949,0.00081822,-0.11505505,0.13549714,-0.00890019,0.09038
 895,-0.17359187,0.00595008,0.06488044,0.01860463,0.01203130,-0.0250570
 5,0.12378915,-0.00361648,0.07942474,0.04006293,-0.01589553,-0.13195389
 ,-0.08873650,-0.10217367,0.03332381,-0.06410708,0.12240378,0.01244338,
 -0.13043934,0.00722257,0.06555706,0.08256525,0.09716098,0.05762446,0.0
 5882051,-0.12090627,0.02915211,-0.01628107,0.01814512,-0.13475784,0.02
 763910,-0.00338109,-0.12678119,-0.13653477,0.01929470,0.00661181,0.036
 80455,-0.11604524,0.06430414,0.06692223,0.09820835,0.06664538,0.052054
 78,-0.08047863,-0.04051729\\\@
 The archive entry for this job was punched.

 Writing a WFNX file to "UCEGEP_Complex_3_Ligand_0_NN_Cu_oriented.wfx"


     SCHOPENHAUER'S LAW OF ENTROPY
 IF YOU PUT A SPOONFUL OF WINE IN A BARREL FULL
 OF SEWAGE, YOU GET SEWAGE.
 IF YOU PUT A SPOONFUL OF SEWAGE IN A BARREL FULL
 OF WINE, YOU GET SEWAGE.
 Job cpu time:       0 days  1 hours  5 minutes 30.1 seconds.
 Elapsed time:       0 days  1 hours  5 minutes 45.7 seconds.
 File lengths (MBytes):  RWF=    648 Int=      0 D2E=      0 Chk=     16 Scr=      8
 Normal termination of Gaussian 16 at Mon Mar  6 11:27:29 2023.
