 Entering Gaussian System, Link 0=g16
 Initial command:
 /ssoft/spack/external/gaussian/g16-C.01/avx2/g16/l1.exe "/scratch/lcmd/2387841/Gau-3436348.inp" -scrdir="/scratch/lcmd/2387841/"
 Entering Link 1 = /ssoft/spack/external/gaussian/g16-C.01/avx2/g16/l1.exe PID=   3436353.
  
 Copyright (c) 1988-2019, Gaussian, Inc.  All Rights Reserved.
  
 This is part of the Gaussian(R) 16 program.  It is based on
 the Gaussian(R) 09 system (copyright 2009, Gaussian, Inc.),
 the Gaussian(R) 03 system (copyright 2003, Gaussian, Inc.),
 the Gaussian(R) 98 system (copyright 1998, Gaussian, Inc.),
 the Gaussian(R) 94 system (copyright 1995, Gaussian, Inc.),
 the Gaussian 92(TM) system (copyright 1992, Gaussian, Inc.),
 the Gaussian 90(TM) system (copyright 1990, Gaussian, Inc.),
 the Gaussian 88(TM) system (copyright 1988, Gaussian, Inc.),
 the Gaussian 86(TM) system (copyright 1986, Carnegie Mellon
 University), and the Gaussian 82(TM) system (copyright 1983,
 Carnegie Mellon University). Gaussian is a federally registered
 trademark of Gaussian, Inc.
  
 This software contains proprietary and confidential information,
 including trade secrets, belonging to Gaussian, Inc.
  
 This software is provided under written license and may be
 used, copied, transmitted, or stored only in accord with that
 written license.
  
 The following legend is applicable only to US Government
 contracts under FAR:
  
                    RESTRICTED RIGHTS LEGEND
  
 Use, reproduction and disclosure by the US Government is
 subject to restrictions as set forth in subparagraphs (a)
 and (c) of the Commercial Computer Software - Restricted
 Rights clause in FAR 52.227-19.
  
 Gaussian, Inc.
 340 Quinnipiac St., Bldg. 40, Wallingford CT 06492
  
  
 ---------------------------------------------------------------
 Warning -- This program may not be used in any manner that
 competes with the business of Gaussian, Inc. or will provide
 assistance to any competitor of Gaussian, Inc.  The licensee
 of this program is prohibited from giving any competitor of
 Gaussian, Inc. access to this program.  By using this program,
 the user acknowledges that Gaussian, Inc. is engaged in the
 business of creating and licensing software in the field of
 computational chemistry and represents and warrants to the
 licensee that it is not a competitor of Gaussian, Inc. and that
 it will not use this program in any manner prohibited above.
 ---------------------------------------------------------------
  

 Cite this work as:
 Gaussian 16, Revision C.01,
 M. J. Frisch, G. W. Trucks, H. B. Schlegel, G. E. Scuseria, 
 M. A. Robb, J. R. Cheeseman, G. Scalmani, V. Barone, 
 G. A. Petersson, H. Nakatsuji, X. Li, M. Caricato, A. V. Marenich, 
 J. Bloino, B. G. Janesko, R. Gomperts, B. Mennucci, H. P. Hratchian, 
 J. V. Ortiz, A. F. Izmaylov, J. L. Sonnenberg, D. Williams-Young, 
 F. Ding, F. Lipparini, F. Egidi, J. Goings, B. Peng, A. Petrone, 
 T. Henderson, D. Ranasinghe, V. G. Zakrzewski, J. Gao, N. Rega, 
 G. Zheng, W. Liang, M. Hada, M. Ehara, K. Toyota, R. Fukuda, 
 J. Hasegawa, M. Ishida, T. Nakajima, Y. Honda, O. Kitao, H. Nakai, 
 T. Vreven, K. Throssell, J. A. Montgomery, Jr., J. E. Peralta, 
 F. Ogliaro, M. J. Bearpark, J. J. Heyd, E. N. Brothers, K. N. Kudin, 
 V. N. Staroverov, T. A. Keith, R. Kobayashi, J. Normand, 
 K. Raghavachari, A. P. Rendell, J. C. Burant, S. S. Iyengar, 
 J. Tomasi, M. Cossi, J. M. Millam, M. Klene, C. Adamo, R. Cammi, 
 J. W. Ochterski, R. L. Martin, K. Morokuma, O. Farkas, 
 J. B. Foresman, and D. J. Fox, Gaussian, Inc., Wallingford CT, 2019.
 
 ******************************************
 Gaussian 16:  ES64L-G16RevC.01  3-Jul-2019
                 6-Mar-2023 
 ******************************************
 %nprocshared=1
 Will use up to    1 processors via shared memory.
 %mem=8000MB
 %chk=UCUGAB_Complex_1_Ligand_0_NN_Cu_oriented.chk
 ----------------------------------------------------------------------
 #p pop=(regular,nbo,savenbos) freq=noraman def2svp empiricaldispersion
 =gd3bj output=wfx pbe1pbe
 ----------------------------------------------------------------------
 1/10=4,30=1,38=1/1,3;
 2/12=2,17=6,18=5,40=1/2;
 3/5=43,7=101,11=2,25=1,30=1,71=2,74=-13,124=41,140=1/1,2,3;
 4//1;
 5/5=2,38=5,98=1/2;
 8/6=4,10=90,11=11/1;
 11/6=1,8=1,9=11,15=111,16=1/1,2,10;
 10/6=1/2;
 6/28=1,40=1,73=1/1,7;
 7/8=1,10=1,25=1/1,2,3,16;
 1/10=4,30=1/3;
 99/6=200/99;
 Leave Link    1 at Mon Mar  6 10:21:43 2023, MaxMem=  1048576000 cpu:               0.0 elap:               0.2
 (Enter /ssoft/spack/external/gaussian/g16-C.01/avx2/g16/l101.exe)
 ----------------------------------------
 UCUGAB_Complex_1_Ligand_0_NN_Cu_oriented
 ----------------------------------------
 Symbolic Z-matrix:
 Charge = -1 Multiplicity = 1
 C                     3.27343   2.1147    1.5212 
 S                     2.83152   1.5908   -0.12177 
 O                     2.03796   2.66735  -0.68142 
 N                     1.9661    0.29396   0. 
 C                     2.75503  -0.94521   0.19616 
 H                     3.51159  -0.77928   0.81356 
 H                     3.11688  -1.26517  -0.66782 
 C                     1.81355  -1.96898   0.78246 
 H                     2.21136  -2.87294   0.72593 
 H                     1.63228  -1.76239   1.73371 
 N                     0.56274  -1.91148   0. 
 H                    -0.08445  -2.43763   0.38797 
 H                     0.70664  -2.20485  -0.85957 
 C                     4.28435   3.05606   1.68291 
 H                     4.7667    3.37085   0.92734 
 C                     4.58498   3.52873   2.93794 
 H                     5.27317   4.17496   3.03566 
 C                     3.90426   3.08205   4.07539 
 C                     2.89172   2.14895   3.89112 
 H                     2.406     1.83173   4.64381 
 C                     2.57539   1.66734   2.62238 
 H                     1.87811   1.03177   2.51584 
 C                     4.27905   3.64188   5.45445 
 C                     5.78912   3.49737   5.64991 
 H                     6.25776   4.02937   4.97408 
 H                     6.04233   2.55524   5.55794 
 H                     6.03406   3.81437   6.54435 
 C                     3.59077   2.88785   6.58501 
 H                     3.88955   3.24775   7.44645 
 H                     3.81997   1.93617   6.53014 
 H                     2.61998   2.99532   6.50468 
 C                     3.87087   5.11838   5.52358 
 H                     4.31669   5.61461   4.8058 
 H                     4.13565   5.48995   6.39002 
 H                     2.89944   5.19322   5.42003 
 O                     4.09118   1.33938  -0.79903 
 
 ITRead=  0  0  0  0  0  0  0  0  0  0  0  0  0  0  0  0  0  0  0  0
 ITRead=  0  0  0  0  0  0  0  0  0  0  0  0  0  0  0  0
 MicOpt= -1 -1 -1 -1 -1 -1 -1 -1 -1 -1 -1 -1 -1 -1 -1 -1 -1 -1 -1 -1
 MicOpt= -1 -1 -1 -1 -1 -1 -1 -1 -1 -1 -1 -1 -1 -1 -1 -1
 NAtoms=     36 NQM=       36 NQMF=       0 NMMI=      0 NMMIF=      0
                NMic=       0 NMicF=      0.
                    Isotopes and Nuclear Properties:
 (Nuclear quadrupole moments (NQMom) in fm**2, nuclear magnetic moments (NMagM)
  in nuclear magnetons)

  Atom         1           2           3           4           5           6           7           8           9          10
 IAtWgt=          12          32          16          14          12           1           1          12           1           1
 AtmWgt=  12.0000000  31.9720718  15.9949146  14.0030740  12.0000000   1.0078250   1.0078250  12.0000000   1.0078250   1.0078250
 NucSpn=           0           0           0           2           0           1           1           0           1           1
 AtZEff=  -0.0000000  -0.0000000  -0.0000000  -0.0000000  -0.0000000  -0.0000000  -0.0000000  -0.0000000  -0.0000000  -0.0000000
 NQMom=    0.0000000   0.0000000   0.0000000   2.0440000   0.0000000   0.0000000   0.0000000   0.0000000   0.0000000   0.0000000
 NMagM=    0.0000000   0.0000000   0.0000000   0.4037610   0.0000000   2.7928460   2.7928460   0.0000000   2.7928460   2.7928460
 AtZNuc=   6.0000000  16.0000000   8.0000000   7.0000000   6.0000000   1.0000000   1.0000000   6.0000000   1.0000000   1.0000000

  Atom        11          12          13          14          15          16          17          18          19          20
 IAtWgt=          14           1           1          12           1          12           1          12          12           1
 AtmWgt=  14.0030740   1.0078250   1.0078250  12.0000000   1.0078250  12.0000000   1.0078250  12.0000000  12.0000000   1.0078250
 NucSpn=           2           1           1           0           1           0           1           0           0           1
 AtZEff=  -0.0000000  -0.0000000  -0.0000000  -0.0000000  -0.0000000  -0.0000000  -0.0000000  -0.0000000  -0.0000000  -0.0000000
 NQMom=    2.0440000   0.0000000   0.0000000   0.0000000   0.0000000   0.0000000   0.0000000   0.0000000   0.0000000   0.0000000
 NMagM=    0.4037610   2.7928460   2.7928460   0.0000000   2.7928460   0.0000000   2.7928460   0.0000000   0.0000000   2.7928460
 AtZNuc=   7.0000000   1.0000000   1.0000000   6.0000000   1.0000000   6.0000000   1.0000000   6.0000000   6.0000000   1.0000000

  Atom        21          22          23          24          25          26          27          28          29          30
 IAtWgt=          12           1          12          12           1           1           1          12           1           1
 AtmWgt=  12.0000000   1.0078250  12.0000000  12.0000000   1.0078250   1.0078250   1.0078250  12.0000000   1.0078250   1.0078250
 NucSpn=           0           1           0           0           1           1           1           0           1           1
 AtZEff=  -0.0000000  -0.0000000  -0.0000000  -0.0000000  -0.0000000  -0.0000000  -0.0000000  -0.0000000  -0.0000000  -0.0000000
 NQMom=    0.0000000   0.0000000   0.0000000   0.0000000   0.0000000   0.0000000   0.0000000   0.0000000   0.0000000   0.0000000
 NMagM=    0.0000000   2.7928460   0.0000000   0.0000000   2.7928460   2.7928460   2.7928460   0.0000000   2.7928460   2.7928460
 AtZNuc=   6.0000000   1.0000000   6.0000000   6.0000000   1.0000000   1.0000000   1.0000000   6.0000000   1.0000000   1.0000000

  Atom        31          32          33          34          35          36
 IAtWgt=           1          12           1           1           1          16
 AtmWgt=   1.0078250  12.0000000   1.0078250   1.0078250   1.0078250  15.9949146
 NucSpn=           1           0           1           1           1           0
 AtZEff=  -0.0000000  -0.0000000  -0.0000000  -0.0000000  -0.0000000  -0.0000000
 NQMom=    0.0000000   0.0000000   0.0000000   0.0000000   0.0000000   0.0000000
 NMagM=    2.7928460   0.0000000   2.7928460   2.7928460   2.7928460   0.0000000
 AtZNuc=   1.0000000   6.0000000   1.0000000   1.0000000   1.0000000   8.0000000
 Leave Link  101 at Mon Mar  6 10:21:43 2023, MaxMem=  1048576000 cpu:               0.1 elap:               0.1
 (Enter /ssoft/spack/external/gaussian/g16-C.01/avx2/g16/l103.exe)

 GradGradGradGradGradGradGradGradGradGradGradGradGradGradGradGradGradGrad
 Berny optimization.
 Initialization pass.
 Trust Radius=3.00D-01 FncErr=1.00D-07 GrdErr=1.00D-07 EigMax=2.50D+02 EigMin=1.00D-04
 Number of steps in this run=      2 maximum allowed number of steps=      2.
 GradGradGradGradGradGradGradGradGradGradGradGradGradGradGradGradGradGrad

 Leave Link  103 at Mon Mar  6 10:21:43 2023, MaxMem=  1048576000 cpu:               0.0 elap:               0.0
 (Enter /ssoft/spack/external/gaussian/g16-C.01/avx2/g16/l202.exe)
                          Input orientation:                          
 ---------------------------------------------------------------------
 Center     Atomic      Atomic             Coordinates (Angstroms)
 Number     Number       Type             X           Y           Z
 ---------------------------------------------------------------------
      1          6           0        3.273431    2.114700    1.521196
      2         16           0        2.831523    1.590796   -0.121774
      3          8           0        2.037958    2.667351   -0.681418
      4          7           0        1.966105    0.293955    0.000000
      5          6           0        2.755028   -0.945213    0.196158
      6          1           0        3.511587   -0.779275    0.813558
      7          1           0        3.116881   -1.265175   -0.667816
      8          6           0        1.813553   -1.968982    0.782463
      9          1           0        2.211362   -2.872936    0.725927
     10          1           0        1.632284   -1.762386    1.733713
     11          7           0        0.562737   -1.911475    0.000000
     12          1           0       -0.084451   -2.437634    0.387966
     13          1           0        0.706642   -2.204847   -0.859569
     14          6           0        4.284354    3.056063    1.682910
     15          1           0        4.766704    3.370852    0.927340
     16          6           0        4.584982    3.528735    2.937944
     17          1           0        5.273167    4.174957    3.035661
     18          6           0        3.904260    3.082050    4.075393
     19          6           0        2.891720    2.148948    3.891119
     20          1           0        2.406001    1.831728    4.643807
     21          6           0        2.575393    1.667336    2.622378
     22          1           0        1.878109    1.031768    2.515837
     23          6           0        4.279047    3.641875    5.454448
     24          6           0        5.789115    3.497372    5.649906
     25          1           0        6.257759    4.029370    4.974083
     26          1           0        6.042327    2.555244    5.557939
     27          1           0        6.034061    3.814368    6.544348
     28          6           0        3.590765    2.887851    6.585011
     29          1           0        3.889552    3.247753    7.446446
     30          1           0        3.819971    1.936170    6.530137
     31          1           0        2.619980    2.995322    6.504684
     32          6           0        3.870868    5.118375    5.523580
     33          1           0        4.316689    5.614608    4.805795
     34          1           0        4.135651    5.489946    6.390024
     35          1           0        2.899435    5.193220    5.420029
     36          8           0        4.091184    1.339378   -0.799031
 ---------------------------------------------------------------------
                    Distance matrix (angstroms):
                    1          2          3          4          5
     1  C    0.000000
     2  S    1.780198   0.000000
     3  O    2.585213   1.449799   0.000000
     4  N    2.708920   1.563833   2.470324   0.000000
     5  C    3.374542   2.557005   3.786152   1.482031   0.000000
     6  H    2.988739   2.637152   4.035562   2.049930   0.990504
     7  H    4.029867   2.921671   4.077869   2.049671   0.989831
     8  C    4.399253   3.811289   4.867123   2.399251   1.509381
     9  H    5.161100   4.585641   5.718870   3.258270   2.071797
    10  H    4.215486   4.015574   5.061620   2.710302   2.071811
    11  N    5.086451   4.174700   4.858627   2.614071   2.403805
    12  H    5.769170   4.999099   5.631081   3.437569   3.213526
    13  H    5.560120   4.412071   5.053954   2.927306   2.626237
    14  C    1.390785   2.741279   3.284424   3.979410   4.534257
    15  H    2.039718   2.830930   3.244853   4.262700   4.817664
    16  C    2.393081   4.023940   4.508780   5.094490   5.557187
    17  H    3.246107   4.754883   5.153265   5.934145   6.373378
    18  C    2.803148   4.581573   5.126628   5.304597   5.708595
    19  C    2.400711   4.051971   4.680358   4.408919   4.821333
    20  H    3.253184   4.790603   5.402938   4.911537   5.254979
    21  C    1.378403   2.757142   3.493414   3.022297   3.569906
    22  H    2.027060   2.859807   3.594874   2.623270   3.171490
    23  C    4.337511   6.115267   6.604622   6.805091   7.142382
    24  C    5.028588   6.759783   7.405794   7.536493   7.660654
    25  H    4.949203   6.607079   7.186551   7.557323   7.735902
    26  H    4.914892   6.595344   7.414656   7.253944   7.197793
    27  H    5.978462   7.722545   8.336437   8.471721   8.585173
    28  C    5.132318   6.873119   7.433763   7.261555   7.497218
    29  H    6.063992   7.819391   8.356282   8.238575   8.451910
    30  H    5.041832   6.733812   7.464364   6.984008   7.039585
    31  H    5.102710   6.776974   7.217089   7.073602   7.439325
    32  C    5.039650   6.737512   6.918749   7.577142   8.148228
    33  H    4.911857   6.532818   6.632379   7.545214   8.168157
    34  H    5.986752   7.701145   7.897637   8.516904   9.037775
    35  H    4.981772   6.610117   6.659566   7.365501   8.061640
    36  O    2.579398   1.452114   2.448077   2.499464   2.827555
                    6          7          8          9         10
     6  H    0.000000
     7  H    1.608216   0.000000
     8  C    2.073569   2.072997   0.000000
     9  H    2.466106   2.312440   0.989233   0.000000
    10  H    2.311920   2.866808   0.990160   1.607572   0.000000
    11  N    3.261820   2.717965   1.476514   2.041897   2.042527
    12  H    3.982810   3.569014   1.994413   2.361031   2.283456
    13  H    3.563611   2.594032   1.994280   2.285678   2.788852
    14  C    4.007838   5.055888   5.671573   6.353436   5.500319
    15  H    4.337260   5.172928   6.103763   6.749462   6.068358
    16  C    4.921803   6.175629   6.523174   7.176941   6.177747
    17  H    5.708356   6.925341   7.402285   8.023860   7.085418
    18  C    5.069872   6.482003   6.381801   7.038942   5.840712
    19  C    4.293031   5.700072   5.271009   5.975002   4.641025
    20  H    4.765550   6.189467   5.450355   6.125483   4.688811
    21  C    3.183426   4.440519   4.145902   4.933875   3.666358
    22  H    2.974203   4.116570   3.466015   4.308312   2.911949
    23  C    6.455496   7.931701   7.706350   8.311257   7.074975
    24  C    6.845956   8.350827   8.329353   8.810603   7.764076
    25  H    6.926363   8.350350   8.561593   9.058808   8.089466
    26  H    6.327150   7.868536   7.820251   8.215216   7.260518
    27  H    7.765719   9.291233   9.190166   9.653346   8.580096
    28  C    6.838403   8.371123   7.772830   8.331764   6.999675
    29  H    7.768850   9.316909   8.713941   9.243622   7.926669
    30  H    6.336247   7.909075   7.232682   7.707398   6.439796
    31  H    6.887051   8.357242   7.618297   8.246057   6.809809
    32  C    7.556168   8.924774   8.771623   9.467444   8.168184
    33  H    7.580758   8.873070   8.942244   9.649670   8.429932
    34  H    8.413654   9.822559   9.616262  10.282154   8.974654
    35  H    7.567364   8.878063   8.601354   9.357933   7.973397
    36  O    2.724897   2.783914   4.316708   4.858273   4.699140
                   11         12         13         14         15
    11  N    0.000000
    12  H    0.919899   0.000000
    13  H    0.919584   1.495447   0.000000
    14  C    6.431101   7.137510   6.851379   0.000000
    15  H    6.814417   7.587038   7.124996   0.950073   0.000000
    16  C    7.376032   7.993969   7.895352   1.374375   2.024964
    17  H    8.273334   8.912953   8.759445   2.014848   2.312598
    18  C    7.260159   7.744279   7.907585   2.422628   3.276806
    19  C    6.087036   6.493567   6.804347   2.763780   3.713840
    20  H    6.242927   6.522422   7.033414   3.714043   4.664113
    21  C    4.871914   5.377560   5.532630   2.394100   3.252225
    22  H    4.089294   4.518433   4.820932   3.252930   4.042105
    23  C    8.625640   9.037134   9.317352   3.816766   4.561356
    24  C    9.407024   9.869706  10.035941   4.265691   4.833629
    25  H    9.616050  10.152746  10.183902   3.958974   4.362685
    26  H    8.992674   9.444304   9.607935   4.284523   4.871845
    27  H   10.273712  10.696951  10.928419   5.222076   5.775264
    28  C    8.692805   8.959430   9.469716   4.953782   5.798738
    29  H    9.650642   9.896387  10.433200   5.780222   6.579004
    30  H    8.249644   8.491227   9.024887   4.996541   5.860542
    31  H    8.403560   8.616565   9.216010   5.101307   5.988006
    32  C    9.532705   9.955519  10.216971   4.378909   4.998177
    33  H    9.686576  10.184589  10.308864   4.037278   4.503262
    34  H   10.410531  10.801875  11.114160   5.301210   5.893192
    35  H    9.236534   9.615361   9.948522   4.522333   5.195379
    36  O    4.863788   5.754191   4.901053   3.023963   2.750195
                   16         17         18         19         20
    16  C    0.000000
    17  H    0.949079   0.000000
    18  C    1.398821   2.037006   0.000000
    19  C    2.383168   3.241576   1.389200   0.000000
    20  H    3.246191   4.037015   2.032531   0.950310   0.000000
    21  C    2.757323   3.706339   2.424574   1.393455   2.035163
    22  H    3.706774   4.655778   3.277371   2.041298   2.333851
    23  C    2.537555   2.668890   1.534816   2.568561   2.728016
    24  C    2.967434   2.749473   2.490835   3.647805   3.902828
    25  H    2.682291   2.179013   2.691471   4.004875   4.446881
    26  H    3.152128   3.094666   2.654580   3.587435   3.818636
    27  H    3.897123   3.608305   3.341867   4.437066   4.550356
    28  C    3.834097   4.133400   2.536567   2.879530   2.507456
    29  H    4.570466   4.714776   3.375155   3.852712   3.472871
    30  H    4.003168   4.397193   2.710334   2.805590   2.359758
    31  H    4.106994   4.523832   2.749245   2.760600   2.205131
    32  C    3.118081   3.007693   2.498995   3.527203   3.704306
    33  H    2.812778   2.474029   2.667852   3.857197   4.241126
    34  H    3.995636   3.778212   3.347987   4.353638   4.407213
    35  H    3.431082   3.515205   2.697175   3.406643   3.485057
    36  O    4.359139   4.913498   5.179948   4.908322   5.718980
                   21         22         23         24         25
    21  C    0.000000
    22  H    0.949475   0.000000
    23  C    3.849916   4.605713   0.000000
    24  C    4.779432   5.585477   1.529507   0.000000
    25  H    4.966844   5.848925   2.072729   0.979483   0.000000
    26  H    4.628772   5.377367   2.073797   0.979887   1.600107
    27  H    5.652785   6.422126   2.073092   0.980057   1.600624
    28  C    4.268852   4.789197   1.523305   2.465498   3.318285
    29  H    5.243697   5.767789   2.067630   2.626443   3.511682
    30  H    4.109966   4.550096   2.068161   2.662647   3.570098
    31  H    4.103392   4.507418   2.067252   3.320560   4.079882
    32  C    4.690938   5.451418   1.533441   2.514614   2.680509
    33  H    4.835325   5.673887   2.076979   2.713532   2.511784
    34  H    5.589446   6.323067   2.076351   2.692967   2.939645
    35  H    4.512616   5.176400   2.076339   3.358421   3.582144
    36  O    3.756490   3.997583   6.666541   7.009186   6.727477
                   26         27         28         29         30
    26  H    0.000000
    27  H    1.599520   0.000000
    28  C    2.678743   2.613386   0.000000
    29  H    2.946264   2.394526   0.980241   0.000000
    30  H    2.503456   2.903451   0.980431   1.601473   0.000000
    31  H    3.578052   3.511177   0.980014   1.600766   1.600759
    32  C    3.359472   2.724299   2.486027   2.682721   3.337990
    33  H    3.592110   3.035259   3.335832   3.571762   4.092797
    34  H    3.597257   2.536797   2.665674   2.490787   3.570520
    35  H    4.105570   3.604331   2.673919   2.978512   3.562036
    36  O    6.759907   7.989090   7.561234   8.465839   7.358425
                   31         32         33         34         35
    31  H    0.000000
    32  C    2.652290   0.000000
    33  H    3.553266   0.979907   0.000000
    34  H    2.921225   0.979235   1.599405   0.000000
    35  H    2.466845   0.979799   1.601080   1.599114   0.000000
    36  O    7.632224   7.369177   7.052838   8.301308   7.412764
                   36
    36  O    0.000000
 Stoichiometry    C12H19N2O2S(1-)
 Framework group  C1[X(C12H19N2O2S)]
 Deg. of freedom   102
 Full point group                 C1      NOp   1
 Largest Abelian subgroup         C1      NOp   1
 Largest concise Abelian subgroup C1      NOp   1
                         Standard orientation:                         
 ---------------------------------------------------------------------
 Center     Atomic      Atomic             Coordinates (Angstroms)
 Number     Number       Type             X           Y           Z
 ---------------------------------------------------------------------
      1          6           0       -0.310943   -0.662643   -0.066802
      2         16           0       -2.001533   -1.210374   -0.171683
      3          8           0       -2.077294   -2.038343   -1.359389
      4          7           0       -2.909791    0.051641   -0.338892
      5          6           0       -3.204746    0.758743    0.929739
      6          1           0       -2.399744    0.784733    1.506276
      7          1           0       -3.930455    0.298874    1.421299
      8          6           0       -3.628613    2.158406    0.556228
      9          1           0       -4.052778    2.606255    1.329597
     10          1           0       -2.842512    2.690673    0.274885
     11          7           0       -4.591145    2.041294   -0.557285
     12          1           0       -4.794451    2.872003   -0.896109
     13          1           0       -5.367614    1.640236   -0.271133
     14          6           0        0.660913   -1.548077    0.386836
     15          1           0        0.412265   -2.414338    0.687510
     16          6           0        1.981265   -1.166779    0.400604
     17          1           0        2.636416   -1.781191    0.707239
     18          6           0        2.385228    0.103195   -0.024460
     19          6           0        1.400235    0.968997   -0.482774
     20          1           0        1.644248    1.836217   -0.785227
     21          6           0        0.059412    0.590352   -0.505930
     22          1           0       -0.599396    1.194880   -0.825336
     23          6           0        3.872817    0.479312    0.011242
     24          6           0        4.419654    0.190030    1.410054
     25          1           0        4.349477   -0.769144    1.595652
     26          1           0        3.901173    0.690475    2.074065
     27          1           0        5.359227    0.464944    1.456264
     28          6           0        4.096763    1.958114   -0.277637
     29          1           0        5.052204    2.164043   -0.202818
     30          1           0        3.593694    2.497154    0.368585
     31          1           0        3.788062    2.163267   -1.184853
     32          6           0        4.624414   -0.349388   -1.037472
     33          1           0        4.494852   -1.303278   -0.854373
     34          1           0        5.579460   -0.136656   -0.998306
     35          1           0        4.279446   -0.136594   -1.929504
     36          8           0       -2.261567   -1.902743    1.077974
 ---------------------------------------------------------------------
 Rotational constants (GHZ):           0.8308629           0.2081971           0.1836467
 Leave Link  202 at Mon Mar  6 10:21:43 2023, MaxMem=  1048576000 cpu:               0.0 elap:               0.0
 (Enter /ssoft/spack/external/gaussian/g16-C.01/avx2/g16/l301.exe)
 Standard basis: def2SVP (5D, 7F)
 Ernie: Thresh=  0.10000D-02 Tol=  0.10000D-05 Strict=F.
 There are   354 symmetry adapted cartesian basis functions of A   symmetry.
 There are   337 symmetry adapted basis functions of A   symmetry.
   337 basis functions,   570 primitive gaussians,   354 cartesian basis functions
    69 alpha electrons       69 beta electrons
       nuclear repulsion energy      1408.8614722542 Hartrees.
 IExCor= 1009 DFT=T Ex+Corr=PBE1PBE ExCW=0 ScaHFX=  0.250000
 ScaDFX=  0.750000  0.750000  1.000000  1.000000 ScalE2=  1.000000  1.000000
 IRadAn=      5 IRanWt=     -1 IRanGd=            0 ICorTp=0 IEmpDi=141
 NAtoms=   36 NActive=   36 NUniq=   36 SFac= 1.00D+00 NAtFMM=   60 NAOKFM=F Big=F
 Integral buffers will be    131072 words long.
 Raffenetti 2 integral format.
 Two-electron integral symmetry is turned on.
 R6Disp:  Grimme-D3(BJ) Dispersion energy=       -0.0402420207 Hartrees.
 Nuclear repulsion after empirical dispersion term =     1408.8212302335 Hartrees.
 Leave Link  301 at Mon Mar  6 10:21:43 2023, MaxMem=  1048576000 cpu:               0.1 elap:               0.1
 (Enter /ssoft/spack/external/gaussian/g16-C.01/avx2/g16/l302.exe)
 NPDir=0 NMtPBC=     1 NCelOv=     1 NCel=       1 NClECP=     1 NCelD=      1
         NCelK=      1 NCelE2=     1 NClLst=     1 CellRange=     0.0.
 One-electron integrals computed using PRISM.
 One-electron integral symmetry used in STVInt
   1 Symmetry operations used in ECPInt.
 ECPInt:  NShTT=   13041 NPrTT=   46953 LenC2=   11614 LenP2D=   29924.
 LDataN:  DoStor=T MaxTD1= 4 Len=   56
 NBasis=   337 RedAO= T EigKep=  2.53D-04  NBF=   337
 NBsUse=   337 1.00D-06 EigRej= -1.00D+00 NBFU=   337
 Precomputing XC quadrature grid using
 IXCGrd= 4 IRadAn=           5 IRanWt=          -1 IRanGd=           0 AccXCQ= 0.00D+00.
 Generated NRdTot=       0 NPtTot=           0 NUsed=           0 NTot=          32
 NSgBfM=   352   352   352   352   352 MxSgAt=    36 MxSgA2=    36.
 Leave Link  302 at Mon Mar  6 10:21:44 2023, MaxMem=  1048576000 cpu:               1.2 elap:               1.2
 (Enter /ssoft/spack/external/gaussian/g16-C.01/avx2/g16/l303.exe)
 DipDrv:  MaxL=1.
 Leave Link  303 at Mon Mar  6 10:21:44 2023, MaxMem=  1048576000 cpu:               0.1 elap:               0.1
 (Enter /ssoft/spack/external/gaussian/g16-C.01/avx2/g16/l401.exe)
 ExpMin= 1.22D-01 ExpMax= 9.18D+03 ExpMxC= 1.38D+03 IAcc=3 IRadAn=         5 AccDes= 0.00D+00
 Harris functional with IExCor= 1009 and IRadAn=       5 diagonalized for initial guess.
 HarFok:  IExCor= 1009 AccDes= 0.00D+00 IRadAn=         5 IDoV= 1 UseB2=F ITyADJ=14
 ICtDFT=  3500011 ScaDFX=  1.000000  1.000000  1.000000  1.000000
 FoFCou: FMM=F IPFlag=           0 FMFlag=      100000 FMFlg1=           0
         NFxFlg=           0 DoJE=T BraDBF=F KetDBF=T FulRan=T
         wScrn=  0.000000 ICntrl=       500 IOpCl=  0 I1Cent=   200000004 NGrid=           0
         NMat0=    1 NMatS0=      1 NMatT0=    0 NMatD0=    1 NMtDS0=    0 NMtDT0=    0
 Petite list used in FoFCou.
 Harris En= -1125.54087012157    
 JPrj=0 DoOrth=F DoCkMO=F.
 Leave Link  401 at Mon Mar  6 10:21:54 2023, MaxMem=  1048576000 cpu:               9.6 elap:               9.7
 (Enter /ssoft/spack/external/gaussian/g16-C.01/avx2/g16/l502.exe)
 Integral symmetry usage will be decided dynamically.
 Closed shell SCF:
 Using DIIS extrapolation, IDIIS=  1040.
 NGot=  1048576000 LenX=  1048318512 LenY=  1048192755
 Requested convergence on RMS density matrix=1.00D-08 within 128 cycles.
 Requested convergence on MAX density matrix=1.00D-06.
 Requested convergence on             energy=1.00D-06.
 No special actions if energy rises.
 Fock matrices will be formed incrementally for  20 cycles.
 Integral accuracy reduced to 1.0D-05 until final iterations.

 Cycle   1  Pass 0  IDiag  1:
 FoFJK:  IHMeth= 1 ICntrl=       0 DoSepK=F KAlg= 0 I1Cent=           0 FoldK=F
 IRaf= 830000000 NMat=       1 IRICut=       1 DoRegI=T DoRafI=F ISym2E= 0 IDoP0=0 IntGTp=1.
 FoFCou: FMM=F IPFlag=           0 FMFlag=      100000 FMFlg1=           0
         NFxFlg=           0 DoJE=F BraDBF=F KetDBF=F FulRan=T
         wScrn=  0.000000 ICntrl=         0 IOpCl=  0 I1Cent=           0 NGrid=           0
         NMat0=    1 NMatS0=      1 NMatT0=    0 NMatD0=    1 NMtDS0=    0 NMtDT0=    0
 Symmetry not used in FoFCou.
 E= -1124.24888138053    
 DIIS: error= 3.75D-02 at cycle   1 NSaved=   1.
 NSaved= 1 IEnMin= 1 EnMin= -1124.24888138053     IErMin= 1 ErrMin= 3.75D-02
 ErrMax= 3.75D-02  0.00D+00 EMaxC= 1.00D-01 BMatC= 7.71D-01 BMatP= 7.71D-01
 IDIUse=3 WtCom= 6.25D-01 WtEn= 3.75D-01
 Coeff-Com:  0.100D+01
 Coeff-En:   0.100D+01
 Coeff:      0.100D+01
 Gap=     0.123 Goal=   None    Shift=    0.000
 GapD=    0.123 DampG=1.000 DampE=0.500 DampFc=0.5000 IDamp=-1.
 Damping current iteration by 5.00D-01
 RMSDP=7.50D-03 MaxDP=4.03D-01              OVMax= 2.26D-01

 Cycle   2  Pass 0  IDiag  1:
 RMSU=  3.72D-03    CP:  9.78D-01
 E= -1124.54357245283     Delta-E=       -0.294691072302 Rises=F Damp=T
 DIIS: error= 1.03D-02 at cycle   2 NSaved=   2.
 NSaved= 2 IEnMin= 2 EnMin= -1124.54357245283     IErMin= 2 ErrMin= 1.03D-02
 ErrMax= 1.03D-02  0.00D+00 EMaxC= 1.00D-01 BMatC= 5.19D-02 BMatP= 7.71D-01
 IDIUse=3 WtCom= 8.97D-01 WtEn= 1.03D-01
 Coeff-Com:  0.114D+00 0.886D+00
 Coeff-En:   0.170D+00 0.830D+00
 Coeff:      0.120D+00 0.880D+00
 Gap=     0.191 Goal=   None    Shift=    0.000
 RMSDP=2.29D-03 MaxDP=1.25D-01 DE=-2.95D-01 OVMax= 1.88D-01

 Cycle   3  Pass 0  IDiag  1:
 RMSU=  2.09D-03    CP:  9.52D-01  7.94D-01
 E= -1124.92525546690     Delta-E=       -0.381683014070 Rises=F Damp=F
 DIIS: error= 8.58D-03 at cycle   3 NSaved=   3.
 NSaved= 3 IEnMin= 3 EnMin= -1124.92525546690     IErMin= 3 ErrMin= 8.58D-03
 ErrMax= 8.58D-03  0.00D+00 EMaxC= 1.00D-01 BMatC= 4.69D-02 BMatP= 5.19D-02
 IDIUse=3 WtCom= 9.14D-01 WtEn= 8.58D-02
 Coeff-Com:  0.171D-01 0.486D+00 0.497D+00
 Coeff-En:   0.000D+00 0.000D+00 0.100D+01
 Coeff:      0.156D-01 0.444D+00 0.540D+00
 Gap=     0.149 Goal=   None    Shift=    0.000
 RMSDP=1.19D-03 MaxDP=5.39D-02 DE=-3.82D-01 OVMax= 6.16D-02

 Cycle   4  Pass 0  IDiag  1:
 RMSU=  7.23D-04    CP:  9.60D-01  8.89D-01  5.91D-01
 E= -1124.96335640375     Delta-E=       -0.038100936851 Rises=F Damp=F
 DIIS: error= 3.81D-03 at cycle   4 NSaved=   4.
 NSaved= 4 IEnMin= 4 EnMin= -1124.96335640375     IErMin= 4 ErrMin= 3.81D-03
 ErrMax= 3.81D-03  0.00D+00 EMaxC= 1.00D-01 BMatC= 6.20D-03 BMatP= 4.69D-02
 IDIUse=3 WtCom= 9.62D-01 WtEn= 3.81D-02
 Coeff-Com:  0.103D-03 0.134D+00 0.292D+00 0.575D+00
 Coeff-En:   0.000D+00 0.000D+00 0.103D+00 0.897D+00
 Coeff:      0.995D-04 0.128D+00 0.285D+00 0.587D+00
 Gap=     0.150 Goal=   None    Shift=    0.000
 RMSDP=3.79D-04 MaxDP=1.85D-02 DE=-3.81D-02 OVMax= 3.13D-02

 Cycle   5  Pass 0  IDiag  1:
 RMSU=  2.24D-04    CP:  9.58D-01  8.68D-01  6.90D-01  7.14D-01
 E= -1124.96849672007     Delta-E=       -0.005140316325 Rises=F Damp=F
 DIIS: error= 1.60D-03 at cycle   5 NSaved=   5.
 NSaved= 5 IEnMin= 5 EnMin= -1124.96849672007     IErMin= 5 ErrMin= 1.60D-03
 ErrMax= 1.60D-03  0.00D+00 EMaxC= 1.00D-01 BMatC= 9.05D-04 BMatP= 6.20D-03
 IDIUse=3 WtCom= 9.84D-01 WtEn= 1.60D-02
 Coeff-Com: -0.198D-02 0.243D-01 0.107D+00 0.353D+00 0.518D+00
 Coeff-En:   0.000D+00 0.000D+00 0.000D+00 0.132D+00 0.868D+00
 Coeff:     -0.195D-02 0.239D-01 0.105D+00 0.349D+00 0.523D+00
 Gap=     0.154 Goal=   None    Shift=    0.000
 RMSDP=1.38D-04 MaxDP=5.77D-03 DE=-5.14D-03 OVMax= 1.27D-02

 Cycle   6  Pass 0  IDiag  1:
 RMSU=  8.07D-05    CP:  9.58D-01  8.71D-01  6.81D-01  7.60D-01  5.37D-01
 E= -1124.96942884473     Delta-E=       -0.000932124658 Rises=F Damp=F
 DIIS: error= 3.04D-04 at cycle   6 NSaved=   6.
 NSaved= 6 IEnMin= 6 EnMin= -1124.96942884473     IErMin= 6 ErrMin= 3.04D-04
 ErrMax= 3.04D-04  0.00D+00 EMaxC= 1.00D-01 BMatC= 4.62D-05 BMatP= 9.05D-04
 IDIUse=3 WtCom= 9.97D-01 WtEn= 3.04D-03
 Coeff-Com: -0.967D-03 0.259D-02 0.290D-01 0.124D+00 0.266D+00 0.579D+00
 Coeff-En:   0.000D+00 0.000D+00 0.000D+00 0.000D+00 0.000D+00 0.100D+01
 Coeff:     -0.964D-03 0.258D-02 0.289D-01 0.124D+00 0.265D+00 0.580D+00
 Gap=     0.152 Goal=   None    Shift=    0.000
 RMSDP=3.56D-05 MaxDP=1.42D-03 DE=-9.32D-04 OVMax= 2.44D-03

 Cycle   7  Pass 0  IDiag  1:
 RMSU=  1.53D-05    CP:  9.58D-01  8.71D-01  6.83D-01  7.60D-01  5.86D-01
                    CP:  6.31D-01
 E= -1124.96947465240     Delta-E=       -0.000045807668 Rises=F Damp=F
 DIIS: error= 5.49D-05 at cycle   7 NSaved=   7.
 NSaved= 7 IEnMin= 7 EnMin= -1124.96947465240     IErMin= 7 ErrMin= 5.49D-05
 ErrMax= 5.49D-05  0.00D+00 EMaxC= 1.00D-01 BMatC= 2.64D-06 BMatP= 4.62D-05
 IDIUse=1 WtCom= 1.00D+00 WtEn= 0.00D+00
 Coeff-Com: -0.333D-03-0.811D-03 0.585D-02 0.351D-01 0.934D-01 0.281D+00
 Coeff-Com:  0.585D+00
 Coeff:     -0.333D-03-0.811D-03 0.585D-02 0.351D-01 0.934D-01 0.281D+00
 Coeff:      0.585D+00
 Gap=     0.152 Goal=   None    Shift=    0.000
 RMSDP=6.66D-06 MaxDP=3.45D-04 DE=-4.58D-05 OVMax= 2.97D-04

 Initial convergence to 1.0D-05 achieved.  Increase integral accuracy.
 Cycle   8  Pass 1  IDiag  1:
 E= -1124.96951249652     Delta-E=       -0.000037844116 Rises=F Damp=F
 DIIS: error= 6.47D-05 at cycle   1 NSaved=   1.
 NSaved= 1 IEnMin= 1 EnMin= -1124.96951249652     IErMin= 1 ErrMin= 6.47D-05
 ErrMax= 6.47D-05  0.00D+00 EMaxC= 1.00D-01 BMatC= 7.91D-07 BMatP= 7.91D-07
 IDIUse=1 WtCom= 1.00D+00 WtEn= 0.00D+00
 Coeff-Com:  0.100D+01
 Coeff:      0.100D+01
 Gap=     0.152 Goal=   None    Shift=    0.000
 RMSDP=6.66D-06 MaxDP=3.45D-04 DE=-3.78D-05 OVMax= 2.17D-04

 Cycle   9  Pass 1  IDiag  1:
 RMSU=  4.80D-05    CP:  1.00D+00
 E= -1124.96951315209     Delta-E=       -0.000000655574 Rises=F Damp=F
 DIIS: error= 1.64D-05 at cycle   2 NSaved=   2.
 NSaved= 2 IEnMin= 2 EnMin= -1124.96951315209     IErMin= 2 ErrMin= 1.64D-05
 ErrMax= 1.64D-05  0.00D+00 EMaxC= 1.00D-01 BMatC= 2.02D-07 BMatP= 7.91D-07
 IDIUse=1 WtCom= 1.00D+00 WtEn= 0.00D+00
 Coeff-Com:  0.261D+00 0.739D+00
 Coeff:      0.261D+00 0.739D+00
 Gap=     0.152 Goal=   None    Shift=    0.000
 RMSDP=3.35D-06 MaxDP=1.16D-04 DE=-6.56D-07 OVMax= 1.70D-04

 Cycle  10  Pass 1  IDiag  1:
 RMSU=  3.31D-06    CP:  1.00D+00  1.01D+00
 E= -1124.96951316256     Delta-E=       -0.000000010467 Rises=F Damp=F
 DIIS: error= 1.83D-05 at cycle   3 NSaved=   3.
 NSaved= 3 IEnMin= 3 EnMin= -1124.96951316256     IErMin= 2 ErrMin= 1.64D-05
 ErrMax= 1.83D-05  0.00D+00 EMaxC= 1.00D-01 BMatC= 1.97D-07 BMatP= 2.02D-07
 IDIUse=1 WtCom= 1.00D+00 WtEn= 0.00D+00
 Coeff-Com:  0.470D-02 0.496D+00 0.499D+00
 Coeff:      0.470D-02 0.496D+00 0.499D+00
 Gap=     0.152 Goal=   None    Shift=    0.000
 RMSDP=1.74D-06 MaxDP=7.29D-05 DE=-1.05D-08 OVMax= 1.02D-04

 Cycle  11  Pass 1  IDiag  1:
 RMSU=  4.64D-07    CP:  1.00D+00  1.02D+00  5.04D-01
 E= -1124.96951332821     Delta-E=       -0.000000165652 Rises=F Damp=F
 DIIS: error= 2.59D-06 at cycle   4 NSaved=   4.
 NSaved= 4 IEnMin= 4 EnMin= -1124.96951332821     IErMin= 4 ErrMin= 2.59D-06
 ErrMax= 2.59D-06  0.00D+00 EMaxC= 1.00D-01 BMatC= 4.62D-09 BMatP= 1.97D-07
 IDIUse=1 WtCom= 1.00D+00 WtEn= 0.00D+00
 Coeff-Com: -0.391D-02 0.263D+00 0.283D+00 0.457D+00
 Coeff:     -0.391D-02 0.263D+00 0.283D+00 0.457D+00
 Gap=     0.152 Goal=   None    Shift=    0.000
 RMSDP=2.29D-07 MaxDP=1.04D-05 DE=-1.66D-07 OVMax= 1.44D-05

 Cycle  12  Pass 1  IDiag  1:
 RMSU=  1.30D-07    CP:  1.00D+00  1.02D+00  5.21D-01  6.16D-01
 E= -1124.96951333208     Delta-E=       -0.000000003873 Rises=F Damp=F
 DIIS: error= 4.26D-07 at cycle   5 NSaved=   5.
 NSaved= 5 IEnMin= 5 EnMin= -1124.96951333208     IErMin= 5 ErrMin= 4.26D-07
 ErrMax= 4.26D-07  0.00D+00 EMaxC= 1.00D-01 BMatC= 8.42D-11 BMatP= 4.62D-09
 IDIUse=1 WtCom= 1.00D+00 WtEn= 0.00D+00
 Coeff-Com: -0.206D-02 0.111D+00 0.121D+00 0.222D+00 0.548D+00
 Coeff:     -0.206D-02 0.111D+00 0.121D+00 0.222D+00 0.548D+00
 Gap=     0.152 Goal=   None    Shift=    0.000
 RMSDP=4.35D-08 MaxDP=1.60D-06 DE=-3.87D-09 OVMax= 2.13D-06

 Cycle  13  Pass 1  IDiag  1:
 RMSU=  3.95D-08    CP:  1.00D+00  1.02D+00  5.21D-01  6.32D-01  8.86D-01
 E= -1124.96951333214     Delta-E=       -0.000000000054 Rises=F Damp=F
 DIIS: error= 1.00D-07 at cycle   6 NSaved=   6.
 NSaved= 6 IEnMin= 6 EnMin= -1124.96951333214     IErMin= 6 ErrMin= 1.00D-07
 ErrMax= 1.00D-07  0.00D+00 EMaxC= 1.00D-01 BMatC= 7.73D-12 BMatP= 8.42D-11
 IDIUse=1 WtCom= 1.00D+00 WtEn= 0.00D+00
 Coeff-Com: -0.697D-03 0.330D-01 0.362D-01 0.721D-01 0.277D+00 0.583D+00
 Coeff:     -0.697D-03 0.330D-01 0.362D-01 0.721D-01 0.277D+00 0.583D+00
 Gap=     0.152 Goal=   None    Shift=    0.000
 RMSDP=1.43D-08 MaxDP=4.77D-07 DE=-5.41D-11 OVMax= 1.03D-06

 Cycle  14  Pass 1  IDiag  1:
 RMSU=  1.18D-08    CP:  1.00D+00  1.02D+00  5.21D-01  6.31D-01  9.27D-01
                    CP:  8.56D-01
 E= -1124.96951333216     Delta-E=       -0.000000000026 Rises=F Damp=F
 DIIS: error= 3.95D-08 at cycle   7 NSaved=   7.
 NSaved= 7 IEnMin= 7 EnMin= -1124.96951333216     IErMin= 7 ErrMin= 3.95D-08
 ErrMax= 3.95D-08  0.00D+00 EMaxC= 1.00D-01 BMatC= 9.51D-13 BMatP= 7.73D-12
 IDIUse=1 WtCom= 1.00D+00 WtEn= 0.00D+00
 Coeff-Com: -0.269D-04-0.652D-03-0.562D-03 0.190D-02 0.517D-01 0.289D+00
 Coeff-Com:  0.659D+00
 Coeff:     -0.269D-04-0.652D-03-0.562D-03 0.190D-02 0.517D-01 0.289D+00
 Coeff:      0.659D+00
 Gap=     0.152 Goal=   None    Shift=    0.000
 RMSDP=5.38D-09 MaxDP=1.69D-07 DE=-2.59D-11 OVMax= 3.86D-07

 SCF Done:  E(RPBE1PBE) =  -1124.96951333     A.U. after   14 cycles
            NFock= 14  Conv=0.54D-08     -V/T= 2.0034
 KE= 1.121126893890D+03 PE=-5.477012765591D+03 EE= 1.822095128135D+03
 Leave Link  502 at Mon Mar  6 10:26:24 2023, MaxMem=  1048576000 cpu:             267.6 elap:             270.1
 (Enter /ssoft/spack/external/gaussian/g16-C.01/avx2/g16/l801.exe)
 DoSCS=F DFT=T ScalE2(SS,OS)=  1.000000  1.000000
 Range of M.O.s used for correlation:     1   337
 NBasis=   337 NAE=    69 NBE=    69 NFC=     0 NFV=     0
 NROrb=    337 NOA=    69 NOB=    69 NVA=   268 NVB=   268

 **** Warning!!: The largest alpha MO coefficient is  0.11465776D+02

 Leave Link  801 at Mon Mar  6 10:26:24 2023, MaxMem=  1048576000 cpu:               0.0 elap:               0.0
 (Enter /ssoft/spack/external/gaussian/g16-C.01/avx2/g16/l1101.exe)
 Using compressed storage, NAtomX=    36.
 Will process     37 centers per pass.
   1 Symmetry operations used in ECPInt.
 ECPInt:  NShTT=   13041 NPrTT=   46953 LenC2=   11614 LenP2D=   29924.
 LDataN:  DoStor=T MaxTD1= 5 Len=  102
 R6Disp: Adding Grimme-D3(BJ) dispersion energy 1st derivatives to the gradient.
 Leave Link 1101 at Mon Mar  6 10:26:25 2023, MaxMem=  1048576000 cpu:               0.5 elap:               0.6
 (Enter /ssoft/spack/external/gaussian/g16-C.01/avx2/g16/l1102.exe)
 Symmetrizing basis deriv contribution to polar:
 IMax=3 JMax=2 DiffMx= 0.00D+00
 Leave Link 1102 at Mon Mar  6 10:26:25 2023, MaxMem=  1048576000 cpu:               0.1 elap:               0.1
 (Enter /ssoft/spack/external/gaussian/g16-C.01/avx2/g16/l1110.exe)
 Forming Gx(P) for the SCF density, NAtomX=    36.
 Integral derivatives from FoFJK, PRISM(SPDF).
 Do as many integral derivatives as possible in FoFJK.
 G2DrvN: MDV=    1048572156.
 G2DrvN: will do    37 centers at a time, making    1 passes.
 Calling FoFCou, ICntrl=  3107 FMM=F I1Cent=   0 AccDes= 0.00D+00.
 FoFJK:  IHMeth= 1 ICntrl=    3107 DoSepK=F KAlg= 0 I1Cent=           0 FoldK=F
 IRaf=         0 NMat=       1 IRICut=       1 DoRegI=T DoRafI=F ISym2E= 0 IDoP0=0 IntGTp=1.
 FoFCou: FMM=F IPFlag=           0 FMFlag=      100000 FMFlg1=           0
         NFxFlg=           0 DoJE=F BraDBF=F KetDBF=F FulRan=T
         wScrn=  0.000000 ICntrl=      3107 IOpCl=  0 I1Cent=           0 NGrid=           0
         NMat0=    1 NMatS0=      1 NMatT0=    0 NMatD0=    1 NMtDS0=    0 NMtDT0=    0
 Symmetry not used in FoFCou.
 End of G2Drv F.D. properties file   721 does not exist.
 End of G2Drv F.D. properties file   722 does not exist.
 End of G2Drv F.D. properties file   788 does not exist.
 Leave Link 1110 at Mon Mar  6 10:38:41 2023, MaxMem=  1048576000 cpu:             732.5 elap:             735.9
 (Enter /ssoft/spack/external/gaussian/g16-C.01/avx2/g16/l1002.exe)
 Minotr:  Closed shell wavefunction.
          IDoAtm=111111111111111111111111111111111111
          Direct CPHF calculation.
          Differentiating once with respect to electric field.
                with respect to dipole field.
          Differentiating once with respect to nuclear coordinates.
          Requested convergence is 1.0D-08 RMS, and 1.0D-07 maximum.
          Secondary convergence is 1.0D-12 RMS, and 1.0D-12 maximum.
          NewPWx=T KeepS1=F KeepF1=F KeepIn=T MapXYZ=F SortEE=F KeepMc=T.
        10897 words used for storage of precomputed grid.
 Two-electron integrals replicated using symmetry.
          MDV=    1048576000 using IRadAn=       1.
          Solving linear equations simultaneously, MaxMat=     384.
 FoF2E skips out because all densities are zero.
 CalDSu exits because no D1Ps are significant.
 FoFJK:  IHMeth= 1 ICntrl=       0 DoSepK=F KAlg= 0 I1Cent=           0 FoldK=F
 IRaf= 800000000 NMat=     108 IRICut=     270 DoRegI=T DoRafI=T ISym2E= 2 IDoP0=3 IntGTp=3.
 FoFCou: FMM=F IPFlag=           0 FMFlag=      100000 FMFlg1=           0
         NFxFlg=           0 DoJE=F BraDBF=F KetDBF=F FulRan=T
         wScrn=  0.000000 ICntrl=         0 IOpCl=  0 I1Cent=           0 NGrid=           0
         NMat0=  108 NMatS0=    108 NMatT0=    0 NMatD0=  108 NMtDS0=    0 NMtDT0=    0
 Integrals replicated using symmetry in FoFCou.
 Raff kept on since  75.95% of shell-pairs survive, threshold=   0.20 IRatSp=76.
          There are   111 degrees of freedom in the 1st order CPHF.  IDoFFX=6 NUNeed=     3.
    108 vectors produced by pass  0 Test12= 1.85D-14 1.00D-09 XBig12= 1.64D+02 4.82D+00.
 AX will form   108 AO Fock derivatives at one time.
    108 vectors produced by pass  1 Test12= 1.85D-14 1.00D-09 XBig12= 3.05D+01 1.04D+00.
    108 vectors produced by pass  2 Test12= 1.85D-14 1.00D-09 XBig12= 2.51D-01 4.85D-02.
    108 vectors produced by pass  3 Test12= 1.85D-14 1.00D-09 XBig12= 1.25D-03 3.91D-03.
    108 vectors produced by pass  4 Test12= 1.85D-14 1.00D-09 XBig12= 3.55D-06 1.71D-04.
     88 vectors produced by pass  5 Test12= 1.85D-14 1.00D-09 XBig12= 5.33D-09 6.96D-06.
     21 vectors produced by pass  6 Test12= 1.85D-14 1.00D-09 XBig12= 6.05D-12 2.02D-07.
      3 vectors produced by pass  7 Test12= 1.85D-14 1.00D-09 XBig12= 6.28D-15 6.63D-09.
      3 vectors produced by pass  8 Test12= 1.85D-14 1.00D-09 XBig12= 2.51D-16 1.33D-09.
      2 vectors produced by pass  9 Test12= 1.85D-14 1.00D-09 XBig12= 2.98D-16 1.66D-09.
 InvSVY:  IOpt=1 It=  1 EMax= 3.55D-15
 Solved reduced A of dimension   657 with   111 vectors.
 FullF1:  Do perturbations      1 to       3.
 Isotropic polarizability for W=    0.000000      156.93 Bohr**3.
 End of Minotr F.D. properties file   721 does not exist.
 End of Minotr F.D. properties file   722 does not exist.
 End of Minotr F.D. properties file   788 does not exist.
 Leave Link 1002 at Mon Mar  6 10:57:25 2023, MaxMem=  1048576000 cpu:            1119.9 elap:            1123.9
 (Enter /ssoft/spack/external/gaussian/g16-C.01/avx2/g16/l601.exe)
 Copying SCF densities to generalized density rwf, IOpCl= 0 IROHF=0.

 **********************************************************************

            Population analysis using the SCF Density.

 **********************************************************************

 Orbital symmetries:
       Occupied  (A) (A) (A) (A) (A) (A) (A) (A) (A) (A) (A) (A)
                 (A) (A) (A) (A) (A) (A) (A) (A) (A) (A) (A) (A)
                 (A) (A) (A) (A) (A) (A) (A) (A) (A) (A) (A) (A)
                 (A) (A) (A) (A) (A) (A) (A) (A) (A) (A) (A) (A)
                 (A) (A) (A) (A) (A) (A) (A) (A) (A) (A) (A) (A)
                 (A) (A) (A) (A) (A) (A) (A) (A) (A)
       Virtual   (A) (A) (A) (A) (A) (A) (A) (A) (A) (A) (A) (A)
                 (A) (A) (A) (A) (A) (A) (A) (A) (A) (A) (A) (A)
                 (A) (A) (A) (A) (A) (A) (A) (A) (A) (A) (A) (A)
                 (A) (A) (A) (A) (A) (A) (A) (A) (A) (A) (A) (A)
                 (A) (A) (A) (A) (A) (A) (A) (A) (A) (A) (A) (A)
                 (A) (A) (A) (A) (A) (A) (A) (A) (A) (A) (A) (A)
                 (A) (A) (A) (A) (A) (A) (A) (A) (A) (A) (A) (A)
                 (A) (A) (A) (A) (A) (A) (A) (A) (A) (A) (A) (A)
                 (A) (A) (A) (A) (A) (A) (A) (A) (A) (A) (A) (A)
                 (A) (A) (A) (A) (A) (A) (A) (A) (A) (A) (A) (A)
                 (A) (A) (A) (A) (A) (A) (A) (A) (A) (A) (A) (A)
                 (A) (A) (A) (A) (A) (A) (A) (A) (A) (A) (A) (A)
                 (A) (A) (A) (A) (A) (A) (A) (A) (A) (A) (A) (A)
                 (A) (A) (A) (A) (A) (A) (A) (A) (A) (A) (A) (A)
                 (A) (A) (A) (A) (A) (A) (A) (A) (A) (A) (A) (A)
                 (A) (A) (A) (A) (A) (A) (A) (A) (A) (A) (A) (A)
                 (A) (A) (A) (A) (A) (A) (A) (A) (A) (A) (A) (A)
                 (A) (A) (A) (A) (A) (A) (A) (A) (A) (A) (A) (A)
                 (A) (A) (A) (A) (A) (A) (A) (A) (A) (A) (A) (A)
                 (A) (A) (A) (A) (A) (A) (A) (A) (A) (A) (A) (A)
                 (A) (A) (A) (A) (A) (A) (A) (A) (A) (A) (A) (A)
                 (A) (A) (A) (A) (A) (A) (A) (A) (A) (A) (A) (A)
                 (A) (A) (A) (A)
 The electronic state is 1-A.
 Alpha  occ. eigenvalues --  -89.00757 -18.97975 -18.97934 -14.20269 -14.13850
 Alpha  occ. eigenvalues --  -10.15294 -10.12436 -10.10385 -10.10360 -10.10335
 Alpha  occ. eigenvalues --  -10.10325 -10.10266 -10.10029 -10.09729 -10.09467
 Alpha  occ. eigenvalues --  -10.08739 -10.06594  -7.97534  -5.91760  -5.91663
 Alpha  occ. eigenvalues --   -5.91559  -0.92975  -0.80321  -0.78229  -0.77730
 Alpha  occ. eigenvalues --   -0.74440  -0.70030  -0.66302  -0.64909  -0.64797
 Alpha  occ. eigenvalues --   -0.64349  -0.59743  -0.53629  -0.52183  -0.49260
 Alpha  occ. eigenvalues --   -0.47643  -0.45023  -0.41147  -0.39075  -0.39056
 Alpha  occ. eigenvalues --   -0.39007  -0.36893  -0.36780  -0.35513  -0.34799
 Alpha  occ. eigenvalues --   -0.33699  -0.32859  -0.32644  -0.32201  -0.31956
 Alpha  occ. eigenvalues --   -0.29335  -0.27952  -0.27644  -0.26889  -0.26450
 Alpha  occ. eigenvalues --   -0.25004  -0.24437  -0.23833  -0.23327  -0.22967
 Alpha  occ. eigenvalues --   -0.15841  -0.15491  -0.14836  -0.13215  -0.10966
 Alpha  occ. eigenvalues --   -0.10382  -0.10035  -0.05378  -0.03721
 Alpha virt. eigenvalues --    0.11499   0.11549   0.15599   0.19950   0.20235
 Alpha virt. eigenvalues --    0.20690   0.21790   0.22250   0.23766   0.23850
 Alpha virt. eigenvalues --    0.24784   0.25660   0.26542   0.26805   0.28293
 Alpha virt. eigenvalues --    0.28464   0.28688   0.29440   0.30382   0.30945
 Alpha virt. eigenvalues --    0.31272   0.31514   0.32506   0.33382   0.34139
 Alpha virt. eigenvalues --    0.34790   0.35431   0.36386   0.36516   0.38417
 Alpha virt. eigenvalues --    0.40102   0.40810   0.41879   0.43698   0.44467
 Alpha virt. eigenvalues --    0.45374   0.47572   0.48060   0.48891   0.52044
 Alpha virt. eigenvalues --    0.53834   0.55243   0.57480   0.57649   0.59025
 Alpha virt. eigenvalues --    0.60934   0.62128   0.62211   0.63374   0.64032
 Alpha virt. eigenvalues --    0.64415   0.65641   0.66669   0.68785   0.69695
 Alpha virt. eigenvalues --    0.71236   0.71449   0.72014   0.73291   0.75339
 Alpha virt. eigenvalues --    0.76383   0.76940   0.78199   0.78311   0.79074
 Alpha virt. eigenvalues --    0.79971   0.81704   0.82598   0.83007   0.83174
 Alpha virt. eigenvalues --    0.83369   0.83654   0.84334   0.84436   0.85254
 Alpha virt. eigenvalues --    0.85524   0.86096   0.86737   0.86950   0.87370
 Alpha virt. eigenvalues --    0.87900   0.88182   0.88724   0.89314   0.89860
 Alpha virt. eigenvalues --    0.90397   0.90832   0.91410   0.91789   0.93236
 Alpha virt. eigenvalues --    0.93505   0.94325   0.95420   0.96051   0.97718
 Alpha virt. eigenvalues --    0.98489   0.99087   1.00104   1.02234   1.02779
 Alpha virt. eigenvalues --    1.04115   1.05919   1.07260   1.07621   1.07781
 Alpha virt. eigenvalues --    1.11060   1.13125   1.14334   1.15835   1.16462
 Alpha virt. eigenvalues --    1.19335   1.20474   1.23063   1.24100   1.25881
 Alpha virt. eigenvalues --    1.26356   1.28434   1.31483   1.32503   1.33320
 Alpha virt. eigenvalues --    1.35588   1.36799   1.37221   1.38339   1.38777
 Alpha virt. eigenvalues --    1.40140   1.41940   1.42313   1.43129   1.45036
 Alpha virt. eigenvalues --    1.46198   1.48816   1.49935   1.50187   1.50975
 Alpha virt. eigenvalues --    1.53061   1.53580   1.54942   1.57775   1.59294
 Alpha virt. eigenvalues --    1.65710   1.66993   1.68208   1.70556   1.71938
 Alpha virt. eigenvalues --    1.72092   1.72420   1.73033   1.75923   1.79762
 Alpha virt. eigenvalues --    1.80554   1.82484   1.83403   1.83834   1.85659
 Alpha virt. eigenvalues --    1.86240   1.86730   1.88826   1.91856   1.92154
 Alpha virt. eigenvalues --    1.93478   1.94098   1.95959   1.98543   1.99730
 Alpha virt. eigenvalues --    2.00948   2.01464   2.02840   2.03512   2.04245
 Alpha virt. eigenvalues --    2.04585   2.05248   2.06048   2.06880   2.08093
 Alpha virt. eigenvalues --    2.08355   2.09878   2.10600   2.11503   2.12971
 Alpha virt. eigenvalues --    2.15210   2.17636   2.18044   2.18661   2.20133
 Alpha virt. eigenvalues --    2.22060   2.23237   2.23828   2.26336   2.26423
 Alpha virt. eigenvalues --    2.29319   2.32421   2.33918   2.34318   2.35167
 Alpha virt. eigenvalues --    2.35412   2.38647   2.40477   2.42406   2.43605
 Alpha virt. eigenvalues --    2.44376   2.45230   2.45689   2.46511   2.49677
 Alpha virt. eigenvalues --    2.52174   2.53720   2.54871   2.57921   2.60038
 Alpha virt. eigenvalues --    2.60850   2.64089   2.65199   2.66009   2.67232
 Alpha virt. eigenvalues --    2.69701   2.71989   2.73006   2.73512   2.76618
 Alpha virt. eigenvalues --    2.77749   2.79403   2.82360   2.85278   2.85849
 Alpha virt. eigenvalues --    2.87237   2.87453   2.88285   2.89744   2.90604
 Alpha virt. eigenvalues --    2.92686   2.95850   2.97662   2.98109   2.99943
 Alpha virt. eigenvalues --    3.01700   3.02640   3.07134   3.08275   3.09209
 Alpha virt. eigenvalues --    3.11395   3.15216   3.16254   3.18185   3.21839
 Alpha virt. eigenvalues --    3.22148   3.22642   3.24140   3.25017   3.25869
 Alpha virt. eigenvalues --    3.28102   3.29498   3.30310   3.31580   3.33932
 Alpha virt. eigenvalues --    3.35241   3.39357   3.40194   3.40693   3.43278
 Alpha virt. eigenvalues --    3.43710   3.49514   3.52257   3.57268   3.63486
 Alpha virt. eigenvalues --    3.68897   3.72407   3.92120
     Molecular Orbital Coefficients:
                          65        66        67        68        69
                           O         O         O         O         O
     Eigenvalues --    -0.10966  -0.10382  -0.10035  -0.05378  -0.03721
   1 1   C  1S          0.03713  -0.01935   0.01250  -0.02148  -0.02597
   2        2S         -0.10860   0.05093  -0.02963   0.05236   0.06325
   3        3S         -0.03156   0.04564  -0.05659   0.04468   0.19283
   4        4PX         0.15572  -0.08945   0.07257  -0.09664  -0.10880
   5        4PY         0.09979  -0.03006  -0.01494  -0.01570   0.00107
   6        4PZ         0.11637  -0.01443  -0.12778   0.00234  -0.00745
   7        5PX         0.09962  -0.07313   0.02896  -0.08999  -0.11264
   8        5PY         0.11857  -0.05255   0.04333  -0.15818  -0.06780
   9        5PZ         0.02305   0.00436  -0.07893   0.06906  -0.01577
  10        6D 0        0.00124  -0.00013   0.00010   0.00055   0.00148
  11        6D+1        0.00570  -0.00055  -0.00917   0.00038  -0.00071
  12        6D-1        0.00207   0.00068  -0.00351   0.00130   0.00094
  13        6D+2       -0.00623   0.00146  -0.00062   0.00001  -0.00532
  14        6D-2        0.00052   0.00150  -0.00132   0.00393   0.00783
  15 2   S  1S         -0.00086   0.00236  -0.00202   0.00798  -0.00042
  16        2S         -0.00600   0.01581  -0.01349   0.05315  -0.00285
  17        3S          0.02977  -0.03431   0.03014  -0.09550   0.00677
  18        4S         -0.08629   0.00908  -0.01153  -0.05393  -0.02366
  19        5PX        -0.01400   0.01331  -0.01453   0.02875  -0.01627
  20        5PY         0.00336  -0.01482   0.01374  -0.04727  -0.01229
  21        5PZ        -0.00142   0.00233   0.00378   0.00388   0.00131
  22        6PX        -0.03889   0.03122  -0.03167   0.06355  -0.02452
  23        6PY         0.01072  -0.02993   0.02960  -0.09393  -0.01653
  24        6PZ        -0.00458   0.00357  -0.00399   0.01328   0.00178
  25        7PX         0.06979  -0.02810   0.00065  -0.02331  -0.12264
  26        7PY        -0.03596  -0.02183   0.00086  -0.07325  -0.10698
  27        7PZ         0.02536   0.01615   0.13558  -0.08071   0.01350
  28        8D 0        0.00463  -0.00512  -0.01612   0.01458  -0.03977
  29        8D+1       -0.06511   0.00337   0.04863   0.00264   0.01161
  30        8D-1        0.02474   0.00968   0.08099  -0.01213   0.01127
  31        8D+2       -0.05145   0.03459  -0.02393   0.04642   0.10931
  32        8D-2       -0.08951   0.03386  -0.04389   0.02875  -0.05919
  33 3   O  1S         -0.00142  -0.00108   0.00011  -0.00426  -0.00656
  34        2S         -0.00632  -0.00146  -0.00138  -0.00433  -0.01517
  35        3S          0.02260  -0.00812   0.04019  -0.05664  -0.03083
  36        4PX         0.48047  -0.09250  -0.10935   0.01009   0.09212
  37        4PY        -0.11100  -0.02426  -0.22960  -0.12768   0.00269
  38        4PZ         0.10940   0.02060   0.27777   0.08588  -0.08718
  39        5PX         0.37350  -0.07187  -0.08486   0.00599   0.08257
  40        5PY        -0.07825  -0.01736  -0.16751  -0.11005   0.00836
  41        5PZ         0.08691   0.01238   0.21744   0.05143  -0.07850
  42        6D 0        0.00459   0.00139   0.01278   0.00572  -0.00327
  43        6D+1        0.01740  -0.00285  -0.00297   0.00216   0.00296
  44        6D-1       -0.00185  -0.00061  -0.00269  -0.00367  -0.00024
  45        6D+2        0.00408   0.00110   0.00640   0.00484   0.00179
  46        6D-2        0.01016  -0.00191  -0.00495  -0.00010   0.00095
  47 4   N  1S          0.01818   0.01336  -0.00753   0.08805   0.00325
  48        2S          0.03595   0.01963  -0.00974   0.17700   0.01502
  49        3S          0.12849   0.07005  -0.01678   0.26514  -0.02792
  50        4PX        -0.08122   0.10919  -0.04034   0.18811   0.38586
  51        4PY         0.09348  -0.03979   0.08986  -0.10567   0.32665
  52        4PZ         0.03823   0.06130  -0.05049   0.35809  -0.09226
  53        5PX         0.07317  -0.08733   0.03207  -0.15225  -0.33382
  54        5PY        -0.06900   0.03999  -0.06750   0.08195  -0.27182
  55        5PZ        -0.00298  -0.05168   0.02653  -0.26358   0.06888
  56        6D 0       -0.00447  -0.00028  -0.00089  -0.01078   0.00474
  57        6D+1        0.00195  -0.00206   0.00363  -0.01422  -0.00857
  58        6D-1       -0.00540   0.00016  -0.00424   0.00970  -0.01102
  59        6D+2        0.00025  -0.00105  -0.00135  -0.00279  -0.01886
  60        6D-2       -0.00399   0.00237  -0.00278   0.00717   0.00318
  61 5   C  1S          0.02064   0.02541   0.00623   0.02146  -0.00384
  62        2S         -0.05135  -0.06166  -0.00913  -0.05067   0.01365
  63        3S         -0.11510  -0.09952  -0.06359  -0.08234   0.03038
  64        4PX        -0.03556   0.06975  -0.02781   0.00825   0.07706
  65        4PY         0.04775  -0.07126   0.03983   0.07061   0.06023
  66        4PZ         0.06999   0.05597  -0.00492   0.11396  -0.01700
  67        5PX        -0.02185  -0.03440  -0.00828  -0.01470  -0.03691
  68        5PY        -0.02840  -0.06530  -0.02214   0.04714  -0.00890
  69        5PZ         0.05600   0.03678   0.00618   0.04559  -0.03511
  70        6D 0       -0.00521   0.00543  -0.00528   0.00958  -0.00556
  71        6D+1       -0.00138   0.00686  -0.00147   0.01062   0.02417
  72        6D-1       -0.00196   0.00451   0.00051  -0.00619   0.01216
  73        6D+2       -0.00141   0.00343  -0.00448   0.00552  -0.01266
  74        6D-2       -0.00205   0.00085  -0.00381   0.01009   0.00059
  75 6   H  1S         -0.01338   0.07567  -0.03545   0.08444   0.09438
  76        2S          0.02409   0.09498   0.02011   0.11841   0.10744
  77        3PX        -0.00007   0.00043  -0.00034  -0.00288  -0.00030
  78        3PY         0.00158  -0.00229  -0.00100   0.00181   0.00649
  79        3PZ         0.00093  -0.00011  -0.00023   0.00396   0.00076
  80 7   H  1S          0.00952  -0.03595  -0.01327  -0.00009  -0.15031
  81        2S          0.00352  -0.02763  -0.01801   0.06171  -0.14970
  82        3PX        -0.00103   0.00358  -0.00177   0.00256   0.00129
  83        3PY         0.00265  -0.00368   0.00130   0.00007  -0.00234
  84        3PZ         0.00196   0.00231   0.00047   0.00305  -0.00158
  85 8   C  1S         -0.00530   0.01739  -0.01173   0.01525  -0.01643
  86        2S          0.00892  -0.03700   0.02568  -0.04427   0.04614
  87        3S          0.09678  -0.02597   0.10083  -0.04565   0.03324
  88        4PX         0.01052  -0.05304   0.02196  -0.00603   0.02308
  89        4PY        -0.03495   0.09354  -0.05331   0.03201  -0.05947
  90        4PZ         0.02331   0.10415   0.00976  -0.03660   0.00698
  91        5PX         0.02346   0.05788   0.00683   0.01553   0.07825
  92        5PY        -0.06253   0.02507  -0.05508   0.03839   0.01261
  93        5PZ         0.01999   0.02778   0.01262  -0.04512   0.07437
  94        6D 0        0.00476   0.01993   0.00017  -0.00486  -0.00183
  95        6D+1       -0.00001  -0.00710   0.00090   0.00337   0.00646
  96        6D-1       -0.00017   0.01758  -0.00171  -0.00618  -0.00270
  97        6D+2       -0.00192  -0.00703  -0.00095   0.00500   0.00176
  98        6D-2        0.00206   0.00194   0.00082  -0.00269  -0.00243
  99 9   H  1S          0.00744   0.17664  -0.01583  -0.04578  -0.02948
 100        2S         -0.00624   0.14546  -0.02890  -0.00062  -0.06543
 101        3PX         0.00104   0.00123   0.00122  -0.00203  -0.00167
 102        3PY        -0.00129   0.00131  -0.00151   0.00027  -0.00242
 103        3PZ         0.00112   0.00109   0.00091  -0.00127  -0.00088
 104 10  H  1S         -0.01188  -0.06919  -0.00013   0.00918  -0.01310
 105        2S         -0.00717  -0.06115  -0.01187  -0.00585  -0.06918
 106        3PX        -0.00014  -0.00305   0.00026   0.00119  -0.00066
 107        3PY        -0.00015   0.00504  -0.00088   0.00043  -0.00092
 108        3PZ         0.00003   0.00147   0.00051  -0.00071   0.00010
 109 11  N  1S          0.02031   0.07278   0.00394  -0.03256  -0.00091
 110        2S          0.04355   0.15235   0.01066  -0.07455  -0.00686
 111        3S          0.05587   0.26407  -0.00919  -0.09051   0.06892
 112        4PX        -0.05605  -0.21472  -0.00640   0.07405   0.00121
 113        4PY         0.06440   0.27536   0.00732  -0.11161  -0.02865
 114        4PZ         0.08343   0.33950   0.02023  -0.14629  -0.03409
 115        5PX         0.04020   0.16418  -0.00092  -0.04906   0.01005
 116        5PY        -0.05079  -0.21773  -0.00625   0.07672   0.02050
 117        5PZ        -0.07468  -0.28752  -0.02135   0.13402   0.06177
 118        6D 0       -0.00026  -0.00112  -0.00017  -0.00022   0.00058
 119        6D+1        0.00299   0.01021   0.00092  -0.00581   0.00095
 120        6D-1       -0.00348  -0.00935  -0.00183   0.00643  -0.00031
 121        6D+2        0.00087   0.00158   0.00029  -0.00228  -0.00175
 122        6D-2        0.00188   0.00783  -0.00019  -0.00397  -0.00185
 123 12  H  1S         -0.01275  -0.07865   0.00699   0.02568   0.01500
 124        2S         -0.00619  -0.04391   0.00476   0.02585   0.00849
 125        3PX         0.00299   0.01147   0.00047  -0.00457  -0.00025
 126        3PY        -0.00201  -0.00599  -0.00079   0.00373   0.00059
 127        3PZ        -0.00506  -0.02119  -0.00113   0.01055   0.00096
 128 13  H  1S         -0.01776  -0.06690  -0.00419   0.01678  -0.01345
 129        2S         -0.01563  -0.03617  -0.00875   0.03451  -0.00271
 130        3PX         0.00106   0.00627  -0.00017  -0.00205   0.00092
 131        3PY        -0.00443  -0.02001  -0.00047   0.00800   0.00043
 132        3PZ        -0.00317  -0.01349  -0.00075   0.00638   0.00046
 133 14  C  1S         -0.00587   0.00431   0.00313   0.00717   0.01868
 134        2S          0.00623  -0.00860  -0.01255  -0.02107  -0.04703
 135        3S          0.04433   0.02058   0.00023   0.01395  -0.15619
 136        4PX        -0.04818   0.02401   0.01255   0.02673   0.05345
 137        4PY         0.04559  -0.01613  -0.03101  -0.01853  -0.01269
 138        4PZ         0.08241  -0.00128  -0.10102   0.02577   0.03232
 139        5PX        -0.05579   0.05158  -0.06249   0.12277  -0.01648
 140        5PY         0.04384  -0.01281   0.00559  -0.03401  -0.00132
 141        5PZ         0.03995   0.00357  -0.09273   0.03125   0.02970
 142        6D 0       -0.00252  -0.00004   0.00312  -0.00052  -0.00099
 143        6D+1       -0.00384   0.00083   0.00378   0.00045  -0.00002
 144        6D-1        0.00049   0.00100  -0.00387   0.00148   0.00222
 145        6D+2       -0.00740   0.00339  -0.00067   0.00294   0.00499
 146        6D-2       -0.00241   0.00070   0.00219   0.00072   0.00069
 147 15  H  1S          0.01733  -0.00664  -0.00203  -0.00494  -0.02243
 148        2S          0.04233  -0.03159   0.04580  -0.05540   0.03656
 149        3PX        -0.00037   0.00052   0.00072   0.00021   0.00104
 150        3PY         0.00239  -0.00077  -0.00103  -0.00067  -0.00021
 151        3PZ         0.00295  -0.00035  -0.00301   0.00031   0.00112
 152 16  C  1S          0.00769  -0.00422   0.00030  -0.00478  -0.01047
 153        2S         -0.01599   0.01000   0.00082   0.01100   0.02422
 154        3S         -0.02758  -0.02520   0.03153  -0.04744   0.07724
 155        4PX         0.04156  -0.02139   0.00101  -0.02087  -0.03605
 156        4PY        -0.00124  -0.00128   0.01728  -0.00290  -0.00609
 157        4PZ        -0.02717   0.00360   0.04233  -0.00232  -0.00663
 158        5PX         0.02525   0.00824  -0.02448   0.03956  -0.05557
 159        5PY        -0.00876   0.00805  -0.01857   0.04172  -0.04313
 160        5PZ        -0.00501   0.00224   0.03377  -0.00516   0.00310
 161        6D 0        0.00204   0.00011  -0.00273   0.00073   0.00082
 162        6D+1       -0.00452  -0.00011   0.00637  -0.00189  -0.00219
 163        6D-1       -0.00503   0.00066   0.00534  -0.00056  -0.00094
 164        6D+2        0.00331  -0.00099  -0.00279  -0.00076  -0.00073
 165        6D-2       -0.00338   0.00144   0.00096   0.00170   0.00200
 166 17  H  1S          0.01554  -0.01086   0.00361  -0.01280  -0.01711
 167        2S          0.00997  -0.00642  -0.00728  -0.00399  -0.03795
 168        3PX         0.00141  -0.00103   0.00040  -0.00181  -0.00055
 169        3PY        -0.00017  -0.00037   0.00122  -0.00105   0.00010
 170        3PZ        -0.00161   0.00027   0.00191  -0.00008  -0.00019
 171 18  C  1S          0.00184  -0.00138   0.00050  -0.00097  -0.00378
 172        2S         -0.00482   0.00323  -0.00117   0.00234   0.00786
 173        3S         -0.04075   0.03767  -0.01334   0.04657   0.04131
 174        4PX         0.00986  -0.00066  -0.01742   0.00359  -0.00488
 175        4PY        -0.04403   0.00297   0.05152  -0.01242  -0.00536
 176        4PZ        -0.11573   0.01268   0.13161  -0.01311  -0.02413
 177        5PX         0.02106  -0.01300   0.00429  -0.01521  -0.02241
 178        5PY        -0.06014   0.01935   0.01544   0.04363  -0.03370
 179        5PZ        -0.08020   0.00204   0.11760  -0.03898  -0.01207
 180        6D 0        0.00109  -0.00013  -0.00018  -0.00004   0.00004
 181        6D+1        0.00249  -0.00023  -0.00257   0.00025  -0.00030
 182        6D-1       -0.00108   0.00030  -0.00071   0.00031   0.00030
 183        6D+2       -0.00218   0.00106  -0.00065   0.00116  -0.00018
 184        6D-2        0.00029   0.00042  -0.00080   0.00040   0.00087
 185 19  C  1S          0.00940  -0.00419   0.00546  -0.00495   0.00431
 186        2S         -0.02370   0.00956  -0.01542   0.01109  -0.01104
 187        3S         -0.01194  -0.00160  -0.00999   0.01652  -0.19126
 188        4PX         0.05162  -0.02076   0.01664  -0.02078   0.01010
 189        4PY        -0.00610  -0.00603   0.02809  -0.00685   0.00263
 190        4PZ        -0.05808   0.00343   0.04557  -0.00533   0.00119
 191        5PX         0.06915  -0.03638   0.03622  -0.08412   0.09275
 192        5PY        -0.03529   0.01806  -0.00929   0.03301   0.02697
 193        5PZ        -0.03048  -0.00888   0.04749  -0.02158   0.00401
 194        6D 0       -0.00327   0.00054   0.00281  -0.00014   0.00010
 195        6D+1       -0.00721   0.00117   0.00785  -0.00106  -0.00104
 196        6D-1        0.00040   0.00027  -0.00166   0.00035   0.00074
 197        6D+2       -0.00139   0.00073  -0.00101   0.00033   0.00060
 198        6D-2       -0.00094  -0.00063   0.00442  -0.00086  -0.00235
 199 20  H  1S          0.02034  -0.00978   0.01176  -0.00560  -0.00583
 200        2S          0.02622  -0.01853   0.02377  -0.02429   0.01258
 201        3PX         0.00098  -0.00009  -0.00016   0.00075  -0.00138
 202        3PY        -0.00048  -0.00016   0.00098  -0.00058  -0.00044
 203        3PZ        -0.00254   0.00022   0.00212  -0.00017  -0.00000
 204 21  C  1S         -0.01065   0.00403  -0.00989   0.00546  -0.01569
 205        2S          0.02377  -0.00690   0.02774  -0.00699   0.03864
 206        3S         -0.04820  -0.00438  -0.00406   0.02255   0.23658
 207        4PX        -0.04648   0.01609  -0.01229   0.01768  -0.04023
 208        4PY        -0.00713   0.01352  -0.06471   0.00612   0.01571
 209        4PZ         0.08934  -0.01556  -0.10018   0.01587   0.01255
 210        5PX         0.00360   0.00886   0.02869  -0.02699   0.10468
 211        5PY         0.06601  -0.03225   0.00609  -0.11811   0.08789
 212        5PZ         0.05672   0.00419  -0.09784   0.04691   0.00557
 213        6D 0        0.00430  -0.00042  -0.00277   0.00010   0.00144
 214        6D+1       -0.00149  -0.00088   0.00307  -0.00140  -0.00100
 215        6D-1       -0.00688   0.00167   0.00405   0.00113   0.00050
 216        6D+2       -0.00144   0.00130  -0.00447   0.00122  -0.00081
 217        6D-2       -0.00691   0.00354  -0.00266   0.00480   0.00298
 218 22  H  1S          0.02444  -0.01040   0.01536  -0.01991   0.01603
 219        2S          0.02102   0.01839  -0.02155   0.07132  -0.12040
 220        3PX        -0.00203   0.00174  -0.00064   0.00102   0.00517
 221        3PY        -0.00108   0.00023  -0.00241   0.00080  -0.00044
 222        3PZ         0.00302  -0.00068  -0.00334   0.00023   0.00072
 223 23  C  1S          0.00290  -0.00133   0.00103  -0.00149  -0.00002
 224        2S         -0.00808   0.00471  -0.00260   0.00628  -0.00056
 225        3S          0.00001  -0.00293  -0.01364  -0.01260   0.02665
 226        4PX         0.00995  -0.00508   0.00774  -0.00541   0.00185
 227        4PY         0.00999  -0.00157  -0.00897   0.00012   0.00065
 228        4PZ         0.02299  -0.00241  -0.02448   0.00197   0.00338
 229        5PX         0.00652  -0.00070   0.00353   0.00460  -0.00404
 230        5PY         0.00558  -0.00111   0.00662  -0.00733   0.00706
 231        5PZ        -0.00364   0.00112   0.00156   0.00351  -0.00412
 232        6D 0        0.00083  -0.00007  -0.00081   0.00017   0.00018
 233        6D+1        0.00535  -0.00063  -0.00594   0.00047   0.00133
 234        6D-1       -0.00044   0.00002   0.00043  -0.00006   0.00001
 235        6D+2       -0.00097   0.00004   0.00111  -0.00044   0.00006
 236        6D-2        0.00165  -0.00005  -0.00243   0.00078  -0.00018
 237 24  C  1S         -0.00666   0.00051   0.00805  -0.00121  -0.00256
 238        2S          0.01588  -0.00120  -0.01827   0.00259   0.00550
 239        3S          0.03661  -0.00050  -0.04834   0.01339   0.01144
 240        4PX        -0.01979   0.00241   0.01991  -0.00177  -0.00451
 241        4PY         0.00641  -0.00229  -0.00242  -0.00194  -0.00225
 242        4PZ        -0.02251   0.00284   0.02198  -0.00128  -0.00472
 243        5PX        -0.00596   0.00111   0.00565  -0.00058  -0.00114
 244        5PY         0.01326  -0.00332  -0.01091  -0.00202   0.00038
 245        5PZ        -0.01808   0.00335   0.01369   0.00225  -0.00434
 246        6D 0        0.00096  -0.00021  -0.00072  -0.00012   0.00042
 247        6D+1       -0.00021   0.00019  -0.00028   0.00027  -0.00017
 248        6D-1       -0.00065   0.00005   0.00082  -0.00014  -0.00016
 249        6D+2       -0.00153   0.00024   0.00155  -0.00009  -0.00041
 250        6D-2       -0.00038   0.00006   0.00050   0.00002  -0.00034
 251 25  H  1S          0.00312   0.00049  -0.00600   0.00181   0.00263
 252        2S          0.00305  -0.00379   0.00498  -0.00992   0.00204
 253        3PX        -0.00098   0.00028   0.00035   0.00032   0.00007
 254        3PY        -0.00016   0.00009  -0.00014   0.00004   0.00054
 255        3PZ        -0.00090   0.00016   0.00076   0.00008  -0.00011
 256 26  H  1S          0.00357  -0.00104  -0.00205  -0.00046   0.00080
 257        2S         -0.00896  -0.00022   0.01621  -0.00423  -0.00258
 258        3PX         0.00003  -0.00004  -0.00016  -0.00000   0.00004
 259        3PY        -0.00021  -0.00001   0.00027  -0.00008  -0.00018
 260        3PZ        -0.00072   0.00004   0.00083  -0.00020  -0.00007
 261 27  H  1S         -0.01494   0.00172   0.01486  -0.00158  -0.00434
 262        2S         -0.02335   0.00236   0.02463  -0.00336  -0.00830
 263        3PX        -0.00028   0.00010   0.00032   0.00008  -0.00020
 264        3PY         0.00036  -0.00011  -0.00007  -0.00009  -0.00017
 265        3PZ        -0.00091   0.00012   0.00091  -0.00007  -0.00023
 266 28  C  1S         -0.00051  -0.00038   0.00228  -0.00083  -0.00015
 267        2S          0.00140   0.00082  -0.00581   0.00148   0.00308
 268        3S          0.00006   0.00067  -0.00855   0.00879  -0.01473
 269        4PX        -0.00163  -0.00059   0.00487  -0.00099  -0.00071
 270        4PY        -0.00577   0.00118   0.00386  -0.00072   0.00152
 271        4PZ         0.00651  -0.00109  -0.00428   0.00048   0.00003
 272        5PX        -0.00157  -0.00085   0.00040  -0.00402   0.01129
 273        5PY        -0.00072   0.00019   0.00015  -0.00360   0.00979
 274        5PZ         0.01510  -0.00159  -0.01540   0.00264   0.00055
 275        6D 0        0.00047   0.00001  -0.00072   0.00016  -0.00005
 276        6D+1        0.00068  -0.00014  -0.00053  -0.00005   0.00020
 277        6D-1       -0.00086   0.00009   0.00102  -0.00008  -0.00016
 278        6D+2        0.00010  -0.00014   0.00033  -0.00029   0.00025
 279        6D-2       -0.00025   0.00012  -0.00019   0.00008   0.00017
 280 29  H  1S         -0.00243   0.00003   0.00400  -0.00036  -0.00110
 281        2S         -0.00265   0.00004   0.00716  -0.00054  -0.00673
 282        3PX         0.00011  -0.00008   0.00008  -0.00017   0.00028
 283        3PY        -0.00033   0.00009   0.00017   0.00005  -0.00001
 284        3PZ         0.00011  -0.00005   0.00005  -0.00004   0.00004
 285 30  H  1S         -0.00162   0.00056   0.00032  -0.00006   0.00129
 286        2S         -0.01635   0.00207   0.01730  -0.00255  -0.00018
 287        3PX         0.00029   0.00008  -0.00052   0.00025  -0.00026
 288        3PY         0.00015  -0.00005   0.00001  -0.00001  -0.00010
 289        3PZ        -0.00012  -0.00004   0.00034  -0.00007  -0.00013
 290 31  H  1S          0.00072   0.00049  -0.00408   0.00022   0.00215
 291        2S          0.01444   0.00023  -0.01864   0.00598  -0.00007
 292        3PX        -0.00079   0.00020   0.00043   0.00012  -0.00035
 293        3PY        -0.00042   0.00001   0.00052  -0.00015  -0.00006
 294        3PZ        -0.00034   0.00016  -0.00006   0.00025  -0.00015
 295 32  C  1S          0.00806  -0.00092  -0.00954   0.00099   0.00089
 296        2S         -0.01767   0.00192   0.02129  -0.00216  -0.00235
 297        3S         -0.05457   0.00896   0.06173  -0.00199  -0.01071
 298        4PX         0.02252  -0.00184  -0.02867   0.00345   0.00286
 299        4PY        -0.00988  -0.00025   0.01419  -0.00338  -0.00349
 300        4PZ        -0.01756   0.00180   0.02106  -0.00231  -0.00158
 301        5PX         0.00919  -0.00090  -0.01266   0.00122   0.00136
 302        5PY        -0.01152  -0.00044   0.01796  -0.00510  -0.00515
 303        5PZ        -0.01065   0.00083   0.01706  -0.00360  -0.00069
 304        6D 0       -0.00028  -0.00009   0.00091  -0.00037   0.00000
 305        6D+1        0.00048  -0.00013  -0.00023  -0.00014   0.00013
 306        6D-1       -0.00034   0.00000   0.00054  -0.00009   0.00006
 307        6D+2        0.00143  -0.00005  -0.00217   0.00040   0.00028
 308        6D-2        0.00078  -0.00012  -0.00080   0.00002   0.00002
 309 33  H  1S         -0.00504   0.00097   0.00576  -0.00015  -0.00012
 310        2S          0.01080  -0.00357  -0.00558  -0.00454  -0.00022
 311        3PX         0.00032   0.00008  -0.00059   0.00021   0.00016
 312        3PY        -0.00054   0.00009   0.00069  -0.00007   0.00013
 313        3PZ        -0.00046  -0.00000   0.00066  -0.00014  -0.00030
 314 34  H  1S          0.01338  -0.00098  -0.01854   0.00238   0.00158
 315        2S          0.02112  -0.00186  -0.02919   0.00426   0.00389
 316        3PX         0.00050  -0.00002  -0.00069   0.00019   0.00005
 317        3PY        -0.00038  -0.00002   0.00061  -0.00015  -0.00017
 318        3PZ        -0.00078   0.00007   0.00091  -0.00011  -0.00007
 319 35  H  1S         -0.00026  -0.00056   0.00291  -0.00126  -0.00081
 320        2S          0.01633  -0.00305  -0.01339  -0.00130   0.00425
 321        3PX         0.00013   0.00001  -0.00028   0.00002  -0.00001
 322        3PY        -0.00020   0.00001   0.00027  -0.00002  -0.00017
 323        3PZ        -0.00076   0.00008   0.00088  -0.00007  -0.00009
 324 36  O  1S         -0.00091  -0.00183  -0.00124   0.00051  -0.00816
 325        2S         -0.00419  -0.00170  -0.00602   0.00121  -0.01931
 326        3S          0.01158  -0.02395  -0.02382   0.02050  -0.04118
 327        4PX        -0.00673  -0.09659   0.23306  -0.14500   0.08452
 328        4PY         0.08284   0.04797   0.17427   0.25112  -0.10315
 329        4PZ         0.04034   0.02219   0.29425   0.04699   0.06542
 330        5PX        -0.01158  -0.07635   0.18454  -0.11481   0.07420
 331        5PY         0.07102   0.03390   0.13108   0.21357  -0.07568
 332        5PZ         0.02729   0.02321   0.22571   0.03810   0.06111
 333        6D 0       -0.00251  -0.00082  -0.01335  -0.00376  -0.00089
 334        6D+1        0.00042   0.00337  -0.00647   0.00457  -0.00251
 335        6D-1       -0.00245  -0.00076  -0.00261  -0.00623   0.00265
 336        6D+2       -0.00289  -0.00133  -0.00358  -0.00480   0.00405
 337        6D-2       -0.00085  -0.00096   0.00667   0.00045  -0.00014
                          70        71        72        73        74
                           V         V         V         V         V
     Eigenvalues --     0.11499   0.11549   0.15599   0.19950   0.20235
   1 1   C  1S          0.00296   0.00074  -0.00729  -0.00471   0.00358
   2        2S          0.00100   0.00388   0.01917   0.01859  -0.00725
   3        3S         -0.07965  -0.04714  -0.11793  -0.12923   0.16293
   4        4PX         0.04492   0.02245   0.00534  -0.02318   0.00311
   5        4PY        -0.10715  -0.05978   0.00176   0.00138   0.01610
   6        4PZ        -0.28720  -0.16069   0.00823   0.02398  -0.01640
   7        5PX         0.05727   0.04380  -0.03113   0.06212  -0.00844
   8        5PY        -0.14307  -0.11633  -0.02785  -0.04417   0.06021
   9        5PZ        -0.36565  -0.19127   0.02302   0.07629  -0.04031
  10        6D 0       -0.01026   0.01667   0.00137  -0.00114  -0.00223
  11        6D+1        0.00538   0.01165  -0.00025   0.00166   0.00234
  12        6D-1        0.01355  -0.01825  -0.00066  -0.00036   0.00201
  13        6D+2       -0.00687   0.00739  -0.00276  -0.00373   0.00520
  14        6D-2        0.00036   0.00674  -0.00214  -0.00200  -0.00026
[...]
 92,0.00001071,0.02973675,-0.00320293,0.00163713,0.00261413,0.00305795,
 -0.00434412,0.00188718,0.00010178,0.00047402,-0.00044573,0.00004264,-0
 .00014733,-0.00003090,0.00023231,0.00019218,-0.05755720,0.00392589,-0.
 00611957,-0.03567050,0.00648939,0.00045088,0.00308389,-0.00022252,-0.0
 0190502,0.05747437,-0.00740719,0.00891950,0.00004446,-0.00011835,-0.00
 017040,0.00020148,0.00025299,0.00050844,-0.00010662,0.00000467,-0.0001
 8033,-0.00008392,-0.00018227,-0.00008993,-0.00002790,0.00007911,-0.000
 00642,0.00000442,0.00000833,0.00001329,0.00000899,-0.00002044,-0.00001
 396,0.00000861,0.00002143,0.00000981,-0.00000290,-0.00001988,-0.000004
 75,0.00000118,0.00000839,-0.00000299,-0.00002320,-0.00002072,-0.000003
 88,0.00000059,-0.00000858,0.00000115,0.00000273,0.00000655,-0.00000096
 ,-0.00017204,0.00008739,-0.00011509,0.00000808,-0.00000363,-0.00000722
 ,0.00019211,-0.00058297,0.00016497,0.00000980,0.00019458,0.00006083,0.
 00234848,-0.00770109,0.00041132,-0.00045410,-0.00031779,-0.00126569,0.
 00034169,-0.00034083,0.00015411,-0.00062617,0.00038892,-0.00006865,0.0
 0002419,-0.00004482,-0.00006640,-0.08808948,0.02475593,0.00068701,-0.0
 1634965,0.04048331,0.00148214,0.00272470,0.00037058,-0.00018972,-0.007
 92861,0.00061954,-0.00136514,0.00221075,-0.00014006,0.00063838,0.00360
 836,-0.01723926,0.00036193,0.00010980,0.00074015,-0.00066427,-0.001339
 77,-0.00252196,0.00286761,0.00117511,-0.00096044,-0.00009951,0.9391509
 9,-0.00000933,0.00004137,0.00018037,0.00010062,0.00002532,0.00016280,-
 0.00004372,0.00001614,-0.00005855,-0.00003761,-0.00006884,-0.00004785,
 -0.00000299,0.00003406,0.00000164,-0.00000211,0.00000047,0.00000334,0.
 00000326,-0.00001051,-0.00000765,0.00000841,0.00001310,0.00000987,-0.0
 0000201,-0.00000790,-0.00000282,0.00000189,0.00000404,-0.00000327,-0.0
 0001732,-0.00000938,-0.00000793,0.00000091,-0.00000461,0.00000163,0.00
 000223,0.00000112,0.00000023,-0.00058938,-0.00012485,-0.00005135,0.000
 11728,-0.00004386,0.00007871,-0.00025061,0.00014023,0.00193916,-0.0001
 1320,-0.00007506,-0.00016519,0.00062321,-0.02006614,-0.01189078,0.0014
 4870,0.00053801,0.00005582,0.00030682,-0.00030424,0.00005714,-0.000500
 77,0.00038111,-0.00057152,-0.00003380,0.00004501,-0.00000719,0.0286618
 2,-0.17819079,0.00098000,0.00593590,-0.00796112,0.00041743,-0.00121881
 ,0.00086105,-0.00014188,0.00000963,0.00126004,0.00014531,-0.00112862,0
 .00042742,-0.00003447,0.00354936,-0.02847721,0.00390382,0.00066266,0.0
 0139323,-0.00154668,-0.00188825,-0.00087237,0.00295085,0.00122127,0.00
 117037,-0.00134485,0.13928610,0.47588869,-0.00056949,-0.00104177,-0.00
 012838,0.00045261,0.00080644,0.00138649,-0.00023355,-0.00000072,-0.000
 54376,-0.00023299,-0.00053119,-0.00020130,-0.00005678,0.00022590,-0.00
 001672,0.00001481,0.00002334,0.00002868,0.00002243,-0.00006239,-0.0000
 3125,0.00002980,0.00005376,-0.00000246,-0.00000737,-0.00005496,-0.0000
 0986,-0.00000257,0.00002738,0.00000163,-0.00007155,-0.00006370,0.00000
 661,-0.00000069,-0.00002820,-0.00000401,0.00001046,0.00002458,-0.00000
 302,-0.00048631,0.00048161,0.00057360,0.00004210,0.00000204,-0.0000143
 7,-0.00036475,-0.00098682,-0.00086594,0.00015784,-0.00017068,-0.000321
 61,0.00592575,-0.03240999,-0.00484369,0.00115036,0.00050746,-0.0018192
 3,0.00039189,-0.00070958,0.00008194,-0.00113033,0.00084276,-0.00136118
 ,-0.00007084,0.00003342,-0.00021459,0.00383323,-0.00798742,-0.08135050
 ,-0.00097771,0.00421190,0.00068388,0.00055174,-0.00104387,0.00029143,-
 0.00104414,0.00021148,0.00010806,-0.00013953,0.00094070,0.00018880,-0.
 00544083,0.03042062,-0.00140996,-0.00045850,0.00053483,0.00135054,0.00
 255595,0.00354755,-0.00448490,-0.00105986,-0.00099470,0.00107113,0.004
 82749,-0.02673552,0.97310312,0.00004917,0.00000061,-0.00007753,0.00004
 683,-0.00011601,0.00002041,-0.00002724,0.00007052,-0.00000250,-0.00000
 522,0.00003924,-0.00000933,0.00000446,-0.00000795,0.00000309,-0.000001
 36,0.00000024,-0.00000129,-0.00000130,0.00000339,0.00000165,0.00000082
 ,-0.00000125,0.00000206,-0.00000036,0.00000395,0.00000019,0.00000028,-
 0.00000175,-0.00000083,-0.00000150,0.00000477,-0.00000255,0.00000077,-
 0.00000005,0.00000048,0.00000010,-0.00000257,0.00000069,-0.00019691,-0
 .00003522,-0.00011085,0.00000253,-0.00000418,-0.00001389,0.00010896,0.
 00054381,-0.00014372,0.00008625,0.00002018,0.00029693,-0.00002615,-0.0
 0039397,0.00041268,-0.00005503,-0.00000429,-0.00012814,0.00001749,0.00
 004106,-0.00000418,0.00000396,0.00001696,0.00005189,-0.00001124,0.0000
 0136,-0.00000951,0.00353824,0.00718310,-0.00942803,0.00116235,-0.00010
 168,-0.00103146,-0.00015708,0.00006596,0.00029702,0.00010583,-0.000207
 96,0.00010227,-0.00003672,0.00004406,-0.00005742,-0.00005205,0.0022844
 0,-0.00021879,-0.00017959,-0.00004314,0.00027807,0.00075963,0.00038634
 ,-0.00023337,0.00030448,0.00024386,-0.00007412,-0.14064061,-0.14940842
 ,0.21740976,0.14168141,0.00051586,0.00043460,-0.00011425,-0.00010249,-
 0.00021823,-0.00040288,0.00007163,-0.00001098,0.00015501,0.00006805,0.
 00016222,0.00006861,0.00001670,-0.00006801,0.00000684,-0.00000106,-0.0
 0000467,-0.00000767,-0.00000685,0.00002130,0.00000953,-0.00001090,-0.0
 0001825,0.00000099,0.00000236,0.00001751,0.00000355,0.00000043,-0.0000
 1000,-0.00000068,0.00002368,0.00001997,-0.00000165,0.00000043,0.000009
 09,0.00000149,-0.00000359,-0.00000792,0.00000093,-0.00022738,-0.000057
 76,-0.00073406,-0.00001641,-0.00002524,-0.00000881,-0.00035570,0.00011
 455,0.00032964,0.00069053,-0.00022417,-0.00044161,-0.00006153,0.001811
 61,0.00164175,-0.00053347,-0.00025022,-0.00042692,0.00010288,0.0001098
 3,0.00003633,0.00005526,0.00008325,0.00069104,0.00001435,-0.00003152,0
 .00000682,-0.01628719,-0.01890203,0.02527928,-0.00148087,0.00223022,0.
 00004790,0.00099092,0.00017308,-0.00014446,-0.00033071,0.00020538,-0.0
 0040266,0.00000587,-0.00002585,-0.00008656,0.00250050,-0.00741676,-0.0
 0113252,0.00023319,0.00025652,-0.00014357,-0.00096526,-0.00116526,0.00
 192121,0.00019199,0.00030583,-0.00041385,-0.15142723,-0.15917676,0.239
 73958,0.15230430,0.17160534,-0.00003236,0.00004444,0.00005549,-0.00006
 943,-0.00010213,-0.00020789,0.00004032,0.,0.00008363,0.00003834,0.0000
 8179,0.00004849,0.00001208,-0.00003913,-0.00000167,-0.00000172,-0.0000
 0155,-0.00000573,-0.00000491,0.00001030,0.00000682,-0.00000574,-0.0000
 1153,-0.00000506,0.00000131,0.00000955,0.00000226,-0.00000076,-0.00000
 451,0.00000198,0.00001298,0.00001153,0.00000378,0.00000010,0.00000361,
 -0.00000099,-0.00000186,-0.00000317,0.00000023,0.00001450,0.00002343,-
 0.00004898,0.00004122,-0.00002858,0.00003326,0.00007632,-0.00058568,-0
 .00020934,0.00029461,-0.00036376,-0.00031958,-0.00093699,-0.00062148,0
 .00050738,0.00011708,0.00002443,0.00002590,0.00000463,0.00001979,0.000
 00262,0.00002718,-0.00003575,-0.00002429,-0.00001021,0.00001208,-0.000
 00003,-0.00211919,-0.00409284,0.00226632,0.00003734,-0.00027139,0.0000
 5919,-0.00032172,0.00030205,0.00018996,-0.00013170,-0.00014710,0.00006
 675,0.00008819,0.00012094,-0.00009852,-0.00037117,-0.00058290,0.000903
 48,0.00004594,-0.00025684,0.00039099,0.00022224,-0.00002148,0.00035510
 ,0.00010036,-0.00009392,-0.00014619,0.21851566,0.23777916,-0.35490686,
 -0.22676114,-0.24642450,0.36463569,0.00025184,0.00021480,-0.00007093,0
 .00001538,0.00002423,-0.00004524,0.00000395,-0.00002222,0.00000732,-0.
 00000784,-0.00001018,0.00000399,-0.00000057,0.00000387,0.00000392,0.00
 000136,-0.00000163,-0.00000065,0.00000097,0.00000037,0.00000026,0.0000
 0218,0.00000079,-0.00000018,-0.00000032,-0.00000071,-0.00000006,-0.000
 00003,0.00000042,0.00000037,-0.00000334,-0.00000157,-0.00000012,0.0000
 0020,-0.00000114,-0.00000031,0.00000046,0.00000095,-0.00000015,-0.0002
 2215,-0.00013551,-0.00029956,-0.00002188,0.00001205,-0.00000519,0.0000
 8480,0.00008005,0.00045647,0.00012994,-0.00013627,-0.00005038,0.000512
 70,0.00197701,-0.00006763,0.00002533,-0.00000295,0.00021914,-0.0000828
 0,0.00007551,-0.00003098,0.00014320,0.00002268,0.00031890,0.00002402,-
 0.00002618,0.00003332,0.00131630,0.00527285,0.01032688,0.00067561,-0.0
 0032080,0.00096105,-0.00007948,0.00002883,0.00017457,0.00012841,-0.000
 25452,-0.00008822,-0.00005408,0.00028325,-0.00034355,-0.00012465,-0.00
 043345,-0.00007629,0.00029598,-0.00026821,-0.00001409,-0.00018581,0.00
 002464,0.00021085,-0.00014248,-0.00013191,-0.00020261,-0.05318567,-0.0
 6716703,-0.15633125,0.00508942,0.00957120,0.01762620,0.05029269,-0.000
 00025,-0.00027057,-0.00010928,0.00024489,0.00029889,0.00057619,-0.0001
 2046,0.00002373,-0.00022743,-0.00011169,-0.00022121,-0.00009995,-0.000
 02717,0.00010108,-0.00000262,0.00000736,0.00000997,0.00001370,0.000010
 41,-0.00002483,-0.00001380,0.00001344,0.00002447,0.00000253,-0.0000033
 8,-0.00002359,-0.00000478,-0.00000037,0.00001152,-0.00000032,-0.000033
 03,-0.00002725,0.00000052,0.00000016,-0.00001256,-0.00000113,0.0000044
 8,0.00001013,-0.00000126,-0.00035369,0.00014424,-0.00019710,-0.0000040
 2,-0.00001659,-0.00004067,-0.00022534,0.00001382,0.00008815,0.00033787
 ,-0.00009249,-0.00005457,0.00176797,-0.00603464,0.00116186,0.00021134,
 -0.00007805,-0.00088454,0.00014641,-0.00024005,0.00004450,-0.00043022,
 0.00028828,-0.00028696,-0.00001754,-0.00000117,-0.00009200,-0.00933909
 ,-0.01603248,-0.03204581,-0.00138145,0.00228761,-0.00019353,0.00006691
 ,-0.00004746,0.00007137,-0.00047084,0.00016717,0.00030960,0.00080996,0
 .00002734,0.00045610,-0.00040259,0.00230735,-0.00115817,-0.00003355,-0
 .00037294,0.00095150,0.00034668,0.00053436,-0.00000681,-0.00001862,-0.
 00011694,-0.00000500,-0.06903847,-0.08661937,-0.21508920,0.00810103,0.
 00860631,0.02019629,0.06761037,0.09538283,-0.00023560,-0.00023511,0.00
 011343,0.00009078,0.00025862,0.00040244,-0.00006895,-0.00000497,-0.000
 16773,-0.00005987,-0.00016354,-0.00008371,-0.00001787,0.00007035,-0.00
 000103,-0.00000061,0.00000458,0.00000892,0.00000811,-0.00002177,-0.000
 01298,0.00001220,0.00002266,0.00000850,-0.00000255,-0.00001885,-0.0000
 0455,0.00000127,0.00000988,-0.00000287,-0.00002561,-0.00002238,-0.0000
 0618,-0.00000047,-0.00000754,0.00000088,0.00000370,0.00000675,-0.00000
 078,0.00019972,0.00003221,0.00021210,0.00000019,-0.00000384,-0.0000025
 7,-0.00009144,-0.00045581,0.00010969,-0.00028965,0.00022008,0.00008155
 ,0.00000883,-0.00044789,0.00062913,0.00069297,0.00009496,0.00022100,-0
 .00005301,0.00002298,0.00003006,-0.00003900,-0.00010396,-0.00040028,-0
 .00001905,0.00004323,-0.00002045,-0.00010739,0.00316941,0.00043400,-0.
 00006160,0.00059723,0.00033718,-0.00001889,-0.00012003,-0.00016594,0.0
 0013547,0.00008445,0.00017901,0.00040988,-0.00025093,0.00018442,0.0001
 4345,0.00088845,0.00092451,-0.00021704,-0.00013984,0.00029249,0.000086
 88,-0.00009044,0.00015113,0.00007236,-0.00002729,-0.00008437,-0.157333
 06,-0.21104361,-0.51327599,-0.01129255,-0.01428216,-0.01894175,0.16373
 910,0.22174004,0.52949450,0.00005624,0.00004545,0.00001208,-0.00003418
 ,0.00005086,-0.00002670,0.00002613,-0.00004226,0.00000862,0.00000763,-
 0.00001707,0.00000769,-0.00000570,0.00000562,-0.00000267,0.00000377,0.
 00000015,0.00000233,0.00000121,-0.00000080,-0.00000065,-0.00000437,-0.
 00000064,-0.00000227,0.00000113,-0.00000235,0.00000012,-0.00000096,0.0
 0000044,0.00000033,0.00000620,-0.00000345,0.00000242,-0.00000108,0.000
 00228,0.00000042,-0.00000038,0.00000134,-0.00000037,-0.00007548,-0.000
 01043,-0.00009096,-0.00000898,0.00000533,0.00000249,-0.00011528,-0.000
 05789,0.00041803,0.00005505,0.00002320,-0.00007367,0.00072038,-0.00084
 517,-0.00070262,0.00016713,0.00001120,0.00026421,-0.00000676,-0.000008
 38,-0.00000591,0.00002239,0.00012419,0.00001575,0.00000177,0.00000002,
 0.00001772,-0.00626402,-0.00140199,-0.00029096,0.00090263,0.00212311,0
 .00037817,0.00034737,-0.00016409,-0.00009439,-0.00050898,0.00010836,-0
 .00015536,0.00021683,-0.00020675,0.00005688,0.00098365,-0.00114901,0.0
 0021005,-0.00010517,0.00002631,0.00006506,0.00020271,-0.00004887,0.000
 13862,0.00036541,0.00032904,-0.00034274,-0.64321539,0.04045811,-0.0688
 7641,-0.01155549,0.00447039,-0.00652703,-0.00486728,0.00227156,0.00428
 412,0.66266047,-0.00017835,-0.00008030,0.00015762,-0.00011942,-0.00013
 660,-0.00030181,0.00006903,-0.00002389,0.00012289,0.00004833,0.0001037
 8,0.00006459,0.00001660,-0.00005115,-0.00000102,-0.00000297,-0.0000036
 1,-0.00000764,-0.00000636,0.00001269,0.00000863,-0.00000618,-0.0000146
 2,-0.00000745,0.00000152,0.00001262,0.00000352,-0.00000039,-0.00000617
 ,0.00000287,0.00001570,0.00001463,0.00000510,0.00000004,0.00000427,-0.
 00000157,-0.00000252,-0.00000353,0.00000030,0.00029661,0.00013356,0.00
 024286,-0.00000660,-0.00000017,-0.00000624,-0.00017489,0.00006134,-0.0
 0043117,-0.00006025,0.00003670,0.00003875,0.00065615,0.00167327,0.0012
 0302,-0.00030605,0.00023857,0.00016721,-0.00003195,-0.00010508,-0.0000
 0119,-0.00001794,-0.00016216,-0.00019678,0.00000591,-0.00000614,-0.000
 00890,0.03658146,-0.00470275,0.00370200,0.00172528,-0.00775457,-0.0005
 6840,-0.00038385,0.00000343,-0.00015578,0.00239147,-0.00008956,0.00037
 554,-0.00037205,0.00001788,0.00013021,0.00081967,0.00238882,-0.0004639
 2,-0.00006098,-0.00005087,-0.00004353,-0.00017622,0.00033625,-0.000460
 10,-0.00072364,-0.00035230,0.00045921,0.04346194,-0.00020104,0.0054675
 7,-0.02105841,0.00138072,-0.00498773,-0.01628185,0.00007553,0.00024849
 ,-0.04608558,0.00720573,0.00004427,0.00007824,-0.00003417,-0.00001343,
 -0.00020983,-0.00016477,0.00000730,0.00005695,0.00007941,0.00002510,0.
 00010244,0.00002786,0.00001250,-0.00004023,0.00000194,-0.00000269,-0.0
 0000194,-0.00000524,-0.00000506,0.00001165,0.00000593,-0.00000496,-0.0
 0001000,-0.00000012,0.00000090,0.00001123,0.00000191,0.00000029,-0.000
 00587,-0.00000020,0.00001078,0.00001384,-0.00000083,0.00000070,0.00000
 398,0.00000064,-0.00000173,-0.00000550,0.00000095,-0.00014119,-0.00003
 029,-0.00007918,0.00001090,-0.00000778,-0.00000040,0.00021856,0.000299
 30,-0.00019730,0.00003100,-0.00013344,0.00011920,0.00101853,0.00022348
 ,0.00035749,-0.00032389,-0.00001802,0.00007054,0.00005590,-0.00004204,
 0.00003090,-0.00002765,0.00003416,0.00002001,0.00000136,-0.00001092,0.
 00001118,0.00277840,-0.00046522,-0.00166506,0.00022336,-0.00030790,0.0
 0031076,-0.00036066,-0.00003807,0.00001790,0.00005769,-0.00006807,0.00
 061457,0.00038434,-0.00008781,0.00022098,-0.00079711,-0.00016088,-0.00
 016196,-0.00020756,0.00002395,-0.00004948,0.00018691,-0.00014421,-0.00
 009742,0.00012478,0.00043473,0.00018881,-0.06885522,0.00508325,-0.0125
 4874,0.03072761,-0.00489179,0.00519494,-0.03645699,0.00513485,-0.00049
 786,0.07130919,-0.00488377,0.00816098,-0.00166685,-0.00066961,-0.00118
 784,-0.49109848,0.07682387,0.21719983,-0.01700157,0.01063743,0.0180736
 8,-0.02749667,-0.00509733,0.02365372,-0.00475558,0.01007499,-0.0008905
 1,0.00129721,-0.00158102,0.00261636,0.00090305,-0.00318266,-0.00166324
 ,0.00051893,-0.00073268,-0.00031002,-0.00040277,-0.00129450,0.00002592
 ,0.00023138,0.00055734,-0.00020224,0.00005096,-0.00130422,-0.00009357,
 0.00017082,-0.00032969,0.00009670,0.00003859,0.00015065,-0.00000946,-0
 .00090440,-0.00273048,0.00123102,0.00027466,0.00295226,0.00066494,0.00
 173001,0.00105325,0.00147988,0.00012783,0.00017029,0.00051446,0.000958
 31,0.00089537,-0.00076222,-0.00085750,-0.00059096,-0.00103769,-0.00001
 432,0.00010848,0.00013607,0.00059757,0.00148116,0.00443007,0.00028838,
 0.00004415,-0.00142613,0.00004089,0.00020787,-0.00020035,0.00002792,0.
 00005675,0.00014438,-0.00002742,0.00005189,-0.00001283,-0.00005018,-0.
 00003433,0.00002626,0.00007048,0.00000225,0.00003535,0.00004957,0.0000
 2243,0.00000786,0.00001959,0.00001583,0.00002425,-0.00004574,-0.000008
 81,-0.00001942,0.00003906,-0.00003318,-0.00003815,0.00006951,0.0000158
 0,0.00017923,-0.00001513,-0.00001987,-0.00002068,-0.00001639,0.0000609
 2,0.00004519,0.00002139,-0.00003327,-0.00003222,0.53682686,0.01066337,
 0.00981172,-0.00833678,0.07804389,-0.09877177,-0.04167444,0.03678123,0
 .00208152,-0.01097787,-0.03297855,0.00490823,0.01893617,-0.00335581,0.
 00169764,-0.00036849,-0.00011442,0.00069301,-0.00161174,0.00033762,0.0
 0165401,0.00056803,-0.00064622,0.00176288,0.00009231,0.00001483,-0.000
 38787,-0.00012450,-0.00033994,-0.00014539,0.00018254,-0.00141420,-0.00
 105126,-0.00003217,-0.00000636,-0.00057754,-0.00021723,0.00022201,0.00
 005096,0.00001296,-0.00011927,-0.00121723,0.00058433,0.00064358,0.0006
 8881,0.00043748,0.00091202,0.00047220,0.00028414,-0.00000556,-0.000071
 66,0.00009091,0.00033300,0.00023008,-0.00046098,0.00101587,0.00053087,
 -0.00128079,-0.00013254,-0.00015996,-0.00041058,-0.00195540,-0.0023691
 1,-0.00235251,-0.00009245,-0.00000188,-0.00090174,0.00009545,0.0001683
 2,0.00030049,-0.00001253,-0.00008168,-0.00018149,0.00005306,0.00001492
 ,0.00004366,0.00004102,0.00001680,0.00002898,-0.00007476,-0.00002873,-
 0.00007244,-0.00008566,-0.00009297,-0.00017682,-0.00000636,-0.00001745
 ,-0.00008637,0.00000581,0.00000630,0.00005849,-0.00000900,0.00000311,0
 .00006576,-0.00008111,-0.00002676,-0.00019223,0.00002773,0.00006633,0.
 00003657,-0.00000778,-0.00008246,-0.00007439,-0.00001221,0.00004472,0.
 00005154,-0.08774036,0.08018129,0.03009123,-0.00507288,-0.01459626,0.2
 3711759,-0.04613345,-0.19787250,-0.01281581,0.00913049,0.01950598,0.01
 020169,-0.00067999,0.01273517,0.00077659,-0.00372610,-0.00053131,-0.00
 011497,-0.00053409,-0.00030376,-0.00001940,0.00207857,-0.00001392,0.00
 040905,-0.00019214,0.00080920,0.00002266,0.00016636,-0.00011409,-0.000
 21444,-0.00030194,0.00014877,0.00060956,0.00106420,-0.00002980,-0.0000
 4254,0.00029192,0.00002252,0.00006405,0.00004597,-0.00007082,0.0007791
 3,0.00052272,-0.00150555,0.00020522,-0.00105962,-0.00083660,-0.0008132
 0,0.00035666,0.00001772,-0.00013653,-0.00025884,-0.00027812,0.00054284
 ,0.00049572,-0.00027260,-0.00030850,0.00169855,-0.00215138,-0.00028540
 ,-0.00013977,-0.00070901,-0.00398326,-0.00436251,-0.00312497,0.0007126
 1,-0.00063682,0.00039467,0.00020537,-0.00005762,0.00065359,0.00000390,
 -0.00015922,-0.00042792,0.00009592,0.00003026,0.00009374,0.00011174,0.
 00001921,0.00008841,-0.00015837,-0.00004888,-0.00017269,-0.00016576,-0
 .00019664,-0.00028099,-0.00002863,-0.00005355,-0.00017064,0.00004388,-
 0.00001877,0.00014654,-0.00002387,0.00004797,0.00013283,-0.00020055,-0
 .00008943,-0.00051756,-0.00000360,0.00012009,0.00008265,0.00000202,-0.
 00023226,-0.00014592,-0.00000160,0.00012662,0.00006586,-0.26267862,0.0
 4775919,0.18922873\\-0.00308578,-0.00883584,0.00248339,0.03315435,0.04
 465585,0.00834576,0.01370112,-0.02808205,0.00024479,-0.00883263,0.0017
 5170,-0.00924662,0.12134812,-0.04606444,-0.02744963,-0.08167447,-0.010
 77914,-0.06349198,-0.03875382,0.03483634,0.09047245,0.03812374,-0.0683
 3039,0.10511532,-0.04712784,0.09658282,0.00265926,0.02221779,-0.024389
 20,-0.09469003,-0.06109557,-0.08605342,-0.07364350,0.08169480,0.066683
 32,-0.04866209,-0.01966450,0.03276304,0.10965018,0.07217424,0.04856687
 ,-0.11005408,-0.07484398,-0.04778581,0.12059762,0.10040160,0.09309803,
 0.00492928,-0.11057593,-0.10325195,-0.01462010,-0.00021753,-0.00325123
 ,-0.00646884,-0.07351212,-0.04703151,0.10893614,0.07698891,0.05097361,
 -0.11650533,-0.10316027,-0.09507787,-0.02379221,0.11068333,0.10095670,
 0.02079137,0.00138086,0.00451274,0.00777993,0.10646139,-0.01342472,0.0
 1459008,-0.05608311,-0.05928064,0.07583811,-0.02950335,0.10688717,0.01
 107546,-0.02923575,-0.03714047,-0.10217165,-0.04564636,-0.05175991,0.0
 8316448,-0.03340781,-0.04099823,-0.09793115,-0.02463887,0.10801325,0.0
 0459840,0.11067571,-0.01041069,0.00662050,-0.03134852,0.10608583,0.006
 00556,-0.04914340,-0.05776679,0.08148233,-0.03071307,-0.04408026,-0.10
 056009,0.11038519,-0.00933972,0.01295773,-0.04712648,-0.00323300,0.010
 94914\\\@
 The archive entry for this job was punched.

 Writing a WFNX file to "UCUGAB_Complex_1_Ligand_0_NN_Cu_oriented.wfx"


 ASKING DUMB QUESTIONS IS EASIER THAN CORECTING DUMB MISTAKES.
 Job cpu time:       0 days  0 hours 50 minutes 58.4 seconds.
 Elapsed time:       0 days  0 hours 51 minutes 11.1 seconds.
 File lengths (MBytes):  RWF=    584 Int=      0 D2E=      0 Chk=     16 Scr=      8
 Normal termination of Gaussian 16 at Mon Mar  6 11:12:54 2023.
