 Entering Gaussian System, Link 0=g16
 Initial command:
 /ssoft/spack/external/gaussian/g16-C.01/avx2/g16/l1.exe "/scratch/lcmd/2387842/Gau-3436351.inp" -scrdir="/scratch/lcmd/2387842/"
 Entering Link 1 = /ssoft/spack/external/gaussian/g16-C.01/avx2/g16/l1.exe PID=   3436354.
  
 Copyright (c) 1988-2019, Gaussian, Inc.  All Rights Reserved.
  
 This is part of the Gaussian(R) 16 program.  It is based on
 the Gaussian(R) 09 system (copyright 2009, Gaussian, Inc.),
 the Gaussian(R) 03 system (copyright 2003, Gaussian, Inc.),
 the Gaussian(R) 98 system (copyright 1998, Gaussian, Inc.),
 the Gaussian(R) 94 system (copyright 1995, Gaussian, Inc.),
 the Gaussian 92(TM) system (copyright 1992, Gaussian, Inc.),
 the Gaussian 90(TM) system (copyright 1990, Gaussian, Inc.),
 the Gaussian 88(TM) system (copyright 1988, Gaussian, Inc.),
 the Gaussian 86(TM) system (copyright 1986, Carnegie Mellon
 University), and the Gaussian 82(TM) system (copyright 1983,
 Carnegie Mellon University). Gaussian is a federally registered
 trademark of Gaussian, Inc.
  
 This software contains proprietary and confidential information,
 including trade secrets, belonging to Gaussian, Inc.
  
 This software is provided under written license and may be
 used, copied, transmitted, or stored only in accord with that
 written license.
  
 The following legend is applicable only to US Government
 contracts under FAR:
  
                    RESTRICTED RIGHTS LEGEND
  
 Use, reproduction and disclosure by the US Government is
 subject to restrictions as set forth in subparagraphs (a)
 and (c) of the Commercial Computer Software - Restricted
 Rights clause in FAR 52.227-19.
  
 Gaussian, Inc.
 340 Quinnipiac St., Bldg. 40, Wallingford CT 06492
  
  
 ---------------------------------------------------------------
 Warning -- This program may not be used in any manner that
 competes with the business of Gaussian, Inc. or will provide
 assistance to any competitor of Gaussian, Inc.  The licensee
 of this program is prohibited from giving any competitor of
 Gaussian, Inc. access to this program.  By using this program,
 the user acknowledges that Gaussian, Inc. is engaged in the
 business of creating and licensing software in the field of
 computational chemistry and represents and warrants to the
 licensee that it is not a competitor of Gaussian, Inc. and that
 it will not use this program in any manner prohibited above.
 ---------------------------------------------------------------
  

 Cite this work as:
 Gaussian 16, Revision C.01,
 M. J. Frisch, G. W. Trucks, H. B. Schlegel, G. E. Scuseria, 
 M. A. Robb, J. R. Cheeseman, G. Scalmani, V. Barone, 
 G. A. Petersson, H. Nakatsuji, X. Li, M. Caricato, A. V. Marenich, 
 J. Bloino, B. G. Janesko, R. Gomperts, B. Mennucci, H. P. Hratchian, 
 J. V. Ortiz, A. F. Izmaylov, J. L. Sonnenberg, D. Williams-Young, 
 F. Ding, F. Lipparini, F. Egidi, J. Goings, B. Peng, A. Petrone, 
 T. Henderson, D. Ranasinghe, V. G. Zakrzewski, J. Gao, N. Rega, 
 G. Zheng, W. Liang, M. Hada, M. Ehara, K. Toyota, R. Fukuda, 
 J. Hasegawa, M. Ishida, T. Nakajima, Y. Honda, O. Kitao, H. Nakai, 
 T. Vreven, K. Throssell, J. A. Montgomery, Jr., J. E. Peralta, 
 F. Ogliaro, M. J. Bearpark, J. J. Heyd, E. N. Brothers, K. N. Kudin, 
 V. N. Staroverov, T. A. Keith, R. Kobayashi, J. Normand, 
 K. Raghavachari, A. P. Rendell, J. C. Burant, S. S. Iyengar, 
 J. Tomasi, M. Cossi, J. M. Millam, M. Klene, C. Adamo, R. Cammi, 
 J. W. Ochterski, R. L. Martin, K. Morokuma, O. Farkas, 
 J. B. Foresman, and D. J. Fox, Gaussian, Inc., Wallingford CT, 2019.
 
 ******************************************
 Gaussian 16:  ES64L-G16RevC.01  3-Jul-2019
                 6-Mar-2023 
 ******************************************
 %nprocshared=1
 Will use up to    1 processors via shared memory.
 %mem=8000MB
 %chk=UGUWID_Complex_0_Ligand_1_NN_Cu_oriented.chk
 ----------------------------------------------------------------------
 #p pop=(regular,nbo,savenbos) freq=noraman def2svp empiricaldispersion
 =gd3bj output=wfx pbe1pbe
 ----------------------------------------------------------------------
 1/10=4,30=1,38=1/1,3;
 2/12=2,17=6,18=5,40=1/2;
 3/5=43,7=101,11=2,25=1,30=1,71=2,74=-13,124=41,140=1/1,2,3;
 4//1;
 5/5=2,38=5,98=1/2;
 8/6=4,10=90,11=11/1;
 11/6=1,8=1,9=11,15=111,16=1/1,2,10;
 10/6=1/2;
 6/28=1,40=1,73=1/1,7;
 7/8=1,10=1,25=1/1,2,3,16;
 1/10=4,30=1/3;
 99/6=200/99;
 Leave Link    1 at Mon Mar  6 10:21:43 2023, MaxMem=  1048576000 cpu:               0.0 elap:               0.2
 (Enter /ssoft/spack/external/gaussian/g16-C.01/avx2/g16/l101.exe)
 ----------------------------------------
 UGUWID_Complex_0_Ligand_1_NN_Cu_oriented
 ----------------------------------------
 Symbolic Z-matrix:
 Charge = -2 Multiplicity = 1
 S                     1.83004  -2.55379   0.16099 
 S                    -3.20136   0.21946   0.02175 
 O                     2.80859  -1.64972  -0.42898 
 O                     2.0969   -3.00345   1.51466 
 O                    -2.89996   1.56525   0.4566 
 N                     0.40492  -1.90962   0. 
 N                    -1.8717   -0.62214   0. 
 C                    -0.72792  -2.65364   0.56324 
 H                    -0.7285   -3.54481   0.27258 
 H                    -0.73168  -2.62856   1.52195 
 C                    -1.99396  -2.09364  -0.03749 
 H                    -2.74348  -2.3954    0.4718 
 H                    -2.07828  -2.44492  -0.95012 
 C                     1.77794  -4.021    -0.82298 
 C                     1.95629  -3.9271   -2.20409 
 H                     2.13023  -3.10999  -2.61917 
 C                     1.9294   -5.07194  -2.97864 
 H                     2.1536   -4.99169  -3.89131 
 C                     1.73825  -6.31022  -2.38912 
 H                     1.75743  -7.15602  -2.79589 
 C                     1.58017  -6.39744  -1.03797 
 H                     1.56707  -7.15937  -0.68805 
 C                     1.60761  -5.25537  -0.24248 
 H                     1.58856  -5.16101   0.77276 
 C                    -3.78024   0.37892  -1.65925 
 C                    -3.64888  -0.2151   -3.9833 
 C                    -3.16552  -0.3204   -2.69389 
 H                    -2.39036  -0.79302  -2.62869 
 O                    -4.26696  -0.46578   0.72817 
 C                    -4.88758   1.18681  -1.9137 
 C                    -5.3408    1.31556  -3.22116 
 H                    -6.06875   1.82006  -3.21532 
 C                    -4.7287    0.61044  -4.25489 
 H                    -5.00403   0.70202  -5.15552 
 H                    -3.19706  -0.51965  -4.79259 
 H                    -5.3115    1.59134  -1.32901 
 
 ITRead=  0  0  0  0  0  0  0  0  0  0  0  0  0  0  0  0  0  0  0  0
 ITRead=  0  0  0  0  0  0  0  0  0  0  0  0  0  0  0  0
 MicOpt= -1 -1 -1 -1 -1 -1 -1 -1 -1 -1 -1 -1 -1 -1 -1 -1 -1 -1 -1 -1
 MicOpt= -1 -1 -1 -1 -1 -1 -1 -1 -1 -1 -1 -1 -1 -1 -1 -1
 NAtoms=     36 NQM=       36 NQMF=       0 NMMI=      0 NMMIF=      0
                NMic=       0 NMicF=      0.
                    Isotopes and Nuclear Properties:
 (Nuclear quadrupole moments (NQMom) in fm**2, nuclear magnetic moments (NMagM)
  in nuclear magnetons)

  Atom         1           2           3           4           5           6           7           8           9          10
 IAtWgt=          32          32          16          16          16          14          14          12           1           1
 AtmWgt=  31.9720718  31.9720718  15.9949146  15.9949146  15.9949146  14.0030740  14.0030740  12.0000000   1.0078250   1.0078250
 NucSpn=           0           0           0           0           0           2           2           0           1           1
 AtZEff=  -0.0000000  -0.0000000  -0.0000000  -0.0000000  -0.0000000  -0.0000000  -0.0000000  -0.0000000  -0.0000000  -0.0000000
 NQMom=    0.0000000   0.0000000   0.0000000   0.0000000   0.0000000   2.0440000   2.0440000   0.0000000   0.0000000   0.0000000
 NMagM=    0.0000000   0.0000000   0.0000000   0.0000000   0.0000000   0.4037610   0.4037610   0.0000000   2.7928460   2.7928460
 AtZNuc=  16.0000000  16.0000000   8.0000000   8.0000000   8.0000000   7.0000000   7.0000000   6.0000000   1.0000000   1.0000000

  Atom        11          12          13          14          15          16          17          18          19          20
 IAtWgt=          12           1           1          12          12           1          12           1          12           1
 AtmWgt=  12.0000000   1.0078250   1.0078250  12.0000000  12.0000000   1.0078250  12.0000000   1.0078250  12.0000000   1.0078250
 NucSpn=           0           1           1           0           0           1           0           1           0           1
 AtZEff=  -0.0000000  -0.0000000  -0.0000000  -0.0000000  -0.0000000  -0.0000000  -0.0000000  -0.0000000  -0.0000000  -0.0000000
 NQMom=    0.0000000   0.0000000   0.0000000   0.0000000   0.0000000   0.0000000   0.0000000   0.0000000   0.0000000   0.0000000
 NMagM=    0.0000000   2.7928460   2.7928460   0.0000000   0.0000000   2.7928460   0.0000000   2.7928460   0.0000000   2.7928460
 AtZNuc=   6.0000000   1.0000000   1.0000000   6.0000000   6.0000000   1.0000000   6.0000000   1.0000000   6.0000000   1.0000000

  Atom        21          22          23          24          25          26          27          28          29          30
 IAtWgt=          12           1          12           1          12          12          12           1          16          12
 AtmWgt=  12.0000000   1.0078250  12.0000000   1.0078250  12.0000000  12.0000000  12.0000000   1.0078250  15.9949146  12.0000000
 NucSpn=           0           1           0           1           0           0           0           1           0           0
 AtZEff=  -0.0000000  -0.0000000  -0.0000000  -0.0000000  -0.0000000  -0.0000000  -0.0000000  -0.0000000  -0.0000000  -0.0000000
 NQMom=    0.0000000   0.0000000   0.0000000   0.0000000   0.0000000   0.0000000   0.0000000   0.0000000   0.0000000   0.0000000
 NMagM=    0.0000000   2.7928460   0.0000000   2.7928460   0.0000000   0.0000000   0.0000000   2.7928460   0.0000000   0.0000000
 AtZNuc=   6.0000000   1.0000000   6.0000000   1.0000000   6.0000000   6.0000000   6.0000000   1.0000000   8.0000000   6.0000000

  Atom        31          32          33          34          35          36
 IAtWgt=          12           1          12           1           1           1
 AtmWgt=  12.0000000   1.0078250  12.0000000   1.0078250   1.0078250   1.0078250
 NucSpn=           0           1           0           1           1           1
 AtZEff=  -0.0000000  -0.0000000  -0.0000000  -0.0000000  -0.0000000  -0.0000000
 NQMom=    0.0000000   0.0000000   0.0000000   0.0000000   0.0000000   0.0000000
 NMagM=    0.0000000   2.7928460   0.0000000   2.7928460   2.7928460   2.7928460
 AtZNuc=   6.0000000   1.0000000   6.0000000   1.0000000   1.0000000   1.0000000
 Leave Link  101 at Mon Mar  6 10:21:43 2023, MaxMem=  1048576000 cpu:               0.1 elap:               0.1
 (Enter /ssoft/spack/external/gaussian/g16-C.01/avx2/g16/l103.exe)

 GradGradGradGradGradGradGradGradGradGradGradGradGradGradGradGradGradGrad
 Berny optimization.
 Initialization pass.
 Trust Radius=3.00D-01 FncErr=1.00D-07 GrdErr=1.00D-07 EigMax=2.50D+02 EigMin=1.00D-04
 Number of steps in this run=      2 maximum allowed number of steps=      2.
 GradGradGradGradGradGradGradGradGradGradGradGradGradGradGradGradGradGrad

 Leave Link  103 at Mon Mar  6 10:21:43 2023, MaxMem=  1048576000 cpu:               0.0 elap:               0.0
 (Enter /ssoft/spack/external/gaussian/g16-C.01/avx2/g16/l202.exe)
                          Input orientation:                          
 ---------------------------------------------------------------------
 Center     Atomic      Atomic             Coordinates (Angstroms)
 Number     Number       Type             X           Y           Z
 ---------------------------------------------------------------------
      1         16           0        1.830042   -2.553789    0.160988
      2         16           0       -3.201355    0.219455    0.021752
      3          8           0        2.808585   -1.649719   -0.428984
      4          8           0        2.096896   -3.003450    1.514658
      5          8           0       -2.899963    1.565247    0.456596
      6          7           0        0.404917   -1.909620    0.000000
      7          7           0       -1.871705   -0.622138    0.000000
      8          6           0       -0.727916   -2.653642    0.563242
      9          1           0       -0.728501   -3.544812    0.272577
     10          1           0       -0.731679   -2.628565    1.521952
     11          6           0       -1.993964   -2.093636   -0.037489
     12          1           0       -2.743479   -2.395404    0.471805
     13          1           0       -2.078281   -2.444919   -0.950117
     14          6           0        1.777941   -4.021002   -0.822985
     15          6           0        1.956287   -3.927103   -2.204091
     16          1           0        2.130235   -3.109990   -2.619169
     17          6           0        1.929401   -5.071936   -2.978636
     18          1           0        2.153600   -4.991694   -3.891313
     19          6           0        1.738247   -6.310223   -2.389116
     20          1           0        1.757425   -7.156016   -2.795885
     21          6           0        1.580173   -6.397441   -1.037973
     22          1           0        1.567066   -7.159372   -0.688048
     23          6           0        1.607614   -5.255374   -0.242484
     24          1           0        1.588564   -5.161005    0.772757
     25          6           0       -3.780236    0.378919   -1.659248
     26          6           0       -3.648876   -0.215098   -3.983305
     27          6           0       -3.165518   -0.320402   -2.693886
     28          1           0       -2.390362   -0.793021   -2.628694
     29          8           0       -4.266962   -0.465783    0.728172
     30          6           0       -4.887583    1.186808   -1.913702
     31          6           0       -5.340801    1.315564   -3.221160
     32          1           0       -6.068752    1.820062   -3.215318
     33          6           0       -4.728697    0.610436   -4.254890
     34          1           0       -5.004031    0.702015   -5.155524
     35          1           0       -3.197059   -0.519655   -4.792593
     36          1           0       -5.311501    1.591342   -1.329014
 ---------------------------------------------------------------------
                    Distance matrix (angstroms):
                    1          2          3          4          5
     1  S    0.000000
     2  S    5.746758   0.000000
     3  O    1.457036   6.310021   0.000000
     4  O    1.451148   6.378664   2.473224   0.000000
     5  O    6.279075   1.446057   6.611186   6.852816   0.000000
     6  N    1.572213   4.187915   2.455443   2.520605   4.817199
     7  N    4.178531   1.573761   4.810932   4.869767   2.459765
     8  C    2.591318   3.829595   3.807784   3.001187   4.746386
     9  H    2.746038   4.510834   4.073641   3.133482   5.555340
    10  H    2.901763   4.057230   4.159057   2.853319   4.839886
    11  C    3.856703   2.609922   4.838886   4.469011   3.801628
    12  H    4.586806   2.692524   5.673877   4.988637   3.963770
    13  H    4.064652   3.050363   4.978492   4.880489   4.328444
    14  C    1.767380   6.594577   2.615425   2.569381   7.397722
    15  C    2.737796   6.982091   3.010630   3.834319   7.799252
    16  H    2.851096   6.818029   2.718356   4.135334   7.524696
    17  C    4.025938   7.957752   4.357208   4.949382   8.898077
    18  H    4.740171   8.434672   4.856493   5.760283   9.350737
    19  C    4.541174   8.535142   5.167983   5.128628   9.572570
    20  H    5.470729   9.323420   6.084938   5.994984  10.408185
    21  C    4.034056   8.232214   4.941734   4.278096   9.257956
    22  H    4.690567   8.814122   5.653739   4.733320   9.868309
    23  C    2.740589   7.291760   3.804979   2.897949   8.205354
    24  H    2.688894   7.242699   3.906631   2.337491   8.092546
    25  C    6.587053   1.785019   7.002963   7.486975   2.580514
    26  C    7.256940   4.053343   7.509337   8.427123   4.841820
    27  C    6.172029   2.769011   6.525855   7.252834   3.681267
    28  H    5.356719   2.950878   5.709790   6.495294   3.916649
    29  O    6.469539   1.450551   7.266642   6.896159   2.463234
    30  C    7.963849   2.743194   8.335543   8.837130   3.116434
    31  C    8.822234   4.036727   9.110524   9.818411   4.421077
    32  H    9.639552   4.611131   9.930265  10.597960   4.856863
    33  C    8.516417   4.557994   8.749657   9.640363   5.143349
    34  H    9.250411   5.503334   9.429094  10.423290   6.055424
    35  H    7.344890   4.870751   7.509054   8.600966   5.655888
    36  H    8.390701   2.856459   8.789217   9.169675   3.000767
                    6          7          8          9         10
     6  N    0.000000
     7  N    2.615457   0.000000
     8  C    1.467692   2.398438   0.000000
     9  H    2.008180   3.150117   0.937374   0.000000
    10  H    2.031026   2.764371   0.959045   1.549341   0.000000
    11  C    2.406220   1.477045   1.509093   1.950243   2.076383
    12  H    3.220401   2.031518   2.034095   2.328297   2.281340
    13  H    2.712109   2.065896   2.038947   2.127592   2.821025
    14  C    2.649611   5.054651   3.173424   2.776556   3.706184
    15  C    3.366750   5.516732   4.060146   3.672618   4.774386
    16  H    3.358222   5.391194   4.301746   4.089454   5.056797
    17  C    4.603973   6.566687   5.045234   4.468438   5.771196
    18  H    5.263021   7.102001   5.797645   5.266683   6.573633
    19  C    5.181791   7.148003   5.307444   4.562560   5.911987
    20  H    6.096797   7.979920   6.142640   5.351269   6.733288
    21  C    4.753857   6.807861   4.680512   3.896795   5.109041
    22  H    5.420692   7.418490   5.209057   4.388334   5.540446
    23  C    3.563616   5.799254   3.587884   2.940875   3.935182
    24  H    3.545375   5.759508   3.420066   2.868981   3.515405
    25  C    5.050349   2.719874   4.842783   5.332982   5.334669
    26  C    5.930544   4.380723   5.928709   6.142321   6.681520
    27  C    4.746645   3.003668   4.689861   5.013559   5.387437
    28  H    3.996299   2.684816   4.051431   4.330300   4.832008
    29  O    4.943819   2.508374   4.163986   4.712610   4.219709
    30  C    6.423447   4.003756   6.179574   6.668283   6.605477
    31  C    7.334232   5.115192   7.166241   7.556637   7.700472
    32  H    8.133707   5.823901   7.925660   8.334601   8.409302
    33  C    7.128026   5.271218   7.062213   7.332504   7.735579
    34  H    7.915603   6.176105   7.889859   8.110485   8.598513
    35  H    6.154281   4.973531   6.271805   6.395412   7.099230
    36  H    6.833772   4.300927   6.527617   7.067465   6.849116
                   11         12         13         14         15
    11  C    0.000000
    12  H    0.955100   0.000000
    13  H    0.981529   1.570606   0.000000
    14  C    4.308017   4.976172   4.167811   0.000000
    15  C    4.864180   5.620883   4.477394   1.395736   0.000000
    16  H    4.970620   5.815311   4.575987   2.044586   0.932856
    17  C    5.737021   6.395716   5.203616   2.402964   1.382493
    18  H    6.360266   7.053999   5.748523   3.240062   2.004746
    19  C    6.102389   6.602768   5.619357   2.773964   2.400217
    20  H    6.878180   7.321159   6.349326   3.704196   3.288715
    21  C    5.683147   6.081915   5.386504   2.394325   2.757511
    22  H    6.226222   6.528510   5.965174   3.148340   3.591302
    23  C    4.796872   5.255631   4.688841   1.374652   2.394531
    24  H    4.785370   5.148371   4.877620   1.970245   3.243357
    25  C    3.454621   3.648715   3.372474   7.138066   7.193496
    26  C    4.673019   5.041972   4.079105   7.343220   6.954311
    27  C    3.401962   3.808589   2.955739   6.452326   6.283397
    28  H    2.926273   3.507907   2.375664   5.572719   5.375510
    29  O    2.898735   2.471874   3.394696   7.182376   7.701152
    30  C    4.759676   4.808333   4.691494   8.528784   8.548390
    31  C    5.741056   5.844258   5.472011   9.214482   9.042537
    32  H    6.482248   6.513254   6.264588  10.070347   9.922386
    33  C    5.707648   5.942879   5.223163   8.692787   8.335710
    34  H    6.562808   6.809620   6.012375   9.331288   8.864859
    35  H    5.151298   5.606965   4.441050   7.264148   6.698360
    36  H    5.123783   5.072655   5.185430   9.056195   9.167320
                   16         17         18         19         20
    16  H    0.000000
    17  C    2.004690   0.000000
    18  H    2.271499   0.943230   0.000000
    19  C    3.232348   1.384713   2.041479   0.000000
    20  H    4.067007   2.099134   2.457887   0.938720   0.000000
    21  C    3.689185   2.375942   3.232104   1.363151   1.922787
    22  H    4.521492   3.120172   3.912003   1.908924   2.116418
    23  C    3.244139   2.761109   3.698862   2.395370   3.186650
    24  H    4.000655   3.767898   4.701222   3.367573   4.091918
    25  C    6.930195   8.003285   8.308791   8.702356   9.419814
    26  C    6.606011   7.464275   7.516186   8.289335   8.877748
    27  C    5.986016   6.972543   7.179681   7.747113   8.424453
    28  H    5.079786   6.090314   6.314321   6.895094   7.597354
    29  O    7.688995   8.564578   9.113020   8.940777   9.668063
    30  C    8.258930   9.315430   9.574084  10.016642  10.702201
    31  C    8.704269   9.680641   9.818180  10.438288  11.060441
    32  H    9.585624  10.560592  10.698788  11.301920  11.916164
    33  C    7.972584   8.845815   8.881557   9.653911  10.223319
    34  H    8.477159   9.281693   9.232997  10.113496  10.631737
    35  H    6.309807   7.091847   7.031429   7.979012   8.519099
    36  H    8.896430   9.977535  10.277620  10.642251  11.341857
                   21         22         23         24         25
    21  C    0.000000
    22  H    0.838546   0.000000
    23  C    1.392075   1.955858   0.000000
    24  H    2.192621   2.475456   1.019796   0.000000
    25  C    8.662507   9.293154   7.923473   8.088847   0.000000
    26  C    8.616223   9.289118   8.187113   8.632086   2.402364
    27  C    7.886320   8.555247   7.290139   7.619079   1.391907
    28  H    7.050181   7.743240   6.449062   6.817698   2.060345
    29  O    8.514272   8.991424   7.641532   7.505617   2.578798
    30  C   10.005978  10.621838   9.299584   9.457921   1.394147
    31  C   10.590403  11.223183  10.016497  10.291425   2.398382
    32  H   11.435657  12.055001  10.854776  11.102907   3.120185
    33  C    9.962968  10.617388   9.521343   9.924443   2.773182
    34  H   10.521798  11.177615  10.165742  10.629291   3.718334
    35  H    8.453844   9.144945   8.137286   8.684322   3.311401
    36  H   10.554645  11.149015   9.794500   9.880412   1.980857
                   26         27         28         29         30
    26  C    0.000000
    27  C    1.381059   0.000000
    28  H    1.937221   0.910213   0.000000
    29  O    4.758454   3.597888   3.859697   0.000000
    30  C    2.789802   2.417825   3.266045   3.177376   0.000000
    31  C    2.405494   2.772410   3.674540   4.463580   1.389760
    32  H    3.253841   3.644482   4.550043   4.901291   1.868255
    33  C    1.386102   2.397232   3.175220   5.118824   2.416323
    34  H    2.012868   3.238074   3.930810   6.043583   3.279938
    35  H    0.975623   2.108380   2.325500   5.623739   3.749387
    36  H    3.615634   3.181648   3.988410   3.091090   0.827777
                   31         32         33         34         35
    31  C    0.000000
    32  H    0.885701   0.000000
    33  C    1.393009   2.083183   0.000000
    34  H    2.057090   2.479528   0.946222   0.000000
    35  H    3.230024   4.026002   1.977914   2.211186   0.000000
    36  H    1.912362   2.045455   3.140476   3.940510   4.574227
                   36
    36  H    0.000000
 Stoichiometry    C14H14N2O4S2(2-)
 Framework group  C1[X(C14H14N2O4S2)]
 Deg. of freedom   102
 Full point group                 C1      NOp   1
 Largest Abelian subgroup         C1      NOp   1
 Largest concise Abelian subgroup C1      NOp   1
                         Standard orientation:                         
 ---------------------------------------------------------------------
 Center     Atomic      Atomic             Coordinates (Angstroms)
 Number     Number       Type             X           Y           Z
 ---------------------------------------------------------------------
      1         16           0        2.783103   -1.144207    0.849486
      2         16           0       -2.844727   -1.286370   -0.304871
      3          8           0        2.898052   -1.040256    2.298256
      4          8           0        3.432988   -2.283193    0.228042
      5          8           0       -3.404921   -2.194589    0.671042
      6          7           0        1.263123   -1.022894    0.466343
      7          7           0       -1.296287   -1.156985   -0.055243
      8          6           0        0.925845   -1.136162   -0.957572
      9          1           0        1.449586   -0.559249   -1.478664
     10          1           0        1.022279   -2.034923   -1.278037
     11          6           0       -0.471711   -0.598957   -1.146270
     12          1           0       -0.797975   -0.866417   -2.003144
     13          1           0       -0.425740    0.381259   -1.124766
     14          6           0        3.545379    0.282099    0.136592
     15          6           0        3.457942    1.508596    0.797000
     16          1           0        3.029350    1.589270    1.621635
     17          6           0        4.062508    2.625934    0.251709
     18          1           0        4.075138    3.415737    0.767204
     19          6           0        4.763020    2.530540   -0.938927
     20          1           0        5.259566    3.197008   -1.375341
     21          6           0        4.858268    1.326826   -1.571525
     22          1           0        5.368177    1.265840   -2.234422
     23          6           0        4.258378    0.190909   -1.035152
     24          1           0        4.306363   -0.782149   -1.336549
     25          6           0       -3.591925    0.298983    0.033719
     26          6           0       -3.397119    2.644691    0.514406
     27          6           0       -2.804394    1.417440    0.291117
     28          1           0       -1.903641    1.414325    0.421962
     29          8           0       -3.149974   -1.562017   -1.695892
     30          6           0       -4.981322    0.407607   -0.004010
     31          6           0       -5.567735    1.639450    0.260787
     32          1           0       -6.443641    1.559190    0.156803
     33          6           0       -4.778464    2.759418    0.512179
     34          1           0       -5.155858    3.601964    0.719606
     35          1           0       -2.955541    3.440012    0.866984
     36          1           0       -5.491112   -0.217270   -0.190711
 ---------------------------------------------------------------------
 Rotational constants (GHZ):           0.4369621           0.1166398           0.1027943
 Leave Link  202 at Mon Mar  6 10:21:43 2023, MaxMem=  1048576000 cpu:               0.0 elap:               0.0
 (Enter /ssoft/spack/external/gaussian/g16-C.01/avx2/g16/l301.exe)
 Standard basis: def2SVP (5D, 7F)
 Ernie: Thresh=  0.10000D-02 Tol=  0.10000D-05 Strict=F.
 There are   408 symmetry adapted cartesian basis functions of A   symmetry.
 There are   386 symmetry adapted basis functions of A   symmetry.
   386 basis functions,   672 primitive gaussians,   408 cartesian basis functions
    89 alpha electrons       89 beta electrons
       nuclear repulsion energy      2097.6272801940 Hartrees.
 IExCor= 1009 DFT=T Ex+Corr=PBE1PBE ExCW=0 ScaHFX=  0.250000
 ScaDFX=  0.750000  0.750000  1.000000  1.000000 ScalE2=  1.000000  1.000000
 IRadAn=      5 IRanWt=     -1 IRanGd=            0 ICorTp=0 IEmpDi=141
 NAtoms=   36 NActive=   36 NUniq=   36 SFac= 1.00D+00 NAtFMM=   60 NAOKFM=F Big=F
 Integral buffers will be    131072 words long.
 Raffenetti 2 integral format.
 Two-electron integral symmetry is turned on.
 R6Disp:  Grimme-D3(BJ) Dispersion energy=       -0.0460029406 Hartrees.
 Nuclear repulsion after empirical dispersion term =     2097.5812772534 Hartrees.
 Leave Link  301 at Mon Mar  6 10:21:43 2023, MaxMem=  1048576000 cpu:               0.1 elap:               0.1
 (Enter /ssoft/spack/external/gaussian/g16-C.01/avx2/g16/l302.exe)
 NPDir=0 NMtPBC=     1 NCelOv=     1 NCel=       1 NClECP=     1 NCelD=      1
         NCelK=      1 NCelE2=     1 NClLst=     1 CellRange=     0.0.
 One-electron integrals computed using PRISM.
 One-electron integral symmetry used in STVInt
   1 Symmetry operations used in ECPInt.
 ECPInt:  NShTT=   15931 NPrTT=   60379 LenC2=   13453 LenP2D=   34267.
 LDataN:  DoStor=T MaxTD1= 4 Len=   56
 NBasis=   386 RedAO= T EigKep=  2.87D-04  NBF=   386
 NBsUse=   386 1.00D-06 EigRej= -1.00D+00 NBFU=   386
 Precomputing XC quadrature grid using
 IXCGrd= 4 IRadAn=           5 IRanWt=          -1 IRanGd=           0 AccXCQ= 0.00D+00.
 Generated NRdTot=       0 NPtTot=           0 NUsed=           0 NTot=          32
 NSgBfM=   404   404   404   404   404 MxSgAt=    36 MxSgA2=    36.
 Leave Link  302 at Mon Mar  6 10:21:44 2023, MaxMem=  1048576000 cpu:               1.2 elap:               1.2
 (Enter /ssoft/spack/external/gaussian/g16-C.01/avx2/g16/l303.exe)
 DipDrv:  MaxL=1.
 Leave Link  303 at Mon Mar  6 10:21:44 2023, MaxMem=  1048576000 cpu:               0.1 elap:               0.1
 (Enter /ssoft/spack/external/gaussian/g16-C.01/avx2/g16/l401.exe)
 ExpMin= 1.22D-01 ExpMax= 9.18D+03 ExpMxC= 1.38D+03 IAcc=3 IRadAn=         5 AccDes= 0.00D+00
 Harris functional with IExCor= 1009 and IRadAn=       5 diagonalized for initial guess.
 HarFok:  IExCor= 1009 AccDes= 0.00D+00 IRadAn=         5 IDoV= 1 UseB2=F ITyADJ=14
 ICtDFT=  3500011 ScaDFX=  1.000000  1.000000  1.000000  1.000000
 FoFCou: FMM=F IPFlag=           0 FMFlag=      100000 FMFlg1=           0
         NFxFlg=           0 DoJE=T BraDBF=F KetDBF=T FulRan=T
         wScrn=  0.000000 ICntrl=       500 IOpCl=  0 I1Cent=   200000004 NGrid=           0
         NMat0=    1 NMatS0=      1 NMatT0=    0 NMatD0=    1 NMtDS0=    0 NMtDT0=    0
 Petite list used in FoFCou.
 Harris En= -1746.65633181621    
 JPrj=0 DoOrth=F DoCkMO=F.
 Leave Link  401 at Mon Mar  6 10:21:54 2023, MaxMem=  1048576000 cpu:               9.7 elap:               9.8
 (Enter /ssoft/spack/external/gaussian/g16-C.01/avx2/g16/l502.exe)
 Integral symmetry usage will be decided dynamically.
 Closed shell SCF:
 Using DIIS extrapolation, IDIIS=  1040.
 NGot=  1048576000 LenX=  1048235502 LenY=  1048068597
 Requested convergence on RMS density matrix=1.00D-08 within 128 cycles.
 Requested convergence on MAX density matrix=1.00D-06.
 Requested convergence on             energy=1.00D-06.
 No special actions if energy rises.
 Fock matrices will be formed incrementally for  20 cycles.
 Integral accuracy reduced to 1.0D-05 until final iterations.

 Cycle   1  Pass 0  IDiag  1:
 FoFJK:  IHMeth= 1 ICntrl=       0 DoSepK=F KAlg= 0 I1Cent=           0 FoldK=F
 IRaf= 770000000 NMat=       1 IRICut=       1 DoRegI=T DoRafI=F ISym2E= 0 IDoP0=0 IntGTp=1.
 FoFCou: FMM=F IPFlag=           0 FMFlag=      100000 FMFlg1=           0
         NFxFlg=           0 DoJE=F BraDBF=F KetDBF=F FulRan=T
         wScrn=  0.000000 ICntrl=         0 IOpCl=  0 I1Cent=           0 NGrid=           0
         NMat0=    1 NMatS0=      1 NMatT0=    0 NMatD0=    1 NMtDS0=    0 NMtDT0=    0
 Symmetry not used in FoFCou.
 E= -1744.94917642467    
 DIIS: error= 3.20D-02 at cycle   1 NSaved=   1.
 NSaved= 1 IEnMin= 1 EnMin= -1744.94917642467     IErMin= 1 ErrMin= 3.20D-02
 ErrMax= 3.20D-02  0.00D+00 EMaxC= 1.00D-01 BMatC= 9.81D-01 BMatP= 9.81D-01
 IDIUse=3 WtCom= 6.80D-01 WtEn= 3.20D-01
 Coeff-Com:  0.100D+01
 Coeff-En:   0.100D+01
 Coeff:      0.100D+01
 Gap=     0.065 Goal=   None    Shift=    0.000
 GapD=    0.065 DampG=0.500 DampE=0.500 DampFc=0.2500 IDamp=-1.
 Damping current iteration by 2.50D-01
 RMSDP=8.45D-03 MaxDP=4.12D-01              OVMax= 4.07D-01

 Cycle   2  Pass 0  IDiag  1:
 RMSU=  2.11D-03    CP:  9.93D-01
 E= -1745.25796881731     Delta-E=       -0.308792392632 Rises=F Damp=T
 DIIS: error= 1.95D-02 at cycle   2 NSaved=   2.
 NSaved= 2 IEnMin= 2 EnMin= -1745.25796881731     IErMin= 2 ErrMin= 1.95D-02
 ErrMax= 1.95D-02  0.00D+00 EMaxC= 1.00D-01 BMatC= 2.01D-01 BMatP= 9.81D-01
 IDIUse=3 WtCom= 8.05D-01 WtEn= 1.95D-01
 Coeff-Com: -0.628D+00 0.163D+01
 Coeff-En:   0.000D+00 0.100D+01
 Coeff:     -0.506D+00 0.151D+01
 Gap=     0.155 Goal=   None    Shift=    0.000
 RMSDP=2.56D-03 MaxDP=7.56D-02 DE=-3.09D-01 OVMax= 3.47D-01

 Cycle   3  Pass 0  IDiag  1:
 RMSU=  2.33D-03    CP:  9.59D-01  1.36D+00
 E= -1745.75442134698     Delta-E=       -0.496452529677 Rises=F Damp=F
 DIIS: error= 7.36D-03 at cycle   3 NSaved=   3.
 NSaved= 3 IEnMin= 3 EnMin= -1745.75442134698     IErMin= 3 ErrMin= 7.36D-03
 ErrMax= 7.36D-03  0.00D+00 EMaxC= 1.00D-01 BMatC= 7.66D-02 BMatP= 2.01D-01
 IDIUse=3 WtCom= 9.26D-01 WtEn= 7.36D-02
 Coeff-Com: -0.356D+00 0.879D+00 0.477D+00
 Coeff-En:   0.000D+00 0.000D+00 0.100D+01
 Coeff:     -0.329D+00 0.814D+00 0.515D+00
 Gap=     0.108 Goal=   None    Shift=    0.000
 RMSDP=1.43D-03 MaxDP=5.30D-02 DE=-4.96D-01 OVMax= 1.11D-01

 Cycle   4  Pass 0  IDiag  1:
 RMSU=  9.25D-04    CP:  9.68D-01  1.59D+00  5.86D-01
 E= -1745.82066897318     Delta-E=       -0.066247626195 Rises=F Damp=F
 DIIS: error= 3.61D-03 at cycle   4 NSaved=   4.
 NSaved= 4 IEnMin= 4 EnMin= -1745.82066897318     IErMin= 4 ErrMin= 3.61D-03
 ErrMax= 3.61D-03  0.00D+00 EMaxC= 1.00D-01 BMatC= 1.47D-02 BMatP= 7.66D-02
 IDIUse=3 WtCom= 9.64D-01 WtEn= 3.61D-02
 Coeff-Com: -0.140D+00 0.325D+00 0.309D+00 0.506D+00
 Coeff-En:   0.000D+00 0.000D+00 0.135D+00 0.865D+00
 Coeff:     -0.135D+00 0.313D+00 0.303D+00 0.519D+00
 Gap=     0.123 Goal=   None    Shift=    0.000
 RMSDP=5.61D-04 MaxDP=2.77D-02 DE=-6.62D-02 OVMax= 5.79D-02

 Cycle   5  Pass 0  IDiag  1:
 RMSU=  3.25D-04    CP:  9.66D-01  1.50D+00  6.82D-01  6.20D-01
 E= -1745.83224216122     Delta-E=       -0.011573188045 Rises=F Damp=F
 DIIS: error= 1.37D-03 at cycle   5 NSaved=   5.
 NSaved= 5 IEnMin= 5 EnMin= -1745.83224216122     IErMin= 5 ErrMin= 1.37D-03
 ErrMax= 1.37D-03  0.00D+00 EMaxC= 1.00D-01 BMatC= 2.13D-03 BMatP= 1.47D-02
 IDIUse=3 WtCom= 9.86D-01 WtEn= 1.37D-02
 Coeff-Com: -0.413D-01 0.845D-01 0.988D-01 0.319D+00 0.539D+00
 Coeff-En:   0.000D+00 0.000D+00 0.000D+00 0.140D+00 0.860D+00
 Coeff:     -0.408D-01 0.833D-01 0.974D-01 0.317D+00 0.543D+00
 Gap=     0.119 Goal=   None    Shift=    0.000
 RMSDP=1.88D-04 MaxDP=8.89D-03 DE=-1.16D-02 OVMax= 1.52D-02

 Cycle   6  Pass 0  IDiag  1:
 RMSU=  9.88D-05    CP:  9.66D-01  1.53D+00  6.78D-01  7.04D-01  6.17D-01
 E= -1745.83404891640     Delta-E=       -0.001806755172 Rises=F Damp=F
 DIIS: error= 5.19D-04 at cycle   6 NSaved=   6.
 NSaved= 6 IEnMin= 6 EnMin= -1745.83404891640     IErMin= 6 ErrMin= 5.19D-04
 ErrMax= 5.19D-04  0.00D+00 EMaxC= 1.00D-01 BMatC= 1.75D-04 BMatP= 2.13D-03
 IDIUse=3 WtCom= 9.95D-01 WtEn= 5.19D-03
 Coeff-Com: -0.124D-01 0.195D-01 0.200D-01 0.126D+00 0.300D+00 0.547D+00
 Coeff-En:   0.000D+00 0.000D+00 0.000D+00 0.000D+00 0.000D+00 0.100D+01
 Coeff:     -0.123D-01 0.194D-01 0.199D-01 0.125D+00 0.299D+00 0.549D+00
 Gap=     0.119 Goal=   None    Shift=    0.000
 RMSDP=5.25D-05 MaxDP=1.96D-03 DE=-1.81D-03 OVMax= 3.73D-03

 Cycle   7  Pass 0  IDiag  1:
 RMSU=  3.03D-05    CP:  9.66D-01  1.53D+00  6.75D-01  7.09D-01  6.86D-01
                    CP:  6.40D-01
 E= -1745.83420155404     Delta-E=       -0.000152637647 Rises=F Damp=F
 DIIS: error= 2.67D-04 at cycle   7 NSaved=   7.
 NSaved= 7 IEnMin= 7 EnMin= -1745.83420155404     IErMin= 7 ErrMin= 2.67D-04
 ErrMax= 2.67D-04  0.00D+00 EMaxC= 1.00D-01 BMatC= 2.07D-05 BMatP= 1.75D-04
 IDIUse=3 WtCom= 9.97D-01 WtEn= 2.67D-03
 Coeff-Com: -0.381D-02 0.405D-02 0.120D-02 0.426D-01 0.119D+00 0.322D+00
 Coeff-Com:  0.516D+00
 Coeff-En:   0.000D+00 0.000D+00 0.000D+00 0.000D+00 0.000D+00 0.706D-01
 Coeff-En:   0.929D+00
 Coeff:     -0.380D-02 0.404D-02 0.119D-02 0.425D-01 0.119D+00 0.321D+00
 Coeff:      0.517D+00
 Gap=     0.118 Goal=   None    Shift=    0.000
 RMSDP=1.70D-05 MaxDP=6.29D-04 DE=-1.53D-04 OVMax= 1.47D-03

 Cycle   8  Pass 0  IDiag  1:
 RMSU=  1.04D-05    CP:  9.66D-01  1.53D+00  6.74D-01  7.13D-01  6.76D-01
                    CP:  6.75D-01  6.24D-01
 E= -1745.83422301342     Delta-E=       -0.000021459376 Rises=F Damp=F
 DIIS: error= 5.53D-05 at cycle   8 NSaved=   8.
 NSaved= 8 IEnMin= 8 EnMin= -1745.83422301342     IErMin= 8 ErrMin= 5.53D-05
 ErrMax= 5.53D-05  0.00D+00 EMaxC= 1.00D-01 BMatC= 1.05D-06 BMatP= 2.07D-05
 IDIUse=1 WtCom= 1.00D+00 WtEn= 0.00D+00
 Coeff-Com: -0.864D-03 0.254D-03-0.194D-02 0.844D-02 0.283D-01 0.101D+00
 Coeff-Com:  0.241D+00 0.624D+00
 Coeff:     -0.864D-03 0.254D-03-0.194D-02 0.844D-02 0.283D-01 0.101D+00
 Coeff:      0.241D+00 0.624D+00
 Gap=     0.118 Goal=   None    Shift=    0.000
 RMSDP=5.09D-06 MaxDP=2.13D-04 DE=-2.15D-05 OVMax= 4.41D-04

 Initial convergence to 1.0D-05 achieved.  Increase integral accuracy.
 Cycle   9  Pass 1  IDiag  1:
 E= -1745.83417145570     Delta-E=        0.000051557722 Rises=F Damp=F
 DIIS: error= 9.62D-05 at cycle   1 NSaved=   1.
 NSaved= 1 IEnMin= 1 EnMin= -1745.83417145570     IErMin= 1 ErrMin= 9.62D-05
 ErrMax= 9.62D-05  0.00D+00 EMaxC= 1.00D-01 BMatC= 1.59D-06 BMatP= 1.59D-06
 IDIUse=1 WtCom= 1.00D+00 WtEn= 0.00D+00
 Coeff-Com:  0.100D+01
 Coeff:      0.100D+01
 Gap=     0.118 Goal=   None    Shift=    0.000
 RMSDP=5.09D-06 MaxDP=2.13D-04 DE= 5.16D-05 OVMax= 3.22D-04

 Cycle  10  Pass 1  IDiag  1:
 RMSU=  8.56D-05    CP:  1.00D+00
 E= -1745.83417306797     Delta-E=       -0.000001612275 Rises=F Damp=F
 DIIS: error= 1.75D-05 at cycle   2 NSaved=   2.
 NSaved= 2 IEnMin= 2 EnMin= -1745.83417306797     IErMin= 2 ErrMin= 1.75D-05
 ErrMax= 1.75D-05  0.00D+00 EMaxC= 1.00D-01 BMatC= 2.68D-07 BMatP= 1.59D-06
 IDIUse=1 WtCom= 1.00D+00 WtEn= 0.00D+00
 Coeff-Com:  0.191D+00 0.809D+00
 Coeff:      0.191D+00 0.809D+00
 Gap=     0.118 Goal=   None    Shift=    0.000
 RMSDP=4.58D-06 MaxDP=2.28D-04 DE=-1.61D-06 OVMax= 5.29D-04

 Cycle  11  Pass 1  IDiag  1:
 RMSU=  4.46D-06    CP:  1.00D+00  1.01D+00
 E= -1745.83417286293     Delta-E=        0.000000205039 Rises=F Damp=F
 DIIS: error= 2.28D-05 at cycle   3 NSaved=   3.
 NSaved= 3 IEnMin= 2 EnMin= -1745.83417306797     IErMin= 2 ErrMin= 1.75D-05
 ErrMax= 2.28D-05  0.00D+00 EMaxC= 1.00D-01 BMatC= 4.78D-07 BMatP= 2.68D-07
 IDIUse=1 WtCom= 1.00D+00 WtEn= 0.00D+00
 Coeff-Com:  0.323D-02 0.572D+00 0.424D+00
 Coeff:      0.323D-02 0.572D+00 0.424D+00
 Gap=     0.118 Goal=   None    Shift=    0.000
 RMSDP=2.72D-06 MaxDP=1.58D-04 DE= 2.05D-07 OVMax= 3.25D-04

 Cycle  12  Pass 1  IDiag  1:
 RMSU=  8.16D-07    CP:  1.00D+00  1.02D+00  4.31D-01
 E= -1745.83417333056     Delta-E=       -0.000000467629 Rises=F Damp=F
 DIIS: error= 4.74D-06 at cycle   4 NSaved=   4.
 NSaved= 4 IEnMin= 4 EnMin= -1745.83417333056     IErMin= 4 ErrMin= 4.74D-06
 ErrMax= 4.74D-06  0.00D+00 EMaxC= 1.00D-01 BMatC= 1.70D-08 BMatP= 2.68D-07
 IDIUse=1 WtCom= 1.00D+00 WtEn= 0.00D+00
 Coeff-Com: -0.460D-02 0.341D+00 0.269D+00 0.395D+00
 Coeff:     -0.460D-02 0.341D+00 0.269D+00 0.395D+00
 Gap=     0.118 Goal=   None    Shift=    0.000
 RMSDP=4.81D-07 MaxDP=2.12D-05 DE=-4.68D-07 OVMax= 3.91D-05

 Cycle  13  Pass 1  IDiag  1:
 RMSU=  2.48D-07    CP:  1.00D+00  1.02D+00  4.55D-01  5.12D-01
 E= -1745.83417334582     Delta-E=       -0.000000015255 Rises=F Damp=F
 DIIS: error= 6.21D-07 at cycle   5 NSaved=   5.
 NSaved= 5 IEnMin= 5 EnMin= -1745.83417334582     IErMin= 5 ErrMin= 6.21D-07
 ErrMax= 6.21D-07  0.00D+00 EMaxC= 1.00D-01 BMatC= 4.14D-10 BMatP= 1.70D-08
 IDIUse=1 WtCom= 1.00D+00 WtEn= 0.00D+00
 Coeff-Com: -0.276D-02 0.173D+00 0.135D+00 0.229D+00 0.466D+00
 Coeff:     -0.276D-02 0.173D+00 0.135D+00 0.229D+00 0.466D+00
 Gap=     0.118 Goal=   None    Shift=    0.000
 RMSDP=8.43D-08 MaxDP=3.62D-06 DE=-1.53D-08 OVMax= 4.26D-06

 Cycle  14  Pass 1  IDiag  1:
 RMSU=  7.17D-08    CP:  1.00D+00  1.02D+00  4.49D-01  5.39D-01  8.85D-01
 E= -1745.83417334615     Delta-E=       -0.000000000337 Rises=F Damp=F
 DIIS: error= 2.27D-07 at cycle   6 NSaved=   6.
 NSaved= 6 IEnMin= 6 EnMin= -1745.83417334615     IErMin= 6 ErrMin= 2.27D-07
 ErrMax= 2.27D-07  0.00D+00 EMaxC= 1.00D-01 BMatC= 2.78D-11 BMatP= 4.14D-10
 IDIUse=1 WtCom= 1.00D+00 WtEn= 0.00D+00
 Coeff-Com: -0.856D-03 0.485D-01 0.364D-01 0.740D-01 0.226D+00 0.616D+00
 Coeff:     -0.856D-03 0.485D-01 0.364D-01 0.740D-01 0.226D+00 0.616D+00
 Gap=     0.118 Goal=   None    Shift=    0.000
 RMSDP=2.72D-08 MaxDP=9.21D-07 DE=-3.37D-10 OVMax= 2.28D-06

 Cycle  15  Pass 1  IDiag  1:
 RMSU=  2.26D-08    CP:  1.00D+00  1.02D+00  4.49D-01  5.44D-01  9.27D-01
                    CP:  8.73D-01
 E= -1745.83417334619     Delta-E=       -0.000000000036 Rises=F Damp=F
 DIIS: error= 7.31D-08 at cycle   7 NSaved=   7.
 NSaved= 7 IEnMin= 7 EnMin= -1745.83417334619     IErMin= 7 ErrMin= 7.31D-08
 ErrMax= 7.31D-08  0.00D+00 EMaxC= 1.00D-01 BMatC= 5.92D-12 BMatP= 2.78D-11
 IDIUse=1 WtCom= 1.00D+00 WtEn= 0.00D+00
 Coeff-Com:  0.414D-04-0.567D-02-0.591D-02-0.706D-03 0.301D-01 0.343D+00
 Coeff-Com:  0.639D+00
 Coeff:      0.414D-04-0.567D-02-0.591D-02-0.706D-03 0.301D-01 0.343D+00
 Coeff:      0.639D+00
 Gap=     0.118 Goal=   None    Shift=    0.000
 RMSDP=1.47D-08 MaxDP=6.07D-07 DE=-3.59D-11 OVMax= 1.37D-06

 Cycle  16  Pass 1  IDiag  1:
 RMSU=  1.05D-08    CP:  1.00D+00  1.02D+00  4.48D-01  5.50D-01  9.38D-01
                    CP:  9.84D-01  9.10D-01
 E= -1745.83417334621     Delta-E=       -0.000000000016 Rises=F Damp=F
 DIIS: error= 2.19D-08 at cycle   8 NSaved=   8.
 NSaved= 8 IEnMin= 8 EnMin= -1745.83417334621     IErMin= 8 ErrMin= 2.19D-08
 ErrMax= 2.19D-08  0.00D+00 EMaxC= 1.00D-01 BMatC= 8.18D-13 BMatP= 5.92D-12
 IDIUse=1 WtCom= 1.00D+00 WtEn= 0.00D+00
 Coeff-Com:  0.141D-03-0.972D-02-0.836D-02-0.999D-02-0.161D-01 0.113D+00
 Coeff-Com:  0.359D+00 0.572D+00
 Coeff:      0.141D-03-0.972D-02-0.836D-02-0.999D-02-0.161D-01 0.113D+00
 Coeff:      0.359D+00 0.572D+00
 Gap=     0.118 Goal=   None    Shift=    0.000
 RMSDP=4.33D-09 MaxDP=1.58D-07 DE=-1.64D-11 OVMax= 5.31D-07

 SCF Done:  E(RPBE1PBE) =  -1745.83417335     A.U. after   16 cycles
            NFock= 16  Conv=0.43D-08     -V/T= 2.0029
 KE= 1.740784819240D+03 PE=-8.350734324859D+03 EE= 2.766534055019D+03
 Leave Link  502 at Mon Mar  6 10:27:32 2023, MaxMem=  1048576000 cpu:             334.5 elap:             337.5
 (Enter /ssoft/spack/external/gaussian/g16-C.01/avx2/g16/l801.exe)
 DoSCS=F DFT=T ScalE2(SS,OS)=  1.000000  1.000000
 Range of M.O.s used for correlation:     1   386
 NBasis=   386 NAE=    89 NBE=    89 NFC=     0 NFV=     0
 NROrb=    386 NOA=    89 NOB=    89 NVA=   297 NVB=   297
 Leave Link  801 at Mon Mar  6 10:27:32 2023, MaxMem=  1048576000 cpu:               0.0 elap:               0.0
 (Enter /ssoft/spack/external/gaussian/g16-C.01/avx2/g16/l1101.exe)
 Using compressed storage, NAtomX=    36.
 Will process     37 centers per pass.
   1 Symmetry operations used in ECPInt.
 ECPInt:  NShTT=   15931 NPrTT=   60379 LenC2=   13453 LenP2D=   34267.
 LDataN:  DoStor=T MaxTD1= 5 Len=  102
 R6Disp: Adding Grimme-D3(BJ) dispersion energy 1st derivatives to the gradient.
 Leave Link 1101 at Mon Mar  6 10:27:33 2023, MaxMem=  1048576000 cpu:               0.7 elap:               0.7
 (Enter /ssoft/spack/external/gaussian/g16-C.01/avx2/g16/l1102.exe)
 Symmetrizing basis deriv contribution to polar:
 IMax=3 JMax=2 DiffMx= 0.00D+00
 Leave Link 1102 at Mon Mar  6 10:27:33 2023, MaxMem=  1048576000 cpu:               0.1 elap:               0.1
 (Enter /ssoft/spack/external/gaussian/g16-C.01/avx2/g16/l1110.exe)
 Forming Gx(P) for the SCF density, NAtomX=    36.
 Integral derivatives from FoFJK, PRISM(SPDF).
 Do as many integral derivatives as possible in FoFJK.
 G2DrvN: MDV=    1048572156.
 G2DrvN: will do    37 centers at a time, making    1 passes.
 Calling FoFCou, ICntrl=  3107 FMM=F I1Cent=   0 AccDes= 0.00D+00.
 FoFJK:  IHMeth= 1 ICntrl=    3107 DoSepK=F KAlg= 0 I1Cent=           0 FoldK=F
 IRaf=         0 NMat=       1 IRICut=       1 DoRegI=T DoRafI=F ISym2E= 0 IDoP0=0 IntGTp=1.
 FoFCou: FMM=F IPFlag=           0 FMFlag=      100000 FMFlg1=           0
         NFxFlg=           0 DoJE=F BraDBF=F KetDBF=F FulRan=T
         wScrn=  0.000000 ICntrl=      3107 IOpCl=  0 I1Cent=           0 NGrid=           0
         NMat0=    1 NMatS0=      1 NMatT0=    0 NMatD0=    1 NMtDS0=    0 NMtDT0=    0
 Symmetry not used in FoFCou.
 End of G2Drv F.D. properties file   721 does not exist.
 End of G2Drv F.D. properties file   722 does not exist.
 End of G2Drv F.D. properties file   788 does not exist.
 Leave Link 1110 at Mon Mar  6 10:40:11 2023, MaxMem=  1048576000 cpu:             754.9 elap:             758.2
 (Enter /ssoft/spack/external/gaussian/g16-C.01/avx2/g16/l1002.exe)
 Minotr:  Closed shell wavefunction.
          IDoAtm=111111111111111111111111111111111111
          Direct CPHF calculation.
          Differentiating once with respect to electric field.
                with respect to dipole field.
          Differentiating once with respect to nuclear coordinates.
          Requested convergence is 1.0D-08 RMS, and 1.0D-07 maximum.
          Secondary convergence is 1.0D-12 RMS, and 1.0D-12 maximum.
          NewPWx=T KeepS1=F KeepF1=F KeepIn=T MapXYZ=F SortEE=F KeepMc=T.
        10939 words used for storage of precomputed grid.
 Two-electron integrals replicated using symmetry.
          MDV=    1048576000 using IRadAn=       1.
          Solving linear equations simultaneously, MaxMat=     384.
 FoF2E skips out because all densities are zero.
 CalDSu exits because no D1Ps are significant.
 FoFJK:  IHMeth= 1 ICntrl=       0 DoSepK=F KAlg= 0 I1Cent=           0 FoldK=F
 IRaf= 730000000 NMat=     108 IRICut=     270 DoRegI=T DoRafI=T ISym2E= 2 IDoP0=3 IntGTp=3.
 FoFCou: FMM=F IPFlag=           0 FMFlag=      100000 FMFlg1=           0
         NFxFlg=           0 DoJE=F BraDBF=F KetDBF=F FulRan=T
         wScrn=  0.000000 ICntrl=         0 IOpCl=  0 I1Cent=           0 NGrid=           0
         NMat0=  108 NMatS0=    108 NMatT0=    0 NMatD0=  108 NMtDS0=    0 NMtDT0=    0
 Integrals replicated using symmetry in FoFCou.
 Raff kept on since  67.52% of shell-pairs survive, threshold=   0.20 IRatSp=68.
          There are   111 degrees of freedom in the 1st order CPHF.  IDoFFX=6 NUNeed=     3.
    108 vectors produced by pass  0 Test12= 2.64D-14 1.00D-09 XBig12= 2.78D+02 7.53D+00.
 AX will form   108 AO Fock derivatives at one time.
    108 vectors produced by pass  1 Test12= 2.64D-14 1.00D-09 XBig12= 6.56D+01 1.23D+00.
    108 vectors produced by pass  2 Test12= 2.64D-14 1.00D-09 XBig12= 5.43D-01 7.84D-02.
    108 vectors produced by pass  3 Test12= 2.64D-14 1.00D-09 XBig12= 3.80D-03 7.23D-03.
    108 vectors produced by pass  4 Test12= 2.64D-14 1.00D-09 XBig12= 1.43D-05 3.41D-04.
    108 vectors produced by pass  5 Test12= 2.64D-14 1.00D-09 XBig12= 2.41D-08 1.51D-05.
     43 vectors produced by pass  6 Test12= 2.64D-14 1.00D-09 XBig12= 3.31D-11 4.07D-07.
      5 vectors produced by pass  7 Test12= 2.64D-14 1.00D-09 XBig12= 3.98D-14 1.57D-08.
      1 vectors produced by pass  8 Test12= 2.64D-14 1.00D-09 XBig12= 3.86D-16 1.61D-09.
 InvSVY:  IOpt=1 It=  1 EMax= 3.91D-14
 Solved reduced A of dimension   697 with   111 vectors.
 FullF1:  Do perturbations      1 to       3.
 Isotropic polarizability for W=    0.000000      205.28 Bohr**3.
 End of Minotr F.D. properties file   721 does not exist.
 End of Minotr F.D. properties file   722 does not exist.
 End of Minotr F.D. properties file   788 does not exist.
 Leave Link 1002 at Mon Mar  6 11:03:38 2023, MaxMem=  1048576000 cpu:            1402.2 elap:            1407.0
 (Enter /ssoft/spack/external/gaussian/g16-C.01/avx2/g16/l601.exe)
 Copying SCF densities to generalized density rwf, IOpCl= 0 IROHF=0.

 **********************************************************************

            Population analysis using the SCF Density.

 **********************************************************************

 Orbital symmetries:
       Occupied  (A) (A) (A) (A) (A) (A) (A) (A) (A) (A) (A) (A)
                 (A) (A) (A) (A) (A) (A) (A) (A) (A) (A) (A) (A)
                 (A) (A) (A) (A) (A) (A) (A) (A) (A) (A) (A) (A)
                 (A) (A) (A) (A) (A) (A) (A) (A) (A) (A) (A) (A)
                 (A) (A) (A) (A) (A) (A) (A) (A) (A) (A) (A) (A)
                 (A) (A) (A) (A) (A) (A) (A) (A) (A) (A) (A) (A)
                 (A) (A) (A) (A) (A) (A) (A) (A) (A) (A) (A) (A)
                 (A) (A) (A) (A) (A)
       Virtual   (A) (A) (A) (A) (A) (A) (A) (A) (A) (A) (A) (A)
                 (A) (A) (A) (A) (A) (A) (A) (A) (A) (A) (A) (A)
                 (A) (A) (A) (A) (A) (A) (A) (A) (A) (A) (A) (A)
                 (A) (A) (A) (A) (A) (A) (A) (A) (A) (A) (A) (A)
                 (A) (A) (A) (A) (A) (A) (A) (A) (A) (A) (A) (A)
                 (A) (A) (A) (A) (A) (A) (A) (A) (A) (A) (A) (A)
                 (A) (A) (A) (A) (A) (A) (A) (A) (A) (A) (A) (A)
                 (A) (A) (A) (A) (A) (A) (A) (A) (A) (A) (A) (A)
                 (A) (A) (A) (A) (A) (A) (A) (A) (A) (A) (A) (A)
                 (A) (A) (A) (A) (A) (A) (A) (A) (A) (A) (A) (A)
                 (A) (A) (A) (A) (A) (A) (A) (A) (A) (A) (A) (A)
                 (A) (A) (A) (A) (A) (A) (A) (A) (A) (A) (A) (A)
                 (A) (A) (A) (A) (A) (A) (A) (A) (A) (A) (A) (A)
                 (A) (A) (A) (A) (A) (A) (A) (A) (A) (A) (A) (A)
                 (A) (A) (A) (A) (A) (A) (A) (A) (A) (A) (A) (A)
                 (A) (A) (A) (A) (A) (A) (A) (A) (A) (A) (A) (A)
                 (A) (A) (A) (A) (A) (A) (A) (A) (A) (A) (A) (A)
                 (A) (A) (A) (A) (A) (A) (A) (A) (A) (A) (A) (A)
                 (A) (A) (A) (A) (A) (A) (A) (A) (A) (A) (A) (A)
                 (A) (A) (A) (A) (A) (A) (A) (A) (A) (A) (A) (A)
                 (A) (A) (A) (A) (A) (A) (A) (A) (A) (A) (A) (A)
                 (A) (A) (A) (A) (A) (A) (A) (A) (A) (A) (A) (A)
                 (A) (A) (A) (A) (A) (A) (A) (A) (A) (A) (A) (A)
                 (A) (A) (A) (A) (A) (A) (A) (A) (A) (A) (A) (A)
                 (A) (A) (A) (A) (A) (A) (A) (A) (A)
 The electronic state is 1-A.
 Alpha  occ. eigenvalues --  -88.92431 -88.92000 -18.90060 -18.89968 -18.89716
 Alpha  occ. eigenvalues --  -18.89605 -14.04904 -14.03854 -10.03402 -10.03116
 Alpha  occ. eigenvalues --  -10.02733 -10.02715 -10.02622 -10.02407 -10.01951
 Alpha  occ. eigenvalues --  -10.01770 -10.01651 -10.01614 -10.01583 -10.01331
 Alpha  occ. eigenvalues --   -9.94752  -9.94500  -7.89168  -7.88738  -5.83405
 Alpha  occ. eigenvalues --   -5.83322  -5.83168  -5.82977  -5.82884  -5.82737
 Alpha  occ. eigenvalues --   -0.84562  -0.84440  -0.72312  -0.72155  -0.68709
 Alpha  occ. eigenvalues --   -0.68543  -0.62302  -0.59654  -0.59255  -0.58485
 Alpha  occ. eigenvalues --   -0.57608  -0.56916  -0.49218  -0.45969  -0.45211
 Alpha  occ. eigenvalues --   -0.44916  -0.44120  -0.39497  -0.38458  -0.37106
 Alpha  occ. eigenvalues --   -0.33985  -0.32815  -0.29724  -0.28599  -0.27476
 Alpha  occ. eigenvalues --   -0.27100  -0.26098  -0.25615  -0.25410  -0.23990
 Alpha  occ. eigenvalues --   -0.22368  -0.22174  -0.19861  -0.19468  -0.19126
 Alpha  occ. eigenvalues --   -0.18801  -0.18549  -0.17815  -0.17746  -0.16875
 Alpha  occ. eigenvalues --   -0.15867  -0.14048  -0.12062  -0.08608  -0.07927
 Alpha  occ. eigenvalues --   -0.07582  -0.07440  -0.06878  -0.06547  -0.05331
 Alpha  occ. eigenvalues --   -0.04457  -0.03648  -0.02783  -0.02413  -0.01707
 Alpha  occ. eigenvalues --    0.02639   0.04618   0.06266   0.06877
 Alpha virt. eigenvalues --    0.18702   0.19110   0.19373   0.19827   0.26875
 Alpha virt. eigenvalues --    0.27148   0.29756   0.30345   0.32291   0.32893
 Alpha virt. eigenvalues --    0.34368   0.34657   0.35101   0.36790   0.37097
 Alpha virt. eigenvalues --    0.37438   0.39185   0.40193   0.40825   0.41210
 Alpha virt. eigenvalues --    0.41638   0.42337   0.43794   0.44563   0.45372
 Alpha virt. eigenvalues --    0.47582   0.47688   0.48661   0.49209   0.49434
 Alpha virt. eigenvalues --    0.49661   0.50763   0.51298   0.51728   0.52289
 Alpha virt. eigenvalues --    0.53310   0.54143   0.55508   0.56732   0.57649
 Alpha virt. eigenvalues --    0.59452   0.62706   0.63468   0.64435   0.65106
 Alpha virt. eigenvalues --    0.66007   0.67104   0.68120   0.68525   0.69278
 Alpha virt. eigenvalues --    0.69487   0.69904   0.70698   0.72281   0.73420
 Alpha virt. eigenvalues --    0.73919   0.74412   0.74614   0.75050   0.75587
 Alpha virt. eigenvalues --    0.75780   0.77846   0.78234   0.79307   0.80672
 Alpha virt. eigenvalues --    0.80965   0.81684   0.82672   0.83358   0.84433
 Alpha virt. eigenvalues --    0.85705   0.86300   0.88197   0.90525   0.91359
 Alpha virt. eigenvalues --    0.91534   0.92065   0.92714   0.93270   0.93646
 Alpha virt. eigenvalues --    0.94582   0.94716   0.95054   0.95188   0.96113
 Alpha virt. eigenvalues --    0.96128   0.96317   0.97358   0.97906   0.98080
 Alpha virt. eigenvalues --    0.98673   0.99452   0.99763   1.00294   1.00781
 Alpha virt. eigenvalues --    1.01463   1.01989   1.02125   1.03087   1.03819
 Alpha virt. eigenvalues --    1.05005   1.05936   1.06276   1.06972   1.07223
 Alpha virt. eigenvalues --    1.08129   1.08622   1.12363   1.13045   1.13799
 Alpha virt. eigenvalues --    1.14757   1.14992   1.16299   1.17352   1.19055
 Alpha virt. eigenvalues --    1.19841   1.20665   1.21870   1.23827   1.25611
 Alpha virt. eigenvalues --    1.26564   1.28272   1.28789   1.30192   1.31756
 Alpha virt. eigenvalues --    1.32729   1.34257   1.35241   1.35817   1.36255
 Alpha virt. eigenvalues --    1.37077   1.38481   1.39035   1.40139   1.41058
 Alpha virt. eigenvalues --    1.41174   1.41396   1.44277   1.44815   1.45119
 Alpha virt. eigenvalues --    1.46055   1.46876   1.47627   1.49158   1.49462
 Alpha virt. eigenvalues --    1.50554   1.50842   1.53153   1.53924   1.56870
 Alpha virt. eigenvalues --    1.58059   1.58335   1.60222   1.60506   1.61435
 Alpha virt. eigenvalues --    1.61687   1.62862   1.64529   1.64832   1.67075
 Alpha virt. eigenvalues --    1.68774   1.72438   1.73439   1.75947   1.77476
 Alpha virt. eigenvalues --    1.78327   1.82596   1.84547   1.85558   1.86876
 Alpha virt. eigenvalues --    1.87581   1.91741   1.93190   1.93951   1.95795
 Alpha virt. eigenvalues --    1.97119   1.97367   1.97888   1.98986   2.00105
 Alpha virt. eigenvalues --    2.01222   2.02723   2.04115   2.06041   2.06736
 Alpha virt. eigenvalues --    2.08216   2.09165   2.09812   2.11222   2.11872
 Alpha virt. eigenvalues --    2.13170   2.14593   2.15348   2.16031   2.17786
 Alpha virt. eigenvalues --    2.18654   2.21277   2.21828   2.23350   2.24184
 Alpha virt. eigenvalues --    2.26041   2.27264   2.30046   2.31298   2.31918
 Alpha virt. eigenvalues --    2.32261   2.34236   2.36840   2.37954   2.38694
 Alpha virt. eigenvalues --    2.39064   2.39825   2.40519   2.43320   2.43809
 Alpha virt. eigenvalues --    2.44341   2.45724   2.49774   2.51769   2.52501
 Alpha virt. eigenvalues --    2.53646   2.54156   2.54640   2.58413   2.61040
 Alpha virt. eigenvalues --    2.61580   2.62680   2.63095   2.64361   2.65221
 Alpha virt. eigenvalues --    2.65714   2.68215   2.68569   2.70175   2.71306
 Alpha virt. eigenvalues --    2.71818   2.72385   2.79116   2.85506   2.87103
 Alpha virt. eigenvalues --    2.88364   2.89035   2.90705   2.91146   2.92228
 Alpha virt. eigenvalues --    2.93297   2.93541   2.93871   2.94002   2.94543
 Alpha virt. eigenvalues --    2.95755   2.96005   2.96625   2.97881   2.99094
 Alpha virt. eigenvalues --    2.99141   2.99611   3.02115   3.02951   3.04177
 Alpha virt. eigenvalues --    3.07289   3.11356   3.12532   3.13872   3.14079
 Alpha virt. eigenvalues --    3.15818   3.18759   3.21763   3.22607   3.25786
 Alpha virt. eigenvalues --    3.28273   3.30225   3.31548   3.32192   3.33623
 Alpha virt. eigenvalues --    3.35731   3.38229   3.39314   3.40905   3.44784
 Alpha virt. eigenvalues --    3.49044   3.56757   3.57061   3.59287   3.60383
 Alpha virt. eigenvalues --    3.64062   3.64087   3.65827   3.67032   3.69549
 Alpha virt. eigenvalues --    3.76179   3.77162   3.84885   3.90872   3.97707
 Alpha virt. eigenvalues --    4.27402   4.30514
     Molecular Orbital Coefficients:
                          85        86        87        88        89
                           O         O         O         O         O
     Eigenvalues --    -0.01707   0.02639   0.04618   0.06266   0.06877
   1 1   S  1S         -0.00149   0.00723  -0.00463   0.00171   0.00347
   2        2S         -0.00991   0.04819  -0.03096   0.01150   0.02320
   3        3S          0.01616  -0.08636   0.05434  -0.02815  -0.03513
   4        4S          0.02441  -0.05717   0.05154   0.01805  -0.06621
   5        5PX        -0.01073   0.04981  -0.02741   0.01686   0.01518
   6        5PY        -0.00175  -0.00523  -0.00178  -0.01585   0.00928
   7        5PZ        -0.00493   0.01655  -0.01009   0.01039   0.00557
   8        6PX        -0.02677   0.10397  -0.05925   0.03419   0.03316
   9        6PY        -0.00290  -0.00677  -0.00257  -0.02300   0.01262
  10        6PZ        -0.00751   0.02824  -0.01686   0.01671   0.00895
  11        7PX         0.02502   0.04415  -0.00498   0.03890  -0.00246
  12        7PY        -0.01366  -0.04194  -0.02305  -0.12056   0.09176
  13        7PZ        -0.04266   0.09177  -0.07440   0.05586   0.05943
  14        8D 0        0.01371  -0.01208   0.00375  -0.02892   0.00717
  15        8D+1        0.03426  -0.04310   0.02461  -0.02863  -0.00743
  16        8D-1        0.00094   0.00818  -0.00489   0.00892  -0.00060
  17        8D+2        0.03231  -0.01870   0.02163   0.02950  -0.02719
  18        8D-2        0.00663   0.04585   0.01327   0.09737  -0.05863
  19 2   S  1S         -0.00263   0.00555   0.00646  -0.00431  -0.00082
  20        2S         -0.01757   0.03709   0.04311  -0.02879  -0.00570
  21        3S          0.03714  -0.06727  -0.07580   0.05099   0.01847
  22        4S          0.00292  -0.04919  -0.07107   0.03136  -0.05303
  23        5PX         0.02321  -0.03835  -0.04262   0.02652   0.00341
  24        5PY         0.00032  -0.00432  -0.01625  -0.00372  -0.01911
  25        5PZ        -0.00308  -0.00446  -0.00666  -0.00314  -0.00800
  26        6PX         0.05145  -0.07957  -0.08812   0.05347   0.00628
  27        6PY        -0.00381  -0.00672  -0.02381  -0.00584  -0.02828
  28        6PZ         0.00192  -0.01087  -0.01614   0.00004  -0.01079
  29        7PX        -0.00165  -0.03785  -0.04901   0.04200   0.02162
  30        7PY         0.04877  -0.03226  -0.12759  -0.01590  -0.14934
  31        7PZ        -0.09679   0.02138   0.03521  -0.09205  -0.08734
  32        8D 0       -0.04646   0.01951   0.00115  -0.03134  -0.03877
  33        8D+1       -0.03081   0.00165  -0.00258  -0.02544  -0.02760
  34        8D-1       -0.06194   0.00619   0.00311  -0.01075  -0.01025
  35        8D+2        0.03946  -0.02841  -0.00179   0.02611   0.03623
  36        8D-2        0.04281  -0.01426  -0.07967  -0.02776  -0.09116
  37 3   O  1S         -0.00054  -0.00463   0.00236  -0.00514   0.00004
  38        2S         -0.00228  -0.00764   0.00275  -0.01054   0.00268
  39        3S          0.01182  -0.04251   0.03203  -0.03478  -0.02078
  40        4PX         0.20058   0.05531  -0.06723  -0.00576   0.03408
  41        4PY        -0.05856  -0.04876   0.07683   0.07232  -0.07433
  42        4PZ        -0.03352   0.00945   0.00114   0.03471  -0.01231
  43        5PX         0.15424   0.03847  -0.05389  -0.01088   0.03018
  44        5PY        -0.04294  -0.03369   0.06342   0.07317  -0.07056
  45        5PZ        -0.02822   0.01984  -0.00965   0.03459  -0.00015
  46        6D 0        0.00101  -0.00104   0.00045  -0.00106  -0.00019
  47        6D+1       -0.00808  -0.00444   0.00394  -0.00061  -0.00195
  48        6D-1        0.00248   0.00201  -0.00294  -0.00238   0.00263
  49        6D+2        0.00024   0.00045  -0.00004   0.00093  -0.00031
  50        6D-2       -0.00007   0.00067   0.00032   0.00175  -0.00114
  51 4   O  1S         -0.00069  -0.00030  -0.00475  -0.00690   0.00623
  52        2S         -0.00216   0.00079  -0.00978  -0.01344   0.01121
  53        3S         -0.01402  -0.00078  -0.03684  -0.05336   0.06546
  54        4PX         0.01502  -0.16336   0.16629   0.06752  -0.12853
  55        4PY         0.02816  -0.00574  -0.01977  -0.02223   0.03002
  56        4PZ        -0.13893  -0.10067   0.08237  -0.02954  -0.01921
  57        5PX         0.01082  -0.13786   0.14263   0.05563  -0.11422
  58        5PY         0.02051  -0.00248  -0.02385  -0.02202   0.03639
  59        5PZ        -0.10779  -0.09106   0.07036  -0.03943  -0.00916
  60        6D 0       -0.00340  -0.00289   0.00271  -0.00062  -0.00093
  61        6D+1        0.00244  -0.00092   0.00115   0.00056  -0.00088
  62        6D-1       -0.00362  -0.00298   0.00270   0.00025  -0.00105
  63        6D+2       -0.00130   0.00171  -0.00114  -0.00043   0.00053
  64        6D-2       -0.00139  -0.00342   0.00457   0.00315  -0.00375
  65 5   O  1S         -0.00126  -0.00201  -0.00714   0.00008  -0.00613
  66        2S         -0.00534  -0.00252  -0.01317  -0.00355  -0.01634
  67        3S          0.03425  -0.02084  -0.05764   0.03067  -0.00899
  68        4PX        -0.21976  -0.01610  -0.09099   0.01471  -0.03841
  69        4PY        -0.04718  -0.03566  -0.02541   0.03905   0.03128
  70        4PZ        -0.29355  -0.05656  -0.02716   0.06556   0.07536
  71        5PX        -0.16598  -0.01212  -0.07509   0.01527  -0.02969
  72        5PY        -0.02934  -0.03410  -0.02676   0.04609   0.03968
  73        5PZ        -0.22889  -0.03923  -0.00710   0.04934   0.06957
  74        6D 0        0.01124   0.00300   0.00230  -0.00322  -0.00288
  75        6D+1        0.00272   0.00080   0.00272  -0.00105   0.00058
  76        6D-1       -0.00551  -0.00051  -0.00108   0.00024  -0.00018
  77        6D+2       -0.00012   0.00035  -0.00052  -0.00043  -0.00075
  78        6D-2       -0.00797  -0.00215  -0.00482   0.00111  -0.00170
  79 6   N  1S          0.00836   0.07042  -0.05206   0.02625   0.02255
  80        2S          0.02273   0.13694  -0.10390   0.06312   0.04122
  81        3S          0.00784   0.24422  -0.17620   0.04078   0.06703
  82        4PX        -0.04742   0.26451  -0.15676   0.09628   0.06419
  83        4PY         0.01411   0.04116   0.17297   0.37403  -0.28800
  84        4PZ        -0.05215  -0.23091   0.14766  -0.11401  -0.06478
  85        5PX         0.03323  -0.19871   0.10463  -0.06532  -0.03453
  86        5PY        -0.01314  -0.03647  -0.14401  -0.32425   0.23639
  87        5PZ         0.03636   0.17968  -0.09468   0.10398   0.05137
  88        6D 0       -0.00451  -0.00132  -0.00014   0.00045  -0.00027
  89        6D+1        0.00250   0.01149  -0.01090   0.00719   0.00265
  90        6D-1       -0.00024  -0.00107   0.00407   0.00425  -0.00372
  91        6D+2        0.00195  -0.01052   0.00573  -0.00766  -0.00199
  92        6D-2       -0.00130  -0.00075  -0.00661  -0.01608   0.01351
  93 7   N  1S          0.00125   0.04913   0.07258  -0.03979  -0.00515
  94        2S          0.00787   0.09259   0.14802  -0.08117  -0.00611
  95        3S          0.00866   0.18283   0.22975  -0.09481  -0.03926
  96        4PX         0.10802  -0.12552  -0.15303   0.05922  -0.01386
  97        4PY         0.01384   0.02609   0.30340   0.12423   0.36294
  98        4PZ         0.00456  -0.21086  -0.17871   0.26690   0.19904
  99        5PX        -0.07378   0.09144   0.11248  -0.02863   0.01800
 100        5PY        -0.00880  -0.02554  -0.24467  -0.11104  -0.30689
 101        5PZ        -0.00439   0.16029   0.11661  -0.21632  -0.14979
 102        6D 0       -0.00390  -0.00411  -0.00251   0.00864   0.00922
 103        6D+1        0.00477  -0.00627  -0.01018   0.01005   0.00700
 104        6D-1        0.00172   0.00340   0.01216   0.00000   0.00871
 105        6D+2        0.00409  -0.00352  -0.00260   0.00266  -0.00054
 106        6D-2       -0.00137   0.00143   0.01187   0.00390   0.01451
 107 8   C  1S         -0.00290   0.03405   0.00789  -0.00013   0.01679
 108        2S          0.00311  -0.08228  -0.01182   0.00960  -0.04542
 109        3S          0.07902  -0.17510  -0.11160  -0.02626  -0.09388
 110        4PX        -0.12035   0.10037   0.07256   0.00753   0.04957
 111        4PY         0.00582   0.00522   0.00407   0.07789  -0.06859
 112        4PZ        -0.03760  -0.11169   0.07031  -0.02504  -0.02958
 113        5PX        -0.07018   0.02385   0.07753  -0.02813   0.04091
 114        5PY         0.01921  -0.04307  -0.03600   0.00077   0.03787
 115        5PZ        -0.01835  -0.02264   0.08850   0.02921   0.02807
 116        6D 0       -0.00372   0.00751  -0.00100   0.00374  -0.00397
 117        6D+1        0.00308  -0.01604   0.00723  -0.00898  -0.00705
 118        6D-1       -0.00018  -0.00656  -0.00943  -0.02173   0.01448
 119        6D+2        0.00071  -0.00665   0.00387   0.00216  -0.00930
 120        6D-2       -0.00522   0.00499  -0.00114  -0.00127   0.00241
 121 9   H  1S         -0.04439   0.11197   0.00268   0.10759  -0.02541
 122        2S         -0.04086   0.16790   0.03486   0.13160  -0.00869
 123        3PX        -0.00416   0.00163   0.00124  -0.00196   0.00174
 124        3PY         0.00159  -0.00298   0.00198   0.00177  -0.00300
 125        3PZ        -0.00216  -0.00387   0.00040  -0.00339  -0.00113
 126 10  H  1S          0.00086  -0.00073  -0.04509  -0.09409   0.10139
 127        2S          0.00027   0.05244  -0.03242  -0.05730   0.17062
 128        3PX        -0.00274   0.00572  -0.00005   0.00169   0.00004
 129        3PY        -0.00030   0.00260  -0.00163   0.00054   0.00018
 130        3PZ        -0.00069  -0.00303   0.00147   0.00106  -0.00215
 131 11  C  1S          0.00502   0.03537   0.00669  -0.01172   0.00988
 132        2S         -0.00798  -0.08882  -0.01996   0.02977  -0.02523
 133        3S         -0.05064  -0.08451   0.01447   0.03470  -0.08316
 134        4PX         0.13153  -0.07224   0.06180  -0.00984  -0.05437
 135        4PY         0.01204   0.04963   0.07315   0.00943   0.08456
 136        4PZ         0.00934  -0.09437  -0.05390   0.06812   0.03023
 137        5PX         0.03057   0.00433   0.09646  -0.01025  -0.04233
 138        5PY         0.02140   0.06289  -0.01761   0.02144  -0.06257
 139        5PZ         0.00779  -0.00627  -0.04652  -0.02619   0.01135
 140        6D 0       -0.00818   0.01288   0.00222  -0.01437  -0.01374
 141        6D+1       -0.00092   0.00190   0.00678  -0.00501   0.00264
 142        6D-1        0.00091   0.00114  -0.00792  -0.00687  -0.00868
 143        6D+2        0.00247  -0.00517  -0.01545   0.00215  -0.01418
 144        6D-2       -0.00270   0.00091   0.00487   0.00830   0.01029
 145 12  H  1S         -0.06055   0.07916   0.00667  -0.08239  -0.07115
 146        2S          0.00133   0.13788   0.04195  -0.12358  -0.06319
 147        3PX         0.00147  -0.00317  -0.00201  -0.00173  -0.00317
 148        3PY        -0.00162   0.00233   0.00432  -0.00141   0.00436
 149        3PZ        -0.00177  -0.00093  -0.00016   0.00260   0.00060
 150 13  H  1S          0.00846  -0.00506   0.09312   0.03533   0.13018
 151        2S          0.00536  -0.01314   0.09121   0.00973   0.22360
 152        3PX         0.00525  -0.00314   0.00083   0.00049   0.00055
 153        3PY         0.00027   0.00109  -0.00079  -0.00029  -0.00023
 154        3PZ         0.00040  -0.00401  -0.00441   0.00081  -0.00153
 155 14  C  1S          0.00980  -0.02344   0.00596  -0.02526   0.00839
 156        2S         -0.02649   0.06158  -0.01271   0.07373  -0.02707
 157        3S         -0.01257   0.02499  -0.00019   0.02689  -0.03817
 158        4PX        -0.00021  -0.04198   0.00316  -0.03969   0.01839
 159        4PY         0.04683  -0.08924   0.02744  -0.08148   0.01763
 160        4PZ        -0.03183   0.04498  -0.01039   0.05135  -0.01415
 161        5PX        -0.00114  -0.02735   0.01361   0.01055  -0.00944
 162        5PY         0.06964  -0.12664   0.05965  -0.09832  -0.01582
 163        5PZ         0.01292   0.04786   0.00329   0.09658  -0.05727
 164        6D 0        0.00046   0.00178   0.00014   0.00410  -0.00206
 165        6D+1        0.00084   0.00113   0.00090   0.00302  -0.00157
 166        6D-1        0.00088  -0.00433   0.00134  -0.00467   0.00109
 167        6D+2       -0.00127  -0.00405  -0.00047  -0.00833   0.00474
 168        6D-2       -0.00106  -0.00245   0.00018  -0.00551   0.00218
 169 15  C  1S         -0.00464   0.00616  -0.00394   0.00132   0.00320
 170        2S          0.00824  -0.01587   0.01319   0.00257  -0.01516
 171        3S          0.00411   0.05897  -0.06127  -0.00506   0.07700
 172        4PX        -0.02047  -0.02736  -0.00372  -0.06307   0.03398
 173        4PY        -0.01329   0.03279  -0.01243   0.02512  -0.00238
 174        4PZ        -0.00709  -0.01336  -0.00405  -0.03394   0.01918
 175        5PX        -0.00977  -0.01677  -0.00398  -0.05011   0.02710
 176        5PY         0.04072   0.00035   0.00715   0.01712  -0.02642
 177        5PZ         0.01094  -0.05333   0.03150  -0.03655  -0.01961
 178        6D 0        0.00223  -0.00267   0.00148  -0.00130  -0.00076
 179        6D+1       -0.00026   0.00164  -0.00007   0.00203  -0.00082
 180        6D-1        0.00151  -0.00267   0.00060  -0.00326   0.00100
 181        6D+2        0.00133  -0.00277   0.00045  -0.00380   0.00131
 182        6D-2       -0.00033   0.00176  -0.00105   0.00005   0.00079
 183 16  H  1S          0.00945  -0.01371   0.00513  -0.00965  -0.00050
 184        2S         -0.01683  -0.00118  -0.00686  -0.01844   0.01896
 185        3PX        -0.00068  -0.00079  -0.00031  -0.00238   0.00157
 186        3PY        -0.00058   0.00160  -0.00082   0.00073   0.00029
 187        3PZ        -0.00044  -0.00080   0.00030  -0.00085   0.00026
 188 17  C  1S          0.00371  -0.00545   0.00215  -0.00440   0.00045
 189        2S         -0.00847   0.01361  -0.00682   0.00930   0.00049
 190        3S         -0.02337  -0.01881   0.02934   0.01483  -0.03369
 191        4PX         0.01304  -0.01727  -0.00158  -0.02904   0.01446
 192        4PY         0.01143  -0.01723   0.00912  -0.00571  -0.00417
 193        4PZ        -0.00173   0.00374  -0.00495  -0.00602   0.00669
 194        5PX         0.02350  -0.02011  -0.00823  -0.04787   0.02692
 195        5PY         0.01381   0.00951  -0.01468  -0.00418   0.01706
 196        5PZ        -0.02793   0.02059  -0.02086  -0.00898   0.02569
 197        6D 0       -0.00124  -0.00120  -0.00048  -0.00383   0.00226
 198        6D+1       -0.00023  -0.00146   0.00003  -0.00272   0.00133
 199        6D-1        0.00103   0.00028   0.00039   0.00196  -0.00129
 200        6D+2        0.00034   0.00305  -0.00056   0.00460  -0.00172
 201        6D-2        0.00040   0.00049   0.00025   0.00146  -0.00100
 202 18  H  1S          0.00621  -0.01072   0.00501  -0.00598  -0.00119
 203        2S          0.01397  -0.02164   0.01479  -0.00741  -0.01104
 204        3PX         0.00029  -0.00059   0.00014  -0.00072   0.00024
 205        3PY         0.00010  -0.00075   0.00049  -0.00021  -0.00037
 206        3PZ         0.00037  -0.00004  -0.00018  -0.00054   0.00032
 207 19  C  1S          0.00096  -0.00107   0.00047  -0.00080   0.00019
 208        2S         -0.00239   0.00246  -0.00114   0.00212  -0.00059
 209        3S         -0.01511   0.03972  -0.02498   0.02948   0.00883
 210        4PX         0.01627   0.03523   0.00143   0.07257  -0.03557
 211        4PY        -0.00379  -0.00899  -0.00106  -0.02178   0.01133
 212        4PZ         0.01327   0.02205  -0.00000   0.04545  -0.02188
 213        5PX         0.02310   0.02758   0.00988   0.08220  -0.04823
 214        5PY        -0.01102  -0.01531   0.00646  -0.02582   0.00913
 215        5PZ        -0.00507   0.02738  -0.00398   0.04896  -0.01855
 216        6D 0        0.00021  -0.00110  -0.00033  -0.00191   0.00107
 217        6D+1        0.00015  -0.00036  -0.00008  -0.00055   0.00026
 218        6D-1        0.00053  -0.00096   0.00026  -0.00026  -0.00019
 219        6D+2       -0.00014   0.00030  -0.00005   0.00068  -0.00029
 220        6D-2       -0.00031   0.00024  -0.00048   0.00002   0.00023
 221 20  H  1S         -0.00270   0.00601  -0.00172   0.00429  -0.00064
 222        2S         -0.00142   0.00397  -0.00341  -0.00114   0.00227
 223        3PX         0.00057   0.00173  -0.00008   0.00349  -0.00160
 224        3PY        -0.00010  -0.00041  -0.00012  -0.00114   0.00065
 225        3PZ         0.00086   0.00113   0.00003   0.00242  -0.00125
 226 21  C  1S          0.00071  -0.00486   0.00082  -0.00576   0.00229
 227        2S         -0.00148   0.00868  -0.00076   0.01293  -0.00707
 228        3S          0.01769   0.02410   0.00303   0.03955  -0.02225
 229        4PX         0.00574  -0.00190   0.00669  -0.00420  -0.00033
 230        4PY         0.00422  -0.02100   0.00265  -0.01885   0.00612
 231        4PZ        -0.00196   0.01709   0.00246   0.01621  -0.00751
 232        5PX        -0.00310  -0.00058   0.00357  -0.00579   0.00046
 233        5PY        -0.01877  -0.02996   0.00547  -0.03966   0.01703
 234        5PZ         0.00187   0.01113   0.00129   0.00188  -0.00043
 235        6D 0        0.00053  -0.00080   0.00010  -0.00087   0.00034
 236        6D+1       -0.00052   0.00172  -0.00008   0.00248  -0.00101
 237        6D-1        0.00059   0.00209   0.00011   0.00453  -0.00231
 238        6D+2        0.00120   0.00029   0.00026   0.00181  -0.00112
 239        6D-2        0.00119   0.00241   0.00004   0.00538  -0.00266
 240 22  H  1S          0.00497  -0.00854   0.00105  -0.00935   0.00367
 241        2S          0.00236  -0.01289   0.00120  -0.02110   0.01005
 242        3PX         0.00035  -0.00007   0.00042  -0.00003  -0.00017
 243        3PY         0.00061  -0.00039  -0.00004  -0.00017   0.00004
 244        3PZ        -0.00006   0.00098   0.00019   0.00122  -0.00049
 245 23  C  1S          0.00017   0.00719   0.00062   0.00921  -0.00372
 246        2S          0.00280  -0.01485  -0.00268  -0.02384   0.00934
 247        3S         -0.02782  -0.01617   0.00718   0.00093  -0.00439
 248        4PX        -0.02392  -0.01615  -0.00238  -0.05530   0.03051
 249        4PY         0.00849   0.01748  -0.00044   0.02452  -0.01056
 250        4PZ        -0.00088  -0.03765  -0.00112  -0.06722   0.03335
 251        5PX        -0.03855  -0.03884  -0.00225  -0.10374   0.05667
 252        5PY        -0.00649   0.01811  -0.00474   0.01856  -0.00186
 253        5PZ         0.02093  -0.02096   0.00363  -0.02831   0.00991
 254        6D 0       -0.00077  -0.00052  -0.00060  -0.00057   0.00061
 255        6D+1       -0.00073  -0.00047   0.00002  -0.00106   0.00082
 256        6D-1        0.00137  -0.00367   0.00087  -0.00443   0.00152
 257        6D+2       -0.00007   0.00153   0.00006   0.00095  -0.00015
 258        6D-2       -0.00106   0.00219  -0.00016   0.00185  -0.00062
 259 24  H  1S          0.00332  -0.02086   0.00338  -0.02185   0.00605
 260        2S          0.03595  -0.00972   0.00563   0.00009  -0.00622
 261        3PX        -0.00096  -0.00169   0.00030  -0.00182   0.00047
 262        3PY        -0.00092  -0.00056   0.00006  -0.00042  -0.00003
 263        3PZ         0.00057  -0.00157   0.00030  -0.00170   0.00045
 264 25  C  1S          0.02010  -0.01147  -0.02626  -0.00378  -0.02224
 265        2S         -0.05376   0.02736   0.06233   0.01155   0.05401
 266        3S         -0.08282   0.01127   0.16285   0.06561   0.15177
 267        4PX        -0.04069   0.02309   0.06659   0.01527   0.06198
 268        4PY         0.07449  -0.04542  -0.08717  -0.00550  -0.06338
 269        4PZ         0.07747  -0.01457  -0.01944   0.00435  -0.00439
 270        5PX         0.02355  -0.01330  -0.01993   0.00124   0.01973
 271        5PY         0.08705  -0.08693  -0.13832   0.00107  -0.15240
 272        5PZ         0.03169  -0.02756  -0.05108   0.01481  -0.02783
 273        6D 0        0.00170   0.00031   0.00142   0.00041   0.00180
 274        6D+1       -0.00245   0.00030   0.00059  -0.00113  -0.00118
 275        6D-1        0.00423  -0.00001   0.00136   0.00085   0.00209
 276        6D+2        0.00210  -0.00182  -0.00646  -0.00101  -0.00605
 277        6D-2        0.00271  -0.00055   0.00314   0.00221   0.00498
 278 26  C  1S          0.00472  -0.00340  -0.00071   0.00321   0.00342
 279        2S         -0.01189   0.00914   0.00123  -0.00855  -0.01067
 280        3S         -0.01213   0.00280  -0.05733  -0.07074  -0.17980
 281        4PX        -0.00665   0.00720   0.00469  -0.00511  -0.00281
 282        4PY         0.02413  -0.01198  -0.00696   0.00542   0.00052
 283        4PZ        -0.01005  -0.00135   0.00279   0.00998   0.01653
 284        5PX        -0.03079   0.03742   0.01533  -0.03041  -0.00792
 285        5PY         0.02863  -0.00660   0.00956   0.03092   0.06828
 286        5PZ        -0.00338  -0.00297   0.00009   0.02497   0.03676
 287        6D 0       -0.00116   0.00035   0.00036  -0.00014   0.00035
 288        6D+1        0.00462  -0.00050  -0.00055   0.00094   0.00083
 289        6D-1       -0.00236   0.00008  -0.00005  -0.00083  -0.00113
 290        6D+2       -0.00198   0.00061   0.00074  -0.00010   0.00052
 291        6D-2        0.00016  -0.00018  -0.00048  -0.00021  -0.00031
 292 27  C  1S         -0.00567   0.00483  -0.00354  -0.00714  -0.00922
 293        2S          0.01105  -0.01018   0.00937   0.01783   0.02860
 294        3S          0.00229  -0.00829   0.10898   0.09673   0.18138
 295        4PX        -0.00956  -0.00656   0.00284   0.01000   0.00668
 296        4PY        -0.03848   0.01357  -0.00226  -0.01528  -0.02114
 297        4PZ         0.06010  -0.00459  -0.00509   0.01177   0.00910
 298        5PX         0.00711  -0.06565  -0.02249   0.03224  -0.07206
 299        5PY         0.01528  -0.04402   0.00824   0.07066   0.10111
 300        5PZ         0.05906  -0.01266   0.00836   0.01079   0.01629
 301        6D 0       -0.00097   0.00023   0.00091   0.00053   0.00164
 302        6D+1       -0.00144  -0.00024  -0.00004  -0.00047  -0.00136
 303        6D-1       -0.00273   0.00029   0.00015   0.00099   0.00139
 304        6D+2        0.00363  -0.00316  -0.00385   0.00082  -0.00223
 305        6D-2        0.00212  -0.00081   0.00045   0.00091   0.00143
 306 28  H  1S          0.01218  -0.01121  -0.00565   0.01045   0.00911
 307        2S         -0.00647   0.07695  -0.04081  -0.08898  -0.03866
 308        3PX        -0.00029  -0.00044  -0.00106  -0.00053  -0.00134
 309        3PY        -0.00188   0.00069   0.00210   0.00049   0.00185
 310        3PZ         0.00199  -0.00008  -0.00025   0.00019  -0.00049
 311 29  O  1S          0.00090  -0.00022  -0.00078  -0.00492  -0.00848
 312        2S         -0.00066   0.00157  -0.00170  -0.01081  -0.01845
 313        3S         -0.01173   0.00120   0.00851  -0.04427  -0.05158
 314        4PX         0.04132   0.16614   0.15002  -0.14226  -0.09832
 315        4PY         0.30483   0.01942   0.07239  -0.01720   0.02313
 316        4PZ        -0.17724   0.01073  -0.02778  -0.04353  -0.06204
 317        5PX         0.02830   0.13779   0.13027  -0.12130  -0.08406
 318        5PY         0.23620   0.01785   0.07110  -0.01650   0.02764
[...]
 0.00000025,-0.00029073,0.00012431,-0.00026030,0.00002516,0.00002810,0.
 00003159,-0.00002393,0.00000934,0.00000227,0.00000192,-0.00001085,0.00
 000428,0.00000445,-0.00030922,-0.00010201,0.00001028,0.00001888,0.0000
 0291,0.00005729,0.00001349,0.00012216,-0.00002285,-0.00003029,-0.00001
 615,-0.00000085,0.00000921,0.00001286,0.00000233,-0.00000026,-0.000001
 48,-0.00000189,-0.00001253,-0.00000190,0.00000077,-0.00000073,0.000001
 99,-0.00000168,0.00001397,0.00000657,0.00000064,0.00000204,0.00000029,
 0.00000222,-0.00000593,-0.00000734,0.00000044,0.00000133,-0.00000015,0
 .00000545,0.00002013,0.00000052,-0.00000066,-0.00000215,0.00000045,0.0
 0315627,0.00356456,-0.00298452,0.00343408,0.00425931,0.00045290,0.0000
 8392,-0.00065806,0.00016966,-0.00050650,-0.00080484,0.00014989,0.00018
 337,0.00001667,-0.00015663,-0.00462838,0.01405794,0.00101886,-0.721309
 09,0.57207622,-0.00602691,0.72196539,-0.00003375,0.00001843,-0.0000047
 1,0.00001494,-0.00028712,-0.00051116,0.00001261,-0.00000476,-0.0000006
 1,0.00001452,-0.00000998,0.00001152,-0.00009907,0.00012443,-0.00001554
 ,0.00001883,-0.00001708,-0.00001488,-0.00007802,-0.00005697,0.00003047
 ,-0.00005832,-0.00001514,0.00002615,0.00001117,-0.00000960,-0.00000197
 ,0.00000760,0.00000555,0.00000629,0.00004624,-0.00010655,-0.00005138,-
 0.00000023,-0.00001730,0.00002131,0.00005185,-0.00005590,0.00009064,0.
 00000783,0.00001780,0.00000956,0.00000017,-0.00000456,-0.00000758,-0.0
 0000022,0.00000074,0.00000025,-0.00000053,0.00000780,-0.00000120,0.000
 00072,0.00000093,-0.00000067,-0.00000156,-0.00000949,-0.00000452,0.000
 00116,-0.00000164,-0.00000030,-0.00000326,0.00000214,0.00000499,0.0000
 0118,-0.00000123,0.00000031,-0.00000478,-0.00001282,0.00000021,0.00000
 119,0.00000217,0.00000033,0.00414038,0.00599512,0.00021940,0.00385898,
 0.00609034,-0.00492303,-0.00094060,0.00023533,0.00067966,-0.00069197,-
 0.00117190,0.00032184,-0.00010291,-0.00011302,0.00022624,0.00857876,0.
 00944535,-0.00468683,0.56812146,-0.29782754,0.00072980,-0.58377585,0.2
 8885205,0.00002197,0.00000505,-0.00001315,-0.00101118,0.00092956,0.001
 37506,-0.00000829,-0.00000566,0.00000940,-0.00000687,-0.00000004,0.000
 00254,0.00015113,-0.00043654,-0.00011078,-0.00000409,0.00000808,0.0000
 2298,-0.00034591,0.00021191,-0.00046648,0.00003088,0.00005448,0.000008
 49,-0.00002418,0.00001618,-0.00000071,0.00000572,-0.00001175,0.0000020
 6,-0.00006678,-0.00015460,-0.00007419,-0.00000089,0.00002916,-0.000006
 72,0.00001055,0.00006155,0.00003095,-0.00000637,-0.00001527,-0.0000070
 5,0.00000129,0.00000439,0.00000564,-0.00000367,-0.00000045,-0.00000176
 ,0.00000453,-0.00000580,0.00000230,-0.00000352,0.00000153,0.00000133,0
 .00000280,0.00000823,0.00000517,-0.00000142,-0.00000002,-0.00000021,0.
 00000170,-0.00000558,-0.00000385,-0.00000078,0.00000034,0.00000002,0.0
 0000256,0.00001021,0.00000082,-0.00000079,-0.00000083,0.00000025,-0.00
 389853,0.00043130,-0.00665682,0.00163846,-0.00365709,-0.00408617,0.000
 23919,-0.00013376,-0.00166043,0.00008041,0.00023256,-0.00008420,0.0004
 5120,0.00000940,-0.00015867,-0.04035655,0.02562368,-0.00809056,0.00785
 057,-0.01161360,0.07663598,0.01234765,0.00060074,-0.07252243,0.0003357
 9,-0.00006799,0.00001687,-0.00269143,0.00154926,0.00213045,-0.00012787
 ,-0.00001313,0.00002783,-0.00013041,0.00006355,-0.00009693,0.00033515,
 -0.00115054,-0.00016502,-0.00029920,0.00011666,0.00008199,0.00022074,0
 .00012352,-0.00052599,0.00023713,-0.00001181,-0.00008609,-0.00005089,0
 .00003345,0.00000727,-0.00006095,0.00000271,-0.00001476,0.00018688,-0.
 00025829,-0.00030160,-0.00000177,0.00020950,-0.00009160,-0.00005083,-0
 .00010886,-0.00003964,-0.00007215,-0.00012991,-0.00006527,0.00000523,0
 .00003430,0.00005510,-0.00000211,-0.00000530,-0.00000896,0.00000958,-0
 .00005619,0.00000621,-0.00001024,-0.00000073,0.00000899,0.00000863,0.0
 0006844,0.00003022,-0.00000623,0.00000948,-0.00000001,0.00001791,-0.00
 002152,-0.00002818,-0.00000410,0.00000619,-0.00000105,0.00003063,0.000
 08409,0.00000040,-0.00000781,-0.00001077,-0.00000055,-0.04054224,0.026
 46567,0.01805398,-0.26292916,0.14658456,-0.00925283,-0.00876593,0.0010
 1591,-0.06812659,0.00361498,0.00409605,-0.00334275,0.00165321,-0.00053
 816,0.00008299,0.04369248,-0.02025641,0.02921131,-0.15757215,0.0762469
 1,0.04402104,0.00130490,0.00937075,0.02092430,0.47672659,-0.00021346,-
 0.00001580,0.00000467,0.00267864,-0.00230407,-0.00133336,0.00008187,0.
 00003844,-0.00003051,0.00007341,-0.00001886,0.00004835,-0.00044609,0.0
 0081728,-0.00042932,0.00019382,-0.00004572,-0.00004870,-0.00048895,0.0
 0041792,0.00072570,-0.00010958,0.00002303,0.00000882,0.00002252,-0.000
 00916,-0.00000305,0.00002347,0.00000054,0.00000445,-0.00026650,0.00021
 151,0.00021352,0.00000980,-0.00017206,0.00003149,0.00005368,0.00007666
 ,-0.00001342,0.00004430,0.00006075,0.00002929,-0.00000447,-0.00002023,
 -0.00002311,0.00000225,0.00000020,0.00000624,-0.00000309,0.00002380,-0
 .00000058,0.00000295,-0.00000265,-0.00000491,0.00000045,-0.00002760,-0
 .00001237,0.00000011,-0.00000174,0.00000002,-0.00000422,0.00001463,0.0
 0001025,-0.00000059,-0.00000183,-0.00000024,-0.00001268,-0.00003511,-0
 .00000164,0.00000273,0.00000341,-0.00000093,0.02978173,-0.03288357,-0.
 01337700,0.14243508,-0.18318423,-0.00126354,0.00869595,0.01275851,0.05
 235988,0.00286143,0.00684157,-0.00058675,-0.00161175,0.00055488,-0.000
 24369,-0.03032283,0.02494599,-0.03551322,0.08952255,-0.15653995,-0.071
 71095,-0.00135561,-0.00202000,-0.01382687,-0.29730798,0.30862937,0.000
 33230,-0.00003516,-0.00008063,0.00345981,-0.00178752,-0.00035077,-0.00
 013864,-0.00003660,0.00007786,-0.00012627,0.00004695,-0.00002849,-0.00
 088877,0.00037319,-0.00095968,-0.00028466,0.00014539,0.00010162,-0.001
 40799,0.00090551,0.00006064,0.00013845,0.00003558,0.00004275,-0.000075
 10,0.00003619,0.00000468,-0.00000361,-0.00003995,0.00002384,0.00013914
 ,-0.00086407,-0.00027075,0.00008675,0.00002844,-0.00000790,0.00005540,
 0.00016449,0.00029700,-0.00007953,-0.00015490,-0.00006953,0.00000864,0
 .00004573,0.00006387,-0.00001295,-0.00000584,-0.00001670,0.00002069,-0
 .00006376,0.00000893,-0.00001953,0.00000652,0.00001401,0.00001097,0.00
 008061,0.00003951,-0.00000681,0.00000735,-0.00000138,0.00001501,-0.000
 03861,-0.00003066,-0.00000266,0.00000467,-0.00000088,0.00003359,0.0000
 9658,0.00000390,-0.00000731,-0.00000993,0.00000011,0.01826804,-0.01359
 285,-0.00500878,-0.07193310,0.05019309,-0.14120091,-0.03217750,0.02317
 092,0.01022853,-0.00204937,-0.00057155,-0.00649682,-0.00083845,0.00069
 661,-0.00129863,-0.00665328,-0.00645161,-0.05538739,0.09706430,-0.1158
 5476,-0.26154344,-0.00755765,0.00563311,0.01121547,0.20623590,0.005258
 57,1.17003680,0.00005797,-0.00000036,-0.00001085,-0.00071147,-0.000520
 89,0.00033334,-0.00002520,-0.00001310,0.00001246,-0.00001921,0.0000042
 4,-0.00000394,0.00006980,-0.00021479,-0.00023927,-0.00004203,0.0000029
 5,0.00000395,0.00012952,0.00003408,-0.00006552,0.00003748,0.00000180,-
 0.00002545,-0.00000371,-0.00000180,0.00000213,-0.00001445,0.00000367,-
 0.00000243,-0.00003724,0.00002350,0.00002457,-0.00000746,0.00000319,-0
 .00001126,0.00000571,-0.00005180,-0.00001983,-0.00000893,-0.00001422,-
 0.00000466,0.00000016,0.00000524,0.00000544,0.00000055,-0.00000043,-0.
 00000308,0.00000092,-0.00000624,-0.00000174,-0.00000171,0.00000128,0.0
 0000217,-0.00000035,0.00000722,0.00000346,0.00000022,0.00000078,-0.000
 00054,0.00000002,-0.00000447,-0.00000168,0.00000059,0.00000012,0.00000
 017,0.00000228,0.00000728,0.00000126,-0.00000003,-0.00000061,0.0000004
 3,-0.00177884,0.00038044,0.00093240,-0.00194157,0.00198184,-0.02774988
 ,-0.00132271,0.00777472,-0.00159923,-0.00014437,0.00004076,-0.00147523
 ,0.00005764,-0.00001892,0.00020690,0.00253015,0.00602090,0.00274749,0.
 01090977,-0.00201122,0.01699369,-0.00199780,-0.00393212,-0.00119805,-0
 .04875777,0.03817144,-0.22256694,0.04270624,-0.00001481,0.00002470,-0.
 00000931,-0.00033827,-0.00095128,0.00013673,0.00000278,-0.00001284,0.0
 0000442,0.00000827,-0.00001079,0.00000979,-0.00000115,0.00000355,-0.00
 021501,0.00001745,-0.00002696,0.00000865,-0.00002231,0.00012682,0.0002
 0285,0.00000126,0.00001890,0.00000281,0.00000059,-0.00000251,-0.000003
 63,0.00000233,0.00000056,0.00000126,-0.00004594,0.00008057,-0.00003466
 ,-0.00000730,-0.00001009,0.00000187,0.00000360,0.00001255,-0.00002172,
 0.00000521,0.00001655,0.00000872,-0.00000046,-0.00000218,-0.00000890,-
 0.00000026,0.00000180,0.00000133,-0.00000289,0.00000803,-0.00000054,0.
 00000303,0.00000095,-0.00000132,-0.00000327,-0.00001039,-0.00000502,0.
 00000219,-0.00000250,0.00000046,-0.00000404,0.00000093,0.00000445,0.00
 000160,-0.00000100,0.00000037,-0.00000501,-0.00001144,-0.00000045,0.00
 000158,0.00000145,0.00000062,-0.00042627,-0.00086216,-0.00003595,0.008
 80005,0.00255052,0.02396537,0.00730163,0.00284024,-0.00172841,0.000150
 88,0.00011582,0.00113728,-0.00019618,0.00001928,0.00028859,0.00672792,
 0.00307717,-0.00293312,-0.00628270,0.00635785,-0.02072996,-0.00264586,
 -0.00365450,0.00209830,0.03445558,0.01973317,0.07139628,-0.04353007,-0
 .02655980,0.00011183,-0.00002641,0.00001733,0.00034454,-0.00001824,0.0
 0047220,-0.00004629,-0.00000468,0.00000580,-0.00004376,0.00002029,-0.0
 0003208,-0.00012712,-0.00002411,-0.00012789,-0.00007955,0.00003885,0.0
 0000284,-0.00014867,0.00012277,-0.00017587,0.00005153,0.00000393,-0.00
 001051,-0.00001599,0.00000720,0.00000559,-0.00001070,-0.00000645,-0.00
 000171,-0.00000591,-0.00010810,0.00002884,0.00000813,0.00001118,-0.000
 00800,0.00000948,0.00000616,0.00000924,-0.00002291,-0.00003880,-0.0000
 1976,-0.00000095,0.00001059,0.00001736,0.00000293,-0.00000143,-0.00000
 228,-0.00000087,-0.00001695,-0.00000145,-0.00000066,-0.00000147,0.0000
 0272,0.00000007,0.00001963,0.00000911,-0.00000061,0.00000373,0.0000001
 0,0.00000441,-0.00000591,-0.00000952,-0.00000052,0.00000195,-0.0000004
 7,0.00000852,0.00002611,0.00000059,-0.00000143,-0.00000336,-0.00000010
 ,0.00080872,-0.00023798,0.00061825,0.00348363,-0.00413557,-0.00016422,
 -0.00140722,0.00021639,0.00215818,0.00012576,-0.00009417,-0.00027431,0
 .00000164,0.00010938,-0.00020991,0.00275322,-0.00376592,-0.00152362,-0
 .01126902,0.00674638,-0.01414671,0.00077570,0.00038267,0.00130679,-0.2
 2740853,0.07177319,-0.72239246,0.23276391,-0.07230914,0.73410123,-0.00
 002294,0.00004114,-0.00004167,0.00066067,-0.00056367,0.00017012,0.0000
 0505,-0.00002115,0.00002193,0.00001412,-0.00001841,0.00003015,-0.00011
 327,-0.00016784,-0.00017930,0.00001769,-0.00003235,0.00003128,-0.00006
 813,0.00005870,0.00010068,0.00000516,0.00001562,0.00001156,-0.00000013
 ,-0.00000388,-0.00000333,0.00000410,-0.00000409,0.00000486,-0.00002659
 ,0.00001160,-0.00004480,-0.00000235,-0.00000930,0.00002458,0.00000292,
 0.00002437,0.00002810,0.00000369,0.00001319,0.00000879,0.00000373,0.00
 000266,-0.00000923,-0.00000694,0.00000209,-0.00000220,0.00000157,0.000
 00736,0.00000113,-0.00000005,0.00000508,-0.00000003,-0.00000289,-0.000
 00977,-0.00000399,0.00000233,-0.00000485,0.00000038,-0.00000605,-0.000
 00526,0.00000627,0.00000214,-0.00000165,0.00000084,-0.00000501,-0.0000
 1137,0.00000132,0.00000155,0.00000178,0.00000120,0.00190953,0.00312274
 ,-0.00452459,-0.14806463,0.11270207,0.25333034,0.01094511,-0.00558961,
 -0.01337402,-0.00088738,-0.00319283,0.00217378,-0.00003185,0.00019957,
 -0.00023431,-0.00098410,-0.00018457,-0.00094238,-0.00179277,0.00661680
 ,-0.00135407,0.00019918,0.00093587,0.00109694,-0.00893325,0.01298598,0
 .02550237,-0.00049849,-0.00349640,0.00021732,0.14823607,0.00005994,0.0
 0004164,0.00001951,-0.00004618,0.00033459,-0.00000472,-0.00002740,-0.0
 0003697,0.00000672,-0.00001423,-0.00000959,-0.00001551,0.00016012,-0.0
 0005414,0.00021435,-0.00002193,-0.00004017,-0.00003111,0.00013121,-0.0
 0013919,-0.00000025,0.00000730,0.00001302,-0.00000102,0.00000455,-0.00
 001045,0.00000236,-0.00000486,0.00000100,-0.00000493,-0.00001374,0.000
 07528,0.00004092,-0.00001090,-0.00000670,0.00000612,-0.00000719,-0.000
 04130,-0.00002089,-0.00000602,0.00001811,0.00000915,-0.00000419,0.0000
 0238,-0.00001098,0.00000762,0.00000538,0.00000237,-0.00001409,0.000008
 80,-0.00000824,0.00001119,-0.00000097,-0.00000249,-0.00001019,-0.00001
 671,-0.00000728,0.00000516,-0.00000198,0.00000131,-0.00000522,0.000003
 12,0.00000407,0.00000268,-0.00000062,0.00000033,-0.00000596,-0.0000130
 1,-0.00000047,0.00000240,0.00000128,0.00000119,0.00323403,0.00583043,-
 0.00054584,0.10651277,-0.05845043,-0.17091585,-0.00183401,0.00696913,0
 .00341349,-0.00323361,-0.00440258,0.00023708,-0.00003487,-0.00001686,-
 0.00003815,-0.00054455,-0.00026894,0.00068518,0.00781062,0.00270243,0.
 00154990,0.00039749,-0.00013926,-0.00107633,0.01519402,-0.00422357,-0.
 01960948,-0.00417997,-0.00336804,0.00100256,-0.12268238,0.05637364,0.0
 0007643,-0.00001869,-0.00009490,0.00171777,-0.00133843,0.00171372,-0.0
 0003535,-0.00000433,0.00005040,-0.00003090,0.00001315,0.00003191,-0.00
 047168,-0.00030320,-0.00072843,-0.00008513,0.00006336,0.00010251,-0.00
 051448,0.00050277,-0.00012807,0.00008552,0.00002468,0.00000179,-0.0000
 3859,0.00002140,-0.00000047,-0.00000308,-0.00001884,0.00001578,-0.0000
 1058,-0.00033439,-0.00011966,0.00002923,0.00001706,0.00000794,0.000031
 29,0.00008492,0.00011918,-0.00002501,-0.00007204,-0.00002931,0.0000095
 8,0.00002026,0.00002839,-0.00001726,-0.00000482,-0.00001143,0.00002204
 ,-0.00002921,0.00001234,-0.00001824,0.00000750,0.00000833,0.00001166,0
 .00004139,0.00002065,-0.00000596,0.00000150,-0.00000164,0.00000622,-0.
 00002397,-0.00001222,-0.00000179,0.00000105,-0.00000024,0.00001524,0.0
 0004376,0.00000315,-0.00000362,-0.00000388,0.00000007,-0.00284926,0.00
 123785,-0.00458875,0.25704064,-0.18298233,-0.46807395,0.01666259,-0.01
 148506,-0.01102365,0.00047487,-0.00005781,0.00170816,0.00002120,0.0004
 6813,-0.00064489,-0.00089305,0.00074754,-0.00037807,-0.00153428,0.0012
 3194,0.00147753,-0.00009404,0.00034580,0.00036342,-0.00765434,0.007178
 41,0.00788264,0.00012635,-0.00034585,0.00124842,-0.26211239,0.18498135
 ,0.47104078,-0.00003793,0.00001541,0.00000245,-0.00097030,0.00132427,0
 .00230338,0.00001371,-0.00000801,-0.00000708,0.00001645,-0.00001154,0.
 00000860,0.00039731,-0.00210992,-0.00080155,0.00003333,-0.00004999,-0.
 00002091,0.00072391,-0.00068084,0.00009837,0.00004636,-0.00000347,-0.0
 0003449,0.00001417,-0.00000809,0.00000082,-0.00001565,0.00001592,-0.00
 000908,-0.00005050,0.00025987,-0.00008752,-0.00003715,0.00000979,-0.00
 001098,-0.00004088,-0.00011346,-0.00007296,0.00001443,0.00002966,0.000
 01517,-0.00000074,-0.00000859,-0.00001389,0.00000255,0.00000123,0.0000
 0169,-0.00000299,0.00001239,-0.00000194,0.00000242,-0.00000011,-0.0000
 0180,-0.00000204,-0.00001554,-0.00000737,0.00000137,-0.00000155,-0.000
 00011,-0.00000389,0.00000592,0.00000688,0.00000103,-0.00000135,0.00000
 026,-0.00000682,-0.00002102,-0.00000016,0.00000226,0.00000231,0.000000
 42,-0.00405408,0.00925188,0.01936111,-0.00113479,-0.00025326,-0.001169
 76,-0.00092031,0.00746952,-0.00124132,-0.00006107,0.00033981,0.0011111
 1,-0.00026954,-0.00031206,0.00038490,-0.27207507,0.44188555,0.62015169
 ,0.01362426,-0.00468600,-0.02255358,-0.00139177,-0.00547299,0.00207603
 ,0.00263665,0.00450363,-0.00454123,0.00080431,-0.00046277,-0.00088064,
 -0.00056779,-0.00083959,0.00006837,0.26330881,0.00011683,-0.00000008,-
 0.00001319,-0.00058742,-0.00027475,-0.00168306,-0.00005434,-0.00002678
 ,0.00001987,-0.00004497,0.00001130,-0.00002087,0.00000047,-0.00108770,
 -0.00044195,-0.00009771,-0.00000478,0.00004450,-0.00010096,0.00016021,
 0.00045235,0.00015440,0.00001835,-0.00003681,-0.00002006,0.00001104,0.
 00000241,-0.00001988,-0.00000621,-0.00000363,-0.00011257,0.00002570,-0
 .00007979,0.00001175,0.00002871,-0.00003759,-0.00004165,0.00010181,-0.
 00005332,-0.00002168,-0.00003174,-0.00001455,0.00000122,0.00001005,0.0
 0001113,-0.00000074,-0.00000021,-0.00000229,0.00000088,-0.00001253,0.0
 0000126,-0.00000150,0.00000066,0.00000264,-0.00000048,0.00001495,0.000
 00710,0.00000014,0.00000145,0.00000015,0.00000131,-0.00000885,-0.00000
 671,0.00000074,0.00000094,-0.00000016,0.00000597,0.00001943,0.00000038
 ,0.00000007,-0.00000233,0.00000083,0.00570566,-0.00290110,-0.01395819,
 -0.00020735,-0.00048881,0.00097768,0.00735292,0.00403621,0.00058493,0.
 00000689,-0.00037789,-0.00090997,-0.00163453,-0.00024343,0.00114134,0.
 43951989,-0.22598455,-0.59540806,0.00152033,0.01335611,0.01144901,-0.0
 0488192,-0.00526181,0.00060753,0.00420698,0.00635448,0.00079082,0.0000
 3554,0.00049507,0.00029575,-0.00074722,-0.00113877,-0.00001102,-0.4500
 6701,0.21320586,-0.00009567,0.00000532,0.00002673,-0.00123666,0.001448
 08,0.00074681,0.00004390,0.00001445,-0.00002413,0.00003804,-0.00001228
 ,0.00000623,0.00035702,-0.00030344,-0.00043470,0.00006810,-0.00003247,
 -0.00005055,0.00035004,-0.00046929,-0.00008840,-0.00007747,-0.00005580
 ,-0.00000818,0.00003652,-0.00001848,0.00000262,-0.00000109,0.00001805,
 -0.00000760,0.00011177,0.00018691,0.00007605,-0.00002812,0.00000337,0.
 00001465,-0.00000336,-0.00012093,-0.00003731,0.00002295,0.00004391,0.0
 0001954,-0.00000143,-0.00001324,-0.00001736,0.00000326,0.00000111,0.00
 000339,-0.00000443,0.00001745,-0.00000309,0.00000407,-0.00000108,-0.00
 000354,-0.00000222,-0.00002200,-0.00001155,0.00000149,-0.00000212,0.00
 000003,-0.00000389,0.00001160,0.00000994,0.00000051,-0.00000139,0.0000
 0046,-0.00000867,-0.00002880,-0.00000050,0.00000141,0.00000318,-0.0000
 0017,-0.01148404,0.01072974,0.01536823,-0.00059205,0.00082574,0.000212
 37,-0.00377099,0.00118435,-0.00027943,-0.00020079,0.00045147,0.0009721
 3,0.00072236,-0.00036579,-0.00058154,0.61218287,-0.59058366,-0.6875034
 4,0.01917191,-0.02008828,-0.01952246,0.00133188,0.00088309,0.00295550,
 -0.00368417,0.00077133,-0.00495635,0.00081946,-0.00088718,-0.00090372,
 0.00006237,0.00011563,-0.00000139,-0.61413488,0.59629148,0.69402075\\0
 .06100026,-0.04046468,0.00910315,-0.07865775,0.05089195,-0.00344392,-0
 .02241937,-0.00158838,0.01297880,-0.02009396,0.02541500,-0.03978930,0.
 00570855,-0.04121605,-0.00188044,-0.01187604,0.01828703,0.00939593,0.0
 2235524,-0.00496987,0.01073227,-0.01631602,-0.15717823,0.09792676,-0.0
 0617325,0.17359288,0.04904396,0.00326640,-0.00849793,-0.14310969,-0.11
 853113,-0.11571690,-0.03399119,0.11844612,0.04673402,-0.07992002,0.007
 27764,0.03896670,0.10919858,-0.01515173,-0.01009849,0.01746350,0.03332
 702,0.15082242,-0.06956888,-0.03212954,-0.15806416,0.07325090,0.028493
 84,0.00752785,-0.14024072,-0.03222388,-0.01182521,0.15830441,0.0039803
 5,-0.12959791,-0.06578352,-0.00521190,0.14352426,0.09034314,-0.0089442
 2,-0.33900454,0.12143176,0.01355719,0.34565662,-0.16132035,0.00083687,
 0.00065736,0.04978642,0.00338405,0.01195739,-0.06553472,0.00965641,-0.
 00020441,-0.00365726,0.06094498,-0.05877286,-0.07678008,0.16599865,-0.
 10722375,0.02621375,-0.18369696,0.11263989,-0.03701977,0.05282412,0.01
 146726,-0.01404679,-0.21382890,0.20702879,0.29958447,-0.20645056,0.152
 21328,-0.02154320,0.21959610,-0.15354122,0.02695429,-0.03051154,0.0046
 5324,-0.14030981,0.04925835,-0.01687175,0.14826086,-0.05949118,0.05145
 175,0.08602947,0.20179579,-0.19865138,-0.29806277\\\@
 The archive entry for this job was punched.

 Writing a WFNX file to "UGUWID_Complex_0_Ligand_1_NN_Cu_oriented.wfx"


 THE VALUE OF PHILOSOPHY IS, IN FACT, TO BE SOUGHT LARGELY IN ITS
 VERY UNCERTAINTY.  THE MAN WHO HAS NO TINCTURE OF PHILOSOPHY GOES
 THROUGH LIFE IMPRISONED IN THE PREJUDICES DERIVED FROM COMMON SENSE,
 FROM THE HABITUAL BELIEFS OF HIS AGE OR HIS NATION, AND FROM
 CONVICTIONS WHICH HAVE GROWN UP IN HIS MIND WITHOUT THE CO-OPERATION
 OR CONSENT OF HIS DELIBERATE REASON.  TO SUCH A MAN THE WORLD TENDS
 TO BE DEFINITE, FINITE, OBVIOUS; COMMON OBJECTS ROUSE NO QUESTIONS,
 AND UNFAMILIAR POSSIBILITIES ARE CONTEMPTUOUSLY REJECTED.

                             -- BERTRAND RUSSELL
 Job cpu time:       0 days  0 hours 59 minutes  7.9 seconds.
 Elapsed time:       0 days  0 hours 59 minutes 22.0 seconds.
 File lengths (MBytes):  RWF=    972 Int=      0 D2E=      0 Chk=     16 Scr=      8
 Normal termination of Gaussian 16 at Mon Mar  6 11:21:05 2023.
