 Entering Gaussian System, Link 0=g16
 Initial command:
 /ssoft/spack/external/gaussian/g16-C.01/avx2/g16/l1.exe "/scratch/lcmd/2387846/Gau-3436357.inp" -scrdir="/scratch/lcmd/2387846/"
 Entering Link 1 = /ssoft/spack/external/gaussian/g16-C.01/avx2/g16/l1.exe PID=   3436359.
  
 Copyright (c) 1988-2019, Gaussian, Inc.  All Rights Reserved.
  
 This is part of the Gaussian(R) 16 program.  It is based on
 the Gaussian(R) 09 system (copyright 2009, Gaussian, Inc.),
 the Gaussian(R) 03 system (copyright 2003, Gaussian, Inc.),
 the Gaussian(R) 98 system (copyright 1998, Gaussian, Inc.),
 the Gaussian(R) 94 system (copyright 1995, Gaussian, Inc.),
 the Gaussian 92(TM) system (copyright 1992, Gaussian, Inc.),
 the Gaussian 90(TM) system (copyright 1990, Gaussian, Inc.),
 the Gaussian 88(TM) system (copyright 1988, Gaussian, Inc.),
 the Gaussian 86(TM) system (copyright 1986, Carnegie Mellon
 University), and the Gaussian 82(TM) system (copyright 1983,
 Carnegie Mellon University). Gaussian is a federally registered
 trademark of Gaussian, Inc.
  
 This software contains proprietary and confidential information,
 including trade secrets, belonging to Gaussian, Inc.
  
 This software is provided under written license and may be
 used, copied, transmitted, or stored only in accord with that
 written license.
  
 The following legend is applicable only to US Government
 contracts under FAR:
  
                    RESTRICTED RIGHTS LEGEND
  
 Use, reproduction and disclosure by the US Government is
 subject to restrictions as set forth in subparagraphs (a)
 and (c) of the Commercial Computer Software - Restricted
 Rights clause in FAR 52.227-19.
  
 Gaussian, Inc.
 340 Quinnipiac St., Bldg. 40, Wallingford CT 06492
  
  
 ---------------------------------------------------------------
 Warning -- This program may not be used in any manner that
 competes with the business of Gaussian, Inc. or will provide
 assistance to any competitor of Gaussian, Inc.  The licensee
 of this program is prohibited from giving any competitor of
 Gaussian, Inc. access to this program.  By using this program,
 the user acknowledges that Gaussian, Inc. is engaged in the
 business of creating and licensing software in the field of
 computational chemistry and represents and warrants to the
 licensee that it is not a competitor of Gaussian, Inc. and that
 it will not use this program in any manner prohibited above.
 ---------------------------------------------------------------
  

 Cite this work as:
 Gaussian 16, Revision C.01,
 M. J. Frisch, G. W. Trucks, H. B. Schlegel, G. E. Scuseria, 
 M. A. Robb, J. R. Cheeseman, G. Scalmani, V. Barone, 
 G. A. Petersson, H. Nakatsuji, X. Li, M. Caricato, A. V. Marenich, 
 J. Bloino, B. G. Janesko, R. Gomperts, B. Mennucci, H. P. Hratchian, 
 J. V. Ortiz, A. F. Izmaylov, J. L. Sonnenberg, D. Williams-Young, 
 F. Ding, F. Lipparini, F. Egidi, J. Goings, B. Peng, A. Petrone, 
 T. Henderson, D. Ranasinghe, V. G. Zakrzewski, J. Gao, N. Rega, 
 G. Zheng, W. Liang, M. Hada, M. Ehara, K. Toyota, R. Fukuda, 
 J. Hasegawa, M. Ishida, T. Nakajima, Y. Honda, O. Kitao, H. Nakai, 
 T. Vreven, K. Throssell, J. A. Montgomery, Jr., J. E. Peralta, 
 F. Ogliaro, M. J. Bearpark, J. J. Heyd, E. N. Brothers, K. N. Kudin, 
 V. N. Staroverov, T. A. Keith, R. Kobayashi, J. Normand, 
 K. Raghavachari, A. P. Rendell, J. C. Burant, S. S. Iyengar, 
 J. Tomasi, M. Cossi, J. M. Millam, M. Klene, C. Adamo, R. Cammi, 
 J. W. Ochterski, R. L. Martin, K. Morokuma, O. Farkas, 
 J. B. Foresman, and D. J. Fox, Gaussian, Inc., Wallingford CT, 2019.
 
 ******************************************
 Gaussian 16:  ES64L-G16RevC.01  3-Jul-2019
                 6-Mar-2023 
 ******************************************
 %nprocshared=1
 Will use up to    1 processors via shared memory.
 %mem=8000MB
 %chk=VEYGOW_Complex_0_Ligand_0_NN_Cu_oriented.chk
 ----------------------------------------------------------------------
 #p pop=(regular,nbo,savenbos) freq=noraman def2svp empiricaldispersion
 =gd3bj output=wfx pbe1pbe
 ----------------------------------------------------------------------
 1/10=4,30=1,38=1/1,3;
 2/12=2,17=6,18=5,40=1/2;
 3/5=43,7=101,11=2,25=1,30=1,71=2,74=-13,124=41,140=1/1,2,3;
 4//1;
 5/5=2,38=5,98=1/2;
 8/6=4,10=90,11=11/1;
 11/6=1,8=1,9=11,15=111,16=1/1,2,10;
 10/6=1/2;
 6/28=1,40=1,73=1/1,7;
 7/8=1,10=1,25=1/1,2,3,16;
 1/10=4,30=1/3;
 99/6=200/99;
 Leave Link    1 at Mon Mar  6 10:21:43 2023, MaxMem=  1048576000 cpu:               0.0 elap:               0.2
 (Enter /ssoft/spack/external/gaussian/g16-C.01/avx2/g16/l101.exe)
 ----------------------------------------
 VEYGOW_Complex_0_Ligand_0_NN_Cu_oriented
 ----------------------------------------
 Symbolic Z-matrix:
 Charge = -1 Multiplicity = 1
 S                     3.03859   0.40065   0.40525 
 O                     2.74167  -0.90909   0.91571 
 O                     3.99245   0.48591  -0.66689 
 N                    -0.84321   1.83547   0. 
 N                     1.6204    1.03157   0. 
 C                    -2.11792   2.18046   0.05584 
 H                    -2.69046   1.41613   0.26767 
 C                    -2.55467   3.48876  -0.20146 
 C                    -0.26623   4.11619  -0.61443 
 C                     0.74667   5.02242  -1.00966 
 C                     2.02213   4.57932  -1.12877 
 H                     2.84954   5.1348   -1.47467 
 C                     2.4015    3.25218  -0.81944 
 H                     3.3756    2.99024  -0.93837 
 C                     1.44903   2.35469  -0.38356 
 C                     0.08791   2.78982  -0.32376 
 C                    -1.64795   4.44722  -0.52879 
 H                    -1.8481    5.32418  -0.68894 
 C                     3.70408   1.40776   1.7232 
 H                     3.70848   2.30646   1.38819 
 H                     4.60216   1.12403   1.95264 
 C                     3.01932   1.29395   3.05188 
 C                     1.77968   1.82521   3.28909 
 C                     1.20671   1.76602   4.53379 
 H                     0.32854   2.18892   4.83683 
 C                     1.87129   1.17238   5.57373 
 H                     1.48833   1.1286    6.42017 
 C                     3.10601   0.63559   5.344 
 H                     3.59446   0.46817   6.3008 
 C                     3.65328   0.69715   4.11195 
 H                     4.48736   0.31404   3.97736 
 H                    -3.59138   3.71347  -0.14941 
 H                     1.41256   2.40759   2.51839 
 H                     0.55164   5.97064  -1.19938 
 
 ITRead=  0  0  0  0  0  0  0  0  0  0  0  0  0  0  0  0  0  0  0  0
 ITRead=  0  0  0  0  0  0  0  0  0  0  0  0  0  0
 MicOpt= -1 -1 -1 -1 -1 -1 -1 -1 -1 -1 -1 -1 -1 -1 -1 -1 -1 -1 -1 -1
 MicOpt= -1 -1 -1 -1 -1 -1 -1 -1 -1 -1 -1 -1 -1 -1
 NAtoms=     34 NQM=       34 NQMF=       0 NMMI=      0 NMMIF=      0
                NMic=       0 NMicF=      0.
                    Isotopes and Nuclear Properties:
 (Nuclear quadrupole moments (NQMom) in fm**2, nuclear magnetic moments (NMagM)
  in nuclear magnetons)

  Atom         1           2           3           4           5           6           7           8           9          10
 IAtWgt=          32          16          16          14          14          12           1          12          12          12
 AtmWgt=  31.9720718  15.9949146  15.9949146  14.0030740  14.0030740  12.0000000   1.0078250  12.0000000  12.0000000  12.0000000
 NucSpn=           0           0           0           2           2           0           1           0           0           0
 AtZEff=  -0.0000000  -0.0000000  -0.0000000  -0.0000000  -0.0000000  -0.0000000  -0.0000000  -0.0000000  -0.0000000  -0.0000000
 NQMom=    0.0000000   0.0000000   0.0000000   2.0440000   2.0440000   0.0000000   0.0000000   0.0000000   0.0000000   0.0000000
 NMagM=    0.0000000   0.0000000   0.0000000   0.4037610   0.4037610   0.0000000   2.7928460   0.0000000   0.0000000   0.0000000
 AtZNuc=  16.0000000   8.0000000   8.0000000   7.0000000   7.0000000   6.0000000   1.0000000   6.0000000   6.0000000   6.0000000

  Atom        11          12          13          14          15          16          17          18          19          20
 IAtWgt=          12           1          12           1          12          12          12           1          12           1
 AtmWgt=  12.0000000   1.0078250  12.0000000   1.0078250  12.0000000  12.0000000  12.0000000   1.0078250  12.0000000   1.0078250
 NucSpn=           0           1           0           1           0           0           0           1           0           1
 AtZEff=  -0.0000000  -0.0000000  -0.0000000  -0.0000000  -0.0000000  -0.0000000  -0.0000000  -0.0000000  -0.0000000  -0.0000000
 NQMom=    0.0000000   0.0000000   0.0000000   0.0000000   0.0000000   0.0000000   0.0000000   0.0000000   0.0000000   0.0000000
 NMagM=    0.0000000   2.7928460   0.0000000   2.7928460   0.0000000   0.0000000   0.0000000   2.7928460   0.0000000   2.7928460
 AtZNuc=   6.0000000   1.0000000   6.0000000   1.0000000   6.0000000   6.0000000   6.0000000   1.0000000   6.0000000   1.0000000

  Atom        21          22          23          24          25          26          27          28          29          30
 IAtWgt=           1          12          12          12           1          12           1          12           1          12
 AtmWgt=   1.0078250  12.0000000  12.0000000  12.0000000   1.0078250  12.0000000   1.0078250  12.0000000   1.0078250  12.0000000
 NucSpn=           1           0           0           0           1           0           1           0           1           0
 AtZEff=  -0.0000000  -0.0000000  -0.0000000  -0.0000000  -0.0000000  -0.0000000  -0.0000000  -0.0000000  -0.0000000  -0.0000000
 NQMom=    0.0000000   0.0000000   0.0000000   0.0000000   0.0000000   0.0000000   0.0000000   0.0000000   0.0000000   0.0000000
 NMagM=    2.7928460   0.0000000   0.0000000   0.0000000   2.7928460   0.0000000   2.7928460   0.0000000   2.7928460   0.0000000
 AtZNuc=   1.0000000   6.0000000   6.0000000   6.0000000   1.0000000   6.0000000   1.0000000   6.0000000   1.0000000   6.0000000

  Atom        31          32          33          34
 IAtWgt=           1           1           1           1
 AtmWgt=   1.0078250   1.0078250   1.0078250   1.0078250
 NucSpn=           1           1           1           1
 AtZEff=  -0.0000000  -0.0000000  -0.0000000  -0.0000000
 NQMom=    0.0000000   0.0000000   0.0000000   0.0000000
 NMagM=    2.7928460   2.7928460   2.7928460   2.7928460
 AtZNuc=   1.0000000   1.0000000   1.0000000   1.0000000
 Leave Link  101 at Mon Mar  6 10:21:43 2023, MaxMem=  1048576000 cpu:               0.1 elap:               0.1
 (Enter /ssoft/spack/external/gaussian/g16-C.01/avx2/g16/l103.exe)

 GradGradGradGradGradGradGradGradGradGradGradGradGradGradGradGradGradGrad
 Berny optimization.
 Initialization pass.
 Trust Radius=3.00D-01 FncErr=1.00D-07 GrdErr=1.00D-07 EigMax=2.50D+02 EigMin=1.00D-04
 Number of steps in this run=      2 maximum allowed number of steps=      2.
 GradGradGradGradGradGradGradGradGradGradGradGradGradGradGradGradGradGrad

 Leave Link  103 at Mon Mar  6 10:21:43 2023, MaxMem=  1048576000 cpu:               0.0 elap:               0.0
 (Enter /ssoft/spack/external/gaussian/g16-C.01/avx2/g16/l202.exe)
                          Input orientation:                          
 ---------------------------------------------------------------------
 Center     Atomic      Atomic             Coordinates (Angstroms)
 Number     Number       Type             X           Y           Z
 ---------------------------------------------------------------------
      1         16           0        3.038592    0.400650    0.405253
      2          8           0        2.741671   -0.909087    0.915705
      3          8           0        3.992451    0.485907   -0.666891
      4          7           0       -0.843207    1.835467    0.000000
      5          7           0        1.620396    1.031574    0.000000
      6          6           0       -2.117920    2.180460    0.055839
      7          1           0       -2.690456    1.416129    0.267665
      8          6           0       -2.554672    3.488758   -0.201465
      9          6           0       -0.266230    4.116194   -0.614434
     10          6           0        0.746668    5.022419   -1.009658
     11          6           0        2.022133    4.579322   -1.128767
     12          1           0        2.849539    5.134796   -1.474665
     13          6           0        2.401497    3.252179   -0.819439
     14          1           0        3.375600    2.990239   -0.938374
     15          6           0        1.449032    2.354686   -0.383559
     16          6           0        0.087905    2.789822   -0.323764
     17          6           0       -1.647953    4.447218   -0.528788
     18          1           0       -1.848096    5.324181   -0.688938
     19          6           0        3.704082    1.407763    1.723204
     20          1           0        3.708484    2.306457    1.388194
     21          1           0        4.602162    1.124032    1.952642
     22          6           0        3.019323    1.293955    3.051879
     23          6           0        1.779676    1.825206    3.289089
     24          6           0        1.206710    1.766022    4.533793
     25          1           0        0.328540    2.188923    4.836828
     26          6           0        1.871295    1.172381    5.573727
     27          1           0        1.488331    1.128596    6.420168
     28          6           0        3.106011    0.635589    5.344000
     29          1           0        3.594463    0.468167    6.300798
     30          6           0        3.653279    0.697154    4.111946
     31          1           0        4.487365    0.314040    3.977361
     32          1           0       -3.591377    3.713470   -0.149410
     33          1           0        1.412557    2.407586    2.518388
     34          1           0        0.551639    5.970638   -1.199382
 ---------------------------------------------------------------------
                    Distance matrix (angstroms):
                    1          2          3          4          5
     1  S    0.000000
     2  O    1.436710   0.000000
     3  O    1.437570   2.452564   0.000000
     4  N    4.158280   4.606782   5.064547   0.000000
     5  N    1.604237   2.421145   2.523716   2.591444   0.000000
     6  C    5.466208   5.822396   6.382043   1.321753   3.911273
     7  H    5.819976   5.944291   6.811751   1.913066   4.336240
     8  C    6.417875   6.974264   7.217932   2.388111   4.848663
     9  C    5.076109   6.053284   5.596257   2.431491   3.667665
    10  C    5.349359   6.547505   5.588607   3.701861   4.208284
    11  C    4.565929   5.900868   4.566347   4.124685   3.744599
    12  H    5.097252   6.500310   4.854989   5.166873   4.530106
    13  C    3.168119   4.521347   3.194787   3.634096   2.492526
    14  H    2.936814   4.363968   2.593431   4.473519   2.792428
    15  C    2.639542   3.743156   3.168846   2.381400   1.388203
    16  C    3.866027   4.718123   4.546563   1.372074   2.354737
    17  C    6.261857   7.074275   6.893853   2.783609   4.756926
    18  H    7.022687   7.905345   7.584284   3.695344   5.561613
    19  C    1.787218   2.635542   2.577892   4.881618   2.729963
    20  H    2.246560   3.390826   2.760147   4.781924   2.812920
    21  H    2.315696   2.944527   2.764219   5.828464   3.565430
    22  C    2.793384   3.081189   3.927998   4.952407   3.367463
    23  C    3.454090   3.746297   4.726507   4.206866   3.387230
    24  C    4.718568   4.754248   6.037066   4.976169   4.611489
    25  H    5.493739   5.549421   6.827549   4.989271   5.138410
    26  C    5.354557   5.175639   6.626905   6.234953   5.581148
    27  H    6.253992   6.001843   7.543876   6.866898   6.422259
    28  C    4.944792   4.704101   6.077745   6.752360   5.560773
    29  H    5.922078   5.623461   6.979069   7.827035   6.626796
    30  C    3.768996   3.691476   4.795513   6.198567   4.599190
    31  H    3.855697   3.730579   4.673709   6.822692   4.955175
    32  H    7.432289   7.912648   8.258292   3.331915   5.863230
    33  H    3.337233   3.916051   4.527108   3.429003   2.877305
    34  H    6.307500   7.523328   6.496538   4.525898   5.193757
                    6          7          8          9         10
     6  C    0.000000
     7  H    0.978197   0.000000
     8  C    1.403069   2.129392   0.000000
     9  C    2.761356   3.734343   2.408565   0.000000
    10  C    4.173473   5.143025   3.728825   1.415418   0.000000
    11  C    4.929287   5.845024   4.795452   2.390739   1.355482
    12  H    5.978812   6.896067   5.791025   3.389036   2.156600
    13  C    4.726502   5.520947   5.000147   2.811639   2.430718
    14  H    5.641184   6.381958   5.996639   3.825656   3.323571
    15  C    3.598134   4.294222   4.165204   2.469481   2.828801
    16  C    2.319716   3.155331   2.736180   1.403269   2.426707
    17  C    2.387645   3.302824   1.359384   1.423401   2.509243
    18  H    3.241987   4.110660   2.026242   1.991754   2.631867
    19  C    6.105151   6.558108   6.870727   5.344486   5.411152
    20  H    5.978129   6.557035   6.569016   4.804583   4.679583
    21  H    7.062111   7.490444   7.839157   6.264516   6.231973
    22  C    6.012770   6.353609   6.816951   5.674658   5.963429
    23  C    5.076550   5.410954   5.808437   4.967076   5.456051
    24  C    5.592583   5.788797   6.287963   5.847829   6.445588
    25  H    5.370577   5.530714   5.948687   5.812434   6.510371
    26  C    6.883106   7.001663   7.635943   7.178328   7.708991
    27  H    7.390273   7.442999   8.109393   7.841546   8.421058
    28  C    7.592149   7.744511   8.422356   7.680466   8.073397
    29  H    8.634974   8.763420   9.445382   8.719718   9.071599
    30  C    7.208254   7.452409   8.058363   7.027877   7.306649
    31  H    7.905165   8.154603   8.782465   7.624803   7.812298
    32  H    2.136193   2.502675   1.062056   3.381573   4.612159
    33  H    4.310452   4.783665   4.930054   3.943633   4.441606
    34  H    4.802872   5.779876   4.099358   2.109511   0.986484
                   11         12         13         14         15
    11  C    0.000000
    12  H    1.054892   0.000000
    13  C    1.414535   2.043113   0.000000
    14  H    2.096022   2.272329   1.015695   0.000000
    15  C    2.415116   3.298628   1.379375   2.103191   0.000000
    16  C    2.755282   3.801328   2.410845   3.350649   1.430240
    17  C    3.721150   4.647029   4.232097   5.246583   3.740468
    18  H    3.965720   4.766655   4.729616   5.726823   4.447720
    19  C    4.584919   4.984716   3.400534   3.113861   3.228059
    20  H    3.787451   4.115003   2.734273   2.447711   2.871682
    21  H    5.300063   5.559169   4.129936   3.653103   4.112734
    22  C    5.409790   5.938896   4.382174   4.350452   3.923417
    23  C    5.211659   5.898419   4.393508   4.666446   3.725321
    24  C    6.375277   7.081603   5.682717   6.012271   4.958387
    25  H    6.646096   7.407331   6.117272   6.578727   5.341856
    26  C    7.520201   8.144786   6.743830   6.926399   6.088137
    27  H    8.317383   8.957171   7.599696   7.821485   6.913432
    28  C    7.656666   8.173300   6.732820   6.714557   6.205305
    29  H    8.635522   9.098910   7.737678   7.669052   7.269282
    30  C    6.722866   7.179755   5.693300   5.553474   5.274057
    31  H    7.095248   7.459675   5.999399   5.706357   5.693270
    32  H    5.763708   6.727694   6.047831   7.048709   5.225595
    33  H    4.288328   5.044509   3.582238   4.017739   2.902658
    34  H    2.025611   2.460641   3.310038   4.114081   3.813921
                   16         17         18         19         20
    16  C    0.000000
    17  C    2.408776   0.000000
    18  H    3.210051   0.913657   0.000000
    19  C    4.379144   6.553933   7.209954   0.000000
    20  H    4.033985   6.078577   6.655578   0.959116   0.000000
    21  H    5.323101   7.501000   8.137876   0.969378   1.585999
    22  C    4.714424   6.674407   7.343582   1.499074   2.065902
    23  C    4.104300   5.761924   6.420923   2.515868   2.750509
    24  C    5.088787   6.400597   7.019206   3.776854   4.055334
    25  H    5.201029   6.147866   6.715778   4.658234   4.830208
    26  C    6.370008   7.768549   8.384050   4.270953   4.709573
    27  H    7.085301   8.314897   8.903598   5.200861   5.624695
    28  C    6.772978   8.462761   9.106174   3.750214   4.336262
    29  H    7.846710   9.484673  10.102412   4.674315   5.246521
    30  C    6.063553   7.981382   8.644246   2.492716   3.164131
    31  H    6.632075   8.662024   9.328125   2.625068   3.358596
    32  H    3.797452   2.111684   2.434031   7.876972   7.591566
    33  H    3.158898   4.776201   5.424511   2.623557   2.561024
    34  H    3.331569   2.758389   2.537162   6.268910   5.485202
                   21         22         23         24         25
    21  H    0.000000
    22  C    1.934573   0.000000
    23  C    3.200650   1.369387   0.000000
    24  C    4.313188   2.388406   1.371526   0.000000
    25  H    5.264633   3.350720   2.152576   1.020714   0.000000
    26  C    4.535662   2.773530   2.377845   1.369506   1.989088
    27  H    5.445617   3.703600   3.220839   2.010978   2.230779
    28  C    3.738763   2.386374   2.719745   2.354073   3.222486
    29  H    4.511327   3.401204   3.769005   3.241620   3.971204
    30  C    2.396913   1.371792   2.336661   2.702987   3.715470
    31  H    2.183747   1.992962   3.176306   3.630505   4.642165
    32  H    8.846349   7.733282   6.651092   6.981874   6.523232
    33  H    3.484417   2.026446   1.033404   2.125049   2.568671
    34  H    7.059149   6.784840   6.232098   7.139832   7.126498
                   26         27         28         29         30
    26  C    0.000000
    27  H    0.930075   0.000000
    28  C    1.365813   2.004515   0.000000
    29  H    1.998464   2.210476   1.087234   0.000000
    30  C    2.353320   3.193905   1.349537   2.201583   0.000000
    31  H    3.182602   3.952848   1.969577   2.493871   0.927679
    32  H    8.309766   8.697376   9.192709  10.186926   8.929857
    33  H    3.327352   4.106756   3.740567   4.777937   3.238185
    34  H    8.404747   9.076359   8.820624   9.787168   8.101852
                   31         32         33         34
    31  H    0.000000
    32  H    9.687746   0.000000
    33  H    3.995745   5.819091   0.000000
    34  H    8.618915   4.833408   5.220951   0.000000
 Stoichiometry    C16H13N2O2S(1-)
 Framework group  C1[X(C16H13N2O2S)]
 Deg. of freedom    96
 Full point group                 C1      NOp   1
 Largest Abelian subgroup         C1      NOp   1
 Largest concise Abelian subgroup C1      NOp   1
                         Standard orientation:                         
 ---------------------------------------------------------------------
 Center     Atomic      Atomic             Coordinates (Angstroms)
 Number     Number       Type             X           Y           Z
 ---------------------------------------------------------------------
      1         16           0       -1.166129   -1.804920   -0.742092
      2          8           0       -1.961703   -1.506169   -1.900515
      3          8           0       -0.962477   -3.192557   -0.426502
      4          7           0        2.021646    0.766160   -1.462459
      5          7           0        0.220239   -1.029344   -0.965791
      6          6           0        2.882686    1.721035   -1.768818
      7          1           0        2.704993    2.097859   -2.653859
      8          6           0        3.931404    2.090593   -0.913120
      9          6           0        3.190553    0.404088    0.638662
     10          6           0        3.304756   -0.367901    1.819509
     11          6           0        2.438231   -1.388813    2.029758
     12          1           0        2.458246   -2.073576    2.831940
     13          6           0        1.378965   -1.686669    1.140856
     14          1           0        0.772374   -2.470999    1.361102
     15          6           0        1.207243   -0.923634    0.004650
     16          6           0        2.158533    0.109652   -0.265443
     17          6           0        4.086641    1.448514    0.274972
     18          1           0        4.728195    1.643755    0.895503
     19          6           0       -1.940129   -1.091107    0.702049
     20          1           0       -1.289764   -1.153040    1.404254
     21          1           0       -2.744521   -1.578329    0.937130
     22          6           0       -2.482292    0.297392    0.542818
     23          6           0       -1.672437    1.397623    0.448753
     24          6           0       -2.196989    2.662608    0.372988
     25          1           0       -1.690505    3.548797    0.373214
     26          6           0       -3.553244    2.851487    0.394058
     27          1           0       -3.915488    3.706580    0.342719
     28          6           0       -4.367883    1.758793    0.482526
     29          1           0       -5.363485    2.090990    0.766250
     30          6           0       -3.835808    0.520438    0.550524
     31          1           0       -4.409607   -0.207017    0.596922
     32          1           0        4.600496    2.860621   -1.208645
     33          1           0       -0.671137    1.203480    0.614976
     34          1           0        3.997135   -0.182899    2.497401
 ---------------------------------------------------------------------
 Rotational constants (GHZ):           0.4332190           0.2165359           0.1781048
 Leave Link  202 at Mon Mar  6 10:21:43 2023, MaxMem=  1048576000 cpu:               0.0 elap:               0.0
 (Enter /ssoft/spack/external/gaussian/g16-C.01/avx2/g16/l301.exe)
 Standard basis: def2SVP (5D, 7F)
 Ernie: Thresh=  0.10000D-02 Tol=  0.10000D-05 Strict=F.
 There are   384 symmetry adapted cartesian basis functions of A   symmetry.
 There are   363 symmetry adapted basis functions of A   symmetry.
   363 basis functions,   628 primitive gaussians,   384 cartesian basis functions
    78 alpha electrons       78 beta electrons
       nuclear repulsion energy      1775.5346697534 Hartrees.
 IExCor= 1009 DFT=T Ex+Corr=PBE1PBE ExCW=0 ScaHFX=  0.250000
 ScaDFX=  0.750000  0.750000  1.000000  1.000000 ScalE2=  1.000000  1.000000
 IRadAn=      5 IRanWt=     -1 IRanGd=            0 ICorTp=0 IEmpDi=141
 NAtoms=   34 NActive=   34 NUniq=   34 SFac= 1.00D+00 NAtFMM=   60 NAOKFM=F Big=F
 Integral buffers will be    131072 words long.
 Raffenetti 2 integral format.
 Two-electron integral symmetry is turned on.
 R6Disp:  Grimme-D3(BJ) Dispersion energy=       -0.0451219656 Hartrees.
 Nuclear repulsion after empirical dispersion term =     1775.4895477878 Hartrees.
 Leave Link  301 at Mon Mar  6 10:21:43 2023, MaxMem=  1048576000 cpu:               0.1 elap:               0.1
 (Enter /ssoft/spack/external/gaussian/g16-C.01/avx2/g16/l302.exe)
 NPDir=0 NMtPBC=     1 NCelOv=     1 NCel=       1 NClECP=     1 NCelD=      1
         NCelK=      1 NCelE2=     1 NClLst=     1 CellRange=     0.0.
 One-electron integrals computed using PRISM.
 One-electron integral symmetry used in STVInt
   1 Symmetry operations used in ECPInt.
 ECPInt:  NShTT=   14028 NPrTT=   52648 LenC2=   12757 LenP2D=   32917.
 LDataN:  DoStor=T MaxTD1= 4 Len=   56
 NBasis=   363 RedAO= T EigKep=  1.78D-04  NBF=   363
 NBsUse=   363 1.00D-06 EigRej= -1.00D+00 NBFU=   363
 Precomputing XC quadrature grid using
 IXCGrd= 4 IRadAn=           5 IRanWt=          -1 IRanGd=           0 AccXCQ= 0.00D+00.
 Generated NRdTot=       0 NPtTot=           0 NUsed=           0 NTot=          32
 NSgBfM=   383   383   383   383   383 MxSgAt=    34 MxSgA2=    34.
 Leave Link  302 at Mon Mar  6 10:21:44 2023, MaxMem=  1048576000 cpu:               1.1 elap:               1.1
 (Enter /ssoft/spack/external/gaussian/g16-C.01/avx2/g16/l303.exe)
 DipDrv:  MaxL=1.
 Leave Link  303 at Mon Mar  6 10:21:44 2023, MaxMem=  1048576000 cpu:               0.1 elap:               0.1
 (Enter /ssoft/spack/external/gaussian/g16-C.01/avx2/g16/l401.exe)
 ExpMin= 1.22D-01 ExpMax= 9.18D+03 ExpMxC= 1.38D+03 IAcc=3 IRadAn=         5 AccDes= 0.00D+00
 Harris functional with IExCor= 1009 and IRadAn=       5 diagonalized for initial guess.
 HarFok:  IExCor= 1009 AccDes= 0.00D+00 IRadAn=         5 IDoV= 1 UseB2=F ITyADJ=14
 ICtDFT=  3500011 ScaDFX=  1.000000  1.000000  1.000000  1.000000
 FoFCou: FMM=F IPFlag=           0 FMFlag=      100000 FMFlg1=           0
         NFxFlg=           0 DoJE=T BraDBF=F KetDBF=T FulRan=T
         wScrn=  0.000000 ICntrl=       500 IOpCl=  0 I1Cent=   200000004 NGrid=           0
         NMat0=    1 NMatS0=      1 NMatT0=    0 NMatD0=    1 NMtDS0=    0 NMtDT0=    0
 Petite list used in FoFCou.
 Harris En= -1274.08516226299    
 JPrj=0 DoOrth=F DoCkMO=F.
 Leave Link  401 at Mon Mar  6 10:21:54 2023, MaxMem=  1048576000 cpu:              10.0 elap:              10.1
 (Enter /ssoft/spack/external/gaussian/g16-C.01/avx2/g16/l502.exe)
 Integral symmetry usage will be decided dynamically.
 Closed shell SCF:
 Using DIIS extrapolation, IDIIS=  1040.
 NGot=  1048576000 LenX=  1048273948 LenY=  1048126051
 Requested convergence on RMS density matrix=1.00D-08 within 128 cycles.
 Requested convergence on MAX density matrix=1.00D-06.
 Requested convergence on             energy=1.00D-06.
 No special actions if energy rises.
 Fock matrices will be formed incrementally for  20 cycles.
 Integral accuracy reduced to 1.0D-05 until final iterations.

 Cycle   1  Pass 0  IDiag  1:
 FoFJK:  IHMeth= 1 ICntrl=       0 DoSepK=F KAlg= 0 I1Cent=           0 FoldK=F
 IRaf= 840000000 NMat=       1 IRICut=       1 DoRegI=T DoRafI=F ISym2E= 0 IDoP0=0 IntGTp=1.
 FoFCou: FMM=F IPFlag=           0 FMFlag=      100000 FMFlg1=           0
         NFxFlg=           0 DoJE=F BraDBF=F KetDBF=F FulRan=T
         wScrn=  0.000000 ICntrl=         0 IOpCl=  0 I1Cent=           0 NGrid=           0
         NMat0=    1 NMatS0=      1 NMatT0=    0 NMatD0=    1 NMtDS0=    0 NMtDT0=    0
 Symmetry not used in FoFCou.
 E= -1273.02849312593    
 DIIS: error= 3.29D-02 at cycle   1 NSaved=   1.
 NSaved= 1 IEnMin= 1 EnMin= -1273.02849312593     IErMin= 1 ErrMin= 3.29D-02
 ErrMax= 3.29D-02  0.00D+00 EMaxC= 1.00D-01 BMatC= 6.24D-01 BMatP= 6.24D-01
 IDIUse=3 WtCom= 6.71D-01 WtEn= 3.29D-01
 Coeff-Com:  0.100D+01
 Coeff-En:   0.100D+01
 Coeff:      0.100D+01
 Gap=     0.127 Goal=   None    Shift=    0.000
 GapD=    0.127 DampG=1.000 DampE=0.500 DampFc=0.5000 IDamp=-1.
 Damping current iteration by 5.00D-01
 RMSDP=6.43D-03 MaxDP=4.22D-01              OVMax= 1.99D-01

 Cycle   2  Pass 0  IDiag  1:
 RMSU=  3.15D-03    CP:  9.69D-01
 E= -1273.27823884878     Delta-E=       -0.249745722845 Rises=F Damp=T
 DIIS: error= 9.37D-03 at cycle   2 NSaved=   2.
 NSaved= 2 IEnMin= 2 EnMin= -1273.27823884878     IErMin= 2 ErrMin= 9.37D-03
 ErrMax= 9.37D-03  0.00D+00 EMaxC= 1.00D-01 BMatC= 4.72D-02 BMatP= 6.24D-01
 IDIUse=3 WtCom= 9.06D-01 WtEn= 9.37D-02
 Coeff-Com:  0.107D+00 0.893D+00
 Coeff-En:   0.147D+00 0.853D+00
 Coeff:      0.111D+00 0.889D+00
 Gap=     0.133 Goal=   None    Shift=    0.000
 RMSDP=2.04D-03 MaxDP=1.06D-01 DE=-2.50D-01 OVMax= 1.59D-01

 Cycle   3  Pass 0  IDiag  1:
 RMSU=  1.95D-03    CP:  9.41D-01  9.90D-01
 E= -1273.58848083664     Delta-E=       -0.310241987863 Rises=F Damp=F
 DIIS: error= 9.18D-03 at cycle   3 NSaved=   3.
 NSaved= 3 IEnMin= 3 EnMin= -1273.58848083664     IErMin= 3 ErrMin= 9.18D-03
 ErrMax= 9.18D-03  0.00D+00 EMaxC= 1.00D-01 BMatC= 4.59D-02 BMatP= 4.72D-02
 IDIUse=3 WtCom= 9.08D-01 WtEn= 9.18D-02
 Coeff-Com:  0.158D-02 0.496D+00 0.503D+00
 Coeff-En:   0.000D+00 0.000D+00 0.100D+01
 Coeff:      0.144D-02 0.450D+00 0.548D+00
 Gap=     0.144 Goal=   None    Shift=    0.000
 RMSDP=1.06D-03 MaxDP=4.83D-02 DE=-3.10D-01 OVMax= 8.24D-02

 Cycle   4  Pass 0  IDiag  1:
 RMSU=  7.78D-04    CP:  9.45D-01  1.04D+00  6.46D-01
 E= -1273.62287341904     Delta-E=       -0.034392582400 Rises=F Damp=F
 DIIS: error= 3.47D-03 at cycle   4 NSaved=   4.
 NSaved= 4 IEnMin= 4 EnMin= -1273.62287341904     IErMin= 4 ErrMin= 3.47D-03
 ErrMax= 3.47D-03  0.00D+00 EMaxC= 1.00D-01 BMatC= 8.38D-03 BMatP= 4.59D-02
 IDIUse=3 WtCom= 9.65D-01 WtEn= 3.47D-02
 Coeff-Com: -0.711D-02 0.160D+00 0.324D+00 0.523D+00
 Coeff-En:   0.000D+00 0.000D+00 0.162D+00 0.838D+00
 Coeff:     -0.686D-02 0.155D+00 0.319D+00 0.534D+00
 Gap=     0.131 Goal=   None    Shift=    0.000
 RMSDP=4.33D-04 MaxDP=1.95D-02 DE=-3.44D-02 OVMax= 4.73D-02

 Cycle   5  Pass 0  IDiag  1:
 RMSU=  2.45D-04    CP:  9.44D-01  1.04D+00  7.46D-01  6.16D-01
 E= -1273.62949374807     Delta-E=       -0.006620329024 Rises=F Damp=F
 DIIS: error= 1.61D-03 at cycle   5 NSaved=   5.
 NSaved= 5 IEnMin= 5 EnMin= -1273.62949374807     IErMin= 5 ErrMin= 1.61D-03
 ErrMax= 1.61D-03  0.00D+00 EMaxC= 1.00D-01 BMatC= 1.40D-03 BMatP= 8.38D-03
 IDIUse=3 WtCom= 9.84D-01 WtEn= 1.61D-02
 Coeff-Com: -0.526D-02 0.391D-01 0.138D+00 0.351D+00 0.477D+00
 Coeff-En:   0.000D+00 0.000D+00 0.000D+00 0.154D+00 0.846D+00
 Coeff:     -0.518D-02 0.385D-01 0.136D+00 0.347D+00 0.483D+00
 Gap=     0.134 Goal=   None    Shift=    0.000
 RMSDP=1.64D-04 MaxDP=6.61D-03 DE=-6.62D-03 OVMax= 1.98D-02

 Cycle   6  Pass 0  IDiag  1:
 RMSU=  8.78D-05    CP:  9.43D-01  1.04D+00  7.31D-01  7.00D-01  5.24D-01
 E= -1273.63081453955     Delta-E=       -0.001320791485 Rises=F Damp=F
 DIIS: error= 3.66D-04 at cycle   6 NSaved=   6.
 NSaved= 6 IEnMin= 6 EnMin= -1273.63081453955     IErMin= 6 ErrMin= 3.66D-04
 ErrMax= 3.66D-04  0.00D+00 EMaxC= 1.00D-01 BMatC= 9.34D-05 BMatP= 1.40D-03
 IDIUse=3 WtCom= 9.96D-01 WtEn= 3.66D-03
 Coeff-Com: -0.239D-02 0.791D-02 0.435D-01 0.135D+00 0.274D+00 0.541D+00
 Coeff-En:   0.000D+00 0.000D+00 0.000D+00 0.000D+00 0.221D-01 0.978D+00
 Coeff:     -0.238D-02 0.788D-02 0.433D-01 0.135D+00 0.273D+00 0.543D+00
 Gap=     0.134 Goal=   None    Shift=    0.000
 RMSDP=4.67D-05 MaxDP=1.43D-03 DE=-1.32D-03 OVMax= 4.61D-03

 Cycle   7  Pass 0  IDiag  1:
 RMSU=  2.57D-05    CP:  9.43D-01  1.04D+00  7.35D-01  6.94D-01  5.89D-01
                    CP:  6.22D-01
 E= -1273.63090139023     Delta-E=       -0.000086850679 Rises=F Damp=F
 DIIS: error= 1.20D-04 at cycle   7 NSaved=   7.
 NSaved= 7 IEnMin= 7 EnMin= -1273.63090139023     IErMin= 7 ErrMin= 1.20D-04
 ErrMax= 1.20D-04  0.00D+00 EMaxC= 1.00D-01 BMatC= 1.09D-05 BMatP= 9.34D-05
 IDIUse=3 WtCom= 9.99D-01 WtEn= 1.20D-03
 Coeff-Com: -0.947D-03 0.729D-03 0.114D-01 0.436D-01 0.114D+00 0.326D+00
 Coeff-Com:  0.505D+00
 Coeff-En:   0.000D+00 0.000D+00 0.000D+00 0.000D+00 0.000D+00 0.575D-01
 Coeff-En:   0.942D+00
 Coeff:     -0.945D-03 0.728D-03 0.114D-01 0.435D-01 0.114D+00 0.326D+00
 Coeff:      0.505D+00
 Gap=     0.134 Goal=   None    Shift=    0.000
 RMSDP=1.27D-05 MaxDP=4.23D-04 DE=-8.69D-05 OVMax= 8.47D-04

 Cycle   8  Pass 0  IDiag  1:
 RMSU=  6.99D-06    CP:  9.43D-01  1.04D+00  7.35D-01  6.95D-01  5.84D-01
                    CP:  6.59D-01  6.13D-01
 E= -1273.63091345682     Delta-E=       -0.000012066585 Rises=F Damp=F
 DIIS: error= 2.15D-05 at cycle   8 NSaved=   8.
 NSaved= 8 IEnMin= 8 EnMin= -1273.63091345682     IErMin= 8 ErrMin= 2.15D-05
 ErrMax= 2.15D-05  0.00D+00 EMaxC= 1.00D-01 BMatC= 4.61D-07 BMatP= 1.09D-05
 IDIUse=1 WtCom= 1.00D+00 WtEn= 0.00D+00
 Coeff-Com: -0.299D-03-0.328D-03 0.211D-02 0.109D-01 0.359D-01 0.119D+00
 Coeff-Com:  0.245D+00 0.588D+00
 Coeff:     -0.299D-03-0.328D-03 0.211D-02 0.109D-01 0.359D-01 0.119D+00
 Coeff:      0.245D+00 0.588D+00
 Gap=     0.134 Goal=   None    Shift=    0.000
 RMSDP=3.26D-06 MaxDP=1.49D-04 DE=-1.21D-05 OVMax= 2.07D-04

 Initial convergence to 1.0D-05 achieved.  Increase integral accuracy.
 Cycle   9  Pass 1  IDiag  1:
 E= -1273.63098545476     Delta-E=       -0.000071997943 Rises=F Damp=F
 DIIS: error= 1.01D-04 at cycle   1 NSaved=   1.
 NSaved= 1 IEnMin= 1 EnMin= -1273.63098545476     IErMin= 1 ErrMin= 1.01D-04
 ErrMax= 1.01D-04  0.00D+00 EMaxC= 1.00D-01 BMatC= 3.22D-06 BMatP= 3.22D-06
 IDIUse=3 WtCom= 9.99D-01 WtEn= 1.01D-03
 Coeff-Com:  0.100D+01
 Coeff-En:   0.100D+01
 Coeff:      0.100D+01
 Gap=     0.134 Goal=   None    Shift=    0.000
 RMSDP=3.26D-06 MaxDP=1.49D-04 DE=-7.20D-05 OVMax= 3.07D-04

 Cycle  10  Pass 1  IDiag  1:
 RMSU=  1.38D-04    CP:  1.00D+00
 E= -1273.63098859914     Delta-E=       -0.000003144378 Rises=F Damp=F
 DIIS: error= 1.10D-05 at cycle   2 NSaved=   2.
 NSaved= 2 IEnMin= 2 EnMin= -1273.63098859914     IErMin= 2 ErrMin= 1.10D-05
 ErrMax= 1.10D-05  0.00D+00 EMaxC= 1.00D-01 BMatC= 8.62D-08 BMatP= 3.22D-06
 IDIUse=1 WtCom= 1.00D+00 WtEn= 0.00D+00
 Coeff-Com:  0.309D-01 0.969D+00
 Coeff:      0.309D-01 0.969D+00
 Gap=     0.134 Goal=   None    Shift=    0.000
 RMSDP=3.64D-06 MaxDP=9.67D-05 DE=-3.14D-06 OVMax= 3.30D-04

 Cycle  11  Pass 1  IDiag  1:
 RMSU=  2.99D-06    CP:  1.00D+00  1.02D+00
 E= -1273.63098845308     Delta-E=        0.000000146053 Rises=F Damp=F
 DIIS: error= 1.86D-05 at cycle   3 NSaved=   3.
 NSaved= 3 IEnMin= 2 EnMin= -1273.63098859914     IErMin= 2 ErrMin= 1.10D-05
 ErrMax= 1.86D-05  0.00D+00 EMaxC= 1.00D-01 BMatC= 2.21D-07 BMatP= 8.62D-08
 IDIUse=1 WtCom= 1.00D+00 WtEn= 0.00D+00
 Coeff-Com: -0.610D-02 0.620D+00 0.386D+00
 Coeff:     -0.610D-02 0.620D+00 0.386D+00
 Gap=     0.134 Goal=   None    Shift=    0.000
 RMSDP=1.82D-06 MaxDP=5.87D-05 DE= 1.46D-07 OVMax= 2.24D-04

 Cycle  12  Pass 1  IDiag  1:
 RMSU=  6.56D-07    CP:  1.00D+00  1.02D+00  4.37D-01
 E= -1273.63098868681     Delta-E=       -0.000000233722 Rises=F Damp=F
 DIIS: error= 2.76D-06 at cycle   4 NSaved=   4.
 NSaved= 4 IEnMin= 4 EnMin= -1273.63098868681     IErMin= 4 ErrMin= 2.76D-06
 ErrMax= 2.76D-06  0.00D+00 EMaxC= 1.00D-01 BMatC= 4.93D-09 BMatP= 8.62D-08
 IDIUse=1 WtCom= 1.00D+00 WtEn= 0.00D+00
 Coeff-Com: -0.460D-02 0.378D+00 0.246D+00 0.381D+00
 Coeff:     -0.460D-02 0.378D+00 0.246D+00 0.381D+00
 Gap=     0.134 Goal=   None    Shift=    0.000
 RMSDP=2.79D-07 MaxDP=1.25D-05 DE=-2.34D-07 OVMax= 2.41D-05

 Cycle  13  Pass 1  IDiag  1:
 RMSU=  2.21D-07    CP:  1.00D+00  1.02D+00  4.48D-01  7.45D-01
 E= -1273.63098869124     Delta-E=       -0.000000004429 Rises=F Damp=F
 DIIS: error= 4.43D-07 at cycle   5 NSaved=   5.
 NSaved= 5 IEnMin= 5 EnMin= -1273.63098869124     IErMin= 5 ErrMin= 4.43D-07
 ErrMax= 4.43D-07  0.00D+00 EMaxC= 1.00D-01 BMatC= 1.61D-10 BMatP= 4.93D-09
 IDIUse=1 WtCom= 1.00D+00 WtEn= 0.00D+00
 Coeff-Com: -0.219D-02 0.172D+00 0.113D+00 0.215D+00 0.502D+00
 Coeff:     -0.219D-02 0.172D+00 0.113D+00 0.215D+00 0.502D+00
 Gap=     0.134 Goal=   None    Shift=    0.000
 RMSDP=6.23D-08 MaxDP=2.77D-06 DE=-4.43D-09 OVMax= 5.82D-06

 Cycle  14  Pass 1  IDiag  1:
 RMSU=  5.36D-08    CP:  1.00D+00  1.02D+00  4.43D-01  7.79D-01  9.23D-01
 E= -1273.63098869137     Delta-E=       -0.000000000131 Rises=F Damp=F
 DIIS: error= 1.71D-07 at cycle   6 NSaved=   6.
 NSaved= 6 IEnMin= 6 EnMin= -1273.63098869137     IErMin= 6 ErrMin= 1.71D-07
 ErrMax= 1.71D-07  0.00D+00 EMaxC= 1.00D-01 BMatC= 1.94D-11 BMatP= 1.61D-10
 IDIUse=1 WtCom= 1.00D+00 WtEn= 0.00D+00
 Coeff-Com: -0.241D-03 0.159D-01 0.106D-01 0.369D-01 0.277D+00 0.659D+00
 Coeff:     -0.241D-03 0.159D-01 0.106D-01 0.369D-01 0.277D+00 0.659D+00
 Gap=     0.134 Goal=   None    Shift=    0.000
 RMSDP=2.17D-08 MaxDP=6.31D-07 DE=-1.31D-10 OVMax= 1.99D-06

 Cycle  15  Pass 1  IDiag  1:
 RMSU=  1.36D-08    CP:  1.00D+00  1.02D+00  4.45D-01  7.85D-01  9.60D-01
                    CP:  7.66D-01
 E= -1273.63098869139     Delta-E=       -0.000000000023 Rises=F Damp=F
 DIIS: error= 5.83D-08 at cycle   7 NSaved=   7.
 NSaved= 7 IEnMin= 7 EnMin= -1273.63098869139     IErMin= 7 ErrMin= 5.83D-08
 ErrMax= 5.83D-08  0.00D+00 EMaxC= 1.00D-01 BMatC= 3.17D-12 BMatP= 1.94D-11
 IDIUse=1 WtCom= 1.00D+00 WtEn= 0.00D+00
 Coeff-Com:  0.543D-04-0.613D-02-0.396D-02 0.275D-02 0.123D+00 0.398D+00
 Coeff-Com:  0.487D+00
 Coeff:      0.543D-04-0.613D-02-0.396D-02 0.275D-02 0.123D+00 0.398D+00
 Coeff:      0.487D+00
 Gap=     0.134 Goal=   None    Shift=    0.000
 RMSDP=7.01D-09 MaxDP=4.50D-07 DE=-2.32D-11 OVMax= 4.14D-07

 SCF Done:  E(RPBE1PBE) =  -1273.63098869     A.U. after   15 cycles
            NFock= 15  Conv=0.70D-08     -V/T= 2.0048
 KE= 1.267516357705D+03 PE=-6.556160594350D+03 EE= 2.239523700166D+03
 Leave Link  502 at Mon Mar  6 10:27:32 2023, MaxMem=  1048576000 cpu:             334.6 elap:             337.8
 (Enter /ssoft/spack/external/gaussian/g16-C.01/avx2/g16/l801.exe)
 DoSCS=F DFT=T ScalE2(SS,OS)=  1.000000  1.000000
 Range of M.O.s used for correlation:     1   363
 NBasis=   363 NAE=    78 NBE=    78 NFC=     0 NFV=     0
 NROrb=    363 NOA=    78 NOB=    78 NVA=   285 NVB=   285

 **** Warning!!: The largest alpha MO coefficient is  0.12374658D+02

 Leave Link  801 at Mon Mar  6 10:27:32 2023, MaxMem=  1048576000 cpu:               0.0 elap:               0.0
 (Enter /ssoft/spack/external/gaussian/g16-C.01/avx2/g16/l1101.exe)
 Using compressed storage, NAtomX=    34.
 Will process     35 centers per pass.
   1 Symmetry operations used in ECPInt.
 ECPInt:  NShTT=   14028 NPrTT=   52648 LenC2=   12757 LenP2D=   32917.
 LDataN:  DoStor=T MaxTD1= 5 Len=  102
 R6Disp: Adding Grimme-D3(BJ) dispersion energy 1st derivatives to the gradient.
 Leave Link 1101 at Mon Mar  6 10:27:33 2023, MaxMem=  1048576000 cpu:               0.6 elap:               0.7
 (Enter /ssoft/spack/external/gaussian/g16-C.01/avx2/g16/l1102.exe)
 Symmetrizing basis deriv contribution to polar:
 IMax=3 JMax=2 DiffMx= 0.00D+00
 Leave Link 1102 at Mon Mar  6 10:27:33 2023, MaxMem=  1048576000 cpu:               0.1 elap:               0.1
 (Enter /ssoft/spack/external/gaussian/g16-C.01/avx2/g16/l1110.exe)
 Forming Gx(P) for the SCF density, NAtomX=    34.
 Integral derivatives from FoFJK, PRISM(SPDF).
 Do as many integral derivatives as possible in FoFJK.
 G2DrvN: MDV=    1048572362.
 G2DrvN: will do    35 centers at a time, making    1 passes.
 Calling FoFCou, ICntrl=  3107 FMM=F I1Cent=   0 AccDes= 0.00D+00.
 FoFJK:  IHMeth= 1 ICntrl=    3107 DoSepK=F KAlg= 0 I1Cent=           0 FoldK=F
 IRaf=         0 NMat=       1 IRICut=       1 DoRegI=T DoRafI=F ISym2E= 0 IDoP0=0 IntGTp=1.
 FoFCou: FMM=F IPFlag=           0 FMFlag=      100000 FMFlg1=           0
         NFxFlg=           0 DoJE=F BraDBF=F KetDBF=F FulRan=T
         wScrn=  0.000000 ICntrl=      3107 IOpCl=  0 I1Cent=           0 NGrid=           0
         NMat0=    1 NMatS0=      1 NMatT0=    0 NMatD0=    1 NMtDS0=    0 NMtDT0=    0
 Symmetry not used in FoFCou.
 End of G2Drv F.D. properties file   721 does not exist.
 End of G2Drv F.D. properties file   722 does not exist.
 End of G2Drv F.D. properties file   788 does not exist.
 Leave Link 1110 at Mon Mar  6 10:40:47 2023, MaxMem=  1048576000 cpu:             790.3 elap:             793.5
 (Enter /ssoft/spack/external/gaussian/g16-C.01/avx2/g16/l1002.exe)
 Minotr:  Closed shell wavefunction.
          IDoAtm=1111111111111111111111111111111111
          Direct CPHF calculation.
          Differentiating once with respect to electric field.
                with respect to dipole field.
          Differentiating once with respect to nuclear coordinates.
          Requested convergence is 1.0D-08 RMS, and 1.0D-07 maximum.
          Secondary convergence is 1.0D-12 RMS, and 1.0D-12 maximum.
          NewPWx=T KeepS1=F KeepF1=F KeepIn=T MapXYZ=F SortEE=F KeepMc=T.
        10238 words used for storage of precomputed grid.
 Two-electron integrals replicated using symmetry.
          MDV=    1048576000 using IRadAn=       1.
          Solving linear equations simultaneously, MaxMat=     384.
 FoF2E skips out because all densities are zero.
 CalDSu exits because no D1Ps are significant.
 FoFJK:  IHMeth= 1 ICntrl=       0 DoSepK=F KAlg= 0 I1Cent=           0 FoldK=F
 IRaf= 820000000 NMat=     102 IRICut=     255 DoRegI=T DoRafI=T ISym2E= 2 IDoP0=3 IntGTp=3.
 FoFCou: FMM=F IPFlag=           0 FMFlag=      100000 FMFlg1=           0
         NFxFlg=           0 DoJE=F BraDBF=F KetDBF=F FulRan=T
         wScrn=  0.000000 ICntrl=         0 IOpCl=  0 I1Cent=           0 NGrid=           0
         NMat0=  102 NMatS0=    102 NMatT0=    0 NMatD0=  102 NMtDS0=    0 NMtDT0=    0
 Integrals replicated using symmetry in FoFCou.
 Raff kept on since  77.72% of shell-pairs survive, threshold=   0.20 IRatSp=78.
          There are   105 degrees of freedom in the 1st order CPHF.  IDoFFX=6 NUNeed=     3.
    102 vectors produced by pass  0 Test12= 2.22D-14 1.00D-09 XBig12= 2.94D+02 8.74D+00.
 AX will form   102 AO Fock derivatives at one time.
    102 vectors produced by pass  1 Test12= 2.22D-14 1.00D-09 XBig12= 4.92D+01 1.20D+00.
    102 vectors produced by pass  2 Test12= 2.22D-14 1.00D-09 XBig12= 4.59D-01 1.03D-01.
    102 vectors produced by pass  3 Test12= 2.22D-14 1.00D-09 XBig12= 2.89D-03 5.02D-03.
    102 vectors produced by pass  4 Test12= 2.22D-14 1.00D-09 XBig12= 8.29D-06 2.23D-04.
    100 vectors produced by pass  5 Test12= 2.22D-14 1.00D-09 XBig12= 1.17D-08 7.96D-06.
     44 vectors produced by pass  6 Test12= 2.22D-14 1.00D-09 XBig12= 1.50D-11 2.67D-07.
      3 vectors produced by pass  7 Test12= 2.22D-14 1.00D-09 XBig12= 1.56D-14 9.05D-09.
      3 vectors produced by pass  8 Test12= 2.22D-14 1.00D-09 XBig12= 3.18D-16 1.22D-09.
      3 vectors produced by pass  9 Test12= 2.22D-14 1.00D-09 XBig12= 1.75D-15 3.51D-09.
      3 vectors produced by pass 10 Test12= 2.22D-14 1.00D-09 XBig12= 2.47D-15 3.56D-09.
      3 vectors produced by pass 11 Test12= 2.22D-14 1.00D-09 XBig12= 1.95D-15 2.93D-09.
      2 vectors produced by pass 12 Test12= 2.22D-14 1.00D-09 XBig12= 5.24D-16 2.28D-09.
 InvSVY:  IOpt=1 It=  1 EMax= 3.55D-15
 Solved reduced A of dimension   671 with   105 vectors.
 FullF1:  Do perturbations      1 to       3.
 Isotropic polarizability for W=    0.000000      203.44 Bohr**3.
 End of Minotr F.D. properties file   721 does not exist.
 End of Minotr F.D. properties file   722 does not exist.
 End of Minotr F.D. properties file   788 does not exist.
 Leave Link 1002 at Mon Mar  6 11:03:53 2023, MaxMem=  1048576000 cpu:            1382.4 elap:            1386.6
 (Enter /ssoft/spack/external/gaussian/g16-C.01/avx2/g16/l601.exe)
 Copying SCF densities to generalized density rwf, IOpCl= 0 IROHF=0.

 **********************************************************************

            Population analysis using the SCF Density.

 **********************************************************************

 Orbital symmetries:
       Occupied  (A) (A) (A) (A) (A) (A) (A) (A) (A) (A) (A) (A)
                 (A) (A) (A) (A) (A) (A) (A) (A) (A) (A) (A) (A)
                 (A) (A) (A) (A) (A) (A) (A) (A) (A) (A) (A) (A)
                 (A) (A) (A) (A) (A) (A) (A) (A) (A) (A) (A) (A)
                 (A) (A) (A) (A) (A) (A) (A) (A) (A) (A) (A) (A)
                 (A) (A) (A) (A) (A) (A) (A) (A) (A) (A) (A) (A)
                 (A) (A) (A) (A) (A) (A)
       Virtual   (A) (A) (A) (A) (A) (A) (A) (A) (A) (A) (A) (A)
                 (A) (A) (A) (A) (A) (A) (A) (A) (A) (A) (A) (A)
                 (A) (A) (A) (A) (A) (A) (A) (A) (A) (A) (A) (A)
                 (A) (A) (A) (A) (A) (A) (A) (A) (A) (A) (A) (A)
                 (A) (A) (A) (A) (A) (A) (A) (A) (A) (A) (A) (A)
                 (A) (A) (A) (A) (A) (A) (A) (A) (A) (A) (A) (A)
                 (A) (A) (A) (A) (A) (A) (A) (A) (A) (A) (A) (A)
                 (A) (A) (A) (A) (A) (A) (A) (A) (A) (A) (A) (A)
                 (A) (A) (A) (A) (A) (A) (A) (A) (A) (A) (A) (A)
                 (A) (A) (A) (A) (A) (A) (A) (A) (A) (A) (A) (A)
                 (A) (A) (A) (A) (A) (A) (A) (A) (A) (A) (A) (A)
                 (A) (A) (A) (A) (A) (A) (A) (A) (A) (A) (A) (A)
                 (A) (A) (A) (A) (A) (A) (A) (A) (A) (A) (A) (A)
                 (A) (A) (A) (A) (A) (A) (A) (A) (A) (A) (A) (A)
                 (A) (A) (A) (A) (A) (A) (A) (A) (A) (A) (A) (A)
                 (A) (A) (A) (A) (A) (A) (A) (A) (A) (A) (A) (A)
                 (A) (A) (A) (A) (A) (A) (A) (A) (A) (A) (A) (A)
                 (A) (A) (A) (A) (A) (A) (A) (A) (A) (A) (A) (A)
                 (A) (A) (A) (A) (A) (A) (A) (A) (A) (A) (A) (A)
                 (A) (A) (A) (A) (A) (A) (A) (A) (A) (A) (A) (A)
                 (A) (A) (A) (A) (A) (A) (A) (A) (A) (A) (A) (A)
                 (A) (A) (A) (A) (A) (A) (A) (A) (A) (A) (A) (A)
                 (A) (A) (A) (A) (A) (A) (A) (A) (A) (A) (A) (A)
                 (A) (A) (A) (A) (A) (A) (A) (A) (A)
 The electronic state is 1-A.
 Alpha  occ. eigenvalues --  -89.04812 -19.01723 -19.01214 -14.25693 -14.19125
 Alpha  occ. eigenvalues --  -10.13627 -10.13279 -10.13223 -10.12999 -10.12976
 Alpha  occ. eigenvalues --  -10.12566 -10.12556 -10.12248 -10.12043 -10.11365
 Alpha  occ. eigenvalues --  -10.11251 -10.10981 -10.10948 -10.10209 -10.09549
 Alpha  occ. eigenvalues --  -10.08356  -8.01682  -5.95862  -5.95796  -5.95746
 Alpha  occ. eigenvalues --   -0.97141  -0.84592  -0.83892  -0.79025  -0.76288
 Alpha  occ. eigenvalues --   -0.73432  -0.71015  -0.69667  -0.66850  -0.65021
 Alpha  occ. eigenvalues --   -0.63421  -0.61454  -0.55177  -0.53874  -0.52949
 Alpha  occ. eigenvalues --   -0.51970  -0.50490  -0.45804  -0.44661  -0.44011
 Alpha  occ. eigenvalues --   -0.41212  -0.40819  -0.39679  -0.37775  -0.37011
 Alpha  occ. eigenvalues --   -0.35621  -0.34449  -0.33870  -0.33160  -0.32714
 Alpha  occ. eigenvalues --   -0.31856  -0.31557  -0.30955  -0.30750  -0.28958
 Alpha  occ. eigenvalues --   -0.28735  -0.26518  -0.26249  -0.24529  -0.24250
 Alpha  occ. eigenvalues --   -0.23478  -0.20948  -0.19048  -0.18071  -0.16544
 Alpha  occ. eigenvalues --   -0.16485  -0.15471  -0.15156  -0.14476  -0.13649
 Alpha  occ. eigenvalues --   -0.13393  -0.08891  -0.05891
 Alpha virt. eigenvalues --    0.07496   0.10289   0.10522   0.10841   0.15677
 Alpha virt. eigenvalues --    0.17818   0.18935   0.20630   0.21085   0.21575
 Alpha virt. eigenvalues --    0.22177   0.22748   0.25114   0.25354   0.25561
 Alpha virt. eigenvalues --    0.26306   0.27421   0.27981   0.29472   0.29817
 Alpha virt. eigenvalues --    0.30575   0.32676   0.33357   0.33701   0.34190
 Alpha virt. eigenvalues --    0.36557   0.37130   0.38106   0.40361   0.40452
 Alpha virt. eigenvalues --    0.41594   0.42114   0.43332   0.43933   0.44316
 Alpha virt. eigenvalues --    0.45059   0.45555   0.46451   0.47721   0.48999
 Alpha virt. eigenvalues --    0.49823   0.51855   0.52587   0.53018   0.54800
 Alpha virt. eigenvalues --    0.55553   0.56173   0.57495   0.58438   0.58685
 Alpha virt. eigenvalues --    0.59580   0.60405   0.61181   0.61588   0.62385
 Alpha virt. eigenvalues --    0.62747   0.63228   0.63728   0.64627   0.65505
 Alpha virt. eigenvalues --    0.65789   0.66809   0.67516   0.68191   0.69214
 Alpha virt. eigenvalues --    0.69736   0.70415   0.70790   0.71779   0.72999
 Alpha virt. eigenvalues --    0.74124   0.75509   0.75621   0.76957   0.77612
 Alpha virt. eigenvalues --    0.78631   0.79147   0.79865   0.80962   0.81100
 Alpha virt. eigenvalues --    0.82610   0.82992   0.83480   0.83949   0.84293
 Alpha virt. eigenvalues --    0.85299   0.85437   0.86124   0.86687   0.87082
 Alpha virt. eigenvalues --    0.87563   0.88246   0.89165   0.89348   0.89966
 Alpha virt. eigenvalues --    0.91088   0.91367   0.92447   0.92969   0.93937
 Alpha virt. eigenvalues --    0.94986   0.95235   0.95685   0.97899   0.98715
 Alpha virt. eigenvalues --    0.99819   1.00671   1.01273   1.02447   1.03050
 Alpha virt. eigenvalues --    1.05063   1.05439   1.08378   1.09478   1.10169
 Alpha virt. eigenvalues --    1.10554   1.12362   1.14248   1.15339   1.17843
 Alpha virt. eigenvalues --    1.18794   1.19363   1.20689   1.22734   1.24646
 Alpha virt. eigenvalues --    1.25717   1.26413   1.27705   1.28735   1.30439
 Alpha virt. eigenvalues --    1.30715   1.33440   1.34053   1.34344   1.35531
 Alpha virt. eigenvalues --    1.36451   1.36869   1.37911   1.39130   1.40108
 Alpha virt. eigenvalues --    1.40596   1.41956   1.42286   1.43312   1.45033
 Alpha virt. eigenvalues --    1.46800   1.47385   1.48872   1.49514   1.51661
 Alpha virt. eigenvalues --    1.53188   1.54480   1.57184   1.57517   1.58874
 Alpha virt. eigenvalues --    1.61448   1.62964   1.64450   1.67651   1.70470
 Alpha virt. eigenvalues --    1.75267   1.78484   1.79796   1.80022   1.81746
 Alpha virt. eigenvalues --    1.82365   1.82481   1.84309   1.86242   1.87040
 Alpha virt. eigenvalues --    1.87492   1.87835   1.88591   1.89667   1.90117
 Alpha virt. eigenvalues --    1.90856   1.92369   1.92489   1.93471   1.94835
 Alpha virt. eigenvalues --    1.94856   1.96252   1.97650   1.98215   1.98958
 Alpha virt. eigenvalues --    2.01098   2.01789   2.03074   2.04864   2.06212
 Alpha virt. eigenvalues --    2.08357   2.09803   2.10741   2.11588   2.12084
 Alpha virt. eigenvalues --    2.12292   2.13220   2.15479   2.17186   2.17715
 Alpha virt. eigenvalues --    2.18709   2.22624   2.23823   2.25336   2.26234
 Alpha virt. eigenvalues --    2.28943   2.30222   2.31581   2.32305   2.32828
 Alpha virt. eigenvalues --    2.33157   2.34213   2.34477   2.36188   2.38622
 Alpha virt. eigenvalues --    2.39403   2.40298   2.41794   2.42992   2.44008
 Alpha virt. eigenvalues --    2.47139   2.48303   2.49476   2.51585   2.51820
 Alpha virt. eigenvalues --    2.52407   2.53994   2.55183   2.57394   2.57906
 Alpha virt. eigenvalues --    2.62486   2.65205   2.65888   2.67288   2.68806
 Alpha virt. eigenvalues --    2.69213   2.70551   2.72608   2.73457   2.78290
 Alpha virt. eigenvalues --    2.78791   2.80431   2.81462   2.81858   2.82270
 Alpha virt. eigenvalues --    2.83216   2.84588   2.85021   2.85564   2.86563
 Alpha virt. eigenvalues --    2.89783   2.92447   2.93035   2.94369   2.96799
 Alpha virt. eigenvalues --    2.98069   3.01394   3.03881   3.04841   3.05627
 Alpha virt. eigenvalues --    3.06681   3.09750   3.13449   3.16117   3.17446
 Alpha virt. eigenvalues --    3.19898   3.22246   3.23676   3.25367   3.27909
 Alpha virt. eigenvalues --    3.31678   3.33312   3.38058   3.42060   3.44717
 Alpha virt. eigenvalues --    3.48107   3.49496   3.54086   3.54845   3.58131
 Alpha virt. eigenvalues --    3.59643   3.68436   3.83437   3.93695   3.97702
     Molecular Orbital Coefficients:
                          74        75        76        77        78
                           O         O         O         O         O
     Eigenvalues --    -0.14476  -0.13649  -0.13393  -0.08891  -0.05891
   1 1   S  1S          0.00002   0.00198  -0.00134   0.00679  -0.00090
   2        2S          0.00012   0.01286  -0.00873   0.04550  -0.00618
   3        3S         -0.00106  -0.00511   0.00290  -0.08910   0.01123
   4        4S          0.00432  -0.10552   0.08058  -0.02797   0.01693
   5        5PX        -0.00207   0.00493  -0.01577  -0.04734   0.00599
   6        5PY        -0.00017  -0.01360   0.00981  -0.02528  -0.00697
   7        5PZ         0.00114  -0.01352   0.01937   0.00590  -0.00597
   8        6PX        -0.00379   0.01133  -0.03824  -0.09857   0.01073
   9        6PY        -0.00138  -0.02172   0.01582  -0.05174  -0.00619
  10        6PZ         0.00310  -0.03282   0.04400   0.01870  -0.01049
  11        7PX        -0.01061   0.00660   0.03263  -0.06474   0.04208
  12        7PY         0.01107  -0.07872   0.05564  -0.02645  -0.09849
  13        7PZ        -0.00602   0.03541  -0.02491  -0.06648  -0.00982
  14        8D 0       -0.00665   0.01621   0.03609   0.02496   0.00778
  15        8D+1       -0.00484   0.06045  -0.03753  -0.04022  -0.04370
  16        8D-1        0.00017  -0.01906   0.04148  -0.00119  -0.00596
  17        8D+2       -0.01045   0.05366  -0.04608  -0.00328   0.06034
  18        8D-2       -0.00188   0.01852  -0.04754  -0.04809  -0.01814
  19 2   O  1S          0.00027  -0.00340   0.00352  -0.00589  -0.00052
  20        2S          0.00072  -0.00860   0.01119  -0.01026  -0.00294
  21        3S         -0.00411   0.02417  -0.02135  -0.04926   0.01554
  22        4PX        -0.00734  -0.05523   0.16455  -0.06304   0.01512
  23        4PY         0.03566  -0.25798   0.09640  -0.11686   0.12457
  24        4PZ        -0.00153   0.10931  -0.14802  -0.00106   0.00499
  25        5PX        -0.00602  -0.04009   0.12145  -0.05335   0.01477
  26        5PY         0.02668  -0.19034   0.06788  -0.08364   0.10694
  27        5PZ        -0.00179   0.08611  -0.12042  -0.01374   0.01423
  28        6D 0        0.00046   0.00185  -0.00640   0.00084   0.00124
  29        6D+1        0.00005  -0.00224   0.00334  -0.00501   0.00057
  30        6D-1        0.00122  -0.01035   0.00532  -0.00538   0.00413
  31        6D+2        0.00007  -0.00381   0.00429  -0.00299   0.00275
  32        6D-2        0.00087  -0.00496   0.00017  -0.00189   0.00154
  33 3   O  1S         -0.00052  -0.00181   0.00293   0.00046  -0.00683
  34        2S         -0.00090  -0.00645   0.00831   0.00261  -0.01359
  35        3S          0.00146  -0.00355   0.00301   0.00152  -0.05716
  36        4PX        -0.01058   0.09732   0.10586   0.24635  -0.13093
  37        4PY         0.00858   0.02960  -0.02402   0.07330  -0.08922
  38        4PZ        -0.03683   0.26910  -0.21073   0.03269   0.01212
  39        5PX        -0.00587   0.07232   0.07983   0.20304  -0.10515
  40        5PY         0.00604   0.02891  -0.02215   0.06207  -0.08210
  41        5PZ        -0.02770   0.20428  -0.16275   0.03135   0.01536
  42        6D 0        0.00020  -0.00358   0.00365  -0.00032   0.00051
  43        6D+1        0.00025  -0.00136  -0.00014  -0.00235  -0.00022
  44        6D-1       -0.00147   0.01011  -0.00760   0.00136   0.00010
  45        6D+2        0.00024  -0.00351   0.00031  -0.00416   0.00406
  46        6D-2       -0.00048   0.00396   0.00375   0.00737  -0.00485
  47 4   N  1S         -0.00201   0.06421   0.06248  -0.03337   0.00793
  48        2S         -0.00358   0.13577   0.13219  -0.07547   0.01853
  49        3S         -0.00784   0.14261   0.13053  -0.04171   0.01182
  50        4PX        -0.00806   0.19698   0.23452  -0.13880   0.00840
  51        4PY        -0.00544   0.12099   0.08172  -0.00535   0.02349
  52        4PZ        -0.01407   0.22673   0.20667  -0.08732   0.03349
  53        5PX         0.00174  -0.14292  -0.16807   0.07775   0.01142
  54        5PY         0.00837  -0.08971  -0.05763  -0.01941  -0.02314
  55        5PZ         0.00926  -0.15829  -0.15093   0.05861  -0.02724
  56        6D 0        0.00710  -0.00166  -0.00179   0.00007   0.00412
  57        6D+1       -0.00661  -0.01045  -0.00864   0.00429  -0.00529
  58        6D-1        0.00244  -0.00174   0.00007   0.00165   0.00030
  59        6D+2        0.00908  -0.00110  -0.00389   0.00652   0.00341
  60        6D-2        0.00324  -0.00725  -0.00646   0.00437   0.00046
  61 5   N  1S          0.00130   0.01103  -0.01663   0.08038  -0.01057
  62        2S          0.00194   0.02027  -0.03667   0.16984  -0.01555
  63        3S          0.00434   0.07433  -0.09333   0.14862  -0.04839
  64        4PX         0.00472   0.05018  -0.09990  -0.07252  -0.14489
  65        4PY        -0.02056  -0.01867  -0.08928  -0.20075   0.36862
  66        4PZ         0.00191  -0.02328  -0.00473   0.35932   0.08050
  67        5PX        -0.00507  -0.04951   0.09093   0.02770   0.12871
  68        5PY         0.01503   0.01149   0.08738   0.11718  -0.30328
  69        5PZ         0.00075   0.01334  -0.02733  -0.29216  -0.09449
  70        6D 0       -0.00038   0.00234   0.00301  -0.00982  -0.00490
  71        6D+1        0.00044  -0.00449   0.00200   0.00591   0.00765
  72        6D-1        0.00082  -0.00060   0.00194   0.01536  -0.00893
  73        6D+2       -0.00017  -0.00238   0.00019   0.00001  -0.01090
  74        6D-2       -0.00052   0.00299  -0.00378  -0.00381   0.00354
  75 6   C  1S          0.00008   0.02205   0.02174  -0.01091   0.00268
  76        2S          0.00018  -0.05330  -0.05247   0.03142  -0.00784
  77        3S         -0.00100  -0.01833  -0.02707   0.03989  -0.00806
  78        4PX         0.13403   0.11320   0.08835  -0.00632   0.06727
  79        4PY        -0.15803   0.02592   0.06143  -0.05664  -0.06659
  80        4PZ        -0.09831   0.01073   0.03154  -0.02919  -0.04238
  81        5PX         0.09879  -0.00982  -0.03196   0.05978   0.04623
  82        5PY        -0.10795  -0.05377  -0.02205  -0.01721  -0.06896
  83        5PZ        -0.06529  -0.02137  -0.00746   0.00560  -0.04598
  84        6D 0       -0.00308  -0.00744  -0.00721   0.00487  -0.00066
  85        6D+1       -0.00027   0.01022   0.00893  -0.00364   0.00132
  86        6D-1       -0.00489   0.01501   0.01392  -0.00656   0.00263
  87        6D+2        0.00459   0.00416   0.00774  -0.00744  -0.00037
  88        6D-2       -0.00301   0.00474   0.00399  -0.00225   0.00126
  89 7   H  1S          0.00476  -0.07620  -0.07669   0.04003  -0.00829
  90        2S          0.00378  -0.04343  -0.04361   0.03448  -0.00915
  91        3PX         0.00510   0.00275   0.00184   0.00006   0.00287
  92        3PY        -0.00595   0.00057   0.00178  -0.00178  -0.00302
  93        3PZ        -0.00355  -0.00074  -0.00008  -0.00121  -0.00168
  94 8   C  1S          0.00050  -0.02125  -0.02011   0.01132  -0.00350
  95        2S         -0.00113   0.05519   0.05290  -0.02882   0.00924
  96        3S         -0.00728   0.04930   0.05547  -0.09657   0.03002
  97        4PX         0.12534  -0.09848  -0.08225   0.01503  -0.01603
  98        4PY        -0.13961  -0.00688  -0.02661   0.03430   0.00685
  99        4PZ        -0.08711  -0.04329  -0.05843   0.04191   0.00191
 100        5PX         0.09946  -0.06237  -0.05069   0.01923  -0.02037
 101        5PY        -0.10900   0.04103   0.02151   0.02788   0.01503
 102        5PZ        -0.06712  -0.07970  -0.09137   0.05821   0.00213
 103        6D 0        0.00537   0.00454   0.00214   0.00151   0.00522
 104        6D+1       -0.00143   0.00048   0.00248  -0.00154  -0.00254
 105        6D-1        0.00557   0.00281   0.00118   0.00204   0.00397
 106        6D+2       -0.00497   0.00021   0.00098  -0.00048  -0.00154
 107        6D-2        0.00400  -0.00097  -0.00273   0.00273   0.00294
 108 9   C  1S          0.00115  -0.01290  -0.02035   0.00132   0.00335
 109        2S         -0.00401   0.03577   0.05430  -0.00984  -0.00778
 110        3S         -0.00583   0.01624   0.05141  -0.06611  -0.00102
 111        4PX        -0.15591  -0.07305  -0.09506   0.02886   0.01517
 112        4PY         0.17777  -0.01543  -0.03716  -0.01759  -0.00524
 113        4PZ         0.12846  -0.06568  -0.08597   0.01430  -0.00594
 114        5PX        -0.10955  -0.04330  -0.06985   0.04595  -0.02161
 115        5PY         0.12559  -0.03327  -0.03896  -0.04172   0.00527
 116        5PZ         0.09212  -0.00009  -0.04358   0.08326  -0.02882
 117        6D 0       -0.00617  -0.00475  -0.00085  -0.00182  -0.01243
 118        6D+1        0.00227   0.00330   0.00166   0.00349   0.00660
 119        6D-1       -0.00545   0.00174   0.00251  -0.00364  -0.00548
 120        6D+2        0.00230  -0.00115   0.00126  -0.00201  -0.00127
 121        6D-2       -0.00456  -0.00029  -0.00004  -0.00477  -0.00582
 122 10  C  1S         -0.00173   0.01173   0.00975  -0.00252  -0.00020
 123        2S          0.00386  -0.02934  -0.02696   0.00415  -0.00006
 124        3S          0.00638  -0.05498  -0.05649  -0.02172   0.01145
 125        4PX         0.01943   0.07190   0.02520   0.06553   0.15269
 126        4PY        -0.02317  -0.05486  -0.01259  -0.05120  -0.15664
 127        4PZ        -0.01845   0.00281   0.03370  -0.07207  -0.11060
 128        5PX         0.01151   0.04266   0.01331   0.05136   0.15221
 129        5PY        -0.01387  -0.05185   0.00339  -0.07664  -0.13048
 130        5PZ        -0.01188   0.00224  -0.00099  -0.02495  -0.11840
 131        6D 0       -0.00868   0.00103   0.00221   0.00047  -0.00046
 132        6D+1        0.00900   0.00508   0.00427  -0.00182   0.00083
 133        6D-1        0.00056   0.00323   0.00234  -0.00137   0.00108
 134        6D+2       -0.01250  -0.00041   0.00246  -0.00249  -0.00102
 135        6D-2       -0.00413  -0.00125  -0.00149  -0.00024   0.00032
 136 11  C  1S         -0.00004   0.00104   0.00233   0.00990  -0.00319
 137        2S          0.00166  -0.00393  -0.00600  -0.02471   0.00784
 138        3S         -0.01196   0.02712  -0.04946  -0.03085   0.01056
 139        4PX         0.16184   0.02036  -0.01772   0.04818   0.01270
 140        4PY        -0.15741  -0.05517  -0.01508  -0.01891  -0.02231
 141        4PZ        -0.13857  -0.04230  -0.00685   0.02500  -0.03268
 142        5PX         0.12229   0.00486   0.03225   0.00852   0.01686
 143        5PY        -0.11728  -0.04824   0.02086  -0.02211  -0.00066
 144        5PZ        -0.10010  -0.03511   0.01329   0.00409  -0.01510
 145        6D 0        0.00510   0.00075   0.00027   0.00065  -0.00628
 146        6D+1       -0.00033   0.00072   0.00102  -0.00149  -0.00447
 147        6D-1        0.00412  -0.00063   0.00068  -0.00625  -0.00768
 148        6D+2       -0.00417   0.00444   0.00120   0.00565   0.01678
 149        6D-2        0.00304  -0.00049  -0.00052  -0.00377  -0.00238
 150 12  H  1S         -0.00060  -0.00008  -0.00108   0.03440  -0.01393
 151        2S         -0.00040  -0.00897   0.00436   0.03873  -0.01396
 152        3PX         0.00582   0.00129  -0.00089   0.00238   0.00023
 153        3PY        -0.00582  -0.00144  -0.00069   0.00063  -0.00105
 154        3PZ        -0.00511  -0.00135  -0.00050   0.00013  -0.00095
 155 13  C  1S         -0.00416   0.00106  -0.00980  -0.02127   0.00963
 156        2S          0.01146  -0.00177   0.02119   0.05558  -0.02519
 157        3S          0.00612  -0.00822   0.04781   0.17588  -0.06464
 158        4PX         0.14014   0.01465   0.00343  -0.08515  -0.13681
 159        4PY        -0.14350   0.04389   0.02304   0.11395   0.13336
 160        4PZ        -0.12740   0.00773  -0.00929  -0.03714   0.16191
 161        5PX         0.10084   0.00016   0.04369  -0.08031  -0.11955
 162        5PY        -0.10104   0.07034  -0.00213   0.12826   0.11018
 163        5PZ        -0.07996  -0.04939   0.05714  -0.08605   0.17353
 164        6D 0       -0.00508  -0.00322   0.00097  -0.00377  -0.00356
 165        6D+1       -0.00015   0.00205   0.00299  -0.00132   0.00295
 166        6D-1       -0.00501  -0.00233   0.00137  -0.00282   0.00026
 167        6D+2        0.00635   0.00063   0.00151  -0.00373  -0.00201
 168        6D-2       -0.00283  -0.00276  -0.00209  -0.00193  -0.00151
 169 14  H  1S          0.00260  -0.02819  -0.02279  -0.00301  -0.00081
 170        2S         -0.00330   0.06135  -0.04835   0.02439  -0.01135
 171        3PX         0.00537  -0.00235  -0.00016  -0.00278  -0.00562
 172        3PY        -0.00472  -0.00099   0.00026   0.00167   0.00528
 173        3PZ        -0.00442  -0.00072  -0.00092   0.00036   0.00532
 174 15  C  1S         -0.00036   0.02458   0.00781   0.01556  -0.00287
 175        2S          0.00074  -0.06322  -0.01956  -0.03999   0.01007
 176        3S          0.01138  -0.19837  -0.03751   0.12396   0.00645
 177        4PX         0.00335  -0.05823  -0.08969   0.01788  -0.05316
 178        4PY        -0.01142   0.02106  -0.06089   0.04399   0.06352
 179        4PZ        -0.00023   0.08201   0.00307   0.13632   0.01534
 180        5PX         0.00536  -0.09662  -0.08588   0.03573  -0.04365
 181        5PY        -0.00327  -0.00893  -0.09058   0.20620  -0.04608
 182        5PZ        -0.00151   0.01864   0.03817  -0.12724   0.05135
 183        6D 0       -0.00819  -0.00074   0.00554   0.01956   0.01242
 184        6D+1        0.00827   0.00289   0.00539   0.00073  -0.00397
 185        6D-1       -0.00169   0.00199  -0.00103  -0.00722   0.01873
 186        6D+2       -0.01080   0.00308   0.00178  -0.00890  -0.00895
 187        6D-2       -0.00522  -0.00063  -0.00513  -0.00916   0.02027
 188 16  C  1S          0.00181   0.01700   0.02818   0.01375  -0.01146
 189        2S         -0.00586  -0.04651  -0.06858  -0.03674   0.02999
 190        3S          0.00163   0.10099   0.03137  -0.18088   0.05395
 191        4PX        -0.14953   0.04075   0.09657   0.00559  -0.11450
 192        4PY         0.17968  -0.00793   0.01490   0.08849   0.06804
 193        4PZ         0.10693   0.10428   0.09559  -0.01920   0.07612
 194        5PX        -0.09449  -0.04341  -0.03248   0.15895  -0.14221
 195        5PY         0.12328  -0.05468  -0.03143   0.17312   0.03330
 196        5PZ         0.07298   0.03767  -0.00692   0.04868   0.05726
 197        6D 0        0.00426   0.00754   0.00522   0.00160   0.00248
 198        6D+1       -0.00003   0.00910   0.01442  -0.00730  -0.00228
 199        6D-1        0.00420   0.00705   0.00914  -0.00574   0.00135
 200        6D+2       -0.00723   0.00942   0.00863   0.00036   0.00240
 201        6D-2        0.00316  -0.00500  -0.00589   0.00172   0.00069
 202 17  C  1S          0.00098  -0.00028   0.00314   0.00501  -0.00130
 203        2S         -0.00259   0.00091  -0.00697  -0.01204   0.00250
 204        3S         -0.00064   0.08460   0.06467   0.00854   0.01431
 205        4PX        -0.02735  -0.02303   0.02841  -0.02081  -0.05584
 206        4PY         0.03261   0.04583   0.01945   0.04254   0.05095
 207        4PZ         0.01839   0.03796   0.01231   0.01567   0.03678
 208        5PX        -0.02761  -0.04303  -0.00028  -0.03381  -0.04080
 209        5PY         0.03017   0.03266   0.01473   0.02228   0.03370
 210        5PZ         0.01869  -0.00836  -0.02316   0.00217   0.03928
 211        6D 0        0.00793  -0.00061   0.00009  -0.00213  -0.00143
 212        6D+1       -0.00892   0.00491   0.00535   0.00043   0.00100
 213        6D-1        0.00117   0.00234   0.00400  -0.00135  -0.00144
 214        6D+2        0.01154   0.00210   0.00279  -0.00167  -0.00099
 215        6D-2        0.00303  -0.00099  -0.00016  -0.00002  -0.00140
 216 18  H  1S         -0.00144   0.03031   0.04120  -0.00390  -0.00291
 217        2S         -0.00076   0.03058   0.03597   0.00471  -0.00860
 218        3PX        -0.00110  -0.00106   0.00066  -0.00064  -0.00247
 219        3PY         0.00118   0.00168   0.00041   0.00201   0.00216
 220        3PZ         0.00077   0.00161   0.00036   0.00057   0.00145
 221 19  C  1S         -0.00391   0.01325  -0.02298  -0.01946  -0.00661
 222        2S          0.00672  -0.04031   0.06070   0.04485   0.02318
 223        3S          0.03769  -0.00840   0.15008   0.14544  -0.03989
 224        4PX         0.01755  -0.04131   0.03901   0.05142   0.02456
 225        4PY        -0.00467   0.05301  -0.07263  -0.03269  -0.00207
 226        4PZ         0.01221   0.06854  -0.14156  -0.10211  -0.05662
 227        5PX         0.00968  -0.00608   0.02487   0.00472  -0.04507
 228        5PY         0.00126   0.02232  -0.01575  -0.04778  -0.05025
 229        5PZ         0.01998   0.03074  -0.08296  -0.08993  -0.08167
 230        6D 0        0.00107  -0.00325   0.00138   0.00203   0.00100
 231        6D+1        0.00027   0.00392  -0.00728   0.00186   0.00403
 232        6D-1        0.00023  -0.00424   0.00592   0.00383   0.00197
 233        6D+2        0.00015  -0.00074   0.00032  -0.00287  -0.00241
 234        6D-2        0.00012  -0.00086   0.00035  -0.00175  -0.00308
 235 20  H  1S          0.01437   0.01027  -0.05440  -0.00286   0.00899
 236        2S         -0.03454   0.00729  -0.05799  -0.00114   0.09229
 237        3PX        -0.00154  -0.00076   0.00319   0.00263   0.00370
 238        3PY         0.00012   0.00006  -0.00167  -0.00018   0.00057
 239        3PZ        -0.00039   0.00097  -0.00261  -0.00162  -0.00019
 240 21  H  1S         -0.00478   0.00463   0.00217  -0.03962  -0.04035
 241        2S         -0.00658   0.01819  -0.04274  -0.08993  -0.04918
 242        3PX         0.00056  -0.00021  -0.00121  -0.00037   0.00125
 243        3PY        -0.00028   0.00239  -0.00247  -0.00160  -0.00118
 244        3PZ         0.00028   0.00165  -0.00287  -0.00276  -0.00246
 245 22  C  1S          0.00170  -0.00962   0.00738   0.00161  -0.00558
 246        2S         -0.00623   0.03091  -0.01660  -0.00116   0.01171
 247        3S          0.01806  -0.01547  -0.06501  -0.06567   0.10028
 248        4PX        -0.00385   0.02206  -0.01755  -0.00700   0.00892
 249        4PY         0.00983  -0.04693   0.05248   0.01222  -0.01277
 250        4PZ         0.00530  -0.09529   0.12144   0.02602  -0.01018
 251        5PX        -0.00103  -0.00656  -0.04491   0.01386   0.08284
 252        5PY         0.01703  -0.02724   0.04570   0.00947   0.00252
 253        5PZ        -0.00094  -0.05145   0.08839   0.03307  -0.01246
 254        6D 0        0.00008  -0.00002  -0.00088  -0.00041  -0.00049
 255        6D+1        0.00043   0.00250  -0.00306  -0.00139   0.00054
 256        6D-1        0.00022  -0.00645   0.00951   0.00557   0.00164
 257        6D+2        0.00019  -0.00106   0.00028   0.00046   0.00002
 258        6D-2       -0.00039   0.00024  -0.00020  -0.00180   0.00013
 259 23  C  1S          0.00201  -0.00024   0.00294   0.00441  -0.00258
 260        2S         -0.00527   0.00433  -0.01145  -0.01410   0.01248
 261        3S         -0.01761  -0.01215   0.04838   0.02072  -0.06281
 262        4PX        -0.00766  -0.00201  -0.01783  -0.01125   0.01107
 263        4PY         0.00173   0.00077   0.00163   0.00847  -0.00305
 264        4PZ         0.00813  -0.08040   0.11747   0.04228   0.00759
 265        5PX         0.00724   0.00303  -0.01983  -0.01113   0.00550
 266        5PY         0.00707  -0.02158  -0.00393   0.00063   0.08653
 267        5PZ         0.00298  -0.05931   0.07337   0.02546   0.03157
 268        6D 0       -0.00005  -0.00089   0.00066  -0.00018   0.00022
 269        6D+1       -0.00035   0.00275  -0.00401  -0.00132   0.00117
 270        6D-1        0.00014   0.00407  -0.00446  -0.00075  -0.00145
 271        6D+2        0.00044  -0.00218   0.00142   0.00045   0.00026
 272        6D-2       -0.00008  -0.00021   0.00021  -0.00012   0.00033
 273 24  C  1S         -0.00029  -0.00065  -0.00054  -0.00137   0.00070
 274        2S          0.00062   0.00153   0.00305   0.00436  -0.00427
 275        3S          0.00756   0.02811  -0.01769  -0.00509  -0.04949
 276        4PX         0.00065   0.00699  -0.00382   0.00185  -0.00110
 277        4PY        -0.00002  -0.00785   0.00548  -0.00257   0.00160
 278        4PZ         0.00676   0.03180  -0.02474  -0.00604  -0.02101
 279        5PX        -0.00741   0.00464  -0.00611  -0.00321  -0.01155
 280        5PY         0.00088  -0.01933   0.02389   0.01197   0.01591
 281        5PZ         0.00628   0.02263  -0.01206   0.00002  -0.03232
 282        6D 0        0.00003  -0.00019   0.00045   0.00021   0.00007
 283        6D+1        0.00018  -0.00553   0.00734   0.00265   0.00079
 284        6D-1       -0.00036   0.00393  -0.00582  -0.00236  -0.00029
 285        6D+2       -0.00031  -0.00012  -0.00032  -0.00022   0.00046
 286        6D-2        0.00032  -0.00058   0.00132   0.00055  -0.00018
 287 25  H  1S          0.00168  -0.00239   0.00510   0.00139  -0.00125
 288        2S          0.00124   0.00101  -0.00006  -0.00244   0.00259
 289        3PX         0.00020   0.00000   0.00024   0.00034   0.00018
 290        3PY        -0.00006  -0.00001  -0.00023  -0.00022  -0.00022
 291        3PZ         0.00019   0.00149  -0.00152  -0.00059  -0.00051
 292 26  C  1S          0.00063  -0.00115   0.00255   0.00099  -0.00133
 293        2S         -0.00170   0.00199  -0.00476  -0.00197   0.00255
 294        3S         -0.01014  -0.00322  -0.00848   0.00736   0.02081
 295        4PX        -0.00130  -0.00122  -0.00354  -0.00387   0.00064
 296        4PY         0.00015   0.00762  -0.00827  -0.00263  -0.00283
 297        4PZ        -0.00225   0.10358  -0.13418  -0.04602  -0.01298
 298        5PX        -0.00437  -0.00346  -0.00623  -0.00870  -0.00111
 299        5PY        -0.00104   0.01361  -0.01570  -0.01466  -0.01077
 300        5PZ        -0.00179   0.08107  -0.10633  -0.04243  -0.00960
 301        6D 0       -0.00006   0.00021  -0.00038  -0.00011   0.00013
 302        6D+1        0.00048   0.00012   0.00086   0.00013  -0.00139
 303        6D-1        0.00026  -0.00124   0.00191   0.00011  -0.00073
 304        6D+2        0.00015  -0.00092   0.00109   0.00024  -0.00011
 305        6D-2        0.00000  -0.00049   0.00044  -0.00013   0.00006
 306 27  H  1S         -0.00006   0.00484  -0.00371   0.00047  -0.00044
 307        2S          0.00137   0.00028   0.00192   0.00397  -0.00171
 308        3PX         0.00001   0.00016  -0.00019  -0.00002   0.00007
 309        3PY         0.00002   0.00013  -0.00021   0.00001   0.00007
 310        3PZ        -0.00008   0.00434  -0.00560  -0.00197  -0.00073
 311 28  C  1S          0.00067  -0.00120   0.00048   0.00148   0.00016
 312        2S         -0.00171   0.00278  -0.00193  -0.00340   0.00062
 313        3S         -0.00281   0.02639  -0.00514  -0.02335  -0.03165
 314        4PX        -0.00344   0.01607  -0.02185  -0.00491   0.00511
 315        4PY         0.00275  -0.01087   0.01079   0.00564   0.00070
 316        4PZ        -0.00869   0.04239  -0.06867  -0.01030   0.02047
 317        5PX        -0.00188   0.02100  -0.01825  -0.01718  -0.00915
 318        5PY         0.00250  -0.01736   0.00627  -0.00132   0.00269
 319        5PZ        -0.00645   0.03243  -0.05366  -0.00358   0.02175
 320        6D 0       -0.00006  -0.00063   0.00062   0.00032   0.00041
 321        6D+1       -0.00018   0.00149  -0.00201  -0.00034   0.00003
 322        6D-1        0.00014   0.00615  -0.00776  -0.00340  -0.00122
 323        6D+2        0.00008  -0.00115   0.00100   0.00025   0.00000
 324        6D-2       -0.00011   0.00071  -0.00084  -0.00024   0.00038
 325 29  H  1S          0.00155  -0.00685   0.00628   0.00097  -0.00155
 326        2S          0.00137  -0.00366   0.00428  -0.00212  -0.00413
 327        3PX        -0.00012   0.00063  -0.00095  -0.00021   0.00026
 328        3PY         0.00002   0.00047  -0.00038   0.00006  -0.00011
 329        3PZ        -0.00032   0.00181  -0.00291  -0.00067   0.00080
 330 30  C  1S         -0.00074   0.00282  -0.00227  -0.00282  -0.00004
 331        2S          0.00149  -0.00496   0.00433   0.00645   0.00204
 332        3S         -0.00382  -0.03566  -0.01164   0.03827   0.05529
 333        4PX         0.00248  -0.01688   0.01441   0.00681  -0.00402
 334        4PY        -0.00354   0.00761  -0.00867  -0.00430  -0.00047
 335        4PZ        -0.00463  -0.06872   0.07999   0.03966   0.01559
 336        5PX        -0.00326  -0.00456  -0.00319   0.02820   0.01087
 337        5PY        -0.00077  -0.01049   0.00055   0.00527   0.00679
 338        5PZ        -0.00307  -0.05479   0.06824   0.02716   0.00590
 339        6D 0        0.00008  -0.00020   0.00029   0.00001  -0.00023
 340        6D+1        0.00040  -0.00483   0.00628   0.00119  -0.00090
 341        6D-1       -0.00035   0.00173  -0.00272   0.00021   0.00139
 342        6D+2        0.00032  -0.00140   0.00170   0.00076  -0.00028
 343        6D-2        0.00046  -0.00178   0.00208   0.00070  -0.00054
 344 31  H  1S          0.00238  -0.00476   0.00734   0.00510   0.00182
 345        2S          0.00172  -0.00349   0.00790   0.01780  -0.00442
 346        3PX         0.00020  -0.00070   0.00073   0.00016  -0.00001
 347        3PY         0.00002   0.00016  -0.00009   0.00072   0.00013
 348        3PZ        -0.00019  -0.00250   0.00274   0.00148   0.00065
 349 32  H  1S          0.00197  -0.04684  -0.04999   0.01768  -0.00316
 350        2S          0.00173  -0.06192  -0.06463   0.03046  -0.00857
 351        3PX         0.00445  -0.00136  -0.00069  -0.00029  -0.00028
 352        3PY        -0.00513   0.00122   0.00060   0.00064   0.00019
[...]
 18,-0.00232121,-0.00411130,-0.00161451,0.02406184,-0.04089874,0.037737
 63,-0.03852830,0.03659141,0.00059020,0.00056558,0.00081032,-0.00010072
 ,-0.00028444,-0.00013650,0.00002384,-0.00015946,-0.00037749,0.00000220
 ,0.00002581,-0.00003343,-0.00027560,0.00021100,-0.00026002,-0.00001864
 ,0.00001666,0.00000158,-0.00000380,-0.00000306,0.00000198,-0.00000687,
 -0.00002296,0.00000784,-0.00000331,0.00003691,-0.00000510,-0.00007744,
 0.00004740,-0.00000251,0.00005359,-0.00012228,0.00001831,0.00001172,0.
 00000480,-0.00000393,0.00005495,0.00014782,-0.00008364,-0.00001095,-0.
 00000960,0.00002360,0.00003297,-0.00033012,0.00010763,-0.00003344,-0.0
 0002516,0.00000097,0.00000918,0.00000413,-0.00000609,0.00000187,0.0000
 0333,0.00000040,-0.00081250,0.00087724,-0.00063487,0.00016462,-0.00009
 128,-0.00035074,-0.00006679,-0.00006289,0.00006227,0.00355558,-0.00141
 112,-0.00213476,0.00076672,-0.00038484,0.00009105,-0.00013528,-0.00052
 302,0.00206523,-0.00005631,-0.00014292,-0.00024844,0.00261901,-0.00174
 974,0.00228054,0.00050565,0.00021892,0.00147839,-0.11888477,0.05060373
 ,-0.28026066,0.12876650,-0.05416395,0.28843184,-0.00228295,-0.00256857
 ,-0.00031825,0.00019459,0.00072034,-0.00015030,-0.00001391,0.00081726,
 0.00111313,0.00002223,-0.00002096,-0.00008098,0.00090842,-0.00042201,0
 .00033128,0.00008738,-0.00001775,-0.00001005,0.00001126,0.00000824,0.0
 0000917,0.00003535,0.00001547,-0.00000942,-0.00002169,-0.00017215,0.00
 005155,0.00021434,-0.00008485,-0.00002915,-0.00015086,0.00026752,-0.00
 002882,-0.00000499,0.00000515,0.00000198,-0.00019050,-0.00034860,0.000
 14377,0.00004088,0.00003351,-0.00006468,-0.00014157,0.00079498,-0.0002
 1773,0.00002270,0.00000845,0.00000736,0.00000794,-0.00001153,-0.000015
 27,0.00000144,-0.00000208,0.00000794,0.00863221,-0.00584901,0.01377504
 ,-0.00098070,-0.00013900,0.00278740,0.00232045,-0.00154725,0.00238866,
 -0.18816400,0.09259149,-0.13476976,-0.02333346,0.02601126,-0.02408245,
 -0.00382876,-0.00183689,0.00060047,0.00063576,-0.00075895,-0.00016090,
 -0.02059959,0.00544440,0.03506390,-0.00450049,0.00538969,0.00095519,-0
 .17819553,0.00766828,0.17231821,0.01126577,0.00047243,-0.01662487,1.10
 823252,-0.00214452,-0.00287671,-0.00136581,0.00065099,0.00051400,-0.00
 053391,0.00056338,0.00029462,-0.00003147,0.00001262,-0.00001596,0.0000
 0479,0.00019778,0.00007882,-0.00014636,-0.00000515,-0.00001837,0.00000
 138,0.00000285,-0.00000042,0.00000747,-0.00000025,0.00000639,-0.000012
 12,0.00002433,0.00003048,-0.00001710,-0.00002318,0.00000204,0.00000441
 ,0.00001125,-0.00002333,0.00000643,0.00000005,0.00000294,-0.00000734,-
 0.00007195,0.00004000,-0.00002320,-0.00000430,0.00001493,0.00002238,0.
 00004704,0.00012459,-0.00010329,0.00003444,0.00000046,-0.00001114,-0.0
 0000190,-0.00000263,0.00000087,0.00000060,0.00000008,-0.00000120,0.001
 32550,0.00621968,0.00880034,0.00020733,-0.00039216,-0.00044874,0.00074
 592,0.00026836,-0.00145855,0.07073076,-0.13600559,0.12302486,0.0362277
 4,-0.00696996,-0.00043504,-0.00100361,-0.01208164,0.01762736,-0.000729
 99,-0.00086910,0.00037299,-0.00778992,0.01989919,-0.01907641,0.0057220
 3,0.00540004,0.00105541,0.02936422,-0.06856373,0.00658778,-0.00483276,
 0.00096876,0.00660224,-0.47732782,0.29990235,0.00493601,0.00539506,0.0
 0325596,-0.00077373,-0.00075992,0.00044802,-0.00035186,-0.00095595,-0.
 00145989,-0.00004797,0.00006515,0.00003163,-0.00177720,0.00056884,-0.0
 0024077,-0.00009350,0.00002067,0.00001315,-0.00001086,-0.00000797,-0.0
 0000871,-0.00001849,-0.00002685,0.00001549,0.00006137,0.00021095,-0.00
 007311,-0.00035440,0.00016866,0.00004079,0.00022062,-0.00047707,0.0000
 1771,0.00002469,0.00000175,-0.00001016,0.00011687,0.00054858,-0.000397
 81,-0.00004296,-0.00002954,0.00007999,0.00013725,-0.00087650,0.0002661
 7,-0.00004308,-0.00002028,0.00003401,-0.00002080,0.00000251,0.00000687
 ,0.00000279,0.00000604,-0.00000162,-0.00979445,0.01321981,-0.03331508,
 0.00101193,-0.00054038,-0.00237653,-0.00404743,0.00090658,0.00031142,-
 0.06503653,0.09706626,-0.28686420,-0.06123449,0.01758274,0.04766476,-0
 .00614955,0.01712341,-0.06713126,-0.00004128,0.00115778,-0.00120132,0.
 07576774,-0.03962262,0.01383794,0.00141761,0.00250827,0.00251448,0.110
 70871,0.02980305,-0.42227527,0.01191471,0.00313330,-0.01236256,-0.1771
 3271,-0.09325975,0.75262996,0.00008431,0.00096875,-0.00054875,0.000098
 84,-0.00041924,0.00043652,-0.00001531,-0.00023080,-0.00009701,0.000001
 17,-0.00000458,-0.00001753,0.00012791,-0.00022920,0.00002342,0.0000121
 3,0.00000251,-0.00000082,-0.00000027,0.00000071,0.00000054,0.00000317,
 -0.00000029,0.00000095,-0.00000062,-0.00001716,0.00000806,0.00002040,-
 0.00001076,-0.00000573,-0.00001505,0.00002065,-0.00000312,0.00000029,0
 .00000112,0.00000076,-0.00002129,-0.00004437,0.00001109,0.00000795,0.0
 0000208,0.00000106,0.00001167,0.00004573,0.00001183,0.00000729,-0.0000
 1342,0.00000334,0.00000212,-0.00000120,-0.00000373,0.00000051,0.,0.000
 00133,-0.00001238,-0.00351792,0.00098307,0.00010114,0.00004783,0.00056
 337,0.00069938,0.00025070,-0.00066808,-0.00797457,0.00550372,0.0082105
 0,0.00106221,0.00438972,-0.00179487,0.00056265,-0.00045440,-0.00122702
 ,-0.00037831,-0.00049298,-0.00013769,0.00345624,0.00252192,0.00333831,
 -0.00027134,0.00032390,-0.00009340,-0.00704953,0.00795701,-0.00171178,
 0.00003897,-0.00308001,0.00008458,-0.70610105,0.34220160,0.11869117,0.
 71621478,0.00063920,0.00130180,-0.00015657,-0.00011505,-0.00048222,0.0
 0032730,-0.00007160,-0.00026457,-0.00026786,0.00000241,0.00000491,0.00
 001526,-0.00026572,-0.00006617,-0.00010015,-0.00002424,0.00001588,0.00
 000279,-0.00000419,-0.00000070,-0.00000168,-0.00000976,-0.00001156,0.0
 0000294,-0.00000279,0.00002426,-0.00000589,-0.00003026,0.00001372,0.00
 000259,0.00002350,-0.00003802,0.00000167,-0.00000004,-0.00000216,0.000
 00396,0.00003714,0.00004976,-0.00002166,0.00000099,-0.00000295,0.00000
 128,0.00002775,-0.00019716,0.00004453,-0.00001796,0.00000349,0.0000048
 3,0.00000466,0.00000107,-0.00000045,0.00000016,0.00000055,-0.00000023,
 -0.00135915,-0.00416683,-0.00325305,-0.00011059,0.00017231,0.00071129,
 -0.00062158,0.00042326,0.00055694,0.01438663,0.00111105,-0.00215443,0.
 00333922,0.00546508,0.00430448,-0.00094146,-0.00052679,-0.00067409,-0.
 00063752,-0.00109523,-0.00037265,0.00388922,0.00766157,0.00227609,0.00
 006104,0.00030282,0.00017233,-0.00704638,0.00778973,0.00609183,-0.0014
 6030,-0.00480612,0.00007660,0.34595581,-0.11052186,-0.05293575,-0.3559
 3259,0.09813431,-0.00073200,0.00036214,-0.00078604,0.00024886,-0.00011
 311,0.00034669,0.00015259,-0.00005637,0.00019780,0.00000483,-0.0000150
 0,-0.00001549,0.00037030,-0.00038800,0.00019489,0.00003169,-0.00000625
 ,-0.00000125,0.00000254,0.00000173,-0.00000079,0.00000900,0.00001195,-
 0.00000109,-0.00000207,-0.00005485,0.00001640,0.00008049,-0.00004234,-
 0.00000475,-0.00005648,0.00010431,-0.00001803,-0.00000619,-0.00000079,
 0.00000334,-0.00006870,-0.00015241,0.00006274,0.00001379,0.00001312,-0
 .00001071,-0.00001197,0.00031486,-0.00005979,0.00001379,-0.00000126,-0
 .00000492,-0.00000012,-0.00000376,-0.00000286,-0.00000011,-0.00000164,
 0.00000160,-0.00179573,-0.00146628,0.00138043,0.00022427,0.00000723,0.
 00036505,0.00069984,0.00027149,-0.00014713,-0.02863136,0.01285822,0.00
 720919,-0.00263282,0.00490148,-0.00354540,-0.00049039,0.00021390,-0.00
 198367,-0.00016158,-0.00025201,-0.00001854,0.00398743,0.00209399,-0.00
 584229,0.00171411,-0.00047186,0.00006037,0.03523161,-0.01489832,0.0002
 7641,-0.00196728,-0.00070739,0.00149772,0.12149963,-0.04868399,0.00510
 143,-0.12632956,0.04548827,-0.00471562,0.00069789,-0.00042835,0.000267
 49,-0.00010011,0.00018207,-0.00009766,-0.00023885,0.00009442,0.0000238
 2,0.00093192,0.00292657,-0.00013401,-0.00050316,0.00051739,-0.00020327
 ,-0.00568376,-0.00328406,0.00160793,0.00016375,0.00024118,-0.00036918,
 -0.39235277,0.07534732,0.01952343,0.00041491,-0.00324296,0.00171849,-0
 .00087935,0.00087576,-0.00005569,-0.00005151,-0.00060416,0.00010086,-0
 .00011747,0.00002470,0.00000606,0.00005330,0.00024320,-0.00006121,-0.0
 0001793,0.00000112,0.00002669,0.00008238,-0.00038179,-0.00009266,0.000
 79732,-0.00038689,0.00001201,-0.01567175,0.00859886,0.00016795,0.00126
 618,-0.00026493,-0.00077934,-0.00011481,0.00003310,-0.00009250,0.00002
 963,0.00000411,0.00002388,-0.00001145,-0.00002314,-0.00003591,-0.00005
 394,0.00000134,0.00006662,0.00004171,-0.00003051,0.00002177,-0.0000352
 4,0.00001538,0.00001076,0.00000788,-0.00000250,-0.00000674,0.00001534,
 -0.00000932,-0.00003489,-0.00000190,0.00000394,-0.00000689,0.00000077,
 0.00001873,0.00000618,-0.00000302,-0.00000273,-0.00001246,0.00001163,0
 .00000009,-0.00002402,-0.00000030,-0.00000291,0.00000592,0.41128051,-0
 .00010414,0.00014703,-0.00007416,0.00002599,-0.00003943,0.00001489,0.0
 0009733,-0.00005328,-0.00003663,0.00303140,-0.00618304,0.00266049,0.00
 016558,0.00013959,-0.00000134,0.03061362,0.00343339,-0.00357054,-0.001
 18928,0.00070363,-0.00073405,0.07611323,-0.06742957,0.00143400,-0.0025
 3657,-0.00284239,0.00336597,-0.00060682,0.00091840,-0.00002569,-0.0004
 1710,-0.00015581,-0.00002620,-0.00010533,0.00003066,-0.00001466,0.0001
 0747,-0.00019324,0.00008312,0.00002049,0.00003346,0.00002907,0.0004315
 5,-0.00016430,-0.00037772,-0.00182051,-0.00156698,0.00048027,-0.024790
 30,0.01046198,0.00147683,0.00132334,0.00076660,-0.00205453,0.00000958,
 -0.00000651,0.00002877,-0.00000554,0.00000096,-0.00000603,0.00000220,0
 .00000188,0.00000507,0.00001011,0.00000140,-0.00000767,-0.00000768,0.0
 0001565,-0.00000786,0.00000817,-0.00000538,-0.00000410,-0.00000040,0.0
 0000344,-0.00000084,-0.00000330,0.00000002,0.00000725,0.00000118,0.000
 00023,0.00000244,-0.00000017,-0.00000750,-0.00000062,0.00000149,0.0000
 0162,0.00000357,-0.00000141,-0.00000104,0.00000485,0.00000073,0.000000
 61,-0.00000087,-0.08040691,0.06199603,-0.00003200,-0.00000923,0.000010
 95,0.00000637,-0.00003249,-0.00001880,0.00004541,-0.00001639,-0.000011
 55,0.00012563,0.00254656,0.00596739,0.00006644,0.00005478,0.00003004,-
 0.00646037,0.00051633,0.00265250,-0.00001209,-0.00075913,-0.00279064,0
 .01864775,0.00078961,-0.03013602,0.00173786,0.00346624,0.00911309,0.00
 014612,-0.00011157,0.00047546,0.00000613,-0.00013007,-0.00067123,0.000
 00983,-0.00005289,-0.00011563,0.00000096,0.00014560,0.00011583,0.00004
 083,0.00004953,0.00019305,-0.00029120,-0.00051201,-0.00152499,0.000208
 96,0.00008316,-0.00020244,0.00866136,-0.00182285,0.00488467,-0.0012734
 8,-0.00158822,-0.00672507,-0.00002736,0.00000684,-0.00001916,0.0000025
 8,0.00001180,0.00000174,-0.00000006,-0.00000247,-0.00000882,-0.0000090
 0,-0.00000025,0.00000950,0.00000924,-0.00000489,-0.00000211,-0.0000142
 8,0.00000554,0.00000821,0.00000261,-0.00000078,-0.00000984,0.00000707,
 -0.00000244,-0.00000784,-0.00000194,0.00000171,-0.00000119,0.00000006,
 -0.00000230,-0.00000006,0.00000174,0.00000043,0.00000182,0.00000796,0.
 00000100,-0.00000393,0.00000110,-0.00000134,0.00000026,-0.02164804,-0.
 00270010,0.01851698,0.00032376,0.00098030,0.00069501,-0.00011686,-0.00
 029642,-0.00000987,-0.00007063,-0.00012878,-0.00027034,-0.00010786,-0.
 00001146,0.00030193,-0.00035219,0.00044167,-0.00080622,-0.00023891,-0.
 00003658,0.00004528,0.00000036,0.00000457,0.00001850,-0.00003863,0.000
 01402,-0.00006332,0.00010083,0.00046805,-0.00017032,-0.00042965,0.0000
 5827,0.00010281,0.00033461,-0.00056272,0.00009284,-0.00000252,-0.00000
 060,0.00000523,-0.00005405,0.00042544,-0.00031407,-0.00002863,0.000010
 55,0.00001742,0.00027642,-0.00086275,0.00017563,0.00032605,0.00003993,
 -0.00017892,-0.00003771,-0.00001714,0.00002009,-0.00000007,0.00000109,
 -0.00000166,0.00053332,-0.00189001,-0.00185775,-0.00062951,-0.00032043
 ,0.00077422,0.00014303,-0.00032789,-0.00018464,-0.01022730,0.02026286,
 -0.02426281,-0.09507748,0.09508246,-0.11284844,0.01162470,-0.00868551,
 0.01258033,-0.00096812,-0.00211741,-0.00192860,0.00092088,0.00339838,0
 .00429445,0.00074090,-0.00011395,0.00073225,-0.00102325,-0.00041780,0.
 00078268,-0.00019264,-0.00061874,-0.00011236,-0.00414908,0.00586623,0.
 00200595,-0.00067480,0.00028766,-0.00141100,0.00000272,-0.00001016,-0.
 00000318,0.09911759,0.00253515,-0.00034654,-0.00036558,-0.00035627,0.0
 0010165,-0.00002961,-0.00054712,-0.00014791,-0.00027432,0.00008925,0.0
 0004740,0.00030352,-0.00029622,-0.00019431,0.00131143,-0.00017704,0.00
 006925,0.00003337,0.00000153,0.00001422,0.00002343,-0.00003010,-0.0000
 5434,-0.00006733,-0.00005003,0.00005031,-0.00003666,0.00012353,-0.0001
 4984,0.00007434,-0.00012814,0.00007819,-0.00001911,-0.00001406,-0.0000
 0941,0.00001895,-0.00023735,-0.00045404,-0.00014553,-0.00000350,-0.000
 00440,-0.00000331,-0.00011817,0.00167182,-0.00069077,0.00027120,0.0001
 4842,-0.00028188,0.00011410,-0.00006392,-0.00005276,0.00000245,0.00000
 233,0.00002373,-0.00244378,-0.00207856,-0.00181497,0.00021172,-0.00017
 703,0.00013425,-0.00029386,0.00001352,0.00030384,0.00497274,-0.0013341
 9,0.01364618,0.10173302,-0.16930768,0.19417993,0.00104736,0.00454713,-
 0.00287903,-0.00224767,-0.00339429,-0.00094941,0.00227260,0.00674868,0
 .00060076,0.00017746,0.00016383,-0.00005371,-0.00051164,-0.00055312,-0
 .00105441,-0.00032480,-0.00105027,0.00003403,0.00490637,0.00457489,0.0
 0000616,0.00020986,-0.00029351,0.00067674,0.00002104,-0.00001754,0.000
 00310,-0.11091114,0.16140996,0.00122009,-0.00061540,0.00026566,-0.0001
 4641,0.00015363,-0.00015231,-0.00029106,0.00006174,-0.00015674,-0.0001
 5359,-0.00008551,0.00000698,-0.00009280,-0.00004463,-0.00039301,0.0002
 0511,-0.00009137,-0.00000892,0.00002516,0.00000916,0.00001647,0.000079
 79,0.00010723,-0.00007249,0.00004565,0.00001120,0.00003616,0.00006111,
 -0.00016993,-0.00002556,-0.00004824,0.00018679,-0.00001097,-0.00002268
 ,-0.00001644,0.00001805,-0.00002089,0.00001442,0.00018353,-0.00001154,
 -0.00002017,0.00001734,0.00000598,0.00014513,-0.00130607,-0.00013272,0
 .00024112,-0.00009549,-0.00007598,-0.00003576,0.00000950,0.00000368,-0
 .00000457,0.00001423,-0.00018867,-0.00221364,-0.00074902,-0.00006123,0
 .00015796,0.00063440,-0.00008190,-0.00001696,-0.00001207,0.00535813,-0
 .00271093,0.00819604,-0.12000858,0.19201374,-0.28673047,-0.01369693,0.
 01497705,-0.01282828,-0.00087332,-0.00217745,0.00098319,0.00483682,0.0
 0214236,-0.00287892,-0.00081431,0.00052726,-0.00067119,0.00036651,-0.0
 0082488,0.00001314,-0.00019847,-0.00040046,0.00001568,0.00263453,0.001
 49514,0.00143626,0.00026697,-0.00014041,0.00044498,0.00002653,-0.00000
 088,0.00000840,0.12177110,-0.20266295,0.29377308,0.00019952,-0.0003329
 3,0.00034356,-0.00000731,0.00013519,-0.00007741,-0.00001606,0.00019981
 ,-0.00014163,0.00039790,-0.00159062,0.00053687,0.00014412,0.00035486,-
 0.00037546,0.00035426,-0.00017235,-0.00001556,-0.00007310,0.00005034,-
 0.00002731,0.00016795,0.00033316,-0.00011047,0.00914371,-0.02536083,0.
 00505156,-0.03966886,0.11725421,-0.01768418,-0.00298283,0.03613140,-0.
 00808649,0.00112809,-0.00169383,-0.00097157,-0.00514955,0.00082634,0.0
 0238162,-0.00017524,0.00143513,-0.00033732,-0.00105751,-0.00084585,0.0
 0028643,-0.00421116,-0.00135463,0.00173675,0.00186884,-0.00003632,-0.0
 0084598,-0.00032235,0.00067728,-0.00003626,-0.00003265,-0.00000029,-0.
 00006025,0.00002752,0.00000071,0.00004768,-0.00000163,-0.00000091,-0.0
 0000914,-0.00004813,0.00000071,0.00006441,0.00002619,0.00000312,-0.000
 00726,-0.00000677,0.00000062,0.00000380,0.00000562,-0.00000039,-0.0000
 0752,0.00000741,-0.00000371,-0.00002243,0.00000092,0.00000192,-0.00000
 161,-0.00000049,0.00000432,0.00000412,-0.00000020,-0.00000007,-0.00000
 706,0.00001424,-0.00000142,-0.00002211,0.00000168,-0.00000131,0.000006
 68,0.00003946,0.00004218,0.00003699,-0.00002526,0.00000150,0.00001214,
 0.04025169,0.00009222,0.00009053,-0.00013990,0.00000264,-0.00005540,0.
 00006479,0.00003042,-0.00009470,0.00001336,0.00074264,-0.00117214,0.00
 043526,0.00000060,0.00005876,-0.00019966,-0.00020172,0.00050324,-0.000
 11540,-0.00007772,0.00000934,-0.00001568,-0.00033017,-0.00043076,0.000
 08281,0.00804811,-0.01242221,0.00186144,0.12204380,-0.58597675,0.12245
 071,-0.00292216,-0.00561016,0.00287613,-0.00022311,0.00052354,-0.00149
 520,0.00233840,0.00215658,0.00089824,0.00000642,-0.00034167,0.00034246
 ,-0.00041966,0.00040474,-0.00022446,-0.00371164,0.00075332,0.00144750,
 0.00183426,0.00127454,-0.00124086,-0.00110585,0.00001225,0.00023363,0.
 00000769,0.00000632,0.00003518,-0.00001774,-0.00000424,-0.00003335,-0.
 00000163,-0.00000602,0.00000549,0.00001914,-0.00000408,-0.00001956,-0.
 00001176,0.00002307,-0.00000350,0.00001137,-0.00000202,-0.00000127,-0.
 00000401,-0.00000235,-0.00000333,-0.00000199,0.00000429,0.00001387,-0.
 00000071,-0.00000246,0.00000235,0.00000008,-0.00000756,-0.00000274,0.0
 0000200,0.00000076,0.00000706,-0.00000183,-0.00000014,0.00001216,0.000
 00041,-0.00000034,-0.00000294,-0.00007918,0.00000944,0.00006723,-0.000
 01197,-0.00001069,-0.00001160,-0.12605735,0.60031297,0.00002860,0.0001
 1714,0.00001808,-0.00005549,0.00000391,0.00006325,-0.00003235,0.000005
 18,-0.00006334,0.00013503,0.00097670,0.00074721,-0.00008829,-0.0004709
 8,-0.00085794,-0.00014871,-0.00012928,-0.00014709,0.00002593,-0.000021
 71,-0.00005576,0.00000859,-0.00002164,-0.00022641,-0.00366785,0.007783
 58,-0.00014614,-0.01787847,0.12190092,-0.01008788,0.00102794,-0.003111
 02,0.00505753,-0.00163614,-0.00169471,-0.00545253,0.00200487,0.0011215
 7,0.00747903,0.00025677,0.00007687,0.00088462,0.00034220,0.00007727,-0
 .00062434,0.00209178,0.00188990,0.00414784,-0.00115670,-0.00114326,-0.
 00300061,0.00036058,-0.00003909,0.00036186,0.00000439,-0.00004687,0.00
 001473,0.00000012,0.00001685,-0.00002715,-0.00000244,0.00002226,0.0000
 0351,0.00000077,-0.00002659,-0.00002463,-0.00000089,-0.00000210,0.0000
 0203,-0.00000577,-0.00000859,0.00000363,0.00000500,0.00000668,-0.00000
 128,-0.00000795,0.,-0.00000110,0.00000035,0.00000287,0.00000053,0.0000
 0708,-0.00000492,-0.00000886,0.00000151,0.00000200,0.00000357,-0.00000
 183,0.00000058,0.00001618,0.00000110,0.00000125,-0.00000093,0.00003805
 ,0.00004790,0.00025944,0.00000780,0.00000756,0.00001839,0.01833440,-0.
 12734019,0.00164457\\0.05336913,-0.01563336,0.01228609,-0.00429347,0.0
 3180051,-0.02122640,-0.04490241,-0.00608688,0.03076883,-0.00269974,-0.
 01954818,0.00222410,-0.00243771,-0.03307075,-0.00589319,-0.08948479,-0
 .07235536,0.02627376,0.07654523,0.08041680,-0.02518628,-0.00224581,0.0
 0739285,-0.00151202,0.00670754,-0.00451362,0.00156987,-0.00641895,0.07
 102411,-0.01686941,-0.00991104,0.04229671,-0.01061567,-0.01557361,-0.0
 2935118,0.00988206,0.05433132,-0.03710869,-0.00272532,-0.06066295,0.02
 192983,0.00735533,-0.01124157,0.06324548,-0.01723295,0.02617163,0.0248
 7380,-0.00406252,-0.06965024,0.18465826,-0.03409785,0.05588396,-0.2003
 1205,0.03788490,0.10296715,0.08702117,-0.04969141,0.00079183,-0.131301
 39,0.04799289,-0.12042711,0.03896900,-0.00931285,0.00460819,0.00206203
 ,0.01574842,-0.00287177,-0.00442483,-0.01164896,-0.02830526,0.01734235
 ,0.00096051,0.05801843,-0.02985736,-0.00024647,-0.05808132,-0.00259575
 ,0.15258110,0.07387059,0.00464070,-0.16543230,0.00679345,-0.01162583,-
 0.04546963,-0.01803469,0.02068177,0.00493940,0.11734713,-0.05003817,-0
 .01070601,-0.17020407,0.07298967,0.02819764,0.02388611,-0.00629090,-0.
 00176739,0.03047474,-0.02214195,0.03476531,0.02568009,-0.09508880,0.02
 026641\\\@
 The archive entry for this job was punched.

 Writing a WFNX file to "VEYGOW_Complex_0_Ligand_0_NN_Cu_oriented.wfx"


 WE'RE IN THE POSITION OF A VISITOR FROM ANOTHER
 DIMENSION WHO COMES TO EARTH AND SEES A CHESS MATCH.
 ASSUMING HE KNOWS IT'S A GAME, HE'S GOT TWO PROBLEMS:
 FIRST, FIGURE OUT THE RULES, AND SECOND, FIGURE OUT HOW TO WIN.
 NINETY PERCENT OF SCIENCE (INCLUDING VIRTUALLY ALL OF CHEMISRY)
 IS IN THAT SECOND CATEGORY.  THEY'RE TRYING TO APPLY
 THE LAWS THAT ARE ALREADY KNOWN.

                     -- SHELDON GLASHOW, 1979
 Job cpu time:       0 days  1 hours  0 minutes 19.1 seconds.
 Elapsed time:       0 days  1 hours  0 minutes 32.4 seconds.
 File lengths (MBytes):  RWF=    620 Int=      0 D2E=      0 Chk=     16 Scr=      8
 Normal termination of Gaussian 16 at Mon Mar  6 11:22:15 2023.
