 Entering Gaussian System, Link 0=g16
 Initial command:
 /ssoft/spack/external/gaussian/g16-C.01/avx2/g16/l1.exe "/scratch/lcmd/2387847/Gau-3436347.inp" -scrdir="/scratch/lcmd/2387847/"
 Entering Link 1 = /ssoft/spack/external/gaussian/g16-C.01/avx2/g16/l1.exe PID=   3436350.
  
 Copyright (c) 1988-2019, Gaussian, Inc.  All Rights Reserved.
  
 This is part of the Gaussian(R) 16 program.  It is based on
 the Gaussian(R) 09 system (copyright 2009, Gaussian, Inc.),
 the Gaussian(R) 03 system (copyright 2003, Gaussian, Inc.),
 the Gaussian(R) 98 system (copyright 1998, Gaussian, Inc.),
 the Gaussian(R) 94 system (copyright 1995, Gaussian, Inc.),
 the Gaussian 92(TM) system (copyright 1992, Gaussian, Inc.),
 the Gaussian 90(TM) system (copyright 1990, Gaussian, Inc.),
 the Gaussian 88(TM) system (copyright 1988, Gaussian, Inc.),
 the Gaussian 86(TM) system (copyright 1986, Carnegie Mellon
 University), and the Gaussian 82(TM) system (copyright 1983,
 Carnegie Mellon University). Gaussian is a federally registered
 trademark of Gaussian, Inc.
  
 This software contains proprietary and confidential information,
 including trade secrets, belonging to Gaussian, Inc.
  
 This software is provided under written license and may be
 used, copied, transmitted, or stored only in accord with that
 written license.
  
 The following legend is applicable only to US Government
 contracts under FAR:
  
                    RESTRICTED RIGHTS LEGEND
  
 Use, reproduction and disclosure by the US Government is
 subject to restrictions as set forth in subparagraphs (a)
 and (c) of the Commercial Computer Software - Restricted
 Rights clause in FAR 52.227-19.
  
 Gaussian, Inc.
 340 Quinnipiac St., Bldg. 40, Wallingford CT 06492
  
  
 ---------------------------------------------------------------
 Warning -- This program may not be used in any manner that
 competes with the business of Gaussian, Inc. or will provide
 assistance to any competitor of Gaussian, Inc.  The licensee
 of this program is prohibited from giving any competitor of
 Gaussian, Inc. access to this program.  By using this program,
 the user acknowledges that Gaussian, Inc. is engaged in the
 business of creating and licensing software in the field of
 computational chemistry and represents and warrants to the
 licensee that it is not a competitor of Gaussian, Inc. and that
 it will not use this program in any manner prohibited above.
 ---------------------------------------------------------------
  

 Cite this work as:
 Gaussian 16, Revision C.01,
 M. J. Frisch, G. W. Trucks, H. B. Schlegel, G. E. Scuseria, 
 M. A. Robb, J. R. Cheeseman, G. Scalmani, V. Barone, 
 G. A. Petersson, H. Nakatsuji, X. Li, M. Caricato, A. V. Marenich, 
 J. Bloino, B. G. Janesko, R. Gomperts, B. Mennucci, H. P. Hratchian, 
 J. V. Ortiz, A. F. Izmaylov, J. L. Sonnenberg, D. Williams-Young, 
 F. Ding, F. Lipparini, F. Egidi, J. Goings, B. Peng, A. Petrone, 
 T. Henderson, D. Ranasinghe, V. G. Zakrzewski, J. Gao, N. Rega, 
 G. Zheng, W. Liang, M. Hada, M. Ehara, K. Toyota, R. Fukuda, 
 J. Hasegawa, M. Ishida, T. Nakajima, Y. Honda, O. Kitao, H. Nakai, 
 T. Vreven, K. Throssell, J. A. Montgomery, Jr., J. E. Peralta, 
 F. Ogliaro, M. J. Bearpark, J. J. Heyd, E. N. Brothers, K. N. Kudin, 
 V. N. Staroverov, T. A. Keith, R. Kobayashi, J. Normand, 
 K. Raghavachari, A. P. Rendell, J. C. Burant, S. S. Iyengar, 
 J. Tomasi, M. Cossi, J. M. Millam, M. Klene, C. Adamo, R. Cammi, 
 J. W. Ochterski, R. L. Martin, K. Morokuma, O. Farkas, 
 J. B. Foresman, and D. J. Fox, Gaussian, Inc., Wallingford CT, 2019.
 
 ******************************************
 Gaussian 16:  ES64L-G16RevC.01  3-Jul-2019
                 6-Mar-2023 
 ******************************************
 %nprocshared=1
 Will use up to    1 processors via shared memory.
 %mem=8000MB
 %chk=VIFHIB_Complex_1_Ligand_1_ON_Cu_oriented.chk
 ----------------------------------------------------------------------
 #p pop=(regular,nbo,savenbos) freq=noraman def2svp empiricaldispersion
 =gd3bj output=wfx pbe1pbe
 ----------------------------------------------------------------------
 1/10=4,30=1,38=1/1,3;
 2/12=2,17=6,18=5,40=1/2;
 3/5=43,7=101,11=2,25=1,30=1,71=2,74=-13,124=41,140=1/1,2,3;
 4//1;
 5/5=2,38=5,98=1/2;
 8/6=4,10=90,11=11/1;
 11/6=1,8=1,9=11,15=111,16=1/1,2,10;
 10/6=1/2;
 6/28=1,40=1,73=1/1,7;
 7/8=1,10=1,25=1/1,2,3,16;
 1/10=4,30=1/3;
 99/6=200/99;
 Leave Link    1 at Mon Mar  6 10:21:43 2023, MaxMem=  1048576000 cpu:               0.0 elap:               0.2
 (Enter /ssoft/spack/external/gaussian/g16-C.01/avx2/g16/l101.exe)
 ----------------------------------------
 VIFHIB_Complex_1_Ligand_1_ON_Cu_oriented
 ----------------------------------------
 Symbolic Z-matrix:
 Charge = -1 Multiplicity = 1
 O                     0.65706   1.74472   0. 
 N                     1.96085  -0.60455   0. 
 C                     2.60062   3.1056   -0.33616 
 C                     2.04034   1.80494   0.14336 
 C                     2.69525   0.62815  -0.30708 
 C                     2.29911  -1.1296    1.3178 
 C                     2.24896  -1.65001  -0.99817 
 H                     2.41452   3.16519  -1.27644 
 H                     2.22851   1.79564   1.08461 
 H                     2.75965   0.70941  -1.26129 
 H                     3.57701   0.56723   0.06924 
 H                     2.12222  -0.46297   1.98566 
 H                     3.22772  -1.37068   1.34544 
 H                     1.76104  -1.90593   1.49072 
 H                     2.03979  -1.31657  -1.87426 
 H                     1.71095  -2.42378  -0.81348 
 H                     3.17763  -1.88854  -0.95876 
 H                     2.18524   3.83979   0.1196 
 H                     3.55065   3.13663  -0.1955 
 
 ITRead=  0  0  0  0  0  0  0  0  0  0  0  0  0  0  0  0  0  0  0
 MicOpt= -1 -1 -1 -1 -1 -1 -1 -1 -1 -1 -1 -1 -1 -1 -1 -1 -1 -1 -1
 NAtoms=     19 NQM=       19 NQMF=       0 NMMI=      0 NMMIF=      0
                NMic=       0 NMicF=      0.
                    Isotopes and Nuclear Properties:
 (Nuclear quadrupole moments (NQMom) in fm**2, nuclear magnetic moments (NMagM)
  in nuclear magnetons)

  Atom         1           2           3           4           5           6           7           8           9          10
 IAtWgt=          16          14          12          12          12          12          12           1           1           1
 AtmWgt=  15.9949146  14.0030740  12.0000000  12.0000000  12.0000000  12.0000000  12.0000000   1.0078250   1.0078250   1.0078250
 NucSpn=           0           2           0           0           0           0           0           1           1           1
 AtZEff=  -0.0000000  -0.0000000  -0.0000000  -0.0000000  -0.0000000  -0.0000000  -0.0000000  -0.0000000  -0.0000000  -0.0000000
 NQMom=    0.0000000   2.0440000   0.0000000   0.0000000   0.0000000   0.0000000   0.0000000   0.0000000   0.0000000   0.0000000
 NMagM=    0.0000000   0.4037610   0.0000000   0.0000000   0.0000000   0.0000000   0.0000000   2.7928460   2.7928460   2.7928460
 AtZNuc=   8.0000000   7.0000000   6.0000000   6.0000000   6.0000000   6.0000000   6.0000000   1.0000000   1.0000000   1.0000000

  Atom        11          12          13          14          15          16          17          18          19
 IAtWgt=           1           1           1           1           1           1           1           1           1
 AtmWgt=   1.0078250   1.0078250   1.0078250   1.0078250   1.0078250   1.0078250   1.0078250   1.0078250   1.0078250
 NucSpn=           1           1           1           1           1           1           1           1           1
 AtZEff=  -0.0000000  -0.0000000  -0.0000000  -0.0000000  -0.0000000  -0.0000000  -0.0000000  -0.0000000  -0.0000000
 NQMom=    0.0000000   0.0000000   0.0000000   0.0000000   0.0000000   0.0000000   0.0000000   0.0000000   0.0000000
 NMagM=    2.7928460   2.7928460   2.7928460   2.7928460   2.7928460   2.7928460   2.7928460   2.7928460   2.7928460
 AtZNuc=   1.0000000   1.0000000   1.0000000   1.0000000   1.0000000   1.0000000   1.0000000   1.0000000   1.0000000
 Leave Link  101 at Mon Mar  6 10:21:43 2023, MaxMem=  1048576000 cpu:               0.1 elap:               0.1
 (Enter /ssoft/spack/external/gaussian/g16-C.01/avx2/g16/l103.exe)

 GradGradGradGradGradGradGradGradGradGradGradGradGradGradGradGradGradGrad
 Berny optimization.
 Initialization pass.
 Trust Radius=3.00D-01 FncErr=1.00D-07 GrdErr=1.00D-07 EigMax=2.50D+02 EigMin=1.00D-04
 Number of steps in this run=      2 maximum allowed number of steps=      2.
 GradGradGradGradGradGradGradGradGradGradGradGradGradGradGradGradGradGrad

 Leave Link  103 at Mon Mar  6 10:21:43 2023, MaxMem=  1048576000 cpu:               0.0 elap:               0.0
 (Enter /ssoft/spack/external/gaussian/g16-C.01/avx2/g16/l202.exe)
                          Input orientation:                          
 ---------------------------------------------------------------------
 Center     Atomic      Atomic             Coordinates (Angstroms)
 Number     Number       Type             X           Y           Z
 ---------------------------------------------------------------------
      1          8           0        0.657057    1.744723    0.000000
      2          7           0        1.960848   -0.604550    0.000000
      3          6           0        2.600623    3.105598   -0.336160
      4          6           0        2.040343    1.804938    0.143358
      5          6           0        2.695250    0.628149   -0.307079
      6          6           0        2.299112   -1.129600    1.317804
      7          6           0        2.248963   -1.650011   -0.998172
      8          1           0        2.414518    3.165191   -1.276443
      9          1           0        2.228514    1.795637    1.084609
     10          1           0        2.759653    0.709408   -1.261290
     11          1           0        3.577008    0.567234    0.069236
     12          1           0        2.122222   -0.462969    1.985659
     13          1           0        3.227716   -1.370684    1.345443
     14          1           0        1.761041   -1.905926    1.490720
     15          1           0        2.039786   -1.316570   -1.874260
     16          1           0        1.710950   -2.423778   -0.813479
     17          1           0        3.177626   -1.888535   -0.958757
     18          1           0        2.185237    3.839790    0.119601
     19          1           0        3.550647    3.136626   -0.195500
 ---------------------------------------------------------------------
                    Distance matrix (angstroms):
                    1          2          3          4          5
     1  O    0.000000
     2  N    2.686811   0.000000
     3  C    2.396338   3.779883   0.000000
     4  C    1.391998   2.415058   1.495181   0.000000
     5  C    2.344199   1.467376   2.479427   1.420081   0.000000
     6  C    3.562960   1.458323   4.556688   3.171403   2.426283
     7  C    3.880043   1.473888   4.814327   3.644624   2.422146
     8  H    2.595324   4.005755   0.960374   2.001531   2.730395
     9  H    1.910091   2.647436   1.968006   0.959921   1.875544
    10  H    2.661511   1.988826   2.573496   1.921101   0.959828
    11  H    3.149189   1.997460   2.749721   1.974524   0.960636
    12  H    3.311111   1.997230   4.284202   2.923043   2.602988
    13  H    4.257260   2.000533   4.822669   3.597143   2.647580
    14  H    4.094908   1.988907   5.399793   3.957766   3.244436
    15  H    3.846597   2.006503   4.715492   3.716799   2.582174
    16  H    4.375939   2.008429   5.620797   4.348112   3.246467
    17  H    4.524716   2.012060   5.065761   4.018684   2.644063
    18  H    2.595948   4.451608   0.958802   2.040143   3.279758
    19  H    3.216905   4.069653   0.960882   2.041871   2.652661
                    6          7          8          9         10
     6  C    0.000000
     7  C    2.374255   0.000000
     8  H    5.018830   4.826076   0.000000
     9  H    2.935366   4.026274   2.735843   0.000000
    10  H    3.200902   2.428352   2.479963   2.639174   0.000000
    11  H    2.463977   2.796290   3.148271   2.087677   1.567987
    12  H    0.960061   3.213779   4.887769   2.434028   3.510479
    13  H    0.959787   2.555095   5.301861   3.330470   3.367629
    14  H    0.960263   2.549146   5.813816   3.753003   3.925654
    15  H    3.208033   0.960452   4.536959   4.298413   2.235739
    16  H    2.561874   0.960357   5.652072   4.655543   3.334242
    17  H    2.555484   0.959616   5.120879   4.318482   2.648686
    18  H    5.113071   5.602802   1.567352   2.260901   3.469309
    19  H    4.696499   5.024993   1.568452   2.277052   2.766399
                   11         12         13         14         15
    11  H    0.000000
    12  H    2.617327   0.000000
    13  H    2.346537   1.567144   0.000000
    14  H    3.381549   1.567655   1.568032   0.000000
    15  H    3.112707   3.954036   3.432286   3.427555   0.000000
    16  H    3.634214   3.442251   2.840868   2.362205   1.568215
    17  H    2.692040   3.437398   2.362206   2.829657   1.568429
    18  H    3.556570   4.690403   5.453301   5.922260   5.530343
    19  H    2.583129   4.444653   4.774372   5.610112   4.993184
                   16         17         18         19
    16  H    0.000000
    17  H    1.568033   0.000000
    18  H    6.350423   5.912817   0.000000
    19  H    5.889353   5.096465   1.567825   0.000000
 Stoichiometry    C5H12NO(1-)
 Framework group  C1[X(C5H12NO)]
 Deg. of freedom    51
 Full point group                 C1      NOp   1
 Largest Abelian subgroup         C1      NOp   1
 Largest concise Abelian subgroup C1      NOp   1
                         Standard orientation:                         
 ---------------------------------------------------------------------
 Center     Atomic      Atomic             Coordinates (Angstroms)
 Number     Number       Type             X           Y           Z
 ---------------------------------------------------------------------
      1          8           0       -1.279702    0.522841    1.311242
      2          7           0        1.124242    0.038554    0.213301
      3          6           0       -2.564488   -0.365829   -0.505905
      4          6           0       -1.269349    0.224863   -0.048449
      5          6           0       -0.086784   -0.445559   -0.459186
      6          6           0        1.727130    1.165552   -0.488915
      7          6           0        2.132545   -1.031745    0.313961
      8          1           0       -2.677781   -1.197232   -0.038732
      9          1           0       -1.206095    1.058107   -0.520838
     10          1           0       -0.210862   -1.368425   -0.226396
     11          1           0        0.032615   -0.368334   -1.409239
     12          1           0        1.086018    1.875634   -0.569389
     13          1           0        2.011659    0.891645   -1.363677
     14          1           0        2.485352    1.474822    0.012639
     15          1           0        1.748043   -1.786420    0.766832
     16          1           0        2.888783   -0.711243    0.811624
     17          1           0        2.415089   -1.294421   -0.564692
     18          1           0       -3.294180    0.220330   -0.297891
     19          1           0       -2.545041   -0.530768   -1.452325
 ---------------------------------------------------------------------
 Rotational constants (GHZ):           5.0165518           1.5177759           1.4727752
 Leave Link  202 at Mon Mar  6 10:21:43 2023, MaxMem=  1048576000 cpu:               0.0 elap:               0.0
 (Enter /ssoft/spack/external/gaussian/g16-C.01/avx2/g16/l301.exe)
 Standard basis: def2SVP (5D, 7F)
 Ernie: Thresh=  0.10000D-02 Tol=  0.10000D-05 Strict=F.
 There are   165 symmetry adapted cartesian basis functions of A   symmetry.
 There are   158 symmetry adapted basis functions of A   symmetry.
   158 basis functions,   259 primitive gaussians,   165 cartesian basis functions
    29 alpha electrons       29 beta electrons
       nuclear repulsion energy       338.5632685230 Hartrees.
 IExCor= 1009 DFT=T Ex+Corr=PBE1PBE ExCW=0 ScaHFX=  0.250000
 ScaDFX=  0.750000  0.750000  1.000000  1.000000 ScalE2=  1.000000  1.000000
 IRadAn=      5 IRanWt=     -1 IRanGd=            0 ICorTp=0 IEmpDi=141
 NAtoms=   19 NActive=   19 NUniq=   19 SFac= 1.00D+00 NAtFMM=   60 NAOKFM=F Big=F
 Integral buffers will be    131072 words long.
 Raffenetti 2 integral format.
 Two-electron integral symmetry is turned on.
 R6Disp:  Grimme-D3(BJ) Dispersion energy=       -0.0135124990 Hartrees.
 Nuclear repulsion after empirical dispersion term =      338.5497560240 Hartrees.
 Leave Link  301 at Mon Mar  6 10:21:43 2023, MaxMem=  1048576000 cpu:               0.1 elap:               0.1
 (Enter /ssoft/spack/external/gaussian/g16-C.01/avx2/g16/l302.exe)
 NPDir=0 NMtPBC=     1 NCelOv=     1 NCel=       1 NClECP=     1 NCelD=      1
         NCelK=      1 NCelE2=     1 NClLst=     1 CellRange=     0.0.
 One-electron integrals computed using PRISM.
 One-electron integral symmetry used in STVInt
   1 Symmetry operations used in ECPInt.
 ECPInt:  NShTT=    3081 NPrTT=   10567 LenC2=    3067 LenP2D=    8757.
 LDataN:  DoStor=T MaxTD1= 4 Len=   56
 NBasis=   158 RedAO= T EigKep=  1.20D-03  NBF=   158
 NBsUse=   158 1.00D-06 EigRej= -1.00D+00 NBFU=   158
 Precomputing XC quadrature grid using
 IXCGrd= 4 IRadAn=           5 IRanWt=          -1 IRanGd=           0 AccXCQ= 0.00D+00.
 Generated NRdTot=       0 NPtTot=           0 NUsed=           0 NTot=          32
 NSgBfM=   165   165   165   165   165 MxSgAt=    19 MxSgA2=    19.
 Leave Link  302 at Mon Mar  6 10:21:43 2023, MaxMem=  1048576000 cpu:               0.4 elap:               0.4
 (Enter /ssoft/spack/external/gaussian/g16-C.01/avx2/g16/l303.exe)
 DipDrv:  MaxL=1.
 Leave Link  303 at Mon Mar  6 10:21:44 2023, MaxMem=  1048576000 cpu:               0.0 elap:               0.0
 (Enter /ssoft/spack/external/gaussian/g16-C.01/avx2/g16/l401.exe)
 ExpMin= 1.22D-01 ExpMax= 2.27D+03 ExpMxC= 3.41D+02 IAcc=3 IRadAn=         5 AccDes= 0.00D+00
 Harris functional with IExCor= 1009 and IRadAn=       5 diagonalized for initial guess.
 HarFok:  IExCor= 1009 AccDes= 0.00D+00 IRadAn=         5 IDoV= 1 UseB2=F ITyADJ=14
 ICtDFT=  3500011 ScaDFX=  1.000000  1.000000  1.000000  1.000000
 FoFCou: FMM=F IPFlag=           0 FMFlag=      100000 FMFlg1=           0
         NFxFlg=           0 DoJE=T BraDBF=F KetDBF=T FulRan=T
         wScrn=  0.000000 ICntrl=       500 IOpCl=  0 I1Cent=   200000004 NGrid=           0
         NMat0=    1 NMatS0=      1 NMatT0=    0 NMatD0=    1 NMtDS0=    0 NMtDT0=    0
 Petite list used in FoFCou.
 Harris En= -327.343153331881    
 JPrj=0 DoOrth=F DoCkMO=F.
 Leave Link  401 at Mon Mar  6 10:21:46 2023, MaxMem=  1048576000 cpu:               2.9 elap:               2.9
 (Enter /ssoft/spack/external/gaussian/g16-C.01/avx2/g16/l502.exe)
 Keep R1 ints in memory in canonical form, NReq=81184361.
 FoFCou: FMM=F IPFlag=           0 FMFlag=           0 FMFlg1=           0
         NFxFlg=           0 DoJE=F BraDBF=F KetDBF=F FulRan=T
         wScrn=  0.000000 ICntrl=       600 IOpCl=  0 I1Cent=           0 NGrid=           0
         NMat0=    1 NMatS0=  12561 NMatT0=    0 NMatD0=    1 NMtDS0=    0 NMtDT0=    0
 Symmetry not used in FoFCou.
 Two-electron integral symmetry not used.
 Closed shell SCF:
 Using DIIS extrapolation, IDIIS=  1040.
 NGot=  1048576000 LenX=   969622501 LenY=   969594835
 Requested convergence on RMS density matrix=1.00D-08 within 128 cycles.
 Requested convergence on MAX density matrix=1.00D-06.
 Requested convergence on             energy=1.00D-06.
 No special actions if energy rises.
 Integral accuracy reduced to 1.0D-05 until final iterations.

 Cycle   1  Pass 0  IDiag  1:
 E= -326.390180745466    
 DIIS: error= 3.38D-02 at cycle   1 NSaved=   1.
 NSaved= 1 IEnMin= 1 EnMin= -326.390180745466     IErMin= 1 ErrMin= 3.38D-02
 ErrMax= 3.38D-02  0.00D+00 EMaxC= 1.00D-01 BMatC= 4.07D-01 BMatP= 4.07D-01
 IDIUse=3 WtCom= 6.62D-01 WtEn= 3.38D-01
 Coeff-Com:  0.100D+01
 Coeff-En:   0.100D+01
 Coeff:      0.100D+01
 Gap=     0.272 Goal=   None    Shift=    0.000
 GapD=    0.272 DampG=1.000 DampE=0.500 DampFc=0.5000 IDamp=-1.
 Damping current iteration by 5.00D-01
 RMSDP=1.76D-01 MaxDP=8.73D+00              OVMax= 9.72D-01

 Cycle   2  Pass 0  IDiag  1:
 E= -325.652025684835     Delta-E=        0.738155060631 Rises=F Damp=T
 DIIS: error= 3.40D-02 at cycle   2 NSaved=   2.
 NSaved= 2 IEnMin= 1 EnMin= -326.390180745466     IErMin= 1 ErrMin= 3.38D-02
 ErrMax= 3.40D-02  0.00D+00 EMaxC= 1.00D-01 BMatC= 3.19D-01 BMatP= 4.07D-01
 IDIUse=3 WtCom= 6.60D-01 WtEn= 3.40D-01
 Coeff-Com:  0.457D+00 0.543D+00
 Coeff-En:   0.780D+00 0.220D+00
 Coeff:      0.566D+00 0.434D+00
 Gap=     0.075 Goal=   None    Shift=    0.000
 RMSDP=8.74D-02 MaxDP=4.35D+00 DE= 7.38D-01 OVMax= 8.34D-01

 Cycle   3  Pass 0  IDiag  1:
 E= -326.604055843417     Delta-E=       -0.952030158582 Rises=F Damp=F
 DIIS: error= 2.60D-02 at cycle   3 NSaved=   3.
 NSaved= 3 IEnMin= 3 EnMin= -326.604055843417     IErMin= 3 ErrMin= 2.60D-02
 ErrMax= 2.60D-02  0.00D+00 EMaxC= 1.00D-01 BMatC= 2.33D-01 BMatP= 3.19D-01
 IDIUse=3 WtCom= 7.40D-01 WtEn= 2.60D-01
 EnCoef did     2 forward-backward iterations
 Coeff-Com:  0.185D+00 0.398D+00 0.417D+00
 Coeff-En:   0.105D+00 0.117D+00 0.777D+00
 Coeff:      0.164D+00 0.325D+00 0.511D+00
 Gap=     0.262 Goal=   None    Shift=    0.000
 RMSDP=4.02D-03 MaxDP=8.51D-02 DE=-9.52D-01 OVMax= 7.83D-02

 Cycle   4  Pass 0  IDiag  1:
 E= -326.799079730394     Delta-E=       -0.195023886977 Rises=F Damp=F
 DIIS: error= 6.67D-03 at cycle   4 NSaved=   4.
 NSaved= 4 IEnMin= 4 EnMin= -326.799079730394     IErMin= 4 ErrMin= 6.67D-03
 ErrMax= 6.67D-03  0.00D+00 EMaxC= 1.00D-01 BMatC= 2.01D-02 BMatP= 2.33D-01
 IDIUse=3 WtCom= 9.33D-01 WtEn= 6.67D-02
 Coeff-Com: -0.884D-01 0.160D+00 0.248D-01 0.904D+00
 Coeff-En:   0.000D+00 0.000D+00 0.000D+00 0.100D+01
 Coeff:     -0.825D-01 0.149D+00 0.232D-01 0.910D+00
 Gap=     0.181 Goal=   None    Shift=    0.000
 RMSDP=1.96D-03 MaxDP=8.83D-02 DE=-1.95D-01 OVMax= 2.59D-02

 Cycle   5  Pass 0  IDiag  1:
 E= -326.812902816164     Delta-E=       -0.013823085770 Rises=F Damp=F
 DIIS: error= 6.96D-03 at cycle   5 NSaved=   5.
 NSaved= 5 IEnMin= 5 EnMin= -326.812902816164     IErMin= 4 ErrMin= 6.67D-03
 ErrMax= 6.96D-03  0.00D+00 EMaxC= 1.00D-01 BMatC= 1.18D-02 BMatP= 2.01D-02
 IDIUse=3 WtCom= 9.30D-01 WtEn= 6.96D-02
 Coeff-Com: -0.104D+00 0.711D-01-0.129D+00 0.410D+00 0.751D+00
 Coeff-En:   0.000D+00 0.000D+00 0.000D+00 0.000D+00 0.100D+01
 Coeff:     -0.965D-01 0.661D-01-0.120D+00 0.382D+00 0.769D+00
 Gap=     0.155 Goal=   None    Shift=    0.000
 RMSDP=1.86D-03 MaxDP=8.78D-02 DE=-1.38D-02 OVMax= 2.75D-02

 Cycle   6  Pass 0  IDiag  1:
 E= -326.822389021991     Delta-E=       -0.009486205827 Rises=F Damp=F
 DIIS: error= 1.35D-03 at cycle   6 NSaved=   6.
 NSaved= 6 IEnMin= 6 EnMin= -326.822389021991     IErMin= 6 ErrMin= 1.35D-03
 ErrMax= 1.35D-03  0.00D+00 EMaxC= 1.00D-01 BMatC= 1.29D-03 BMatP= 1.18D-02
 IDIUse=3 WtCom= 9.87D-01 WtEn= 1.35D-02
 Coeff-Com: -0.297D-01 0.122D-01-0.785D-01-0.917D-01 0.312D+00 0.876D+00
 Coeff-En:   0.000D+00 0.000D+00 0.000D+00 0.000D+00 0.000D+00 0.100D+01
 Coeff:     -0.293D-01 0.121D-01-0.774D-01-0.905D-01 0.308D+00 0.877D+00
 Gap=     0.144 Goal=   None    Shift=    0.000
 RMSDP=9.81D-04 MaxDP=5.00D-02 DE=-9.49D-03 OVMax= 1.36D-02

 Cycle   7  Pass 0  IDiag  1:
 E= -326.823760975846     Delta-E=       -0.001371953855 Rises=F Damp=F
 DIIS: error= 3.69D-04 at cycle   7 NSaved=   7.
 NSaved= 7 IEnMin= 7 EnMin= -326.823760975846     IErMin= 7 ErrMin= 3.69D-04
 ErrMax= 3.69D-04  0.00D+00 EMaxC= 1.00D-01 BMatC= 5.66D-05 BMatP= 1.29D-03
 IDIUse=3 WtCom= 9.96D-01 WtEn= 3.69D-03
 Coeff-Com:  0.975D-03 0.140D-02-0.592D-02-0.497D-01-0.290D-01 0.212D+00
 Coeff-Com:  0.870D+00
 Coeff-En:   0.000D+00 0.000D+00 0.000D+00 0.000D+00 0.000D+00 0.000D+00
 Coeff-En:   0.100D+01
 Coeff:      0.972D-03 0.140D-02-0.590D-02-0.495D-01-0.289D-01 0.211D+00
 Coeff:      0.871D+00
 Gap=     0.143 Goal=   None    Shift=    0.000
 RMSDP=2.37D-04 MaxDP=1.22D-02 DE=-1.37D-03 OVMax= 3.29D-03

 Cycle   8  Pass 0  IDiag  1:
 E= -326.823816620585     Delta-E=       -0.000055644738 Rises=F Damp=F
 DIIS: error= 1.18D-04 at cycle   8 NSaved=   8.
 NSaved= 8 IEnMin= 8 EnMin= -326.823816620585     IErMin= 8 ErrMin= 1.18D-04
 ErrMax= 1.18D-04  0.00D+00 EMaxC= 1.00D-01 BMatC= 4.92D-06 BMatP= 5.66D-05
 IDIUse=3 WtCom= 9.99D-01 WtEn= 1.18D-03
 Coeff-Com:  0.162D-02 0.510D-04 0.714D-03-0.189D-01-0.300D-01 0.571D-01
 Coeff-Com:  0.419D+00 0.570D+00
 Coeff-En:   0.000D+00 0.000D+00 0.000D+00 0.000D+00 0.000D+00 0.000D+00
 Coeff-En:   0.000D+00 0.100D+01
 Coeff:      0.162D-02 0.510D-04 0.713D-03-0.189D-01-0.299D-01 0.570D-01
 Coeff:      0.418D+00 0.571D+00
 Gap=     0.142 Goal=   None    Shift=    0.000
 RMSDP=4.21D-05 MaxDP=1.58D-03 DE=-5.56D-05 OVMax= 6.88D-04

 Cycle   9  Pass 0  IDiag  1:
 E= -326.823820635531     Delta-E=       -0.000004014946 Rises=F Damp=F
 DIIS: error= 3.27D-05 at cycle   9 NSaved=   9.
 NSaved= 9 IEnMin= 9 EnMin= -326.823820635531     IErMin= 9 ErrMin= 3.27D-05
 ErrMax= 3.27D-05  0.00D+00 EMaxC= 1.00D-01 BMatC= 4.33D-07 BMatP= 4.92D-06
 IDIUse=1 WtCom= 1.00D+00 WtEn= 0.00D+00
 Coeff-Com:  0.414D-03-0.708D-04 0.804D-03-0.154D-02-0.750D-02 0.242D-02
 Coeff-Com:  0.798D-01 0.243D+00 0.682D+00
 Coeff:      0.414D-03-0.708D-04 0.804D-03-0.154D-02-0.750D-02 0.242D-02
 Coeff:      0.798D-01 0.243D+00 0.682D+00
 Gap=     0.142 Goal=   None    Shift=    0.000
 RMSDP=1.01D-05 MaxDP=2.13D-04 DE=-4.01D-06 OVMax= 1.71D-04

 Cycle  10  Pass 0  IDiag  1:
 E= -326.823820958856     Delta-E=       -0.000000323325 Rises=F Damp=F
 DIIS: error= 1.21D-05 at cycle  10 NSaved=  10.
 NSaved=10 IEnMin=10 EnMin= -326.823820958856     IErMin=10 ErrMin= 1.21D-05
 ErrMax= 1.21D-05  0.00D+00 EMaxC= 1.00D-01 BMatC= 6.39D-08 BMatP= 4.33D-07
 IDIUse=1 WtCom= 1.00D+00 WtEn= 0.00D+00
 Coeff-Com:  0.906D-04-0.628D-04 0.322D-03 0.459D-03-0.908D-03-0.136D-02
 Coeff-Com:  0.107D-01 0.738D-01 0.308D+00 0.609D+00
 Coeff:      0.906D-04-0.628D-04 0.322D-03 0.459D-03-0.908D-03-0.136D-02
 Coeff:      0.107D-01 0.738D-01 0.308D+00 0.609D+00
 Gap=     0.142 Goal=   None    Shift=    0.000
 RMSDP=2.82D-06 MaxDP=7.89D-05 DE=-3.23D-07 OVMax= 4.57D-05

 Initial convergence to 1.0D-05 achieved.  Increase integral accuracy.
 Cycle  11  Pass 1  IDiag  1:
 E= -326.823820303736     Delta-E=        0.000000655119 Rises=F Damp=F
 DIIS: error= 7.17D-06 at cycle   1 NSaved=   1.
 NSaved= 1 IEnMin= 1 EnMin= -326.823820303736     IErMin= 1 ErrMin= 7.17D-06
 ErrMax= 7.17D-06  0.00D+00 EMaxC= 1.00D-01 BMatC= 1.53D-08 BMatP= 1.53D-08
 IDIUse=1 WtCom= 1.00D+00 WtEn= 0.00D+00
 Coeff-Com:  0.100D+01
 Coeff:      0.100D+01
 Gap=     0.143 Goal=   None    Shift=    0.000
 RMSDP=2.82D-06 MaxDP=7.89D-05 DE= 6.55D-07 OVMax= 1.12D-04

 Cycle  12  Pass 1  IDiag  1:
 E= -326.823820281796     Delta-E=        0.000000021940 Rises=F Damp=F
 DIIS: error= 1.33D-05 at cycle   2 NSaved=   2.
 NSaved= 2 IEnMin= 1 EnMin= -326.823820303736     IErMin= 1 ErrMin= 7.17D-06
 ErrMax= 1.33D-05  0.00D+00 EMaxC= 1.00D-01 BMatC= 4.50D-08 BMatP= 1.53D-08
 IDIUse=1 WtCom= 1.00D+00 WtEn= 0.00D+00
 Coeff-Com:  0.637D+00 0.363D+00
 Coeff:      0.637D+00 0.363D+00
 Gap=     0.142 Goal=   None    Shift=    0.000
 RMSDP=5.27D-06 MaxDP=2.89D-04 DE= 2.19D-08 OVMax= 7.88D-05

 Cycle  13  Pass 1  IDiag  1:
 E= -326.823820318711     Delta-E=       -0.000000036915 Rises=F Damp=F
 DIIS: error= 9.54D-07 at cycle   3 NSaved=   3.
 NSaved= 3 IEnMin= 3 EnMin= -326.823820318711     IErMin= 3 ErrMin= 9.54D-07
 ErrMax= 9.54D-07  0.00D+00 EMaxC= 1.00D-01 BMatC= 2.64D-10 BMatP= 1.53D-08
 IDIUse=1 WtCom= 1.00D+00 WtEn= 0.00D+00
 Coeff-Com:  0.126D+00 0.100D+00 0.774D+00
 Coeff:      0.126D+00 0.100D+00 0.774D+00
 Gap=     0.142 Goal=   None    Shift=    0.000
 RMSDP=2.84D-07 MaxDP=5.59D-06 DE=-3.69D-08 OVMax= 5.57D-06

 Cycle  14  Pass 1  IDiag  1:
 E= -326.823820318882     Delta-E=       -0.000000000171 Rises=F Damp=F
 DIIS: error= 4.48D-07 at cycle   4 NSaved=   4.
 NSaved= 4 IEnMin= 4 EnMin= -326.823820318882     IErMin= 4 ErrMin= 4.48D-07
 ErrMax= 4.48D-07  0.00D+00 EMaxC= 1.00D-01 BMatC= 8.72D-11 BMatP= 2.64D-10
 IDIUse=1 WtCom= 1.00D+00 WtEn= 0.00D+00
 Coeff-Com: -0.205D-01 0.532D-02 0.390D+00 0.625D+00
 Coeff:     -0.205D-01 0.532D-02 0.390D+00 0.625D+00
 Gap=     0.142 Goal=   None    Shift=    0.000
 RMSDP=1.33D-07 MaxDP=4.60D-06 DE=-1.71D-10 OVMax= 2.08D-06

 Cycle  15  Pass 1  IDiag  1:
 E= -326.823820318964     Delta-E=       -0.000000000082 Rises=F Damp=F
 DIIS: error= 6.57D-08 at cycle   5 NSaved=   5.
 NSaved= 5 IEnMin= 5 EnMin= -326.823820318964     IErMin= 5 ErrMin= 6.57D-08
 ErrMax= 6.57D-08  0.00D+00 EMaxC= 1.00D-01 BMatC= 1.52D-12 BMatP= 8.72D-11
 IDIUse=1 WtCom= 1.00D+00 WtEn= 0.00D+00
 Coeff-Com: -0.962D-02 0.151D-02 0.918D-01 0.173D+00 0.743D+00
 Coeff:     -0.962D-02 0.151D-02 0.918D-01 0.173D+00 0.743D+00
 Gap=     0.142 Goal=   None    Shift=    0.000
 RMSDP=3.31D-08 MaxDP=1.24D-06 DE=-8.21D-11 OVMax= 6.54D-07

 Cycle  16  Pass 1  IDiag  1:
 E= -326.823820318967     Delta-E=       -0.000000000003 Rises=F Damp=F
 DIIS: error= 3.68D-08 at cycle   6 NSaved=   6.
 NSaved= 6 IEnMin= 6 EnMin= -326.823820318967     IErMin= 6 ErrMin= 3.68D-08
 ErrMax= 3.68D-08  0.00D+00 EMaxC= 1.00D-01 BMatC= 3.81D-13 BMatP= 1.52D-12
 IDIUse=1 WtCom= 1.00D+00 WtEn= 0.00D+00
 Coeff-Com: -0.242D-02 0.998D-03 0.286D-02 0.166D-01 0.385D+00 0.597D+00
 Coeff:     -0.242D-02 0.998D-03 0.286D-02 0.166D-01 0.385D+00 0.597D+00
 Gap=     0.142 Goal=   None    Shift=    0.000
 RMSDP=1.33D-08 MaxDP=6.08D-07 DE=-2.96D-12 OVMax= 2.42D-07

 Cycle  17  Pass 1  IDiag  1:
 E= -326.823820318970     Delta-E=       -0.000000000003 Rises=F Damp=F
 DIIS: error= 8.72D-09 at cycle   7 NSaved=   7.
 NSaved= 7 IEnMin= 7 EnMin= -326.823820318970     IErMin= 7 ErrMin= 8.72D-09
 ErrMax= 8.72D-09  0.00D+00 EMaxC= 1.00D-01 BMatC= 2.07D-14 BMatP= 3.81D-13
 IDIUse=1 WtCom= 1.00D+00 WtEn= 0.00D+00
 Coeff-Com:  0.325D-03 0.255D-03-0.128D-01-0.196D-01 0.445D-01 0.218D+00
 Coeff-Com:  0.770D+00
 Coeff:      0.325D-03 0.255D-03-0.128D-01-0.196D-01 0.445D-01 0.218D+00
 Coeff:      0.770D+00
 Gap=     0.142 Goal=   None    Shift=    0.000
 RMSDP=6.41D-09 MaxDP=2.89D-07 DE=-2.73D-12 OVMax= 1.30D-07

 SCF Done:  E(RPBE1PBE) =  -326.823820319     A.U. after   17 cycles
            NFock= 17  Conv=0.64D-08     -V/T= 2.0003
 KE= 3.267249289008D+02 PE=-1.451586986251D+03 EE= 4.594884810076D+02
 Leave Link  502 at Mon Mar  6 10:22:37 2023, MaxMem=  1048576000 cpu:              49.4 elap:              50.2
 (Enter /ssoft/spack/external/gaussian/g16-C.01/avx2/g16/l801.exe)
 DoSCS=F DFT=T ScalE2(SS,OS)=  1.000000  1.000000
 Range of M.O.s used for correlation:     1   158
 NBasis=   158 NAE=    29 NBE=    29 NFC=     0 NFV=     0
 NROrb=    158 NOA=    29 NOB=    29 NVA=   129 NVB=   129
 Leave Link  801 at Mon Mar  6 10:22:37 2023, MaxMem=  1048576000 cpu:               0.0 elap:               0.0
 (Enter /ssoft/spack/external/gaussian/g16-C.01/avx2/g16/l1101.exe)
 Using compressed storage, NAtomX=    19.
 Will process     20 centers per pass.
   1 Symmetry operations used in ECPInt.
 ECPInt:  NShTT=    3081 NPrTT=   10567 LenC2=    3067 LenP2D=    8757.
 LDataN:  DoStor=T MaxTD1= 5 Len=  102
 R6Disp: Adding Grimme-D3(BJ) dispersion energy 1st derivatives to the gradient.
 Leave Link 1101 at Mon Mar  6 10:22:37 2023, MaxMem=  1048576000 cpu:               0.2 elap:               0.2
 (Enter /ssoft/spack/external/gaussian/g16-C.01/avx2/g16/l1102.exe)
 Symmetrizing basis deriv contribution to polar:
 IMax=3 JMax=2 DiffMx= 0.00D+00
 Leave Link 1102 at Mon Mar  6 10:22:37 2023, MaxMem=  1048576000 cpu:               0.1 elap:               0.1
 (Enter /ssoft/spack/external/gaussian/g16-C.01/avx2/g16/l1110.exe)
 Forming Gx(P) for the SCF density, NAtomX=    19.
 Integral derivatives from FoFJK, PRISM(SPDF).
 Do as many integral derivatives as possible in FoFJK.
 G2DrvN: MDV=    1048573907.
 G2DrvN: will do    20 centers at a time, making    1 passes.
 Calling FoFCou, ICntrl=  3107 FMM=F I1Cent=   0 AccDes= 0.00D+00.
 FoFJK:  IHMeth= 1 ICntrl=    3107 DoSepK=F KAlg= 0 I1Cent=           0 FoldK=F
 IRaf=         0 NMat=       1 IRICut=       1 DoRegI=T DoRafI=F ISym2E= 0 IDoP0=0 IntGTp=1.
 FoFCou: FMM=F IPFlag=           0 FMFlag=      100000 FMFlg1=           0
         NFxFlg=           0 DoJE=F BraDBF=F KetDBF=F FulRan=T
         wScrn=  0.000000 ICntrl=      3107 IOpCl=  0 I1Cent=           0 NGrid=           0
         NMat0=    1 NMatS0=      1 NMatT0=    0 NMatD0=    1 NMtDS0=    0 NMtDT0=    0
 Symmetry not used in FoFCou.
 End of G2Drv F.D. properties file   721 does not exist.
 End of G2Drv F.D. properties file   722 does not exist.
 End of G2Drv F.D. properties file   788 does not exist.
 Leave Link 1110 at Mon Mar  6 10:24:31 2023, MaxMem=  1048576000 cpu:             113.6 elap:             114.4
 (Enter /ssoft/spack/external/gaussian/g16-C.01/avx2/g16/l1002.exe)
 Minotr:  Closed shell wavefunction.
          IDoAtm=1111111111111111111
          Direct CPHF calculation.
          Differentiating once with respect to electric field.
                with respect to dipole field.
          Differentiating once with respect to nuclear coordinates.
          Requested convergence is 1.0D-08 RMS, and 1.0D-07 maximum.
          Secondary convergence is 1.0D-12 RMS, and 1.0D-12 maximum.
          NewPWx=T KeepS1=F KeepF1=F KeepIn=T MapXYZ=F SortEE=F KeepMc=T.
         5670 words used for storage of precomputed grid.
 Keep R1 ints in memory in canonical form, NReq=81192305.
 FoFCou: FMM=F IPFlag=           0 FMFlag=           0 FMFlg1=           0
         NFxFlg=           0 DoJE=F BraDBF=F KetDBF=F FulRan=T
         wScrn=  0.000000 ICntrl=       600 IOpCl=  0 I1Cent=           0 NGrid=           0
         NMat0=    1 NMatS0=  12561 NMatT0=    0 NMatD0=    1 NMtDS0=    0 NMtDT0=    0
 Symmetry not used in FoFCou.
 Two-electron integral symmetry not used.
          MDV=    1048576000 using IRadAn=       1.
          Solving linear equations simultaneously, MaxMat=       0.
          There are    60 degrees of freedom in the 1st order CPHF.  IDoFFX=6 NUNeed=     3.
     57 vectors produced by pass  0 Test12= 6.24D-15 1.67D-09 XBig12= 5.69D+01 3.00D+00.
 AX will form    57 AO Fock derivatives at one time.
     57 vectors produced by pass  1 Test12= 6.24D-15 1.67D-09 XBig12= 7.84D+00 4.40D-01.
     57 vectors produced by pass  2 Test12= 6.24D-15 1.67D-09 XBig12= 9.24D-02 5.54D-02.
     57 vectors produced by pass  3 Test12= 6.24D-15 1.67D-09 XBig12= 3.30D-04 3.32D-03.
     57 vectors produced by pass  4 Test12= 6.24D-15 1.67D-09 XBig12= 4.66D-07 7.56D-05.
     39 vectors produced by pass  5 Test12= 6.24D-15 1.67D-09 XBig12= 4.17D-10 1.95D-06.
      4 vectors produced by pass  6 Test12= 6.24D-15 1.67D-09 XBig12= 3.96D-13 7.17D-08.
      1 vectors produced by pass  7 Test12= 6.24D-15 1.67D-09 XBig12= 4.09D-16 2.31D-09.
 InvSVY:  IOpt=1 It=  1 EMax= 1.69D-14
 Solved reduced A of dimension   329 with    60 vectors.
 FullF1:  Do perturbations      1 to       3.
 Isotropic polarizability for W=    0.000000       68.31 Bohr**3.
 End of Minotr F.D. properties file   721 does not exist.
 End of Minotr F.D. properties file   722 does not exist.
 End of Minotr F.D. properties file   788 does not exist.
 Leave Link 1002 at Mon Mar  6 10:26:19 2023, MaxMem=  1048576000 cpu:             106.5 elap:             107.3
 (Enter /ssoft/spack/external/gaussian/g16-C.01/avx2/g16/l601.exe)
 Copying SCF densities to generalized density rwf, IOpCl= 0 IROHF=0.

 **********************************************************************

            Population analysis using the SCF Density.

 **********************************************************************

 Orbital symmetries:
       Occupied  (A) (A) (A) (A) (A) (A) (A) (A) (A) (A) (A) (A)
                 (A) (A) (A) (A) (A) (A) (A) (A) (A) (A) (A) (A)
                 (A) (A) (A) (A) (A)
       Virtual   (A) (A) (A) (A) (A) (A) (A) (A) (A) (A) (A) (A)
                 (A) (A) (A) (A) (A) (A) (A) (A) (A) (A) (A) (A)
                 (A) (A) (A) (A) (A) (A) (A) (A) (A) (A) (A) (A)
                 (A) (A) (A) (A) (A) (A) (A) (A) (A) (A) (A) (A)
                 (A) (A) (A) (A) (A) (A) (A) (A) (A) (A) (A) (A)
                 (A) (A) (A) (A) (A) (A) (A) (A) (A) (A) (A) (A)
                 (A) (A) (A) (A) (A) (A) (A) (A) (A) (A) (A) (A)
                 (A) (A) (A) (A) (A) (A) (A) (A) (A) (A) (A) (A)
                 (A) (A) (A) (A) (A) (A) (A) (A) (A) (A) (A) (A)
                 (A) (A) (A) (A) (A) (A) (A) (A) (A) (A) (A) (A)
                 (A) (A) (A) (A) (A) (A) (A) (A) (A)
 The electronic state is 1-A.
 Alpha  occ. eigenvalues --  -18.81769 -14.19731 -10.06113 -10.05583 -10.01729
 Alpha  occ. eigenvalues --   -9.99505  -9.97976  -0.77462  -0.67541  -0.60350
 Alpha  occ. eigenvalues --   -0.57333  -0.55466  -0.47912  -0.38787  -0.35037
 Alpha  occ. eigenvalues --   -0.34350  -0.31552  -0.29176  -0.28209  -0.25580
 Alpha  occ. eigenvalues --   -0.25104  -0.24597  -0.21993  -0.17836  -0.14622
 Alpha  occ. eigenvalues --   -0.07600  -0.04107   0.06902   0.07208
 Alpha virt. eigenvalues --    0.21455   0.25491   0.26237   0.27160   0.28787
 Alpha virt. eigenvalues --    0.29682   0.30347   0.32319   0.33598   0.34530
 Alpha virt. eigenvalues --    0.35203   0.36515   0.39452   0.42432   0.42852
 Alpha virt. eigenvalues --    0.45736   0.50572   0.50854   0.57518   0.61737
 Alpha virt. eigenvalues --    0.63113   0.64630   0.68356   0.70740   0.71408
 Alpha virt. eigenvalues --    0.74307   0.78434   0.80485   0.82725   0.83317
 Alpha virt. eigenvalues --    0.85984   0.88959   0.89057   0.89575   0.90856
 Alpha virt. eigenvalues --    0.92291   0.92696   0.93657   0.94773   0.96233
 Alpha virt. eigenvalues --    0.96934   0.97947   0.99393   0.99495   1.00121
 Alpha virt. eigenvalues --    1.01964   1.07174   1.15071   1.16624   1.19014
 Alpha virt. eigenvalues --    1.22514   1.26104   1.26717   1.29355   1.32588
 Alpha virt. eigenvalues --    1.35403   1.43928   1.48723   1.49795   1.53029
 Alpha virt. eigenvalues --    1.58885   1.62685   1.70328   1.74123   1.75077
 Alpha virt. eigenvalues --    1.78266   1.78491   1.80001   1.83387   1.86369
 Alpha virt. eigenvalues --    1.91506   1.92480   1.98785   2.01967   2.03508
 Alpha virt. eigenvalues --    2.05977   2.07668   2.08424   2.09755   2.11508
 Alpha virt. eigenvalues --    2.12427   2.16749   2.17479   2.20887   2.24645
 Alpha virt. eigenvalues --    2.27731   2.28876   2.31739   2.34873   2.37406
 Alpha virt. eigenvalues --    2.39915   2.41545   2.43621   2.47431   2.51450
 Alpha virt. eigenvalues --    2.54594   2.57126   2.61616   2.67796   2.71508
 Alpha virt. eigenvalues --    2.77616   2.78925   2.80552   2.84674   2.88094
 Alpha virt. eigenvalues --    2.97031   3.02133   3.05118   3.07475   3.09255
 Alpha virt. eigenvalues --    3.11680   3.15918   3.21109   3.26291   3.32238
 Alpha virt. eigenvalues --    3.33889   3.35208   3.37020   3.40048   3.40284
 Alpha virt. eigenvalues --    3.43224   3.44105   3.46660   3.49839   3.51263
 Alpha virt. eigenvalues --    3.57315   3.62437   3.64224   3.82553
     Molecular Orbital Coefficients:
                          25        26        27        28        29
                           O         O         O         O         O
     Eigenvalues --    -0.14622  -0.07600  -0.04107   0.06902   0.07208
   1 1   O  1S         -0.01077   0.08750   0.02946  -0.00233   0.00387
   2        2S         -0.02142   0.15951   0.05764  -0.00351   0.01784
   3        3S         -0.02806   0.28350   0.07918  -0.01734  -0.06668
   4        4PX         0.01150  -0.00936  -0.02211  -0.55043   0.20242
   5        4PY         0.12719   0.11725  -0.00160   0.19165   0.52283
   6        4PZ        -0.05279   0.42886   0.13735  -0.05903  -0.12193
   7        5PX         0.00863  -0.00509  -0.02654  -0.44525   0.16447
   8        5PY         0.07850   0.08000   0.00516   0.15546   0.43424
   9        5PZ        -0.03775   0.29325   0.09375  -0.03939  -0.07554
  10        6D 0        0.00510  -0.01493  -0.00339   0.00147   0.00431
  11        6D+1       -0.00083   0.00036  -0.00076   0.01372  -0.00495
  12        6D-1       -0.00867  -0.00746  -0.00034  -0.00415  -0.01119
  13        6D+2        0.00094   0.00138  -0.00130   0.00193   0.00360
  14        6D-2       -0.00003   0.00006  -0.00015   0.00264  -0.00150
  15 2   N  1S         -0.01525   0.03180  -0.07041   0.02111  -0.00410
  16        2S         -0.03219   0.06826  -0.15146   0.05967  -0.01907
  17        3S         -0.06052   0.10385  -0.20710   0.04451   0.10256
  18        4PX        -0.03621   0.08202  -0.11669   0.02731  -0.00462
  19        4PY        -0.07067  -0.03873   0.15469  -0.00916   0.01990
  20        4PZ         0.04286  -0.12547   0.47923  -0.04879   0.04328
  21        5PX         0.01267  -0.06868   0.08229   0.01669  -0.06051
  22        5PY         0.03504   0.01519  -0.12653   0.00493  -0.01684
  23        5PZ        -0.01857   0.11299  -0.38341   0.00689  -0.06934
  24        6D 0        0.00002  -0.00389   0.00993  -0.00339   0.00054
  25        6D+1       -0.00387   0.00282  -0.00849   0.00475  -0.00041
  26        6D-1       -0.00056  -0.00224   0.00620  -0.00313   0.00150
  27        6D+2       -0.00280  -0.00043   0.00094   0.00041   0.00174
  28        6D-2        0.00737   0.00236  -0.00301   0.00036  -0.00288
  29 3   C  1S          0.01925  -0.01057   0.00325   0.03191  -0.03893
  30        2S         -0.04757   0.02496  -0.00794  -0.07252   0.08372
  31        3S         -0.01877  -0.01044  -0.09814  -0.30086   0.55121
  32        4PX        -0.09674   0.05272  -0.02915  -0.07432   0.09632
  33        4PY        -0.21021   0.02159   0.00001  -0.05633   0.04249
  34        4PZ        -0.00297   0.08643  -0.00466  -0.05393   0.05055
  35        5PX        -0.04648   0.04727  -0.04159  -0.02931   0.18998
  36        5PY        -0.07728   0.02545  -0.01188  -0.13191  -0.06708
  37        5PZ        -0.02693   0.01851  -0.02632   0.04127  -0.02583
  38        6D 0       -0.00054  -0.01123  -0.00248   0.00553  -0.00570
  39        6D+1       -0.00347  -0.00795  -0.00234   0.00113  -0.00096
  40        6D-1       -0.00686  -0.00699  -0.00195   0.00448   0.00065
  41        6D+2       -0.01529   0.00014   0.00217   0.00187   0.00500
  42        6D-2        0.01054   0.00164  -0.00213  -0.00150  -0.00480
  43 4   C  1S          0.00985   0.05846  -0.00786   0.00051  -0.00187
  44        2S         -0.01570  -0.15860   0.00958   0.01010   0.02032
  45        3S         -0.16362  -0.05633   0.15060  -0.22700  -0.02938
  46        4PX         0.02217  -0.03088   0.09669   0.04657  -0.00935
  47        4PY         0.35614  -0.02326  -0.06035  -0.02614  -0.09305
  48        4PZ        -0.02299  -0.35111  -0.10575   0.01014   0.01765
  49        5PX        -0.00423  -0.01380   0.02055  -0.23206   0.12036
  50        5PY         0.14297  -0.00565  -0.09513   0.12762   0.21416
  51        5PZ         0.03336  -0.10902  -0.05892   0.06039   0.10736
  52        6D 0       -0.00345  -0.01568  -0.00608  -0.00310  -0.01063
  53        6D+1        0.00084  -0.00015  -0.00279  -0.03286   0.01250
  54        6D-1       -0.01165  -0.00675  -0.00406   0.01348   0.03758
  55        6D+2       -0.02105  -0.00110   0.00077  -0.00167   0.00270
  56        6D-2        0.00302   0.00113  -0.00377  -0.01406   0.00303
  57 5   C  1S          0.01550  -0.00161  -0.02096  -0.04108  -0.01619
  58        2S         -0.04218   0.00307   0.04658   0.10205   0.04993
  59        3S          0.00567  -0.00664   0.03052   0.55583   0.12620
  60        4PX         0.08430  -0.04283  -0.01737  -0.11657  -0.04565
  61        4PY        -0.23995  -0.00410   0.05847   0.07283   0.01847
  62        4PZ         0.04869   0.04087   0.11788   0.05387  -0.00136
  63        5PX         0.03187  -0.04826   0.05529  -0.23397  -0.16201
  64        5PY        -0.05693   0.01673   0.04357   0.13112  -0.13518
  65        5PZ        -0.01909  -0.00635  -0.00488  -0.01156  -0.10015
  66        6D 0       -0.01072  -0.00559  -0.02445  -0.00492  -0.00224
  67        6D+1        0.00100   0.01362  -0.00524   0.00492  -0.00077
  68        6D-1       -0.00422  -0.00307  -0.00706  -0.00006   0.00355
  69        6D+2       -0.02112  -0.00193   0.01238   0.00164   0.00693
  70        6D-2       -0.00267   0.00043  -0.00227   0.00127   0.00316
  71 6   C  1S         -0.01094   0.00577  -0.02085  -0.00040  -0.00096
  72        2S          0.03340  -0.00925   0.04800   0.00304  -0.01293
  73        3S          0.01463  -0.01266   0.07691   0.00981   0.03567
  74        4PX        -0.02566   0.02380  -0.03938   0.00502   0.00209
  75        4PY        -0.08488  -0.00328  -0.01787   0.01537   0.01100
  76        4PZ         0.02778  -0.03799   0.08651  -0.01695  -0.00894
  77        5PX         0.00314   0.01098   0.01324   0.01414  -0.00515
  78        5PY        -0.04833   0.00359  -0.04712   0.04927  -0.01345
  79        5PZ         0.03523   0.00563  -0.03041  -0.01707   0.00332
  80        6D 0        0.00062   0.00627  -0.02282   0.00252  -0.00202
  81        6D+1       -0.00226  -0.00507   0.01420  -0.00247   0.00073
  82        6D-1       -0.00245  -0.00042   0.00348  -0.00115   0.00008
  83        6D+2       -0.00200   0.00399  -0.01028   0.00209  -0.00165
  84        6D-2        0.00115   0.00062   0.00326   0.00053  -0.00014
  85 7   C  1S          0.01387   0.00908  -0.02143  -0.00476  -0.00833
  86        2S         -0.03724  -0.02301   0.04928   0.00020   0.01582
  87        3S         -0.01750  -0.03128   0.08872   0.11149   0.10580
  88        4PX         0.04663   0.03726  -0.05734  -0.00003  -0.01453
  89        4PY        -0.02055  -0.02745   0.06110  -0.00985   0.00595
  90        4PZ         0.02391  -0.02768   0.06016  -0.00742   0.00415
  91        5PX         0.00323   0.01217  -0.00583  -0.00849  -0.02264
  92        5PY        -0.01755  -0.01303   0.01887  -0.03256  -0.01385
  93        5PZ        -0.01389  -0.00395  -0.06164   0.00987  -0.00890
  94        6D 0       -0.00050   0.00187  -0.00490   0.00008  -0.00047
  95        6D+1        0.00336  -0.00532   0.01984  -0.00444   0.00123
  96        6D-1       -0.00165   0.00584  -0.02001   0.00281  -0.00234
  97        6D+2       -0.00050   0.00149   0.00048  -0.00018  -0.00114
  98        6D-2        0.00446  -0.00094   0.00455  -0.00242  -0.00047
  99 8   H  1S          0.17519   0.04279  -0.00133  -0.02823  -0.00818
 100        2S          0.12036   0.06136   0.01985  -0.03514  -0.24574
 101        3PX        -0.00385  -0.00081  -0.00155  -0.00350   0.00112
 102        3PY        -0.00153   0.00098   0.00025  -0.00125   0.00217
 103        3PZ        -0.00665   0.00169   0.00039  -0.00241   0.00102
 104 9   H  1S          0.29359   0.07023   0.01883  -0.05847  -0.18863
 105        2S          0.19830   0.06957   0.01378  -0.07260  -0.28215
 106        3PX        -0.00018  -0.00153   0.00359   0.00644  -0.00195
 107        3PY        -0.00286  -0.00524  -0.00232  -0.00047  -0.00072
 108        3PZ         0.00408  -0.00829  -0.00168   0.00051   0.00303
 109 10  H  1S          0.23169   0.02914   0.00750   0.00467  -0.02493
 110        2S          0.16988   0.03588   0.00060  -0.08569  -0.18439
 111        3PX         0.00709   0.00105  -0.00282  -0.00300  -0.00166
 112        3PY         0.00104  -0.00036   0.00102   0.00261   0.00209
 113        3PZ        -0.00307   0.00121   0.00580   0.00243   0.00162
 114 11  H  1S         -0.08509  -0.05827  -0.14864  -0.04192  -0.00222
 115        2S         -0.07288  -0.05676  -0.18678  -0.18852  -0.09513
 116        3PX         0.00176  -0.00353  -0.00143  -0.00396   0.00275
 117        3PY        -0.00812   0.00138   0.00402   0.00249   0.00318
 118        3PZ        -0.00072   0.00071   0.00209   0.00228   0.00182
 119 12  H  1S         -0.02151  -0.02811   0.05782  -0.00244   0.00315
 120        2S          0.01633  -0.00997   0.05742  -0.04828   0.02463
 121        3PX        -0.00397  -0.00094   0.00072   0.00078   0.00270
 122        3PY        -0.00187  -0.00061   0.00089  -0.00038  -0.00011
 123        3PZ         0.00015  -0.00183   0.00418  -0.00107   0.00113
 124 13  H  1S          0.00534   0.05057  -0.13208   0.01389  -0.00252
 125        2S          0.00312   0.05730  -0.21633   0.01080  -0.01757
 126        3PX        -0.00107   0.00129  -0.00247   0.00060   0.00034
 127        3PY        -0.00226   0.00128  -0.00301   0.00116   0.00160
 128        3PZ         0.00027  -0.00021   0.00303  -0.00018   0.00154
 129 14  H  1S         -0.02187  -0.01608   0.06375  -0.00660  -0.00019
 130        2S         -0.03249  -0.01451   0.04163  -0.02051  -0.00621
 131        3PX         0.00052   0.00149  -0.00239  -0.00003  -0.00055
 132        3PY        -0.00233  -0.00084   0.00247  -0.00034   0.00151
 133        3PZ         0.00132  -0.00132   0.00251  -0.00056  -0.00206
 134 15  H  1S          0.00354  -0.02475   0.05445  -0.00302   0.00759
 135        2S          0.01039  -0.00268   0.05034  -0.07764  -0.04518
 136        3PX         0.00004   0.00017   0.00030   0.00075   0.00063
 137        3PY        -0.00115  -0.00054   0.00241   0.00051   0.00054
 138        3PZ         0.00107  -0.00118   0.00413  -0.00035   0.00070
 139 16  H  1S          0.02963  -0.01047   0.06399  -0.01467   0.00376
 140        2S          0.03995   0.00160   0.04675  -0.03398  -0.00991
 141        3PX         0.00069   0.00111  -0.00196  -0.00094  -0.00106
 142        3PY        -0.00115  -0.00058  -0.00035  -0.00027  -0.00019
 143        3PZ         0.00050  -0.00163   0.00416  -0.00151  -0.00011
 144 17  H  1S         -0.02535   0.04680  -0.13186   0.01769  -0.01224
 145        2S         -0.02231   0.04583  -0.22769  -0.00828  -0.05079
 146        3PX         0.00228   0.00248  -0.00399   0.00208  -0.00049
 147        3PY        -0.00073  -0.00099   0.00347  -0.00015   0.00131
 148        3PZ         0.00015   0.00073   0.00007   0.00094   0.00056
 149 18  H  1S         -0.08453   0.01355   0.02504  -0.01404   0.03393
 150        2S         -0.04979   0.03676   0.04405   0.17495   0.03624
 151        3PX        -0.00355   0.00057  -0.00051  -0.00097   0.00300
 152        3PY        -0.00413  -0.00074  -0.00112   0.00013   0.00224
 153        3PZ         0.00307   0.00354  -0.00026  -0.00054   0.00263
 154 19  H  1S          0.00747  -0.09506  -0.01136   0.05329  -0.04019
 155        2S         -0.00262  -0.08713  -0.03042   0.16580  -0.23040
 156        3PX        -0.00258   0.00411  -0.00128  -0.00464   0.00406
 157        3PY        -0.00833   0.00093   0.00069  -0.00096   0.00365
 158        3PZ         0.00184   0.00104   0.00016  -0.00183   0.00184
                          30        31        32        33        34
                           V         V         V         V         V
     Eigenvalues --     0.21455   0.25491   0.26237   0.27160   0.28787
   1 1   O  1S          0.00505   0.01141  -0.00431  -0.00039  -0.00440
   2        2S          0.01182   0.03623  -0.00657  -0.00420  -0.00898
   3        3S          0.02014  -0.05357  -0.05124   0.01836  -0.04428
   4        4PX         0.03071  -0.03631   0.02890   0.03647  -0.04613
   5        4PY        -0.05618  -0.05968   0.05746  -0.00505   0.01015
   6        4PZ        -0.00135   0.00395  -0.01955  -0.03340  -0.00674
   7        5PX         0.02890  -0.04527   0.02680   0.05328  -0.03225
   8        5PY        -0.06090  -0.07454   0.04624  -0.00670   0.01903
   9        5PZ        -0.00501   0.03177  -0.00236  -0.03706   0.00423
  10        6D 0        0.00079   0.00155  -0.00058  -0.00003  -0.00067
  11        6D+1       -0.00022   0.00123  -0.00027  -0.00037   0.00056
  12        6D-1        0.00060   0.00060  -0.00118  -0.00002  -0.00089
  13        6D+2        0.00002   0.00002   0.00036   0.00033   0.00014
  14        6D-2       -0.00009   0.00009  -0.00090   0.00009   0.00058
  15 2   N  1S          0.01959  -0.00023   0.00644   0.02661  -0.01034
  16        2S          0.08443   0.00594   0.00053   0.04436  -0.02667
  17        3S         -0.28261  -0.04560   0.19748   0.31369  -0.03993
  18        4PX         0.01799  -0.04201   0.00613   0.02534  -0.00373
  19        4PY        -0.01511   0.01254   0.06944  -0.01757  -0.08732
  20        4PZ        -0.04499  -0.05147   0.00009  -0.02985  -0.01817
  21        5PX        -0.07949   0.14538  -0.05985  -0.02346  -0.02449
  22        5PY         0.01769  -0.13786  -0.31083   0.05267   0.16725
  23        5PZ         0.10871   0.16785   0.04029   0.13666   0.04294
  24        6D 0       -0.00223   0.00036  -0.00134   0.00121  -0.00173
  25        6D+1        0.00023   0.00212  -0.00049   0.00019   0.00117
  26        6D-1       -0.00009   0.00168  -0.00018  -0.00114  -0.00206
  27        6D+2        0.00095  -0.00232   0.00432  -0.00167   0.01283
  28        6D-2        0.00143  -0.00103  -0.00231  -0.00350  -0.00366
  29 3   C  1S         -0.00426  -0.05792   0.04393   0.03378  -0.04133
  30        2S         -0.00636   0.01943  -0.00591  -0.00773   0.04256
  31        3S          0.19401   1.98112  -1.61283  -1.16820   1.16164
  32        4PX        -0.01503  -0.07037   0.04726   0.03275   0.00163
  33        4PY        -0.01173  -0.04109   0.05392   0.02105   0.04138
  34        4PZ        -0.00944  -0.09228   0.04237   0.02247  -0.05654
  35        5PX        -0.03079  -0.23026   0.10216   0.08397   0.01078
  36        5PY        -0.01449  -0.09922   0.16692   0.05098   0.15731
  37        5PZ        -0.03405  -0.27236   0.07905   0.01990  -0.24021
  38        6D 0       -0.00065  -0.00039  -0.00083  -0.00093   0.00414
  39        6D+1       -0.00018   0.00157  -0.00163  -0.00099   0.00197
  40        6D-1        0.00010   0.00260  -0.00078   0.00014   0.00170
  41        6D+2       -0.00150   0.00210  -0.00069   0.00015  -0.00155
  42        6D-2        0.00334   0.00563  -0.00253  -0.00277  -0.00383
  43 4   C  1S          0.00012  -0.02733  -0.00318   0.01241   0.02550
  44        2S         -0.01054   0.01706  -0.01433  -0.02826  -0.04640
  45        3S         -0.01879   0.64691   0.59593  -0.18781  -0.55586
  46        4PX        -0.02888   0.01901  -0.00031  -0.03600  -0.00470
  47        4PY         0.05967   0.07942  -0.00226  -0.00777   0.00992
  48        4PZ        -0.01206  -0.05543  -0.01009   0.01073   0.03697
  49        5PX        -0.04917   0.14170   0.08262  -0.14075  -0.05579
  50        5PY         0.09304   0.24547  -0.01491  -0.03329  -0.04028
  51        5PZ        -0.02478  -0.06159  -0.07269   0.04777   0.25465
  52        6D 0        0.00380   0.00587   0.00089   0.00355  -0.00304
  53        6D+1        0.00079  -0.00441   0.00012   0.00017  -0.00096
  54        6D-1       -0.00243  -0.00155   0.00245   0.00320   0.00075
  55        6D+2       -0.00113   0.00031   0.00274  -0.00128   0.00617
  56        6D-2       -0.00052  -0.00090  -0.00101   0.00240   0.00423
  57 5   C  1S         -0.02723  -0.03140   0.02806   0.01213  -0.00647
  58        2S          0.01335   0.02010  -0.00330  -0.03200   0.01873
  59        3S          0.81109   0.94800  -1.27541   0.27825  -0.00532
  60        4PX         0.02606   0.01423   0.00030  -0.03176   0.04573
  61        4PY        -0.05330  -0.01174   0.11099  -0.00002   0.12828
  62        4PZ        -0.07471  -0.10289   0.00011  -0.10047  -0.04606
  63        5PX         0.00470   0.17838   0.04980  -0.21968   0.06739
  64        5PY        -0.09276  -0.08094   0.22743   0.09363   0.59883
  65        5PZ        -0.15520  -0.39939  -0.08509  -0.27842  -0.30059
  66        6D 0        0.00340  -0.00115   0.00622   0.00245   0.00723
  67        6D+1        0.00577  -0.00129   0.00199   0.00474  -0.00355
  68        6D-1        0.00283   0.00082   0.00062  -0.00014  -0.00240
  69        6D+2       -0.00015  -0.00057   0.00229  -0.00101  -0.00978
  70        6D-2        0.00225  -0.00707   0.00075   0.00507   0.00396
  71 6   C  1S         -0.06784  -0.02964  -0.06450   0.01470   0.04965
  72        2S          0.05369   0.01149   0.03239  -0.02966  -0.05497
  73        3S          2.07032   1.06942   2.43777  -0.26354  -1.16767
  74        4PX         0.09803  -0.05036   0.06101  -0.05048   0.07951
  75        4PY         0.04055   0.03911   0.08215  -0.06736  -0.03403
  76        4PZ        -0.06177  -0.06537  -0.02672  -0.20719  -0.02964
  77        5PX         0.27491  -0.15683   0.20948  -0.25955   0.31084
  78        5PY         0.10588   0.00585   0.09755  -0.27862  -0.07269
  79        5PZ        -0.14345  -0.15082  -0.01513  -0.78881  -0.12105
  80        6D 0        0.00175   0.00235  -0.00517   0.00415  -0.00449
  81        6D+1       -0.00586  -0.00389   0.00259  -0.00295  -0.00133
  82        6D-1       -0.00587  -0.00319  -0.00079  -0.00480  -0.00482
  83        6D+2       -0.00160  -0.00203  -0.00166   0.00280   0.00139
  84        6D-2        0.00553  -0.00245  -0.00122   0.00165  -0.00266
  85 7   C  1S         -0.07135   0.05698   0.05285   0.00218  -0.01277
  86        2S          0.05364  -0.03615  -0.02024  -0.01053   0.00125
  87        3S          2.25959  -1.97204  -1.96783  -0.01077   0.46305
  88        4PX         0.11672  -0.06382   0.03246  -0.05353   0.13021
  89        4PY        -0.05778   0.01801   0.11794  -0.08331   0.16026
  90        4PZ        -0.02201  -0.02955  -0.01688  -0.20068  -0.08929
  91        5PX         0.32101  -0.18024   0.23066  -0.23396   0.57357
  92        5PY        -0.15446  -0.05843   0.27021  -0.32909   0.72056
  93        5PZ        -0.04711  -0.06297   0.00203  -0.79267  -0.40622
  94        6D 0       -0.00359   0.00143  -0.00030  -0.00172   0.00019
  95        6D+1       -0.00046  -0.00085   0.00018  -0.00434  -0.00761
  96        6D-1        0.00184   0.00447   0.00108   0.00567  -0.00292
  97        6D+2        0.00069  -0.00051   0.00258  -0.00211  -0.00563
  98        6D-2       -0.00828  -0.00133  -0.00094  -0.00149   0.00952
  99 8   H  1S          0.01065   0.00278   0.00064  -0.00424  -0.00625
 100        2S         -0.02798  -0.58603   0.69518   0.45301  -0.05827
 101        3PX        -0.00148  -0.00232   0.00183   0.00178   0.00453
 102        3PY         0.00104   0.00682  -0.00554  -0.00326   0.00253
 103        3PZ        -0.00102  -0.00493   0.00279   0.00195  -0.00103
 104 9   H  1S          0.02926   0.02640  -0.04109  -0.01559  -0.02724
 105        2S         -0.10739  -0.68217  -0.23346   0.13643   0.16740
 106        3PX        -0.00368  -0.00090  -0.00492  -0.00095   0.00628
 107        3PY        -0.00108  -0.00276  -0.00281   0.00100   0.00536
 108        3PZ         0.00104  -0.00016  -0.00165  -0.00103  -0.00074
 109 10  H  1S          0.01006   0.00282  -0.04086  -0.00011   0.04533
 110        2S         -0.31898  -0.26921   0.82206   0.14609   0.98722
 111        3PX        -0.00025   0.00586  -0.00041   0.00038   0.00149
 112        3PY         0.00478   0.00198  -0.00353  -0.00366  -0.00226
 113        3PZ        -0.00381   0.00110   0.00457  -0.00056   0.00735
 114 11  H  1S          0.03308   0.00492   0.00805   0.01658   0.02099
 115        2S         -0.49604  -1.00150   0.34738  -0.49840  -0.50432
 116        3PX        -0.00621   0.00258  -0.00454  -0.00515   0.00196
 117        3PY        -0.00302  -0.00193  -0.00074   0.00168   0.00338
 118        3PZ         0.00436   0.00461  -0.00394  -0.00183  -0.00137
 119 12  H  1S         -0.02311   0.03036   0.03327  -0.02231  -0.00255
 120        2S         -0.55321  -0.58841  -0.75306   0.07491   0.94591
 121        3PX         0.00759   0.00587   0.00572   0.00044  -0.00690
 122        3PY        -0.00467  -0.00125  -0.00319  -0.00005   0.00416
 123        3PZ        -0.00002   0.00114  -0.00129  -0.00146  -0.00193
 124 13  H  1S          0.02988   0.01676  -0.01329   0.00885  -0.02464
 125        2S         -0.99734  -0.53220  -1.04864  -1.07835   0.10681
 126        3PX        -0.00055   0.00266  -0.00141   0.00212   0.00357
 127        3PY         0.00900   0.00249   0.00100   0.00808   0.00024
 128        3PZ         0.00708   0.00254   0.00472   0.00055  -0.00055
 129 14  H  1S          0.00017  -0.03420   0.01310  -0.01086  -0.02654
 130        2S         -1.03094  -0.09324  -1.22935   1.32457   0.23914
 131        3PX        -0.00707  -0.00222  -0.00310   0.00345   0.00506
 132        3PY         0.00127  -0.00164  -0.00005  -0.00295  -0.00151
 133        3PZ        -0.00807  -0.00114  -0.00478   0.00007  -0.00154
 134 15  H  1S         -0.02106  -0.02969  -0.03528  -0.01156   0.05428
 135        2S         -0.71488   0.59796   1.23085   0.06350   1.49613
 136        3PX         0.00613  -0.00273  -0.00657   0.00070  -0.00452
 137        3PY         0.00573  -0.00263  -0.00354  -0.00010  -0.00403
 138        3PZ        -0.00457   0.00133   0.00203  -0.00211  -0.00066
 139 16  H  1S          0.00562  -0.01404   0.00430  -0.01151  -0.02229
 140        2S         -1.08968   1.07582   0.32694   1.21085  -1.10464
 141        3PX        -0.00521   0.00252   0.00290   0.00047  -0.00249
 142        3PY        -0.00791   0.00377  -0.00006   0.00428   0.00503
 143        3PZ        -0.00461   0.00306   0.00203  -0.00188  -0.00266
 144 17  H  1S          0.02510   0.00891  -0.00396   0.01220  -0.00476
 145        2S         -1.08424   0.73294   0.78077  -1.25724  -0.81143
 146        3PX         0.00102   0.00123  -0.00102   0.00343   0.00046
 147        3PY        -0.00233  -0.00263  -0.00184  -0.00487   0.00061
 148        3PZ         0.01070  -0.00356  -0.00313   0.00426   0.00057
 149 18  H  1S         -0.00916  -0.01269   0.00980   0.00732   0.00919
 150        2S         -0.09669  -0.75827   0.50430   0.45342  -0.53957
 151        3PX         0.00031   0.00369  -0.00285  -0.00327   0.00335
 152        3PY        -0.00133  -0.00613   0.00398   0.00338   0.00004
 153        3PZ        -0.00005  -0.00073   0.00243   0.00141   0.00083
 154 19  H  1S         -0.00202   0.03105  -0.02646  -0.01984   0.03089
 155        2S         -0.11193  -1.19387   0.76492   0.50419  -0.74923
 156        3PX        -0.00068  -0.00383   0.00344   0.00238  -0.00090
 157        3PY        -0.00070  -0.00196  -0.00114  -0.00081  -0.00048
 158        3PZ         0.00153   0.00633  -0.00411  -0.00238   0.00282
     Density Matrix:
                           1         2         3         4         5
   1 1   O  1S          2.13449
   2        2S          0.26878   0.68974
   3        3S          0.33895   0.53497   0.50662
   4        4PX         0.00155   0.00626  -0.01452   0.71921
   5        4PY         0.01268   0.03058  -0.02071   0.00175   0.69068
   6        4PZ         0.04496   0.06742   0.23819   0.00439  -0.05530
   7        5PX         0.00018   0.00215  -0.01430   0.57450   0.00254
   8        5PY         0.01026   0.03447  -0.01912   0.00492   0.55718
   9        5PZ         0.03565   0.09485   0.19155   0.00464  -0.03337
  10        6D 0        0.00220   0.00361  -0.00404   0.00050   0.00252
  11        6D+1       -0.00024  -0.00044   0.00000  -0.01943  -0.00004
  12        6D-1        0.00092   0.00147  -0.00024   0.00000  -0.01822
  13        6D+2       -0.00033  -0.00044  -0.00052  -0.00063   0.00523
  14        6D-2       -0.00002  -0.00016   0.00004  -0.00415  -0.00054
  15 2   N  1S         -0.00260  -0.00610   0.00016  -0.02160   0.00724
  16        2S         -0.00715  -0.01776  -0.00273  -0.06690   0.01036
  17        3S          0.00364   0.01481   0.01249  -0.01124   0.13068
  18        4PX        -0.00591  -0.01421  -0.00367  -0.03077   0.01426
  19        4PY         0.00231   0.00431   0.00380   0.00691   0.00523
  20        4PZ         0.00681   0.01872   0.00053   0.02835   0.00631
  21        5PX        -0.00247  -0.00667  -0.00566  -0.04245  -0.06767
  22        5PY        -0.00337  -0.01238  -0.01151  -0.00153  -0.00859
  23        5PZ        -0.00435  -0.00990   0.01256  -0.00350  -0.04697
  24        6D 0        0.00042   0.00094   0.00069   0.00183  -0.00129
  25        6D+1       -0.00069  -0.00107  -0.00016  -0.00550   0.00176
  26        6D-1        0.00024   0.00064   0.00003   0.00292   0.00040
  27        6D+2        0.00013   0.00004  -0.00058   0.00158   0.00093
  28        6D-2       -0.00046  -0.00071  -0.00055  -0.00230  -0.00140
  29 3   C  1S          0.00351   0.00694   0.01079  -0.03944  -0.02280
  30        2S         -0.00590  -0.01443  -0.01584   0.09019   0.04760
  31        3S         -0.01357  -0.03403  -0.11705   0.53324   0.45088
  32        4PX        -0.00345  -0.00992   0.00002   0.05894   0.04551
  33        4PY        -0.00365  -0.00995  -0.00015   0.04561  -0.00705
  34        4PZ        -0.01260  -0.02686  -0.04276   0.04179   0.02636
  35        5PX         0.00317   0.00186  -0.01478   0.07610   0.18055
  36        5PY        -0.00002  -0.00312   0.02227   0.10090  -0.12792
  37        5PZ        -0.00430  -0.01577  -0.01213  -0.06942  -0.01814
  38        6D 0        0.00063   0.00150  -0.00005  -0.00691  -0.00581
  39        6D+1        0.00016  -0.00073  -0.00358  -0.00267  -0.00395
  40        6D-1        0.00038   0.00028  -0.00147  -0.00492  -0.00005
  41        6D+2        0.00024   0.00027  -0.00009  -0.00046   0.00203
  42        6D-2        0.00016  -0.00070   0.00101  -0.00216  -0.00266
  43 4   C  1S         -0.00758  -0.01113   0.01969   0.00007   0.02359
  44        2S          0.00019  -0.01256  -0.08047  -0.00523  -0.03417
  45        3S         -0.02119   0.07309   0.05048   0.21915  -0.18305
  46        4PX         0.00061   0.00158   0.00368   0.04136   0.00704
  47        4PY         0.00379   0.00530   0.01826  -0.00126   0.00895
  48        4PZ         0.04088   0.09551  -0.08396   0.00673  -0.08391
  49        5PX         0.00535   0.01995   0.00309   0.33179   0.03324
  50        5PY        -0.00444  -0.00081  -0.04402  -0.04565   0.31824
  51        5PZ        -0.00790   0.02978  -0.05397  -0.01678   0.10803
  52        6D 0        0.01111   0.02005   0.01136  -0.00068  -0.01672
  53        6D+1        0.00022   0.00074  -0.00098   0.04027   0.00041
  54        6D-1        0.00518   0.01077  -0.00102   0.00040   0.03885
  55        6D+2       -0.00032  -0.00018  -0.00070   0.00268  -0.00337
  56        6D-2       -0.00003  -0.00024   0.00015   0.01443  -0.00096
  57 5   C  1S          0.00328   0.00607   0.00998   0.02778  -0.02489
  58        2S         -0.00635  -0.01557  -0.02017  -0.07028   0.07355
  59        3S         -0.01287  -0.05599  -0.08014  -0.53456   0.34732
  60        4PX         0.00407   0.01111   0.00559   0.05896  -0.06243
  61        4PY        -0.00315  -0.01121   0.01448  -0.04056   0.00304
  62        4PZ        -0.01241  -0.02596  -0.04009  -0.03065   0.01041
  63        5PX        -0.00096   0.00120   0.02137   0.16389  -0.25359
  64        5PY        -0.00719  -0.02129   0.01449  -0.17961  -0.09825
  65        5PZ        -0.00839  -0.03380  -0.01719  -0.01450  -0.11916
  66        6D 0        0.00028   0.00089  -0.00059   0.00500  -0.00664
  67        6D+1       -0.00056  -0.00076   0.00355  -0.00621   0.00518
  68        6D-1        0.00000  -0.00040  -0.00255   0.00304   0.00177
  69        6D+2        0.00002   0.00061   0.00030  -0.00089   0.00220
  70        6D-2       -0.00029   0.00031  -0.00115  -0.00232   0.00248
  71 6   C  1S         -0.00001   0.00070  -0.00714   0.00179  -0.00033
  72        2S         -0.00109   0.00122   0.00359  -0.01175  -0.01210
  73        3S          0.00567   0.01293   0.00150  -0.00255   0.03468
  74        4PX        -0.00019  -0.00233   0.00238   0.00084   0.00765
  75        4PY        -0.00090  -0.00250   0.00169  -0.01209   0.00964
  76        4PZ         0.00026   0.00152   0.00049   0.00605  -0.01633
  77        5PX        -0.00157  -0.00038   0.00232  -0.01408   0.00424
  78        5PY        -0.00395  -0.00871  -0.00463  -0.05900  -0.00028
  79        5PZ        -0.00021  -0.00130  -0.00342   0.02174   0.00543
  80        6D 0       -0.00043  -0.00098  -0.00045  -0.00185   0.00003
  81        6D+1        0.00029   0.00063   0.00044   0.00198  -0.00110
  82        6D-1       -0.00009   0.00001   0.00013   0.00084  -0.00064
  83        6D+2       -0.00042  -0.00077   0.00012  -0.00235  -0.00029
  84        6D-2       -0.00001   0.00018   0.00047  -0.00156   0.00026
  85 7   C  1S         -0.00060  -0.00187   0.00461   0.00077  -0.00658
  86        2S          0.00175   0.00353  -0.00100   0.00913   0.00607
  87        3S         -0.00105  -0.00302  -0.02188  -0.07125   0.14481
  88        4PX        -0.00175  -0.00277  -0.00731  -0.00901  -0.00376
  89        4PY         0.00146   0.00328  -0.00096   0.01314  -0.00261
  90        4PZ        -0.00007   0.00035   0.00043   0.00055   0.00041
  91        5PX         0.00057   0.00125   0.00256  -0.00324  -0.02719
  92        5PY         0.00152   0.00180   0.00373   0.03535  -0.03126
  93        5PZ        -0.00235  -0.00798  -0.00737  -0.01417  -0.00923
  94        6D 0       -0.00004  -0.00002  -0.00005   0.00004  -0.00033
  95        6D+1        0.00031   0.00092   0.00005   0.00328  -0.00078
  96        6D-1       -0.00036  -0.00101  -0.00040  -0.00272  -0.00034
  97        6D+2       -0.00012  -0.00052  -0.00025  -0.00105  -0.00076
  98        6D-2        0.00005   0.00021  -0.00010   0.00184  -0.00113
  99 8   H  1S         -0.00428  -0.00964  -0.01358   0.03370   0.01213
 100        2S          0.00700   0.00739   0.05785  -0.05590  -0.23277
 101        3PX         0.00033  -0.00092  -0.00113   0.00252  -0.00209
 102        3PY        -0.00002  -0.00110  -0.00200   0.00138   0.00055
 103        3PZ         0.00032  -0.00036  -0.00047   0.00172  -0.00107
 104 9   H  1S         -0.01313  -0.04486   0.03274  -0.00788  -0.10877
 105        2S          0.00232  -0.02051   0.05625  -0.03250  -0.24885
 106        3PX         0.00013  -0.00023   0.00011  -0.00512   0.00017
 107        3PY        -0.00066  -0.00181  -0.00391   0.00014  -0.00363
 108        3PZ         0.00050  -0.00080  -0.00413   0.00107   0.00249
 109 10  H  1S         -0.00345  -0.00423  -0.01890  -0.01952   0.01630
 110        2S          0.00073  -0.00269   0.02768   0.01841  -0.18434
 111        3PX        -0.00031   0.00092   0.00120   0.00153  -0.00039
 112        3PY        -0.00002  -0.00103  -0.00235  -0.00125   0.00187
 113        3PZ         0.00026  -0.00005  -0.00036  -0.00125   0.00150
 114 11  H  1S          0.00718   0.01468   0.01807   0.03205  -0.02844
 115        2S         -0.00114  -0.00007   0.00675   0.16495  -0.19040
 116        3PX        -0.00001  -0.00025  -0.00212   0.00418   0.00094
 117        3PY         0.00012   0.00058   0.00138  -0.00081   0.00308
 118        3PZ        -0.00008   0.00089   0.00183  -0.00196   0.00330
 119 12  H  1S          0.00005   0.00152   0.00185   0.00022  -0.00487
 120        2S          0.00300   0.00696   0.00573   0.06491   0.01217
 121        3PX         0.00012   0.00017  -0.00011  -0.00014   0.00221
 122        3PY        -0.00008   0.00003  -0.00016   0.00025  -0.00066
 123        3PZ         0.00018   0.00020  -0.00008   0.00120   0.00051
 124 13  H  1S         -0.00134  -0.00437  -0.00075  -0.00422   0.00980
 125        2S         -0.00487  -0.01268  -0.00700  -0.00487  -0.00229
 126        3PX         0.00008  -0.00021  -0.00000  -0.00035   0.00081
 127        3PY         0.00011   0.00001   0.00013  -0.00034   0.00210
 128        3PZ         0.00028   0.00019   0.00013   0.00070   0.00132
 129 14  H  1S          0.00045  -0.00015   0.00464   0.00139  -0.00559
 130        2S          0.00074   0.00034   0.00518   0.01304  -0.02025
 131        3PX         0.00006  -0.00001   0.00003   0.00003  -0.00022
 132        3PY         0.00012   0.00034   0.00010   0.00078   0.00101
 133        3PZ        -0.00029   0.00005   0.00003  -0.00048  -0.00243
 134 15  H  1S          0.00062   0.00180   0.00265   0.00423   0.00056
 135        2S          0.00474   0.01118   0.02196   0.06509  -0.07769
 136        3PX         0.00013   0.00007  -0.00005  -0.00083   0.00092
 137        3PY         0.00002   0.00032   0.00035  -0.00040   0.00049
 138        3PZ         0.00001   0.00011  -0.00008   0.00020   0.00063
 139 16  H  1S          0.00020   0.00232  -0.00501   0.00761   0.00078
 140        2S          0.00035   0.00258   0.00301   0.02213  -0.01428
 141        3PX         0.00002  -0.00020   0.00013   0.00052  -0.00112
 142        3PY        -0.00003  -0.00012  -0.00005   0.00041  -0.00044
 143        3PZ         0.00006   0.00023   0.00047   0.00126  -0.00088
 144 17  H  1S         -0.00140  -0.00375  -0.00288  -0.01132  -0.00294
 145        2S         -0.00514  -0.01440  -0.00595   0.00114  -0.05123
 146        3PX        -0.00022  -0.00023  -0.00010  -0.00253   0.00119
 147        3PY         0.00006   0.00014  -0.00036   0.00061   0.00100
 148        3PZ         0.00004   0.00009  -0.00024  -0.00067   0.00098
 149 18  H  1S         -0.00315  -0.00774  -0.01421   0.03763   0.02210
 150        2S          0.01016   0.01872   0.01326  -0.17044   0.10361
 151        3PX         0.00018  -0.00100  -0.00124   0.00026   0.00218
 152        3PY         0.00034   0.00015   0.00003  -0.00030   0.00128
 153        3PZ         0.00012  -0.00013  -0.00082   0.00022   0.00299
 154 19  H  1S          0.00827   0.01872   0.02332  -0.04876  -0.02586
 155        2S          0.00198   0.00534   0.02591  -0.25789  -0.18757
 156        3PX        -0.00009   0.00060   0.00141   0.00486   0.00239
 157        3PY        -0.00001   0.00012   0.00048   0.00188   0.00232
 158        3PZ        -0.00021   0.00044   0.00137   0.00308   0.00208
                           6         7         8         9        10
   6        4PZ         0.48522
   7        5PX         0.00216   0.46125
   8        5PY        -0.06005   0.00478   0.45293
   9        5PZ         0.32036   0.00277  -0.03546   0.21595
  10        6D 0       -0.01860   0.00042   0.00256  -0.01185   0.00085
  11        6D+1       -0.00047  -0.01508  -0.00012  -0.00035  -0.00001
  12        6D-1       -0.00343  -0.00004  -0.01398  -0.00201   0.00010
  13        6D+2       -0.00028  -0.00046   0.00415  -0.00021   0.00001
  14        6D-2       -0.00000  -0.00319  -0.00048  -0.00002  -0.00000
  15 2   N  1S          0.00621  -0.01743   0.00425   0.00410  -0.00063
  16        2S          0.01337  -0.05120   0.00469   0.00894  -0.00139
  17        3S          0.01091  -0.00237   0.10576   0.00987  -0.00178
  18        4PX         0.02336  -0.02335   0.01004   0.01702  -0.00154
  19        4PY         0.00701   0.00342   0.00632   0.00354   0.00031
  20        4PZ         0.01513   0.02044   0.01388   0.01060   0.00095
  21        5PX        -0.01677  -0.03634  -0.05466  -0.01341   0.00093
  22        5PY        -0.02000   0.00011  -0.00927  -0.01367   0.00040
  23        5PZ         0.00896  -0.00027  -0.04693   0.00560  -0.00140
  24        6D 0        0.00013   0.00176  -0.00090  -0.00001   0.00002
  25        6D+1        0.00007  -0.00437   0.00119  -0.00008  -0.00006
  26        6D-1       -0.00031   0.00238   0.00030  -0.00021   0.00005
  27        6D+2       -0.00081   0.00089   0.00104  -0.00042   0.00004
  28        6D-2        0.00097  -0.00155  -0.00137   0.00075  -0.00004
  29 3   C  1S         -0.00502  -0.03973  -0.02324  -0.00466   0.00015
  30        2S          0.01320   0.08417   0.04490   0.00861  -0.00052
  31        3S         -0.14832   0.44023   0.37810  -0.09411   0.00552
  32        4PX         0.01430   0.06417   0.04755   0.01100  -0.00055
  33        4PY         0.01599   0.04670  -0.00089   0.01095  -0.00063
  34        4PZ         0.02203   0.04258   0.02733   0.02242  -0.00046
  35        5PX        -0.01973   0.07117   0.15307  -0.01030   0.00058
  36        5PY         0.04793   0.08668  -0.10417   0.03133  -0.00150
  37        5PZ         0.00261  -0.05278  -0.01368   0.00239  -0.00033
  38        6D 0       -0.00682  -0.00592  -0.00474  -0.00486   0.00016
  39        6D+1       -0.00799  -0.00183  -0.00258  -0.00519   0.00028
  40        6D-1       -0.00632  -0.00381   0.00024  -0.00430   0.00021
  41        6D+2        0.00029  -0.00031   0.00260   0.00033  -0.00006
  42        6D-2       -0.00033  -0.00117  -0.00273  -0.00038   0.00016
  43 4   C  1S          0.09766  -0.00105   0.01102   0.06640  -0.00875
  44        2S         -0.23643  -0.00269  -0.01110  -0.15048   0.01321
  45        3S          0.05914   0.17697  -0.13356   0.04481  -0.00292
  46        4PX         0.00679   0.00391   0.00642   0.00300   0.00011
  47        4PY        -0.06207   0.00009  -0.02231  -0.04680   0.00599
  48        4PZ        -0.35967   0.00453  -0.05017  -0.22547   0.01301
  49        5PX         0.00311   0.25942   0.02993   0.00348  -0.00003
  50        5PY        -0.11137  -0.03567   0.25070  -0.07390   0.00456
  51        5PZ        -0.16080  -0.01350   0.09457  -0.10016   0.00590
  52        6D 0       -0.01448  -0.00059  -0.01302  -0.00836   0.00072
  53        6D+1       -0.00037   0.03315   0.00063  -0.00002   0.00004
  54        6D-1       -0.01688   0.00039   0.03350  -0.01004   0.00056
  55        6D+2        0.00048   0.00216  -0.00160   0.00045  -0.00013
  56        6D-2        0.00013   0.01248  -0.00104   0.00001   0.00004
  57 5   C  1S         -0.00255   0.03000  -0.02559  -0.00307   0.00013
  58        2S          0.00123  -0.06768   0.06683   0.00099  -0.00027
  59        3S         -0.11889  -0.43932   0.28383  -0.08015   0.00447
  60        4PX        -0.02048   0.06072  -0.06196  -0.01537   0.00079
  61        4PY         0.01031  -0.04479   0.00962   0.00298  -0.00047
  62        4PZ         0.01961  -0.03314   0.01673   0.02017  -0.00019
  63        5PX         0.03939   0.13749  -0.21174   0.02397  -0.00095
  64        5PY         0.03720  -0.15208  -0.08059   0.02197  -0.00107
  65        5PZ         0.01128  -0.01451  -0.09652   0.00622  -0.00048
  66        6D 0       -0.00723   0.00442  -0.00562  -0.00508   0.00010
  67        6D+1        0.00974  -0.00474   0.00339   0.00635  -0.00039
  68        6D-1       -0.00601   0.00222   0.00179  -0.00387   0.00020
  69        6D+2        0.00106  -0.00069   0.00314   0.00080  -0.00009
  70        6D-2        0.00043  -0.00127   0.00232   0.00049  -0.00018
  71 6   C  1S         -0.00020   0.00020  -0.00019   0.00195  -0.00011
  72        2S          0.00572  -0.00839  -0.00892   0.00366  -0.00007
  73        3S          0.00333  -0.00254   0.03174   0.00396  -0.00015
  74        4PX         0.00170  -0.00010   0.00383   0.00079   0.00005
  75        4PY        -0.00466  -0.01168   0.00766  -0.00435  -0.00015
  76        4PZ        -0.00042   0.00223  -0.01437  -0.00064   0.00016
  77        5PX         0.00651  -0.01264   0.00249   0.00455   0.00001
  78        5PY        -0.00986  -0.04731  -0.00074  -0.00756   0.00001
  79        5PZ        -0.00541   0.01761   0.00251  -0.00320   0.00027
  80        6D 0       -0.00097  -0.00118  -0.00035  -0.00063  -0.00003
  81        6D+1        0.00006   0.00131  -0.00076  -0.00006   0.00005
  82        6D-1        0.00044   0.00067  -0.00047   0.00025   0.00000
  83        6D+2        0.00058  -0.00188  -0.00051   0.00035  -0.00006
  84        6D-2        0.00114  -0.00117   0.00016   0.00078  -0.00004
  85 7   C  1S          0.00278   0.00251  -0.00565   0.00060  -0.00010
  86        2S         -0.00530   0.00332   0.00644  -0.00348   0.00030
  87        3S         -0.04068  -0.06196   0.12173  -0.02715   0.00180
  88        4PX         0.00880  -0.00533  -0.00446   0.00907  -0.00058
[...]
 934441,1.01313209,-0.05094721,0.02174611,0.01011986,-0.10652072,-0.091
 25109,0.01943274,0.01006001,-0.01128372,-0.00536940,-0.10478161,0.1192
 2025,0.05475424,0.83082291,0.01739483,0.00116167,0.00436881,-0.0365407
 3,-0.15584408,0.01064961,0.00908584,-0.02884813,-0.01624896,0.09276710
 ,-0.26399913,-0.09134753,-0.10231332,0.46567435,0.00024443,0.00609828,
 0.01062138,0.00576225,0.01956936,-0.10843051,-0.00567429,0.01473581,0.
 00065494,0.04391968,-0.08758564,-0.11771138,0.14868283,0.00031940,1.07
 315884,0.00078944,0.00099725,0.00084642,-0.07461540,0.01135763,-0.0621
 0071,0.00031083,-0.00014586,0.00016523,-0.00165508,0.00154599,-0.00069
 009,-0.00686606,-0.01263205,0.02018568,0.99706837,0.00109462,0.0007142
 0,-0.00126679,-0.00570846,-0.12134628,0.04585983,0.00025848,-0.0002195
 3,-0.00020402,-0.00106265,-0.00076088,0.00127326,0.00724481,-0.0129538
 9,0.03546384,0.07084155,0.99561415,-0.00053973,-0.00221654,-0.00071796
 ,-0.00866228,0.02885829,-0.19364754,0.00040752,-0.00067329,-0.00052148
 ,0.00121843,0.00060318,0.00254409,-0.00167784,0.01212026,-0.01338360,-
 0.14231912,0.22145243,0.56920296,0.00079104,0.00231738,-0.00100484,-0.
 06988245,0.02581851,0.04369839,0.00044902,-0.00075408,-0.00002526,-0.0
 0419508,0.00054745,0.00020907,-0.00533586,-0.02029711,-0.01275547,-0.0
 0682396,-0.00153112,-0.01446218,1.00805110,-0.00012339,0.00172346,0.00
 067878,-0.00794072,-0.14827564,-0.04891942,0.00087428,-0.00062666,-0.0
 0095328,-0.00563483,-0.00357618,0.00135312,0.01123988,-0.03689490,-0.0
 2039979,0.00517046,0.00579509,0.00808049,0.11049031,0.74102832,-0.0004
 2637,0.00153269,-0.00025775,0.00208635,-0.03572090,-0.14226356,-0.0004
 3423,0.00086219,0.00046843,0.00027557,0.00101458,-0.00126316,0.0007461
 2,-0.00125647,0.00560447,0.01145753,-0.03134475,-0.04397113,0.09383391
 ,-0.32698853,0.78616944,0.00205028,0.00196346,-0.00133023,-0.00000536,
 0.00022278,0.00015746,-0.01543723,0.01339742,-0.13919016,0.00288260,-0
 .00250829,0.01511680,-0.00075371,0.00069066,-0.00045540,-0.00006235,-0
 .00005364,0.00004198,-0.00006408,-0.00003276,-0.00009753,0.01183056,0.
 00456292,0.00343551,-0.00541267,-0.00019441,0.00010723,-0.00049974,0.0
 1311049,0.01659697,0.03688583,0.00670913,-0.00865659,0.04107078,-0.000
 53379,0.00402304,0.00248928,-0.00000999,0.00009594,0.00013145,0.000015
 90,-0.00004233,-0.00009927,-0.01101233,-0.00934854,0.00071200,-0.00228
 566,0.00415803,0.00018500,0.00013080,0.00015981,-0.14400123,0.03044545
 ,-0.68936798,-0.00414482,0.00167084,-0.01623845,0.00028485,-0.00150893
 ,0.00175065,0.00008147,-0.00008225,-0.00005366,0.00006364,-0.00000591,
 -0.00013141,0.14704119,-0.04170359,0.71185257,-0.04535537,-0.00165834,
 -0.04300030,-0.00000026,-0.00074521,-0.00039875,0.00383023,-0.00374249
 ,0.01700388,0.01912049,0.00105945,-0.12156742,0.00077538,0.00838075,0.
 02416249,0.00024998,-0.00011035,-0.00076229,0.00016359,0.00003045,0.00
 020948,-0.00119478,-0.00382697,0.00122090,0.01991109,-0.00176768,0.006
 94503,-0.00260360,-0.00012016,0.00190411,0.00045392,0.00046379,-0.0106
 1762,0.04119926,0.00317061,0.01450579,0.00635755,0.00296122,-0.0089399
 7,-0.04549893,0.00014392,-0.00069236,0.00039548,-0.00031925,0.00011581
 ,-0.00014388,-0.00276547,-0.00680905,0.00415806,-0.00475084,0.00273834
 ,-0.02800380,-0.00174332,0.00790419,-0.00002319,0.00028300,0.00118621,
 0.00014532,0.00127889,-0.01582947,-0.09752479,0.00454975,-0.66250761,-
 0.00045996,-0.00285801,-0.02465183,0.00048373,0.00053499,-0.00143849,-
 0.00020691,-0.00051972,0.00028157,0.00112096,0.00294738,0.00024434,0.1
 2203885,-0.00004246,0.69068454,0.00302140,-0.00036841,-0.00207437,-0.0
 0363577,-0.00412102,0.02314399,0.00039712,-0.00221694,-0.00085348,-0.0
 0083384,0.00011867,0.02281079,0.00592958,-0.00496904,0.03901730,-0.002
 26260,-0.00218097,0.00003870,0.00155710,0.00107446,0.00083474,0.000630
 06,0.00079810,-0.00052284,-0.00049669,0.00258930,0.00218398,-0.0115555
 5,-0.00277441,0.00176369,0.00462284,-0.00477609,-0.01080863,0.03456320
 ,-0.00015523,0.00301041,-0.00083247,0.00347060,-0.00628093,-0.04367123
 ,-0.00562770,0.01727999,0.05611436,-0.00475332,-0.00567671,0.00120845,
 0.00079669,0.00123259,0.00265112,0.00020925,-0.00039867,0.00120266,0.0
 0438074,-0.00597224,-0.00340911,0.00799718,0.00733919,0.00063604,0.001
 45190,0.00404089,-0.00076656,-0.00099969,-0.00580595,-0.00003341,0.001
 46099,0.00310296,-0.00124422,-0.00251779,-0.02173780,0.03849152,0.0659
 9523,-0.70823252,0.00180292,0.00075764,0.00133399,-0.00136896,-0.00351
 384,0.00061199,-0.00030070,-0.00160496,0.00053840,0.00210101,-0.004524
 81,-0.00005517,-0.04579456,-0.05618121,0.73433823,-0.00167264,0.005580
 23,0.00370929,-0.02541167,-0.01119559,-0.00331971,0.00005103,0.0000296
 0,0.00005722,-0.01867569,-0.00386487,-0.01325573,-0.57656856,0.0504411
 2,-0.26496244,0.00298940,0.00223035,-0.00330346,-0.00081732,0.00139427
 ,0.00187085,-0.00015212,-0.00022839,0.00008685,0.00162859,-0.00123980,
 0.00093839,0.00666836,0.00086438,0.00699217,0.60904048,0.00274026,-0.0
 0560719,-0.00475302,-0.03994121,-0.01492494,-0.00936418,-0.00076811,0.
 00052623,0.00012309,0.03511634,0.00189047,0.01797243,0.04448342,0.0124
 1307,0.02145763,-0.00226821,0.00271654,-0.00360439,-0.00354125,0.00254
 631,0.00245259,0.00008109,0.00033624,-0.00025590,-0.00120379,0.0023806
 2,-0.00055584,0.00219629,-0.00095025,-0.00072572,-0.04140311,-0.000036
 80,0.00172927,-0.00132206,0.00185053,0.01146531,0.00468704,0.00400523,
 -0.00092513,0.00041985,0.00012807,0.01652169,-0.00441250,0.00375098,-0
 .26374439,0.02068734,-0.11080752,0.00370169,-0.00030089,0.00140331,0.0
 0003052,0.00002028,-0.00019706,-0.00004710,-0.00012842,0.00002921,0.00
 052830,0.00070262,0.00150163,-0.03930890,0.00291689,-0.00953390,0.2700
 6913,-0.02234135,0.10664473,-0.00164331,-0.00117787,0.00109512,0.00111
 395,-0.01014498,-0.00855340,-0.00023972,-0.00007966,-0.00021740,0.0023
 3825,0.00080573,0.00119436,0.00053858,0.00070272,0.00065268,-0.0195357
 4,0.09702994,0.09718419,0.00034933,0.00026276,-0.00207985,0.00007260,0
 .00013853,-0.00012375,0.00020563,0.00003582,-0.00125772,-0.00019101,-0
 .00011224,-0.00017291,-0.00048352,0.00001176,0.00012546,0.01517848,-0.
 00044511,0.00047778,-0.00041129,-0.00240681,0.01437595,0.01621032,-0.0
 0014960,0.00010058,-0.00019389,0.00035436,0.00017138,0.00105425,-0.001
 11307,0.00001280,-0.00000394,0.09636402,-0.35701301,-0.35778284,-0.000
 16049,-0.00009905,0.00376857,-0.00001756,0.00005868,-0.00007880,-0.000
 11695,-0.00063752,-0.00046461,0.00004132,0.00012394,-0.00026785,-0.000
 09961,-0.00009368,0.00039948,-0.10054354,0.36232930,-0.00021706,-0.000
 20584,0.00080757,0.00346564,-0.02395490,-0.02794753,-0.00007465,-0.000
 00072,0.00031541,0.00022114,0.00038402,-0.00044475,0.00017928,-0.00165
 359,0.00144417,0.09784438,-0.35567384,-0.33383807,-0.00064308,0.003535
 85,-0.00673536,0.00001545,-0.00008787,0.00006121,0.00026661,0.00038330
 ,0.00037743,0.00004255,-0.00037271,0.00017238,0.00041530,0.00028369,-0
 .00021367,-0.09657394,0.36378492,0.35614042,0.00024571,0.00053226,0.00
 013983,-0.00817749,0.00673625,-0.01383589,-0.00016761,0.00018531,0.000
 09162,-0.00023532,-0.00062015,-0.00046057,0.00197290,-0.00197987,0.001
 71388,-0.66556496,0.16690256,0.00242396,0.00348366,0.00011351,0.002435
 03,-0.00000847,-0.00002428,-0.00003883,0.00004166,0.00003077,0.0003158
 7,0.00044562,0.00009857,-0.00009753,0.00087053,0.00208430,-0.00064154,
 -0.00410165,-0.00340409,-0.00329652,0.68888294,-0.00074814,-0.00064278
 ,0.00003634,0.01680313,-0.00594391,0.01065544,0.00011000,-0.00007714,-
 0.00005096,0.00037245,-0.00044262,-0.00006877,0.00473880,0.00356169,-0
 .00062845,0.16965327,-0.03723683,-0.00501952,-0.00290977,0.00021843,-0
 .00124661,-0.00000920,0.00001305,0.00000496,0.00000918,0.00005971,-0.0
 0025282,-0.00029565,0.00016352,-0.00015399,-0.00150637,-0.00009897,-0.
 00087305,0.02990689,-0.00405508,0.00404960,-0.18026837,0.03258214,0.00
 004540,0.00098844,0.00068439,-0.04090760,0.01678739,-0.02229616,-0.000
 07347,0.00011644,0.00014186,-0.00034407,0.00038716,-0.00017348,-0.0039
 0880,-0.00530423,0.00162953,-0.00671636,-0.00195605,0.01521117,-0.0041
 5864,0.00430589,0.00498675,-0.00001816,-0.00003682,0.00000815,0.000103
 20,-0.00000625,0.00008426,0.00006531,-0.00048658,0.00011322,0.00188730
 ,-0.00008503,0.00098375,0.02992468,-0.00390394,0.00272301,0.01387122,-
 0.00649107,-0.00422292,0.00005267,-0.00015010,0.00003596,0.00813566,0.
 01358759,-0.00365822,-0.00009589,0.00001119,-0.00002042,-0.00004404,-0
 .00011997,0.00009395,0.00014832,0.00053569,-0.00223075,-0.22825285,-0.
 33475984,0.07079721,0.00043333,0.00001612,-0.00055589,0.00003441,0.000
 01230,0.00000187,0.00000454,-0.00009895,0.00009279,0.00068966,0.000365
 33,-0.00012952,0.00056383,0.00047897,0.00002997,0.00559059,0.01119759,
 -0.00193126,-0.01747962,-0.03545281,0.00663083,0.23070764,0.00061417,-
 0.00014263,-0.00004687,-0.00487360,-0.01262719,0.00345269,0.00012451,-
 0.00013938,-0.00002169,-0.00053401,0.00050310,-0.00017537,0.00088492,0
 .00188649,0.00274286,-0.33526227,-0.46638820,0.09479006,0.00066245,0.0
 0122365,-0.00193542,0.00000276,-0.00001096,0.00002849,0.00001245,0.000
 10271,0.00022087,-0.00045985,-0.00082498,0.00028051,0.00003415,0.00012
 458,-0.00032211,-0.01683328,-0.01636659,0.01065731,0.01135537,0.011293
 05,-0.00306428,0.34431640,0.48091164,0.00010468,-0.00004889,0.00012835
 ,0.01784040,0.03538787,-0.01277293,-0.00012286,0.00022415,0.00027783,-
 0.00003190,-0.00060582,-0.00070157,-0.00076530,0.00044646,-0.00753754,
 0.07096970,0.09355333,-0.00638714,0.00154258,0.00140376,0.00185203,0.0
 0000995,-0.00012022,0.00003464,0.00006423,0.00008193,0.00073896,0.0009
 5186,0.00202371,-0.00047775,-0.00018936,-0.00043756,0.00005605,-0.0200
 7267,-0.02292657,0.00794861,-0.00028965,-0.00105270,-0.00072565,-0.069
 57764,-0.10717779,0.01748283,-0.00067798,-0.00053686,-0.00054909,0.001
 18783,-0.00444171,0.01108044,-0.00012975,0.00000857,-0.00005044,0.0007
 4422,-0.00036041,0.00022774,-0.00011758,0.00032470,-0.00058931,0.00046
 576,0.00076943,0.00136418,-0.03041675,0.05760631,-0.14923447,0.0000389
 4,-0.00000175,-0.00000307,-0.00013690,0.00015282,0.00000600,0.00031118
 ,-0.00043621,0.00015258,0.00000285,-0.00002941,-0.00001650,0.00067585,
 0.00005020,0.00049687,0.00034820,0.00005992,0.00064334,-0.00005913,0.0
 0042461,-0.00023273,0.02617856,-0.00001782,0.00050951,0.00030935,-0.00
 496863,0.00735070,-0.03159093,-0.00006490,0.00010656,0.00003308,-0.000
 11787,0.00036638,-0.00002391,-0.00069860,0.00108113,-0.00234693,-0.000
 05634,-0.00399434,-0.00463215,0.05689933,-0.08446658,0.24437528,-0.000
 01113,0.00004039,-0.00000294,0.00010688,0.00002173,0.00015435,-0.00036
 263,-0.00046374,0.00027592,-0.00003341,-0.00002590,0.00049159,-0.00027
 822,0.00065412,-0.00155895,-0.00002834,-0.00024202,0.00001581,0.000422
 53,0.00016269,0.00016621,-0.06112597,0.08959139,0.00007707,-0.00009919
 ,0.00030614,-0.00282030,0.00645436,-0.02417259,0.00009913,-0.00003748,
 -0.00000625,0.00039884,-0.00005648,0.00046937,0.00023303,0.00336734,0.
 00016863,0.00054501,-0.00514729,-0.00316998,-0.14988657,0.24248528,-0.
 59153955,0.00000186,-0.00000058,0.00000892,-0.00001747,0.00024496,0.00
 042028,-0.00034713,-0.00048504,0.00106263,-0.00010568,0.00002296,0.000
 10852,-0.00053758,0.00070867,-0.00142436,-0.00004362,-0.00001677,0.000
 33908,0.00006842,-0.00005112,0.00059774,0.15085147,-0.24209102,0.61622
 602,0.00026725,-0.00014932,0.00008162,0.00776468,0.01218620,-0.0031388
 0,-0.00009713,0.00002238,-0.00006123,-0.00026904,0.00079379,0.00010930
 ,0.00163851,0.00072655,0.00120595,0.00045592,0.00011619,0.00052452,-0.
 22803624,-0.33118422,0.08372334,0.00001490,0.00002724,0.00000160,-0.00
 004376,-0.00015562,-0.00013322,-0.00028180,0.00010958,0.00003986,0.000
 18032,0.00083077,0.00020117,-0.00006440,0.00035980,-0.00025179,-0.0006
 2518,-0.00017869,0.00017343,0.00018562,-0.00025409,-0.00030678,0.00653
 016,0.01195669,-0.00322304,0.23009307,0.00062458,0.00003812,0.00006693
 ,-0.01092305,-0.02567857,0.00441182,0.00027755,-0.00040928,-0.00034843
 ,-0.00195623,0.00009782,0.00043449,0.00086288,-0.00270287,-0.00445216,
 -0.00017499,0.00144717,0.00205817,-0.33193673,-0.45202690,0.12351529,0
 .00002162,0.00005624,0.00004764,0.00002916,-0.00016654,-0.00025476,0.0
 0042128,0.00064603,-0.00036518,-0.00049041,-0.00065744,-0.00024603,0.0
 0049925,0.00018949,0.00017588,-0.00021596,-0.00006898,-0.00024194,-0.0
 0011452,0.00039052,-0.00070749,-0.00741499,-0.00752956,-0.00330555,0.3
 3983029,0.47550528,-0.00009155,0.00037047,-0.00013560,-0.01359478,-0.0
 2786556,0.00199019,0.00021640,-0.00031500,-0.00015673,-0.00102212,-0.0
 0066612,0.00091766,0.00044236,-0.00285648,-0.00390725,-0.00154580,-0.0
 0113914,0.00167526,0.08224860,0.12338228,-0.02147010,0.00000614,-0.000
 00852,0.00000834,-0.00006061,0.00028585,-0.00001624,0.00026901,0.00000
 749,0.00058629,-0.00022455,-0.00016196,0.00025665,0.00011056,-0.000053
 99,0.00052289,0.00005075,0.00011721,-0.00041420,0.00041900,0.00058952,
 -0.00010638,0.02505745,0.02886478,-0.00189329,-0.08862652,-0.11801691,
 0.02225449,0.00019659,0.00076176,0.00015027,-0.00465922,0.01028009,0.0
 0785312,-0.00014670,0.00015408,0.00003138,-0.00049198,-0.00012168,-0.0
 0033455,0.00236542,-0.00217391,0.00083618,0.00337850,-0.00108841,-0.00
 211890,-0.66986024,0.15679264,-0.04480388,-0.00004869,-0.00001107,-0.0
 0006144,0.00003054,-0.00007106,0.00014669,0.00009346,0.00037570,-0.000
 28955,0.00075821,0.00191896,-0.00019076,0.00028099,0.00003501,0.000059
 85,-0.00004725,-0.00019484,0.00272426,-0.00062074,-0.00019252,0.000108
 75,-0.00489841,-0.00168547,0.00471303,-0.01770067,0.01068867,-0.003664
 04,0.69124702,-0.00057974,-0.00146118,0.00032297,0.03154828,-0.0179928
 6,-0.01374332,0.00010069,-0.00006211,-0.00002334,0.00079568,-0.0007793
 2,0.00008848,0.00357296,0.00588650,0.00023576,-0.00069134,-0.00005939,
 0.00434117,0.16394289,-0.02746133,0.01840122,0.00003244,-0.00001102,0.
 00000883,-0.00005195,0.00024968,0.00014274,0.00002918,-0.00060475,0.00
 050658,-0.00101627,-0.00000962,-0.00059505,-0.00021031,-0.00022011,0.0
 0022736,-0.00154246,0.00094343,-0.00104188,-0.00024548,-0.00007353,-0.
 00025199,0.01495011,-0.00320431,-0.00200721,-0.03503120,0.01096385,-0.
 00246742,-0.17547927,0.03389764,-0.00004983,-0.00105563,0.00040972,0.0
 2863270,-0.01782909,-0.00944353,0.00001653,-0.00001100,-0.00002724,0.0
 0071532,-0.00010043,0.00001043,0.00148077,0.00312526,-0.00025924,0.005
 26893,-0.00174608,0.00561513,-0.03708167,0.01580076,0.00790908,0.00002
 803,0.00000318,0.00001113,-0.00005191,0.00006853,-0.00007497,-0.000290
 07,-0.00005793,-0.00006823,-0.00086171,0.00004594,-0.00010827,-0.00064
 374,0.00011529,0.00021457,-0.00232597,0.00098997,0.00095491,-0.0000679
 3,0.00004719,-0.00039073,-0.03922302,0.00755571,0.00248851,0.00968871,
 -0.00280785,-0.00015643,0.03483040,-0.00414976,-0.00708421,0.00125362,
 0.00127891,0.00009813,0.00018166,-0.00103366,0.00010739,-0.12841663,0.
 25080000,0.15627464,0.00659897,-0.01475703,-0.00790715,-0.00198929,-0.
 00130721,0.00050371,-0.00001613,-0.00007801,0.00001603,0.00001235,-0.0
 0022366,0.00001199,0.00365822,-0.00857844,-0.00657636,0.00015749,0.001
 53075,-0.00126718,-0.00020819,-0.00013110,0.00011288,0.00006567,-0.000
 21643,0.00013157,0.00000012,-0.00002148,0.00002093,0.00000930,-0.00002
 547,0.00000059,0.00002738,0.00001168,0.00002557,0.00000947,-0.00000158
 ,-0.00001469,0.00002841,0.00000374,-0.00003657,0.00001121,-0.00001847,
 0.00000934,0.13223147,0.00223178,0.00575556,0.00141743,0.00053147,-0.0
 0158069,-0.00062910,0.25479319,-0.40977106,-0.27878214,0.01525560,-0.0
 2566068,-0.01589884,-0.00395507,-0.00345188,0.00236463,-0.00015214,-0.
 00009668,-0.00026307,-0.00024841,-0.00044008,0.00034150,-0.00332578,0.
 00355744,0.00762374,0.00069735,0.00270524,-0.00038770,-0.00043034,0.00
 033713,0.00038253,0.00003754,0.00041519,0.00026209,0.00003496,0.000028
 06,0.00002865,0.00008451,-0.00001977,0.00002405,0.00001615,-0.00007008
 ,0.00009133,0.00003862,0.00003277,-0.00001441,0.00002935,-0.00017329,-
 0.00012490,0.00007383,-0.00000852,0.00000302,-0.25850986,0.42489559,-0
 .00260110,-0.00171940,-0.00090873,-0.00011948,0.00085235,0.00063483,0.
 15742291,-0.27457298,-0.16172204,-0.00597583,0.01767579,0.00579482,0.0
 0152972,0.00214356,-0.00043768,-0.00004060,-0.00007988,0.00012975,0.00
 004837,0.00029359,-0.00012878,0.02048804,-0.03123865,-0.01392623,-0.00
 142056,-0.00068386,0.00179897,0.00005999,0.00032150,0.00019202,0.00020
 286,-0.00024410,-0.00009070,0.00001734,0.00000586,-0.00005845,-0.00001
 783,0.00001778,-0.00002760,0.00000360,-0.00000020,-0.00000919,0.000016
 77,-0.00000749,0.00001241,-0.00001688,0.00006853,0.00006690,-0.0000221
 4,0.00002448,0.00000756,-0.16338508,0.27928575,0.16548925,-0.00159943,
 -0.00751056,0.00316759,0.00043738,-0.00056475,0.00012281,-0.68863424,-
 0.01023464,-0.10867954,-0.01370996,0.00629377,-0.00611746,-0.00037101,
 0.00116327,-0.00021940,-0.00005308,0.00008553,-0.00017094,0.00014146,0
 .00007413,0.00014731,-0.00348579,-0.00095320,0.00579298,0.00110856,0.0
 0020984,0.00140418,-0.00027809,0.00009829,-0.00013107,0.00096225,-0.00
 057064,0.00034025,-0.00008504,0.00007600,-0.00003969,0.00010702,-0.000
 06433,0.00005755,-0.00002141,-0.00003386,-0.00002882,-0.00005653,0.000
 06549,0.00000822,-0.00004063,-0.00003215,0.00004627,0.00011196,-0.0001
 0574,-0.00007490,-0.01361509,-0.00720273,-0.00619008,0.71908166,-0.004
 93538,-0.00723421,0.00434516,0.00050549,0.00103834,0.00010394,-0.01652
 681,0.01155043,-0.00548257,-0.03460559,0.00561844,-0.01105656,-0.00017
 890,0.00065413,-0.00067537,0.00007241,0.00005503,0.00015238,0.00020730
 ,0.00002601,-0.00017921,0.00311468,-0.00304357,0.00060252,0.00150049,0
 .00210654,0.00037637,0.00013907,0.00008440,-0.00025625,0.00046618,-0.0
 0094448,-0.00004571,-0.00004825,-0.00003703,-0.00000217,-0.00003990,-0
 .00000691,-0.00000712,-0.00001818,0.00004510,-0.00004970,-0.00003798,0
 .00000909,0.00002859,-0.00003569,0.00007891,0.00005840,-0.00006251,0.0
 0000696,0.00000291,0.03127732,0.00354576,0.00785737,0.01920626,-0.0135
 5292,0.00127570,0.00328572,0.00165877,0.00012496,-0.00028593,-0.000207
 69,-0.10432883,-0.00487639,-0.00818689,0.01422984,-0.00303268,0.001350
 01,-0.00045162,-0.00018906,0.00032648,0.00005998,0.00004566,0.00001338
 ,-0.00008151,-0.00003961,0.00007409,-0.04258859,-0.00258661,0.00085232
 ,-0.00041964,-0.00082765,-0.00064859,-0.00022686,-0.00013594,-0.000181
 69,-0.00000673,0.00017073,0.00023247,-0.00007143,0.00004036,-0.0000654
 6,0.00000578,-0.00001659,-0.00000006,-0.00000195,-0.00001464,-0.000008
 16,0.00000180,0.00001224,-0.00000223,0.00000876,-0.00003245,-0.0000224
 4,0.00003135,-0.00001962,-0.00000819,0.02187426,0.00427544,0.00318288,
 0.11056474,0.00422703,0.00164102\\-0.02923700,-0.00937881,0.01181558,-
 0.00332990,0.01576658,0.00754313,0.02580809,0.10760617,-0.02899813,0.1
 3407643,-0.03916452,0.07104980,0.10553940,0.05851670,-0.03798160,0.036
 94370,-0.05814031,0.13303107,0.03029016,-0.11212799,-0.10401769,0.0289
 4440,-0.01103973,0.13749741,-0.03344812,-0.00585530,-0.15862702,-0.009
 85552,-0.00293190,0.14308227,-0.13846688,0.00938321,-0.05289360,0.0273
 0886,-0.09666911,-0.09516766,-0.14265686,0.03836046,-0.00921980,0.0783
 2825,0.11187665,-0.02629206,0.03133397,-0.04859091,0.12460374,0.078545
 35,0.11192825,-0.02723316,-0.14242922,0.04063870,-0.00128775,0.0653659
 5,-0.10153636,-0.06759751,-0.14306106,-0.00864179,-0.01930702\\\@
 The archive entry for this job was punched.

 Writing a WFNX file to "VIFHIB_Complex_1_Ligand_1_ON_Cu_oriented.wfx"


 SOME PHYSICISTS WOULD PREFER TO COME BACK TO THE IDEA OF AN OBJECTIVE
 REAL WORLD WHOSE SMALLEST PARTS EXIST OBJECTIVELY IN THE SAME SENSE AS
 STONES OR TREES EXIST INDEPENDENTLY OF WHETHER WE OBSERVE THEM.
 THIS, HOWEVER, IS IMPOSSIBLE.  -- WERNER HEISENBERG
 Job cpu time:       0 days  0 hours  8 minutes 25.2 seconds.
 Elapsed time:       0 days  0 hours  8 minutes 28.6 seconds.
 File lengths (MBytes):  RWF=    344 Int=      0 D2E=      0 Chk=      8 Scr=      8
 Normal termination of Gaussian 16 at Mon Mar  6 10:30:12 2023.
