 Entering Gaussian System, Link 0=g16
 Initial command:
 /ssoft/spack/external/gaussian/g16-C.01/avx2/g16/l1.exe "/scratch/lcmd/2316177/Gau-2930766.inp" -scrdir="/scratch/lcmd/2316177/"
 Entering Link 1 = /ssoft/spack/external/gaussian/g16-C.01/avx2/g16/l1.exe PID=   2930770.
  
 Copyright (c) 1988-2019, Gaussian, Inc.  All Rights Reserved.
  
 This is part of the Gaussian(R) 16 program.  It is based on
 the Gaussian(R) 09 system (copyright 2009, Gaussian, Inc.),
 the Gaussian(R) 03 system (copyright 2003, Gaussian, Inc.),
 the Gaussian(R) 98 system (copyright 1998, Gaussian, Inc.),
 the Gaussian(R) 94 system (copyright 1995, Gaussian, Inc.),
 the Gaussian 92(TM) system (copyright 1992, Gaussian, Inc.),
 the Gaussian 90(TM) system (copyright 1990, Gaussian, Inc.),
 the Gaussian 88(TM) system (copyright 1988, Gaussian, Inc.),
 the Gaussian 86(TM) system (copyright 1986, Carnegie Mellon
 University), and the Gaussian 82(TM) system (copyright 1983,
 Carnegie Mellon University). Gaussian is a federally registered
 trademark of Gaussian, Inc.
  
 This software contains proprietary and confidential information,
 including trade secrets, belonging to Gaussian, Inc.
  
 This software is provided under written license and may be
 used, copied, transmitted, or stored only in accord with that
 written license.
  
 The following legend is applicable only to US Government
 contracts under FAR:
  
                    RESTRICTED RIGHTS LEGEND
  
 Use, reproduction and disclosure by the US Government is
 subject to restrictions as set forth in subparagraphs (a)
 and (c) of the Commercial Computer Software - Restricted
 Rights clause in FAR 52.227-19.
  
 Gaussian, Inc.
 340 Quinnipiac St., Bldg. 40, Wallingford CT 06492
  
  
 ---------------------------------------------------------------
 Warning -- This program may not be used in any manner that
 competes with the business of Gaussian, Inc. or will provide
 assistance to any competitor of Gaussian, Inc.  The licensee
 of this program is prohibited from giving any competitor of
 Gaussian, Inc. access to this program.  By using this program,
 the user acknowledges that Gaussian, Inc. is engaged in the
 business of creating and licensing software in the field of
 computational chemistry and represents and warrants to the
 licensee that it is not a competitor of Gaussian, Inc. and that
 it will not use this program in any manner prohibited above.
 ---------------------------------------------------------------
  

 Cite this work as:
 Gaussian 16, Revision C.01,
 M. J. Frisch, G. W. Trucks, H. B. Schlegel, G. E. Scuseria, 
 M. A. Robb, J. R. Cheeseman, G. Scalmani, V. Barone, 
 G. A. Petersson, H. Nakatsuji, X. Li, M. Caricato, A. V. Marenich, 
 J. Bloino, B. G. Janesko, R. Gomperts, B. Mennucci, H. P. Hratchian, 
 J. V. Ortiz, A. F. Izmaylov, J. L. Sonnenberg, D. Williams-Young, 
 F. Ding, F. Lipparini, F. Egidi, J. Goings, B. Peng, A. Petrone, 
 T. Henderson, D. Ranasinghe, V. G. Zakrzewski, J. Gao, N. Rega, 
 G. Zheng, W. Liang, M. Hada, M. Ehara, K. Toyota, R. Fukuda, 
 J. Hasegawa, M. Ishida, T. Nakajima, Y. Honda, O. Kitao, H. Nakai, 
 T. Vreven, K. Throssell, J. A. Montgomery, Jr., J. E. Peralta, 
 F. Ogliaro, M. J. Bearpark, J. J. Heyd, E. N. Brothers, K. N. Kudin, 
 V. N. Staroverov, T. A. Keith, R. Kobayashi, J. Normand, 
 K. Raghavachari, A. P. Rendell, J. C. Burant, S. S. Iyengar, 
 J. Tomasi, M. Cossi, J. M. Millam, M. Klene, C. Adamo, R. Cammi, 
 J. W. Ochterski, R. L. Martin, K. Morokuma, O. Farkas, 
 J. B. Foresman, and D. J. Fox, Gaussian, Inc., Wallingford CT, 2019.
 
 ******************************************
 Gaussian 16:  ES64L-G16RevC.01  3-Jul-2019
                 4-Mar-2023 
 ******************************************
 %nprocshared=1
 Will use up to    1 processors via shared memory.
 %mem=8000MB
 %chk=VISGIQ_Complex_1_Ligand_0_NN_Cu_oriented.chk
 ----------------------------------------------------------------------
 #p pop=(regular,nbo,savenbos) freq=noraman def2svp empiricaldispersion
 =gd3bj output=wfx pbe1pbe
 ----------------------------------------------------------------------
 1/10=4,30=1,38=1/1,3;
 2/12=2,17=6,18=5,40=1/2;
 3/5=43,7=101,11=2,25=1,30=1,71=2,74=-13,124=41,140=1/1,2,3;
 4//1;
 5/5=2,38=5,98=1/2;
 8/6=4,10=90,11=11/1;
 11/6=1,8=1,9=11,15=111,16=1/1,2,10;
 10/6=1/2;
 6/28=1,40=1,73=1/1,7;
 7/8=1,10=1,25=1/1,2,3,16;
 1/10=4,30=1/3;
 99/6=200/99;
 Leave Link    1 at Sat Mar  4 11:39:05 2023, MaxMem=  1048576000 cpu:               0.0 elap:               0.1
 (Enter /ssoft/spack/external/gaussian/g16-C.01/avx2/g16/l101.exe)
 ----------------------------------------
 VISGIQ_Complex_1_Ligand_0_NN_Cu_oriented
 ----------------------------------------
 Symbolic Z-matrix:
 Charge =  0 Multiplicity = 1
 N                    -0.09857  -2.06387   0. 
 N                    -2.00855  -0.03622   0. 
 H                    -2.27267   0.22023  -0.81008 
 C                     1.04501  -1.9125   -2.23488 
 H                     0.25285  -2.04072  -2.76245 
 H                     1.80766  -2.23644  -2.71945 
 H                     1.15733  -0.97709  -2.04954 
 C                     0.92462  -2.60435  -1.04895 
 H                     1.79871  -2.63105  -0.62982 
 H                     0.68028  -3.51907  -1.2617 
 C                     0.50166  -4.16423   1.22436 
 H                    -0.23466  -4.5479    1.70709 
 H                     1.32603  -4.41075   1.6503 
 H                     0.49699  -4.48901   0.32191 
 C                     0.374    -2.7234    1.21973 
 H                     1.24326  -2.35108   1.43771 
 H                    -0.22861  -2.47866   1.9386 
 C                    -1.42926  -2.38428  -0.50119 
 H                    -1.64673  -3.30805  -0.29866 
 H                    -1.45897  -2.26805  -1.46394 
 C                    -2.44281  -1.44663   0.17299 
 H                    -3.31956  -1.57023  -0.22555 
 H                    -2.50732  -1.65687   1.11722 
 C                    -2.56572   0.94203   0.96816 
 H                    -2.30226   1.832     0.65291 
 C                    -1.87457   0.73215   2.3178 
 H                    -2.13915  -0.1149    2.68454 
 H                    -2.12769   1.43495   2.92022 
 H                    -0.92123   0.74286   2.19491 
 C                    -4.11555   0.9371    1.05315 
 H                    -4.39016   0.05605   1.38361 
 C                    -6.27613   1.26329  -0.18207 
 H                    -6.64214   1.47324  -1.05491 
 H                    -6.63581   0.40359   0.08795 
 C                    -6.73141   2.28994   0.78205 
 H                    -7.69756   2.26322   0.86078 
 H                    -6.47573   3.1721    0.46924 
 C                    -6.11168   2.02482   2.10099 
 H                    -6.44065   1.17709   2.43788 
 H                    -6.38736   2.71679   2.72249 
 C                    -4.61208   1.98106   2.05888 
 H                    -4.27114   1.76622   2.94053 
 H                    -4.27153   2.85452   1.8096 
 C                    -4.76916   1.14083  -0.30385 
 H                    -4.41418   1.94488  -0.71452 
 H                    -4.55376   0.39064  -0.88057 
 
 ITRead=  0  0  0  0  0  0  0  0  0  0  0  0  0  0  0  0  0  0  0  0
 ITRead=  0  0  0  0  0  0  0  0  0  0  0  0  0  0  0  0  0  0  0  0
 ITRead=  0  0  0  0  0  0
 MicOpt= -1 -1 -1 -1 -1 -1 -1 -1 -1 -1 -1 -1 -1 -1 -1 -1 -1 -1 -1 -1
 MicOpt= -1 -1 -1 -1 -1 -1 -1 -1 -1 -1 -1 -1 -1 -1 -1 -1 -1 -1 -1 -1
 MicOpt= -1 -1 -1 -1 -1 -1
 NAtoms=     46 NQM=       46 NQMF=       0 NMMI=      0 NMMIF=      0
                NMic=       0 NMicF=      0.
                    Isotopes and Nuclear Properties:
 (Nuclear quadrupole moments (NQMom) in fm**2, nuclear magnetic moments (NMagM)
  in nuclear magnetons)

  Atom         1           2           3           4           5           6           7           8           9          10
 IAtWgt=          14          14           1          12           1           1           1          12           1           1
 AtmWgt=  14.0030740  14.0030740   1.0078250  12.0000000   1.0078250   1.0078250   1.0078250  12.0000000   1.0078250   1.0078250
 NucSpn=           2           2           1           0           1           1           1           0           1           1
 AtZEff=  -0.0000000  -0.0000000  -0.0000000  -0.0000000  -0.0000000  -0.0000000  -0.0000000  -0.0000000  -0.0000000  -0.0000000
 NQMom=    2.0440000   2.0440000   0.0000000   0.0000000   0.0000000   0.0000000   0.0000000   0.0000000   0.0000000   0.0000000
 NMagM=    0.4037610   0.4037610   2.7928460   0.0000000   2.7928460   2.7928460   2.7928460   0.0000000   2.7928460   2.7928460
 AtZNuc=   7.0000000   7.0000000   1.0000000   6.0000000   1.0000000   1.0000000   1.0000000   6.0000000   1.0000000   1.0000000

  Atom        11          12          13          14          15          16          17          18          19          20
 IAtWgt=          12           1           1           1          12           1           1          12           1           1
 AtmWgt=  12.0000000   1.0078250   1.0078250   1.0078250  12.0000000   1.0078250   1.0078250  12.0000000   1.0078250   1.0078250
 NucSpn=           0           1           1           1           0           1           1           0           1           1
 AtZEff=  -0.0000000  -0.0000000  -0.0000000  -0.0000000  -0.0000000  -0.0000000  -0.0000000  -0.0000000  -0.0000000  -0.0000000
 NQMom=    0.0000000   0.0000000   0.0000000   0.0000000   0.0000000   0.0000000   0.0000000   0.0000000   0.0000000   0.0000000
 NMagM=    0.0000000   2.7928460   2.7928460   2.7928460   0.0000000   2.7928460   2.7928460   0.0000000   2.7928460   2.7928460
 AtZNuc=   6.0000000   1.0000000   1.0000000   1.0000000   6.0000000   1.0000000   1.0000000   6.0000000   1.0000000   1.0000000

  Atom        21          22          23          24          25          26          27          28          29          30
 IAtWgt=          12           1           1          12           1          12           1           1           1          12
 AtmWgt=  12.0000000   1.0078250   1.0078250  12.0000000   1.0078250  12.0000000   1.0078250   1.0078250   1.0078250  12.0000000
 NucSpn=           0           1           1           0           1           0           1           1           1           0
 AtZEff=  -0.0000000  -0.0000000  -0.0000000  -0.0000000  -0.0000000  -0.0000000  -0.0000000  -0.0000000  -0.0000000  -0.0000000
 NQMom=    0.0000000   0.0000000   0.0000000   0.0000000   0.0000000   0.0000000   0.0000000   0.0000000   0.0000000   0.0000000
 NMagM=    0.0000000   2.7928460   2.7928460   0.0000000   2.7928460   0.0000000   2.7928460   2.7928460   2.7928460   0.0000000
 AtZNuc=   6.0000000   1.0000000   1.0000000   6.0000000   1.0000000   6.0000000   1.0000000   1.0000000   1.0000000   6.0000000

  Atom        31          32          33          34          35          36          37          38          39          40
 IAtWgt=           1          12           1           1          12           1           1          12           1           1
 AtmWgt=   1.0078250  12.0000000   1.0078250   1.0078250  12.0000000   1.0078250   1.0078250  12.0000000   1.0078250   1.0078250
 NucSpn=           1           0           1           1           0           1           1           0           1           1
 AtZEff=  -0.0000000  -0.0000000  -0.0000000  -0.0000000  -0.0000000  -0.0000000  -0.0000000  -0.0000000  -0.0000000  -0.0000000
 NQMom=    0.0000000   0.0000000   0.0000000   0.0000000   0.0000000   0.0000000   0.0000000   0.0000000   0.0000000   0.0000000
 NMagM=    2.7928460   0.0000000   2.7928460   2.7928460   0.0000000   2.7928460   2.7928460   0.0000000   2.7928460   2.7928460
 AtZNuc=   1.0000000   6.0000000   1.0000000   1.0000000   6.0000000   1.0000000   1.0000000   6.0000000   1.0000000   1.0000000

  Atom        41          42          43          44          45          46
 IAtWgt=          12           1           1          12           1           1
 AtmWgt=  12.0000000   1.0078250   1.0078250  12.0000000   1.0078250   1.0078250
 NucSpn=           0           1           1           0           1           1
 AtZEff=  -0.0000000  -0.0000000  -0.0000000  -0.0000000  -0.0000000  -0.0000000
 NQMom=    0.0000000   0.0000000   0.0000000   0.0000000   0.0000000   0.0000000
 NMagM=    0.0000000   2.7928460   2.7928460   0.0000000   2.7928460   2.7928460
 AtZNuc=   6.0000000   1.0000000   1.0000000   6.0000000   1.0000000   1.0000000
 Leave Link  101 at Sat Mar  4 11:39:05 2023, MaxMem=  1048576000 cpu:               0.1 elap:               0.1
 (Enter /ssoft/spack/external/gaussian/g16-C.01/avx2/g16/l103.exe)

 GradGradGradGradGradGradGradGradGradGradGradGradGradGradGradGradGradGrad
 Berny optimization.
 Initialization pass.
 Trust Radius=3.00D-01 FncErr=1.00D-07 GrdErr=1.00D-07 EigMax=2.50D+02 EigMin=1.00D-04
 Number of steps in this run=      2 maximum allowed number of steps=      2.
 GradGradGradGradGradGradGradGradGradGradGradGradGradGradGradGradGradGrad

 Leave Link  103 at Sat Mar  4 11:39:05 2023, MaxMem=  1048576000 cpu:               0.0 elap:               0.0
 (Enter /ssoft/spack/external/gaussian/g16-C.01/avx2/g16/l202.exe)
                          Input orientation:                          
 ---------------------------------------------------------------------
 Center     Atomic      Atomic             Coordinates (Angstroms)
 Number     Number       Type             X           Y           Z
 ---------------------------------------------------------------------
      1          7           0       -0.098566   -2.063870    0.000000
      2          7           0       -2.008548   -0.036223    0.000000
      3          1           0       -2.272670    0.220225   -0.810076
      4          6           0        1.045014   -1.912500   -2.234879
      5          1           0        0.252845   -2.040721   -2.762445
      6          1           0        1.807656   -2.236443   -2.719447
      7          1           0        1.157331   -0.977089   -2.049538
      8          6           0        0.924618   -2.604349   -1.048945
      9          1           0        1.798712   -2.631051   -0.629821
     10          1           0        0.680279   -3.519071   -1.261696
     11          6           0        0.501659   -4.164231    1.224358
     12          1           0       -0.234658   -4.547902    1.707094
     13          1           0        1.326027   -4.410753    1.650299
     14          1           0        0.496989   -4.489010    0.321914
     15          6           0        0.374001   -2.723401    1.219728
     16          1           0        1.243264   -2.351080    1.437714
     17          1           0       -0.228613   -2.478658    1.938598
     18          6           0       -1.429262   -2.384278   -0.501189
     19          1           0       -1.646726   -3.308051   -0.298665
     20          1           0       -1.458968   -2.268049   -1.463940
     21          6           0       -2.442813   -1.446629    0.172989
     22          1           0       -3.319559   -1.570227   -0.225552
     23          1           0       -2.507318   -1.656871    1.117220
     24          6           0       -2.565720    0.942025    0.968161
     25          1           0       -2.302256    1.832004    0.652912
     26          6           0       -1.874568    0.732147    2.317798
     27          1           0       -2.139145   -0.114897    2.684537
     28          1           0       -2.127691    1.434950    2.920222
     29          1           0       -0.921225    0.742862    2.194910
     30          6           0       -4.115555    0.937096    1.053147
     31          1           0       -4.390158    0.056045    1.383606
     32          6           0       -6.276130    1.263290   -0.182074
     33          1           0       -6.642141    1.473236   -1.054912
     34          1           0       -6.635812    0.403588    0.087947
     35          6           0       -6.731412    2.289936    0.782046
     36          1           0       -7.697558    2.263225    0.860779
     37          1           0       -6.475734    3.172099    0.469240
     38          6           0       -6.111684    2.024823    2.100986
     39          1           0       -6.440650    1.177090    2.437884
     40          1           0       -6.387356    2.716790    2.722494
     41          6           0       -4.612083    1.981057    2.058878
     42          1           0       -4.271138    1.766221    2.940527
     43          1           0       -4.271535    2.854520    1.809605
     44          6           0       -4.769161    1.140832   -0.303850
     45          1           0       -4.414178    1.944876   -0.714518
     46          1           0       -4.553760    0.390637   -0.880574
 ---------------------------------------------------------------------
                    Distance matrix (angstroms):
                    1          2          3          4          5
     1  N    0.000000
     2  N    2.785567   0.000000
     3  H    3.255771   0.889803   0.000000
     4  C    2.515030   4.223665   4.193520   0.000000
     5  H    2.784803   4.094266   3.911758   0.960363   0.000000
     6  H    3.325486   5.176850   5.131275   0.959879   1.567671
     7  H    2.637987   3.886981   3.838585   0.960188   1.567688
     8  C    1.561829   4.037205   4.272930   1.378256   1.924847
     9  H    2.077988   4.650273   4.973773   1.913267   2.699311
    10  H    2.077519   4.577324   4.786042   1.913423   2.149527
    11  C    2.504164   4.984039   5.573086   4.163154   4.523915
    12  H    3.017135   5.139660   5.764085   4.911421   5.147853
    13  H    3.203250   5.742769   6.360033   4.627618   5.122605
    14  H    2.517860   5.119439   5.579364   3.670958   3.945504
    15  C    1.464935   3.792783   4.448585   3.611389   4.042083
    16  H    1.987466   4.242625   4.901629   3.703998   4.326499
    17  H    1.986737   3.590518   4.360889   4.400065   4.745882
    18  C    1.457602   2.469843   2.755029   3.057826   2.839154
    19  H    2.008478   3.305295   3.619679   3.597493   3.359272
    20  H    2.008856   2.725107   2.698363   2.643991   2.160578
    21  C    2.430309   1.485852   1.942618   4.263778   4.029428
    22  H    3.266398   2.030466   2.154847   4.817058   4.406730
    23  H    2.686246   2.030628   2.700559   4.890908   4.776782
    24  C    4.007442   1.484839   1.941391   5.607600   5.546035
    25  H    4.523315   2.000707   2.176934   5.793519   5.761181
    26  C    4.042781   2.445512   3.194393   6.020381   6.166324
    27  H    3.894766   2.688863   3.513183   6.129511   6.253002
    28  H    4.988666   3.272040   3.925774   6.917120   7.073892
    29  H    3.656794   2.570384   3.336089   5.526308   5.805355
    30  C    5.123584   2.548715   2.716934   6.750021   6.519897
    31  H    4.982587   2.755893   3.053351   6.819803   6.568383
    32  C    7.018934   4.464767   4.184503   8.240073   7.759016
    33  H    7.512811   4.986130   4.552171   8.482210   7.924923
    34  H    6.987966   4.648951   4.458371   8.351938   7.845571
    35  C    7.972570   5.322411   5.167102   9.339974   8.949741
    36  H    8.786886   6.196228   6.032828  10.171153   9.739642
    37  H    8.264613   5.519898   5.293011   9.472437   9.104453
    38  C    7.568959   5.049532   5.144792   9.247733   8.982697
    39  H    7.527890   5.201820   5.369999   9.349623   9.066455
    40  H    8.355571   5.845084   5.970136  10.062107   9.839245
    41  C    6.400957   3.884172   4.099302   8.099314   7.942757
    42  H    6.381744   4.124902   4.522279   8.281262   8.214812
    43  H    6.699171   4.092942   4.218732   8.206584   8.083133
    44  C    5.672468   3.016417   2.708551   6.845170   6.433313
    45  H    5.933387   3.197240   2.751292   6.855189   6.469937
    46  H    5.162245   2.726853   2.288533   6.203616   5.705821
                    6          7          8          9         10
     6  H    0.000000
     7  H    1.567697   0.000000
     8  C    1.925016   1.924400   0.000000
     9  H    2.126578   2.272126   0.969752   0.000000
    10  H    2.245251   2.703691   0.970403   1.561646   0.000000
    11  C    4.579912   4.615861   2.789271   2.733307   2.574607
    12  H    5.395197   5.366621   3.566100   3.642812   3.272509
    13  H    4.904515   5.050475   3.272636   2.930821   3.113166
    14  H    4.005220   4.288756   2.369403   2.460141   1.866065
    15  C    4.220141   3.788312   2.337569   2.336484   2.623806
    16  H    4.196864   3.749155   2.519753   2.159076   2.994657
    17  H    5.089444   4.481158   3.204864   3.275675   3.485746
    18  C    3.926852   3.326865   2.426772   3.239948   2.513223
    19  H    4.352158   4.044957   2.769463   3.526902   2.527233
    20  H    3.499733   2.975655   2.442704   3.382308   2.486430
    21  C    5.201584   4.256892   3.764708   4.476370   4.013357
    22  H    5.740357   4.870450   4.445270   5.242660   4.568402
    23  H    5.803010   4.890819   4.167514   4.747955   4.391788
    24  C    6.544275   5.162423   5.369166   5.862481   5.950643
    25  H    6.694508   5.211811   5.743715   6.195337   6.418351
    26  C    6.909786   5.584579   5.504780   5.787274   6.116606
    27  H    7.020060   5.832803   5.433499   5.729112   5.925395
    28  H    7.795637   6.427116   6.433259   6.674714   7.065087
    29  H    6.361915   5.029310   5.013338   5.173051   5.716381
    30  C    7.706377   6.410467   6.508761   7.109333   6.943770
    31  H    7.778397   6.605186   6.421982   7.041058   6.744510
    32  C    9.167006   7.985178   8.219542   8.976048   8.510475
    33  H    9.377178   8.235602   8.595498   9.395418   8.864746
    34  H    9.281346   8.198060   8.215857   8.992520   8.410349
    35  C   10.279312   8.995754   9.269377   9.948493   9.636110
    36  H   11.109191   9.868062  10.083762  10.786796  10.398461
    37  H   10.393970   9.045645   9.509861  10.166167   9.948689
    38  C   10.203475   8.892519   8.992266   9.576473   9.390056
    39  H   10.309453   9.083323   8.983565   9.581223   9.297766
    40  H   11.013967   9.661228   9.798124  10.336785  10.232849
    41  C    9.046146   7.675666   7.831959   8.342598   8.323864
    42  H    9.219999   7.867323   7.874875   8.302197   8.373143
    43  H    9.131636   7.684191   8.060432   8.537575   8.635740
    44  C    7.777893   6.531181   6.855704   7.580918   7.233848
    45  H    7.759793   6.431319   7.022110   7.716624   7.490501
    46  H    7.123947   5.987797   6.245872   7.038990   6.544175
                   11         12         13         14         15
    11  C    0.000000
    12  H    0.960416   0.000000
    13  H    0.960094   1.567729   0.000000
    14  H    0.959118   1.567641   1.567812   0.000000
    15  C    1.446482   1.984135   1.984667   1.984583   0.000000
    16  H    1.970537   2.661362   2.072268   2.524417   0.970444
    17  H    1.970937   2.082162   2.496600   2.679865   0.969442
    18  C    3.142325   3.314342   4.040683   2.969485   2.515615
    19  H    2.769152   2.748497   3.721783   2.524934   2.594352
    20  H    3.829688   4.092935   4.695302   3.456546   3.281645
    21  C    4.142542   4.104549   5.017234   4.233284   3.265004
    22  H    4.840745   4.703008   5.759243   4.835809   4.130500
    23  H    3.918199   3.724379   4.750008   4.204686   3.074084
    24  C    5.962240   6.009923   6.653063   6.268490   4.705380
    25  H    6.644044   6.788921   7.289117   6.921022   5.313694
    26  C    5.551269   5.562479   6.094160   6.071928   4.266454
    27  H    5.050057   4.922804   5.615287   5.627082   3.907156
    28  H    6.414068   6.391382   6.907468   6.980935   5.142181
    29  H    5.200590   5.357380   5.648583   5.735148   3.826692
    30  C    6.882697   6.750867   7.652901   7.159112   5.795093
    31  H    6.462660   6.210407   7.259352   6.757879   5.518097
    32  C    8.796276   8.592921   9.661529   8.900455   7.879276
    33  H    9.381364   9.216215  10.267970   9.402723   8.485988
    34  H    8.549848   8.253100   9.434495   8.652693   7.758638
    35  C    9.704084   9.477318  10.515485   9.920464   8.707009
    36  H   10.424565  10.139160  11.251241  10.631728   9.494490
    37  H   10.152634  10.004086  10.943584  10.360172   9.068574
    38  C    9.099955   8.825831   9.845776   9.448263   8.086183
    39  H    8.842964   8.474899   9.600289   9.203958   7.945892
    40  H    9.851466   9.574052  10.556882  10.250880   8.807379
    41  C    8.038119   7.868476   8.734033   8.425048   6.906312
    42  H    7.803531   7.594911   8.434925   8.289758   6.685445
    43  H    8.508158   8.432243   9.172909   8.881411   7.283005
    44  C    7.632867   7.547669   8.472905   7.734277   6.611029
    45  H    8.077492   8.092512   8.884612   8.160186   6.961377
    46  H    7.122839   7.052647   8.001910   7.125096   6.196074
                   16         17         18         19         20
    16  H    0.000000
    17  H    1.559995   0.000000
    18  C    3.301946   2.720850   0.000000
    19  H    3.504689   2.775658   0.970393   0.000000
    20  H    3.965924   3.624279   0.970197   1.573125   0.000000
    21  C    4.000591   3.014157   1.536550   2.078726   2.078995
    22  H    4.918897   3.881075   2.076506   2.413245   2.341445
    23  H    3.827730   2.557830   2.076192   2.339176   2.852186
    24  C    5.057013   4.254985   3.809832   4.529078   4.176673
    25  H    5.539388   4.953260   4.457701   5.268337   4.690697
    26  C    4.472327   3.627979   4.225765   4.818816   4.845147
    27  H    4.242143   3.129525   3.975283   4.397522   4.723195
    28  H    5.281590   4.459418   5.174974   5.752270   5.777567
    29  H    3.851082   3.305087   4.160055   4.811877   4.768851
    30  C    6.298963   5.249735   4.545729   5.093504   4.864786
    31  H    6.126388   4.904202   4.274873   4.655491   4.701257
    32  C    8.498746   7.421044   6.074431   6.507083   6.108894
    33  H    9.111432   8.106288   6.508543   6.956061   6.405451
    34  H    8.455171   7.265291   5.935270   6.230306   6.028741
    35  C    9.250102   8.146379   7.183854   7.639334   7.322456
    36  H   10.077845   8.912479   7.921223   8.306383   8.053370
    37  H    9.540775   8.550824   7.568483   8.117964   7.648552
    38  C    8.583922   7.410684   6.938051   7.357562   7.265344
    39  H    8.514156   7.225177   6.814360   7.112446   7.204886
    40  H    9.249882   8.095510   7.809976   8.240126   8.164794
    41  C    7.310154   6.254466   5.978331   6.505845   6.356673
    42  H    7.044093   5.946837   6.094941   6.567202   6.601740
    43  H    7.592732   6.693627   6.392439   7.022229   6.698309
    44  C    7.167688   6.224617   4.860069   5.435273   4.891182
    45  H    7.422532   6.642713   5.262775   5.951887   5.200350
    46  H    6.818868   5.906563   4.196019   4.740228   4.121489
                   21         22         23         24         25
    21  C    0.000000
    22  H    0.970977   0.000000
    23  H    0.969502   1.571712   0.000000
    24  C    2.520530   2.881776   2.603822   0.000000
    25  H    3.316551   3.658111   3.525603   0.980233   0.000000
    26  C    3.109690   3.722573   2.747575   1.530771   2.040698
    27  H    2.858951   3.461211   2.229287   2.060340   2.818604
    28  H    3.993756   4.510824   3.599207   2.060434   2.308424
    29  H    3.346231   4.118376   3.071779   2.061296   2.339066
    30  C    3.042185   2.924953   3.052735   1.552171   2.061335
    31  H    2.741492   2.525932   2.559322   2.070297   2.836773
    32  C    4.707871   4.095365   4.941603   3.897871   4.100282
    33  H    5.260010   4.581490   5.622498   4.581726   4.677604
    34  H    4.583860   3.871919   4.727510   4.198850   4.597746
    35  C    5.720573   5.249462   5.790733   4.382293   4.454638
    36  H    6.469035   5.919657   6.509339   5.300270   5.416498
    37  H    6.138800   5.738801   6.283880   4.528837   4.387199
    38  C    5.406364   5.112056   5.245390   3.876803   4.079931
    39  H    5.291158   4.937899   5.024598   4.150955   4.554267
    40  H    6.276420   6.039939   6.063044   4.564250   4.664125
    41  C    4.473404   4.415977   4.307119   2.541034   2.708184
    42  H    4.617840   4.696961   4.260641   2.734590   3.018942
    43  H    4.952031   4.962510   4.893312   2.697307   2.502306
    44  C    3.512011   3.075275   3.868141   2.551997   2.734727
    45  H    4.021971   3.713923   4.468104   2.693309   2.518496
    46  H    2.990257   2.407757   3.517299   2.770227   3.081946
                   26         27         28         29         30
    26  C    0.000000
    27  H    0.960199   0.000000
    28  H    0.959645   1.567707   0.000000
    29  H    0.961290   1.568061   1.568638   0.000000
    30  C    2.581350   2.770256   2.772261   3.397807   0.000000
    31  H    2.767314   2.605514   3.062895   3.628144   0.980235
    32  C    5.089718   5.218381   5.182978   5.881828   2.510032
    33  H    5.886777   6.064868   6.015265   6.619945   3.333916
    34  H    5.267792   5.218345   5.422974   6.100074   2.750989
    35  C    5.326742   5.521921   5.147528   6.176398   2.957428
    36  H    6.194701   6.314865   5.995896   7.071782   3.824444
    37  H    5.526416   5.875193   5.284930   6.303309   3.302520
    38  C    4.435220   4.549725   4.109902   5.347252   2.503127
    39  H    4.589281   4.498112   4.347500   5.541808   2.716829
    40  H    4.946498   5.105603   4.452747   5.835522   3.333933
    41  C    3.020068   3.301499   2.685582   3.895390   1.532282
    42  H    2.683403   2.854738   2.168990   3.581219   2.067331
    43  H    3.241632   3.758993   2.800842   3.978961   2.067141
    44  C    3.926669   4.174242   4.178338   4.605300   1.519918
    45  H    4.137061   4.579521   4.324279   4.702162   2.056560
    46  H    4.186202   4.335430   4.628440   4.772628   2.056677
                   31         32         33         34         35
    31  H    0.000000
    32  C    2.732340   0.000000
    33  H    3.609186   0.969478   0.000000
    34  H    2.615813   0.970242   1.565348   0.000000
    35  C    3.291445   1.480139   2.012308   2.012268   0.000000
    36  H    4.010472   2.026788   2.325480   2.276582   0.969717
    37  H    3.859467   2.026723   2.288420   2.799226   0.970274
    38  C    2.711894   2.412330   3.247356   2.637317   1.481198
    39  H    2.563739   2.626534   3.511115   2.481653   2.016127
    40  H    3.586221   3.249854   3.984989   3.514751   2.016412
    41  C    2.052051   2.882032   3.751627   3.235499   2.493443
    42  H    2.315787   3.744806   4.655215   3.947868   3.314554
    43  H    2.833197   3.243024   3.966507   3.815885   2.725001
    44  C    2.041547   1.516833   2.045151   2.044852   2.519928
    45  H    2.823187   2.053028   2.302636   2.820492   2.779991
    46  H    2.294609   2.053286   2.358760   2.296332   3.333739
                   36         37         38         39         40
    36  H    0.000000
    37  H    1.572326   0.000000
    38  C    2.027300   2.027651   0.000000
    39  H    2.290583   2.803008   0.969728   0.000000
    40  H    2.321279   2.300494   0.970096   1.566691   0.000000
    41  C    3.321929   2.723733   1.500830   2.033142   2.033047
    42  H    4.038901   3.597777   2.039439   2.303585   2.330128
    43  H    3.603823   2.599218   2.039473   2.813107   2.308470
    44  C    3.345390   2.763350   2.892584   3.211276   3.776368
    45  H    3.655611   2.675327   3.288614   3.825406   4.037615
    46  H    4.052451   3.640401   3.739972   3.897567   4.664243
                   41         42         43         44         45
    41  C    0.000000
    42  H    0.969384   0.000000
    43  H    0.970076   1.569516   0.000000
    44  C    2.512595   3.341425   2.766053   0.000000
    45  H    2.780683   3.662204   2.686819   0.970128   0.000000
    46  H    3.342636   4.070986   3.658884   0.970465   1.569305
                   46
    46  H    0.000000
 Stoichiometry    C14H30N2
 Framework group  C1[X(C14H30N2)]
 Deg. of freedom   132
 Full point group                 C1      NOp   1
 Largest Abelian subgroup         C1      NOp   1
 Largest concise Abelian subgroup C1      NOp   1
                         Standard orientation:                         
 ---------------------------------------------------------------------
 Center     Atomic      Atomic             Coordinates (Angstroms)
 Number     Number       Type             X           Y           Z
 ---------------------------------------------------------------------
      1          7           0        2.916165    0.035992   -0.115416
      2          7           0        0.210277   -0.388013   -0.623131
      3          1           0       -0.011945   -1.241078   -0.744151
      4          6           0        4.106041   -1.947576   -1.102852
      5          1           0        3.648636   -2.610356   -0.579592
      6          1           0        4.980660   -2.269451   -1.332645
      7          1           0        3.607776   -1.774386   -1.905160
      8          6           0        4.220228   -0.783974   -0.373069
      9          1           0        4.852462   -0.207287   -0.829282
     10          1           0        4.607013   -1.009562    0.487854
     11          6           0        4.426604    1.417836    1.326776
     12          1           0        3.992932    1.765465    2.110028
     13          1           0        5.149009    1.998882    1.077179
     14          1           0        4.769125    0.541462    1.512667
     15          6           0        3.471917    1.343265    0.242654
     16          1           0        3.897758    1.708857   -0.549029
     17          1           0        2.730352    1.927769    0.462318
     18          6           0        2.144661   -0.696049    0.881329
     19          1           0        2.487343   -0.508646    1.769647
     20          1           0        2.216031   -1.650417    0.722045
     21          6           0        0.676209   -0.254839    0.781478
     22          1           0        0.127582   -0.807019    1.361910
     23          1           0        0.589663    0.666630    1.070163
     24          6           0       -0.973221    0.426325   -0.998541
     25          1           0       -1.240491    0.137999   -1.896479
     26          6           0       -0.534437    1.887875   -1.119387
     27          1           0       -0.302278    2.225165   -0.250871
     28          1           0       -1.253084    2.409179   -1.483677
     29          1           0        0.230106    1.946216   -1.699170
     30          6           0       -2.204019    0.218399   -0.075971
     31          1           0       -1.953397    0.519275    0.822652
     32          6           0       -3.887296   -1.410935    0.825201
     33          1           0       -4.151406   -2.343289    0.796060
     34          1           0       -3.705998   -1.186070    1.751450
     35          6           0       -5.018670   -0.582945    0.350609
     36          1           0       -5.776285   -0.686528    0.946966
     37          1           0       -5.287843   -0.870088   -0.536253
     38          6           0       -4.598078    0.836800    0.313526
     39          1           0       -4.411091    1.132710    1.217874
     40          1           0       -5.331279    1.372943   -0.027141
     41          6           0       -3.385194    1.078924   -0.536637
     42          1           0       -3.139399    2.015369   -0.488062
     43          1           0       -3.593238    0.870388   -1.460908
     44          6           0       -2.608368   -1.243117    0.027102
     45          1           0       -2.736416   -1.605152   -0.863786
     46          1           0       -1.895644   -1.744775    0.453910
 ---------------------------------------------------------------------
 Rotational constants (GHZ):           1.1533037           0.1998814           0.1885940
 Leave Link  202 at Sat Mar  4 11:39:05 2023, MaxMem=  1048576000 cpu:               0.0 elap:               0.0
 (Enter /ssoft/spack/external/gaussian/g16-C.01/avx2/g16/l301.exe)
 Standard basis: def2SVP (5D, 7F)
 Ernie: Thresh=  0.10000D-02 Tol=  0.10000D-05 Strict=F.
 There are   390 symmetry adapted cartesian basis functions of A   symmetry.
 There are   374 symmetry adapted basis functions of A   symmetry.
   374 basis functions,   610 primitive gaussians,   390 cartesian basis functions
    64 alpha electrons       64 beta electrons
       nuclear repulsion energy      1232.8421167680 Hartrees.
 IExCor= 1009 DFT=T Ex+Corr=PBE1PBE ExCW=0 ScaHFX=  0.250000
 ScaDFX=  0.750000  0.750000  1.000000  1.000000 ScalE2=  1.000000  1.000000
 IRadAn=      5 IRanWt=     -1 IRanGd=            0 ICorTp=0 IEmpDi=141
 NAtoms=   46 NActive=   46 NUniq=   46 SFac= 1.00D+00 NAtFMM=   60 NAOKFM=F Big=F
 Integral buffers will be    131072 words long.
 Raffenetti 2 integral format.
 Two-electron integral symmetry is turned on.
 R6Disp:  Grimme-D3(BJ) Dispersion energy=       -0.0450835178 Hartrees.
 Nuclear repulsion after empirical dispersion term =     1232.7970332503 Hartrees.
 Leave Link  301 at Sat Mar  4 11:39:05 2023, MaxMem=  1048576000 cpu:               0.1 elap:               0.1
 (Enter /ssoft/spack/external/gaussian/g16-C.01/avx2/g16/l302.exe)
 NPDir=0 NMtPBC=     1 NCelOv=     1 NCel=       1 NClECP=     1 NCelD=      1
         NCelK=      1 NCelE2=     1 NClLst=     1 CellRange=     0.0.
 One-electron integrals computed using PRISM.
 One-electron integral symmetry used in STVInt
   1 Symmetry operations used in ECPInt.
 ECPInt:  NShTT=   17391 NPrTT=   58951 LenC2=   15737 LenP2D=   39309.
 LDataN:  DoStor=T MaxTD1= 4 Len=   56
 NBasis=   374 RedAO= T EigKep=  9.26D-04  NBF=   374
 NBsUse=   374 1.00D-06 EigRej= -1.00D+00 NBFU=   374
 Precomputing XC quadrature grid using
 IXCGrd= 4 IRadAn=           5 IRanWt=          -1 IRanGd=           0 AccXCQ= 0.00D+00.
 Generated NRdTot=       0 NPtTot=           0 NUsed=           0 NTot=          32
 NSgBfM=   389   389   389   389   389 MxSgAt=    46 MxSgA2=    46.
 Leave Link  302 at Sat Mar  4 11:39:07 2023, MaxMem=  1048576000 cpu:               1.8 elap:               1.8
 (Enter /ssoft/spack/external/gaussian/g16-C.01/avx2/g16/l303.exe)
 DipDrv:  MaxL=1.
 Leave Link  303 at Sat Mar  4 11:39:07 2023, MaxMem=  1048576000 cpu:               0.1 elap:               0.1
 (Enter /ssoft/spack/external/gaussian/g16-C.01/avx2/g16/l401.exe)
 ExpMin= 1.22D-01 ExpMax= 1.71D+03 ExpMxC= 2.58D+02 IAcc=3 IRadAn=         5 AccDes= 0.00D+00
 Harris functional with IExCor= 1009 and IRadAn=       5 diagonalized for initial guess.
 HarFok:  IExCor= 1009 AccDes= 0.00D+00 IRadAn=         5 IDoV= 1 UseB2=F ITyADJ=14
 ICtDFT=  3500011 ScaDFX=  1.000000  1.000000  1.000000  1.000000
 FoFCou: FMM=F IPFlag=           0 FMFlag=      100000 FMFlg1=           0
         NFxFlg=           0 DoJE=T BraDBF=F KetDBF=T FulRan=T
         wScrn=  0.000000 ICntrl=       500 IOpCl=  0 I1Cent=   200000004 NGrid=           0
         NMat0=    1 NMatS0=      1 NMatT0=    0 NMatD0=    1 NMtDS0=    0 NMtDT0=    0
 Petite list used in FoFCou.
 Harris En= -659.920204774999    
 JPrj=0 DoOrth=F DoCkMO=F.
 Leave Link  401 at Sat Mar  4 11:39:19 2023, MaxMem=  1048576000 cpu:              11.8 elap:              11.8
 (Enter /ssoft/spack/external/gaussian/g16-C.01/avx2/g16/l502.exe)
 Integral symmetry usage will be decided dynamically.
 Closed shell SCF:
 Using DIIS extrapolation, IDIIS=  1040.
 NGot=  1048576000 LenX=  1048263910 LenY=  1048111369
 Requested convergence on RMS density matrix=1.00D-08 within 128 cycles.
 Requested convergence on MAX density matrix=1.00D-06.
 Requested convergence on             energy=1.00D-06.
 No special actions if energy rises.
 Fock matrices will be formed incrementally for  20 cycles.
 Integral accuracy reduced to 1.0D-05 until final iterations.

 Cycle   1  Pass 0  IDiag  1:
 FoFJK:  IHMeth= 1 ICntrl=       0 DoSepK=F KAlg= 0 I1Cent=           0 FoldK=F
 IRaf= 840000000 NMat=       1 IRICut=       1 DoRegI=T DoRafI=F ISym2E= 0 IDoP0=0 IntGTp=1.
 FoFCou: FMM=F IPFlag=           0 FMFlag=      100000 FMFlg1=           0
         NFxFlg=           0 DoJE=F BraDBF=F KetDBF=F FulRan=T
         wScrn=  0.000000 ICntrl=         0 IOpCl=  0 I1Cent=           0 NGrid=           0
         NMat0=    1 NMatS0=      1 NMatT0=    0 NMatD0=    1 NMtDS0=    0 NMtDT0=    0
 Symmetry not used in FoFCou.
 E= -658.655171702575    
 DIIS: error= 2.52D-02 at cycle   1 NSaved=   1.
 NSaved= 1 IEnMin= 1 EnMin= -658.655171702575     IErMin= 1 ErrMin= 2.52D-02
 ErrMax= 2.52D-02  0.00D+00 EMaxC= 1.00D-01 BMatC= 6.28D-01 BMatP= 6.28D-01
 IDIUse=3 WtCom= 7.48D-01 WtEn= 2.52D-01
 Coeff-Com:  0.100D+01
 Coeff-En:   0.100D+01
 Coeff:      0.100D+01
 Gap=     0.291 Goal=   None    Shift=    0.000
 GapD=    0.291 DampG=1.000 DampE=0.500 DampFc=0.5000 IDamp=-1.
 Damping current iteration by 5.00D-01
 RMSDP=5.24D-03 MaxDP=1.69D-01              OVMax= 1.65D-01

 Cycle   2  Pass 0  IDiag  1:
 RMSU=  2.54D-03    CP:  9.60D-01
 E= -658.994601141544     Delta-E=       -0.339429438970 Rises=F Damp=T
 DIIS: error= 5.64D-03 at cycle   2 NSaved=   2.
 NSaved= 2 IEnMin= 2 EnMin= -658.994601141544     IErMin= 2 ErrMin= 5.64D-03
 ErrMax= 5.64D-03  0.00D+00 EMaxC= 1.00D-01 BMatC= 2.19D-02 BMatP= 6.28D-01
 IDIUse=3 WtCom= 9.44D-01 WtEn= 5.64D-02
 Coeff-Com: -0.299D-01 0.103D+01
 Coeff-En:   0.000D+00 0.100D+01
 Coeff:     -0.282D-01 0.103D+01
 Gap=     0.277 Goal=   None    Shift=    0.000
 RMSDP=1.34D-03 MaxDP=4.51D-02 DE=-3.39D-01 OVMax= 8.42D-02

 Cycle   3  Pass 0  IDiag  1:
 RMSU=  1.30D-03    CP:  9.42D-01  1.07D+00
 E= -659.331023668813     Delta-E=       -0.336422527268 Rises=F Damp=F
 DIIS: error= 3.90D-03 at cycle   3 NSaved=   3.
 NSaved= 3 IEnMin= 3 EnMin= -659.331023668813     IErMin= 3 ErrMin= 3.90D-03
 ErrMax= 3.90D-03  0.00D+00 EMaxC= 1.00D-01 BMatC= 6.48D-03 BMatP= 2.19D-02
 IDIUse=3 WtCom= 9.61D-01 WtEn= 3.90D-02
 Coeff-Com: -0.352D-01 0.348D+00 0.688D+00
 Coeff-En:   0.000D+00 0.000D+00 0.100D+01
 Coeff:     -0.338D-01 0.334D+00 0.700D+00
 Gap=     0.276 Goal=   None    Shift=    0.000
 RMSDP=3.73D-04 MaxDP=1.32D-02 DE=-3.36D-01 OVMax= 1.35D-02

 Cycle   4  Pass 0  IDiag  1:
 RMSU=  3.10D-04    CP:  9.42D-01  1.07D+00  8.41D-01
 E= -659.335770608354     Delta-E=       -0.004746939541 Rises=F Damp=F
 DIIS: error= 1.02D-03 at cycle   4 NSaved=   4.
 NSaved= 4 IEnMin= 4 EnMin= -659.335770608354     IErMin= 4 ErrMin= 1.02D-03
 ErrMax= 1.02D-03  0.00D+00 EMaxC= 1.00D-01 BMatC= 1.01D-03 BMatP= 6.48D-03
 IDIUse=3 WtCom= 9.90D-01 WtEn= 1.02D-02
 Coeff-Com: -0.125D-01 0.833D-01 0.317D+00 0.612D+00
 Coeff-En:   0.000D+00 0.000D+00 0.398D-01 0.960D+00
 Coeff:     -0.124D-01 0.825D-01 0.314D+00 0.615D+00
 Gap=     0.269 Goal=   None    Shift=    0.000
 RMSDP=1.35D-04 MaxDP=6.23D-03 DE=-4.75D-03 OVMax= 6.67D-03

 Cycle   5  Pass 0  IDiag  1:
 RMSU=  8.36D-05    CP:  9.42D-01  1.08D+00  8.60D-01  6.76D-01
 E= -659.336597417594     Delta-E=       -0.000826809240 Rises=F Damp=F
 DIIS: error= 3.81D-04 at cycle   5 NSaved=   5.
 NSaved= 5 IEnMin= 5 EnMin= -659.336597417594     IErMin= 5 ErrMin= 3.81D-04
 ErrMax= 3.81D-04  0.00D+00 EMaxC= 1.00D-01 BMatC= 1.00D-04 BMatP= 1.01D-03
 IDIUse=3 WtCom= 9.96D-01 WtEn= 3.81D-03
 Coeff-Com: -0.278D-02 0.859D-02 0.835D-01 0.296D+00 0.615D+00
 Coeff-En:   0.000D+00 0.000D+00 0.000D+00 0.000D+00 0.100D+01
 Coeff:     -0.277D-02 0.855D-02 0.832D-01 0.295D+00 0.616D+00
 Gap=     0.270 Goal=   None    Shift=    0.000
 RMSDP=4.61D-05 MaxDP=2.13D-03 DE=-8.27D-04 OVMax= 2.27D-03

 Cycle   6  Pass 0  IDiag  1:
 RMSU=  1.85D-05    CP:  9.42D-01  1.07D+00  8.69D-01  7.34D-01  5.82D-01
 E= -659.336679954884     Delta-E=       -0.000082537290 Rises=F Damp=F
 DIIS: error= 1.03D-04 at cycle   6 NSaved=   6.
 NSaved= 6 IEnMin= 6 EnMin= -659.336679954884     IErMin= 6 ErrMin= 1.03D-04
 ErrMax= 1.03D-04  0.00D+00 EMaxC= 1.00D-01 BMatC= 7.93D-06 BMatP= 1.00D-04
 IDIUse=3 WtCom= 9.99D-01 WtEn= 1.03D-03
 Coeff-Com: -0.733D-03-0.187D-03 0.265D-01 0.124D+00 0.328D+00 0.522D+00
 Coeff-En:   0.000D+00 0.000D+00 0.000D+00 0.000D+00 0.000D+00 0.100D+01
 Coeff:     -0.732D-03-0.187D-03 0.264D-01 0.123D+00 0.328D+00 0.523D+00
 Gap=     0.270 Goal=   None    Shift=    0.000
 RMSDP=9.45D-06 MaxDP=5.19D-04 DE=-8.25D-05 OVMax= 5.02D-04

 Initial convergence to 1.0D-05 achieved.  Increase integral accuracy.
 Cycle   7  Pass 1  IDiag  1:
 E= -659.336657775520     Delta-E=        0.000022179364 Rises=F Damp=F
 DIIS: error= 5.21D-05 at cycle   1 NSaved=   1.
 NSaved= 1 IEnMin= 1 EnMin= -659.336657775520     IErMin= 1 ErrMin= 5.21D-05
 ErrMax= 5.21D-05  0.00D+00 EMaxC= 1.00D-01 BMatC= 8.69D-07 BMatP= 8.69D-07
 IDIUse=1 WtCom= 1.00D+00 WtEn= 0.00D+00
 Coeff-Com:  0.100D+01
 Coeff:      0.100D+01
 Gap=     0.270 Goal=   None    Shift=    0.000
 RMSDP=9.45D-06 MaxDP=5.19D-04 DE= 2.22D-05 OVMax= 2.49D-04

 Cycle   8  Pass 1  IDiag  1:
 RMSU=  3.13D-05    CP:  1.00D+00
 E= -659.336658628457     Delta-E=       -0.000000852937 Rises=F Damp=F
 DIIS: error= 1.45D-05 at cycle   2 NSaved=   2.
 NSaved= 2 IEnMin= 2 EnMin= -659.336658628457     IErMin= 2 ErrMin= 1.45D-05
 ErrMax= 1.45D-05  0.00D+00 EMaxC= 1.00D-01 BMatC= 2.09D-07 BMatP= 8.69D-07
 IDIUse=1 WtCom= 1.00D+00 WtEn= 0.00D+00
 Coeff-Com:  0.263D+00 0.737D+00
 Coeff:      0.263D+00 0.737D+00
 Gap=     0.270 Goal=   None    Shift=    0.000
 RMSDP=2.38D-06 MaxDP=1.15D-04 DE=-8.53D-07 OVMax= 1.15D-04

 Cycle   9  Pass 1  IDiag  1:
 RMSU=  2.35D-06    CP:  1.00D+00  1.01D+00
 E= -659.336658716409     Delta-E=       -0.000000087952 Rises=F Damp=F
 DIIS: error= 1.19D-05 at cycle   3 NSaved=   3.
 NSaved= 3 IEnMin= 3 EnMin= -659.336658716409     IErMin= 3 ErrMin= 1.19D-05
 ErrMax= 1.19D-05  0.00D+00 EMaxC= 1.00D-01 BMatC= 1.13D-07 BMatP= 2.09D-07
 IDIUse=1 WtCom= 1.00D+00 WtEn= 0.00D+00
 Coeff-Com:  0.548D-02 0.422D+00 0.572D+00
 Coeff:      0.548D-02 0.422D+00 0.572D+00
 Gap=     0.270 Goal=   None    Shift=    0.000
 RMSDP=1.19D-06 MaxDP=5.85D-05 DE=-8.80D-08 OVMax= 6.08D-05

 Cycle  10  Pass 1  IDiag  1:
 RMSU=  4.89D-07    CP:  1.00D+00  1.02D+00  5.61D-01
 E= -659.336658812005     Delta-E=       -0.000000095596 Rises=F Damp=F
 DIIS: error= 1.60D-06 at cycle   4 NSaved=   4.
 NSaved= 4 IEnMin= 4 EnMin= -659.336658812005     IErMin= 4 ErrMin= 1.60D-06
 ErrMax= 1.60D-06  0.00D+00 EMaxC= 1.00D-01 BMatC= 2.72D-09 BMatP= 1.13D-07
 IDIUse=1 WtCom= 1.00D+00 WtEn= 0.00D+00
 Coeff-Com: -0.332D-02 0.200D+00 0.295D+00 0.509D+00
 Coeff:     -0.332D-02 0.200D+00 0.295D+00 0.509D+00
 Gap=     0.270 Goal=   None    Shift=    0.000
 RMSDP=2.32D-07 MaxDP=8.52D-06 DE=-9.56D-08 OVMax= 1.01D-05

 Cycle  11  Pass 1  IDiag  1:
 RMSU=  1.08D-07    CP:  1.00D+00  1.02D+00  5.89D-01  6.03D-01
 E= -659.336658814422     Delta-E=       -0.000000002418 Rises=F Damp=F
 DIIS: error= 3.44D-07 at cycle   5 NSaved=   5.
 NSaved= 5 IEnMin= 5 EnMin= -659.336658814422     IErMin= 5 ErrMin= 3.44D-07
 ErrMax= 3.44D-07  0.00D+00 EMaxC= 1.00D-01 BMatC= 9.56D-11 BMatP= 2.72D-09
 IDIUse=1 WtCom= 1.00D+00 WtEn= 0.00D+00
 Coeff-Com: -0.189D-02 0.764D-01 0.115D+00 0.244D+00 0.567D+00
 Coeff:     -0.189D-02 0.764D-01 0.115D+00 0.244D+00 0.567D+00
 Gap=     0.270 Goal=   None    Shift=    0.000
 RMSDP=3.76D-08 MaxDP=1.34D-06 DE=-2.42D-09 OVMax= 1.43D-06

 Cycle  12  Pass 1  IDiag  1:
 RMSU=  2.84D-08    CP:  1.00D+00  1.02D+00  5.87D-01  6.13D-01  7.85D-01
 E= -659.336658814506     Delta-E=       -0.000000000083 Rises=F Damp=F
 DIIS: error= 3.32D-08 at cycle   6 NSaved=   6.
 NSaved= 6 IEnMin= 6 EnMin= -659.336658814506     IErMin= 6 ErrMin= 3.32D-08
 ErrMax= 3.32D-08  0.00D+00 EMaxC= 1.00D-01 BMatC= 1.65D-12 BMatP= 9.56D-11
 IDIUse=1 WtCom= 1.00D+00 WtEn= 0.00D+00
 Coeff-Com: -0.453D-03 0.159D-01 0.244D-01 0.549D-01 0.175D+00 0.730D+00
 Coeff:     -0.453D-03 0.159D-01 0.244D-01 0.549D-01 0.175D+00 0.730D+00
 Gap=     0.270 Goal=   None    Shift=    0.000
 RMSDP=6.30D-09 MaxDP=2.26D-07 DE=-8.34D-11 OVMax= 2.91D-07

 SCF Done:  E(RPBE1PBE) =  -659.336658815     A.U. after   12 cycles
            NFock= 12  Conv=0.63D-08     -V/T= 2.0007
 KE= 6.588986435639D+02 PE=-3.996404442822D+03 EE= 1.445372107193D+03
 Leave Link  502 at Sat Mar  4 11:45:12 2023, MaxMem=  1048576000 cpu:             351.5 elap:             353.6
 (Enter /ssoft/spack/external/gaussian/g16-C.01/avx2/g16/l801.exe)
 DoSCS=F DFT=T ScalE2(SS,OS)=  1.000000  1.000000
 Range of M.O.s used for correlation:     1   374
 NBasis=   374 NAE=    64 NBE=    64 NFC=     0 NFV=     0
 NROrb=    374 NOA=    64 NOB=    64 NVA=   310 NVB=   310
 Leave Link  801 at Sat Mar  4 11:45:13 2023, MaxMem=  1048576000 cpu:               0.0 elap:               0.0
 (Enter /ssoft/spack/external/gaussian/g16-C.01/avx2/g16/l1101.exe)
 Using compressed storage, NAtomX=    46.
 Will process     47 centers per pass.
   1 Symmetry operations used in ECPInt.
 ECPInt:  NShTT=   17391 NPrTT=   58951 LenC2=   15737 LenP2D=   39309.
 LDataN:  DoStor=T MaxTD1= 5 Len=  102
 R6Disp: Adding Grimme-D3(BJ) dispersion energy 1st derivatives to the gradient.
 Leave Link 1101 at Sat Mar  4 11:45:13 2023, MaxMem=  1048576000 cpu:               0.7 elap:               0.8
 (Enter /ssoft/spack/external/gaussian/g16-C.01/avx2/g16/l1102.exe)
 Symmetrizing basis deriv contribution to polar:
 IMax=3 JMax=2 DiffMx= 0.00D+00
 Leave Link 1102 at Sat Mar  4 11:45:14 2023, MaxMem=  1048576000 cpu:               0.1 elap:               0.1
 (Enter /ssoft/spack/external/gaussian/g16-C.01/avx2/g16/l1110.exe)
 Forming Gx(P) for the SCF density, NAtomX=    46.
 Integral derivatives from FoFJK, PRISM(SPDF).
 Do as many integral derivatives as possible in FoFJK.
 G2DrvN: MDV=    1048571126.
 G2DrvN: will do    47 centers at a time, making    1 passes.
 Calling FoFCou, ICntrl=  3107 FMM=F I1Cent=   0 AccDes= 0.00D+00.
 FoFJK:  IHMeth= 1 ICntrl=    3107 DoSepK=F KAlg= 0 I1Cent=           0 FoldK=F
 IRaf=         0 NMat=       1 IRICut=       1 DoRegI=T DoRafI=F ISym2E= 0 IDoP0=0 IntGTp=1.
 FoFCou: FMM=F IPFlag=           0 FMFlag=      100000 FMFlg1=           0
         NFxFlg=           0 DoJE=F BraDBF=F KetDBF=F FulRan=T
         wScrn=  0.000000 ICntrl=      3107 IOpCl=  0 I1Cent=           0 NGrid=           0
         NMat0=    1 NMatS0=      1 NMatT0=    0 NMatD0=    1 NMtDS0=    0 NMtDT0=    0
 Symmetry not used in FoFCou.
 End of G2Drv F.D. properties file   721 does not exist.
 End of G2Drv F.D. properties file   722 does not exist.
 End of G2Drv F.D. properties file   788 does not exist.
 Leave Link 1110 at Sat Mar  4 12:05:09 2023, MaxMem=  1048576000 cpu:            1190.7 elap:            1195.0
 (Enter /ssoft/spack/external/gaussian/g16-C.01/avx2/g16/l1002.exe)
 Minotr:  Closed shell wavefunction.
          IDoAtm=1111111111111111111111111111111111111111111111
          Direct CPHF calculation.
          Differentiating once with respect to electric field.
                with respect to dipole field.
          Differentiating once with respect to nuclear coordinates.
          Requested convergence is 1.0D-08 RMS, and 1.0D-07 maximum.
          Secondary convergence is 1.0D-12 RMS, and 1.0D-12 maximum.
          NewPWx=T KeepS1=F KeepF1=F KeepIn=T MapXYZ=F SortEE=F KeepMc=T.
        13954 words used for storage of precomputed grid.
 Two-electron integrals replicated using symmetry.
          MDV=    1048576000 using IRadAn=       1.
          Solving linear equations simultaneously, MaxMat=     384.
 FoF2E skips out because all densities are zero.
 CalDSu exits because no D1Ps are significant.
 FoFJK:  IHMeth= 1 ICntrl=       0 DoSepK=F KAlg= 0 I1Cent=           0 FoldK=F
 IRaf= 810000000 NMat=     138 IRICut=     345 DoRegI=T DoRafI=T ISym2E= 2 IDoP0=3 IntGTp=3.
 FoFCou: FMM=F IPFlag=           0 FMFlag=      100000 FMFlg1=           0
         NFxFlg=           0 DoJE=F BraDBF=F KetDBF=F FulRan=T
         wScrn=  0.000000 ICntrl=         0 IOpCl=  0 I1Cent=           0 NGrid=           0
         NMat0=  138 NMatS0=    138 NMatT0=    0 NMatD0=  138 NMtDS0=    0 NMtDT0=    0
 Integrals replicated using symmetry in FoFCou.
 Raff kept on since  76.56% of shell-pairs survive, threshold=   0.20 IRatSp=77.
          There are   141 degrees of freedom in the 1st order CPHF.  IDoFFX=6 NUNeed=     3.
    138 vectors produced by pass  0 Test12= 1.98D-14 1.00D-09 XBig12= 7.73D+01 1.65D+00.
 AX will form   138 AO Fock derivatives at one time.
    138 vectors produced by pass  1 Test12= 1.98D-14 1.00D-09 XBig12= 5.85D+00 2.26D-01.
    138 vectors produced by pass  2 Test12= 1.98D-14 1.00D-09 XBig12= 6.86D-02 1.99D-02.
    138 vectors produced by pass  3 Test12= 1.98D-14 1.00D-09 XBig12= 1.29D-04 9.64D-04.
    138 vectors produced by pass  4 Test12= 1.98D-14 1.00D-09 XBig12= 1.61D-07 3.02D-05.
     81 vectors produced by pass  5 Test12= 1.98D-14 1.00D-09 XBig12= 1.21D-10 7.74D-07.
      3 vectors produced by pass  6 Test12= 1.98D-14 1.00D-09 XBig12= 1.00D-13 3.69D-08.
 InvSVY:  IOpt=1 It=  1 EMax= 5.33D-15
 Solved reduced A of dimension   774 with   141 vectors.
 FullF1:  Do perturbations      1 to       3.
 Isotropic polarizability for W=    0.000000      141.21 Bohr**3.
 End of Minotr F.D. properties file   721 does not exist.
 End of Minotr F.D. properties file   722 does not exist.
 End of Minotr F.D. properties file   788 does not exist.
 Leave Link 1002 at Sat Mar  4 12:40:06 2023, MaxMem=  1048576000 cpu:            2089.3 elap:            2097.1
 (Enter /ssoft/spack/external/gaussian/g16-C.01/avx2/g16/l601.exe)
 Copying SCF densities to generalized density rwf, IOpCl= 0 IROHF=0.

 **********************************************************************

            Population analysis using the SCF Density.

 **********************************************************************

 Orbital symmetries:
       Occupied  (A) (A) (A) (A) (A) (A) (A) (A) (A) (A) (A) (A)
                 (A) (A) (A) (A) (A) (A) (A) (A) (A) (A) (A) (A)
                 (A) (A) (A) (A) (A) (A) (A) (A) (A) (A) (A) (A)
                 (A) (A) (A) (A) (A) (A) (A) (A) (A) (A) (A) (A)
                 (A) (A) (A) (A) (A) (A) (A) (A) (A) (A) (A) (A)
                 (A) (A) (A) (A)
       Virtual   (A) (A) (A) (A) (A) (A) (A) (A) (A) (A) (A) (A)
                 (A) (A) (A) (A) (A) (A) (A) (A) (A) (A) (A) (A)
                 (A) (A) (A) (A) (A) (A) (A) (A) (A) (A) (A) (A)
                 (A) (A) (A) (A) (A) (A) (A) (A) (A) (A) (A) (A)
                 (A) (A) (A) (A) (A) (A) (A) (A) (A) (A) (A) (A)
                 (A) (A) (A) (A) (A) (A) (A) (A) (A) (A) (A) (A)
                 (A) (A) (A) (A) (A) (A) (A) (A) (A) (A) (A) (A)
                 (A) (A) (A) (A) (A) (A) (A) (A) (A) (A) (A) (A)
                 (A) (A) (A) (A) (A) (A) (A) (A) (A) (A) (A) (A)
                 (A) (A) (A) (A) (A) (A) (A) (A) (A) (A) (A) (A)
                 (A) (A) (A) (A) (A) (A) (A) (A) (A) (A) (A) (A)
                 (A) (A) (A) (A) (A) (A) (A) (A) (A) (A) (A) (A)
                 (A) (A) (A) (A) (A) (A) (A) (A) (A) (A) (A) (A)
                 (A) (A) (A) (A) (A) (A) (A) (A) (A) (A) (A) (A)
                 (A) (A) (A) (A) (A) (A) (A) (A) (A) (A) (A) (A)
                 (A) (A) (A) (A) (A) (A) (A) (A) (A) (A) (A) (A)
                 (A) (A) (A) (A) (A) (A) (A) (A) (A) (A) (A) (A)
                 (A) (A) (A) (A) (A) (A) (A) (A) (A) (A) (A) (A)
                 (A) (A) (A) (A) (A) (A) (A) (A) (A) (A) (A) (A)
                 (A) (A) (A) (A) (A) (A) (A) (A) (A) (A) (A) (A)
                 (A) (A) (A) (A) (A) (A) (A) (A) (A) (A) (A) (A)
                 (A) (A) (A) (A) (A) (A) (A) (A) (A) (A) (A) (A)
                 (A) (A) (A) (A) (A) (A) (A) (A) (A) (A) (A) (A)
                 (A) (A) (A) (A) (A) (A) (A) (A) (A) (A) (A) (A)
                 (A) (A) (A) (A) (A) (A) (A) (A) (A) (A) (A) (A)
                 (A) (A) (A) (A) (A) (A) (A) (A) (A) (A)
 The electronic state is 1-A.
 Alpha  occ. eigenvalues --  -14.35459 -14.33448 -10.22606 -10.21368 -10.21319
 Alpha  occ. eigenvalues --  -10.20152 -10.20133 -10.19947 -10.18768 -10.18482
 Alpha  occ. eigenvalues --  -10.18453 -10.18210 -10.18189 -10.16398 -10.16377
 Alpha  occ. eigenvalues --  -10.16083  -0.93026  -0.90905  -0.86539  -0.81342
 Alpha  occ. eigenvalues --   -0.80284  -0.78208  -0.77557  -0.75006  -0.72568
 Alpha  occ. eigenvalues --   -0.66636  -0.65115  -0.64545  -0.64432  -0.59768
 Alpha  occ. eigenvalues --   -0.59291  -0.58171  -0.52103  -0.51221  -0.50728
 Alpha  occ. eigenvalues --   -0.49945  -0.49577  -0.47755  -0.47576  -0.46907
 Alpha  occ. eigenvalues --   -0.45572  -0.45127  -0.43585  -0.43430  -0.41628
 Alpha  occ. eigenvalues --   -0.41033  -0.39901  -0.39659  -0.39252  -0.38512
 Alpha  occ. eigenvalues --   -0.37629  -0.37164  -0.36882  -0.36424  -0.35985
 Alpha  occ. eigenvalues --   -0.35193  -0.34312  -0.33967  -0.32524  -0.31586
 Alpha  occ. eigenvalues --   -0.31003  -0.29892  -0.21660  -0.19734
 Alpha virt. eigenvalues --    0.07235   0.08320   0.09190   0.10066   0.10124
 Alpha virt. eigenvalues --    0.11266   0.11976   0.12901   0.13531   0.13998
 Alpha virt. eigenvalues --    0.14258   0.15132   0.15615   0.16081   0.16437
 Alpha virt. eigenvalues --    0.17048   0.17653   0.18106   0.18201   0.18703
 Alpha virt. eigenvalues --    0.19370   0.19549   0.19748   0.20400   0.21187
 Alpha virt. eigenvalues --    0.21976   0.22694   0.22918   0.23715   0.24145
 Alpha virt. eigenvalues --    0.24705   0.25152   0.25581   0.25846   0.26783
 Alpha virt. eigenvalues --    0.27417   0.27514   0.28287   0.28798   0.29511
 Alpha virt. eigenvalues --    0.30244   0.30713   0.32207   0.33026   0.33121
 Alpha virt. eigenvalues --    0.34426   0.42177   0.44198   0.45003   0.45320
 Alpha virt. eigenvalues --    0.46088   0.46794   0.47170   0.48283   0.48540
 Alpha virt. eigenvalues --    0.49157   0.49739   0.51305   0.52103   0.53866
 Alpha virt. eigenvalues --    0.55105   0.57238   0.58596   0.59849   0.60769
 Alpha virt. eigenvalues --    0.62044   0.63400   0.64665   0.65756   0.66373
 Alpha virt. eigenvalues --    0.67004   0.68033   0.68654   0.69644   0.70013
 Alpha virt. eigenvalues --    0.70697   0.70832   0.71530   0.72386   0.72875
 Alpha virt. eigenvalues --    0.73091   0.73608   0.73831   0.74276   0.74689
 Alpha virt. eigenvalues --    0.74855   0.75542   0.76168   0.76496   0.76909
 Alpha virt. eigenvalues --    0.77156   0.77368   0.77735   0.78231   0.78505
 Alpha virt. eigenvalues --    0.78632   0.79174   0.79573   0.79850   0.80311
 Alpha virt. eigenvalues --    0.80878   0.81290   0.81469   0.81740   0.82814
 Alpha virt. eigenvalues --    0.83374   0.83599   0.84290   0.84513   0.85410
 Alpha virt. eigenvalues --    0.85509   0.85814   0.86648   0.87428   0.88195
 Alpha virt. eigenvalues --    0.89240   0.91834   0.92945   0.94459   0.95983
 Alpha virt. eigenvalues --    0.96720   0.97641   1.00273   1.01849   1.05696
 Alpha virt. eigenvalues --    1.07448   1.08438   1.09634   1.10441   1.13721
 Alpha virt. eigenvalues --    1.15863   1.16862   1.17735   1.18135   1.18605
 Alpha virt. eigenvalues --    1.23107   1.23188   1.24429   1.26136   1.29063
 Alpha virt. eigenvalues --    1.30564   1.31445   1.32858   1.34798   1.36480
 Alpha virt. eigenvalues --    1.36823   1.37239   1.42103   1.42449   1.43315
 Alpha virt. eigenvalues --    1.45729   1.46565   1.47259   1.48793   1.50482
 Alpha virt. eigenvalues --    1.50904   1.54760   1.57599   1.59281   1.61471
 Alpha virt. eigenvalues --    1.62817   1.65176   1.66864   1.67037   1.68671
 Alpha virt. eigenvalues --    1.70337   1.71663   1.73402   1.76672   1.78339
 Alpha virt. eigenvalues --    1.79039   1.79203   1.80215   1.80576   1.82155
 Alpha virt. eigenvalues --    1.83085   1.83367   1.84678   1.85553   1.87129
 Alpha virt. eigenvalues --    1.87473   1.88170   1.88412   1.89120   1.90455
 Alpha virt. eigenvalues --    1.91013   1.92710   1.93606   1.93857   1.95028
 Alpha virt. eigenvalues --    1.95186   1.95602   1.96043   1.96223   1.98086
 Alpha virt. eigenvalues --    1.98294   1.99006   2.00059   2.00713   2.01352
 Alpha virt. eigenvalues --    2.01771   2.02761   2.03480   2.04530   2.04594
 Alpha virt. eigenvalues --    2.06503   2.06889   2.07729   2.08501   2.08995
 Alpha virt. eigenvalues --    2.09610   2.10142   2.11444   2.12816   2.13640
 Alpha virt. eigenvalues --    2.14042   2.15847   2.17306   2.18131   2.19348
 Alpha virt. eigenvalues --    2.20014   2.20359   2.21868   2.24477   2.24615
 Alpha virt. eigenvalues --    2.25562   2.25894   2.27167   2.29120   2.31856
 Alpha virt. eigenvalues --    2.34382   2.34776   2.35459   2.36835   2.38423
 Alpha virt. eigenvalues --    2.40067   2.42155   2.43274   2.45415   2.45663
 Alpha virt. eigenvalues --    2.47642   2.49748   2.51462   2.52918   2.54762
 Alpha virt. eigenvalues --    2.56656   2.59481   2.62936   2.63927   2.64306
 Alpha virt. eigenvalues --    2.66245   2.66884   2.68104   2.69457   2.70074
 Alpha virt. eigenvalues --    2.71015   2.71632   2.73105   2.74375   2.75916
 Alpha virt. eigenvalues --    2.78260   2.79429   2.80082   2.82000   2.82490
 Alpha virt. eigenvalues --    2.83107   2.84170   2.87421   2.88960   2.91386
 Alpha virt. eigenvalues --    2.91876   2.93943   2.95171   2.98102   2.99832
 Alpha virt. eigenvalues --    3.00492   3.05606   3.05977   3.08595   3.12010
 Alpha virt. eigenvalues --    3.14470   3.16028   3.19430   3.21658   3.22270
 Alpha virt. eigenvalues --    3.22776   3.23194   3.23470   3.24021   3.25079
 Alpha virt. eigenvalues --    3.25920   3.26748   3.27095   3.30130   3.30732
 Alpha virt. eigenvalues --    3.32070   3.32273   3.32882   3.34641   3.35480
 Alpha virt. eigenvalues --    3.37086   3.38237   3.39174   3.39655   3.41217
 Alpha virt. eigenvalues --    3.42099   3.45425   3.45751   3.47931   3.66716
     Molecular Orbital Coefficients:
                          60        61        62        63        64
                           O         O         O         O         O
     Eigenvalues --    -0.31586  -0.31003  -0.29892  -0.21660  -0.19734
   1 1   N  1S          0.00643   0.00096   0.00161  -0.04572   0.06485
   2        2S          0.00892   0.00247   0.00304  -0.09012   0.14375
   3        3S          0.05408  -0.00094   0.00871  -0.17215   0.15860
   4        4PX        -0.15393  -0.08305  -0.01253  -0.18367   0.21731
   5        4PY         0.19799   0.06465   0.01340   0.03582  -0.04027
   6        4PZ         0.16755   0.07901   0.02203  -0.24111   0.36529
   7        5PX         0.09278   0.05372   0.00563   0.16357  -0.17857
   8        5PY        -0.11741  -0.03649  -0.00896  -0.00655   0.01439
   9        5PZ        -0.09382  -0.04612  -0.01176   0.19434  -0.28766
  10        6D 0       -0.00661  -0.00421  -0.00114   0.00255  -0.00698
  11        6D+1       -0.00088  -0.00013  -0.00043   0.00414  -0.01133
  12        6D-1        0.00014   0.00107   0.00032  -0.00049   0.00170
  13        6D+2        0.00589   0.00288   0.00098   0.00245  -0.00213
  14        6D-2       -0.01507  -0.00589  -0.00121  -0.00074   0.00004
  15 2   N  1S          0.02207  -0.02286   0.00888  -0.05241  -0.04966
  16        2S          0.04856  -0.04856   0.01930  -0.10388  -0.11354
  17        3S          0.07303  -0.07596   0.04499  -0.20044  -0.09880
  18        4PX        -0.06380   0.04493   0.05857   0.29898   0.25494
  19        4PY        -0.07952   0.08542  -0.07573   0.08820   0.08832
  20        4PZ         0.03641  -0.07294  -0.00006  -0.22402  -0.21846
  21        5PX         0.03640  -0.02131  -0.04704  -0.26265  -0.20843
  22        5PY         0.03817  -0.05292   0.03926  -0.06072  -0.05034
  23        5PZ        -0.02530   0.05043  -0.00375   0.16638   0.16868
  24        6D 0        0.00154  -0.00319   0.00014  -0.00106  -0.00117
  25        6D+1        0.00523  -0.00374   0.00067  -0.00563  -0.00941
  26        6D-1       -0.00140   0.00043   0.00089  -0.00431  -0.00294
  27        6D+2        0.00116   0.00236   0.00667   0.00374   0.00410
  28        6D-2       -0.00366   0.00253  -0.00213   0.00424   0.00555
  29 3   H  1S         -0.05928   0.04370  -0.05385   0.05712   0.05201
  30        2S         -0.01992  -0.00024  -0.02886  -0.02325   0.00538
  31        3PX         0.00184  -0.00101  -0.00414  -0.01379  -0.01302
  32        3PY        -0.00099   0.00078   0.00042  -0.00066   0.00027
  33        3PZ        -0.00203   0.00324  -0.00069   0.01186   0.01269
  34 4   C  1S          0.00776   0.00253   0.00046  -0.01104   0.01312
  35        2S         -0.01625  -0.00569  -0.00101   0.02371  -0.03173
  36        3S         -0.03439  -0.00261  -0.00158   0.10793  -0.11926
  37        4PX         0.10630   0.04654   0.00710   0.00378  -0.00467
  38        4PY        -0.10757  -0.03321  -0.00759   0.02659  -0.04070
  39        4PZ         0.01648  -0.00288  -0.00263   0.01690  -0.02734
  40        5PX         0.03695   0.01724   0.00332   0.01727  -0.02085
  41        5PY        -0.04665  -0.01704  -0.00468   0.01859  -0.05794
  42        5PZ         0.00389  -0.00210  -0.00157  -0.03328   0.00850
  43        6D 0       -0.00728  -0.00214  -0.00020  -0.00163   0.00256
  44        6D+1       -0.00950  -0.00329  -0.00046  -0.00269   0.00374
  45        6D-1        0.00054   0.00098   0.00027   0.00005   0.00026
  46        6D+2        0.00184   0.00133   0.00034  -0.00158   0.00263
  47        6D-2       -0.00812  -0.00436  -0.00100  -0.00146  -0.00007
  48 5   H  1S          0.01351  -0.00876  -0.00204   0.00390  -0.00761
  49        2S          0.00779  -0.01001  -0.00206  -0.00153  -0.02356
  50        3PX         0.00568   0.00209   0.00040   0.00012   0.00031
  51        3PY        -0.00323  -0.00129  -0.00018   0.00129  -0.00157
  52        3PZ        -0.00059  -0.00011  -0.00015   0.00088  -0.00127
  53 6   H  1S          0.12852   0.05510   0.00997   0.00275   0.00182
  54        2S          0.08077   0.03357   0.00608  -0.02225   0.02650
  55        3PX        -0.00242  -0.00101  -0.00021  -0.00003  -0.00011
  56        3PY        -0.00300  -0.00084  -0.00024   0.00073  -0.00102
  57        3PZ         0.00217   0.00050   0.00000   0.00135  -0.00125
  58 7   H  1S         -0.09733  -0.03069  -0.00324  -0.01261   0.02050
  59        2S         -0.04161  -0.01855  -0.00279  -0.10069   0.06324
  60        3PX         0.00038   0.00049   0.00008   0.00008  -0.00112
  61        3PY        -0.00030   0.00012  -0.00002   0.00022   0.00042
  62        3PZ        -0.00281  -0.00136  -0.00026  -0.00032  -0.00144
  63 8   C  1S         -0.02121  -0.01090  -0.00285  -0.01587   0.01199
  64        2S          0.05260   0.02635   0.00647   0.03716  -0.03517
  65        3S          0.08677   0.04578   0.01352   0.05139   0.03189
  66        4PX        -0.20480  -0.09679  -0.01987  -0.08109   0.06519
  67        4PY         0.13988   0.04682   0.00871   0.02548  -0.02240
  68        4PZ         0.00416   0.01897   0.00931  -0.02957   0.05516
  69        5PX        -0.09961  -0.04869  -0.01122  -0.05396   0.02434
  70        5PY         0.06512   0.02751   0.00577   0.01113  -0.02241
  71        5PZ         0.00488   0.00859   0.00363   0.03671  -0.05437
  72        6D 0       -0.00922  -0.00331  -0.00056  -0.00140   0.00018
  73        6D+1       -0.00331   0.00000   0.00063  -0.01015   0.01639
  74        6D-1       -0.00013   0.00067  -0.00000   0.00827  -0.01073
  75        6D+2        0.00740   0.00243   0.00055  -0.00383   0.00533
  76        6D-2       -0.01197  -0.00658  -0.00153  -0.00061  -0.00273
  77 9   H  1S         -0.03046  -0.03443  -0.00984   0.00203  -0.02769
  78        2S         -0.02516  -0.02430  -0.00750   0.01555  -0.03827
  79        3PX        -0.00336  -0.00111  -0.00016  -0.00249   0.00257
  80        3PY         0.00282   0.00124   0.00026   0.00066  -0.00039
  81        3PZ        -0.00187  -0.00076   0.00002  -0.00244   0.00443
  82 10  H  1S         -0.07351  -0.01619   0.00223  -0.07275   0.10455
  83        2S         -0.03907  -0.00986   0.00136  -0.09494   0.13263
  84        3PX        -0.00317  -0.00182  -0.00043  -0.00165   0.00263
  85        3PY         0.00352   0.00105   0.00027   0.00037   0.00023
  86        3PZ         0.00463   0.00156   0.00014   0.00052  -0.00137
  87 11  C  1S          0.00273   0.00039  -0.00053   0.01577  -0.02248
  88        2S         -0.00857  -0.00079   0.00103  -0.03425   0.05246
  89        3S          0.01601   0.00681   0.00481  -0.13332   0.16158
  90        4PX         0.08666   0.02974   0.00128   0.06735  -0.08502
  91        4PY        -0.07983  -0.02406  -0.00484   0.00622  -0.01539
  92        4PZ        -0.04535  -0.01878  -0.00581   0.07835  -0.09883
  93        5PX         0.01901   0.00747  -0.00154   0.05602  -0.06275
  94        5PY        -0.02902  -0.00725  -0.00164  -0.01240   0.01899
  95        5PZ        -0.01402  -0.00547  -0.00223   0.07787  -0.09976
  96        6D 0       -0.01001  -0.00384  -0.00059  -0.00070   0.00011
  97        6D+1        0.00468   0.00172   0.00044  -0.00148   0.00194
  98        6D-1       -0.00788  -0.00257  -0.00045   0.00105  -0.00181
  99        6D+2       -0.00026   0.00015   0.00003  -0.00052   0.00053
 100        6D-2       -0.00433  -0.00116  -0.00041   0.00134  -0.00253
 101 12  H  1S         -0.11060  -0.03907  -0.00696   0.01819  -0.02265
 102        2S         -0.06742  -0.02439  -0.00556   0.02601  -0.02730
 103        3PX        -0.00128  -0.00063  -0.00018   0.00280  -0.00425
 104        3PY        -0.00047  -0.00004   0.00002   0.00063  -0.00145
 105        3PZ         0.00108   0.00012  -0.00008   0.00153  -0.00264
 106 13  H  1S          0.02306   0.01110  -0.00012   0.02049  -0.03100
 107        2S          0.01276   0.00469  -0.00040   0.03848  -0.06260
 108        3PX         0.00331   0.00117   0.00013   0.00178  -0.00190
 109        3PY        -0.00455  -0.00151  -0.00026   0.00028  -0.00045
 110        3PZ        -0.00038  -0.00012  -0.00011   0.00303  -0.00407
 111 14  H  1S          0.09566   0.03063   0.00513   0.00672   0.00416
 112        2S          0.05645   0.01717   0.00258   0.00403   0.00243
 113        3PX         0.00254   0.00091   0.00014   0.00098  -0.00122
 114        3PY         0.00228   0.00054   0.00003   0.00103  -0.00135
 115        3PZ        -0.00252  -0.00115  -0.00034   0.00164  -0.00247
 116 15  C  1S          0.01605   0.00496   0.00127  -0.01099   0.01575
 117        2S         -0.04173  -0.01035  -0.00254   0.02192  -0.02649
 118        3S         -0.07547  -0.03174  -0.00881   0.05318  -0.06533
 119        4PX        -0.11498  -0.04336  -0.00465  -0.05018   0.05798
 120        4PY         0.18292   0.05665   0.01217  -0.01887   0.03821
 121        4PZ         0.10155   0.04107   0.01067  -0.05890   0.07494
 122        5PX        -0.03808  -0.01141  -0.00058   0.03402  -0.03176
 123        5PY         0.08589   0.02931   0.00539   0.01873  -0.00145
 124        5PZ         0.02457   0.00880   0.00202   0.01456  -0.02299
 125        6D 0       -0.00489  -0.00187  -0.00016  -0.00514   0.00735
 126        6D+1       -0.00161  -0.00004   0.00030  -0.01045   0.01419
 127        6D-1        0.00493   0.00291   0.00081  -0.00740   0.01208
 128        6D+2        0.00166  -0.00006   0.00012  -0.00793   0.01065
 129        6D-2       -0.02128  -0.00815  -0.00154  -0.00466   0.00474
 130 16  H  1S         -0.09070  -0.04176  -0.00920   0.04645  -0.06684
 131        2S         -0.04881  -0.02504  -0.00506   0.01004  -0.03700
 132        3PX        -0.00324  -0.00119  -0.00019  -0.00297   0.00316
 133        3PY         0.00659   0.00241   0.00051  -0.00011   0.00002
 134        3PZ        -0.00030  -0.00042  -0.00001  -0.00113   0.00071
 135 17  H  1S          0.20742   0.07559   0.01275   0.04213  -0.04009
 136        2S          0.12286   0.04994   0.01129   0.02644  -0.03197
 137        3PX         0.00410   0.00126   0.00029  -0.00086   0.00100
 138        3PY        -0.00131  -0.00079  -0.00004  -0.00118   0.00117
 139        3PZ         0.00078   0.00073   0.00019  -0.00276   0.00450
 140 18  C  1S          0.01161  -0.00082  -0.00322  -0.03036  -0.00077
 141        2S         -0.02714   0.00168   0.00761   0.07642   0.00358
 142        3S         -0.03205   0.00717   0.01192   0.08738   0.03058
 143        4PX        -0.09495  -0.09000  -0.04008  -0.09875  -0.05194
 144        4PY         0.05592   0.01781   0.01046   0.04362  -0.01226
 145        4PZ         0.11506   0.03943   0.00499  -0.08924   0.08259
 146        5PX        -0.05122  -0.04305  -0.02589  -0.02147  -0.08563
 147        5PY        -0.00833   0.01680  -0.00155   0.08703   0.01183
 148        5PZ         0.04502   0.01497   0.00648  -0.00719   0.04348
 149        6D 0        0.00734   0.00077  -0.00003  -0.01691   0.01721
 150        6D+1        0.00106   0.00108  -0.00008  -0.00532   0.00724
 151        6D-1        0.00581   0.00320   0.00021   0.00211  -0.00256
 152        6D+2        0.01362   0.00478   0.00186   0.00607  -0.00817
 153        6D-2       -0.00443  -0.00453  -0.00071   0.00117  -0.00786
 154 19  H  1S          0.07440   0.01068  -0.00315  -0.10607   0.09271
 155        2S          0.04914   0.00390  -0.00288  -0.12902   0.08058
 156        3PX        -0.00380  -0.00292  -0.00096  -0.00205  -0.00260
 157        3PY         0.00239   0.00039   0.00064   0.00179  -0.00302
 158        3PZ         0.00069   0.00105   0.00025  -0.00052   0.00135
 159 20  H  1S         -0.11174  -0.03293  -0.01290   0.01242  -0.00681
 160        2S         -0.08370  -0.01599  -0.01517   0.02499   0.00581
 161        3PX        -0.00198  -0.00240  -0.00082  -0.00425   0.00077
 162        3PY        -0.00270  -0.00085  -0.00010   0.00048   0.00001
 163        3PZ         0.00186   0.00066   0.00003  -0.00305   0.00313
 164 21  C  1S         -0.00951  -0.00720  -0.00228  -0.02668   0.01094
 165        2S          0.02332   0.01776   0.00659   0.06237  -0.03023
 166        3S          0.04206   0.02112   0.00869   0.11386  -0.06377
 167        4PX         0.09462   0.09265   0.02996   0.12063  -0.03960
 168        4PY        -0.07802   0.00746  -0.02156   0.00380   0.03672
 169        4PZ        -0.01632  -0.02915  -0.00491  -0.08930  -0.06193
 170        5PX         0.07170   0.03921   0.01563   0.02512  -0.07549
 171        5PY        -0.01144  -0.01250   0.00340  -0.08365   0.02814
 172        5PZ         0.00203  -0.00156  -0.00277  -0.05544  -0.04364
 173        6D 0        0.00451  -0.00269  -0.00035  -0.01105  -0.00626
 174        6D+1        0.00298   0.00658   0.00181   0.01625   0.01360
 175        6D-1       -0.00443   0.00491  -0.00326   0.00910   0.00528
 176        6D+2        0.00376   0.00213   0.00267   0.00616   0.00474
 177        6D-2       -0.00089  -0.00238  -0.00131  -0.00339   0.00153
 178 22  H  1S         -0.00219  -0.07535  -0.00286  -0.12752  -0.07159
 179        2S          0.00885  -0.05516   0.00264  -0.15164  -0.05552
 180        3PX         0.00244   0.00108   0.00087   0.00098  -0.00280
 181        3PY        -0.00334  -0.00129  -0.00160  -0.00179  -0.00113
 182        3PZ        -0.00052   0.00086   0.00006  -0.00163  -0.00216
 183 23  H  1S         -0.07623   0.00329  -0.02825   0.01258   0.00761
 184        2S         -0.05206   0.00599  -0.02749   0.03624   0.00907
 185        3PX         0.00186   0.00303   0.00094   0.00561   0.00044
 186        3PY         0.00153   0.00073   0.00041   0.00117   0.00131
 187        3PZ         0.00030  -0.00064   0.00035  -0.00227  -0.00176
 188 24  C  1S          0.01282  -0.03688  -0.00274  -0.01019  -0.00509
 189        2S         -0.02545   0.07737   0.00437   0.01479   0.01152
 190        3S         -0.06276   0.16093   0.02678   0.09976  -0.00436
 191        4PX         0.05724  -0.13953  -0.03592   0.11746   0.07456
 192        4PY        -0.01638  -0.03004  -0.13804  -0.00162   0.00532
 193        4PZ        -0.05619   0.14690   0.04126  -0.04830  -0.04758
 194        5PX         0.04350  -0.07787  -0.02115  -0.00887  -0.05209
 195        5PY        -0.00009  -0.01905  -0.04187  -0.01705  -0.01736
 196        5PZ        -0.04129   0.09905   0.02198   0.02877   0.00668
 197        6D 0       -0.00031   0.00312   0.00080   0.00251   0.00467
 198        6D+1        0.00174  -0.00588   0.00081   0.01120   0.01092
 199        6D-1        0.00307  -0.00572   0.00290  -0.00650  -0.00584
 200        6D+2        0.00302  -0.00221   0.00871  -0.01390  -0.01329
 201        6D-2       -0.00135   0.00359  -0.01066  -0.00145  -0.00002
 202 25  H  1S          0.02459  -0.03959   0.01636   0.03625   0.04296
 203        2S          0.01764  -0.03159   0.01048   0.01685   0.02446
 204        3PX         0.00132  -0.00363  -0.00089   0.00398   0.00328
 205        3PY        -0.00075  -0.00041  -0.00418   0.00191   0.00183
 206        3PZ        -0.00064   0.00259   0.00222  -0.00086  -0.00134
 207 26  C  1S          0.00430  -0.00161   0.01465  -0.01485  -0.01095
 208        2S         -0.00942   0.00458  -0.03398   0.03390   0.02506
 209        3S         -0.01738  -0.02109  -0.07756   0.10110   0.07503
 210        4PX        -0.02439   0.04700   0.03486  -0.00099  -0.00631
 211        4PY         0.02468   0.01326   0.15234  -0.06510  -0.05539
 212        4PZ         0.03505  -0.06660  -0.03395   0.00714   0.00661
 213        5PX        -0.00949   0.01991   0.02556  -0.00286  -0.00931
 214        5PY         0.00701   0.02447   0.09428  -0.02580  -0.05588
 215        5PZ         0.02085  -0.04112  -0.01877  -0.04468  -0.01299
 216        6D 0        0.00029  -0.00033   0.00111   0.00036   0.00065
 217        6D+1        0.00324  -0.00568  -0.00094   0.00101   0.00152
 218        6D-1        0.00202  -0.00456  -0.00125   0.00194   0.00188
 219        6D+2       -0.00133   0.00382   0.00395  -0.00326  -0.00309
 220        6D-2       -0.00245   0.00310  -0.00277   0.00050   0.00111
 221 27  H  1S          0.02703  -0.04241   0.01110   0.00889   0.00556
 222        2S          0.01783  -0.01866   0.01447   0.01537   0.01435
 223        3PX        -0.00120   0.00261   0.00048  -0.00029  -0.00033
 224        3PY         0.00101   0.00028   0.00400  -0.00278  -0.00211
 225        3PZ        -0.00058  -0.00034  -0.00210   0.00060   0.00070
 226 28  H  1S          0.01781  -0.00983   0.04425  -0.02318  -0.01680
 227        2S          0.01695  -0.01530   0.02171  -0.04144  -0.02197
 228        3PX        -0.00085   0.00240   0.00435  -0.00128  -0.00061
 229        3PY         0.00066   0.00003   0.00334  -0.00161  -0.00117
 230        3PZ         0.00171  -0.00274  -0.00065   0.00072   0.00023
 231 29  H  1S         -0.04143   0.07898   0.03964  -0.00621  -0.00954
 232        2S         -0.01061   0.03520   0.02772  -0.09366  -0.02254
 233        3PX         0.00146  -0.00216  -0.00108  -0.00046  -0.00169
 234        3PY         0.00004   0.00151   0.00435  -0.00041  -0.00026
 235        3PZ        -0.00007   0.00052   0.00031   0.00005   0.00102
 236 30  C  1S         -0.00728   0.01046  -0.00027   0.02081   0.02164
 237        2S          0.01153  -0.01964  -0.00073  -0.03992  -0.04491
 238        3S          0.05464  -0.06330   0.00835  -0.21640  -0.18565
 239        4PX        -0.04140   0.20890  -0.02013  -0.12454  -0.10613
 240        4PY        -0.01572  -0.01770   0.27792   0.00467   0.00126
 241        4PZ         0.04905  -0.04482  -0.07059   0.08511   0.06536
 242        5PX        -0.01371   0.08727  -0.01741  -0.10025  -0.06035
 243        5PY        -0.00731  -0.02280   0.13806   0.00569  -0.01401
 244        5PZ         0.00873  -0.00487  -0.04295   0.11557   0.10412
 245        6D 0        0.00161   0.00059   0.00347  -0.00057  -0.00049
 246        6D+1        0.00356  -0.00969   0.00075   0.00479   0.00387
 247        6D-1        0.00116   0.00161  -0.00017   0.00107   0.00065
 248        6D+2       -0.00503   0.01054   0.01131  -0.00082  -0.00007
[...]
 607,-0.00001512,-0.00010019,-0.00002231,0.00326691,0.01484432,-0.00359
 210,-0.00046534,0.00197084,0.00236605,-0.00031148,0.00003724,-0.000105
 96,0.00004987,-0.00005350,-0.00009191,0.00000408,0.00016346,0.00015438
 ,0.00305768,-0.00072996,0.00079783,0.00035734,0.00057803,0.00046493,-0
 .00013125,0.00064839,-0.00096401,-0.01744493,-0.03712605,0.01154191,-0
 .00812953,0.00095377,-0.00010180,0.00225680,0.00029330,0.00012739,-0.0
 7538763,-0.21654463,0.06091486,0.00501848,0.01540680,-0.00409194,0.086
 70821,0.00007025,-0.00000816,-0.00001124,0.00019125,0.00047370,-0.0002
 6769,-0.00003486,-0.00004490,-0.00000132,0.00000538,-0.00000328,-0.000
 00820,-0.00000260,-0.00000069,0.00000432,0.00000170,-0.00000004,-0.000
 00259,-0.00000268,0.00000235,0.00000343,-0.00000147,-0.00000371,0.0000
 2939,0.00000803,-0.00000396,-0.00000511,0.00000038,-0.00000007,-0.0000
 0374,0.00000462,-0.00000193,0.00000547,-0.00000205,0.00000314,-0.00000
 248,0.00000193,-0.00000080,0.00000087,-0.00000318,0.00000135,-0.000000
 83,-0.00000200,0.00000583,-0.00000716,0.00000877,-0.00000438,0.0000011
 4,-0.00000641,-0.00000443,-0.00000611,-0.00001443,0.00015725,-0.000009
 85,-0.00001461,0.00001552,0.00001316,0.00001977,-0.00001249,-0.0000094
 1,-0.00020209,-0.00006658,0.00005029,0.00004178,0.00004596,0.00011178,
 -0.00009073,0.00004688,-0.00005450,-0.00196875,0.00087379,0.00103606,0
 .00113346,0.00021319,-0.00035239,0.00043309,0.00008931,-0.00009571,-0.
 00017800,0.00014088,-0.00004665,0.00001879,-0.00020319,0.00015381,0.00
 004759,0.00000595,0.00003898,-0.00684762,-0.02242496,0.00677976,0.0016
 9640,-0.00241202,-0.00395959,-0.00008819,-0.00006579,-0.00028445,-0.00
 008038,-0.00000737,-0.00001432,0.00013745,-0.00003076,0.00012636,0.000
 48177,0.00051188,-0.00014641,-0.00001639,0.00012732,-0.00010851,-0.000
 39441,-0.00009363,-0.00036654,0.00461117,0.00512404,-0.00140228,0.0011
 4211,0.00101595,0.00022151,-0.00048869,0.00081922,-0.00006143,-0.21611
 450,-0.55294888,0.16817729,-0.00373393,-0.00551970,-0.00244367,0.22026
 575,0.57216096,0.00002908,0.00000147,-0.00001114,-0.00036858,0.0002687
 6,-0.00009024,0.00003888,-0.00004301,-0.00004695,-0.00000012,-0.000000
 46,-0.00000143,-0.00000152,-0.00000245,-0.00000037,0.00000022,0.000001
 47,-0.00000058,0.00000341,0.00000061,0.00000133,0.00000760,-0.00000090
 ,0.00001154,0.00000195,-0.00000020,-0.00000350,-0.00000158,0.00000015,
 -0.00000025,-0.00000086,-0.00000004,-0.00000186,-0.00000054,-0.0000002
 7,-0.00000014,0.00000026,0.00000069,-0.00000016,-0.00000024,-0.0000006
 0,-0.00000034,0.00000404,0.00000499,0.00000297,-0.00000093,-0.00000018
 ,0.00000059,0.00000029,0.00000148,-0.00000293,-0.00000281,0.00008513,-
 0.00001366,-0.00001083,0.00000718,0.00000340,0.00001628,-0.00001780,-0
 .00001148,0.00000136,-0.00019357,-0.00003254,0.00003865,0.00005219,0.0
 0008682,-0.00005528,0.00005865,-0.00005383,-0.00090873,0.00020805,0.00
 118227,0.00038257,0.00048927,-0.00001113,-0.00004785,0.00016998,0.0000
 8653,-0.00001029,-0.00014138,-0.00015663,0.00003023,0.00009176,-0.0001
 5327,-0.00001332,-0.00003736,0.00005357,-0.00875117,-0.02718183,0.0058
 6388,0.00206077,-0.00397470,-0.00322025,0.00006354,-0.00008243,-0.0002
 5706,-0.00006705,0.00003648,-0.00001969,0.00013717,0.00015193,-0.00003
 835,-0.00035647,-0.00132079,0.00078784,0.00009664,0.00009511,-0.000018
 14,0.00002872,0.00011253,0.00024607,-0.00081796,-0.00001958,-0.0011443
 7,0.00020891,-0.00027706,0.00111187,0.00032232,0.00029921,0.00000160,0
 .05893224,0.16343466,-0.04611584,0.01574944,0.03443451,-0.00635267,-0.
 06661956,-0.16755809,0.04646660,0.00002311,0.00008351,0.00004646,0.001
 08040,-0.00072794,-0.00165647,-0.00009013,0.00035562,-0.00045593,-0.00
 001263,-0.00000383,0.00000887,0.00000612,-0.00000331,-0.00000164,-0.00
 000389,0.00000390,0.00000217,0.00000943,0.00000060,-0.00000749,0.00006
 191,0.00001152,-0.00001587,0.00000744,-0.00000363,-0.00000500,-0.00001
 537,0.00001988,0.00001597,0.00000021,0.00001633,0.00001912,0.00000251,
 0.00000395,-0.00000599,-0.00000157,0.00000100,-0.00000352,-0.00000390,
 0.00000786,0.00000617,0.00003150,-0.00003737,-0.00000970,0.00001956,-0
 .00001279,-0.00000225,-0.00002364,-0.00003468,0.00001750,0.00003665,0.
 00009162,0.00000076,-0.00002360,0.00004359,0.00000510,0.00001103,-0.00
 003519,-0.00000893,-0.00054181,-0.00095694,-0.00013454,0.00018115,0.00
 009923,0.00032233,-0.00009382,-0.00003433,-0.00003633,-0.01996586,0.00
 722057,-0.03287375,0.00251958,0.00050062,-0.00025566,-0.00636854,-0.00
 010967,0.00183122,0.00000785,0.00012558,0.00019125,0.00011013,-0.00017
 355,0.00014838,-0.00063797,0.00023952,-0.00205534,-0.09799619,0.006031
 88,-0.04031791,0.00332737,-0.00174055,0.00879003,-0.21301897,0.0018538
 3,0.00833998,-0.01779426,-0.00086926,0.00580319,-0.01865468,0.00544110
 ,0.00017746,-0.01287963,0.00470758,0.00600456,0.00143705,0.00047251,0.
 00004852,0.00125054,-0.00080798,-0.00069317,-0.00025302,-0.00039022,-0
 .00113486,-0.00020508,0.00001921,-0.00003977,-0.00006843,-0.00015401,-
 0.00046656,0.00676845,-0.00357278,0.00829360,-0.00089996,0.00254505,0.
 00222874,0.00005322,-0.00002141,-0.00063621,0.47800085,-0.00006059,0.0
 0005416,0.00000387,-0.00129216,0.00002433,0.00036017,0.00101738,0.0008
 0586,-0.00029719,-0.00001010,0.00000579,0.00002009,0.00000343,-0.00000
 319,-0.00001014,-0.00000557,0.00000221,0.00000129,0.00001450,-0.000001
 79,-0.00001269,0.00001201,-0.00000211,-0.00003697,-0.00001228,0.000002
 92,0.00000270,-0.00000285,0.00000287,0.00001144,-0.00000900,0.00001058
 ,-0.00001112,0.00000177,0.00000280,0.00000275,-0.00000224,0.00000237,-
 0.00000311,0.00000491,-0.00000394,0.00000258,0.00000253,-0.00002662,0.
 00005659,-0.00000750,0.00000547,-0.00001142,0.00000260,-0.00000381,-0.
 00000090,0.00000541,-0.00003364,-0.00009133,-0.00002992,0.00001240,-0.
 00000685,0.00005161,-0.00002075,-0.00002123,0.00024400,-0.00067805,0.0
 0043526,0.00030765,-0.00019101,0.00027343,-0.00004267,0.00006223,-0.00
 017715,0.00064958,-0.00070044,-0.00050466,-0.00062184,0.00058992,-0.00
 100833,0.00010793,0.00002054,0.00005821,-0.00014107,0.00016462,-0.0002
 5143,0.00018585,0.00000863,0.00005722,-0.00000080,0.00035537,0.0000653
 4,0.00355149,-0.09700601,0.01827306,0.01667539,-0.00196797,0.03275463,
 0.00415102,-0.09256611,0.00153868,0.00868407,-0.00145882,-0.00196998,-
 0.03502072,0.00627226,0.00074080,0.03013638,-0.00107425,-0.00260176,0.
 00167983,-0.00372983,-0.00458558,0.00057775,0.00167315,0.00100511,-0.0
 0045797,0.00186495,0.00211727,0.00018500,0.00002283,-0.00021639,-0.000
 19304,-0.00014065,0.00029654,-0.01101817,0.00475290,-0.02602430,0.0023
 7912,-0.00393650,-0.00443847,-0.00083520,0.00149509,0.00018683,0.07245
 092,1.07914482,-0.00002558,-0.00007164,-0.00000335,0.00069733,-0.00117
 762,-0.00018167,0.00017973,0.00015004,0.00032304,0.00001421,0.00000144
 ,-0.00000444,-0.00000493,0.00000246,0.00000060,0.00000129,-0.00000382,
 -0.00000321,-0.00000732,-0.00000059,0.00000627,-0.00004563,0.00000372,
 0.00001918,-0.00000267,0.00000345,0.00000145,0.00001029,-0.00001390,-0
 .00001015,0.00000438,-0.00001240,-0.00000770,-0.00000206,-0.00000081,0
 .00000370,0.00000157,-0.00000206,0.00000293,0.00000292,-0.00000437,-0.
 00000393,-0.00002593,0.00001115,0.00000409,-0.00000981,0.00000772,-0.0
 0000021,0.00001643,0.00001629,-0.00001096,-0.00001662,-0.00013323,-0.0
 0007554,0.00004194,-0.00004289,-0.00001223,0.00003114,0.00000868,-0.00
 000300,0.00018313,0.00083152,-0.00056967,-0.00013817,-0.00060513,0.000
 12985,-0.00023544,0.00003505,0.00000686,-0.00621079,0.00159919,0.00354
 919,0.00144929,-0.00019396,0.00070189,0.00259743,0.00023128,0.00025826
 ,-0.00011192,-0.00018390,-0.00008094,-0.00001672,0.00015697,0.00000972
 ,0.00049537,-0.00008280,0.00065939,-0.03993137,0.02210429,-0.18638000,
 -0.00885258,-0.00050278,-0.01700139,0.01573128,0.00083516,-0.08809902,
 -0.03544459,0.00043280,0.00732935,0.01280864,-0.00239043,-0.00182639,0
 .02703031,-0.00077682,-0.00046932,0.00124436,-0.00396752,-0.00349330,-
 0.00113555,0.00123328,0.00108055,-0.00051060,0.00165807,0.00146120,-0.
 00001619,0.00016965,-0.00028255,-0.00043323,0.00028042,0.00060166,-0.0
 0848022,0.00030189,-0.02827845,0.00186950,-0.00325868,-0.00147413,-0.0
 0026535,0.00128783,0.00206321,-0.15902483,0.06175159,0.65869682,-0.000
 01522,-0.00001579,0.00000450,0.00004124,-0.00018632,0.00025535,-0.0002
 0683,0.00021393,0.00010034,0.00000540,0.00000150,-0.00000165,-0.000000
 92,0.00000268,0.00000200,0.00000126,-0.00000282,0.00000045,-0.00000578
 ,-0.00000072,0.00000102,-0.00001462,0.00000205,0.00000062,-0.00000044,
 0.00000131,0.00000191,0.00000258,-0.00000425,-0.00000215,0.00000207,-0
 .00000436,0.00000248,-0.00000029,-0.00000131,0.00000010,0.00000062,-0.
 00000086,0.00000084,-0.00000015,0.00000044,-0.00000078,-0.00000571,0.0
 0000249,-0.00001116,-0.00000127,0.00000152,0.00000065,0.00000205,0.000
 00372,0.00000091,0.00000500,-0.00007843,0.00000139,0.00001309,-0.00001
 397,-0.00000696,-0.00001032,0.00001316,0.00000890,0.00008924,0.0002789
 7,-0.00012576,-0.00005267,-0.00015162,-0.00005549,-0.00003361,-0.00002
 900,0.00004400,0.00145869,0.00147700,-0.00015451,-0.00015018,-0.000599
 90,0.00013308,0.00001410,-0.00012721,-0.00002986,0.00001692,-0.0000854
 8,0.00011156,0.00000530,0.00001544,0.00001478,-0.00000161,-0.00004986,
 0.00005177,0.00480023,0.01723979,-0.00957656,-0.00112416,0.00026396,-0
 .00382274,-0.01763660,-0.03393222,0.01589296,0.00231379,-0.00004642,-0
 .00049354,-0.00787785,0.00157333,0.00063192,0.00269215,-0.00080162,-0.
 00052284,0.00020722,0.00018986,-0.00066672,0.00000469,0.00100566,0.000
 41570,-0.00031171,0.00008050,0.00001734,-0.00003981,0.00001873,-0.0001
 9069,0.00006741,0.00000451,0.00009144,0.00015060,-0.00033781,0.0009117
 8,-0.00015602,0.00008936,0.00017429,0.00011292,-0.00032998,0.00013936,
 -0.08185273,-0.20907798,0.10673227,0.09444181,0.00008052,0.00000639,-0
 .00003445,0.00040143,-0.00007148,-0.00024251,0.00013761,-0.00049250,0.
 00002998,0.00000469,0.00000042,-0.00001224,-0.00000615,-0.00001235,0.0
 0000086,0.00000057,0.00000355,-0.00000484,0.00000714,0.00000512,0.0000
 1120,-0.00000158,-0.00001279,0.00004416,0.00000699,-0.00000347,-0.0000
 1110,0.00000301,0.00000334,-0.00000570,0.00000210,0.00000138,-0.000001
 42,-0.00000094,0.00000270,-0.00000309,0.00000096,0.00000097,0.00000107
 ,-0.00000370,-0.00000193,0.00000021,0.00000551,0.00000497,0.00000442,0
 .00000474,-0.00000228,0.00000251,-0.00000339,-0.00000118,-0.00000920,-
 0.00003279,0.00009777,0.00007056,-0.00000592,0.00001250,-0.00000490,0.
 00000509,-0.00002053,-0.00001546,-0.00019652,-0.00025975,-0.00011325,0
 .00001273,0.00030368,0.00007059,0.00004473,0.00007808,-0.00001335,-0.0
 0107348,0.00055338,-0.00008603,0.00070978,0.00005544,0.00013730,0.0001
 7736,0.00031082,-0.00022027,-0.00012201,0.00000526,-0.00009281,-0.0000
 2498,-0.00001491,-0.00000156,0.00004068,-0.00000841,0.00006345,-0.0001
 2876,-0.00215122,-0.00053165,0.00018609,0.00113412,0.00074010,0.005322
 51,0.00591060,-0.00409281,-0.00075232,0.00051282,-0.00013902,0.0014261
 0,0.00090642,-0.00026828,0.00014095,0.00122776,-0.00016830,-0.00008431
 ,0.00002612,0.00013359,-0.00023929,0.00003448,0.00039853,-0.00003333,0
 .00002044,0.00001800,0.00001150,-0.00016634,-0.00001097,-0.00001647,-0
 .00001677,0.00000363,0.00032829,0.00097418,-0.00049039,0.00000746,0.00
 002165,0.00004524,-0.00027501,0.00028218,0.00034590,-0.20713785,-0.476
 74203,0.23461408,0.21379770,0.48903515,0.00000296,-0.00000126,-0.00000
 940,-0.00032560,0.00003186,0.00024444,-0.00002311,0.00012650,-0.000010
 36,0.,0.00000282,-0.00000055,-0.00000149,-0.00000402,-0.00000105,-0.00
 000034,0.00000073,-0.00000024,0.00000300,0.00000056,0.00000221,0.00000
 142,-0.00000125,0.00000300,-0.00000051,0.00000078,-0.00000236,0.000000
 22,0.00000018,-0.00000021,-0.00000094,0.00000031,-0.00000166,0.0000006
 7,-0.00000177,-0.00000004,-0.00000052,0.00000035,0.00000003,0.00000004
 ,-0.00000075,0.00000029,0.00000316,0.00000109,-0.00000417,-0.00000307,
 0.00000125,0.00000148,0.00000148,0.00000276,0.00000141,0.00000293,-0.0
 0004157,0.00009136,0.00000787,-0.00000589,-0.00001123,-0.00002000,0.00
 000977,0.00000540,-0.00002652,-0.00016947,-0.00009869,0.00004113,0.000
 11016,-0.00005795,0.00011238,-0.00003177,0.00006004,0.00223002,-0.0000
 2400,0.00168969,-0.00107974,-0.00054286,0.00025673,0.00015831,-0.00048
 457,0.00002315,0.00015907,-0.00008103,0.00019588,-0.00001292,0.0000394
 5,-0.00006371,-0.00000805,-0.00005219,0.00005775,0.01127085,0.03073113
 ,-0.01644933,-0.00323314,0.00050876,-0.00615493,-0.00064912,0.00066010
 ,-0.00108785,-0.00025549,-0.00060312,0.00056886,0.00012567,0.00014997,
 0.00104208,-0.00030433,0.00092452,-0.00004704,-0.00007229,-0.00019058,
 0.00011005,0.00020208,-0.00016676,-0.00007575,0.00000725,-0.00015109,-
 0.00030942,-0.00018475,-0.00004620,0.00015137,0.00008095,-0.00003707,-
 0.00002674,0.00068442,0.00077726,0.00223506,-0.00041478,-0.00023726,0.
 00040998,0.00006365,-0.00086400,-0.00037322,0.10763263,0.23947088,-0.1
 1564363,-0.10546413,-0.24728185,0.12154234,0.00008355,-0.00010689,-0.0
 0001194,-0.00003237,0.00023917,0.00039707,-0.00185960,0.00023608,0.000
 26656,0.00002738,0.00000084,-0.00001615,-0.00000735,0.00000592,0.00001
 065,0.00000764,-0.00000362,-0.00000264,-0.00002824,0.00000108,0.000011
 55,-0.00003559,0.00000603,0.00005369,0.00001406,-0.00000335,-0.0000053
 7,0.00000541,-0.00001755,-0.00001379,0.00001108,-0.00001942,0.00001535
 ,-0.00000529,-0.00000126,0.00000093,0.00000410,-0.00000476,0.00000405,
 -0.00000292,0.00000587,-0.00000695,-0.00001591,0.00003298,-0.00006078,
 0.00001035,-0.00000492,0.00000523,-0.00000598,0.00000306,-0.00000712,-
 0.00007866,0.00008322,0.00011003,0.00005360,-0.00006993,-0.00000835,0.
 00001384,0.00002777,-0.00000415,-0.00047632,0.00088887,-0.00022053,0.0
 0005357,0.00021247,-0.00016165,0.00007123,-0.00011647,0.00006998,0.000
 69734,-0.00128799,-0.00034516,0.00000661,0.00006488,-0.00000213,0.0000
 4847,0.00023563,0.00005252,0.00001298,-0.00003082,-0.00003118,0.000061
 90,0.00001014,0.00011109,-0.00000805,0.00000084,0.00003577,0.00256131,
 -0.01445135,-0.01010663,0.00078511,0.00033356,0.00096714,-0.01074295,0
 .03136711,0.02409912,0.00193690,0.00028931,-0.00064540,0.00245584,-0.0
 0048245,0.00041013,-0.00823291,-0.00123234,-0.00113281,-0.00064751,0.0
 0153817,0.00174614,0.00011552,-0.00025398,-0.00035402,0.00001519,-0.00
 020637,-0.00036390,0.00007864,-0.00003327,0.00007529,0.00009405,-0.000
 00339,-0.00002661,-0.00176566,0.00111797,-0.00319867,0.00062098,-0.000
 57583,-0.00083127,-0.00013512,0.00031792,0.00037795,-0.02354036,0.1157
 5953,0.08980531,0.00305011,-0.01272741,-0.01071133,0.03472404,-0.00000
 436,-0.00003326,0.00001737,0.00078159,-0.00033061,0.00041728,-0.000377
 13,-0.00000836,0.00027292,-0.00000058,-0.00000480,-0.00000005,0.000003
 75,0.00001521,0.00000572,0.00000238,-0.00000394,0.00000279,-0.00001583
 ,-0.00000287,-0.00000491,-0.00000997,-0.00000394,-0.00001263,0.0000010
 0,-0.00000008,0.00000807,0.00000175,-0.00000651,-0.00000388,0.00000317
 ,-0.00000741,0.00001039,-0.00000153,-0.00000226,0.00000042,0.00000162,
 -0.00000249,0.00000055,0.00000017,0.00000421,-0.00000220,-0.00000876,0
 .00001449,-0.00003406,0.00000301,-0.00000307,0.00000065,-0.00000422,0.
 00000059,0.00000519,-0.00000867,-0.00003477,-0.00008834,0.00001485,-0.
 00000201,0.00001495,-0.00002164,0.00002175,0.00001874,0.00087915,0.000
 54886,0.00046119,-0.00011794,-0.00036462,-0.00006090,-0.00004883,-0.00
 008165,-0.00000003,0.00027756,-0.00042863,-0.00082317,0.00005541,0.000
 02623,-0.00002022,-0.00024986,0.00010185,0.00010477,0.00000799,-0.0000
 1953,-0.00000396,0.00002001,-0.00001270,0.00005391,-0.00003808,-0.0000
 0648,-0.00008970,-0.00178042,0.00697937,0.00805735,-0.00053814,0.00093
 892,-0.00036374,-0.00299691,0.00081064,0.00211270,0.00041361,-0.000130
 64,0.00010882,0.00020260,0.00099988,0.00027260,0.00022932,0.00116810,0
 .00049300,-0.00000414,0.00005858,-0.00036861,-0.00027877,0.00039967,0.
 00022864,-0.00017671,-0.00023470,0.00017305,0.00001248,-0.00000839,-0.
 00005941,0.00002116,-0.00005785,-0.00005137,0.00071963,0.00075981,0.00
 148228,0.00007827,0.00035430,0.00020593,0.00001640,0.00024995,0.000313
 71,0.11448032,-0.41707153,-0.31430271,0.00960032,-0.02155374,-0.022530
 84,-0.12114504,0.42696444,0.00023261,-0.00007846,-0.00005419,0.0008280
 6,0.00019378,0.00121344,-0.00056178,-0.00009964,0.00045227,0.00002536,
 -0.00000379,-0.00002585,-0.00000950,-0.00000105,0.00001395,0.00000810,
 -0.00000075,-0.00000709,-0.00001366,0.00000565,0.00001241,-0.00001410,
 -0.00000906,0.00010687,0.00002948,-0.00001006,-0.00001904,0.00000275,-
 0.00001427,-0.00001654,0.00001832,-0.00002075,0.00002756,-0.00000862,0
 .00000123,-0.00000651,0.00000805,-0.00000445,0.00000428,-0.00001055,0.
 00000883,-0.00000660,-0.00000344,0.00004282,-0.00008113,0.00002353,-0.
 00001284,0.00000719,-0.00002016,-0.00000654,-0.00001096,-0.00008258,0.
 00024208,0.00020439,0.00001272,-0.00003805,-0.00001851,0.00002216,-0.0
 0000847,-0.00001863,-0.00031778,0.00007180,-0.00009948,0.00001695,0.00
 067420,0.00003772,0.00010553,-0.00001609,0.00003459,0.00135009,-0.0009
 8295,-0.00025192,-0.00002696,0.00009813,-0.00001662,0.00006452,0.00012
 859,0.00009531,0.00003243,-0.00002324,-0.00006641,0.00011425,0.0000359
 9,0.00011109,-0.00005652,0.00003024,0.00004032,0.00686628,-0.02621025,
 -0.02066542,0.00095532,-0.00003123,0.00165425,-0.00108066,0.00058947,-
 0.00080360,0.00011134,0.00026647,0.00040680,-0.00002484,-0.00011875,0.
 00007999,0.00014319,0.00038993,0.00076063,-0.00007604,-0.00020549,0.00
 014946,0.00010249,-0.00026187,-0.00016010,-0.00049510,0.00036789,0.000
 53366,0.00009172,0.00002616,-0.00000559,0.00002072,-0.00001769,0.00014
 294,-0.00392672,0.00257639,-0.00549592,0.00076387,-0.00151925,-0.00128
 659,-0.00015332,0.00005283,0.00016194,0.08990772,-0.31720536,-0.232994
 03,-0.00461820,0.01712012,0.01173692,-0.09035703,0.32397773,0.24412275
 \\-0.05688220,0.02639452,0.04775791,-0.02820614,0.04758099,-0.15819623
 ,0.04420679,-0.04873369,0.15557263,0.01622268,0.00511500,-0.03216458,0
 .11046649,0.01241773,0.08270706,-0.10781977,0.04534091,0.07323462,-0.0
 1696823,-0.13639034,-0.02072543,0.10002690,-0.07305621,-0.07356898,-0.
 10836028,0.00277310,-0.06470224,0.03093158,0.12167739,0.02248310,0.015
 68637,-0.07900670,0.00109756,0.10280655,0.06135760,-0.06633704,-0.1161
 9064,0.04003972,-0.06004593,-0.00141737,0.05450712,0.12491478,0.052836
 43,0.01759763,0.10105225,-0.10800359,-0.05689774,-0.02332023,0.0773730
 1,-0.03841273,-0.09462608,-0.03294116,-0.10716009,-0.12075070,0.034683
 57,0.12300667,-0.02464398,0.00151276,-0.01901692,0.12215567,-0.1228586
 2,-0.06032970,0.07662646,0.11502437,0.02081280,0.05060003,0.00517935,0
 .02615053,-0.12236160,0.02398542,0.11318778,-0.02953552,-0.03170461,-0
 .10172504,0.04108105,0.06570507,-0.01980573,0.11982116,0.03721521,0.12
 144173,-0.05471362,0.03568134,-0.09951198,-0.08829003,-0.13354837,-0.0
 0088977,0.02024851,-0.04168029,-0.09628394,0.02715470,0.03232423,0.103
 04630,-0.03977712,-0.08639730,-0.06304393,-0.05033872,0.04733787,-0.02
 424282,0.11573541,0.04649973,0.11263480,-0.03468644,-0.08169927,0.0899
 2313,-0.02503057,0.12555873,0.00265614,-0.00940185,-0.03284610,-0.1156
 0454,0.04058988,-0.06847306,-0.02307289,0.09019294,0.04318668,0.111118
 67,-0.04488070,0.03567552,-0.08837852,-0.08334899,0.07379669,0.0852936
 9,0.08395582,-0.04395943,0.02780976,-0.11381039,-0.04550322,-0.1143795
 5,0.03362960,0.06546529,0.00403781,-0.12298876,-0.04676590,-0.10611663
 ,0.05310284,-0.02716308,0.09613794,0.07453177\\\@
 The archive entry for this job was punched.

 Writing a WFNX file to "VISGIQ_Complex_1_Ligand_0_NN_Cu_oriented.wfx"


     SCHOPENHAUER'S LAW OF ENTROPY
 IF YOU PUT A SPOONFUL OF WINE IN A BARREL FULL
 OF SEWAGE, YOU GET SEWAGE.
 IF YOU PUT A SPOONFUL OF SEWAGE IN A BARREL FULL
 OF WINE, YOU GET SEWAGE.
 Job cpu time:       0 days  1 hours 26 minutes 18.4 seconds.
 Elapsed time:       0 days  1 hours 26 minutes 36.9 seconds.
 File lengths (MBytes):  RWF=    972 Int=      0 D2E=      0 Chk=     16 Scr=      8
 Normal termination of Gaussian 16 at Sat Mar  4 13:05:42 2023.
