 Entering Gaussian System, Link 0=g16
 Initial command:
 /ssoft/spack/external/gaussian/g16-C.01/avx2/g16/l1.exe "/scratch/lcmd/2316179/Gau-2931179.inp" -scrdir="/scratch/lcmd/2316179/"
 Entering Link 1 = /ssoft/spack/external/gaussian/g16-C.01/avx2/g16/l1.exe PID=   2931180.
  
 Copyright (c) 1988-2019, Gaussian, Inc.  All Rights Reserved.
  
 This is part of the Gaussian(R) 16 program.  It is based on
 the Gaussian(R) 09 system (copyright 2009, Gaussian, Inc.),
 the Gaussian(R) 03 system (copyright 2003, Gaussian, Inc.),
 the Gaussian(R) 98 system (copyright 1998, Gaussian, Inc.),
 the Gaussian(R) 94 system (copyright 1995, Gaussian, Inc.),
 the Gaussian 92(TM) system (copyright 1992, Gaussian, Inc.),
 the Gaussian 90(TM) system (copyright 1990, Gaussian, Inc.),
 the Gaussian 88(TM) system (copyright 1988, Gaussian, Inc.),
 the Gaussian 86(TM) system (copyright 1986, Carnegie Mellon
 University), and the Gaussian 82(TM) system (copyright 1983,
 Carnegie Mellon University). Gaussian is a federally registered
 trademark of Gaussian, Inc.
  
 This software contains proprietary and confidential information,
 including trade secrets, belonging to Gaussian, Inc.
  
 This software is provided under written license and may be
 used, copied, transmitted, or stored only in accord with that
 written license.
  
 The following legend is applicable only to US Government
 contracts under FAR:
  
                    RESTRICTED RIGHTS LEGEND
  
 Use, reproduction and disclosure by the US Government is
 subject to restrictions as set forth in subparagraphs (a)
 and (c) of the Commercial Computer Software - Restricted
 Rights clause in FAR 52.227-19.
  
 Gaussian, Inc.
 340 Quinnipiac St., Bldg. 40, Wallingford CT 06492
  
  
 ---------------------------------------------------------------
 Warning -- This program may not be used in any manner that
 competes with the business of Gaussian, Inc. or will provide
 assistance to any competitor of Gaussian, Inc.  The licensee
 of this program is prohibited from giving any competitor of
 Gaussian, Inc. access to this program.  By using this program,
 the user acknowledges that Gaussian, Inc. is engaged in the
 business of creating and licensing software in the field of
 computational chemistry and represents and warrants to the
 licensee that it is not a competitor of Gaussian, Inc. and that
 it will not use this program in any manner prohibited above.
 ---------------------------------------------------------------
  

 Cite this work as:
 Gaussian 16, Revision C.01,
 M. J. Frisch, G. W. Trucks, H. B. Schlegel, G. E. Scuseria, 
 M. A. Robb, J. R. Cheeseman, G. Scalmani, V. Barone, 
 G. A. Petersson, H. Nakatsuji, X. Li, M. Caricato, A. V. Marenich, 
 J. Bloino, B. G. Janesko, R. Gomperts, B. Mennucci, H. P. Hratchian, 
 J. V. Ortiz, A. F. Izmaylov, J. L. Sonnenberg, D. Williams-Young, 
 F. Ding, F. Lipparini, F. Egidi, J. Goings, B. Peng, A. Petrone, 
 T. Henderson, D. Ranasinghe, V. G. Zakrzewski, J. Gao, N. Rega, 
 G. Zheng, W. Liang, M. Hada, M. Ehara, K. Toyota, R. Fukuda, 
 J. Hasegawa, M. Ishida, T. Nakajima, Y. Honda, O. Kitao, H. Nakai, 
 T. Vreven, K. Throssell, J. A. Montgomery, Jr., J. E. Peralta, 
 F. Ogliaro, M. J. Bearpark, J. J. Heyd, E. N. Brothers, K. N. Kudin, 
 V. N. Staroverov, T. A. Keith, R. Kobayashi, J. Normand, 
 K. Raghavachari, A. P. Rendell, J. C. Burant, S. S. Iyengar, 
 J. Tomasi, M. Cossi, J. M. Millam, M. Klene, C. Adamo, R. Cammi, 
 J. W. Ochterski, R. L. Martin, K. Morokuma, O. Farkas, 
 J. B. Foresman, and D. J. Fox, Gaussian, Inc., Wallingford CT, 2019.
 
 ******************************************
 Gaussian 16:  ES64L-G16RevC.01  3-Jul-2019
                 4-Mar-2023 
 ******************************************
 %nprocshared=1
 Will use up to    1 processors via shared memory.
 %mem=8000MB
 %chk=VOLQOC_Complex_2_Ligand_0_NN_Cu_oriented.chk
 ----------------------------------------------------------------------
 #p pop=(regular,nbo,savenbos) freq=noraman def2svp empiricaldispersion
 =gd3bj output=wfx pbe1pbe
 ----------------------------------------------------------------------
 1/10=4,30=1,38=1/1,3;
 2/12=2,17=6,18=5,40=1/2;
 3/5=43,7=101,11=2,25=1,30=1,71=2,74=-13,124=41,140=1/1,2,3;
 4//1;
 5/5=2,38=5,98=1/2;
 8/6=4,10=90,11=11/1;
 11/6=1,8=1,9=11,15=111,16=1/1,2,10;
 10/6=1/2;
 6/28=1,40=1,73=1/1,7;
 7/8=1,10=1,25=1/1,2,3,16;
 1/10=4,30=1/3;
 99/6=200/99;
 Leave Link    1 at Sat Mar  4 11:39:37 2023, MaxMem=  1048576000 cpu:               0.0 elap:               0.1
 (Enter /ssoft/spack/external/gaussian/g16-C.01/avx2/g16/l101.exe)
 ----------------------------------------
 VOLQOC_Complex_2_Ligand_0_NN_Cu_oriented
 ----------------------------------------
 Symbolic Z-matrix:
 Charge =  0 Multiplicity = 1
 O                    -0.92231  -2.1086    2.13047 
 N                     0.04727  -1.98384   0. 
 N                    -1.98215  -0.44719   0. 
 C                    -1.0753   -2.51915   0.75509 
 C                    -1.20719  -4.01078   0.63646 
 C                    -2.06255  -4.7037    1.47632 
 C                    -2.28343  -1.71029   0.3239 
 C                    -2.96209   0.39335  -0.37653 
 C                    -4.28892  -0.04741  -0.45671 
 C                    -3.58436  -2.18226   0.25487 
 C                     0.24229  -2.62971   2.81338 
 C                     0.37368  -1.84016   4.04754 
 H                    -2.63135  -4.17591   2.12565 
 H                    -2.75641   1.27556  -0.58398 
 H                    -3.78196  -3.06178   0.48386 
 H                     0.12356  -3.57002   3.02098 
 H                     1.03351  -2.53116   2.26056 
 H                    -0.44229  -1.89653   4.55169 
 H                     1.09824  -2.18633   4.57394 
 H                     0.54894  -0.92355   3.82465 
 C                    -4.57723  -1.33015  -0.15704 
 H                    -5.45213  -1.63755  -0.22883 
 Br                   -3.33173  -7.01053   2.52178 
 C                    -2.22571  -6.06543   1.33014 
 C                    -1.54281  -6.7345    0.33576 
 H                    -1.65516  -7.63423   0.29895 
 N                     0.48755  -4.02702  -1.06642 
 C                     0.68881  -2.7251   -0.81737 
 C                    -0.66503  -6.06612  -0.47265 
 C                    -0.46402  -4.71385  -0.30204 
 C                     1.26819  -4.72944  -2.07221 
 H                     1.37609  -2.48315  -1.2724 
 H                    -0.21688  -6.49934  -1.14493 
 H                     1.69463  -5.4915   -1.67238 
 H                     0.68952  -5.02242  -2.78008 
 H                     1.93675  -4.13997  -2.42886 
 H                    -4.9635    0.53847  -0.71528 
 
 ITRead=  0  0  0  0  0  0  0  0  0  0  0  0  0  0  0  0  0  0  0  0
 ITRead=  0  0  0  0  0  0  0  0  0  0  0  0  0  0  0  0  0
 MicOpt= -1 -1 -1 -1 -1 -1 -1 -1 -1 -1 -1 -1 -1 -1 -1 -1 -1 -1 -1 -1
 MicOpt= -1 -1 -1 -1 -1 -1 -1 -1 -1 -1 -1 -1 -1 -1 -1 -1 -1
 NAtoms=     37 NQM=       37 NQMF=       0 NMMI=      0 NMMIF=      0
                NMic=       0 NMicF=      0.
                    Isotopes and Nuclear Properties:
 (Nuclear quadrupole moments (NQMom) in fm**2, nuclear magnetic moments (NMagM)
  in nuclear magnetons)

  Atom         1           2           3           4           5           6           7           8           9          10
 IAtWgt=          16          14          14          12          12          12          12          12          12          12
 AtmWgt=  15.9949146  14.0030740  14.0030740  12.0000000  12.0000000  12.0000000  12.0000000  12.0000000  12.0000000  12.0000000
 NucSpn=           0           2           2           0           0           0           0           0           0           0
 AtZEff=  -0.0000000  -0.0000000  -0.0000000  -0.0000000  -0.0000000  -0.0000000  -0.0000000  -0.0000000  -0.0000000  -0.0000000
 NQMom=    0.0000000   2.0440000   2.0440000   0.0000000   0.0000000   0.0000000   0.0000000   0.0000000   0.0000000   0.0000000
 NMagM=    0.0000000   0.4037610   0.4037610   0.0000000   0.0000000   0.0000000   0.0000000   0.0000000   0.0000000   0.0000000
 AtZNuc=   8.0000000   7.0000000   7.0000000   6.0000000   6.0000000   6.0000000   6.0000000   6.0000000   6.0000000   6.0000000

  Atom        11          12          13          14          15          16          17          18          19          20
 IAtWgt=          12          12           1           1           1           1           1           1           1           1
 AtmWgt=  12.0000000  12.0000000   1.0078250   1.0078250   1.0078250   1.0078250   1.0078250   1.0078250   1.0078250   1.0078250
 NucSpn=           0           0           1           1           1           1           1           1           1           1
 AtZEff=  -0.0000000  -0.0000000  -0.0000000  -0.0000000  -0.0000000  -0.0000000  -0.0000000  -0.0000000  -0.0000000  -0.0000000
 NQMom=    0.0000000   0.0000000   0.0000000   0.0000000   0.0000000   0.0000000   0.0000000   0.0000000   0.0000000   0.0000000
 NMagM=    0.0000000   0.0000000   2.7928460   2.7928460   2.7928460   2.7928460   2.7928460   2.7928460   2.7928460   2.7928460
 AtZNuc=   6.0000000   6.0000000   1.0000000   1.0000000   1.0000000   1.0000000   1.0000000   1.0000000   1.0000000   1.0000000

  Atom        21          22          23          24          25          26          27          28          29          30
 IAtWgt=          12           1          79          12          12           1          14          12          12          12
 AtmWgt=  12.0000000   1.0078250  78.9183361  12.0000000  12.0000000   1.0078250  14.0030740  12.0000000  12.0000000  12.0000000
 NucSpn=           0           1           3           0           0           1           2           0           0           0
 AtZEff=  -0.0000000  -0.0000000  -0.0000000  -0.0000000  -0.0000000  -0.0000000  -0.0000000  -0.0000000  -0.0000000  -0.0000000
 NQMom=    0.0000000   0.0000000  31.3000000   0.0000000   0.0000000   0.0000000   2.0440000   0.0000000   0.0000000   0.0000000
 NMagM=    0.0000000   2.7928460   2.1063990   0.0000000   0.0000000   2.7928460   0.4037610   0.0000000   0.0000000   0.0000000
 AtZNuc=   6.0000000   1.0000000  35.0000000   6.0000000   6.0000000   1.0000000   7.0000000   6.0000000   6.0000000   6.0000000

  Atom        31          32          33          34          35          36          37
 IAtWgt=          12           1           1           1           1           1           1
 AtmWgt=  12.0000000   1.0078250   1.0078250   1.0078250   1.0078250   1.0078250   1.0078250
 NucSpn=           0           1           1           1           1           1           1
 AtZEff=  -0.0000000  -0.0000000  -0.0000000  -0.0000000  -0.0000000  -0.0000000  -0.0000000
 NQMom=    0.0000000   0.0000000   0.0000000   0.0000000   0.0000000   0.0000000   0.0000000
 NMagM=    0.0000000   2.7928460   2.7928460   2.7928460   2.7928460   2.7928460   2.7928460
 AtZNuc=   6.0000000   1.0000000   1.0000000   1.0000000   1.0000000   1.0000000   1.0000000
 Leave Link  101 at Sat Mar  4 11:39:37 2023, MaxMem=  1048576000 cpu:               0.1 elap:               0.1
 (Enter /ssoft/spack/external/gaussian/g16-C.01/avx2/g16/l103.exe)

 GradGradGradGradGradGradGradGradGradGradGradGradGradGradGradGradGradGrad
 Berny optimization.
 Initialization pass.
 Trust Radius=3.00D-01 FncErr=1.00D-07 GrdErr=1.00D-07 EigMax=2.50D+02 EigMin=1.00D-04
 Number of steps in this run=      2 maximum allowed number of steps=      2.
 GradGradGradGradGradGradGradGradGradGradGradGradGradGradGradGradGradGrad

 Leave Link  103 at Sat Mar  4 11:39:37 2023, MaxMem=  1048576000 cpu:               0.0 elap:               0.0
 (Enter /ssoft/spack/external/gaussian/g16-C.01/avx2/g16/l202.exe)
                          Input orientation:                          
 ---------------------------------------------------------------------
 Center     Atomic      Atomic             Coordinates (Angstroms)
 Number     Number       Type             X           Y           Z
 ---------------------------------------------------------------------
      1          8           0       -0.922312   -2.108602    2.130466
      2          7           0        0.047266   -1.983840    0.000000
      3          7           0       -1.982154   -0.447191    0.000000
      4          6           0       -1.075304   -2.519149    0.755087
      5          6           0       -1.207187   -4.010781    0.636459
      6          6           0       -2.062551   -4.703704    1.476323
      7          6           0       -2.283430   -1.710286    0.323903
      8          6           0       -2.962086    0.393346   -0.376529
      9          6           0       -4.288922   -0.047412   -0.456709
     10          6           0       -3.584360   -2.182260    0.254869
     11          6           0        0.242293   -2.629710    2.813378
     12          6           0        0.373678   -1.840156    4.047538
     13          1           0       -2.631348   -4.175912    2.125648
     14          1           0       -2.756412    1.275560   -0.583982
     15          1           0       -3.781961   -3.061782    0.483862
     16          1           0        0.123563   -3.570017    3.020985
     17          1           0        1.033511   -2.531157    2.260556
     18          1           0       -0.442286   -1.896526    4.551695
     19          1           0        1.098240   -2.186326    4.573941
     20          1           0        0.548936   -0.923551    3.824647
     21          6           0       -4.577230   -1.330151   -0.157044
     22          1           0       -5.452134   -1.637546   -0.228835
     23         35           0       -3.331727   -7.010528    2.521784
     24          6           0       -2.225711   -6.065430    1.330141
     25          6           0       -1.542814   -6.734498    0.335762
     26          1           0       -1.655157   -7.634226    0.298955
     27          7           0        0.487549   -4.027025   -1.066415
     28          6           0        0.688806   -2.725102   -0.817370
     29          6           0       -0.665029   -6.066116   -0.472649
     30          6           0       -0.464019   -4.713848   -0.302040
     31          6           0        1.268195   -4.729442   -2.072206
     32          1           0        1.376086   -2.483151   -1.272400
     33          1           0       -0.216878   -6.499344   -1.144926
     34          1           0        1.694635   -5.491501   -1.672378
     35          1           0        0.689518   -5.022416   -2.780085
     36          1           0        1.936753   -4.139970   -2.428857
     37          1           0       -4.963501    0.538471   -0.715276
 ---------------------------------------------------------------------
                    Distance matrix (angstroms):
                    1          2          3          4          5
     1  O    0.000000
     2  N    2.344042   0.000000
     3  N    2.902143   2.545553   0.000000
     4  C    1.443476   1.454949   2.384438   0.000000
     5  C    2.435466   2.467230   3.702003   1.502142   0.000000
     6  C    2.909055   3.745466   4.505985   2.503421   1.384616
     7  C    2.296729   2.368943   1.338316   1.516492   2.558958
     8  C    4.087229   3.853439   1.344821   3.650086   4.847902
     9  C    4.719749   4.770834   2.385284   4.231462   5.138131
    10  C    3.257267   3.645962   2.375392   2.580518   3.023251
    11  C    1.447145   2.893143   4.198410   2.446394   2.957588
    12  C    2.329554   4.063220   4.885987   3.660713   4.341223
    13  H    2.682275   4.061839   4.340875   2.654162   2.067169
    14  H    4.710063   4.338817   1.976962   4.361083   5.642249
    15  H    3.434741   4.007375   3.210843   2.773807   2.748335
    16  H    2.005645   3.412935   4.828295   2.770541   2.766068
    17  H    2.005174   2.526331   4.306654   2.591077   3.138106
    18  H    2.477449   4.578778   5.018933   3.899051   4.514889
    19  H    3.171631   4.697497   5.782245   4.406666   4.914000
    20  H    2.537551   4.000476   4.610993   3.821817   4.772788
    21  C    4.381450   4.673107   2.745669   3.809092   4.378654
    22  H    5.129082   5.515042   3.675605   4.571867   4.939691
    23  Br   5.476066   6.560837   7.159479   5.327772   4.131175
    24  C    4.242152   4.857476   5.778685   3.772297   2.395864
    25  C    5.000490   5.020940   6.311575   4.261873   2.760742
    26  H    5.867198   5.908848   7.200679   5.168007   3.666598
    27  N    3.985988   2.346421   4.477933   2.834443   2.402535
    28  C    3.415481   1.276376   3.604303   2.372156   2.713186
    29  C    4.743872   4.170820   5.790556   3.775796   2.397594
    30  C    3.593665   2.793848   4.538759   2.511552   1.388302
    31  C    5.415679   3.650073   5.761639   4.286137   3.739098
    32  H    4.123399   1.906325   4.128186   3.181401   3.556782
    33  H    5.523083   4.665877   6.407466   4.493206   3.216674
    34  H    5.723114   4.220706   6.462251   4.732866   3.992972
    35  H    5.933112   4.168249   5.983259   4.677433   4.036541
    36  H    5.752228   3.757446   5.907097   4.673013   4.392859
    37  H    5.606821   5.655215   3.220493   5.160337   6.052501
                    6          7          8          9         10
     6  C    0.000000
     7  C    3.215185   0.000000
     8  C    5.497467   2.318717   0.000000
     9  C    5.511296   2.719651   1.400425   0.000000
    10  C    3.188343   1.385621   2.723901   2.358034   0.000000
    11  C    3.376607   3.663618   5.438972   6.155780   4.624873
    12  C    4.554807   4.576303   5.973962   6.726218   5.492490
    13  H    1.011789   3.073540   5.220000   5.143989   2.895288
    14  H    6.362224   3.156460   0.929322   2.028556   3.653175
    15  H    2.576287   2.024283   3.653817   3.198141   0.930076
    16  H    2.906943   4.065275   6.064039   6.631223   4.829695
    17  H    3.862717   3.927665   5.609967   6.471538   5.046706
    18  H    4.468044   4.615053   5.990016   6.580268   5.330758
    19  H    5.091466   5.452075   6.902760   7.674887   6.370333
    20  H    5.159850   4.571264   5.631285   6.519393   5.604623
    21  C    4.513575   2.374306   2.372194   1.348458   1.371697
    22  H    4.878336   3.217375   3.216625   1.983309   2.004810
    23  Br   2.832885   5.832854   7.959536   7.633651   5.339935
    24  C    1.379234   4.470249   6.720919   6.608041   4.252193
    25  C    2.386447   5.078519   7.302592   7.272292   4.989721
    26  H    3.184356   5.957216   8.161266   8.066442   5.783399
    27  N    3.664208   3.870218   5.649390   6.246898   4.661480
    28  C    4.092170   3.341638   4.821626   5.663733   4.438955
    29  C    2.758211   4.714549   6.856411   7.025500   4.912852
    30  C    2.391231   3.566995   5.685888   6.035679   4.056552
    31  C    4.866887   5.241248   6.856643   7.443975   5.954049
    32  H    4.930574   4.066640   5.281720   6.220168   5.198953
    33  H    3.674476   5.418780   7.458940   7.660457   5.651245
    34  H    4.965016   5.840182   7.615491   8.180397   6.521743
    35  H    5.078629   5.426175   6.960013   7.411720   5.961834
    36  H    5.618065   5.593836   6.982953   7.706972   6.443423
    37  H    6.379578   3.649600   2.035061   0.930147   3.200873
                   11         12         13         14         15
    11  C    0.000000
    12  C    1.470990   0.000000
    13  H    3.334896   4.263755   0.000000
    14  H    5.982091   6.399697   6.089030   0.000000
    15  H    4.669898   5.609055   2.293612   4.583074   0.000000
    16  H    0.970245   2.027015   2.959438   6.691013   4.684913
    17  H    0.970232   2.026369   4.019281   6.078322   5.160133
    18  H    2.006976   0.960806   3.984131   6.464710   5.390595
    19  H    2.007191   0.960168   4.884917   7.310756   6.427404
    20  H    2.006906   0.959459   4.855786   5.932741   5.872780
    21  C    5.808619   6.515375   4.134670   3.207395   2.010412
    22  H    6.531918   7.229696   4.465840   3.984876   2.307783
    23  Br   5.661291   6.541460   2.946609   8.867696   4.466367
    24  C    4.482767   5.656324   2.089892   7.604974   3.487120
    25  C    5.116099   6.434657   3.306805   8.153513   4.304016
    26  H    5.913360   7.193003   4.031091   9.020899   5.046259
    27  N    4.131033   5.563082   4.465306   6.234856   4.643680
    28  C    3.659344   4.954772   4.667936   5.284817   4.668438
    29  C    4.840464   6.274532   3.767019   7.634558   4.433532
    30  C    3.814228   5.280026   3.298539   6.419312   3.788892
    31  C    5.415744   6.826376   5.756285   7.380536   5.900732
    32  H    4.242705   5.451606   5.520118   5.628443   5.479481
    33  H    5.554554   7.001319   4.682377   8.198355   5.213406
    34  H    5.515537   6.913371   5.905075   8.172486   6.367574
    35  H    6.100154   7.539428   5.984224   7.507450   5.872951
    36  H    5.712539   7.048123   6.450764   7.399819   6.507696
    37  H    7.041950   7.538418   5.977892   2.330618   3.974391
                   16         17         18         19         20
    16  H    0.000000
    17  H    1.576544   0.000000
    18  H    2.337483   2.798223   0.000000
    19  H    2.297013   2.339840   1.567704   0.000000
    20  H    2.798321   2.294688   1.567737   1.567730   0.000000
    21  C    6.100353   6.226365   6.292119   7.438159   6.503596
    22  H    6.736777   7.004228   6.929582   8.140959   7.276905
    23  Br   4.901566   6.260057   6.214694   6.863591   7.335413
    24  C    3.821665   4.896865   5.562263   6.051308   6.352963
    25  C    4.472267   5.292481   6.510854   6.754494   7.093295
    26  H    5.204910   6.092465   7.244174   7.452269   7.894409
    27  N    4.128944   3.688418   6.080031   5.964455   5.792910
    28  C    3.970686   3.103234   5.549122   5.433612   4.981312
    29  C    4.365532   4.780312   6.532926   6.605298   6.810759
    30  C    3.563158   3.684242   5.612176   5.710010   5.694030
    31  C    5.347434   4.864192   7.404540   7.118117   7.055141
    32  H    4.602526   3.549850   6.129493   5.860461   5.394109
    33  H    5.104083   5.376550   7.327225   7.282657   7.508168
    34  H    5.309240   4.966758   7.498624   7.091993   7.238513
    35  H    6.006844   5.633184   8.050289   7.892538   7.774506
    36  H    5.771766   5.039317   7.708499   7.318401   7.167823
    37  H    7.531104   7.364940   7.356057   8.493823   7.289401
                   21         22         23         24         25
    21  C    0.000000
    22  H    0.930110   0.000000
    23  Br   6.402662   6.397731   0.000000
    24  C    5.492197   5.696171   1.880558   0.000000
    25  C    6.217516   6.448292   2.838150   1.379417   0.000000
    26  H    6.963319   7.117287   2.853219   1.962142   0.907462
    27  N    5.809653   6.456856   6.030202   4.154559   3.663180
    28  C    5.487536   6.264208   6.758662   4.925850   4.731289
    29  C    6.150958   6.525952   4.119445   2.384488   1.367761
    30  C    5.328127   5.860912   4.633840   2.755784   2.377733
    31  C    7.027945   7.623691   6.889658   5.056502   4.209553
    32  H    6.165663   6.959071   7.553574   5.707791   5.401862
    33  H    6.834408   7.203070   4.838218   3.217087   2.001460
    34  H    7.677848   8.247005   6.720324   4.971280   4.007336
    35  H    6.946351   7.462313   6.944985   5.145911   4.197980
    36  H    7.449040   8.105423   7.778550   5.929888   5.146074
    37  H    1.988108   2.282638   8.374284   7.435773   8.105668
                   26         27         28         29         30
    26  H    0.000000
    27  N    4.412179   0.000000
    28  C    5.553363   1.340720   0.000000
    29  C    2.008655   2.416379   3.621336   0.000000
    30  C    3.210703   1.400527   2.355776   1.377730   0.000000
    31  C    4.754594   1.454102   2.434683   2.842998   2.476751
    32  H    6.179900   1.793174   0.859038   4.200404   3.050179
    33  H    2.332680   2.571915   3.895184   0.916778   1.989857
    34  H    4.438303   1.992219   3.065239   2.708790   2.672518
    35  H    4.668998   1.992049   3.021573   2.871997   2.750739
    36  H    5.705489   1.992284   2.481152   3.782335   3.258280
    37  H    8.875065   7.119058   6.527626   7.883926   6.928416
                   31         32         33         34         35
    31  C    0.000000
    32  H    2.386871   0.000000
    33  H    2.489547   4.322452   0.000000
    34  H    0.960441   3.051495   2.224373   0.000000
    35  H    0.960100   3.031890   2.382565   1.567582   0.000000
    36  H    0.960024   2.096852   3.442855   1.567647   1.567695
    37  H    8.272012   7.044924   8.499757   9.033679   8.194115
                   36         37
    36  H    0.000000
    37  H    8.511032   0.000000
 Stoichiometry    C16H16BrN3O
 Framework group  C1[X(C16H16BrN3O)]
 Deg. of freedom   105
 Full point group                 C1      NOp   1
 Largest Abelian subgroup         C1      NOp   1
 Largest concise Abelian subgroup C1      NOp   1
                         Standard orientation:                         
 ---------------------------------------------------------------------
 Center     Atomic      Atomic             Coordinates (Angstroms)
 Number     Number       Type             X           Y           Z
 ---------------------------------------------------------------------
      1          8           0       -1.324219   -0.240866    1.779812
      2          7           0       -2.203545    1.400597    0.356114
      3          7           0       -3.365964   -0.792815   -0.207412
      4          6           0       -1.315989    0.249621    0.422249
      5          6           0        0.078686    0.553671   -0.045583
      6          6           0        1.101787   -0.352027    0.178331
      7          6           0       -2.033826   -0.865435   -0.313352
      8          6           0       -4.130457   -1.733599   -0.789665
      9          6           0       -3.547119   -2.772533   -1.525548
     10          6           0       -1.421424   -1.877682   -1.034645
     11          6           0       -0.798690    0.667144    2.776590
     12          6           0       -1.203469    0.115527    4.078774
     13          1           0        0.873899   -1.238219    0.610126
     14          1           0       -5.054727   -1.694248   -0.701253
     15          1           0       -0.494562   -1.918719   -1.100105
     16          1           0        0.168107    0.719751    2.714047
     17          1           0       -1.166710    1.556542    2.654592
     18          1           0       -0.886013   -0.788024    4.156016
     19          1           0       -0.826078    0.647376    4.783497
     20          1           0       -2.160414    0.125009    4.147528
     21          6           0       -2.205346   -2.819441   -1.651175
     22          1           0       -1.810376   -3.493081   -2.156458
     23         35           0        3.770287   -1.296991    0.071625
     24          6           0        2.370054   -0.098099   -0.300530
     25          6           0        2.614368    1.056481   -1.014706
     26          1           0        3.470462    1.197486   -1.280613
     27          7           0       -0.646206    2.713336   -0.808835
     28          6           0       -1.833322    2.469274   -0.235496
     29          6           0        1.620452    1.976358   -1.206349
     30          6           0        0.362846    1.749206   -0.691595
     31          6           0       -0.387690    3.967644   -1.497524
     32          1           0       -2.293479    3.192824   -0.287245
     33          1           0        1.769492    2.740074   -1.691124
     34          1           0        0.388661    4.387276   -1.118530
     35          1           0       -0.234637    3.795851   -2.429648
     36          1           0       -1.145026    4.549456   -1.399629
     37          1           0       -4.080074   -3.422236   -1.924319
 ---------------------------------------------------------------------
 Rotational constants (GHZ):           0.3111351           0.1786232           0.1553441
 Leave Link  202 at Sat Mar  4 11:39:38 2023, MaxMem=  1048576000 cpu:               0.0 elap:               0.0
 (Enter /ssoft/spack/external/gaussian/g16-C.01/avx2/g16/l301.exe)
 Standard basis: def2SVP (5D, 7F)
 Ernie: Thresh=  0.10000D-02 Tol=  0.10000D-05 Strict=F.
 There are   415 symmetry adapted cartesian basis functions of A   symmetry.
 There are   392 symmetry adapted basis functions of A   symmetry.
   392 basis functions,   692 primitive gaussians,   415 cartesian basis functions
    88 alpha electrons       88 beta electrons
       nuclear repulsion energy      2091.3372968168 Hartrees.
 IExCor= 1009 DFT=T Ex+Corr=PBE1PBE ExCW=0 ScaHFX=  0.250000
 ScaDFX=  0.750000  0.750000  1.000000  1.000000 ScalE2=  1.000000  1.000000
 IRadAn=      5 IRanWt=     -1 IRanGd=            0 ICorTp=0 IEmpDi=141
 NAtoms=   37 NActive=   37 NUniq=   37 SFac= 1.00D+00 NAtFMM=   60 NAOKFM=F Big=F
 Integral buffers will be    131072 words long.
 Raffenetti 2 integral format.
 Two-electron integral symmetry is turned on.
 R6Disp:  Grimme-D3(BJ) Dispersion energy=       -0.0471452949 Hartrees.
 Nuclear repulsion after empirical dispersion term =     2091.2901515218 Hartrees.
 Leave Link  301 at Sat Mar  4 11:39:38 2023, MaxMem=  1048576000 cpu:               0.1 elap:               0.1
 (Enter /ssoft/spack/external/gaussian/g16-C.01/avx2/g16/l302.exe)
 NPDir=0 NMtPBC=     1 NCelOv=     1 NCel=       1 NClECP=     1 NCelD=      1
         NCelK=      1 NCelE2=     1 NClLst=     1 CellRange=     0.0.
 One-electron integrals computed using PRISM.
 One-electron integral symmetry used in STVInt
   1 Symmetry operations used in ECPInt.
 ECPInt:  NShTT=   16290 NPrTT=   61773 LenC2=   15137 LenP2D=   39516.
 LDataN:  DoStor=T MaxTD1= 4 Len=   56
 NBasis=   392 RedAO= T EigKep=  1.84D-04  NBF=   392
 NBsUse=   392 1.00D-06 EigRej= -1.00D+00 NBFU=   392
 Precomputing XC quadrature grid using
 IXCGrd= 4 IRadAn=           5 IRanWt=          -1 IRanGd=           0 AccXCQ= 0.00D+00.
 Generated NRdTot=       0 NPtTot=           0 NUsed=           0 NTot=          32
 NSgBfM=   412   412   412   412   412 MxSgAt=    37 MxSgA2=    37.
 Leave Link  302 at Sat Mar  4 11:39:39 2023, MaxMem=  1048576000 cpu:               1.3 elap:               1.3
 (Enter /ssoft/spack/external/gaussian/g16-C.01/avx2/g16/l303.exe)
 DipDrv:  MaxL=1.
 Leave Link  303 at Sat Mar  4 11:39:39 2023, MaxMem=  1048576000 cpu:               0.1 elap:               0.1
 (Enter /ssoft/spack/external/gaussian/g16-C.01/avx2/g16/l401.exe)
 ExpMin= 1.22D-01 ExpMax= 1.13D+05 ExpMxC= 1.70D+04 IAcc=3 IRadAn=         5 AccDes= 0.00D+00
 Harris functional with IExCor= 1009 and IRadAn=       5 diagonalized for initial guess.
 HarFok:  IExCor= 1009 AccDes= 0.00D+00 IRadAn=         5 IDoV= 1 UseB2=F ITyADJ=14
 ICtDFT=  3500011 ScaDFX=  1.000000  1.000000  1.000000  1.000000
 FoFCou: FMM=F IPFlag=           0 FMFlag=      100000 FMFlg1=           0
         NFxFlg=           0 DoJE=T BraDBF=F KetDBF=T FulRan=T
         wScrn=  0.000000 ICntrl=       500 IOpCl=  0 I1Cent=   200000004 NGrid=           0
         NMat0=    1 NMatS0=      1 NMatT0=    0 NMatD0=    1 NMtDS0=    0 NMtDT0=    0
 Petite list used in FoFCou.
 Harris En= -3430.65624705722    
 JPrj=0 DoOrth=F DoCkMO=F.
 Leave Link  401 at Sat Mar  4 11:39:49 2023, MaxMem=  1048576000 cpu:               9.8 elap:               9.8
 (Enter /ssoft/spack/external/gaussian/g16-C.01/avx2/g16/l502.exe)
 Integral symmetry usage will be decided dynamically.
 Closed shell SCF:
 Using DIIS extrapolation, IDIIS=  1040.
 NGot=  1048576000 LenX=  1048223834 LenY=  1048051168
 Requested convergence on RMS density matrix=1.00D-08 within 128 cycles.
 Requested convergence on MAX density matrix=1.00D-06.
 Requested convergence on             energy=1.00D-06.
 No special actions if energy rises.
 Fock matrices will be formed incrementally for  20 cycles.
 Integral accuracy reduced to 1.0D-05 until final iterations.

 Cycle   1  Pass 0  IDiag  1:
 FoFJK:  IHMeth= 1 ICntrl=       0 DoSepK=F KAlg= 0 I1Cent=           0 FoldK=F
 IRaf= 870000000 NMat=       1 IRICut=       1 DoRegI=T DoRafI=F ISym2E= 0 IDoP0=0 IntGTp=1.
 FoFCou: FMM=F IPFlag=           0 FMFlag=      100000 FMFlg1=           0
         NFxFlg=           0 DoJE=F BraDBF=F KetDBF=F FulRan=T
         wScrn=  0.000000 ICntrl=         0 IOpCl=  0 I1Cent=           0 NGrid=           0
         NMat0=    1 NMatS0=      1 NMatT0=    0 NMatD0=    1 NMtDS0=    0 NMtDT0=    0
 Symmetry not used in FoFCou.
 E= -3429.94674891392    
 DIIS: error= 4.29D-02 at cycle   1 NSaved=   1.
 NSaved= 1 IEnMin= 1 EnMin= -3429.94674891392     IErMin= 1 ErrMin= 4.29D-02
 ErrMax= 4.29D-02  0.00D+00 EMaxC= 1.00D-01 BMatC= 5.40D-01 BMatP= 5.40D-01
 IDIUse=3 WtCom= 5.71D-01 WtEn= 4.29D-01
 Coeff-Com:  0.100D+01
 Coeff-En:   0.100D+01
 Coeff:      0.100D+01
 Gap=     0.260 Goal=   None    Shift=    0.000
 GapD=    0.260 DampG=1.000 DampE=0.500 DampFc=0.5000 IDamp=-1.
 Damping current iteration by 5.00D-01
 RMSDP=4.65D-03 MaxDP=1.63D-01              OVMax= 2.12D-01

 Cycle   2  Pass 0  IDiag  1:
 RMSU=  2.27D-03    CP:  9.77D-01
 E= -3430.16396399045     Delta-E=       -0.217215076534 Rises=F Damp=T
 DIIS: error= 6.15D-03 at cycle   2 NSaved=   2.
 NSaved= 2 IEnMin= 2 EnMin= -3430.16396399045     IErMin= 2 ErrMin= 6.15D-03
 ErrMax= 6.15D-03  0.00D+00 EMaxC= 1.00D-01 BMatC= 3.84D-02 BMatP= 5.40D-01
 IDIUse=3 WtCom= 9.39D-01 WtEn= 6.15D-02
 Coeff-Com:  0.477D-02 0.995D+00
 Coeff-En:   0.241D-01 0.976D+00
 Coeff:      0.596D-02 0.994D+00
 Gap=     0.206 Goal=   None    Shift=    0.000
 RMSDP=1.74D-03 MaxDP=7.83D-02 DE=-2.17D-01 OVMax= 1.76D-01

 Cycle   3  Pass 0  IDiag  1:
 RMSU=  1.68D-03    CP:  9.57D-01  1.10D+00
 E= -3430.37005668621     Delta-E=       -0.206092695755 Rises=F Damp=F
 DIIS: error= 7.64D-03 at cycle   3 NSaved=   3.
 NSaved= 3 IEnMin= 3 EnMin= -3430.37005668621     IErMin= 2 ErrMin= 6.15D-03
 ErrMax= 7.64D-03  0.00D+00 EMaxC= 1.00D-01 BMatC= 4.99D-02 BMatP= 3.84D-02
 IDIUse=3 WtCom= 1.03D-01 WtEn= 8.97D-01
 Coeff-Com: -0.630D-01 0.572D+00 0.491D+00
 Coeff-En:   0.000D+00 0.000D+00 0.100D+01
 Coeff:     -0.647D-02 0.587D-01 0.948D+00
 Gap=     0.229 Goal=   None    Shift=    0.000
 RMSDP=1.96D-03 MaxDP=7.21D-02 DE=-2.06D-01 OVMax= 1.72D-01

 Cycle   4  Pass 0  IDiag  1:
 RMSU=  1.10D-03    CP:  9.61D-01  1.42D+00  1.39D-01
 E= -3430.25840049244     Delta-E=        0.111656193764 Rises=F Damp=F
 DIIS: error= 1.55D-02 at cycle   4 NSaved=   4.
 NSaved= 4 IEnMin= 3 EnMin= -3430.37005668621     IErMin= 2 ErrMin= 6.15D-03
 ErrMax= 1.55D-02  0.00D+00 EMaxC= 1.00D-01 BMatC= 1.59D-01 BMatP= 3.84D-02
 IDIUse=2 WtCom= 0.00D+00 WtEn= 1.00D+00
 Coeff-En:   0.000D+00 0.000D+00 0.715D+00 0.285D+00
 Coeff:      0.000D+00 0.000D+00 0.715D+00 0.285D+00
 Gap=     0.214 Goal=   None    Shift=    0.000
 RMSDP=1.02D-03 MaxDP=4.16D-02 DE= 1.12D-01 OVMax= 9.58D-02

 Cycle   5  Pass 0  IDiag  1:
 RMSU=  1.92D-04    CP:  9.59D-01  1.24D+00  5.59D-01  4.68D-01
 E= -3430.41335125788     Delta-E=       -0.154950765436 Rises=F Damp=F
 DIIS: error= 2.96D-03 at cycle   5 NSaved=   5.
 NSaved= 5 IEnMin= 5 EnMin= -3430.41335125788     IErMin= 5 ErrMin= 2.96D-03
 ErrMax= 2.96D-03  0.00D+00 EMaxC= 1.00D-01 BMatC= 7.35D-03 BMatP= 3.84D-02
 IDIUse=3 WtCom= 9.70D-01 WtEn= 2.96D-02
 Coeff-Com:  0.638D-02-0.520D-02 0.279D+00 0.908D-02 0.711D+00
 Coeff-En:   0.000D+00 0.000D+00 0.156D+00 0.000D+00 0.844D+00
 Coeff:      0.619D-02-0.504D-02 0.275D+00 0.881D-02 0.715D+00
 Gap=     0.194 Goal=   None    Shift=    0.000
 RMSDP=2.92D-04 MaxDP=1.05D-02 DE=-1.55D-01 OVMax= 2.45D-02

 Cycle   6  Pass 0  IDiag  1:
 RMSU=  6.29D-05    CP:  9.58D-01  1.20D+00  6.91D-01  3.40D-01  7.58D-01
 E= -3430.42067528775     Delta-E=       -0.007324029877 Rises=F Damp=F
 DIIS: error= 3.66D-04 at cycle   6 NSaved=   6.
 NSaved= 6 IEnMin= 6 EnMin= -3430.42067528775     IErMin= 6 ErrMin= 3.66D-04
 ErrMax= 3.66D-04  0.00D+00 EMaxC= 1.00D-01 BMatC= 9.39D-05 BMatP= 7.35D-03
 IDIUse=3 WtCom= 9.96D-01 WtEn= 3.66D-03
 Coeff-Com:  0.240D-02-0.794D-02 0.909D-01-0.318D-01 0.410D+00 0.536D+00
 Coeff-En:   0.000D+00 0.000D+00 0.000D+00 0.000D+00 0.000D+00 0.100D+01
 Coeff:      0.239D-02-0.791D-02 0.906D-01-0.317D-01 0.409D+00 0.538D+00
 Gap=     0.194 Goal=   None    Shift=    0.000
 RMSDP=3.78D-05 MaxDP=1.13D-03 DE=-7.32D-03 OVMax= 3.55D-03

 Cycle   7  Pass 0  IDiag  1:
 RMSU=  1.82D-05    CP:  9.58D-01  1.20D+00  6.86D-01  3.46D-01  8.37D-01
                    CP:  5.65D-01
 E= -3430.42076388842     Delta-E=       -0.000088600666 Rises=F Damp=F
 DIIS: error= 1.73D-04 at cycle   7 NSaved=   7.
 NSaved= 7 IEnMin= 7 EnMin= -3430.42076388842     IErMin= 7 ErrMin= 1.73D-04
 ErrMax= 1.73D-04  0.00D+00 EMaxC= 1.00D-01 BMatC= 1.08D-05 BMatP= 9.39D-05
 IDIUse=3 WtCom= 9.98D-01 WtEn= 1.73D-03
 Coeff-Com:  0.103D-02-0.412D-02 0.416D-01-0.218D-01 0.221D+00 0.344D+00
 Coeff-Com:  0.418D+00
 Coeff-En:   0.000D+00 0.000D+00 0.000D+00 0.000D+00 0.000D+00 0.157D-01
 Coeff-En:   0.984D+00
 Coeff:      0.102D-02-0.412D-02 0.415D-01-0.217D-01 0.221D+00 0.344D+00
 Coeff:      0.419D+00
 Gap=     0.194 Goal=   None    Shift=    0.000
 RMSDP=1.12D-05 MaxDP=4.43D-04 DE=-8.86D-05 OVMax= 1.03D-03

 Cycle   8  Pass 0  IDiag  1:
 RMSU=  6.05D-06    CP:  9.58D-01  1.20D+00  6.87D-01  3.44D-01  8.32D-01
                    CP:  6.19D-01  5.58D-01
 E= -3430.42077572381     Delta-E=       -0.000011835387 Rises=F Damp=F
 DIIS: error= 2.57D-05 at cycle   8 NSaved=   8.
 NSaved= 8 IEnMin= 8 EnMin= -3430.42077572381     IErMin= 8 ErrMin= 2.57D-05
 ErrMax= 2.57D-05  0.00D+00 EMaxC= 1.00D-01 BMatC= 6.35D-07 BMatP= 1.08D-05
 IDIUse=1 WtCom= 1.00D+00 WtEn= 0.00D+00
 Coeff-Com:  0.180D-03-0.106D-02 0.107D-01-0.848D-02 0.682D-01 0.123D+00
 Coeff-Com:  0.228D+00 0.580D+00
 Coeff:      0.180D-03-0.106D-02 0.107D-01-0.848D-02 0.682D-01 0.123D+00
 Coeff:      0.228D+00 0.580D+00
 Gap=     0.194 Goal=   None    Shift=    0.000
 RMSDP=2.95D-06 MaxDP=1.22D-04 DE=-1.18D-05 OVMax= 2.92D-04

 Initial convergence to 1.0D-05 achieved.  Increase integral accuracy.
 Cycle   9  Pass 1  IDiag  1:
 E= -3430.42075859195     Delta-E=        0.000017131855 Rises=F Damp=F
 DIIS: error= 8.65D-05 at cycle   1 NSaved=   1.
 NSaved= 1 IEnMin= 1 EnMin= -3430.42075859195     IErMin= 1 ErrMin= 8.65D-05
 ErrMax= 8.65D-05  0.00D+00 EMaxC= 1.00D-01 BMatC= 2.30D-06 BMatP= 2.30D-06
 IDIUse=1 WtCom= 1.00D+00 WtEn= 0.00D+00
 Coeff-Com:  0.100D+01
 Coeff:      0.100D+01
 Gap=     0.194 Goal=   None    Shift=    0.000
 RMSDP=2.95D-06 MaxDP=1.22D-04 DE= 1.71D-05 OVMax= 2.79D-04

 Cycle  10  Pass 1  IDiag  1:
 RMSU=  8.41D-05    CP:  1.00D+00
 E= -3430.42076060252     Delta-E=       -0.000002010573 Rises=F Damp=F
 DIIS: error= 1.43D-05 at cycle   2 NSaved=   2.
 NSaved= 2 IEnMin= 2 EnMin= -3430.42076060252     IErMin= 2 ErrMin= 1.43D-05
 ErrMax= 1.43D-05  0.00D+00 EMaxC= 1.00D-01 BMatC= 2.29D-07 BMatP= 2.30D-06
 IDIUse=1 WtCom= 1.00D+00 WtEn= 0.00D+00
 Coeff-Com:  0.120D+00 0.880D+00
 Coeff:      0.120D+00 0.880D+00
 Gap=     0.194 Goal=   None    Shift=    0.000
 RMSDP=4.33D-06 MaxDP=1.25D-04 DE=-2.01D-06 OVMax= 3.66D-04

 Cycle  11  Pass 1  IDiag  1:
 RMSU=  4.13D-06    CP:  1.00D+00  1.02D+00
 E= -3430.42076023537     Delta-E=        0.000000367153 Rises=F Damp=F
 DIIS: error= 2.48D-05 at cycle   3 NSaved=   3.
 NSaved= 3 IEnMin= 2 EnMin= -3430.42076060252     IErMin= 2 ErrMin= 1.43D-05
 ErrMax= 2.48D-05  0.00D+00 EMaxC= 1.00D-01 BMatC= 5.83D-07 BMatP= 2.29D-07
 IDIUse=1 WtCom= 1.00D+00 WtEn= 0.00D+00
 Coeff-Com: -0.356D-02 0.618D+00 0.386D+00
 Coeff:     -0.356D-02 0.618D+00 0.386D+00
 Gap=     0.194 Goal=   None    Shift=    0.000
 RMSDP=2.56D-06 MaxDP=9.05D-05 DE= 3.67D-07 OVMax= 2.36D-04

 Cycle  12  Pass 1  IDiag  1:
 RMSU=  5.69D-07    CP:  1.00D+00  1.02D+00  3.99D-01
 E= -3430.42076083276     Delta-E=       -0.000000597383 Rises=F Damp=F
 DIIS: error= 3.44D-06 at cycle   4 NSaved=   4.
 NSaved= 4 IEnMin= 4 EnMin= -3430.42076083276     IErMin= 4 ErrMin= 3.44D-06
 ErrMax= 3.44D-06  0.00D+00 EMaxC= 1.00D-01 BMatC= 7.66D-09 BMatP= 2.29D-07
 IDIUse=1 WtCom= 1.00D+00 WtEn= 0.00D+00
 Coeff-Com: -0.457D-02 0.348D+00 0.229D+00 0.427D+00
 Coeff:     -0.457D-02 0.348D+00 0.229D+00 0.427D+00
 Gap=     0.194 Goal=   None    Shift=    0.000
 RMSDP=2.91D-07 MaxDP=1.11D-05 DE=-5.97D-07 OVMax= 2.48D-05

 Cycle  13  Pass 1  IDiag  1:
 RMSU=  2.09D-07    CP:  1.00D+00  1.02D+00  4.13D-01  6.60D-01
 E= -3430.42076084004     Delta-E=       -0.000000007281 Rises=F Damp=F
 DIIS: error= 7.82D-07 at cycle   5 NSaved=   5.
 NSaved= 5 IEnMin= 5 EnMin= -3430.42076084004     IErMin= 5 ErrMin= 7.82D-07
 ErrMax= 7.82D-07  0.00D+00 EMaxC= 1.00D-01 BMatC= 2.97D-10 BMatP= 7.66D-09
 IDIUse=1 WtCom= 1.00D+00 WtEn= 0.00D+00
 Coeff-Com: -0.254D-02 0.181D+00 0.120D+00 0.253D+00 0.448D+00
 Coeff:     -0.254D-02 0.181D+00 0.120D+00 0.253D+00 0.448D+00
 Gap=     0.194 Goal=   None    Shift=    0.000
 RMSDP=6.79D-08 MaxDP=2.18D-06 DE=-7.28D-09 OVMax= 5.32D-06

 Cycle  14  Pass 1  IDiag  1:
 RMSU=  5.59D-08    CP:  1.00D+00  1.02D+00  4.12D-01  6.96D-01  8.46D-01
 E= -3430.42076084034     Delta-E=       -0.000000000302 Rises=F Damp=F
 DIIS: error= 1.58D-07 at cycle   6 NSaved=   6.
 NSaved= 6 IEnMin= 6 EnMin= -3430.42076084034     IErMin= 6 ErrMin= 1.58D-07
 ErrMax= 1.58D-07  0.00D+00 EMaxC= 1.00D-01 BMatC= 2.20D-11 BMatP= 2.97D-10
 IDIUse=1 WtCom= 1.00D+00 WtEn= 0.00D+00
 Coeff-Com: -0.241D-03 0.117D-01 0.820D-02 0.318D-01 0.214D+00 0.734D+00
 Coeff:     -0.241D-03 0.117D-01 0.820D-02 0.318D-01 0.214D+00 0.734D+00
 Gap=     0.194 Goal=   None    Shift=    0.000
 RMSDP=2.46D-08 MaxDP=1.13D-06 DE=-3.02D-10 OVMax= 2.67D-06

 Cycle  15  Pass 1  IDiag  1:
 RMSU=  2.00D-08    CP:  1.00D+00  1.02D+00  4.12D-01  7.07D-01  8.85D-01
                    CP:  8.41D-01
 E= -3430.42076084029     Delta-E=        0.000000000043 Rises=F Damp=F
 DIIS: error= 7.81D-08 at cycle   7 NSaved=   7.
 NSaved= 7 IEnMin= 6 EnMin= -3430.42076084034     IErMin= 7 ErrMin= 7.81D-08
 ErrMax= 7.81D-08  0.00D+00 EMaxC= 1.00D-01 BMatC= 5.84D-12 BMatP= 2.20D-11
 IDIUse=1 WtCom= 1.00D+00 WtEn= 0.00D+00
 Coeff-Com:  0.198D-03-0.170D-01-0.110D-01-0.153D-01 0.660D-01 0.433D+00
 Coeff-Com:  0.544D+00
 Coeff:      0.198D-03-0.170D-01-0.110D-01-0.153D-01 0.660D-01 0.433D+00
 Coeff:      0.544D+00
 Gap=     0.194 Goal=   None    Shift=    0.000
 RMSDP=1.14D-08 MaxDP=4.67D-07 DE= 4.27D-11 OVMax= 1.48D-06

 Cycle  16  Pass 1  IDiag  1:
 RMSU=  8.36D-09    CP:  1.00D+00  1.02D+00  4.12D-01  7.08D-01  9.03D-01
                    CP:  8.96D-01  7.63D-01
 E= -3430.42076084032     Delta-E=       -0.000000000025 Rises=F Damp=F
 DIIS: error= 2.44D-08 at cycle   8 NSaved=   8.
 NSaved= 8 IEnMin= 6 EnMin= -3430.42076084034     IErMin= 8 ErrMin= 2.44D-08
 ErrMax= 2.44D-08  0.00D+00 EMaxC= 1.00D-01 BMatC= 6.31D-13 BMatP= 5.84D-12
 IDIUse=1 WtCom= 1.00D+00 WtEn= 0.00D+00
 Coeff-Com:  0.148D-03-0.117D-01-0.761D-02-0.131D-01 0.127D-01 0.165D+00
 Coeff-Com:  0.310D+00 0.545D+00
 Coeff:      0.148D-03-0.117D-01-0.761D-02-0.131D-01 0.127D-01 0.165D+00
 Coeff:      0.310D+00 0.545D+00
 Gap=     0.194 Goal=   None    Shift=    0.000
 RMSDP=3.02D-09 MaxDP=1.15D-07 DE=-2.55D-11 OVMax= 3.37D-07

 SCF Done:  E(RPBE1PBE) =  -3430.42076084     A.U. after   16 cycles
            NFock= 16  Conv=0.30D-08     -V/T= 2.0018
 KE= 3.424289554209D+03 PE=-1.232863704643D+04 EE= 3.382636579856D+03
 Leave Link  502 at Sat Mar  4 11:47:14 2023, MaxMem=  1048576000 cpu:             442.1 elap:             445.0
 (Enter /ssoft/spack/external/gaussian/g16-C.01/avx2/g16/l801.exe)
 DoSCS=F DFT=T ScalE2(SS,OS)=  1.000000  1.000000
 Range of M.O.s used for correlation:     1   392
 NBasis=   392 NAE=    88 NBE=    88 NFC=     0 NFV=     0
 NROrb=    392 NOA=    88 NOB=    88 NVA=   304 NVB=   304

 **** Warning!!: The largest alpha MO coefficient is  0.11270233D+02

 Leave Link  801 at Sat Mar  4 11:47:14 2023, MaxMem=  1048576000 cpu:               0.0 elap:               0.0
 (Enter /ssoft/spack/external/gaussian/g16-C.01/avx2/g16/l1101.exe)
 Using compressed storage, NAtomX=    37.
 Will process     38 centers per pass.
   1 Symmetry operations used in ECPInt.
 ECPInt:  NShTT=   16290 NPrTT=   61773 LenC2=   15137 LenP2D=   39516.
 LDataN:  DoStor=T MaxTD1= 5 Len=  102
 R6Disp: Adding Grimme-D3(BJ) dispersion energy 1st derivatives to the gradient.
 Leave Link 1101 at Sat Mar  4 11:47:15 2023, MaxMem=  1048576000 cpu:               0.6 elap:               0.6
 (Enter /ssoft/spack/external/gaussian/g16-C.01/avx2/g16/l1102.exe)
 Symmetrizing basis deriv contribution to polar:
 IMax=3 JMax=2 DiffMx= 0.00D+00
 Leave Link 1102 at Sat Mar  4 11:47:15 2023, MaxMem=  1048576000 cpu:               0.0 elap:               0.1
 (Enter /ssoft/spack/external/gaussian/g16-C.01/avx2/g16/l1110.exe)
 Forming Gx(P) for the SCF density, NAtomX=    37.
 Integral derivatives from FoFJK, PRISM(SPDF).
 Do as many integral derivatives as possible in FoFJK.
 G2DrvN: MDV=    1048572053.
 G2DrvN: will do    38 centers at a time, making    1 passes.
 Calling FoFCou, ICntrl=  3107 FMM=F I1Cent=   0 AccDes= 0.00D+00.
 FoFJK:  IHMeth= 1 ICntrl=    3107 DoSepK=F KAlg= 0 I1Cent=           0 FoldK=F
 IRaf=         0 NMat=       1 IRICut=       1 DoRegI=T DoRafI=F ISym2E= 0 IDoP0=0 IntGTp=1.
 FoFCou: FMM=F IPFlag=           0 FMFlag=      100000 FMFlg1=           0
         NFxFlg=           0 DoJE=F BraDBF=F KetDBF=F FulRan=T
         wScrn=  0.000000 ICntrl=      3107 IOpCl=  0 I1Cent=           0 NGrid=           0
         NMat0=    1 NMatS0=      1 NMatT0=    0 NMatD0=    1 NMtDS0=    0 NMtDT0=    0
 Symmetry not used in FoFCou.
 End of G2Drv F.D. properties file   721 does not exist.
 End of G2Drv F.D. properties file   722 does not exist.
 End of G2Drv F.D. properties file   788 does not exist.
 Leave Link 1110 at Sat Mar  4 12:04:00 2023, MaxMem=  1048576000 cpu:            1001.9 elap:            1005.6
 (Enter /ssoft/spack/external/gaussian/g16-C.01/avx2/g16/l1002.exe)
 Minotr:  Closed shell wavefunction.
          IDoAtm=1111111111111111111111111111111111111
          Direct CPHF calculation.
          Differentiating once with respect to electric field.
                with respect to dipole field.
          Differentiating once with respect to nuclear coordinates.
          Requested convergence is 1.0D-08 RMS, and 1.0D-07 maximum.
          Secondary convergence is 1.0D-12 RMS, and 1.0D-12 maximum.
          NewPWx=T KeepS1=F KeepF1=F KeepIn=T MapXYZ=F SortEE=F KeepMc=T.
        11153 words used for storage of precomputed grid.
 Two-electron integrals replicated using symmetry.
          MDV=    1048576000 using IRadAn=       1.
          Solving linear equations simultaneously, MaxMat=     384.
 FoF2E skips out because all densities are zero.
 CalDSu exits because no D1Ps are significant.
 FoFJK:  IHMeth= 1 ICntrl=       0 DoSepK=F KAlg= 0 I1Cent=           0 FoldK=F
 IRaf= 850000000 NMat=     111 IRICut=     277 DoRegI=T DoRafI=T ISym2E= 2 IDoP0=3 IntGTp=3.
 FoFCou: FMM=F IPFlag=           0 FMFlag=      100000 FMFlg1=           0
         NFxFlg=           0 DoJE=F BraDBF=F KetDBF=F FulRan=T
         wScrn=  0.000000 ICntrl=         0 IOpCl=  0 I1Cent=           0 NGrid=           0
         NMat0=  111 NMatS0=    111 NMatT0=    0 NMatD0=  111 NMtDS0=    0 NMtDT0=    0
 Integrals replicated using symmetry in FoFCou.
 Raff kept on since  81.43% of shell-pairs survive, threshold=   0.20 IRatSp=81.
          There are   114 degrees of freedom in the 1st order CPHF.  IDoFFX=6 NUNeed=     3.
    111 vectors produced by pass  0 Test12= 2.68D-14 1.00D-09 XBig12= 2.44D+02 6.76D+00.
 AX will form   111 AO Fock derivatives at one time.
    111 vectors produced by pass  1 Test12= 2.68D-14 1.00D-09 XBig12= 4.32D+01 9.89D-01.
    111 vectors produced by pass  2 Test12= 2.68D-14 1.00D-09 XBig12= 4.52D-01 8.92D-02.
    111 vectors produced by pass  3 Test12= 2.68D-14 1.00D-09 XBig12= 4.60D-03 1.05D-02.
    111 vectors produced by pass  4 Test12= 2.68D-14 1.00D-09 XBig12= 1.38D-05 4.55D-04.
    104 vectors produced by pass  5 Test12= 2.68D-14 1.00D-09 XBig12= 2.13D-08 1.32D-05.
     30 vectors produced by pass  6 Test12= 2.68D-14 1.00D-09 XBig12= 2.58D-11 3.26D-07.
      3 vectors produced by pass  7 Test12= 2.68D-14 1.00D-09 XBig12= 3.00D-14 1.46D-08.
      1 vectors produced by pass  8 Test12= 2.68D-14 1.00D-09 XBig12= 4.06D-16 1.06D-09.
 InvSVY:  IOpt=1 It=  1 EMax= 1.24D-14
 Solved reduced A of dimension   693 with   114 vectors.
 FullF1:  Do perturbations      1 to       3.
 Isotropic polarizability for W=    0.000000      190.41 Bohr**3.
 End of Minotr F.D. properties file   721 does not exist.
 End of Minotr F.D. properties file   722 does not exist.
 End of Minotr F.D. properties file   788 does not exist.
 Leave Link 1002 at Sat Mar  4 12:40:56 2023, MaxMem=  1048576000 cpu:            2206.1 elap:            2215.5
 (Enter /ssoft/spack/external/gaussian/g16-C.01/avx2/g16/l601.exe)
 Copying SCF densities to generalized density rwf, IOpCl= 0 IROHF=0.

 **********************************************************************

            Population analysis using the SCF Density.

 **********************************************************************

 Orbital symmetries:
       Occupied  (A) (A) (A) (A) (A) (A) (A) (A) (A) (A) (A) (A)
                 (A) (A) (A) (A) (A) (A) (A) (A) (A) (A) (A) (A)
                 (A) (A) (A) (A) (A) (A) (A) (A) (A) (A) (A) (A)
                 (A) (A) (A) (A) (A) (A) (A) (A) (A) (A) (A) (A)
                 (A) (A) (A) (A) (A) (A) (A) (A) (A) (A) (A) (A)
                 (A) (A) (A) (A) (A) (A) (A) (A) (A) (A) (A) (A)
                 (A) (A) (A) (A) (A) (A) (A) (A) (A) (A) (A) (A)
                 (A) (A) (A) (A)
       Virtual   (A) (A) (A) (A) (A) (A) (A) (A) (A) (A) (A) (A)
                 (A) (A) (A) (A) (A) (A) (A) (A) (A) (A) (A) (A)
                 (A) (A) (A) (A) (A) (A) (A) (A) (A) (A) (A) (A)
                 (A) (A) (A) (A) (A) (A) (A) (A) (A) (A) (A) (A)
                 (A) (A) (A) (A) (A) (A) (A) (A) (A) (A) (A) (A)
                 (A) (A) (A) (A) (A) (A) (A) (A) (A) (A) (A) (A)
                 (A) (A) (A) (A) (A) (A) (A) (A) (A) (A) (A) (A)
                 (A) (A) (A) (A) (A) (A) (A) (A) (A) (A) (A) (A)
                 (A) (A) (A) (A) (A) (A) (A) (A) (A) (A) (A) (A)
                 (A) (A) (A) (A) (A) (A) (A) (A) (A) (A) (A) (A)
                 (A) (A) (A) (A) (A) (A) (A) (A) (A) (A) (A) (A)
                 (A) (A) (A) (A) (A) (A) (A) (A) (A) (A) (A) (A)
                 (A) (A) (A) (A) (A) (A) (A) (A) (A) (A) (A) (A)
                 (A) (A) (A) (A) (A) (A) (A) (A) (A) (A) (A) (A)
                 (A) (A) (A) (A) (A) (A) (A) (A) (A) (A) (A) (A)
                 (A) (A) (A) (A) (A) (A) (A) (A) (A) (A) (A) (A)
                 (A) (A) (A) (A) (A) (A) (A) (A) (A) (A) (A) (A)
                 (A) (A) (A) (A) (A) (A) (A) (A) (A) (A) (A) (A)
                 (A) (A) (A) (A) (A) (A) (A) (A) (A) (A) (A) (A)
                 (A) (A) (A) (A) (A) (A) (A) (A) (A) (A) (A) (A)
                 (A) (A) (A) (A) (A) (A) (A) (A) (A) (A) (A) (A)
                 (A) (A) (A) (A) (A) (A) (A) (A) (A) (A) (A) (A)
                 (A) (A) (A) (A) (A) (A) (A) (A) (A) (A) (A) (A)
                 (A) (A) (A) (A) (A) (A) (A) (A) (A) (A) (A) (A)
                 (A) (A) (A) (A) (A) (A) (A) (A) (A) (A) (A) (A)
                 (A) (A) (A) (A)
 The electronic state is 1-A.
 Alpha  occ. eigenvalues -- -483.19439 -62.62819 -56.41807 -56.41461 -56.41453
 Alpha  occ. eigenvalues --  -19.19383 -14.44386 -14.36966 -14.35803 -10.31281
 Alpha  occ. eigenvalues --  -10.28974 -10.28787 -10.28140 -10.26098 -10.25706
 Alpha  occ. eigenvalues --  -10.25091 -10.24542 -10.24494 -10.23785 -10.23637
 Alpha  occ. eigenvalues --  -10.23104 -10.22356 -10.21875 -10.21549 -10.16587
 Alpha  occ. eigenvalues --   -8.77443  -6.58915  -6.57643  -6.57621  -2.67477
 Alpha  occ. eigenvalues --   -2.67104  -2.67088  -2.66066  -2.66066  -1.04459
 Alpha  occ. eigenvalues --   -1.02271  -0.95233  -0.91451  -0.90750  -0.84293
 Alpha  occ. eigenvalues --   -0.82723  -0.81548  -0.79837  -0.78091  -0.77873
 Alpha  occ. eigenvalues --   -0.76358  -0.70513  -0.68464  -0.66993  -0.66086
 Alpha  occ. eigenvalues --   -0.63989  -0.63058  -0.59785  -0.56829  -0.55614
 Alpha  occ. eigenvalues --   -0.54987  -0.52484  -0.51759  -0.51645  -0.51072
 Alpha  occ. eigenvalues --   -0.49778  -0.49406  -0.48478  -0.47745  -0.47065
 Alpha  occ. eigenvalues --   -0.46272  -0.44995  -0.43010  -0.42327  -0.41387
 Alpha  occ. eigenvalues --   -0.41109  -0.40693  -0.39740  -0.39387  -0.38867
 Alpha  occ. eigenvalues --   -0.37986  -0.37010  -0.33526  -0.32129  -0.30300
 Alpha  occ. eigenvalues --   -0.29707  -0.28835  -0.28053  -0.27404  -0.26718
 Alpha  occ. eigenvalues --   -0.26326  -0.23284  -0.22305
 Alpha virt. eigenvalues --   -0.02945  -0.02136  -0.01003  -0.00350   0.02477
 Alpha virt. eigenvalues --    0.04652   0.07483   0.10515   0.10878   0.11239
 Alpha virt. eigenvalues --    0.12817   0.13221   0.13537   0.13820   0.15002
 Alpha virt. eigenvalues --    0.15118   0.15367   0.15885   0.17180   0.17391
 Alpha virt. eigenvalues --    0.18058   0.18847   0.19410   0.19633   0.20527
 Alpha virt. eigenvalues --    0.20835   0.22178   0.23724   0.24822   0.25702
 Alpha virt. eigenvalues --    0.26058   0.27747   0.28199   0.28875   0.29578
 Alpha virt. eigenvalues --    0.30609   0.31712   0.32332   0.32702   0.33578
 Alpha virt. eigenvalues --    0.33975   0.34644   0.37791   0.38879   0.39700
 Alpha virt. eigenvalues --    0.41188   0.41329   0.41966   0.42761   0.45117
 Alpha virt. eigenvalues --    0.45261   0.45757   0.46527   0.47432   0.47950
 Alpha virt. eigenvalues --    0.48381   0.49306   0.50105   0.50821   0.51269
 Alpha virt. eigenvalues --    0.51797   0.51922   0.52423   0.53109   0.53296
 Alpha virt. eigenvalues --    0.54049   0.54827   0.55742   0.56051   0.56805
 Alpha virt. eigenvalues --    0.58074   0.59592   0.59704   0.60343   0.61483
 Alpha virt. eigenvalues --    0.61805   0.62381   0.64583   0.65170   0.65580
 Alpha virt. eigenvalues --    0.66491   0.66708   0.67888   0.68204   0.68554
 Alpha virt. eigenvalues --    0.70076   0.70310   0.71298   0.71793   0.72450
 Alpha virt. eigenvalues --    0.72782   0.73748   0.74246   0.74984   0.75249
 Alpha virt. eigenvalues --    0.75580   0.76073   0.76699   0.77542   0.77840
 Alpha virt. eigenvalues --    0.78193   0.78661   0.79107   0.79347   0.79441
 Alpha virt. eigenvalues --    0.80216   0.80661   0.81495   0.82043   0.82922
 Alpha virt. eigenvalues --    0.83564   0.84240   0.84747   0.85399   0.86589
 Alpha virt. eigenvalues --    0.87780   0.89883   0.92413   0.93251   0.94168
 Alpha virt. eigenvalues --    0.96077   0.97208   0.98117   0.98712   0.99480
 Alpha virt. eigenvalues --    1.03253   1.04320   1.05693   1.08317   1.08914
 Alpha virt. eigenvalues --    1.09987   1.12237   1.13585   1.15003   1.15878
 Alpha virt. eigenvalues --    1.17940   1.19916   1.20293   1.20987   1.22299
 Alpha virt. eigenvalues --    1.22564   1.23922   1.24143   1.25717   1.26985
 Alpha virt. eigenvalues --    1.28176   1.29727   1.30013   1.30556   1.31846
 Alpha virt. eigenvalues --    1.32509   1.35734   1.37131   1.37596   1.40051
 Alpha virt. eigenvalues --    1.40578   1.42127   1.45227   1.45999   1.48908
 Alpha virt. eigenvalues --    1.50193   1.50440   1.51402   1.54709   1.54982
 Alpha virt. eigenvalues --    1.58826   1.60739   1.61975   1.65204   1.66933
 Alpha virt. eigenvalues --    1.68049   1.69625   1.71568   1.72254   1.73637
 Alpha virt. eigenvalues --    1.74318   1.76504   1.76912   1.77614   1.80181
 Alpha virt. eigenvalues --    1.81883   1.82633   1.83327   1.84925   1.85485
 Alpha virt. eigenvalues --    1.85734   1.86069   1.86545   1.87940   1.88577
 Alpha virt. eigenvalues --    1.89603   1.90344   1.90819   1.91344   1.92413
 Alpha virt. eigenvalues --    1.92607   1.94135   1.95255   1.96203   1.96602
 Alpha virt. eigenvalues --    1.99367   1.99874   2.00962   2.01277   2.02749
 Alpha virt. eigenvalues --    2.02862   2.06391   2.07148   2.07544   2.08745
 Alpha virt. eigenvalues --    2.09611   2.10301   2.11993   2.13329   2.14282
 Alpha virt. eigenvalues --    2.16079   2.17253   2.17640   2.18456   2.19246
 Alpha virt. eigenvalues --    2.20229   2.21735   2.22687   2.24537   2.25563
 Alpha virt. eigenvalues --    2.26435   2.26699   2.28024   2.30540   2.31785
 Alpha virt. eigenvalues --    2.32696   2.33893   2.36219   2.37696   2.39905
 Alpha virt. eigenvalues --    2.40732   2.43734   2.44030   2.45621   2.49094
 Alpha virt. eigenvalues --    2.49196   2.50959   2.51841   2.55279   2.55566
 Alpha virt. eigenvalues --    2.57880   2.58584   2.61245   2.62977   2.64422
 Alpha virt. eigenvalues --    2.65292   2.66379   2.67220   2.69834   2.70576
 Alpha virt. eigenvalues --    2.71760   2.73576   2.75041   2.75389   2.78483
 Alpha virt. eigenvalues --    2.81540   2.83496   2.84739   2.85400   2.87517
 Alpha virt. eigenvalues --    2.91603   2.92489   2.95421   2.99736   3.01491
 Alpha virt. eigenvalues --    3.03305   3.05976   3.09573   3.11404   3.13801
 Alpha virt. eigenvalues --    3.16961   3.20108   3.21490   3.21711   3.22992
 Alpha virt. eigenvalues --    3.23374   3.23829   3.24885   3.26117   3.27887
 Alpha virt. eigenvalues --    3.28518   3.34065   3.36272   3.37658   3.39551
 Alpha virt. eigenvalues --    3.41592   3.45455   3.47649   3.49418   3.51755
 Alpha virt. eigenvalues --    3.53477   3.54448   3.54759   3.57331   3.67507
 Alpha virt. eigenvalues --    3.84122   3.87051   3.89455   3.95657
     Molecular Orbital Coefficients:
                          84        85        86        87        88
                           O         O         O         O         O
     Eigenvalues --    -0.27404  -0.26718  -0.26326  -0.23284  -0.22305
   1 1   O  1S         -0.00455  -0.01545  -0.01128  -0.00674  -0.00759
   2        2S         -0.00942  -0.03145  -0.02514  -0.01243  -0.01568
   3        3S         -0.03708  -0.05788  -0.01724  -0.04912  -0.04346
   4        4PX         0.31577  -0.09644   0.37887  -0.08485   0.01119
   5        4PY        -0.15455   0.07355  -0.08547   0.02283  -0.07811
   6        4PZ        -0.02820   0.07776  -0.05915   0.06010   0.07419
   7        5PX         0.22789  -0.07359   0.28223  -0.06067   0.00538
   8        5PY        -0.11420   0.05295  -0.06203   0.01695  -0.06267
   9        5PZ        -0.01506   0.05990  -0.05785   0.04353   0.05877
  10        6D 0       -0.00066  -0.00105   0.00122   0.00047   0.00057
  11        6D+1       -0.00487   0.00302  -0.00176   0.00057   0.00124
  12        6D-1        0.00090   0.00318   0.00080   0.00263   0.00227
  13        6D+2        0.00624  -0.00283   0.00379  -0.00040   0.00178
  14        6D-2        0.00440  -0.00012   0.00658  -0.00167  -0.00098
  15 2   N  1S          0.08552  -0.00854  -0.01894   0.06268  -0.00531
  16        2S          0.18321  -0.01920  -0.03912   0.13786  -0.01364
  17        3S          0.24400  -0.01273   0.01940   0.10317   0.00031
  18        4PX         0.26467  -0.02665  -0.21670   0.30647  -0.09708
  19        4PY         0.09327   0.01214   0.04949   0.00111  -0.10254
  20        4PZ        -0.11998   0.04773   0.04607  -0.09670  -0.23662
  21        5PX        -0.18098   0.01967   0.17823  -0.21322   0.08643
  22        5PY        -0.07522  -0.00216  -0.03252   0.02070   0.07739
  23        5PZ         0.07354  -0.03313  -0.04796   0.07819   0.18790
  24        6D 0        0.00419   0.00136  -0.00571   0.00679  -0.00924
  25        6D+1        0.00941  -0.00246  -0.00535   0.00766   0.00644
  26        6D-1        0.00374  -0.00286   0.00216   0.00107   0.00257
  27        6D+2       -0.00538   0.00215   0.00323  -0.00988   0.00096
  28        6D-2       -0.00477  -0.00118  -0.00223  -0.00399   0.00563
  29 3   N  1S          0.02862   0.00135  -0.04591  -0.08037  -0.00449
  30        2S          0.05979   0.00154  -0.09378  -0.17297  -0.01054
  31        3S          0.05604   0.01696  -0.11234  -0.15628   0.00616
  32        4PX         0.03992   0.00683  -0.09819  -0.17400   0.01169
  33        4PY        -0.06859  -0.00682   0.20352   0.31258  -0.00899
  34        4PZ        -0.14196  -0.00498   0.10481   0.20690   0.04816
  35        5PX        -0.03632   0.00531   0.06466   0.12559   0.00887
  36        5PY         0.06279   0.00668  -0.16008  -0.21563  -0.00058
  37        5PZ         0.09849   0.00587  -0.09148  -0.14561  -0.03747
  38        6D 0       -0.00185   0.00450  -0.00367  -0.00423   0.00100
  39        6D+1        0.00256   0.01230  -0.00089  -0.00438  -0.00109
  40        6D-1       -0.00505   0.00272   0.00707   0.01291   0.00103
  41        6D+2       -0.00249   0.00406  -0.00054  -0.00462   0.00208
  42        6D-2       -0.00080  -0.00725  -0.00483  -0.00671   0.00353
  43 4   C  1S          0.02607  -0.00828  -0.02053  -0.00907  -0.00700
  44        2S         -0.06756   0.01908   0.05090   0.01771   0.02301
  45        3S         -0.00786   0.03751   0.10916   0.20001  -0.06967
  46        4PX         0.09916   0.00685  -0.15190   0.04997  -0.02717
  47        4PY        -0.00866   0.01410  -0.00251  -0.11723  -0.03996
  48        4PZ         0.02695  -0.01540  -0.00869  -0.05707  -0.02660
  49        5PX         0.09468  -0.01259   0.08298  -0.09683   0.00523
  50        5PY        -0.03891  -0.00716  -0.03185  -0.10336  -0.01761
  51        5PZ         0.04155   0.00322  -0.06602  -0.07066   0.03766
  52        6D 0       -0.00657  -0.00955  -0.00412  -0.00226  -0.00894
  53        6D+1        0.00371  -0.00708   0.01984  -0.00604   0.00210
  54        6D-1       -0.00158   0.00088  -0.00556   0.00748   0.01459
  55        6D+2        0.00988  -0.00268  -0.01479   0.01509  -0.00680
  56        6D-2       -0.01298   0.00418  -0.00928   0.00458   0.00714
  57 5   C  1S         -0.00704  -0.00987   0.03152  -0.01823   0.00565
  58        2S          0.01888   0.02855  -0.07623   0.04867  -0.01465
  59        3S         -0.05650  -0.00126  -0.20088   0.11936  -0.00561
  60        4PX        -0.07221  -0.02855   0.14407  -0.08503   0.05889
  61        4PY        -0.03004  -0.01524   0.00790   0.00318   0.07990
  62        4PZ        -0.07258   0.00931  -0.10322   0.04624   0.14731
  63        5PX        -0.01370  -0.03542   0.14183  -0.00098   0.00885
  64        5PY        -0.04473   0.02535   0.10931  -0.08168   0.09107
  65        5PZ        -0.05874  -0.00054  -0.11305   0.06991   0.11110
  66        6D 0        0.00062  -0.00399   0.00204  -0.00073  -0.00670
  67        6D+1       -0.00705  -0.00322   0.00006   0.00143   0.00004
  68        6D-1        0.00106   0.00368  -0.00225  -0.00128   0.00615
  69        6D+2       -0.00346  -0.00140  -0.00319   0.00054  -0.00386
  70        6D-2        0.00257  -0.00090  -0.00355   0.00644   0.00343
  71 6   C  1S          0.01486   0.00217  -0.00371   0.00889   0.00138
  72        2S         -0.03607  -0.00272   0.00686  -0.01979  -0.00288
  73        3S         -0.07522   0.04670   0.02604  -0.12175   0.03980
  74        4PX         0.02241  -0.01613  -0.05182   0.04980  -0.01776
  75        4PY        -0.06387  -0.02925   0.01700  -0.00108  -0.02699
  76        4PZ        -0.13240  -0.08422  -0.03921   0.04779  -0.05820
  77        5PX        -0.03790  -0.01492  -0.10784   0.07869  -0.01359
  78        5PY        -0.03611  -0.01034   0.02591  -0.04218   0.00012
  79        5PZ        -0.07005  -0.07347  -0.01130   0.04331  -0.04862
  80        6D 0        0.00266   0.00155   0.00098  -0.00104   0.00298
  81        6D+1       -0.00118  -0.00193   0.00265  -0.00133  -0.01120
  82        6D-1       -0.00125   0.00014  -0.00388   0.00251   0.00363
  83        6D+2        0.00505   0.00153  -0.00347   0.00272  -0.00491
  84        6D-2        0.00037  -0.00160  -0.00013   0.00112  -0.00639
  85 7   C  1S          0.02330  -0.00269  -0.02180  -0.01519  -0.02726
  86        2S         -0.06101   0.01102   0.06388   0.04138   0.06663
  87        3S         -0.03009  -0.02414  -0.07409  -0.11914   0.07492
  88        4PX         0.01776   0.01814  -0.06304  -0.11100   0.04244
  89        4PY        -0.10454  -0.15295   0.03191   0.03659   0.11580
  90        4PZ         0.00715   0.23160   0.09102   0.04605   0.00180
  91        5PX        -0.03273   0.01670  -0.03376  -0.02950   0.07410
  92        5PY        -0.02207  -0.11955   0.03335  -0.11067   0.09729
  93        5PZ         0.02633   0.13308   0.07088  -0.06860   0.01213
  94        6D 0       -0.00088  -0.00897  -0.00311  -0.00396   0.00305
  95        6D+1       -0.00748   0.00301   0.00876   0.01247   0.00406
  96        6D-1       -0.00094  -0.00272  -0.00045  -0.00264   0.00216
  97        6D+2        0.00094  -0.00534  -0.00124   0.00671   0.00108
  98        6D-2       -0.00605  -0.00287   0.01161   0.01994   0.00273
  99 8   C  1S          0.01111   0.00099  -0.01587  -0.02727  -0.00416
 100        2S         -0.02537  -0.00283   0.03567   0.06720   0.01038
 101        3S         -0.01063   0.00769  -0.02329   0.03075   0.00554
 102        4PX        -0.00205  -0.01415  -0.00570   0.00113   0.01189
 103        4PY        -0.06485   0.15223   0.09660   0.11521   0.00460
 104        4PZ        -0.01697  -0.23056   0.02813   0.07737   0.02797
 105        5PX         0.00782  -0.00809  -0.02221   0.00416   0.00342
 106        5PY        -0.01038   0.10557   0.00361  -0.03667   0.00303
 107        5PZ         0.01973  -0.15199  -0.01624  -0.02289   0.01598
 108        6D 0        0.00673   0.00827  -0.00154  -0.00723  -0.00343
 109        6D+1       -0.00023  -0.00362   0.00324   0.00515  -0.00044
 110        6D-1        0.00494   0.00373  -0.00423  -0.00973  -0.00127
 111        6D+2       -0.00317   0.00315   0.01326   0.02137  -0.00284
 112        6D-2       -0.00396   0.00292   0.00635   0.00993   0.00050
 113 9   C  1S         -0.00628   0.00083   0.01427   0.02411  -0.00104
 114        2S          0.01664  -0.00268  -0.03967  -0.06344   0.00139
 115        3S          0.00807  -0.01251   0.03405  -0.08207   0.02039
 116        4PX        -0.02900  -0.02273   0.02973   0.05187   0.00652
 117        4PY         0.07359   0.15042  -0.03401  -0.09488  -0.04003
 118        4PZ        -0.02236  -0.22124  -0.09980  -0.08211   0.04993
 119        5PX        -0.04266  -0.02091   0.08091   0.10802   0.01310
 120        5PY         0.04166   0.10707   0.01736  -0.05028  -0.02581
 121        5PZ        -0.02054  -0.16293  -0.04973  -0.05271   0.04414
 122        6D 0        0.00103  -0.00788  -0.00123  -0.00021   0.00042
 123        6D+1       -0.00400   0.00357   0.00129   0.00223   0.00094
 124        6D-1       -0.00039  -0.00351   0.00076   0.00206   0.00029
 125        6D+2        0.00076  -0.00415  -0.00112  -0.00183   0.00007
 126        6D-2        0.00043  -0.00265   0.00311   0.00387   0.00079
 127 10  C  1S         -0.00481   0.00034   0.01398   0.01946   0.00750
 128        2S          0.01413   0.00204  -0.04050  -0.05547  -0.01749
 129        3S          0.04971  -0.03156   0.11209  -0.09937  -0.01327
 130        4PX        -0.03996  -0.00395   0.03645   0.06249   0.00512
 131        4PY         0.04835  -0.16252  -0.08619  -0.09038   0.00222
 132        4PZ         0.02064   0.23486  -0.01373  -0.05984  -0.06734
 133        5PX        -0.00184   0.02278  -0.05705   0.01208  -0.02159
 134        5PY         0.03406  -0.11403  -0.04385  -0.07517   0.00451
 135        5PZ         0.02442   0.16562   0.00964  -0.04508  -0.04651
 136        6D 0        0.00449   0.00827   0.00117  -0.00144  -0.00164
 137        6D+1        0.00093  -0.00396  -0.00000  -0.00117   0.00216
 138        6D-1        0.00250   0.00368   0.00048  -0.00138   0.00046
 139        6D+2        0.00134   0.00387   0.00419   0.00509  -0.00303
 140        6D-2       -0.00012   0.00373   0.00050  -0.00102   0.00064
 141 11  C  1S         -0.00020  -0.00729  -0.00909  -0.00061   0.00637
 142        2S         -0.00409   0.01948   0.02349   0.00009  -0.01216
 143        3S          0.01040   0.00879   0.02454  -0.01162  -0.03283
 144        4PX        -0.06920   0.02039  -0.10764   0.01405  -0.00022
 145        4PY         0.03837  -0.03661   0.01836  -0.01928  -0.02233
 146        4PZ         0.01163  -0.04920  -0.00669  -0.02344  -0.00632
 147        5PX         0.00430  -0.00463   0.02406  -0.02478   0.00466
 148        5PY        -0.02951   0.00314  -0.01785  -0.01489  -0.02790
 149        5PZ         0.00339  -0.02043  -0.02301  -0.01885  -0.01056
 150        6D 0        0.00189  -0.00094   0.00556  -0.00258  -0.00198
 151        6D+1       -0.00713   0.00412  -0.00703   0.00295  -0.00087
 152        6D-1        0.00334   0.00149   0.00478   0.00095   0.00009
 153        6D+2       -0.01463   0.00460  -0.01661   0.00344  -0.00178
 154        6D-2       -0.00870   0.00449  -0.00940   0.00338   0.00043
 155 12  C  1S         -0.00278   0.00439  -0.00693   0.00437   0.00210
 156        2S          0.00989  -0.01044   0.01429  -0.00992  -0.00399
 157        3S         -0.02250  -0.00460   0.06414  -0.01639  -0.00819
 158        4PX         0.01328  -0.00614   0.01713  -0.00177   0.00103
 159        4PY        -0.00328   0.00350   0.00074  -0.00029   0.01178
 160        4PZ        -0.01657   0.03329  -0.02921   0.02380   0.00991
 161        5PX        -0.01157   0.00573  -0.02871   0.01211  -0.00213
 162        5PY         0.02744  -0.01181   0.04307  -0.01112   0.00149
 163        5PZ         0.00481   0.01251  -0.01165   0.01441  -0.00197
 164        6D 0       -0.00011   0.00129   0.00113   0.00058   0.00103
 165        6D+1        0.00112   0.00040   0.00147   0.00033   0.00061
 166        6D-1       -0.00208   0.00240  -0.00260   0.00151   0.00187
 167        6D+2       -0.00390   0.00171  -0.00426   0.00085   0.00031
 168        6D-2       -0.00167   0.00077  -0.00228   0.00053   0.00040
 169 13  H  1S         -0.02200  -0.00995   0.00698  -0.00985   0.00120
 170        2S          0.01933  -0.00499   0.04172  -0.02253   0.00514
 171        3PX        -0.00188  -0.00081  -0.00232   0.00064  -0.00044
 172        3PY        -0.00205  -0.00221   0.00035  -0.00007  -0.00066
 173        3PZ        -0.00264  -0.00326   0.00006   0.00135  -0.00181
 174 14  H  1S         -0.02725  -0.00396   0.05296   0.08751  -0.00373
 175        2S         -0.00868  -0.00316   0.02591   0.05804  -0.00555
 176        3PX        -0.00032  -0.00052   0.00034  -0.00048   0.00030
 177        3PY        -0.00214   0.00573   0.00357   0.00491  -0.00015
 178        3PZ        -0.00081  -0.00887   0.00071   0.00322   0.00113
 179 15  H  1S         -0.03104  -0.01036   0.03319   0.05505  -0.00452
 180        2S         -0.02953  -0.01362   0.03695   0.06292   0.01021
 181        3PX         0.00176   0.00129   0.00050  -0.00065   0.00043
 182        3PY         0.00244  -0.00598  -0.00295  -0.00281  -0.00007
 183        3PZ         0.00024   0.00911  -0.00041  -0.00172  -0.00241
 184 16  H  1S         -0.09459   0.03690  -0.12767   0.02873  -0.00567
 185        2S         -0.08341   0.02406  -0.12183   0.04021  -0.00264
 186        3PX        -0.00016  -0.00086   0.00057   0.00022   0.00099
 187        3PY         0.00165  -0.00099   0.00001  -0.00034   0.00005
 188        3PZ        -0.00014  -0.00055  -0.00116  -0.00003  -0.00099
 189 17  H  1S          0.08306  -0.03489   0.08848  -0.02116  -0.00479
 190        2S          0.09798  -0.03989   0.06346   0.00958   0.04785
 191        3PX        -0.00159   0.00039  -0.00284  -0.00006  -0.00152
 192        3PY        -0.00164  -0.00018  -0.00169  -0.00061   0.00151
 193        3PZ         0.00186  -0.00176   0.00234  -0.00115  -0.00361
 194 18  H  1S          0.02015  -0.01320   0.02159  -0.00732  -0.01310
 195        2S          0.04822  -0.02168   0.04721  -0.01627  -0.00227
 196        3PX         0.00054  -0.00015   0.00132  -0.00027   0.00032
 197        3PY        -0.00019   0.00001   0.00060  -0.00035  -0.00022
 198        3PZ        -0.00164   0.00110  -0.00155   0.00074  -0.00047
 199 19  H  1S         -0.00747   0.02174  -0.00963   0.01440   0.01616
 200        2S         -0.01269   0.01779  -0.02073   0.01239   0.01562
 201        3PX         0.00107  -0.00094   0.00161  -0.00067  -0.00031
 202        3PY        -0.00032  -0.00028  -0.00092  -0.00006   0.00025
 203        3PZ        -0.00038   0.00074  -0.00070   0.00044   0.00028
 204 20  H  1S         -0.01823   0.00565  -0.02343   0.00125  -0.00299
 205        2S         -0.02864   0.01548  -0.07990   0.01697   0.00021
 206        3PX         0.00021  -0.00002  -0.00006  -0.00030  -0.00010
 207        3PY        -0.00054   0.00040  -0.00033   0.00013   0.00058
 208        3PZ         0.00038   0.00047   0.00046   0.00023   0.00031
 209 21  C  1S         -0.00065  -0.00118   0.00010   0.00342  -0.00446
 210        2S          0.00274   0.00225   0.00093  -0.00946   0.00917
 211        3S          0.02864   0.03118  -0.14846  -0.08828  -0.01008
 212        4PX         0.00628   0.00790  -0.01114  -0.01577   0.00980
 213        4PY         0.03230   0.00168   0.03498   0.02013   0.00784
 214        4PZ        -0.07328   0.00504  -0.00723   0.00602   0.02608
 215        5PX        -0.01379  -0.00087   0.02739   0.02015   0.01388
 216        5PY         0.02981   0.01048  -0.02215  -0.00045  -0.00011
 217        5PZ        -0.04630   0.01503  -0.04053  -0.00986   0.01218
 218        6D 0        0.00041   0.00621  -0.00029  -0.00169  -0.00184
 219        6D+1        0.00009   0.01508   0.00544   0.00401  -0.00288
 220        6D-1        0.00140   0.00433  -0.00169  -0.00234  -0.00206
 221        6D+2       -0.00269   0.00475   0.00347   0.00404   0.00027
 222        6D-2       -0.00399  -0.00993   0.00182   0.00508   0.00331
 223 22  H  1S          0.02579   0.00216  -0.03562  -0.04207  -0.01331
 224        2S          0.01803   0.00491  -0.02815  -0.03045  -0.01084
 225        3PX         0.00018   0.00015  -0.00045  -0.00074   0.00033
 226        3PY         0.00178  -0.00004   0.00110   0.00019   0.00004
 227        3PZ        -0.00232  -0.00000  -0.00046  -0.00013   0.00102
 228 23  Br 1S          0.00005  -0.00005  -0.00025   0.00028  -0.00006
 229        2S         -0.00014   0.00012   0.00066  -0.00075   0.00016
 230        3S          0.00067  -0.00062  -0.00348   0.00387  -0.00084
 231        4S          0.00037   0.00105   0.00697  -0.00616   0.00158
 232        5S         -0.00706  -0.00199  -0.00446  -0.00034  -0.00107
 233        6PX         0.00909   0.00484  -0.01070   0.00523   0.00656
 234        6PY         0.00940   0.01267  -0.00361  -0.00160   0.01807
 235        6PZ         0.01241   0.02021  -0.00219  -0.00195   0.03024
 236        7PX        -0.02800  -0.01493   0.03301  -0.01613  -0.02025
 237        7PY        -0.02897  -0.03907   0.01112   0.00494  -0.05578
 238        7PZ        -0.03825  -0.06230   0.00676   0.00599  -0.09333
 239        8PX         0.04214   0.02272  -0.05051   0.02448   0.03089
 240        8PY         0.04358   0.05933  -0.01648  -0.00762   0.08516
 241        8PZ         0.05811   0.09474  -0.01056  -0.00886   0.14243
 242        9PX         0.05552   0.02788  -0.05595   0.02948   0.04029
 243        9PY         0.05338   0.06951  -0.02217  -0.00896   0.10841
 244        9PZ         0.06861   0.11286  -0.01121  -0.01287   0.18271
 245       10D 0        0.00017  -0.00050   0.00033   0.00013  -0.00303
 246       10D+1       -0.00099  -0.00179  -0.00012   0.00066  -0.00672
 247       10D-1        0.00007   0.00093   0.00003  -0.00037   0.00445
 248       10D+2       -0.00119  -0.00128   0.00133  -0.00070  -0.00467
 249       10D-2       -0.00065  -0.00059   0.00030   0.00026  -0.00239
 250       11D 0        0.00014   0.00004   0.00002  -0.00007  -0.00001
 251       11D+1        0.00005   0.00004   0.00004  -0.00004   0.00008
 252       11D-1       -0.00005  -0.00009  -0.00003   0.00005  -0.00007
 253       11D+2        0.00032   0.00000   0.00012  -0.00006   0.00004
 254       11D-2       -0.00004  -0.00004  -0.00017   0.00006   0.00002
 255       12D 0       -0.00080   0.00046  -0.00108   0.00041   0.00551
 256       12D+1        0.00096   0.00247   0.00040  -0.00120   0.01182
 257       12D-1        0.00043  -0.00087  -0.00020   0.00064  -0.00775
 258       12D+2       -0.00003   0.00196  -0.00275   0.00162   0.00833
 259       12D-2        0.00178   0.00105  -0.00054  -0.00020   0.00421
 260 24  C  1S         -0.00951  -0.00189   0.00703  -0.00681   0.00028
 261        2S          0.02374   0.00562  -0.01307   0.01422  -0.00154
 262        3S          0.05421  -0.02019   0.02311   0.03831  -0.02359
 263        4PX        -0.04309  -0.02406   0.03489  -0.01856  -0.04570
 264        4PY        -0.03203  -0.04259   0.02163  -0.00302  -0.11179
 265        4PZ        -0.02280  -0.05960   0.00527   0.01601  -0.19034
 266        5PX        -0.04075   0.00151  -0.00434  -0.00924  -0.02723
 267        5PY        -0.03496  -0.02845  -0.00890   0.02095  -0.09255
 268        5PZ        -0.01026  -0.03649   0.01711   0.00209  -0.14476
 269        6D 0       -0.00438  -0.00021  -0.00433   0.00344   0.00282
 270        6D+1        0.00519   0.00491   0.00232  -0.00282   0.00401
 271        6D-1        0.00062  -0.00155   0.00178  -0.00104  -0.00319
 272        6D+2        0.00186   0.00248  -0.00097  -0.00019   0.00341
 273        6D-2        0.00521   0.00171  -0.00158   0.00042   0.00046
 274 25  C  1S          0.00497   0.00032   0.00114   0.00048   0.00073
 275        2S         -0.01196  -0.00077  -0.00197  -0.00154  -0.00274
 276        3S         -0.00457   0.01599  -0.01832  -0.02291   0.01748
 277        4PX         0.02606  -0.00500   0.00983  -0.00323  -0.02074
 278        4PY         0.03362  -0.00640   0.03125  -0.02471  -0.04603
 279        4PZ         0.05023  -0.02653   0.06116  -0.03797  -0.08858
 280        5PX         0.01204  -0.01339   0.02154  -0.00327  -0.02431
 281        5PY         0.01684  -0.00113   0.00778  -0.00803  -0.03685
 282        5PZ         0.04381  -0.01807   0.04946  -0.03809  -0.05755
 283        6D 0       -0.00232  -0.00305   0.00074   0.00051  -0.00889
 284        6D+1       -0.00294  -0.00099  -0.00028   0.00029  -0.00412
 285        6D-1        0.00281   0.00246  -0.00057  -0.00045   0.00788
 286        6D+2       -0.00151  -0.00163  -0.00214   0.00164  -0.00693
 287        6D-2        0.00096   0.00089  -0.00084   0.00041   0.00117
 288 26  H  1S          0.01028   0.00262  -0.00918   0.00555  -0.00170
 289        2S          0.01255   0.00440  -0.01068   0.00651   0.00290
 290        3PX         0.00066  -0.00008   0.00015  -0.00013  -0.00075
 291        3PY         0.00132  -0.00026   0.00167  -0.00122  -0.00181
 292        3PZ         0.00217  -0.00079   0.00218  -0.00141  -0.00392
 293 27  N  1S          0.01958  -0.00412  -0.01098   0.02204  -0.00049
 294        2S          0.04420  -0.01051  -0.02381   0.04813  -0.00128
 295        3S          0.08949  -0.00512  -0.06337   0.12470  -0.00037
 296        4PX         0.07326  -0.00750  -0.06414   0.07572   0.10818
 297        4PY         0.01617  -0.00099   0.00280   0.00480   0.13923
 298        4PZ        -0.05084   0.01162   0.03371  -0.05832   0.29579
 299        5PX        -0.06762   0.01059   0.03997  -0.07223  -0.10135
 300        5PY         0.00685  -0.00455  -0.01239   0.00818  -0.13180
 301        5PZ         0.03963  -0.00625  -0.02075   0.04794  -0.26963
 302        6D 0       -0.00046  -0.00153   0.00014  -0.00019  -0.00050
 303        6D+1        0.00233   0.00257  -0.00218   0.00282   0.00355
 304        6D-1        0.00124  -0.00138   0.00024   0.00058  -0.00284
 305        6D+2        0.00137   0.00212  -0.00177   0.00097   0.00219
[...]
 .00005171,0.00000296,0.00003037,-0.00003290,0.00000415,-0.00000238,-0.
 00043551,0.00007391,-0.00039658,-0.00000006,0.00000084,-0.00000024,-0.
 00000571,0.00000462,0.00002196,-0.00002268,-0.00002275,-0.00000576,-0.
 00001359,-0.00001930,-0.00000504,0.00000257,0.00000173,0.00000928,-0.0
 0000458,-0.00000554,-0.00001154,0.00000569,-0.00000096,0.00000172,0.00
 000256,-0.00000070,-0.00002209,-0.00000298,0.00000271,0.00000590,-0.00
 033024,-0.00001393,0.00080208,0.00326876,-0.00293042,0.00557824,-0.003
 12640,0.01323019,0.01703864,-0.00352436,0.00060828,-0.00513105,-0.0028
 3108,0.00074660,-0.00168453,-0.00023356,0.00009000,-0.00023277,-0.1850
 0548,0.22306699,0.36162074,0.01090758,-0.00607442,-0.00375406,-0.00115
 612,-0.00128829,0.00015033,0.00017215,-0.00008875,0.00017537,0.1805595
 8,-0.00019940,-0.00049358,-0.00023337,-0.00043120,0.00039790,0.0005095
 6,0.00004977,-0.00013903,0.00006725,0.00148180,0.00037855,-0.00082463,
 -0.00243927,-0.00608655,-0.00104369,-0.00087963,-0.00114241,0.00091492
 ,-0.00031644,-0.00009193,-0.00007223,0.00001716,-0.00002573,0.00001581
 ,-0.00000221,-0.00002034,0.00000409,0.00002542,0.00000144,0.00001062,0
 .00014345,0.00001841,0.00003889,-0.00002462,0.00000225,-0.00000063,0.0
 0015205,-0.00002755,0.00009884,0.00000841,-0.00000409,0.00000329,-0.00
 001551,-0.00000707,0.00000562,-0.00003033,0.00001057,-0.00000468,-0.00
 001811,0.00001583,-0.00000695,0.00000426,0.00000001,0.00000729,-0.0000
 0163,-0.00000093,-0.00000936,0.00000637,-0.00000033,0.00000045,-0.0000
 0073,0.00001235,-0.00001118,0.00000437,-0.00000356,-0.00000045,-0.0008
 1159,-0.00010398,0.00086009,-0.00371461,-0.00016187,0.00146297,-0.0145
 7630,0.01504417,0.01827759,0.00262794,0.00061370,-0.00030751,0.0020015
 7,0.00292275,0.00040142,0.00045822,-0.00126482,-0.00061336,0.22161152,
 -0.18636697,-0.34151796,0.01891770,-0.01122591,-0.02808341,-0.00018662
 ,-0.00044490,0.00019509,-0.00010291,0.00009707,-0.00000356,-0.22284670
 ,0.18763561,0.00007107,-0.00002794,-0.00006843,0.00013365,-0.00007860,
 -0.00006750,0.00000426,0.00000893,-0.00000244,-0.00041052,0.00032051,-
 0.00017389,0.00252111,-0.00069120,0.00315585,-0.00071103,0.00034313,0.
 00028712,0.00002947,0.00002739,0.00011197,0.00000736,-0.00000011,-0.00
 001264,-0.00000731,0.00000467,-0.00000293,-0.00005276,-0.00001413,-0.0
 0002575,0.00004755,-0.00000378,0.00003104,-0.00002581,0.00000765,-0.00
 000177,-0.00036805,0.00001273,-0.00039899,-0.00000116,0.00000072,-0.00
 000035,0.00000989,0.00001381,0.00001800,-0.00002025,-0.00001067,-0.000
 01151,-0.00001524,-0.00001957,-0.00000012,0.00000147,0.00000144,0.0000
 0729,-0.00000346,-0.00000528,-0.00000979,0.00000388,0.00000057,0.00000
 399,0.00000829,0.00000501,-0.00001947,-0.00000202,0.00000161,0.0000025
 8,0.00050408,-0.00005130,-0.00029326,0.00508994,0.00140001,0.00306616,
 0.00778859,-0.01224750,-0.00550377,-0.00454777,0.00060276,-0.00198666,
 -0.00122453,0.00045009,-0.00234561,-0.00028969,0.00015913,-0.00005190,
 0.36332771,-0.34606382,-0.47834783,0.00329065,0.00425861,0.00577078,0.
 00106149,0.00144195,-0.00049370,0.00009327,-0.00009319,0.00015378,-0.3
 7701895,0.34896916,0.47780772,-0.00009135,-0.00015064,0.00018295,0.000
 03442,0.00098238,0.00136437,-0.00002191,0.00002842,-0.00000983,0.00035
 890,0.00042869,-0.00069166,-0.00053597,0.00013526,0.00081085,0.0004718
 2,0.00042351,-0.00030954,-0.00004997,-0.00005052,0.00011645,0.00002472
 ,-0.00003930,0.00000632,-0.00002983,-0.00000028,-0.00000584,0.00000181
 ,0.00003771,-0.00001773,0.00002117,0.00006340,-0.00005271,-0.00000594,
 -0.00001837,0.00001806,-0.00001009,0.00003301,-0.00002630,0.00000052,0
 .00000338,0.00000189,-0.00001332,-0.00000039,-0.00000331,0.00000449,-0
 .00001501,0.00001900,-0.00001706,0.00000858,-0.00002101,-0.00000295,0.
 00000765,0.00000434,0.00000522,0.00000365,0.00000050,0.00000086,-0.000
 00489,-0.00000919,-0.00001959,-0.00000525,-0.00000843,-0.00000524,0.00
 000618,-0.00000273,0.00002068,0.00001540,-0.00006096,0.00002696,-0.000
 64695,-0.00025053,0.00009011,-0.00026684,0.00046842,-0.00003383,0.0000
 0826,0.00001704,-0.01051610,0.01976447,0.00105832,-0.00264352,-0.00253
 938,-0.00128882,-0.00029633,0.00008306,-0.00078923,0.00238600,0.001561
 67,-0.00183655,-0.13639528,0.24990842,-0.14135359,0.00020481,0.0000484
 2,0.00020840,-0.00138166,-0.00069611,0.00008393,0.13924601,-0.00002876
 ,0.00001605,-0.00040215,-0.00015394,-0.00069190,-0.00111608,0.00004151
 ,-0.00009112,0.00001018,-0.00026032,-0.00004716,0.00050831,-0.00021894
 ,-0.00014661,-0.00003405,0.00013319,0.00047252,-0.00003442,-0.00009447
 ,0.00004886,-0.00015512,0.00000278,0.00003616,0.00001006,0.00001966,-0
 .00003366,0.00001776,0.00005246,-0.00004342,0.00002921,0.00018941,-0.0
 0006987,0.00011712,-0.00003209,0.00000981,-0.00002295,0.00002138,-0.00
 000693,0.00001032,0.00000463,-0.00000627,-0.00000007,-0.00001258,-0.00
 000057,-0.00000802,-0.00000498,0.00001797,-0.00001904,-0.00000368,-0.0
 0002164,0.00002062,0.00000362,-0.00000264,0.00000832,-0.00000615,-0.00
 000397,-0.00002021,0.00001092,-0.00000112,0.00000897,0.00000126,0.0000
 2594,0.00000768,0.00000600,-0.00000398,-0.00000006,0.00002889,0.000084
 42,-0.00008923,0.00020531,-0.00040382,-0.00024425,-0.00027887,-0.00013
 587,0.00073129,-0.00000284,0.00002299,-0.00003360,0.00723296,-0.016427
 12,-0.00006091,0.00321044,0.00069283,0.00035318,-0.00014558,0.00023268
 ,-0.00019054,-0.00150223,0.00000483,0.00064543,0.25184694,-0.45041250,
 0.25046682,0.00036489,0.00003539,0.00024743,-0.00112775,0.00020950,0.0
 0025453,-0.26504740,0.46632579,-0.00000895,0.00010202,-0.00027986,-0.0
 0066745,-0.00135519,-0.00187463,0.00001579,-0.00006269,0.00002358,-0.0
 0029681,-0.00022241,0.00073112,0.00024778,-0.00033971,-0.00091443,-0.0
 0039537,-0.00050170,0.00017821,-0.00004038,0.00006496,-0.00008790,-0.0
 0000595,0.00002892,0.00000157,0.00002144,-0.00001226,0.00000944,0.0000
 2269,-0.00002102,0.00002177,0.00008538,-0.00006344,0.00007161,-0.00001
 361,0.00001240,-0.00001484,0.00002847,-0.00003633,0.00005322,0.0000013
 0,-0.00000445,-0.00000145,0.00000041,-0.00000099,-0.00000360,0.0000045
 6,0.00001686,-0.00002555,0.00000235,-0.00002947,0.00002447,0.00000126,
 -0.00000304,0.00000276,-0.00000398,-0.00000387,-0.00001116,0.00000434,
 0.00000326,0.00000857,0.00001023,0.00000779,0.00000662,0.00000464,-0.0
 0000362,-0.00000054,0.00004260,-0.00002154,0.00000181,-0.00018972,0.00
 063819,0.00027787,0.00037698,0.00008062,-0.00092618,0.00001414,-0.0000
 0233,0.00003405,0.01952688,-0.03545168,0.00874634,0.00441794,0.0004258
 0,-0.00048324,-0.00004839,0.00104192,0.00038489,-0.00181835,-0.0006011
 8,0.00241469,-0.14096566,0.25178853,-0.12946090,0.00012915,-0.00012264
 ,0.00008889,0.00112890,0.00006643,0.00006963,0.13679507,-0.24969049,0.
 13557519,-0.00007205,-0.00002947,0.00015243,-0.00101882,0.00169092,-0.
 00022818,-0.00007540,0.00004713,0.00001364,0.00068706,-0.00002300,-0.0
 0008731,-0.00089603,0.00039366,0.00039480,0.00029253,0.00055453,-0.000
 31756,-0.00004278,0.00003496,-0.00002210,0.00002485,-0.00003981,0.0000
 2583,-0.00003526,-0.00000815,-0.00001376,0.00001573,0.00001280,-0.0000
 1204,-0.00004155,0.00003266,-0.00004654,0.00000392,-0.00000684,0.00000
 672,0.00004948,0.00001956,0.00003109,-0.00000055,0.00000578,0.00000728
 ,-0.00000349,-0.00000419,0.00000794,0.00000151,-0.00000741,0.00001023,
 -0.00000328,0.00000758,-0.00001838,-0.00000018,0.00000220,-0.00000139,
 0.00000159,0.00000162,0.00000657,-0.00000335,-0.00000065,-0.00000360,-
 0.00002198,0.00001292,-0.00000893,-0.00000422,0.00000412,-0.00000052,0
 .00004529,0.00001863,0.00002360,0.00008601,-0.00058217,-0.00032258,-0.
 00080507,0.00002977,0.00028940,0.00003380,0.00000150,0.00001256,0.0153
 2191,0.01532938,0.02886963,-0.00040495,-0.00212203,0.00236040,0.000388
 94,-0.00072263,-0.00044458,0.00218756,0.00067453,-0.00111090,-0.272422
 58,-0.13739782,-0.33263242,-0.00004609,0.00015206,0.00007260,0.0001112
 4,-0.00034027,0.00093521,-0.00876225,-0.00978615,-0.00907392,0.2780331
 6,-0.00003336,-0.00008976,-0.00018311,0.00087945,-0.00122132,0.0001030
 7,0.00007475,-0.00011112,0.00003601,-0.00020658,0.00006183,0.00030338,
 0.00009366,-0.00022882,0.00019916,0.00008628,0.00035041,-0.00005502,-0
 .00003818,0.00004139,-0.00017618,0.00000769,0.00003461,-0.00000365,0.0
 0003147,-0.00003905,0.00002615,0.00006316,-0.00004728,0.00003489,0.000
 08745,-0.00003176,0.00008179,-0.00001075,0.00000106,-0.00001365,-0.000
 01654,0.00000021,-0.00002467,0.00000700,-0.00001198,-0.00000674,-0.000
 01892,0.00000349,-0.00001942,-0.00000127,0.00000665,-0.00000104,0.0000
 0316,0.00000207,0.00000480,0.00000360,-0.00000186,0.00000236,-0.000004
 35,-0.00000047,-0.00001073,0.00000563,-0.00000292,0.00000394,0.0000096
 1,0.00002490,0.00001755,0.00000842,-0.00000493,-0.00000284,0.00009526,
 0.00007015,-0.00008116,0.00014519,-0.00032686,-0.00020295,-0.00036645,
 -0.00007905,0.00008340,0.00001568,0.00001699,0.00002346,-0.00824930,-0
 .01142698,-0.01857386,0.00029925,0.00150211,-0.00269809,0.00080541,0.0
 0062738,-0.00022747,-0.00077560,0.00010853,0.00108380,-0.13662194,-0.0
 6032664,-0.15583033,-0.00026952,0.00038994,-0.00045977,-0.00007890,-0.
 00021035,0.00053656,0.02237069,0.01402170,0.02725921,0.13466852,0.0623
 5353,0.00011558,0.00006103,-0.00031790,0.00098763,-0.00154563,-0.00029
 850,0.00010614,-0.00007533,-0.00001058,-0.00081647,-0.00015238,0.00042
 898,0.00089280,-0.00028635,-0.00060119,-0.00031343,-0.00027184,0.00037
 391,0.00004310,0.00000181,-0.00009199,-0.00003709,0.00006818,-0.000027
 56,0.00005284,-0.00000401,0.00002142,0.00000493,-0.00005537,0.00002989
 ,0.00006774,-0.00007623,0.00009574,-0.00000159,0.00001412,-0.00002300,
 -0.00004507,-0.00002388,-0.00003722,0.00000306,-0.00000990,-0.00000818
 ,0.00000289,0.00000331,-0.00001078,-0.00001344,0.00001486,-0.00001434,
 0.00001447,0.00000345,0.00002268,0.00000333,-0.00000836,-0.00000085,-0
 .00000684,-0.00000230,-0.00000848,0.00000559,0.00000065,0.00000869,0.0
 0003268,0.00000207,0.00001384,0.00000844,-0.00000855,0.00000363,0.0000
 0353,0.00002863,0.00000271,-0.00001701,0.00047857,0.00013981,0.0001373
 7,0.00002851,0.00009255,0.00002069,0.00000410,-0.00005224,-0.00471315,
 -0.01623296,-0.02236891,-0.00011598,0.00406743,-0.00215211,-0.00080532
 ,0.00026420,0.00031331,-0.00250842,-0.00162682,0.00189011,-0.33299320,
 -0.15456543,-0.38381075,0.00009383,-0.00008857,0.00004706,0.00025608,0
 .00071872,-0.00064067,-0.00820208,-0.00864800,-0.00930538,0.33405762,0
 .17067047,0.40004810,0.00001214,0.00007782,-0.00002484,-0.00006380,0.0
 0061244,-0.00005213,-0.00001247,0.00004371,-0.00003188,0.00004772,-0.0
 0030535,0.00000729,-0.00027318,-0.00068961,0.00061057,-0.00007990,0.00
 026961,0.00011650,0.00005310,0.00001539,0.00002956,-0.00001504,0.00000
 212,-0.00000312,-0.00000326,0.00001666,-0.00000777,-0.00001650,-0.0000
 0268,-0.00000494,0.00000001,-0.00002173,0.00000692,-0.00000151,0.00000
 475,-0.00000214,-0.00006054,-0.00005479,0.00002005,-0.00000339,0.00000
 423,0.00000349,0.00001012,-0.00000266,0.00000423,0.00000322,0.00000578
 ,-0.00000848,0.00000141,-0.00000480,0.00000151,-0.00000114,-0.00000107
 ,0.00000014,0.00000029,-0.00000094,-0.00000184,0.00000091,0.00000152,0
 .00000248,0.00000718,-0.00000770,0.00000061,-0.00000115,-0.00000040,0.
 00000259,-0.00002046,-0.00002504,0.00001494,0.00003074,0.00000675,-0.0
 0008704,0.00004939,-0.00016520,0.00002711,-0.00000972,-0.00000352,0.00
 002620,-0.01642476,-0.01054462,0.00842981,0.00138808,-0.00358599,-0.00
 167330,0.00031424,0.00041784,0.00000744,-0.00017293,0.00276584,0.00055
 576,-0.34727213,-0.31731338,0.18633141,0.00061157,0.00068252,0.0000417
 4,-0.00003563,0.00012261,-0.00031418,0.01793642,0.01532546,-0.00935765
 ,-0.01262069,-0.01307688,0.01367216,0.35662348,0.00000505,-0.00003413,
 0.00008596,-0.00035000,0.00065151,0.00056798,-0.00002946,0.00001902,0.
 00001805,0.00022873,-0.00000185,-0.00020445,0.00053382,0.00071569,-0.0
 0067081,0.00002404,-0.00044795,-0.00008322,0.00003383,-0.00001339,-0.0
 0001661,0.00000431,-0.00002027,0.00000270,-0.00000564,0.00000345,-0.00
 000521,-0.00001122,0.00000620,-0.00000363,-0.00003715,0.00002465,-0.00
 003806,0.00000774,-0.00000208,0.00000555,0.00006650,0.00005760,-0.0000
 4305,0.00000119,0.00000141,0.00000035,0.00000015,0.00000029,0.00000008
 ,-0.00000289,-0.00000676,0.00000783,-0.00000088,0.00000816,-0.00000139
 ,-0.00000166,0.,-0.00000226,0.00000170,0.00000023,0.00000514,-0.000002
 71,-0.00000035,-0.00000491,-0.00000362,-0.00000339,-0.00000033,-0.0000
 0062,-0.00000001,-0.00000012,-0.00001667,0.00000145,0.00002619,-0.0000
 4132,0.00015173,0.00012854,0.00001437,0.00031328,-0.00002454,0.0000114
 5,0.00000221,-0.00003892,0.02190596,0.01495822,-0.01279415,0.00196940,
 0.00033307,-0.00166731,-0.00034215,-0.00081503,-0.00008086,0.00164015,
 -0.00342223,-0.00258788,-0.32183082,-0.28202895,0.16980320,-0.00013539
 ,0.00027009,-0.00009852,-0.00000323,0.00046252,0.00048265,-0.02643890,
 -0.01370596,0.00701339,-0.00262149,-0.00545382,0.00724873,0.32542994,0
 .28797558,-0.00009347,-0.00007921,-0.00002110,-0.00045866,-0.00007765,
 -0.00007190,-0.00002722,0.00000522,0.00000473,0.00020958,0.00026874,0.
 00002448,0.00084304,0.00088110,-0.00030156,0.00008827,-0.00036636,-0.0
 0022768,-0.00002275,-0.00002500,-0.00000248,0.00000808,-0.00002176,0.0
 0001116,-0.00001210,-0.00000583,-0.00000518,0.00000249,0.00001193,-0.0
 0000361,0.00008482,0.00001654,-0.00000277,-0.00001898,-0.00000540,0.00
 000386,0.00003744,0.00008331,-0.00008672,0.00000183,0.00000268,0.00000
 465,-0.00001148,0.00000226,0.00000089,-0.00000260,-0.00000357,0.000006
 04,-0.00000923,-0.00000845,0.00000259,-0.00000181,0.00000227,0.0000060
 8,0.00000167,0.00000020,-0.00000911,0.00000620,-0.00000320,-0.00000388
 ,-0.00001436,0.00000184,-0.00000659,-0.00000116,0.00000155,0.00000035,
 0.00002011,0.00003477,-0.00002458,-0.00006388,-0.00002056,0.00005484,0
 .00007509,0.00017056,0.00011615,0.00002451,0.00000349,-0.00002141,0.02
 134596,0.01787787,-0.01599044,0.00023184,0.00287211,0.00172617,0.00004
 145,-0.00059304,0.00000995,0.00142298,-0.00392897,-0.00184440,0.184393
 52,0.16512156,-0.09022842,-0.00024584,-0.00072451,0.00032923,-0.000362
 09,0.00010640,-0.00003310,0.01378307,0.00732607,-0.00533257,-0.0229282
 4,-0.02189567,0.01624415,-0.19834532,-0.16703017,0.09567130,0.00012057
 ,-0.00001695,0.00006459,-0.00017155,0.00008602,0.00000154,-0.00676588,
 -0.00173747,-0.00183777,-0.00019241,0.00026084,0.00028839,-0.00003961,
 -0.00006915,-0.00001708,0.00000912,0.00001087,0.00000185,-0.00035500,-
 0.00250002,0.00051711,-0.01170299,0.02493521,-0.00948693,-0.45304390,0
 .41118490,-0.18570093,0.00096334,-0.00334447,-0.00048652,0.00002523,0.
 00001391,0.00004134,0.00000578,-0.00000599,0.00000082,-0.00000046,0.00
 000067,-0.00001311,0.00157524,-0.00011397,0.00099376,0.00058979,-0.000
 44508,0.00021815,-0.00000655,0.00000361,-0.00000666,0.00000294,-0.0000
 0173,0.00000281,0.00000143,0.00000020,0.00000016,-0.00000138,0.0000036
 2,0.00000054,0.00000203,0.00000049,0.00000469,0.01372869,-0.01407049,0
 .00470709,0.00066223,0.00136575,0.00086179,0.00000515,0.00000581,-0.00
 000568,0.00000667,0.00000681,0.00001176,0.00000508,0.00001149,-0.00000
 667,-0.00000014,-0.00000070,-0.00000270,0.00005072,0.00015886,0.000047
 59,0.00007491,-0.00012924,-0.00011561,0.00000583,-0.00000151,0.0000053
 4,-0.00006008,0.00001024,0.00005463,0.00002346,-0.00000202,-0.00001353
 ,-0.00002108,0.00000876,-0.00001168,-0.00000061,0.00000156,-0.00000012
 ,-0.00000275,0.00000501,0.00000390,-0.00000401,0.00000721,0.00000659,-
 0.00000180,-0.00000252,-0.00000278,0.45451200,-0.00010182,0.00008289,-
 0.00009731,0.00001157,0.00004490,0.00000606,-0.00490632,0.00162568,0.0
 0125852,0.00004701,-0.00004104,-0.00051257,-0.00003971,0.00000521,-0.0
 0002110,-0.00000207,0.00001271,0.00003331,-0.00130687,-0.00143655,0.00
 018870,-0.01349473,0.01462418,-0.00489615,0.40697593,-0.33512409,0.163
 36329,-0.00280957,-0.00472910,0.00355832,0.00000367,-0.00001132,-0.000
 01715,-0.00000858,0.00000559,-0.00000468,0.00000821,0.00000235,-0.0000
 3775,0.00146672,-0.00010199,-0.00102341,0.00139538,-0.00049800,0.00050
 545,-0.00000269,0.00000357,-0.00000417,0.00000215,-0.00000121,0.000001
 27,0.00000035,0.00000031,-0.00000063,0.00000047,-0.00000265,-0.0000034
 3,0.00000003,0.00000051,0.00000202,0.02830992,-0.01377592,0.01048409,0
 .00005468,0.00187135,-0.00246227,-0.00000545,-0.00000627,0.00000542,0.
 00004169,0.00001699,-0.00002932,-0.00002373,-0.00000562,0.00001243,0.0
 0000217,-0.00000045,-0.00000060,0.00005564,0.00007710,0.00000287,0.000
 01139,-0.00004814,-0.00004121,0.00001717,0.00001356,-0.00001744,-0.000
 05729,-0.00002591,0.00006316,0.00000717,0.00000994,0.00000848,-0.00001
 204,0.00000388,-0.00002192,0.00000341,-0.00000073,0.00000349,-0.000001
 98,-0.00000133,-0.00000024,-0.00000273,-0.00000198,0.00000311,0.000001
 36,-0.00000019,-0.00000112,-0.41564054,0.33741175,-0.00041900,0.000135
 40,-0.00035732,0.00017007,0.00007853,-0.00000494,-0.00134876,0.0021566
 1,0.00834169,0.00030681,-0.00056980,-0.00173952,0.00002886,0.00002946,
 0.00001236,-0.00004048,0.00002305,0.00002498,0.00025085,-0.00039576,-0
 .00007188,0.00174576,0.00126421,0.00446676,-0.18478793,0.16321112,-0.0
 2651668,-0.00060008,0.00350966,0.00946571,0.00001074,-0.00007417,-0.00
 005442,-0.00003373,0.00001661,-0.00001630,0.00002192,-0.00000699,0.000
 01876,0.00060716,-0.00128153,-0.00436069,-0.00028924,0.00014252,0.0002
 9685,0.00000156,0.00000185,0.00000308,-0.00000387,0.00000115,-0.000004
 04,0.00000326,0.00000435,0.00000039,-0.00000024,-0.00001012,-0.0000131
 3,-0.00000213,-0.00000090,0.00000452,-0.00692640,0.00442366,0.00585010
 ,0.00147526,-0.00230665,-0.00668333,0.00000348,0.00000499,-0.00000371,
 0.00000145,-0.00007700,-0.00004366,-0.00005426,-0.00000491,0.00004533,
 0.00000276,0.,0.00000486,0.00004306,0.00002194,0.00000566,-0.00004605,
 0.00004423,0.00003169,0.00002873,0.00005513,-0.00002403,-0.00002301,-0
 .00008710,-0.00001358,0.00001131,0.00000201,0.00002023,-0.00001813,0.0
 0000520,-0.00004453,0.00000837,-0.00000152,0.00000615,0.00000107,-0.00
 000412,-0.00000407,-0.00000460,-0.00000365,0.00000402,0.00000211,0.000
 00004,0.00000089,0.18987331,-0.17030753,0.01135179\\-0.00753345,0.0178
 3490,0.00841078,-0.00928475,0.00629360,0.00020111,0.01114500,-0.015447
 59,0.00332691,-0.02076728,-0.02145774,-0.01374406,0.00315993,-0.008639
 02,-0.00629542,-0.02485089,0.02614072,0.04100026,0.00147634,-0.0209884
 7,0.01050734,0.04033274,0.19913274,-0.04930457,-0.13781965,0.06999071,
 -0.03879599,-0.04940635,-0.14623794,0.03609582,0.09710973,-0.10061451,
 -0.01843580,0.00925004,0.06050256,0.09223804,0.03454127,-0.03495358,-0
 .04990426,-0.04809849,-0.17433923,0.04018702,0.03836515,0.17066088,-0.
 04250280,0.01960381,0.12378751,-0.02497205,-0.10053124,-0.01510159,0.0
 7564443,0.11565994,0.00736148,-0.07255388,-0.10426278,0.04878795,-0.07
 710655,-0.02452991,-0.13253373,0.03122490,-0.14394021,-0.03462696,-0.0
 1734235,0.17099404,0.06107062,0.01249162,0.00317740,0.00188726,-0.0006
 7245,0.00106185,-0.00371185,-0.00666062,-0.01976635,-0.19109473,-0.022
 24615,0.02572247,0.21979224,0.01804443,0.02302904,0.03898674,-0.001896
 17,0.25243411,0.08405948,-0.17796949,0.08946891,-0.08667634,-0.1301489
 7,-0.01623717,-0.01749558,0.01586050,0.07664483,-0.06494226,-0.0973612
 4,-0.26273948,-0.11870763,0.16932299,-0.09927015,0.10071829,0.14517136
 ,-0.06285095,0.10903381,-0.05650954,0.08236396,0.04264484,0.10348436,-
 0.09437328,-0.08559441,0.04943250,0.13072187,-0.11552319,0.05177798\\\
 @
 The archive entry for this job was punched.

 Writing a WFNX file to "VOLQOC_Complex_2_Ligand_0_NN_Cu_oriented.wfx"


 ABOVE ALL I AM AN OPTIMIST FOR NUMBER THEORY,
 AND I HOLD THE HOPE THAT WE MAY NOT BE FAR FROM
 A TIME WHEN IRREFUTABLE ARITHMETIC WILL CELEBRATE
 ITS TRIUMPHS IN PHYSICS AND CHEMISTRY.
   -- HERMANN MINKOWSKI, 1905
 Job cpu time:       0 days  1 hours 26 minutes 37.9 seconds.
 Elapsed time:       0 days  1 hours 26 minutes 59.0 seconds.
 File lengths (MBytes):  RWF=   1000 Int=      0 D2E=      0 Chk=     16 Scr=      8
 Normal termination of Gaussian 16 at Sat Mar  4 13:06:37 2023.
