 Entering Gaussian System, Link 0=g16
 Initial command:
 /ssoft/spack/external/gaussian/g16-C.01/avx2/g16/l1.exe "/scratch/lcmd/2387850/Gau-1722276.inp" -scrdir="/scratch/lcmd/2387850/"
 Entering Link 1 = /ssoft/spack/external/gaussian/g16-C.01/avx2/g16/l1.exe PID=   1722281.
  
 Copyright (c) 1988-2019, Gaussian, Inc.  All Rights Reserved.
  
 This is part of the Gaussian(R) 16 program.  It is based on
 the Gaussian(R) 09 system (copyright 2009, Gaussian, Inc.),
 the Gaussian(R) 03 system (copyright 2003, Gaussian, Inc.),
 the Gaussian(R) 98 system (copyright 1998, Gaussian, Inc.),
 the Gaussian(R) 94 system (copyright 1995, Gaussian, Inc.),
 the Gaussian 92(TM) system (copyright 1992, Gaussian, Inc.),
 the Gaussian 90(TM) system (copyright 1990, Gaussian, Inc.),
 the Gaussian 88(TM) system (copyright 1988, Gaussian, Inc.),
 the Gaussian 86(TM) system (copyright 1986, Carnegie Mellon
 University), and the Gaussian 82(TM) system (copyright 1983,
 Carnegie Mellon University). Gaussian is a federally registered
 trademark of Gaussian, Inc.
  
 This software contains proprietary and confidential information,
 including trade secrets, belonging to Gaussian, Inc.
  
 This software is provided under written license and may be
 used, copied, transmitted, or stored only in accord with that
 written license.
  
 The following legend is applicable only to US Government
 contracts under FAR:
  
                    RESTRICTED RIGHTS LEGEND
  
 Use, reproduction and disclosure by the US Government is
 subject to restrictions as set forth in subparagraphs (a)
 and (c) of the Commercial Computer Software - Restricted
 Rights clause in FAR 52.227-19.
  
 Gaussian, Inc.
 340 Quinnipiac St., Bldg. 40, Wallingford CT 06492
  
  
 ---------------------------------------------------------------
 Warning -- This program may not be used in any manner that
 competes with the business of Gaussian, Inc. or will provide
 assistance to any competitor of Gaussian, Inc.  The licensee
 of this program is prohibited from giving any competitor of
 Gaussian, Inc. access to this program.  By using this program,
 the user acknowledges that Gaussian, Inc. is engaged in the
 business of creating and licensing software in the field of
 computational chemistry and represents and warrants to the
 licensee that it is not a competitor of Gaussian, Inc. and that
 it will not use this program in any manner prohibited above.
 ---------------------------------------------------------------
  

 Cite this work as:
 Gaussian 16, Revision C.01,
 M. J. Frisch, G. W. Trucks, H. B. Schlegel, G. E. Scuseria, 
 M. A. Robb, J. R. Cheeseman, G. Scalmani, V. Barone, 
 G. A. Petersson, H. Nakatsuji, X. Li, M. Caricato, A. V. Marenich, 
 J. Bloino, B. G. Janesko, R. Gomperts, B. Mennucci, H. P. Hratchian, 
 J. V. Ortiz, A. F. Izmaylov, J. L. Sonnenberg, D. Williams-Young, 
 F. Ding, F. Lipparini, F. Egidi, J. Goings, B. Peng, A. Petrone, 
 T. Henderson, D. Ranasinghe, V. G. Zakrzewski, J. Gao, N. Rega, 
 G. Zheng, W. Liang, M. Hada, M. Ehara, K. Toyota, R. Fukuda, 
 J. Hasegawa, M. Ishida, T. Nakajima, Y. Honda, O. Kitao, H. Nakai, 
 T. Vreven, K. Throssell, J. A. Montgomery, Jr., J. E. Peralta, 
 F. Ogliaro, M. J. Bearpark, J. J. Heyd, E. N. Brothers, K. N. Kudin, 
 V. N. Staroverov, T. A. Keith, R. Kobayashi, J. Normand, 
 K. Raghavachari, A. P. Rendell, J. C. Burant, S. S. Iyengar, 
 J. Tomasi, M. Cossi, J. M. Millam, M. Klene, C. Adamo, R. Cammi, 
 J. W. Ochterski, R. L. Martin, K. Morokuma, O. Farkas, 
 J. B. Foresman, and D. J. Fox, Gaussian, Inc., Wallingford CT, 2019.
 
 ******************************************
 Gaussian 16:  ES64L-G16RevC.01  3-Jul-2019
                 6-Mar-2023 
 ******************************************
 %nprocshared=1
 Will use up to    1 processors via shared memory.
 %mem=8000MB
 %chk=WAPNUX_Complex_1_Ligand_2_OO_Cu_oriented.chk
 ----------------------------------------------------------------------
 #p pop=(regular,nbo,savenbos) freq=noraman def2svp empiricaldispersion
 =gd3bj output=wfx pbe1pbe
 ----------------------------------------------------------------------
 1/10=4,30=1,38=1/1,3;
 2/12=2,17=6,18=5,40=1/2;
 3/5=43,7=101,11=2,25=1,30=1,71=2,74=-13,124=41,140=1/1,2,3;
 4//1;
 5/5=2,38=5,98=1/2;
 8/6=4,10=90,11=11/1;
 11/6=1,8=1,9=11,15=111,16=1/1,2,10;
 10/6=1/2;
 6/28=1,40=1,73=1/1,7;
 7/8=1,10=1,25=1/1,2,3,16;
 1/10=4,30=1/3;
 99/6=200/99;
 Leave Link    1 at Mon Mar  6 10:21:43 2023, MaxMem=  1048576000 cpu:               0.0 elap:               0.1
 (Enter /ssoft/spack/external/gaussian/g16-C.01/avx2/g16/l101.exe)
 ----------------------------------------
 WAPNUX_Complex_1_Ligand_2_OO_Cu_oriented
 ----------------------------------------
 Symbolic Z-matrix:
 Charge = -1 Multiplicity = 1
 C                    -0.9772   -3.99258  -1.0385 
 C                    -0.86599  -3.56112  -2.34481 
 H                    -0.68133  -2.66743  -2.51962 
 C                    -1.0269   -4.43881  -3.39442 
 H                    -0.95392  -4.13379  -4.26996 
 C                    -1.29311  -5.74893  -3.14979 
 H                    -1.41811  -6.33926  -3.85788 
 C                    -1.37694  -6.19528  -1.85968 
 H                    -1.55555  -7.09104  -1.6904 
 C                    -1.19274  -5.31244  -0.79828 
 H                    -1.2176   -5.62842   0.07659 
 C                    -0.82314  -3.00059   0.09734 
 H                    -0.81726  -3.49733   0.94151 
 C                    -2.02574  -2.02135   0.11476 
 O                     0.38299  -2.27161   0. 
 H                     0.99398  -2.70748   0.33003 
 O                    -1.80461  -0.78658   0. 
 O                    -3.14109  -2.53183   0.20761 
 
 ITRead=  0  0  0  0  0  0  0  0  0  0  0  0  0  0  0  0  0  0
 MicOpt= -1 -1 -1 -1 -1 -1 -1 -1 -1 -1 -1 -1 -1 -1 -1 -1 -1 -1
 NAtoms=     18 NQM=       18 NQMF=       0 NMMI=      0 NMMIF=      0
                NMic=       0 NMicF=      0.
                    Isotopes and Nuclear Properties:
 (Nuclear quadrupole moments (NQMom) in fm**2, nuclear magnetic moments (NMagM)
  in nuclear magnetons)

  Atom         1           2           3           4           5           6           7           8           9          10
 IAtWgt=          12          12           1          12           1          12           1          12           1          12
 AtmWgt=  12.0000000  12.0000000   1.0078250  12.0000000   1.0078250  12.0000000   1.0078250  12.0000000   1.0078250  12.0000000
 NucSpn=           0           0           1           0           1           0           1           0           1           0
 AtZEff=  -0.0000000  -0.0000000  -0.0000000  -0.0000000  -0.0000000  -0.0000000  -0.0000000  -0.0000000  -0.0000000  -0.0000000
 NQMom=    0.0000000   0.0000000   0.0000000   0.0000000   0.0000000   0.0000000   0.0000000   0.0000000   0.0000000   0.0000000
 NMagM=    0.0000000   0.0000000   2.7928460   0.0000000   2.7928460   0.0000000   2.7928460   0.0000000   2.7928460   0.0000000
 AtZNuc=   6.0000000   6.0000000   1.0000000   6.0000000   1.0000000   6.0000000   1.0000000   6.0000000   1.0000000   6.0000000

  Atom        11          12          13          14          15          16          17          18
 IAtWgt=           1          12           1          12          16           1          16          16
 AtmWgt=   1.0078250  12.0000000   1.0078250  12.0000000  15.9949146   1.0078250  15.9949146  15.9949146
 NucSpn=           1           0           1           0           0           1           0           0
 AtZEff=  -0.0000000  -0.0000000  -0.0000000  -0.0000000  -0.0000000  -0.0000000  -0.0000000  -0.0000000
 NQMom=    0.0000000   0.0000000   0.0000000   0.0000000   0.0000000   0.0000000   0.0000000   0.0000000
 NMagM=    2.7928460   0.0000000   2.7928460   0.0000000   0.0000000   2.7928460   0.0000000   0.0000000
 AtZNuc=   1.0000000   6.0000000   1.0000000   6.0000000   8.0000000   1.0000000   8.0000000   8.0000000
 Leave Link  101 at Mon Mar  6 10:21:43 2023, MaxMem=  1048576000 cpu:               0.1 elap:               0.1
 (Enter /ssoft/spack/external/gaussian/g16-C.01/avx2/g16/l103.exe)

 GradGradGradGradGradGradGradGradGradGradGradGradGradGradGradGradGradGrad
 Berny optimization.
 Initialization pass.
 Trust Radius=3.00D-01 FncErr=1.00D-07 GrdErr=1.00D-07 EigMax=2.50D+02 EigMin=1.00D-04
 Number of steps in this run=      2 maximum allowed number of steps=      2.
 GradGradGradGradGradGradGradGradGradGradGradGradGradGradGradGradGradGrad

 Leave Link  103 at Mon Mar  6 10:21:43 2023, MaxMem=  1048576000 cpu:               0.0 elap:               0.1
 (Enter /ssoft/spack/external/gaussian/g16-C.01/avx2/g16/l202.exe)
                          Input orientation:                          
 ---------------------------------------------------------------------
 Center     Atomic      Atomic             Coordinates (Angstroms)
 Number     Number       Type             X           Y           Z
 ---------------------------------------------------------------------
      1          6           0       -0.977195   -3.992579   -1.038499
      2          6           0       -0.865990   -3.561122   -2.344807
      3          1           0       -0.681331   -2.667435   -2.519620
      4          6           0       -1.026900   -4.438814   -3.394418
      5          1           0       -0.953922   -4.133787   -4.269960
      6          6           0       -1.293109   -5.748934   -3.149787
      7          1           0       -1.418111   -6.339262   -3.857876
      8          6           0       -1.376936   -6.195282   -1.859676
      9          1           0       -1.555551   -7.091041   -1.690401
     10          6           0       -1.192736   -5.312439   -0.798283
     11          1           0       -1.217604   -5.628422    0.076594
     12          6           0       -0.823144   -3.000590    0.097344
     13          1           0       -0.817258   -3.497327    0.941514
     14          6           0       -2.025737   -2.021349    0.114765
     15          8           0        0.382994   -2.271610    0.000000
     16          1           0        0.993983   -2.707478    0.330032
     17          8           0       -1.804614   -0.786578    0.000000
     18          8           0       -3.141090   -2.531830    0.207607
 ---------------------------------------------------------------------
                    Distance matrix (angstroms):
                    1          2          3          4          5
     1  C    0.000000
     2  C    1.380204   0.000000
     3  H    2.009294   0.929158   0.000000
     4  C    2.398322   1.377650   2.005611   0.000000
     5  H    3.234628   2.010446   2.299606   0.930022   0.000000
     6  C    2.764439   2.370009   3.204219   1.359090   1.994626
     7  H    3.694620   3.211273   3.976945   1.994879   2.291158
     8  C    2.384538   2.726759   3.655831   2.358631   3.199714
     9  H    3.218686   3.655690   4.584775   3.196475   3.970067
    10  C    1.358747   2.359155   3.196965   2.744201   3.674071
    11  H    1.994295   3.203209   3.974338   3.674161   4.603911
    12  C    1.515887   2.506020   2.641894   3.781852   4.513822
    13  H    2.047268   3.287301   3.561831   4.441920   5.251973
    14  C    2.513008   3.124966   3.027349   4.376777   4.983673
    15  O    2.427000   2.953120   2.763684   4.266925   4.846401
    16  H    2.722115   3.367933   3.305873   4.577447   5.195057
    17  O    3.470093   3.751964   3.338843   5.046359   5.491816
    18  O    2.892924   3.570762   3.675129   4.591402   5.234366
                    6          7          8          9         10
     6  C    0.000000
     7  H    0.930324   0.000000
     8  C    1.367714   2.003804   0.000000
     9  H    1.999984   2.298262   0.928947   0.000000
    10  C    2.393778   3.235161   1.392801   2.022606   0.000000
    11  H    3.229514   4.003193   2.023823   2.318563   0.930523
    12  C    4.279968   5.210037   3.787172   4.523742   2.506670
    13  H    4.694136   5.609970   3.929232   4.515178   2.542146
    14  C    5.008886   5.898768   4.662733   5.401989   3.515512
    15  O    4.982194   5.888376   4.685184   5.462813   3.516649
    16  H    5.156587   6.045381   4.751932   5.458746   3.583387
    17  O    5.899811   6.772362   5.735450   6.531903   4.636278
    18  O    5.003688   5.830382   4.561445   5.186789   3.541142
                   11         12         13         14         15
    11  H    0.000000
    12  C    2.657354   0.000000
    13  H    2.334508   0.979492   0.000000
    14  C    3.696690   1.550951   2.079050   0.000000
    15  O    3.719673   1.412677   1.956894   2.424415   0.000000
    16  H    3.672501   1.855266   2.068421   3.104163   0.819884
    17  O    4.877900   2.423759   3.034713   1.259653   2.644040
    18  O    3.647718   2.367439   2.621259   1.230131   3.539771
                   16         17         18
    16  H    0.000000
    17  O    3.410414   0.000000
    18  O    4.140613   2.207980   0.000000
 Stoichiometry    C8H7O3(1-)
 Framework group  C1[X(C8H7O3)]
 Deg. of freedom    48
 Full point group                 C1      NOp   1
 Largest Abelian subgroup         C1      NOp   1
 Largest concise Abelian subgroup C1      NOp   1
                         Standard orientation:                         
 ---------------------------------------------------------------------
 Center     Atomic      Atomic             Coordinates (Angstroms)
 Number     Number       Type             X           Y           Z
 ---------------------------------------------------------------------
      1          6           0       -0.344756   -0.063756    0.364248
      2          6           0       -0.784869   -0.864798   -0.669964
      3          1           0       -0.187902   -1.435944   -1.095120
      4          6           0       -2.098977   -0.827594   -1.081853
      5          1           0       -2.381157   -1.369352   -1.783148
      6          6           0       -2.981382    0.001159   -0.464071
      7          1           0       -3.865211    0.039104   -0.752012
      8          6           0       -2.564933    0.778722    0.581207
      9          1           0       -3.167318    1.343399    1.006899
     10          6           0       -1.241495    0.725244    1.011961
     11          1           0       -0.972195    1.231381    1.744884
     12          6           0        1.112628   -0.103854    0.779383
     13          1           0        1.216641    0.434333    1.591134
     14          6           0        1.999536    0.513292   -0.333260
     15          8           0        1.544945   -1.419628    1.057767
     16          1           0        1.345193   -1.616432    1.828207
     17          8           0        2.902350   -0.195232   -0.852535
     18          8           0        1.732385    1.667737   -0.663577
 ---------------------------------------------------------------------
 Rotational constants (GHZ):           2.2811212           0.7396306           0.7146907
 Leave Link  202 at Mon Mar  6 10:21:43 2023, MaxMem=  1048576000 cpu:               0.0 elap:               0.0
 (Enter /ssoft/spack/external/gaussian/g16-C.01/avx2/g16/l301.exe)
 Standard basis: def2SVP (5D, 7F)
 Ernie: Thresh=  0.10000D-02 Tol=  0.10000D-05 Strict=F.
 There are   200 symmetry adapted cartesian basis functions of A   symmetry.
 There are   189 symmetry adapted basis functions of A   symmetry.
   189 basis functions,   324 primitive gaussians,   200 cartesian basis functions
    40 alpha electrons       40 beta electrons
       nuclear repulsion energy       584.9491322845 Hartrees.
 IExCor= 1009 DFT=T Ex+Corr=PBE1PBE ExCW=0 ScaHFX=  0.250000
 ScaDFX=  0.750000  0.750000  1.000000  1.000000 ScalE2=  1.000000  1.000000
 IRadAn=      5 IRanWt=     -1 IRanGd=            0 ICorTp=0 IEmpDi=141
 NAtoms=   18 NActive=   18 NUniq=   18 SFac= 1.00D+00 NAtFMM=   60 NAOKFM=F Big=F
 Integral buffers will be    131072 words long.
 Raffenetti 2 integral format.
 Two-electron integral symmetry is turned on.
 R6Disp:  Grimme-D3(BJ) Dispersion energy=       -0.0175602695 Hartrees.
 Nuclear repulsion after empirical dispersion term =      584.9315720150 Hartrees.
 Leave Link  301 at Mon Mar  6 10:21:43 2023, MaxMem=  1048576000 cpu:               0.1 elap:               0.1
 (Enter /ssoft/spack/external/gaussian/g16-C.01/avx2/g16/l302.exe)
 NPDir=0 NMtPBC=     1 NCelOv=     1 NCel=       1 NClECP=     1 NCelD=      1
         NCelK=      1 NCelE2=     1 NClLst=     1 CellRange=     0.0.
 One-electron integrals computed using PRISM.
 One-electron integral symmetry used in STVInt
   1 Symmetry operations used in ECPInt.
 ECPInt:  NShTT=    3828 NPrTT=   14192 LenC2=    3743 LenP2D=   10695.
 LDataN:  DoStor=T MaxTD1= 4 Len=   56
 NBasis=   189 RedAO= T EigKep=  2.65D-04  NBF=   189
 NBsUse=   189 1.00D-06 EigRej= -1.00D+00 NBFU=   189
 Precomputing XC quadrature grid using
 IXCGrd= 4 IRadAn=           5 IRanWt=          -1 IRanGd=           0 AccXCQ= 0.00D+00.
 Generated NRdTot=       0 NPtTot=           0 NUsed=           0 NTot=          32
 NSgBfM=   200   200   200   200   200 MxSgAt=    18 MxSgA2=    18.
 Leave Link  302 at Mon Mar  6 10:21:44 2023, MaxMem=  1048576000 cpu:               0.4 elap:               0.4
 (Enter /ssoft/spack/external/gaussian/g16-C.01/avx2/g16/l303.exe)
 DipDrv:  MaxL=1.
 Leave Link  303 at Mon Mar  6 10:21:44 2023, MaxMem=  1048576000 cpu:               0.1 elap:               0.0
 (Enter /ssoft/spack/external/gaussian/g16-C.01/avx2/g16/l401.exe)
 ExpMin= 1.22D-01 ExpMax= 2.27D+03 ExpMxC= 3.41D+02 IAcc=3 IRadAn=         5 AccDes= 0.00D+00
 Harris functional with IExCor= 1009 and IRadAn=       5 diagonalized for initial guess.
 HarFok:  IExCor= 1009 AccDes= 0.00D+00 IRadAn=         5 IDoV= 1 UseB2=F ITyADJ=14
 ICtDFT=  3500011 ScaDFX=  1.000000  1.000000  1.000000  1.000000
 FoFCou: FMM=F IPFlag=           0 FMFlag=      100000 FMFlg1=           0
         NFxFlg=           0 DoJE=T BraDBF=F KetDBF=T FulRan=T
         wScrn=  0.000000 ICntrl=       500 IOpCl=  0 I1Cent=   200000004 NGrid=           0
         NMat0=    1 NMatS0=      1 NMatT0=    0 NMatD0=    1 NMtDS0=    0 NMtDT0=    0
 Petite list used in FoFCou.
 Harris En= -534.036697321641    
 JPrj=0 DoOrth=F DoCkMO=F.
 Leave Link  401 at Mon Mar  6 10:21:48 2023, MaxMem=  1048576000 cpu:               3.6 elap:               3.7
 (Enter /ssoft/spack/external/gaussian/g16-C.01/avx2/g16/l502.exe)
 Keep R1 ints in memory in canonical form, NReq=165261903.
 FoFCou: FMM=F IPFlag=           0 FMFlag=           0 FMFlg1=           0
         NFxFlg=           0 DoJE=F BraDBF=F KetDBF=F FulRan=T
         wScrn=  0.000000 ICntrl=       600 IOpCl=  0 I1Cent=           0 NGrid=           0
         NMat0=    1 NMatS0=  17955 NMatT0=    0 NMatD0=    1 NMtDS0=    0 NMtDT0=    0
 Symmetry not used in FoFCou.
 Two-electron integral symmetry not used.
 Closed shell SCF:
 Using DIIS extrapolation, IDIIS=  1040.
 NGot=  1048576000 LenX=   887292196 LenY=   887251755
 Requested convergence on RMS density matrix=1.00D-08 within 128 cycles.
 Requested convergence on MAX density matrix=1.00D-06.
 Requested convergence on             energy=1.00D-06.
 No special actions if energy rises.
 Integral accuracy reduced to 1.0D-05 until final iterations.

 Cycle   1  Pass 0  IDiag  1:
 E= -533.308068794005    
 DIIS: error= 4.13D-02 at cycle   1 NSaved=   1.
 NSaved= 1 IEnMin= 1 EnMin= -533.308068794005     IErMin= 1 ErrMin= 4.13D-02
 ErrMax= 4.13D-02  0.00D+00 EMaxC= 1.00D-01 BMatC= 3.51D-01 BMatP= 3.51D-01
 IDIUse=3 WtCom= 5.87D-01 WtEn= 4.13D-01
 Coeff-Com:  0.100D+01
 Coeff-En:   0.100D+01
 Coeff:      0.100D+01
 Gap=     0.118 Goal=   None    Shift=    0.000
 GapD=    0.118 DampG=1.000 DampE=0.500 DampFc=0.5000 IDamp=-1.
 Damping current iteration by 5.00D-01
 RMSDP=1.05D-02 MaxDP=4.63D-01              OVMax= 2.73D-01

 Cycle   2  Pass 0  IDiag  1:
 E= -533.442586580256     Delta-E=       -0.134517786252 Rises=F Damp=T
 DIIS: error= 8.17D-03 at cycle   2 NSaved=   2.
 NSaved= 2 IEnMin= 2 EnMin= -533.442586580256     IErMin= 2 ErrMin= 8.17D-03
 ErrMax= 8.17D-03  0.00D+00 EMaxC= 1.00D-01 BMatC= 2.77D-02 BMatP= 3.51D-01
 IDIUse=3 WtCom= 9.18D-01 WtEn= 8.17D-02
 Coeff-Com:  0.108D+00 0.892D+00
 Coeff-En:   0.134D+00 0.866D+00
 Coeff:      0.110D+00 0.890D+00
 Gap=     0.168 Goal=   None    Shift=    0.000
 RMSDP=3.02D-03 MaxDP=1.19D-01 DE=-1.35D-01 OVMax= 1.93D-01

 Cycle   3  Pass 0  IDiag  1:
 E= -533.608975750537     Delta-E=       -0.166389170281 Rises=F Damp=F
 DIIS: error= 1.02D-02 at cycle   3 NSaved=   3.
 NSaved= 3 IEnMin= 3 EnMin= -533.608975750537     IErMin= 2 ErrMin= 8.17D-03
 ErrMax= 1.02D-02  0.00D+00 EMaxC= 1.00D-01 BMatC= 2.73D-02 BMatP= 2.77D-02
 IDIUse=3 WtCom= 8.98D-01 WtEn= 1.02D-01
 Coeff-Com: -0.895D-03 0.498D+00 0.503D+00
 Coeff-En:   0.000D+00 0.000D+00 0.100D+01
 Coeff:     -0.804D-03 0.447D+00 0.554D+00
 Gap=     0.157 Goal=   None    Shift=    0.000
 RMSDP=1.43D-03 MaxDP=4.41D-02 DE=-1.66D-01 OVMax= 5.54D-02

 Cycle   4  Pass 0  IDiag  1:
 E= -533.629055547306     Delta-E=       -0.020079796770 Rises=F Damp=F
 DIIS: error= 5.72D-03 at cycle   4 NSaved=   4.
 NSaved= 4 IEnMin= 4 EnMin= -533.629055547306     IErMin= 4 ErrMin= 5.72D-03
 ErrMax= 5.72D-03  0.00D+00 EMaxC= 1.00D-01 BMatC= 4.67D-03 BMatP= 2.73D-02
 IDIUse=3 WtCom= 9.43D-01 WtEn= 5.72D-02
 Coeff-Com: -0.580D-02 0.161D+00 0.321D+00 0.524D+00
 Coeff-En:   0.000D+00 0.000D+00 0.129D+00 0.871D+00
 Coeff:     -0.547D-02 0.152D+00 0.310D+00 0.544D+00
 Gap=     0.146 Goal=   None    Shift=    0.000
 RMSDP=5.59D-04 MaxDP=1.74D-02 DE=-2.01D-02 OVMax= 2.63D-02

 Cycle   5  Pass 0  IDiag  1:
 E= -533.632159873937     Delta-E=       -0.003104326631 Rises=F Damp=F
 DIIS: error= 3.16D-03 at cycle   5 NSaved=   5.
 NSaved= 5 IEnMin= 5 EnMin= -533.632159873937     IErMin= 5 ErrMin= 3.16D-03
 ErrMax= 3.16D-03  0.00D+00 EMaxC= 1.00D-01 BMatC= 9.64D-04 BMatP= 4.67D-03
 IDIUse=3 WtCom= 9.68D-01 WtEn= 3.16D-02
 Coeff-Com: -0.282D-02 0.345D-01 0.135D+00 0.375D+00 0.458D+00
 Coeff-En:   0.000D+00 0.000D+00 0.000D+00 0.177D+00 0.823D+00
 Coeff:     -0.273D-02 0.334D-01 0.131D+00 0.369D+00 0.470D+00
 Gap=     0.144 Goal=   None    Shift=    0.000
 RMSDP=1.92D-04 MaxDP=5.39D-03 DE=-3.10D-03 OVMax= 1.08D-02

 Cycle   6  Pass 0  IDiag  1:
 E= -533.632918557398     Delta-E=       -0.000758683461 Rises=F Damp=F
 DIIS: error= 4.03D-04 at cycle   6 NSaved=   6.
 NSaved= 6 IEnMin= 6 EnMin= -533.632918557398     IErMin= 6 ErrMin= 4.03D-04
 ErrMax= 4.03D-04  0.00D+00 EMaxC= 1.00D-01 BMatC= 2.95D-05 BMatP= 9.64D-04
 IDIUse=3 WtCom= 9.96D-01 WtEn= 4.03D-03
 Coeff-Com: -0.928D-03-0.204D-03 0.256D-01 0.110D+00 0.217D+00 0.649D+00
 Coeff-En:   0.000D+00 0.000D+00 0.000D+00 0.000D+00 0.000D+00 0.100D+01
 Coeff:     -0.924D-03-0.203D-03 0.255D-01 0.109D+00 0.216D+00 0.650D+00
 Gap=     0.144 Goal=   None    Shift=    0.000
 RMSDP=4.86D-05 MaxDP=1.39D-03 DE=-7.59D-04 OVMax= 1.46D-03

 Cycle   7  Pass 0  IDiag  1:
 E= -533.632938504796     Delta-E=       -0.000019947398 Rises=F Damp=F
 DIIS: error= 1.08D-04 at cycle   7 NSaved=   7.
 NSaved= 7 IEnMin= 7 EnMin= -533.632938504796     IErMin= 7 ErrMin= 1.08D-04
 ErrMax= 1.08D-04  0.00D+00 EMaxC= 1.00D-01 BMatC= 4.46D-06 BMatP= 2.95D-05
 IDIUse=3 WtCom= 9.99D-01 WtEn= 1.08D-03
 Coeff-Com: -0.369D-03-0.195D-02 0.729D-02 0.414D-01 0.981D-01 0.380D+00
 Coeff-Com:  0.476D+00
 Coeff-En:   0.000D+00 0.000D+00 0.000D+00 0.000D+00 0.000D+00 0.855D-01
 Coeff-En:   0.915D+00
 Coeff:     -0.369D-03-0.195D-02 0.729D-02 0.414D-01 0.979D-01 0.379D+00
 Coeff:      0.476D+00
 Gap=     0.143 Goal=   None    Shift=    0.000
 RMSDP=1.47D-05 MaxDP=2.89D-04 DE=-1.99D-05 OVMax= 8.54D-04

 Cycle   8  Pass 0  IDiag  1:
 E= -533.632942890762     Delta-E=       -0.000004385966 Rises=F Damp=F
 DIIS: error= 2.39D-05 at cycle   8 NSaved=   8.
 NSaved= 8 IEnMin= 8 EnMin= -533.632942890762     IErMin= 8 ErrMin= 2.39D-05
 ErrMax= 2.39D-05  0.00D+00 EMaxC= 1.00D-01 BMatC= 1.69D-07 BMatP= 4.46D-06
 IDIUse=1 WtCom= 1.00D+00 WtEn= 0.00D+00
 Coeff-Com: -0.661D-04-0.758D-03 0.323D-03 0.528D-02 0.173D-01 0.847D-01
 Coeff-Com:  0.196D+00 0.697D+00
 Coeff:     -0.661D-04-0.758D-03 0.323D-03 0.528D-02 0.173D-01 0.847D-01
 Coeff:      0.196D+00 0.697D+00
 Gap=     0.144 Goal=   None    Shift=    0.000
 RMSDP=4.39D-06 MaxDP=6.87D-05 DE=-4.39D-06 OVMax= 2.60D-04

 Initial convergence to 1.0D-05 achieved.  Increase integral accuracy.
 Cycle   9  Pass 1  IDiag  1:
 E= -533.632937207614     Delta-E=        0.000005683148 Rises=F Damp=F
 DIIS: error= 1.22D-05 at cycle   1 NSaved=   1.
 NSaved= 1 IEnMin= 1 EnMin= -533.632937207614     IErMin= 1 ErrMin= 1.22D-05
 ErrMax= 1.22D-05  0.00D+00 EMaxC= 1.00D-01 BMatC= 5.09D-08 BMatP= 5.09D-08
 IDIUse=1 WtCom= 1.00D+00 WtEn= 0.00D+00
 Coeff-Com:  0.100D+01
 Coeff:      0.100D+01
 Gap=     0.144 Goal=   None    Shift=    0.000
 RMSDP=4.39D-06 MaxDP=6.87D-05 DE= 5.68D-06 OVMax= 1.63D-04

 Cycle  10  Pass 1  IDiag  1:
 E= -533.632937152346     Delta-E=        0.000000055269 Rises=F Damp=F
 DIIS: error= 1.73D-05 at cycle   2 NSaved=   2.
 NSaved= 2 IEnMin= 1 EnMin= -533.632937207614     IErMin= 1 ErrMin= 1.22D-05
 ErrMax= 1.73D-05  0.00D+00 EMaxC= 1.00D-01 BMatC= 1.12D-07 BMatP= 5.09D-08
 IDIUse=1 WtCom= 1.00D+00 WtEn= 0.00D+00
 Coeff-Com:  0.601D+00 0.399D+00
 Coeff:      0.601D+00 0.399D+00
 Gap=     0.144 Goal=   None    Shift=    0.000
 RMSDP=2.13D-06 MaxDP=4.12D-05 DE= 5.53D-08 OVMax= 1.17D-04

 Cycle  11  Pass 1  IDiag  1:
 E= -533.632937258766     Delta-E=       -0.000000106421 Rises=F Damp=F
 DIIS: error= 2.06D-06 at cycle   3 NSaved=   3.
 NSaved= 3 IEnMin= 3 EnMin= -533.632937258766     IErMin= 3 ErrMin= 2.06D-06
 ErrMax= 2.06D-06  0.00D+00 EMaxC= 1.00D-01 BMatC= 1.34D-09 BMatP= 5.09D-08
 IDIUse=1 WtCom= 1.00D+00 WtEn= 0.00D+00
 Coeff-Com:  0.229D+00 0.175D+00 0.596D+00
 Coeff:      0.229D+00 0.175D+00 0.596D+00
 Gap=     0.144 Goal=   None    Shift=    0.000
 RMSDP=3.49D-07 MaxDP=8.14D-06 DE=-1.06D-07 OVMax= 1.82D-05

 Cycle  12  Pass 1  IDiag  1:
 E= -533.632937259963     Delta-E=       -0.000000001197 Rises=F Damp=F
 DIIS: error= 7.95D-07 at cycle   4 NSaved=   4.
 NSaved= 4 IEnMin= 4 EnMin= -533.632937259963     IErMin= 4 ErrMin= 7.95D-07
 ErrMax= 7.95D-07  0.00D+00 EMaxC= 1.00D-01 BMatC= 3.50D-10 BMatP= 1.34D-09
 IDIUse=1 WtCom= 1.00D+00 WtEn= 0.00D+00
 Coeff-Com: -0.189D-01 0.479D-03 0.345D+00 0.674D+00
 Coeff:     -0.189D-01 0.479D-03 0.345D+00 0.674D+00
 Gap=     0.144 Goal=   None    Shift=    0.000
 RMSDP=1.87D-07 MaxDP=6.42D-06 DE=-1.20D-09 OVMax= 7.31D-06

 Cycle  13  Pass 1  IDiag  1:
 E= -533.632937260304     Delta-E=       -0.000000000341 Rises=F Damp=F
 DIIS: error= 2.19D-07 at cycle   5 NSaved=   5.
 NSaved= 5 IEnMin= 5 EnMin= -533.632937260304     IErMin= 5 ErrMin= 2.19D-07
 ErrMax= 2.19D-07  0.00D+00 EMaxC= 1.00D-01 BMatC= 1.90D-11 BMatP= 3.50D-10
 IDIUse=1 WtCom= 1.00D+00 WtEn= 0.00D+00
 Coeff-Com: -0.209D-01-0.866D-02 0.140D+00 0.330D+00 0.559D+00
 Coeff:     -0.209D-01-0.866D-02 0.140D+00 0.330D+00 0.559D+00
 Gap=     0.144 Goal=   None    Shift=    0.000
 RMSDP=3.41D-08 MaxDP=9.15D-07 DE=-3.41D-10 OVMax= 1.95D-06

 Cycle  14  Pass 1  IDiag  1:
 E= -533.632937260319     Delta-E=       -0.000000000015 Rises=F Damp=F
 DIIS: error= 9.96D-08 at cycle   6 NSaved=   6.
 NSaved= 6 IEnMin= 6 EnMin= -533.632937260319     IErMin= 6 ErrMin= 9.96D-08
 ErrMax= 9.96D-08  0.00D+00 EMaxC= 1.00D-01 BMatC= 2.43D-12 BMatP= 1.90D-11
 IDIUse=1 WtCom= 1.00D+00 WtEn= 0.00D+00
 Coeff-Com: -0.855D-02-0.434D-02 0.377D-01 0.997D-01 0.301D+00 0.575D+00
 Coeff:     -0.855D-02-0.434D-02 0.377D-01 0.997D-01 0.301D+00 0.575D+00
 Gap=     0.144 Goal=   None    Shift=    0.000
 RMSDP=1.43D-08 MaxDP=4.02D-07 DE=-1.46D-11 OVMax= 6.75D-07

 Cycle  15  Pass 1  IDiag  1:
 E= -533.632937260322     Delta-E=       -0.000000000003 Rises=F Damp=F
 DIIS: error= 5.69D-08 at cycle   7 NSaved=   7.
 NSaved= 7 IEnMin= 7 EnMin= -533.632937260322     IErMin= 7 ErrMin= 5.69D-08
 ErrMax= 5.69D-08  0.00D+00 EMaxC= 1.00D-01 BMatC= 3.92D-13 BMatP= 2.43D-12
 IDIUse=1 WtCom= 1.00D+00 WtEn= 0.00D+00
 Coeff-Com: -0.148D-02-0.117D-02-0.310D-02-0.220D-02 0.764D-01 0.315D+00
 Coeff-Com:  0.617D+00
 Coeff:     -0.148D-02-0.117D-02-0.310D-02-0.220D-02 0.764D-01 0.315D+00
 Coeff:      0.617D+00
 Gap=     0.144 Goal=   None    Shift=    0.000
 RMSDP=6.20D-09 MaxDP=1.72D-07 DE=-2.73D-12 OVMax= 3.32D-07

 SCF Done:  E(RPBE1PBE) =  -533.632937260     A.U. after   15 cycles
            NFock= 15  Conv=0.62D-08     -V/T= 2.0040
 KE= 5.315215549968D+02 PE=-2.432835459164D+03 EE= 7.827493948919D+02
 Leave Link  502 at Mon Mar  6 10:22:40 2023, MaxMem=  1048576000 cpu:              51.7 elap:              52.1
 (Enter /ssoft/spack/external/gaussian/g16-C.01/avx2/g16/l801.exe)
 DoSCS=F DFT=T ScalE2(SS,OS)=  1.000000  1.000000
 Range of M.O.s used for correlation:     1   189
 NBasis=   189 NAE=    40 NBE=    40 NFC=     0 NFV=     0
 NROrb=    189 NOA=    40 NOB=    40 NVA=   149 NVB=   149

 **** Warning!!: The largest alpha MO coefficient is  0.13354105D+02

 Leave Link  801 at Mon Mar  6 10:22:40 2023, MaxMem=  1048576000 cpu:               0.0 elap:               0.1
 (Enter /ssoft/spack/external/gaussian/g16-C.01/avx2/g16/l1101.exe)
 Using compressed storage, NAtomX=    18.
 Will process     19 centers per pass.
   1 Symmetry operations used in ECPInt.
 ECPInt:  NShTT=    3828 NPrTT=   14192 LenC2=    3743 LenP2D=   10695.
 LDataN:  DoStor=T MaxTD1= 5 Len=  102
 R6Disp: Adding Grimme-D3(BJ) dispersion energy 1st derivatives to the gradient.
 Leave Link 1101 at Mon Mar  6 10:22:40 2023, MaxMem=  1048576000 cpu:               0.2 elap:               0.2
 (Enter /ssoft/spack/external/gaussian/g16-C.01/avx2/g16/l1102.exe)
 Symmetrizing basis deriv contribution to polar:
 IMax=3 JMax=2 DiffMx= 0.00D+00
 Leave Link 1102 at Mon Mar  6 10:22:40 2023, MaxMem=  1048576000 cpu:               0.1 elap:               0.1
 (Enter /ssoft/spack/external/gaussian/g16-C.01/avx2/g16/l1110.exe)
 Forming Gx(P) for the SCF density, NAtomX=    18.
 Integral derivatives from FoFJK, PRISM(SPDF).
 Do as many integral derivatives as possible in FoFJK.
 G2DrvN: MDV=    1048574010.
 G2DrvN: will do    19 centers at a time, making    1 passes.
 Calling FoFCou, ICntrl=  3107 FMM=F I1Cent=   0 AccDes= 0.00D+00.
 FoFJK:  IHMeth= 1 ICntrl=    3107 DoSepK=F KAlg= 0 I1Cent=           0 FoldK=F
 IRaf=         0 NMat=       1 IRICut=       1 DoRegI=T DoRafI=F ISym2E= 0 IDoP0=0 IntGTp=1.
 FoFCou: FMM=F IPFlag=           0 FMFlag=      100000 FMFlg1=           0
         NFxFlg=           0 DoJE=F BraDBF=F KetDBF=F FulRan=T
         wScrn=  0.000000 ICntrl=      3107 IOpCl=  0 I1Cent=           0 NGrid=           0
         NMat0=    1 NMatS0=      1 NMatT0=    0 NMatD0=    1 NMtDS0=    0 NMtDT0=    0
 Symmetry not used in FoFCou.
 End of G2Drv F.D. properties file   721 does not exist.
 End of G2Drv F.D. properties file   722 does not exist.
 End of G2Drv F.D. properties file   788 does not exist.
 Leave Link 1110 at Mon Mar  6 10:25:26 2023, MaxMem=  1048576000 cpu:             164.5 elap:             165.6
 (Enter /ssoft/spack/external/gaussian/g16-C.01/avx2/g16/l1002.exe)
 Minotr:  Closed shell wavefunction.
          IDoAtm=111111111111111111
          Direct CPHF calculation.
          Differentiating once with respect to electric field.
                with respect to dipole field.
          Differentiating once with respect to nuclear coordinates.
          Requested convergence is 1.0D-08 RMS, and 1.0D-07 maximum.
          Secondary convergence is 1.0D-12 RMS, and 1.0D-12 maximum.
          NewPWx=T KeepS1=F KeepF1=F KeepIn=T MapXYZ=F SortEE=F KeepMc=T.
         5351 words used for storage of precomputed grid.
 Keep R1 ints in memory in canonical form, NReq=165269537.
 FoFCou: FMM=F IPFlag=           0 FMFlag=           0 FMFlg1=           0
         NFxFlg=           0 DoJE=F BraDBF=F KetDBF=F FulRan=T
         wScrn=  0.000000 ICntrl=       600 IOpCl=  0 I1Cent=           0 NGrid=           0
         NMat0=    1 NMatS0=  17955 NMatT0=    0 NMatD0=    1 NMtDS0=    0 NMtDT0=    0
 Symmetry not used in FoFCou.
 Two-electron integral symmetry not used.
          MDV=    1048576000 using IRadAn=       1.
          Solving linear equations simultaneously, MaxMat=       0.
          There are    57 degrees of freedom in the 1st order CPHF.  IDoFFX=6 NUNeed=     3.
     54 vectors produced by pass  0 Test12= 1.05D-14 1.75D-09 XBig12= 1.29D+02 4.82D+00.
 AX will form    54 AO Fock derivatives at one time.
     54 vectors produced by pass  1 Test12= 1.05D-14 1.75D-09 XBig12= 2.12D+01 8.68D-01.
     54 vectors produced by pass  2 Test12= 1.05D-14 1.75D-09 XBig12= 1.86D-01 5.93D-02.
     54 vectors produced by pass  3 Test12= 1.05D-14 1.75D-09 XBig12= 1.09D-03 4.63D-03.
     54 vectors produced by pass  4 Test12= 1.05D-14 1.75D-09 XBig12= 3.34D-06 1.99D-04.
     54 vectors produced by pass  5 Test12= 1.05D-14 1.75D-09 XBig12= 4.21D-09 6.25D-06.
     12 vectors produced by pass  6 Test12= 1.05D-14 1.75D-09 XBig12= 4.72D-12 2.15D-07.
      3 vectors produced by pass  7 Test12= 1.05D-14 1.75D-09 XBig12= 5.12D-15 7.13D-09.
 InvSVY:  IOpt=1 It=  1 EMax= 8.88D-15
 Solved reduced A of dimension   339 with    57 vectors.
 FullF1:  Do perturbations      1 to       3.
 Isotropic polarizability for W=    0.000000       84.31 Bohr**3.
 End of Minotr F.D. properties file   721 does not exist.
 End of Minotr F.D. properties file   722 does not exist.
 End of Minotr F.D. properties file   788 does not exist.
 Leave Link 1002 at Mon Mar  6 10:28:08 2023, MaxMem=  1048576000 cpu:             161.1 elap:             162.2
 (Enter /ssoft/spack/external/gaussian/g16-C.01/avx2/g16/l601.exe)
 Copying SCF densities to generalized density rwf, IOpCl= 0 IROHF=0.

 **********************************************************************

            Population analysis using the SCF Density.

 **********************************************************************

 Orbital symmetries:
       Occupied  (A) (A) (A) (A) (A) (A) (A) (A) (A) (A) (A) (A)
                 (A) (A) (A) (A) (A) (A) (A) (A) (A) (A) (A) (A)
                 (A) (A) (A) (A) (A) (A) (A) (A) (A) (A) (A) (A)
                 (A) (A) (A) (A)
       Virtual   (A) (A) (A) (A) (A) (A) (A) (A) (A) (A) (A) (A)
                 (A) (A) (A) (A) (A) (A) (A) (A) (A) (A) (A) (A)
                 (A) (A) (A) (A) (A) (A) (A) (A) (A) (A) (A) (A)
                 (A) (A) (A) (A) (A) (A) (A) (A) (A) (A) (A) (A)
                 (A) (A) (A) (A) (A) (A) (A) (A) (A) (A) (A) (A)
                 (A) (A) (A) (A) (A) (A) (A) (A) (A) (A) (A) (A)
                 (A) (A) (A) (A) (A) (A) (A) (A) (A) (A) (A) (A)
                 (A) (A) (A) (A) (A) (A) (A) (A) (A) (A) (A) (A)
                 (A) (A) (A) (A) (A) (A) (A) (A) (A) (A) (A) (A)
                 (A) (A) (A) (A) (A) (A) (A) (A) (A) (A) (A) (A)
                 (A) (A) (A) (A) (A) (A) (A) (A) (A) (A) (A) (A)
                 (A) (A) (A) (A) (A) (A) (A) (A) (A) (A) (A) (A)
                 (A) (A) (A) (A) (A)
 The electronic state is 1-A.
 Alpha  occ. eigenvalues --  -19.03489 -18.92836 -18.92512 -10.10085 -10.09748
 Alpha  occ. eigenvalues --  -10.09527 -10.09489 -10.09108 -10.09047 -10.08623
 Alpha  occ. eigenvalues --  -10.08105  -0.91660  -0.82680  -0.76186  -0.72744
 Alpha  occ. eigenvalues --   -0.66561  -0.65300  -0.57052  -0.52427  -0.49615
 Alpha  occ. eigenvalues --   -0.44068  -0.39874  -0.37877  -0.34898  -0.33483
 Alpha  occ. eigenvalues --   -0.32660  -0.31814  -0.26445  -0.25249  -0.24431
 Alpha  occ. eigenvalues --   -0.23834  -0.20225  -0.19017  -0.18259  -0.14649
 Alpha  occ. eigenvalues --   -0.14271  -0.12818  -0.04156  -0.03953  -0.02124
 Alpha virt. eigenvalues --    0.12231   0.13246   0.20582   0.21946   0.23831
 Alpha virt. eigenvalues --    0.25703   0.27003   0.28423   0.29453   0.31527
 Alpha virt. eigenvalues --    0.32470   0.39865   0.40756   0.42052   0.43411
 Alpha virt. eigenvalues --    0.44723   0.46300   0.48549   0.50424   0.52306
 Alpha virt. eigenvalues --    0.55920   0.57085   0.60006   0.61329   0.63681
 Alpha virt. eigenvalues --    0.65245   0.65686   0.66480   0.67591   0.68455
 Alpha virt. eigenvalues --    0.69644   0.72927   0.73598   0.75775   0.77961
 Alpha virt. eigenvalues --    0.79878   0.82965   0.83013   0.85390   0.86053
 Alpha virt. eigenvalues --    0.86426   0.87321   0.88537   0.89303   0.90968
 Alpha virt. eigenvalues --    0.91191   0.91746   0.92342   0.94039   0.95714
 Alpha virt. eigenvalues --    0.97085   0.99159   1.02467   1.05500   1.09038
 Alpha virt. eigenvalues --    1.12375   1.16165   1.19096   1.19530   1.21601
 Alpha virt. eigenvalues --    1.24288   1.29284   1.31422   1.33374   1.37543
 Alpha virt. eigenvalues --    1.38445   1.38670   1.39801   1.41190   1.43508
 Alpha virt. eigenvalues --    1.45280   1.46851   1.48575   1.50845   1.55900
 Alpha virt. eigenvalues --    1.63935   1.66040   1.69133   1.70641   1.75112
 Alpha virt. eigenvalues --    1.78879   1.82327   1.85619   1.88751   1.89695
 Alpha virt. eigenvalues --    1.92623   1.93129   1.94107   1.94701   1.97680
 Alpha virt. eigenvalues --    1.98093   1.99392   2.02334   2.04068   2.04984
 Alpha virt. eigenvalues --    2.06275   2.11127   2.17673   2.20344   2.23765
 Alpha virt. eigenvalues --    2.25455   2.29273   2.30632   2.31864   2.34032
 Alpha virt. eigenvalues --    2.34418   2.39015   2.40270   2.44914   2.46335
 Alpha virt. eigenvalues --    2.47577   2.47738   2.51672   2.57374   2.60513
 Alpha virt. eigenvalues --    2.62245   2.65425   2.66541   2.72411   2.78568
 Alpha virt. eigenvalues --    2.84180   2.86006   2.90241   2.91991   2.93590
 Alpha virt. eigenvalues --    2.95608   2.98791   3.01589   3.14309   3.18451
 Alpha virt. eigenvalues --    3.20972   3.22931   3.26511   3.29785   3.30205
 Alpha virt. eigenvalues --    3.35568   3.35920   3.38106   3.47961   3.51885
 Alpha virt. eigenvalues --    3.56744   3.62203   3.64873   3.67213   3.70610
 Alpha virt. eigenvalues --    3.87243   3.95110   4.13406   4.17017
     Molecular Orbital Coefficients:
                          36        37        38        39        40
                           O         O         O         O         O
     Eigenvalues --    -0.14271  -0.12818  -0.04156  -0.03953  -0.02124
   1 1   C  1S          0.01808  -0.02558   0.00410  -0.00987   0.00568
   2        2S         -0.04742   0.06409   0.01600   0.03769  -0.02504
   3        3S         -0.03999   0.09224  -0.22053  -0.19687   0.03641
   4        4PX        -0.07981   0.08978  -0.03272   0.04497  -0.01620
   5        4PY         0.02216  -0.18391   0.02003  -0.00725  -0.01130
   6        4PZ        -0.05354   0.19210  -0.00725  -0.00145   0.00289
   7        5PX        -0.06185   0.10316  -0.15036  -0.05830   0.02250
   8        5PY         0.02790  -0.11697  -0.02931   0.04490  -0.02559
   9        5PZ         0.00528   0.10795  -0.01362   0.05592  -0.01561
  10        6D 0       -0.01328  -0.00803  -0.00261   0.00332  -0.00200
  11        6D+1        0.00535  -0.00265  -0.00618   0.00615  -0.00301
  12        6D-1        0.00259  -0.00024   0.00193  -0.00148  -0.00059
  13        6D+2       -0.01302   0.00268   0.00210  -0.00319  -0.00029
  14        6D-2       -0.00108   0.00687  -0.00074  -0.00178   0.00366
  15 2   C  1S         -0.00355   0.00568   0.00353  -0.00244  -0.00086
  16        2S          0.00208  -0.01094  -0.00398   0.01353  -0.00063
  17        3S          0.04249   0.01525  -0.07230  -0.01085   0.01892
  18        4PX        -0.03712  -0.07748  -0.00935   0.00709  -0.00506
  19        4PY        -0.15931  -0.19168  -0.01618   0.03791  -0.03499
  20        4PZ         0.18645   0.13073   0.00899  -0.01932   0.02677
  21        5PX        -0.01513  -0.08166   0.02335   0.06967  -0.02328
  22        5PY        -0.09514  -0.12585  -0.00164   0.08417  -0.05563
  23        5PZ         0.14036   0.07540   0.01388   0.05406  -0.00401
  24        6D 0       -0.00452   0.00697  -0.00113  -0.00018   0.00082
  25        6D+1       -0.00774   0.00206  -0.00076   0.00262  -0.00102
  26        6D-1        0.00378  -0.00304   0.00037  -0.00102   0.00021
  27        6D+2        0.00015   0.00696   0.00031   0.00012  -0.00042
  28        6D-2        0.00763   0.00056   0.00029   0.00176  -0.00069
  29 3   H  1S          0.00023  -0.01176   0.00223  -0.00752   0.00395
  30        2S          0.02140  -0.03295   0.03516   0.05770  -0.03431
  31        3PX        -0.00154  -0.00304  -0.00023  -0.00221  -0.00035
  32        3PY        -0.00622  -0.00665  -0.00040   0.00210  -0.00151
  33        3PZ         0.00738   0.00381   0.00039  -0.00158   0.00118
  34 4   C  1S          0.00426  -0.00575  -0.00097  -0.00081   0.00123
  35        2S         -0.01108   0.01183   0.00330   0.00323  -0.00365
  36        3S          0.00753  -0.02469   0.05261   0.04168  -0.03632
  37        4PX        -0.08818   0.02792  -0.00118   0.00684  -0.00278
  38        4PY        -0.21362  -0.01068  -0.00090   0.00087   0.00664
  39        4PZ         0.17853   0.02320   0.00346  -0.00172  -0.00673
  40        5PX        -0.06295  -0.00133   0.01405   0.06335  -0.01531
  41        5PY        -0.15468  -0.02370  -0.00787  -0.03078   0.01072
  42        5PZ         0.13413   0.01644   0.01020  -0.01793  -0.00221
  43        6D 0        0.00430  -0.00195  -0.00002   0.00023  -0.00016
  44        6D+1        0.00548   0.00935   0.00107  -0.00206   0.00238
  45        6D-1       -0.00136  -0.00405  -0.00019   0.00073  -0.00070
  46        6D+2       -0.00234  -0.00735  -0.00095   0.00167  -0.00165
  47        6D-2       -0.00475  -0.01140  -0.00126   0.00210  -0.00223
  48 5   H  1S          0.01359  -0.01558  -0.00048  -0.00115   0.00083
  49        2S          0.00771  -0.01119  -0.00687  -0.01630   0.00778
  50        3PX        -0.00312   0.00109  -0.00032  -0.00104   0.00023
  51        3PY        -0.00829  -0.00014   0.00018   0.00060   0.00026
  52        3PZ         0.00757   0.00033  -0.00007   0.00008  -0.00042
  53 6   C  1S          0.00035  -0.00212   0.00061  -0.00003  -0.00017
  54        2S         -0.00044   0.00574   0.00020   0.00272  -0.00024
  55        3S         -0.01502   0.04055  -0.01778   0.04097   0.01559
  56        4PX        -0.00378   0.04844   0.00597  -0.01215   0.01152
  57        4PY        -0.01916   0.16333   0.01582  -0.02916   0.03122
  58        4PZ         0.02738  -0.14562  -0.01528   0.02863  -0.02868
  59        5PX        -0.01046   0.05165  -0.00624   0.00004   0.02517
  60        5PY        -0.01234   0.13373   0.01794  -0.05029   0.03584
  61        5PZ         0.01833  -0.10007  -0.01873   0.00353  -0.02623
  62        6D 0       -0.01485  -0.00759  -0.00023   0.00001   0.00080
  63        6D+1        0.00548   0.00190  -0.00028   0.00041   0.00006
  64        6D-1        0.00205   0.00040   0.00018  -0.00028   0.00001
  65        6D+2       -0.01190  -0.00177  -0.00045   0.00083   0.00024
  66        6D-2       -0.00023   0.00224  -0.00053   0.00052  -0.00020
  67 7   H  1S         -0.00836   0.01248  -0.00245   0.00251  -0.00056
  68        2S         -0.00673   0.00942  -0.00413  -0.00075   0.00180
  69        3PX        -0.00028   0.00199   0.00037  -0.00086   0.00025
  70        3PY        -0.00086   0.00657   0.00075  -0.00106   0.00140
  71        3PZ         0.00097  -0.00616  -0.00059   0.00176  -0.00138
  72 8   C  1S          0.00399  -0.00748   0.00450  -0.00428   0.00069
  73        2S         -0.00805   0.02040  -0.00988   0.01373   0.00020
  74        3S         -0.01288  -0.02247   0.01772   0.02079  -0.06252
  75        4PX         0.03853   0.08453  -0.01565   0.01517  -0.00542
  76        4PY         0.19364   0.13964   0.00742  -0.00705  -0.00773
  77        4PZ        -0.17762  -0.11504  -0.00772   0.00797   0.00548
  78        5PX         0.03539   0.05078   0.00762  -0.01297  -0.04037
  79        5PY         0.13639   0.12465  -0.00090  -0.00195  -0.00332
  80        5PZ        -0.13688  -0.06911  -0.00901   0.01066   0.01814
  81        6D 0       -0.00532   0.00903   0.00059  -0.00173   0.00254
  82        6D+1       -0.00578   0.00360  -0.00026  -0.00043   0.00106
  83        6D-1        0.00365  -0.00280  -0.00032   0.00075  -0.00124
  84        6D+2        0.00194   0.00172   0.00035  -0.00048  -0.00022
  85        6D-2        0.00745  -0.00408  -0.00217   0.00290  -0.00247
  86 9   H  1S          0.00733  -0.01690   0.00864  -0.00876   0.00032
  87        2S          0.00935  -0.01893   0.01626  -0.02208  -0.00631
  88        3PX         0.00185   0.00284  -0.00081   0.00079   0.00035
  89        3PY         0.00792   0.00596   0.00021  -0.00000   0.00004
  90        3PZ        -0.00702  -0.00491  -0.00055   0.00047   0.00020
  91 10  C  1S         -0.00371   0.00659  -0.01113   0.00861   0.00145
  92        2S          0.01193  -0.01679   0.03149  -0.02775  -0.01329
  93        3S         -0.05474   0.04997   0.01673  -0.01399   0.08767
  94        4PX         0.08800  -0.05575   0.02461  -0.01482  -0.01086
  95        4PY         0.21409  -0.03254  -0.02781   0.04123  -0.03539
  96        4PZ        -0.17090   0.04754   0.00406  -0.02017   0.02804
  97        5PX         0.03645  -0.02474   0.03603   0.00204  -0.01789
  98        5PY         0.16778  -0.05577  -0.00952   0.04896  -0.03408
  99        5PZ        -0.11779   0.02748   0.03323  -0.02873  -0.01872
 100        6D 0        0.00634  -0.00624   0.00114  -0.00101  -0.00087
 101        6D+1        0.00484   0.01004  -0.00080   0.00051  -0.00068
 102        6D-1        0.00008  -0.00485   0.00069  -0.00114   0.00060
 103        6D+2       -0.00480  -0.00419  -0.00064   0.00243  -0.00042
 104        6D-2       -0.00527  -0.01007   0.00061  -0.00030   0.00089
 105 11  H  1S          0.02204  -0.01765   0.01055  -0.01111  -0.00119
 106        2S          0.02594  -0.02536  -0.02941  -0.00279   0.01657
 107        3PX         0.00396  -0.00242   0.00000  -0.00033  -0.00097
 108        3PY         0.00811  -0.00062  -0.00074   0.00118  -0.00202
 109        3PZ        -0.00671   0.00147  -0.00027  -0.00032   0.00117
 110 12  C  1S          0.00388  -0.00491  -0.04667   0.04024   0.00059
 111        2S         -0.01276   0.01787   0.10472  -0.10879  -0.00045
 112        3S         -0.01649  -0.01784   0.45626  -0.11972   0.01219
 113        4PX         0.05906  -0.08069   0.12300  -0.12415   0.02490
 114        4PY         0.02224  -0.02496   0.05679  -0.06112   0.00639
 115        4PZ         0.04722  -0.07458  -0.15992   0.12582  -0.03197
 116        5PX         0.00277   0.04135   0.05165  -0.17559   0.04823
 117        5PY         0.01525  -0.00815   0.05764  -0.07482   0.07053
 118        5PZ         0.00550  -0.01585  -0.21043   0.05775  -0.05881
 119        6D 0        0.00300  -0.00355   0.00171  -0.00225  -0.00326
 120        6D+1       -0.00253   0.00122  -0.00107   0.00164   0.00210
 121        6D-1        0.00382  -0.00525  -0.00034   0.00148  -0.00390
 122        6D+2       -0.00931   0.01831   0.00168   0.00038  -0.00481
 123        6D-2        0.00490  -0.00506   0.00331  -0.00419  -0.00227
 124 13  H  1S          0.06372  -0.09838  -0.02525   0.01259  -0.02918
 125        2S          0.03884  -0.05951  -0.03584   0.09987  -0.00289
 126        3PX         0.00190  -0.00334   0.00612  -0.00290   0.00120
 127        3PY        -0.00021  -0.00012   0.00169  -0.00158   0.00092
 128        3PZ        -0.00055   0.00127  -0.00384   0.00112  -0.00150
 129 14  C  1S         -0.00512  -0.00191   0.00208   0.00038   0.00229
 130        2S          0.01137   0.00700   0.00593  -0.01650  -0.00338
 131        3S          0.00591  -0.02790  -0.05580   0.00842  -0.05447
 132        4PX        -0.03382  -0.02673  -0.05421   0.04167   0.02082
 133        4PY        -0.02929   0.00944  -0.02654   0.02373  -0.03483
 134        4PZ        -0.02346  -0.00388   0.05371  -0.06280  -0.00643
 135        5PX        -0.03471   0.00524   0.07699  -0.08970  -0.03872
 136        5PY        -0.00766  -0.01253   0.09114  -0.02014   0.14560
 137        5PZ        -0.00663  -0.01893  -0.12794   0.08713  -0.03857
 138        6D 0        0.00401  -0.00317   0.02193  -0.01228   0.00756
 139        6D+1       -0.00052   0.00214  -0.02077  -0.00086  -0.02109
 140        6D-1        0.00167  -0.00324   0.00197   0.03784   0.02305
 141        6D+2       -0.00111  -0.00243  -0.01372  -0.03353   0.02874
 142        6D-2       -0.00322   0.00039   0.04285  -0.01118  -0.00614
 143 15  O  1S         -0.00135  -0.00732  -0.01012   0.00715   0.01988
 144        2S         -0.00625  -0.01335  -0.01393   0.01055   0.04207
 145        3S          0.01742  -0.04579  -0.08750   0.05067   0.09969
 146        4PX        -0.16821   0.35694  -0.03064   0.06353   0.03535
 147        4PY        -0.05546   0.09608  -0.02109   0.04162   0.03918
 148        4PZ        -0.05895   0.13272   0.03721  -0.00638  -0.01706
 149        5PX        -0.13402   0.27662  -0.02989   0.06378   0.00598
 150        5PY        -0.03811   0.07220  -0.02490   0.03775   0.03739
 151        5PZ        -0.04731   0.10072   0.03831  -0.00633   0.00944
 152        6D 0       -0.00274   0.00583   0.00291  -0.00043  -0.00099
 153        6D+1       -0.00307   0.00652  -0.00065   0.00090   0.00263
 154        6D-1       -0.00134   0.00303  -0.00321   0.00353   0.00071
 155        6D+2        0.00271  -0.00490  -0.00118  -0.00011  -0.00204
 156        6D-2       -0.00112   0.00331   0.00185  -0.00185  -0.00081
 157 16  H  1S         -0.00419   0.01213   0.04306  -0.02662  -0.03225
 158        2S         -0.00102   0.02188   0.01082  -0.02184  -0.03635
 159        3PX        -0.00996   0.02128   0.00048   0.00266   0.00356
 160        3PY        -0.00293   0.00550  -0.00259   0.00377   0.00076
 161        3PZ        -0.00321   0.00673  -0.00033   0.00181   0.00175
 162 17  O  1S         -0.00022   0.00035  -0.00237   0.00177   0.00604
 163        2S         -0.00117  -0.00016  -0.00368  -0.00173   0.01173
 164        3S          0.00795   0.00076  -0.03765   0.06824   0.06348
 165        4PX        -0.04715   0.00871  -0.04595  -0.35490   0.03111
 166        4PY        -0.01364  -0.04073  -0.00230  -0.20441   0.43455
 167        4PZ        -0.02977   0.00773  -0.39529  -0.06536  -0.26015
 168        5PX        -0.03431   0.00959  -0.03860  -0.29229   0.01594
 169        5PY        -0.00622  -0.02887  -0.01998  -0.14906   0.32539
 170        5PZ        -0.02107   0.01158  -0.30621  -0.05409  -0.18717
 171        6D 0       -0.00157   0.00097  -0.00700  -0.00509  -0.00672
 172        6D+1        0.00019  -0.00025   0.00642  -0.00208   0.00692
 173        6D-1       -0.00096  -0.00117  -0.00674  -0.00364   0.00153
 174        6D+2        0.00231   0.00047   0.00231   0.01100  -0.00697
 175        6D-2       -0.00072   0.00109  -0.00013  -0.00127  -0.00760
 176 18  O  1S         -0.00088   0.00230  -0.00150   0.00094  -0.01130
 177        2S         -0.00235   0.00517   0.00520   0.00047  -0.02326
 178        3S         -0.00221   0.01123  -0.08112   0.02348  -0.08779
 179        4PX        -0.05411   0.01197   0.40286   0.03196  -0.30105
 180        4PY        -0.00975  -0.02758   0.17378   0.04365   0.13188
 181        4PZ        -0.01772  -0.00862  -0.05237   0.42919   0.22795
 182        5PX        -0.03515   0.00865   0.30653   0.04216  -0.23366
 183        5PY        -0.00574  -0.01958   0.15900   0.03314   0.11003
 184        5PZ        -0.01197  -0.00203  -0.03166   0.33255   0.17510
 185        6D 0       -0.00038  -0.00058   0.00259   0.00594   0.00509
 186        6D+1       -0.00129   0.00010   0.00319   0.00325  -0.00325
 187        6D-1        0.00103  -0.00018   0.00203  -0.01036  -0.00596
 188        6D+2       -0.00115  -0.00123   0.00679   0.00160   0.00135
 189        6D-2        0.00214  -0.00024  -0.00982  -0.00219   0.00817
                          41        42        43        44        45
                           V         V         V         V         V
     Eigenvalues --     0.12231   0.13246   0.20582   0.21946   0.23831
   1 1   C  1S          0.00486  -0.00105   0.01815  -0.00512  -0.00594
   2        2S         -0.01446   0.01380  -0.04638   0.04295   0.02667
   3        3S         -0.03081  -0.15244  -0.02525   0.28416   0.02651
   4        4PX        -0.02316   0.06603  -0.01254   0.00712  -0.01498
   5        4PY        -0.07410   0.26323   0.00532  -0.02873  -0.02717
   6        4PZ         0.05624  -0.23198  -0.01250   0.04560  -0.00176
   7        5PX        -0.00118   0.05691   0.37882  -0.61044  -0.20801
   8        5PY        -0.10765   0.35691   0.03862  -0.11151   0.14910
   9        5PZ         0.03500  -0.31363   0.14283  -0.22060   0.14825
  10        6D 0        0.02558   0.00519  -0.00595   0.00229  -0.00377
  11        6D+1       -0.00842  -0.00466   0.00260   0.00566  -0.00402
  12        6D-1       -0.00452   0.00175  -0.00552   0.00784   0.00093
  13        6D+2        0.01670   0.00729   0.00808   0.00126   0.00288
  14        6D-2       -0.00221   0.00623  -0.00272   0.00897  -0.00014
  15 2   C  1S          0.00188  -0.00049   0.02575  -0.01648  -0.01200
  16        2S          0.00056   0.00175  -0.05335   0.05618   0.05230
  17        3S         -0.04899   0.00571   0.06434  -0.48929   0.38831
  18        4PX         0.07735  -0.00450  -0.01884   0.01814   0.04852
  19        4PY         0.25366  -0.02742   0.00053   0.02053  -0.06251
  20        4PZ        -0.23703   0.03034   0.01136   0.02451  -0.02687
  21        5PX         0.09714   0.00933  -0.18055   0.13205   0.26200
  22        5PY         0.32895  -0.04246   0.08581  -0.20800  -0.07502
  23        5PZ        -0.33661   0.06408   0.06669  -0.22521   0.01698
  24        6D 0       -0.00008  -0.02300  -0.00205   0.00207   0.00189
  25        6D+1       -0.00674  -0.01054  -0.00726  -0.00479   0.00378
  26        6D-1        0.00226   0.00755   0.00336  -0.00111   0.00273
  27        6D+2        0.00483  -0.00453  -0.00124  -0.00034   0.00229
  28        6D-2        0.00644   0.01735  -0.00792  -0.00494   0.00051
  29 3   H  1S          0.00216   0.00536   0.02057   0.01799   0.01100
  30        2S         -0.00375   0.01166   0.33075  -0.09440  -0.56118
  31        3PX         0.00542  -0.00097   0.00480  -0.00312  -0.00096
  32        3PY         0.01314  -0.00208  -0.00454   0.00136  -0.00054
  33        3PZ        -0.01205   0.00134  -0.00251  -0.00040  -0.00019
  34 4   C  1S         -0.00030   0.00269   0.03420   0.02713  -0.04672
  35        2S         -0.00187  -0.00915  -0.07615  -0.05854   0.12195
  36        3S          0.00636   0.02892  -0.89324  -0.24719   1.47141
  37        4PX        -0.04904  -0.06846   0.03594   0.00976  -0.03552
  38        4PY        -0.16667  -0.19936   0.05524   0.05402  -0.07243
  39        4PZ         0.15088   0.17909   0.05800   0.04162  -0.12560
  40        5PX        -0.07492  -0.08479   0.00301   0.04655  -0.17931
  41        5PY        -0.22930  -0.29832   0.19267   0.31169  -0.40403
  42        5PZ         0.21911   0.28630   0.18389   0.32962  -0.57417
  43        6D 0       -0.00415  -0.00892   0.00532   0.00297   0.00199
  44        6D+1       -0.01589   0.01232   0.00228   0.00159  -0.00066
  45        6D-1        0.00535  -0.00162   0.00363   0.00248   0.00481
  46        6D+2        0.00937  -0.01282  -0.00571   0.00043   0.00018
  47        6D-2        0.01723  -0.00822   0.00394   0.00389  -0.00126
  48 5   H  1S         -0.00256   0.00231   0.01074   0.01073   0.01492
  49        2S          0.00158   0.01939   0.93689   0.82469  -1.76273
  50        3PX        -0.00284  -0.00410  -0.00063  -0.00250   0.00127
  51        3PY        -0.00980  -0.01162  -0.00158  -0.00096   0.00104
  52        3PZ         0.00895   0.01028  -0.00299  -0.00367  -0.00122
  53 6   C  1S          0.00136   0.00161   0.04867   0.02425  -0.01406
  54        2S         -0.00490  -0.00120  -0.11199  -0.05193   0.03427
  55        3S          0.02088  -0.05451  -0.97542  -1.07374   0.31723
  56        4PX        -0.02859   0.07885   0.12616   0.07965  -0.03271
  57        4PY        -0.08582   0.24265  -0.01027  -0.01697  -0.02115
  58        4PZ         0.07131  -0.21571   0.03740   0.05384   0.00441
  59        5PX        -0.02914   0.11092   0.56076   0.20496  -0.26421
  60        5PY        -0.12282   0.37856  -0.02317  -0.03487   0.13338
  61        5PZ         0.12489  -0.34912   0.19565   0.12000   0.12837
  62        6D 0       -0.02528  -0.00402  -0.00259  -0.00202  -0.00170
  63        6D+1        0.00728   0.00916   0.00411  -0.00075  -0.00160
  64        6D-1        0.00313  -0.00216  -0.00594  -0.00206   0.00022
  65        6D+2       -0.01534  -0.00786   0.00722  -0.00061   0.00091
  66        6D-2        0.00301  -0.00752   0.00156   0.00167  -0.00055
  67 7   H  1S          0.00220   0.00239   0.01233  -0.01369  -0.00016
  68        2S          0.01197   0.00848   1.47724   0.93680  -0.45034
  69        3PX        -0.00180   0.00451  -0.00483   0.00028  -0.00042
  70        3PY        -0.00487   0.01440   0.00011  -0.00211   0.00062
  71        3PZ         0.00397  -0.01251  -0.00142   0.00122   0.00368
  72 8   C  1S         -0.00005   0.00179   0.04475   0.01013   0.04952
  73        2S          0.00509  -0.00636  -0.10207  -0.01674  -0.11936
  74        3S         -0.07423   0.02568  -1.26931   0.28528  -1.34438
  75        4PX         0.08244  -0.02467   0.07940   0.02530   0.08720
  76        4PY         0.25545  -0.06954  -0.07852   0.01184  -0.06548
  77        4PZ        -0.21929   0.05948  -0.04993  -0.03557  -0.08644
  78        5PX         0.09840  -0.03394   0.16642   0.22891   0.61138
  79        5PY         0.40193  -0.12400  -0.26427  -0.15051  -0.45012
  80        5PZ        -0.31607   0.08718  -0.23182  -0.16085  -0.34553
  81        6D 0       -0.00077   0.02204  -0.00172  -0.00094  -0.00097
  82        6D+1        0.00722   0.00734  -0.00965   0.00154   0.00313
  83        6D-1       -0.00274  -0.00794  -0.00011   0.00215  -0.00300
  84        6D+2       -0.00598   0.00322  -0.00298  -0.00093  -0.00021
  85        6D-2       -0.00890  -0.01842  -0.00520  -0.00213   0.00271
  86 9   H  1S          0.00439   0.00392   0.01229   0.00096  -0.01356
  87        2S         -0.00153   0.01868   1.33247   0.32424   1.81470
  88        3PX         0.00457  -0.00155  -0.00204  -0.00280  -0.00026
  89        3PY         0.01464  -0.00376   0.00164   0.00348   0.00187
  90        3PZ        -0.01258   0.00344   0.00262  -0.00229  -0.00132
  91 10  C  1S         -0.00022   0.00340   0.03214  -0.01719   0.01552
  92        2S         -0.00865  -0.00984  -0.07063   0.06357  -0.03529
  93        3S          0.11646  -0.00230  -0.29084  -0.09449  -1.00455
  94        4PX        -0.05855  -0.05730  -0.00421   0.00308  -0.03652
  95        4PY        -0.19992  -0.18502  -0.03426   0.01580  -0.07396
  96        4PZ         0.15184   0.14397  -0.07572   0.09028  -0.06836
  97        5PX        -0.07450  -0.06926  -0.25600   0.25862  -0.24480
  98        5PY        -0.31493  -0.27913  -0.21835   0.39038  -0.04670
  99        5PZ         0.19236   0.20525  -0.37049   0.55852  -0.14731
 100        6D 0        0.00374   0.00971   0.00609  -0.00074   0.00121
 101        6D+1        0.01414  -0.01408   0.00413   0.00281  -0.00055
 102        6D-1       -0.00557   0.00202   0.00516   0.00322  -0.00076
 103        6D+2       -0.00844   0.01354  -0.00489  -0.00213  -0.00568
 104        6D-2       -0.01582   0.01216   0.00594  -0.00095   0.00063
 105 11  H  1S         -0.00295  -0.00007   0.01804   0.01352  -0.00454
 106        2S          0.01281   0.03476   0.87944  -0.80738   0.88841
 107        3PX        -0.00325  -0.00310   0.00399  -0.00537  -0.00216
 108        3PY        -0.01098  -0.01051   0.00427  -0.00211  -0.00057
 109        3PZ         0.00860   0.00900   0.00506  -0.00112   0.00078
 110 12  C  1S         -0.00058   0.00864   0.00224  -0.02814  -0.00098
 111        2S          0.01412  -0.03088   0.04776  -0.03322  -0.03361
 112        3S         -0.14967   0.05820  -0.87560   1.81660   0.45721
 113        4PX         0.00408  -0.03405  -0.03976  -0.02025  -0.02093
 114        4PY        -0.02169   0.02861  -0.05365   0.13262   0.04362
 115        4PZ        -0.00186   0.01669  -0.06265   0.09678  -0.00341
 116        5PX        -0.05110  -0.08630   0.05774  -0.11075  -0.01789
 117        5PY        -0.08810  -0.00188  -0.13769   0.34107  -0.04184
 118        5PZ         0.06495   0.00340  -0.12979   0.30406  -0.06742
 119        6D 0        0.00308   0.00294   0.00653  -0.01012  -0.00246
 120        6D+1       -0.00426   0.01231  -0.00207  -0.00014   0.00199
 121        6D-1        0.00132  -0.00275   0.00177  -0.00462  -0.00155
 122        6D+2        0.00299  -0.01065  -0.00266  -0.00059  -0.00410
 123        6D-2        0.00437  -0.01590   0.00017  -0.00192  -0.00050
 124 13  H  1S          0.00041   0.02674   0.00987  -0.02727   0.01065
 125        2S          0.05068   0.04405   0.51619  -1.22294  -0.10352
 126        3PX         0.00037  -0.00121  -0.00335  -0.00177  -0.00196
 127        3PY        -0.00035   0.00127   0.00027   0.00372   0.00606
 128        3PZ         0.00114  -0.00056   0.00555  -0.01165  -0.00257
 129 14  C  1S         -0.00574   0.01976   0.00082  -0.00149  -0.00026
 130        2S          0.00417  -0.05075  -0.00311   0.01580   0.00560
 131        3S          0.19460  -0.07583   0.12722  -0.32070  -0.15210
 132        4PX        -0.01615   0.03404  -0.02993   0.04071  -0.00411
 133        4PY        -0.01099   0.02272  -0.01478   0.02341  -0.00014
 134        4PZ         0.01837  -0.06063  -0.03314   0.04986  -0.00398
 135        5PX        -0.05998   0.01949  -0.04571   0.08611  -0.01672
 136        5PY        -0.03927  -0.00081  -0.03622   0.06900   0.09497
 137        5PZ         0.04863  -0.02241   0.01100  -0.05104  -0.02620
 138        6D 0       -0.00030  -0.00673  -0.00485   0.00536   0.00070
 139        6D+1       -0.00013   0.00068  -0.00030  -0.00169  -0.00067
 140        6D-1        0.00079   0.00374  -0.00113   0.00337   0.00113
 141        6D+2        0.00194   0.00084   0.00112   0.00103   0.00051
 142        6D-2        0.00173  -0.00182   0.00424  -0.00702  -0.00167
 143 15  O  1S         -0.00318   0.02045  -0.02077   0.05761   0.03272
 144        2S         -0.00021   0.04533  -0.04023   0.10284   0.06316
 145        3S         -0.06104   0.09997  -0.14710   0.50756   0.25343
 146        4PX         0.00732  -0.06962   0.03132  -0.04325  -0.01930
 147        4PY        -0.03193   0.04801   0.01492  -0.02059  -0.00796
 148        4PZ        -0.01644  -0.00861  -0.02506   0.11460   0.06100
 149        5PX         0.02149  -0.05050   0.02986  -0.04307  -0.01842
 150        5PY        -0.03078   0.03682   0.05619  -0.11928  -0.06298
 151        5PZ        -0.01659  -0.00027  -0.05667   0.19834   0.12899
 152        6D 0       -0.00066   0.00097  -0.00068   0.00512   0.00405
 153        6D+1        0.00026  -0.00212   0.00294  -0.00640  -0.00293
 154        6D-1       -0.00096   0.00169  -0.00027   0.00019  -0.00090
 155        6D+2       -0.00022  -0.00071   0.00024   0.00024   0.00108
 156        6D-2       -0.00037  -0.00060  -0.00113   0.00035  -0.00002
 157 16  H  1S          0.00324  -0.00305   0.01920  -0.04266  -0.02099
 158        2S          0.03294  -0.10351   0.33356  -1.01891  -0.56538
 159        3PX        -0.00117  -0.00309   0.00221  -0.00340  -0.00186
 160        3PY        -0.00175   0.00384   0.00128   0.00039   0.00160
 161        3PZ        -0.00099  -0.00069  -0.00014   0.00213   0.00231
 162 17  O  1S         -0.00250   0.00436  -0.00412   0.00944   0.00607
 163        2S         -0.00350   0.01061  -0.00999   0.01985   0.01004
 164        3S         -0.02605   0.01343  -0.01889   0.05829   0.07293
 165        4PX         0.02804  -0.02354   0.03678  -0.05568  -0.01402
 166        4PY         0.02705  -0.02991   0.02207  -0.03294  -0.01671
 167        4PZ        -0.01179   0.06487   0.01968  -0.00345   0.01134
 168        5PX         0.03237  -0.02154   0.03787  -0.06625  -0.02396
 169        5PY         0.02620  -0.02639   0.01947  -0.02951  -0.00603
 170        5PZ        -0.01678   0.05654   0.01631   0.00431   0.02143
 171        6D 0        0.00003  -0.00013  -0.00045   0.00076   0.00001
 172        6D+1        0.00072  -0.00050   0.00050  -0.00109  -0.00075
 173        6D-1        0.00016   0.00047  -0.00031   0.00128   0.00035
 174        6D+2       -0.00069   0.00024  -0.00032   0.00063   0.00085
 175        6D-2        0.00036  -0.00002   0.00055  -0.00088  -0.00071
 176 18  O  1S          0.00065  -0.00169  -0.00215   0.00417  -0.00011
 177        2S          0.00321  -0.00521  -0.00540   0.00899   0.00243
 178        3S         -0.01738   0.01466  -0.00778   0.02926  -0.03101
 179        4PX        -0.01539   0.04547   0.01972  -0.02303   0.00905
 180        4PY         0.01812   0.00167   0.00733  -0.00514  -0.00092
 181        4PZ         0.02351   0.03018   0.02080  -0.03584  -0.01238
 182        5PX        -0.00409   0.04013   0.02186  -0.02262   0.00824
 183        5PY         0.01695  -0.00353   0.01121  -0.01519   0.00509
 184        5PZ         0.01202   0.03042   0.02348  -0.03238  -0.01141
 185        6D 0        0.00052  -0.00079  -0.00021   0.00031  -0.00003
 186        6D+1        0.00080   0.00037  -0.00019  -0.00011  -0.00038
 187        6D-1       -0.00049   0.00028   0.00072  -0.00160   0.00014
 188        6D+2       -0.00023   0.00129  -0.00001  -0.00031  -0.00024
 189        6D-2        0.00078  -0.00120   0.00022  -0.00052  -0.00025
     Density Matrix:
                           1         2         3         4         5
   1 1   C  1S          2.08866
   2        2S         -0.18166   0.57607
   3        3S         -0.16444   0.18074   0.64428
   4        4PX        -0.00231   0.01817   0.01652   0.42760
   5        4PY        -0.00026   0.00347  -0.02692  -0.02284   0.37880
   6        4PZ        -0.00154  -0.00306   0.03380   0.01637   0.05109
   7        5PX        -0.01741   0.03813  -0.03434   0.20540  -0.01598
   8        5PY         0.00953  -0.00586  -0.05005   0.00856   0.15611
   9        5PZ         0.00681  -0.00103  -0.07784   0.00457  -0.04881
  10        6D 0        0.00021  -0.00099  -0.00590  -0.00194  -0.00183
  11        6D+1       -0.00128   0.00329   0.00264   0.00896  -0.00373
  12        6D-1       -0.00126   0.00935  -0.00598  -0.00536  -0.00216
  13        6D+2       -0.00159   0.00563   0.00888   0.00647   0.00025
  14        6D-2        0.00035  -0.00340   0.00212   0.00171  -0.01329
  15 2   C  1S          0.03125  -0.06021   0.10105   0.03266   0.05897
  16        2S         -0.06215   0.09953  -0.10649  -0.05965  -0.11566
  17        3S          0.02957   0.00230  -0.31736  -0.01625  -0.06470
  18        4PX        -0.03385   0.06773  -0.09830  -0.00576  -0.02823
  19        4PY        -0.06242   0.13013   0.08545  -0.03047   0.00284
  20        4PZ        -0.07751   0.15017   0.11375  -0.10155  -0.24903
  21        5PX         0.00608   0.00331   0.00393  -0.00728   0.00469
  22        5PY        -0.01344   0.03008  -0.15289   0.00699   0.02931
  23        5PZ        -0.00660   0.01527  -0.12343  -0.03860  -0.11652
  24        6D 0       -0.00365   0.00577   0.00570  -0.00598  -0.01056
  25        6D+1       -0.00410   0.00702   0.00924   0.00769  -0.00676
  26        6D-1       -0.00733   0.00922   0.00076  -0.00690   0.00094
  27        6D+2        0.00219  -0.00419   0.00024   0.00764  -0.00441
  28        6D-2       -0.00357   0.00757   0.00917   0.00509  -0.00344
  29 3   H  1S          0.01852  -0.04463  -0.21209  -0.00726   0.04000
  30        2S          0.00627  -0.03063  -0.16560  -0.03270   0.03767
  31        3PX        -0.00111   0.00215   0.00917  -0.00149   0.00055
  32        3PY        -0.00043   0.00346  -0.00709   0.00025  -0.00027
  33        3PZ        -0.00075   0.00361  -0.00292  -0.00274  -0.00811
  34 4   C  1S         -0.00543   0.01120  -0.06821  -0.01174  -0.00739
  35        2S          0.01342  -0.02863   0.09889   0.03092   0.01675
  36        3S         -0.00244   0.01536   0.28002   0.02279   0.00884
  37        4PX         0.01613  -0.03777  -0.02145   0.03192   0.01769
  38        4PY         0.00548  -0.01590  -0.10547   0.00389   0.00596
  39        4PZ         0.01128  -0.02862  -0.12753   0.01921   0.01885
  40        5PX         0.01046  -0.02666  -0.02319   0.03629   0.01355
  41        5PY        -0.00189   0.01481   0.11004  -0.01535  -0.00765
  42        5PZ        -0.00110   0.01324   0.11579   0.00416   0.00817
  43        6D 0       -0.00097   0.00209   0.00554  -0.00116  -0.00322
  44        6D+1       -0.00202   0.00463   0.00912  -0.00584  -0.01011
  45        6D-1       -0.00051   0.00189   0.00365  -0.00075   0.00011
  46        6D+2        0.00013   0.00015  -0.00492  -0.00012   0.00472
  47        6D-2       -0.00215   0.00512   0.00735  -0.00153   0.00159
  48 5   H  1S         -0.01294   0.03382   0.20429  -0.01920  -0.02662
  49        2S         -0.01102   0.02974   0.12100  -0.02318  -0.02660
  50        3PX         0.00045  -0.00046   0.00474   0.00089   0.00046
  51        3PY        -0.00010  -0.00052   0.00444   0.00030   0.00000
  52        3PZ         0.00014  -0.00069   0.00649   0.00091   0.00133
  53 6   C  1S         -0.00556   0.01030   0.04739  -0.01172  -0.00020
  54        2S          0.01189  -0.02739  -0.13596   0.03004  -0.00026
  55        3S          0.02175  -0.08102  -0.40906   0.08547  -0.00785
  56        4PX         0.01162  -0.03079  -0.01439   0.01996  -0.01804
  57        4PY         0.00103  -0.00528   0.02349  -0.01489  -0.08726
  58        4PZ         0.00246  -0.00424  -0.02913   0.03010   0.04565
  59        5PX         0.01102  -0.03136  -0.15077   0.00864  -0.02133
  60        5PY        -0.00188  -0.00104   0.04320  -0.00748  -0.07963
  61        5PZ        -0.00065  -0.00109  -0.04976   0.02999   0.03773
  62        6D 0       -0.00025   0.00053   0.00310  -0.00034  -0.00030
  63        6D+1        0.00034  -0.00074  -0.00466   0.00049  -0.00120
  64        6D-1       -0.00059   0.00141   0.00590  -0.00110  -0.00012
  65        6D+2        0.00046  -0.00110  -0.00703   0.00055   0.00037
  66        6D-2        0.00014  -0.00025  -0.00131   0.00063  -0.00032
  67 7   H  1S         -0.00175   0.00825  -0.05790  -0.00699  -0.00075
  68        2S          0.00053   0.00148  -0.03473  -0.00618  -0.00142
  69        3PX        -0.00005   0.00044  -0.00219  -0.00042  -0.00078
  70        3PY         0.00016  -0.00038   0.00083  -0.00088  -0.00344
  71        3PZ         0.00001   0.00035  -0.00218   0.00067   0.00263
  72 8   C  1S         -0.00539   0.01080  -0.06855  -0.01612   0.00768
  73        2S          0.01307  -0.02698   0.09453   0.04174  -0.01818
  74        3S         -0.00563   0.02694   0.25102   0.03406   0.03100
  75        4PX         0.01916  -0.04492  -0.09127   0.04981  -0.02603
  76        4PY        -0.00690   0.01882   0.12408  -0.01456   0.00162
  77        4PZ         0.00010   0.00324   0.08678   0.00359   0.00935
  78        5PX         0.00103  -0.00341   0.05644   0.04941   0.00109
  79        5PY        -0.00075  -0.01155  -0.06841   0.01689  -0.02269
  80        5PZ         0.00059  -0.01712  -0.07330   0.04045   0.00229
  81        6D 0        0.00146  -0.00373  -0.00281   0.00305  -0.00818
  82        6D+1        0.00186  -0.00417  -0.00887   0.00340  -0.00790
  83        6D-1        0.00051  -0.00062  -0.00113   0.00171   0.00191
  84        6D+2       -0.00082   0.00249   0.00093  -0.00356   0.00252
  85        6D-2        0.00186  -0.00434  -0.01049   0.00816   0.00181
  86 9   H  1S         -0.01296   0.03377   0.20981  -0.03472   0.02542
  87        2S         -0.01092   0.02884   0.11225  -0.04431   0.03096
  88        3PX         0.00059  -0.00090   0.00719   0.00152  -0.00151
  89        3PY         0.00011   0.00042  -0.00489  -0.00118  -0.00022
  90        3PZ         0.00032   0.00029  -0.00369  -0.00049   0.00097
  91 10  C  1S          0.03278  -0.06336   0.09009   0.07030  -0.06470
  92        2S         -0.06525   0.09574  -0.09097  -0.13680   0.13316
  93        3S          0.01467   0.01434  -0.24753  -0.03914   0.02182
  94        4PX        -0.07220   0.13841  -0.01371  -0.11751   0.17245
  95        4PY         0.06147  -0.11504  -0.11940   0.16379   0.01113
  96        4PZ         0.05319  -0.10928  -0.11210   0.08118  -0.19745
  97        5PX        -0.01706   0.04171  -0.00406  -0.01491   0.08948
  98        5PY         0.01515  -0.02106   0.04494   0.04330   0.04901
  99        5PZ         0.01241  -0.01858   0.09379   0.00537  -0.08045
 100        6D 0        0.00198  -0.00348  -0.00790  -0.00267   0.00138
 101        6D+1        0.00565  -0.01028  -0.00714   0.00488  -0.00965
 102        6D-1       -0.00429   0.00402  -0.00449  -0.00721  -0.00205
 103        6D+2       -0.00097   0.00129   0.00285   0.00911   0.00938
 104        6D-2        0.00703  -0.01096  -0.01012   0.00346  -0.00177
 105 11  H  1S          0.01987  -0.04904  -0.19788   0.01215  -0.03690
 106        2S          0.01024  -0.03882  -0.10150  -0.00167  -0.04664
 107        3PX        -0.00140   0.00367   0.00391  -0.00417   0.00462
 108        3PY         0.00039  -0.00279   0.00347   0.00489   0.00052
 109        3PZ         0.00033  -0.00321   0.00675   0.00157  -0.00797
 110 12  C  1S          0.02203  -0.04567   0.04856  -0.08032   0.00137
 111        2S         -0.03668   0.07276   0.04599   0.16679  -0.00362
 112        3S         -0.02038   0.03343  -0.12440   0.03874   0.06718
 113        4PX         0.08984  -0.18544  -0.08631  -0.30138   0.01952
 114        4PY         0.00641  -0.01349  -0.06378  -0.01088   0.02917
 115        4PZ         0.02848  -0.06173  -0.06533  -0.09590  -0.02499
 116        5PX         0.01960  -0.04447   0.00921  -0.10120  -0.00841
 117        5PY        -0.00281  -0.01250   0.00566  -0.02142   0.03194
 118        5PZ         0.01649  -0.02681   0.06204  -0.03607  -0.01666
 119        6D 0        0.00449  -0.00638  -0.00500  -0.00460  -0.00107
 120        6D+1       -0.00404   0.00667   0.00277   0.00733  -0.00030
 121        6D-1        0.00075  -0.00143  -0.01174  -0.00197  -0.00364
 122        6D+2       -0.00939   0.01549   0.00452   0.01338  -0.00234
 123        6D-2        0.00120  -0.00312  -0.00048  -0.00209  -0.01054
 124 13  H  1S          0.02048  -0.04617  -0.10536  -0.04203  -0.01746
 125        2S          0.01270  -0.02412  -0.09081  -0.03130  -0.02895
 126        3PX         0.00124  -0.00513  -0.00180  -0.00866   0.00028
 127        3PY         0.00122  -0.00110   0.00011  -0.00122   0.00036
 128        3PZ         0.00069  -0.00188   0.00171  -0.00308  -0.00128
 129 14  C  1S         -0.00465   0.00872   0.01722   0.01497  -0.00029
 130        2S          0.00823  -0.02777   0.00851  -0.03838   0.00100
 131        3S          0.03270  -0.03376   0.03118  -0.04322  -0.01948
 132        4PX        -0.01185   0.03677   0.00097   0.02711  -0.00669
 133        4PY        -0.00574   0.01413   0.03181   0.01281  -0.00536
 134        4PZ         0.00815  -0.01943   0.03834  -0.03346   0.00309
 135        5PX        -0.02884   0.03731   0.01088   0.03378   0.02531
 136        5PY         0.00180   0.00516  -0.02574   0.00930  -0.00655
 137        5PZ         0.00857  -0.00987   0.04210  -0.00697  -0.01938
 138        6D 0        0.00153  -0.00421  -0.01009  -0.00753   0.00078
 139        6D+1       -0.00011  -0.00094   0.00840  -0.00172  -0.00165
 140        6D-1       -0.00082   0.00153  -0.01528   0.00217  -0.00065
 141        6D+2       -0.00089   0.00011   0.02199   0.00480   0.00284
 142        6D-2       -0.00036   0.00389  -0.01348   0.00234   0.00239
 143 15  O  1S          0.00341  -0.01003   0.01111  -0.00941   0.01082
 144        2S          0.00620  -0.02237  -0.00955  -0.02179   0.02432
 145        3S          0.01000  -0.02422  -0.02920  -0.02117   0.03614
 146        4PX        -0.03284   0.09827   0.00141   0.09013  -0.02284
 147        4PY         0.00067   0.00803   0.07779  -0.01193   0.00641
 148        4PZ        -0.01200   0.03650   0.10892   0.03123  -0.00305
 149        5PX        -0.03379   0.08607   0.01378   0.08913  -0.02226
 150        5PY        -0.00000   0.00917   0.06596  -0.00313   0.00873
 151        5PZ        -0.01380   0.03388   0.05473   0.03225  -0.00560
 152        6D 0       -0.00061   0.00159   0.00237   0.00168   0.00084
 153        6D+1       -0.00091   0.00254  -0.00140   0.00295  -0.00097
 154        6D-1       -0.00002   0.00019   0.00169  -0.00080  -0.00052
 155        6D+2       -0.00015   0.00051   0.00056   0.00185  -0.00075
 156        6D-2        0.00036  -0.00082  -0.00239  -0.00274   0.00061
 157 16  H  1S         -0.00078  -0.00089   0.06458  -0.00045   0.00895
 158        2S          0.00131   0.00094   0.01068   0.00144  -0.01214
 159        3PX        -0.00155   0.00588   0.00209   0.00592  -0.00083
 160        3PY        -0.00008   0.00014   0.00619  -0.00085   0.00026
 161        3PZ        -0.00120   0.00279  -0.00283   0.00237  -0.00093
 162 17  O  1S         -0.00076   0.00092  -0.00620   0.00292  -0.00006
 163        2S         -0.00294  -0.00114   0.03029   0.00664   0.00113
 164        3S          0.00827  -0.01315   0.01930   0.00445  -0.01656
 165        4PX        -0.00211  -0.01088   0.21951   0.00691   0.01321
 166        4PY        -0.00204  -0.00416   0.09826   0.01223   0.01530
 167        4PZ        -0.00995   0.01142   0.19561   0.03106  -0.01567
 168        5PX        -0.00116  -0.00853   0.17227   0.00307   0.01196
 169        5PY         0.00289  -0.01050   0.08335   0.00338   0.00831
 170        5PZ        -0.00694   0.00851   0.15277   0.02760  -0.01277
 171        6D 0       -0.00019   0.00003   0.00617   0.00014  -0.00026
 172        6D+1        0.00001  -0.00018  -0.00120  -0.00005   0.00052
 173        6D-1       -0.00012   0.00012   0.00509   0.00049  -0.00016
 174        6D+2        0.00023  -0.00042  -0.00735  -0.00097  -0.00046
 175        6D-2       -0.00008  -0.00007   0.00133  -0.00006   0.00002
 176 18  O  1S          0.00059  -0.00292   0.00267  -0.00052  -0.00480
 177        2S          0.00153  -0.00321   0.00196  -0.00135  -0.01298
 178        3S         -0.00970   0.00688   0.02184   0.01264  -0.00177
 179        4PX        -0.01337   0.06775  -0.19631   0.03104   0.01444
 180        4PY        -0.00417   0.01894  -0.09101   0.01724   0.00791
 181        4PZ        -0.00469   0.01285  -0.08551   0.01616  -0.01547
 182        5PX        -0.00899   0.04804  -0.15738   0.02087   0.01104
 183        5PY        -0.00049   0.01069  -0.07770   0.00720   0.00484
 184        5PZ        -0.00555   0.01396  -0.07536   0.01720  -0.00986
 185        6D 0       -0.00019   0.00007  -0.00252  -0.00016  -0.00026
 186        6D+1       -0.00036   0.00088  -0.00224   0.00023  -0.00028
 187        6D-1       -0.00007  -0.00001   0.00037  -0.00000   0.00039
 188        6D+2       -0.00036   0.00161  -0.00332   0.00115   0.00065
 189        6D-2        0.00043  -0.00239   0.00527  -0.00127   0.00005
                           6         7         8         9        10
   6        4PZ         0.38865
   7        5PX         0.04647   0.29988
   8        5PY        -0.03471  -0.01133   0.12894
   9        5PZ         0.16697   0.03649   0.01025   0.16194
  10        6D 0       -0.00652   0.00223   0.00161  -0.00068   0.00097
  11        6D+1       -0.01048  -0.00072   0.00446  -0.00106   0.00009
  12        6D-1       -0.00358   0.00407  -0.00057   0.00112   0.00025
  13        6D+2        0.00629  -0.00181  -0.00122   0.00023  -0.00018
  14        6D-2       -0.00316   0.00075  -0.00370   0.00250   0.00012
[...]
 2172,0.0699672,0.0691327,0.1149946,-0.0395853,0.0023288,-0.0348433,-0.
 0806565,0.0161646,0.0034911,0.0196384,0.0621389,-0.0979605,-0.0447298,
 -0.070297,0.0576559,-0.2055874,-0.1575131,0.0070253,-0.075555,-0.07636
 94,0.1021533,0.0045185,0.004722,-0.0088353,0.075282,0.0175259,0.000389
 8,0.0490876,-0.0425958,0.4930346,0.6120203,0.238401,0.4648114,-0.00092
 44,-0.0316275,0.0954587,-0.0195047,0.3378257,-0.0329961,-0.043922,-0.0
 167278,-0.0491885,-0.0231616,0.0978733,-0.0220802,0.0545817,-0.1027786
 ,1.4875157,-0.1517646,-0.3685627,0.2110443,1.693379,0.111041,-0.122408
 7,-0.1414372,0.053823,-0.9298545,-0.3700167,-0.1306635,-0.333041,-0.43
 04064,-0.2178064,-0.0065067,-0.205057,-0.5524861,0.2428387,0.0624251,0
 .018503,0.09672,0.1795415,0.0876242,-0.0057616,0.0835743,0.3060721,-0.
 7283849,0.0875378,0.0751297,-0.1484161,-1.594181,-0.1600532,0.0437992,
 0.0721592,-0.4550876,-1.3547965,-0.1593621,0.2326454,-0.1535741,-0.848
 4433,-0.0355518,0.0980221,-0.0092916,-0.5063833\Polar=58.1739608,4.020
 5105,104.3064759,-1.6703522,14.4784664,90.4542521\Quadrupole=1.1348256
 ,-9.1958237,8.0609981,4.8603868,6.3336404,-9.3654624\PG=C01 [X(C8H7O3)
 ]\NImag=14\\0.19509513,0.10773934,0.78280461,-0.02340836,-0.07331618,0
 .71844615,-0.07852459,-0.02082571,0.03018376,0.11133857,-0.01812058,-0
 .16053875,0.11657936,0.24305540,1.26763499,0.01984929,0.05408926,-0.35
 769608,-0.03648705,-0.10970580,0.71368141,0.00646815,-0.00229445,-0.00
 131103,0.00827849,-0.17669550,0.03594302,-0.02661687,-0.00123641,-0.00
 039073,-0.00269686,-0.17720664,-0.81473476,0.16416112,0.18326286,0.824
 64758,0.00604288,0.03550645,-0.00069161,0.03564585,0.16461940,-0.01025
 006,-0.03585814,-0.16694836,0.00987205,0.01134858,0.01120377,-0.008758
 05,-0.08218865,-0.03279550,-0.01580639,0.00787148,-0.00395597,-0.00650
 010,0.08991680,0.00841584,0.06380843,-0.04867263,-0.03110841,-0.249892
 39,-0.08742309,-0.00364861,-0.01100466,-0.03316576,0.15040248,0.791004
 82,-0.00013999,-0.00234645,-0.05474894,-0.03023810,-0.16971666,-0.2945
 8001,0.00157439,0.00922401,0.00937852,-0.05706931,-0.20876055,1.249444
 84,0.00929956,-0.00216116,-0.00101525,0.00886845,0.00121316,-0.0045665
 8,-0.00702380,0.00171788,0.00020727,0.03839437,-0.02871593,0.06597216,
 -0.05616701,-0.00230659,-0.00265515,-0.00436166,0.00118215,0.01294802,
 -0.02787401,0.00161935,0.00108813,0.00181698,-0.02826591,-0.07563021,0
 .27594775,0.03159481,0.07454819,-0.00058756,-0.00387564,-0.00201878,0.
 00294379,0.01363881,-0.01592498,-0.00009630,0.00014005,0.00178873,0.06
 640610,0.27762772,-0.77272543,-0.06765425,-0.28201482,0.78395450,-0.01
 140312,-0.00556901,0.00749355,0.00959160,-0.01126820,-0.01242197,0.009
 10571,-0.00195061,-0.00058646,-0.08579502,-0.07523014,0.02017992,0.007
 47811,-0.00301581,-0.00118493,0.08946129,-0.00521563,-0.04001813,0.039
 26568,-0.01140967,-0.04582163,-0.06517920,-0.00161540,-0.00016486,-0.0
 0400111,-0.07470885,-0.43414108,0.09803036,-0.00244428,-0.00530866,-0.
 00622054,0.19098138,0.97523133,0.00587556,0.03942369,-0.03140045,-0.00
 330151,-0.01848617,0.05251671,-0.00068603,-0.00373996,-0.00453185,0.00
 453650,0.01719311,-0.14360547,0.00743268,0.03703049,0.00243743,0.06295
 140,0.28562514,1.08006123,-0.00123731,-0.00018495,0.00039594,0.0080056
 6,-0.00281590,0.00073601,0.00033188,-0.00021004,-0.00037138,0.00651409
 ,-0.00423846,-0.00616771,-0.00639466,0.00186732,0.00004245,0.03039223,
 -0.08202855,-0.09096471,-0.04604036,0.00014629,-0.00061281,0.00127028,
 -0.00303969,-0.00563855,0.00273116,-0.00012837,-0.00061799,-0.00153145
 ,-0.00464075,-0.01454542,-0.03083729,0.00191768,0.00213166,0.00061605,
 -0.08151783,-0.33837208,-0.42997269,0.08575156,0.34253205,0.00021256,0
 .00118697,-0.00022335,0.00045930,0.00240854,0.00113829,0.00003930,0.00
 035584,0.00046348,0.00247401,0.01240366,0.01181290,-0.00022684,-0.0012
 1101,0.00079058,-0.09095288,-0.43085770,-0.49655745,0.09284368,0.43848
 616,0.50324089,0.00804520,-0.00915733,-0.00222760,-0.00919444,0.000879
 79,-0.00236796,-0.00083747,0.00044174,-0.00010121,0.01112422,-0.003918
 16,0.00758371,0.00802546,-0.00316020,0.00020348,-0.07646413,-0.0177196
 3,0.02511834,0.00729915,0.00134213,-0.00539465,0.10714196,-0.01044180,
 -0.04554988,-0.01762673,0.00035944,-0.00380701,-0.00781375,0.00067370,
 0.00099335,-0.00032727,-0.00454611,-0.01016938,0.03915230,-0.00317889,
 -0.00640476,0.00060555,-0.01707240,-0.16451145,0.13152950,0.00130446,0
 .01361767,-0.02552131,0.23665537,1.25002239,-0.01149455,-0.06458290,0.
 05654557,-0.00303729,-0.01406051,-0.06801835,0.00040743,-0.00009361,-0
 .00140592,0.01678639,0.08727764,0.01064975,0.00007567,0.00049856,0.002
 02688,0.00965819,0.05237593,-0.40076119,0.00310818,0.01697773,-0.01741
 463,-0.02375461,-0.14560357,0.71746403,0.00830663,-0.00218936,-0.00052
 273,-0.00106697,0.00019594,-0.00066705,-0.00145900,0.00028684,-0.00004
 914,0.00894685,-0.00090348,0.00028617,0.00044086,-0.00005735,-0.000005
 30,0.00739448,-0.00206935,-0.00042095,-0.00691110,0.00154912,0.0002018
 3,0.01398781,-0.17281383,0.02991828,-0.03033831,-0.00201552,-0.0002879
 2,-0.00379606,0.00037552,0.00079925,-0.00056872,0.00027331,-0.00010455
 ,0.00001506,-0.00150667,0.00170872,0.00205782,-0.00015733,-0.00029663,
 -0.00013034,-0.00203961,-0.00225909,-0.00586309,0.00158045,0.00058735,
 0.00034804,-0.17196615,-0.81597527,0.16016753,0.17760896,0.82748291,-0
 .00082686,-0.00406112,-0.00440636,-0.00019860,-0.00045461,-0.00140656,
 0.00001386,-0.00000329,0.00003481,0.00031340,0.00184593,-0.00676012,0.
 00042643,0.00178441,-0.00003551,0.00727850,0.03733208,-0.00053089,-0.0
 0026938,-0.00151232,0.00236398,0.03067318,0.15800464,-0.00829358,-0.03
 180841,-0.16217005,0.00659056,-0.07303624,-0.05718669,0.00037019,0.009
 50303,-0.00254046,0.01642658,0.00825570,-0.00175476,0.00079232,-0.0120
 2374,-0.01052623,-0.00354069,-0.00098806,-0.00004430,-0.00022334,0.012
 97035,0.00968266,-0.01076409,0.00881959,-0.00170059,0.00055713,-0.0837
 7474,-0.02976750,-0.01501765,0.00697753,-0.00369888,-0.00584349,0.0726
 5103,-0.06145134,-0.43304415,0.03138541,-0.00017986,-0.00592881,0.0762
 9209,-0.00204437,0.00091118,0.00187971,-0.00971099,-0.06007563,-0.0170
 0696,-0.00033564,-0.00102757,-0.00104258,0.00902023,0.05973631,-0.0470
 3880,-0.00152779,0.00031845,0.00379170,-0.03148602,-0.22840843,-0.0687
 0493,-0.00291126,-0.01205460,-0.03148134,0.11772403,0.78284122,0.01449
 826,0.09879484,-0.14155013,0.00757624,0.04151086,0.01426952,0.00042428
 ,0.00105678,-0.00669662,-0.00486725,-0.02499821,-0.00900331,-0.0002710
 2,-0.00077547,0.00053160,-0.00069208,0.00075992,-0.05691917,0.00063381
 ,0.00338390,-0.00488508,-0.03179238,-0.14760441,-0.27434592,0.00278653
 ,0.00956250,0.01045857,-0.00512164,-0.23610441,1.23116020,0.00687847,-
 0.00361804,0.00626635,0.00837806,-0.00244602,0.00023956,-0.00024439,-0
 .00000548,0.00024362,-0.00095165,-0.00017797,0.00027361,-0.00158186,0.
 00034056,-0.00002663,0.00823023,-0.00244462,-0.00099040,0.00057336,0.0
 0004687,-0.00028238,0.00699931,0.00162647,-0.00525722,-0.00626446,0.00
 160431,0.00047243,0.04543197,-0.01281576,0.02167145,-0.06245270,-0.002
 03252,-0.00610366,0.03430233,-0.00238846,-0.00662829,0.00109492,-0.000
 10259,-0.00007974,0.00182973,-0.00015103,-0.00133126,-0.00071208,0.000
 26025,-0.00001945,0.00002886,-0.00206943,-0.00268828,-0.00426755,0.000
 07272,0.00062394,-0.00129189,0.00051678,0.01234261,-0.02784166,0.00132
 077,0.00107327,0.00187576,-0.01239958,-0.08034502,0.28501047,0.0161133
 5,0.08096104,-0.00069959,-0.00447616,0.00140583,-0.00014339,0.00055035
 ,0.00115551,-0.00005663,-0.00015370,-0.00009141,0.00002983,-0.00031189
 ,0.00087746,0.00002690,0.00001342,-0.00006127,-0.00118773,-0.00434666,
 -0.00166481,0.00006196,0.00061190,-0.00090895,0.00229748,0.01325306,-0
 .01554391,0.00021088,-0.00003101,0.00163840,0.02237157,0.28685993,-0.7
 6880388,-0.02297829,-0.29041169,0.78067131,-0.07380082,-0.01012736,-0.
 01332464,0.00307438,0.00412710,0.00169165,-0.00295955,0.00013743,0.001
 37226,0.00591884,-0.00170354,0.00154244,0.00010671,0.00038368,0.000593
 99,-0.00088552,0.00035367,0.00201217,-0.00138369,0.00026535,0.00011184
 ,0.00863992,-0.00216029,-0.00196521,-0.00015746,0.00043475,0.00019301,
 0.00963994,-0.00100500,-0.00032918,-0.00580097,0.00109388,-0.00024783,
 0.41878138,0.00669213,-0.12279895,-0.03595792,0.00091177,0.01346835,-0
 .00204073,0.00124935,-0.00098180,0.00113876,-0.00156161,0.00112794,0.0
 0641210,0.00037769,0.00081867,0.00102779,-0.00021812,-0.00226498,-0.00
 091112,0.00053511,-0.00002410,0.00001571,-0.00375020,-0.00117350,0.003
 23596,0.00007301,-0.00041371,-0.00090663,-0.00962468,-0.02455114,-0.02
 377932,0.00277672,0.00142978,-0.00218862,0.02942677,0.54328994,0.00260
 389,-0.05505277,-0.16642602,-0.00276494,-0.02327962,-0.03042639,-0.000
 59847,-0.00125292,0.00089287,0.00182854,0.00470840,-0.00268230,-0.0002
 8867,-0.00092388,-0.00070594,-0.00011110,-0.00042331,-0.00022730,0.000
 12427,-0.00003202,0.00006686,-0.00086573,0.00412665,0.00074697,0.00004
 739,0.00069806,0.00066185,-0.00249277,-0.00249908,0.00719452,0.0015453
 3,0.00235568,0.00082962,0.01663878,-0.25314016,0.80809719,0.00145593,0
 .00322591,0.00064755,0.00176875,-0.00104761,-0.00120630,-0.00037709,0.
 00000113,-0.00003882,0.00018072,0.00054790,-0.00006701,-0.00015979,-0.
 00001872,-0.00006467,0.00007119,-0.00028980,0.00016961,0.00002480,-0.0
 0002589,0.00000112,-0.00041322,-0.00019131,-0.00009876,-0.00002377,-0.
 00003923,-0.00004791,0.00002526,-0.00051698,-0.00073895,0.00034104,-0.
 00012730,-0.00007741,0.00353010,0.00859407,-0.02144398,0.00937247,-0.0
 0099356,0.00798962,-0.02832936,-0.00096075,-0.00345789,-0.00258873,-0.
 00009713,0.00006029,0.00002196,0.00022237,0.00042340,-0.00124922,0.000
 00528,-0.00026062,-0.00026855,0.00000423,0.00028166,0.00008940,0.00001
 971,-0.00004299,0.00003630,-0.00007645,0.00019385,0.00007784,0.0000239
 7,0.00007531,0.00008408,0.00071158,0.00195646,-0.00118927,0.00023992,-
 0.00018845,0.00066711,0.00364095,-0.15916573,0.28927331,0.00755328,0.1
 7675817,-0.00238166,0.01326898,-0.02482961,-0.00083188,-0.00448442,-0.
 00293257,-0.00008039,0.00008982,0.00040437,0.00063958,0.00120301,-0.00
 086967,-0.00009138,-0.00029713,-0.00031239,-0.00006515,-0.00033288,0.0
 0046510,-0.00012862,-0.00006406,0.00007464,0.00037556,-0.00042036,-0.0
 0027197,-0.00001139,0.00000835,-0.00000365,0.00152473,0.00279466,0.002
 02536,-0.00078095,-0.00133242,0.00048788,-0.00852291,0.28228131,-0.486
 81395,0.00606967,-0.28794582,0.50105022,0.01777788,0.01192966,0.018871
 86,-0.00046645,-0.00152251,-0.00639245,0.00056264,0.00029533,0.0009035
 6,-0.00015931,0.00204348,0.00063049,0.00008006,-0.00013395,-0.00042721
 ,-0.00028209,-0.00277595,-0.00118155,0.00029246,-0.00019264,-0.0000473
 8,-0.00252921,-0.00054355,-0.00038701,0.00028425,-0.00063302,-0.000385
 89,-0.00726231,-0.00445445,-0.00332706,0.00235421,-0.00042638,0.000188
 14,-0.08595500,0.01655931,-0.01279916,0.00112764,-0.00086752,0.0033001
 1,0.81578196,0.01243849,-0.02463775,-0.01082216,-0.00070459,0.00403673
 ,0.00192076,-0.00042052,0.00104063,0.00095549,-0.00098745,-0.00146454,
 0.00076521,0.00022414,0.00028333,0.00042901,0.00013201,0.00107502,0.00
 067148,0.00015895,-0.00002229,0.00012289,-0.00046167,-0.00084671,-0.00
 054208,0.00006951,0.00023135,0.00013325,-0.00024114,0.00219911,0.00050
 752,0.00054460,-0.00056512,-0.00010532,0.05191389,-0.08564582,0.005397
 13,0.01189194,-0.01133085,-0.00260563,0.22483303,0.82227385,0.01999258
 ,-0.02249731,0.00063659,0.00016594,-0.00160506,-0.00085445,0.00081025,
 0.00001719,-0.00054218,-0.00079045,0.00071108,0.00016483,0.00009928,-0
 .00002686,0.00000341,0.00008041,-0.00063013,-0.00000334,0.00008579,0.0
 0003334,0.00000868,-0.00120213,-0.00021781,0.00008916,-0.00011015,-0.0
 0016013,-0.00021994,-0.00021158,-0.00039556,-0.00235524,0.00040528,-0.
 00011750,0.00006566,-0.00200469,0.00144248,-0.09164820,-0.02403533,0.0
 2094302,0.00451479,-0.04689463,-0.05176695,0.25822206,-0.01717064,-0.0
 1660291,-0.00381012,0.00232952,-0.00085686,0.00139364,-0.00059314,0.00
 074570,-0.00030297,0.00060308,-0.00007148,-0.00062543,-0.00029261,-0.0
 0010180,-0.00031776,-0.00008445,-0.00029414,-0.00092387,-0.00013762,0.
 00002330,-0.00010473,0.00070133,-0.00079806,0.00089016,0.00001347,-0.0
 0039506,-0.00035021,-0.00059290,-0.00102480,-0.00341416,-0.00050426,0.
 00041660,0.00051343,-0.19458140,-0.09765070,0.02807451,-0.02048340,-0.
 01298532,0.00145725,-0.03446555,-0.02863950,0.00245285,1.00197128,-0.0
 3136698,-0.02306561,-0.00222410,0.00075751,-0.00014493,0.00269472,-0.0
 0087365,0.00031683,-0.00072620,0.00117991,-0.00018262,-0.00019339,-0.0
 0017542,-0.00000429,-0.00016504,-0.00015698,-0.00036961,0.00019219,-0.
 00031203,0.00005220,-0.00010182,0.00177078,-0.00167127,-0.00072995,-0.
 00002712,-0.00033976,-0.00035220,0.00073823,0.00047515,-0.00433977,-0.
 00122884,0.00061005,0.00017752,-0.05431409,-0.12652264,0.03757631,-0.0
 3171282,-0.01469259,-0.00124300,0.01661084,0.00441312,-0.00116492,-0.4
 8005270,0.47866126,-0.02402389,-0.01696194,0.00951042,-0.00078773,0.00
 125497,-0.00021378,0.00051492,-0.00062996,0.00036430,0.00032870,0.0006
 6159,0.00196192,-0.00000642,0.00023170,0.00014738,-0.00034411,-0.00152
 487,0.00049211,-0.00009180,-0.00008484,0.00002682,0.00107649,-0.001452
 60,-0.00120843,0.00013155,-0.00020952,-0.00019269,0.00032718,0.0005236
 0,-0.00223778,-0.00075094,-0.00042222,-0.00010880,-0.01259266,0.019454
 33,-0.07895417,0.03398888,0.01797321,0.00584944,-0.00295583,-0.0022883
 9,0.00266056,0.45652050,-0.37652974,0.16227898,0.00085862,0.00064236,-
 0.00019912,-0.00002916,-0.00008926,-0.00002919,-0.00005078,-0.00006924
 ,-0.00027332,-0.00011981,0.00008275,0.00014811,0.00004614,0.00001344,0
 .00006952,-0.00004251,0.00007748,0.00019843,0.00006342,0.00001125,0.00
 003281,-0.00020917,0.00009546,-0.00006335,0.00003497,0.00006023,0.0000
 3489,-0.00033694,0.00030117,0.00026367,0.00012619,-0.00020470,-0.00006
 229,-0.02765720,0.02424492,-0.01831281,0.00504480,0.00214866,0.0014816
 7,-0.00504810,-0.00403485,0.00125194,-0.72642178,0.56897278,-0.4508330
 8,0.75512706,-0.00188703,0.00045768,0.00054089,0.00048054,-0.00006673,
 -0.00052149,0.00003677,0.00003341,-0.00002993,0.00001907,0.00025443,0.
 00006653,-0.00003566,0.00000799,0.00000579,-0.00003922,-0.00012749,0.0
 0008742,0.00000656,0.00000691,0.00001998,0.00011049,-0.00014675,-0.000
 01544,-0.00000782,-0.00000262,-0.00001755,0.00019562,-0.00049343,-0.00
 002802,-0.00014851,-0.00004648,0.00012114,-0.03402144,0.00604595,-0.01
 200992,-0.00034276,0.00084572,0.00021985,-0.00217048,-0.00460227,0.000
 29958,0.62817290,-0.32377085,0.35928847,-0.59193315,0.31992492,0.00067
 985,0.00085203,-0.00045868,-0.00011343,0.00014677,-0.00064292,0.000034
 72,0.00007774,0.00026530,0.00003941,-0.00010841,-0.00012612,-0.0000693
 6,0.00001536,0.00000318,0.00000154,0.00007262,-0.00006941,0.00002442,0
 .00000936,0.00000537,-0.00004530,0.00016741,0.00008505,0.00001452,0.00
 003853,0.00003158,-0.00026490,-0.00043960,0.00032655,0.00010003,0.0001
 3987,0.00001749,0.01185005,-0.00179353,0.00056322,0.00050059,-0.000763
 33,0.00130948,0.00169481,0.00341132,0.00048335,-0.48167256,0.34761742,
 -0.10364935,0.46624214,-0.34758801,0.10212631,-0.00559386,0.00022449,-
 0.00303139,0.00055623,0.00016102,0.00116667,-0.00030853,-0.00023726,-0
 .00044322,0.00006304,-0.00055787,-0.00028779,-0.00006904,0.00001729,0.
 00009559,0.00009582,0.00084713,0.00003154,-0.00007982,0.00007410,0.000
 01574,0.00068709,0.00022080,0.00051001,-0.00006413,0.00017103,0.000112
 72,0.00166127,0.00063866,0.00085137,-0.00067531,0.00009392,-0.00003896
 ,-0.00553443,0.02466978,0.00033806,-0.00204187,0.00247704,-0.00047106,
 -0.11997653,-0.05947941,0.00625131,0.00292830,0.00573557,0.00064412,0.
 00087591,0.00218817,-0.00050436,0.14362500,0.00292728,0.00431103,0.007
 26332,0.00009806,-0.00130405,-0.00104420,0.00072857,-0.00070070,-0.000
 63081,-0.00016635,0.00042748,-0.00018804,-0.00006446,-0.00014368,-0.00
 030286,-0.00003521,-0.00062115,-0.00148105,0.00009656,-0.00001691,-0.0
 0010926,-0.00050297,0.00081539,0.00122689,-0.00001338,-0.00023949,-0.0
 0010764,-0.00097764,-0.00298286,-0.00196889,0.00028229,0.00041667,-0.0
 0007938,0.00538685,-0.05330612,0.00327052,0.00311274,-0.00147170,-0.00
 068212,-0.06372501,-0.51702875,0.03683816,0.00275336,0.00692172,0.0002
 1659,-0.00091825,0.00019599,-0.00105422,0.11655942,0.62528095,-0.00243
 412,0.00167152,-0.00175158,0.00036368,0.00143473,-0.00001540,-0.000798
 13,0.00049013,0.00081251,0.00013796,-0.00054177,0.00027657,0.00002361,
 0.00011109,0.00009275,-0.00005208,0.00023351,0.00016878,-0.00001435,-0
 .00006087,0.00000159,0.00016681,-0.00021360,-0.00027567,0.00002221,0.0
 0004393,0.00006865,0.00003598,0.00056411,0.00096429,-0.00005981,-0.000
 08889,-0.00000278,0.00009337,0.00359219,0.02051198,0.00268734,-0.00296
 032,-0.00054806,0.00721700,0.03570467,-0.09198313,0.00009005,0.0004416
 7,0.00106465,-0.00004120,-0.00079733,-0.00014744,-0.01479966,-0.052249
 96,0.03884005,-0.00476759,-0.00504859,-0.00662090,-0.00022249,0.000565
 98,0.00249849,-0.00040344,-0.00026248,-0.00068298,0.00035611,-0.000692
 17,-0.00005499,-0.00006287,0.00008602,0.00023305,0.00016581,0.00107359
 ,0.00090689,-0.00013207,0.00011813,0.00005952,0.00077094,0.00057805,-0
 .00027866,-0.00010165,0.00034292,0.00021232,0.00207926,0.00178018,0.00
 184811,-0.00083723,0.00001374,-0.00020808,-0.05097525,-0.00330532,0.00
 847684,0.00055643,-0.00106627,-0.00148317,-0.58211656,-0.20723743,0.04
 365332,-0.01321924,0.00445502,-0.00114587,-0.00226167,-0.00062404,0.00
 148784,-0.01614914,-0.06554187,0.00736135,0.66732065,-0.00129139,0.000
 33211,-0.00280361,0.00060340,-0.00092354,0.00177567,0.00007669,-0.0003
 1159,-0.00042265,-0.00003041,-0.00031804,-0.00064544,-0.00004211,-0.00
 007498,-0.00009926,0.00004472,0.00034418,-0.00008199,-0.00007567,0.000
 02292,-0.00008281,0.00048170,0.00067915,0.00033658,-0.00013517,0.00001
 547,0.00000659,0.00141033,0.00047376,0.00020099,-0.00068984,0.00053839
 ,-0.00015000,0.00616741,0.01066788,0.00120763,-0.00061455,0.00202633,-
 0.00045815,-0.19482618,-0.18940905,0.01829737,0.00736148,-0.00068615,0
 .00049960,0.00059894,0.00148363,-0.00080135,-0.09380389,-0.06055380,0.
 01262520,0.27476454,0.23569334,-0.00375830,0.00237675,-0.00034296,0.00
 056535,-0.00035096,0.00020011,-0.00027703,-0.00009402,-0.00006730,0.00
 027113,0.00035015,0.00053460,-0.00007423,0.00003510,0.00000788,-0.0000
 4502,-0.00017886,0.00012996,-0.00004857,-0.00002433,-0.00000463,0.0002
 5650,-0.00003770,-0.00006785,-0.00002425,-0.00001090,0.00000089,0.0010
 7447,0.00062204,-0.00013345,-0.00009104,-0.00015172,0.00003664,0.00288
 756,0.00211740,0.01831920,0.00375438,-0.00387163,0.00040061,0.04199219
 ,0.01811178,-0.07924260,0.00012943,-0.00092970,0.00220842,0.00009118,0
 .00035802,-0.00012297,0.00955931,0.01108296,0.03192224,-0.05626307,-0.
 02940438,0.02622121\\-0.00800659,-0.03294009,-0.01704748,0.03185844,0.
 15470216,-0.02202302,-0.03547765,-0.17751674,0.03148310,0.00752504,0.0
 3230004,-0.15460240,-0.01410197,-0.06103760,0.17136235,-0.01712311,-0.
 08428218,-0.11893898,0.02434175,0.11616277,0.13794057,-0.03316703,-0.1
 6129704,0.01332839,0.03460295,0.17789807,-0.03441620,0.00234411,-0.028
 71220,0.16001336,0.00778666,0.06100538,-0.17049897,-0.00958458,-0.0566
 9859,0.09672796,0.00512633,0.05873135,-0.09989239,0.01120826,-0.053334
 68,0.00753882,0.17571464,-0.13329507,0.10266663,-0.18025083,0.13349846
 ,-0.09699089,-0.01579436,0.02438859,-0.00167901,0.01299795,0.03042736,
 -0.00497183\\\@
 The archive entry for this job was punched.

 Writing a WFNX file to "WAPNUX_Complex_1_Ligand_2_OO_Cu_oriented.wfx"


 ALTHOUGH J.J. COULD DIAGNOSE THE FAULTS OF AN
 APPARATUS WITH UNCANNY ACCURACY, IT WAS JUST AS
 WELL NOT TO LET HIM HANDLE IT.
   -- GEORGE THOMPSON, ABOUT HIS FATHER
 Job cpu time:       0 days  0 hours 11 minutes 46.1 seconds.
 Elapsed time:       0 days  0 hours 11 minutes 50.3 seconds.
 File lengths (MBytes):  RWF=    360 Int=      0 D2E=      0 Chk=      8 Scr=      8
 Normal termination of Gaussian 16 at Mon Mar  6 10:33:34 2023.
