 Entering Gaussian System, Link 0=g16
 Initial command:
 /ssoft/spack/external/gaussian/g16-C.01/avx2/g16/l1.exe "/scratch/lcmd/2387851/Gau-1722277.inp" -scrdir="/scratch/lcmd/2387851/"
 Entering Link 1 = /ssoft/spack/external/gaussian/g16-C.01/avx2/g16/l1.exe PID=   1722282.
  
 Copyright (c) 1988-2019, Gaussian, Inc.  All Rights Reserved.
  
 This is part of the Gaussian(R) 16 program.  It is based on
 the Gaussian(R) 09 system (copyright 2009, Gaussian, Inc.),
 the Gaussian(R) 03 system (copyright 2003, Gaussian, Inc.),
 the Gaussian(R) 98 system (copyright 1998, Gaussian, Inc.),
 the Gaussian(R) 94 system (copyright 1995, Gaussian, Inc.),
 the Gaussian 92(TM) system (copyright 1992, Gaussian, Inc.),
 the Gaussian 90(TM) system (copyright 1990, Gaussian, Inc.),
 the Gaussian 88(TM) system (copyright 1988, Gaussian, Inc.),
 the Gaussian 86(TM) system (copyright 1986, Carnegie Mellon
 University), and the Gaussian 82(TM) system (copyright 1983,
 Carnegie Mellon University). Gaussian is a federally registered
 trademark of Gaussian, Inc.
  
 This software contains proprietary and confidential information,
 including trade secrets, belonging to Gaussian, Inc.
  
 This software is provided under written license and may be
 used, copied, transmitted, or stored only in accord with that
 written license.
  
 The following legend is applicable only to US Government
 contracts under FAR:
  
                    RESTRICTED RIGHTS LEGEND
  
 Use, reproduction and disclosure by the US Government is
 subject to restrictions as set forth in subparagraphs (a)
 and (c) of the Commercial Computer Software - Restricted
 Rights clause in FAR 52.227-19.
  
 Gaussian, Inc.
 340 Quinnipiac St., Bldg. 40, Wallingford CT 06492
  
  
 ---------------------------------------------------------------
 Warning -- This program may not be used in any manner that
 competes with the business of Gaussian, Inc. or will provide
 assistance to any competitor of Gaussian, Inc.  The licensee
 of this program is prohibited from giving any competitor of
 Gaussian, Inc. access to this program.  By using this program,
 the user acknowledges that Gaussian, Inc. is engaged in the
 business of creating and licensing software in the field of
 computational chemistry and represents and warrants to the
 licensee that it is not a competitor of Gaussian, Inc. and that
 it will not use this program in any manner prohibited above.
 ---------------------------------------------------------------
  

 Cite this work as:
 Gaussian 16, Revision C.01,
 M. J. Frisch, G. W. Trucks, H. B. Schlegel, G. E. Scuseria, 
 M. A. Robb, J. R. Cheeseman, G. Scalmani, V. Barone, 
 G. A. Petersson, H. Nakatsuji, X. Li, M. Caricato, A. V. Marenich, 
 J. Bloino, B. G. Janesko, R. Gomperts, B. Mennucci, H. P. Hratchian, 
 J. V. Ortiz, A. F. Izmaylov, J. L. Sonnenberg, D. Williams-Young, 
 F. Ding, F. Lipparini, F. Egidi, J. Goings, B. Peng, A. Petrone, 
 T. Henderson, D. Ranasinghe, V. G. Zakrzewski, J. Gao, N. Rega, 
 G. Zheng, W. Liang, M. Hada, M. Ehara, K. Toyota, R. Fukuda, 
 J. Hasegawa, M. Ishida, T. Nakajima, Y. Honda, O. Kitao, H. Nakai, 
 T. Vreven, K. Throssell, J. A. Montgomery, Jr., J. E. Peralta, 
 F. Ogliaro, M. J. Bearpark, J. J. Heyd, E. N. Brothers, K. N. Kudin, 
 V. N. Staroverov, T. A. Keith, R. Kobayashi, J. Normand, 
 K. Raghavachari, A. P. Rendell, J. C. Burant, S. S. Iyengar, 
 J. Tomasi, M. Cossi, J. M. Millam, M. Klene, C. Adamo, R. Cammi, 
 J. W. Ochterski, R. L. Martin, K. Morokuma, O. Farkas, 
 J. B. Foresman, and D. J. Fox, Gaussian, Inc., Wallingford CT, 2019.
 
 ******************************************
 Gaussian 16:  ES64L-G16RevC.01  3-Jul-2019
                 6-Mar-2023 
 ******************************************
 %nprocshared=1
 Will use up to    1 processors via shared memory.
 %mem=8000MB
 %chk=WEGDIV_Complex_0_Ligand_0_ON_Cu_oriented.chk
 ----------------------------------------------------------------------
 #p pop=(regular,nbo,savenbos) freq=noraman def2svp empiricaldispersion
 =gd3bj output=wfx pbe1pbe
 ----------------------------------------------------------------------
 1/10=4,30=1,38=1/1,3;
 2/12=2,17=6,18=5,40=1/2;
 3/5=43,7=101,11=2,25=1,30=1,71=2,74=-13,124=41,140=1/1,2,3;
 4//1;
 5/5=2,38=5,98=1/2;
 8/6=4,10=90,11=11/1;
 11/6=1,8=1,9=11,15=111,16=1/1,2,10;
 10/6=1/2;
 6/28=1,40=1,73=1/1,7;
 7/8=1,10=1,25=1/1,2,3,16;
 1/10=4,30=1/3;
 99/6=200/99;
 Leave Link    1 at Mon Mar  6 10:21:43 2023, MaxMem=  1048576000 cpu:               0.0 elap:               0.1
 (Enter /ssoft/spack/external/gaussian/g16-C.01/avx2/g16/l101.exe)
 ----------------------------------------
 WEGDIV_Complex_0_Ligand_0_ON_Cu_oriented
 ----------------------------------------
 Symbolic Z-matrix:
 Charge = -1 Multiplicity = 1
 O                     3.21591  -2.17924  -0.23948 
 N                     1.81332   1.04652   0. 
 C                     2.36442  -1.30915  -0.30188 
 C                     2.71512   0.11201  -0.76277 
 C                     4.20994   0.43341  -0.70789 
 C                     1.7631    2.45559  -0.54448 
 C                     1.50575   2.61279  -2.01939 
 C                     0.23748   2.88849  -2.51016 
 C                     0.02838   3.12693  -3.85696 
 C                     1.08854   3.09843  -4.73814 
 C                     2.35466   2.84679  -4.26862 
 C                     2.55503   2.61378  -2.92602 
 H                     2.43088   0.15314  -1.65864 
 H                     4.32092   1.38106  -0.83789 
 H                     4.51535   0.25254   0.14559 
 H                     1.08055   2.83903  -0.06308 
 H                     2.55175   2.89806  -0.30848 
 H                    -0.43383   2.97648  -1.89733 
 H                    -0.85034   3.32231  -4.17056 
 H                     0.94746   3.25292  -5.635 
 H                     3.11657   2.83807  -4.86857 
 H                     3.37258   2.46422  -2.61543 
 C                     2.26203   1.14021   1.43569 
 C                     1.1387    1.48143   2.38309 
 C                     0.76654   2.79018   2.6562 
 C                    -0.3198    3.03899   3.46556 
 C                    -1.02529   2.01404   4.03936 
 C                    -0.64376   0.72207   3.8106 
 C                     0.43504   0.45968   2.98996 
 H                     2.62356   0.32634   1.68671 
 H                     2.91996   1.82827   1.48614 
 H                     1.29746   3.43877   2.2962 
 H                    -0.55537   3.88519   3.59613 
 H                    -1.79778   2.23289   4.62761 
 H                    -1.13948   0.05182   4.1598 
 H                     0.70411  -0.39457   2.86982 
 C                     5.09442  -0.33556  -1.7078 
 C                     6.47298   0.30597  -1.7598 
 H                     5.19505  -1.28672  -1.39409 
 H                     7.00464  -0.22074  -2.31725 
 H                     6.42171   1.09679  -2.18775 
 H                     6.83406   0.39172  -0.77296 
 C                     4.52536  -0.50943  -3.07395 
 H                     3.67392  -0.82703  -3.12683 
 H                     4.49351   0.52577  -3.4771 
 O                     1.12256  -1.51159   0. 
 H                     5.14147  -0.95721  -3.69924 
 
 ITRead=  0  0  0  0  0  0  0  0  0  0  0  0  0  0  0  0  0  0  0  0
 ITRead=  0  0  0  0  0  0  0  0  0  0  0  0  0  0  0  0  0  0  0  0
 ITRead=  0  0  0  0  0  0  0
 MicOpt= -1 -1 -1 -1 -1 -1 -1 -1 -1 -1 -1 -1 -1 -1 -1 -1 -1 -1 -1 -1
 MicOpt= -1 -1 -1 -1 -1 -1 -1 -1 -1 -1 -1 -1 -1 -1 -1 -1 -1 -1 -1 -1
 MicOpt= -1 -1 -1 -1 -1 -1 -1
 NAtoms=     47 NQM=       47 NQMF=       0 NMMI=      0 NMMIF=      0
                NMic=       0 NMicF=      0.
                    Isotopes and Nuclear Properties:
 (Nuclear quadrupole moments (NQMom) in fm**2, nuclear magnetic moments (NMagM)
  in nuclear magnetons)

  Atom         1           2           3           4           5           6           7           8           9          10
 IAtWgt=          16          14          12          12          12          12          12          12          12          12
 AtmWgt=  15.9949146  14.0030740  12.0000000  12.0000000  12.0000000  12.0000000  12.0000000  12.0000000  12.0000000  12.0000000
 NucSpn=           0           2           0           0           0           0           0           0           0           0
 AtZEff=  -0.0000000  -0.0000000  -0.0000000  -0.0000000  -0.0000000  -0.0000000  -0.0000000  -0.0000000  -0.0000000  -0.0000000
 NQMom=    0.0000000   2.0440000   0.0000000   0.0000000   0.0000000   0.0000000   0.0000000   0.0000000   0.0000000   0.0000000
 NMagM=    0.0000000   0.4037610   0.0000000   0.0000000   0.0000000   0.0000000   0.0000000   0.0000000   0.0000000   0.0000000
 AtZNuc=   8.0000000   7.0000000   6.0000000   6.0000000   6.0000000   6.0000000   6.0000000   6.0000000   6.0000000   6.0000000

  Atom        11          12          13          14          15          16          17          18          19          20
 IAtWgt=          12          12           1           1           1           1           1           1           1           1
 AtmWgt=  12.0000000  12.0000000   1.0078250   1.0078250   1.0078250   1.0078250   1.0078250   1.0078250   1.0078250   1.0078250
 NucSpn=           0           0           1           1           1           1           1           1           1           1
 AtZEff=  -0.0000000  -0.0000000  -0.0000000  -0.0000000  -0.0000000  -0.0000000  -0.0000000  -0.0000000  -0.0000000  -0.0000000
 NQMom=    0.0000000   0.0000000   0.0000000   0.0000000   0.0000000   0.0000000   0.0000000   0.0000000   0.0000000   0.0000000
 NMagM=    0.0000000   0.0000000   2.7928460   2.7928460   2.7928460   2.7928460   2.7928460   2.7928460   2.7928460   2.7928460
 AtZNuc=   6.0000000   6.0000000   1.0000000   1.0000000   1.0000000   1.0000000   1.0000000   1.0000000   1.0000000   1.0000000

  Atom        21          22          23          24          25          26          27          28          29          30
 IAtWgt=           1           1          12          12          12          12          12          12          12           1
 AtmWgt=   1.0078250   1.0078250  12.0000000  12.0000000  12.0000000  12.0000000  12.0000000  12.0000000  12.0000000   1.0078250
 NucSpn=           1           1           0           0           0           0           0           0           0           1
 AtZEff=  -0.0000000  -0.0000000  -0.0000000  -0.0000000  -0.0000000  -0.0000000  -0.0000000  -0.0000000  -0.0000000  -0.0000000
 NQMom=    0.0000000   0.0000000   0.0000000   0.0000000   0.0000000   0.0000000   0.0000000   0.0000000   0.0000000   0.0000000
 NMagM=    2.7928460   2.7928460   0.0000000   0.0000000   0.0000000   0.0000000   0.0000000   0.0000000   0.0000000   2.7928460
 AtZNuc=   1.0000000   1.0000000   6.0000000   6.0000000   6.0000000   6.0000000   6.0000000   6.0000000   6.0000000   1.0000000

  Atom        31          32          33          34          35          36          37          38          39          40
 IAtWgt=           1           1           1           1           1           1          12          12           1           1
 AtmWgt=   1.0078250   1.0078250   1.0078250   1.0078250   1.0078250   1.0078250  12.0000000  12.0000000   1.0078250   1.0078250
 NucSpn=           1           1           1           1           1           1           0           0           1           1
 AtZEff=  -0.0000000  -0.0000000  -0.0000000  -0.0000000  -0.0000000  -0.0000000  -0.0000000  -0.0000000  -0.0000000  -0.0000000
 NQMom=    0.0000000   0.0000000   0.0000000   0.0000000   0.0000000   0.0000000   0.0000000   0.0000000   0.0000000   0.0000000
 NMagM=    2.7928460   2.7928460   2.7928460   2.7928460   2.7928460   2.7928460   0.0000000   0.0000000   2.7928460   2.7928460
 AtZNuc=   1.0000000   1.0000000   1.0000000   1.0000000   1.0000000   1.0000000   6.0000000   6.0000000   1.0000000   1.0000000

  Atom        41          42          43          44          45          46          47
 IAtWgt=           1           1          12           1           1          16           1
 AtmWgt=   1.0078250   1.0078250  12.0000000   1.0078250   1.0078250  15.9949146   1.0078250
 NucSpn=           1           1           0           1           1           0           1
 AtZEff=  -0.0000000  -0.0000000  -0.0000000  -0.0000000  -0.0000000  -0.0000000  -0.0000000
 NQMom=    0.0000000   0.0000000   0.0000000   0.0000000   0.0000000   0.0000000   0.0000000
 NMagM=    2.7928460   2.7928460   0.0000000   2.7928460   2.7928460   0.0000000   2.7928460
 AtZNuc=   1.0000000   1.0000000   6.0000000   1.0000000   1.0000000   8.0000000   1.0000000
 Leave Link  101 at Mon Mar  6 10:21:43 2023, MaxMem=  1048576000 cpu:               0.1 elap:               0.1
 (Enter /ssoft/spack/external/gaussian/g16-C.01/avx2/g16/l103.exe)

 GradGradGradGradGradGradGradGradGradGradGradGradGradGradGradGradGradGrad
 Berny optimization.
 Initialization pass.
 Trust Radius=3.00D-01 FncErr=1.00D-07 GrdErr=1.00D-07 EigMax=2.50D+02 EigMin=1.00D-04
 Number of steps in this run=      2 maximum allowed number of steps=      2.
 GradGradGradGradGradGradGradGradGradGradGradGradGradGradGradGradGradGrad

 Leave Link  103 at Mon Mar  6 10:21:43 2023, MaxMem=  1048576000 cpu:               0.1 elap:               0.1
 (Enter /ssoft/spack/external/gaussian/g16-C.01/avx2/g16/l202.exe)
                          Input orientation:                          
 ---------------------------------------------------------------------
 Center     Atomic      Atomic             Coordinates (Angstroms)
 Number     Number       Type             X           Y           Z
 ---------------------------------------------------------------------
      1          8           0        3.215910   -2.179238   -0.239482
      2          7           0        1.813323    1.046523    0.000000
      3          6           0        2.364421   -1.309149   -0.301884
      4          6           0        2.715120    0.112007   -0.762773
      5          6           0        4.209941    0.433412   -0.707891
      6          6           0        1.763098    2.455588   -0.544476
      7          6           0        1.505751    2.612794   -2.019393
      8          6           0        0.237485    2.888490   -2.510156
      9          6           0        0.028381    3.126931   -3.856957
     10          6           0        1.088545    3.098428   -4.738139
     11          6           0        2.354656    2.846786   -4.268617
     12          6           0        2.555035    2.613779   -2.926022
     13          1           0        2.430881    0.153140   -1.658642
     14          1           0        4.320921    1.381055   -0.837894
     15          1           0        4.515354    0.252541    0.145587
     16          1           0        1.080550    2.839029   -0.063076
     17          1           0        2.551745    2.898061   -0.308482
     18          1           0       -0.433833    2.976485   -1.897333
     19          1           0       -0.850344    3.322305   -4.170560
     20          1           0        0.947459    3.252916   -5.634999
     21          1           0        3.116572    2.838069   -4.868573
     22          1           0        3.372580    2.464220   -2.615429
     23          6           0        2.262027    1.140207    1.435694
     24          6           0        1.138695    1.481430    2.383094
     25          6           0        0.766539    2.790181    2.656198
     26          6           0       -0.319805    3.038995    3.465563
     27          6           0       -1.025287    2.014045    4.039362
     28          6           0       -0.643759    0.722067    3.810597
     29          6           0        0.435044    0.459682    2.989960
     30          1           0        2.623559    0.326342    1.686709
     31          1           0        2.919962    1.828273    1.486145
     32          1           0        1.297456    3.438775    2.296199
     33          1           0       -0.555370    3.885186    3.596130
     34          1           0       -1.797777    2.232890    4.627611
     35          1           0       -1.139477    0.051817    4.159804
     36          1           0        0.704108   -0.394574    2.869817
     37          6           0        5.094420   -0.335556   -1.707800
     38          6           0        6.472976    0.305970   -1.759802
     39          1           0        5.195054   -1.286724   -1.394091
     40          1           0        7.004640   -0.220742   -2.317247
     41          1           0        6.421707    1.096786   -2.187747
     42          1           0        6.834061    0.391715   -0.772959
     43          6           0        4.525360   -0.509428   -3.073946
     44          1           0        3.673920   -0.827029   -3.126833
     45          1           0        4.493513    0.525774   -3.477103
     46          8           0        1.122555   -1.511591    0.000000
     47          1           0        5.141471   -0.957214   -3.699239
 ---------------------------------------------------------------------
                    Distance matrix (angstroms):
                    1          2          3          4          5
     1  O    0.000000
     2  N    3.525639   0.000000
     3  C    1.219009   2.438039   0.000000
     4  C    2.403004   1.506114   1.534631   0.000000
     5  C    2.834333   2.573090   2.570468   1.529968   0.000000
     6  C    4.866754   1.511437   3.820168   2.538970   3.178512
     7  C    5.390390   2.574054   4.366783   3.048870   3.712464
     8  C    6.301495   3.489555   5.198124   4.111068   5.005594
     9  C    7.169512   4.731832   6.146091   5.087466   5.887029
    10  C    7.253782   5.213979   6.382394   5.231443   5.752245
    11  C    6.498969   4.664234   5.745160   4.460930   4.684573
    12  C    5.534190   3.401181   4.723537   3.311214   3.523183
    13  H    2.840822   1.982575   1.995870   0.940779   2.036550
    14  H    3.775558   2.664963   3.369332   2.048102   0.962936
    15  H    2.783951   2.820031   2.695481   2.021314   0.924346
    16  H    5.456545   1.937527   4.348877   3.255463   3.999483
    17  H    5.121020   2.017083   4.211384   2.827573   2.997271
    18  H    6.530740   3.517717   5.361188   4.405492   5.426474
    19  H    7.890170   5.446823   6.837525   5.884859   6.778073
    20  H    7.985347   6.113191   7.159772   6.060406   6.547502
    21  H    6.827278   5.348934   6.214483   4.944712   4.928398
    22  H    5.218369   3.358812   4.539515   3.065534   2.909306
    23  C    3.838597   1.507093   3.004831   2.468956   2.981423
    24  C    4.959155   2.514638   4.061877   3.775833   4.481638
    25  C    6.251360   3.345368   5.301696   4.760141   5.359894
    26  C    7.311538   4.531038   6.348628   5.971335   6.687703
    27  C    7.340291   5.030929   6.432740   6.377216   7.241713
    28  C    6.302202   4.545676   5.485205   5.707009   6.637654
    29  C    5.012625   3.344233   4.205650   4.404841   5.284376
    30  H    3.215435   2.005026   2.587757   2.460545   2.874401
    31  H    4.373273   2.011072   3.653641   2.836399   2.902322
    32  H    6.455402   3.355818   5.516451   4.736503   5.151633
    33  H    8.106276   5.157603   7.120450   6.628198   7.290235
    34  H    8.263929   5.988514   7.360017   7.343066   8.233977
    35  H    6.580329   5.197349   5.834054   6.252464   7.242675
    36  H    4.377433   3.397494   3.694966   4.182882   5.077048
    37  C    3.013954   3.948711   3.221394   2.598934   1.540595
    38  C    4.369910   5.035642   4.649125   3.892707   2.498817
    39  H    2.459007   4.338621   3.034123   2.916348   2.097662
    40  H    4.744185   5.824549   5.174742   4.574614   3.290637
    41  H    4.980482   5.101565   5.080017   4.091347   2.742617
    42  H    4.470505   5.121918   4.805469   4.128439   2.625258
    43  C    3.540778   4.384663   3.604655   3.000778   2.566448
    44  H    3.221030   4.092567   3.150804   2.718431   2.779804
    45  H    4.408123   4.420955   4.240518   3.271311   2.785225
    46  O    2.210257   2.649737   1.293966   2.398782   3.717001
    47  H    4.143796   5.364317   4.402032   3.956419   3.427792
                    6          7          8          9         10
     6  C    0.000000
     7  C    1.505431   0.000000
     8  C    2.525628   1.387571   0.000000
     9  C    3.799010   2.413214   1.383638   0.000000
    10  C    4.295937   2.793113   2.394219   1.378855   0.000000
    11  C    3.791068   2.415450   2.752515   2.378970   1.373612
    12  C    2.514746   1.386714   2.370538   2.741158   2.381018
    13  H    2.643590   2.652529   3.608075   4.409992   4.467649
    14  H    2.789834   3.292158   4.662968   5.530707   5.348788
    15  H    3.592286   4.394957   5.683429   6.664489   6.610059
    16  H    0.919046   2.014734   2.588706   3.947592   4.682260
    17  H    0.934580   2.025511   3.194254   4.360209   4.669364
    18  H    2.632121   1.977158   0.913215   2.019010   3.225319
    19  H    4.552995   3.268350   2.031874   0.953245   2.032623
    20  H    5.216744   3.714035   3.225138   2.005495   0.920940
    21  H    4.547086   3.280750   3.722071   3.262473   2.048827
    22  H    2.622852   1.965295   3.165424   3.628256   3.181970
    23  C    2.429039   3.831200   4.767074   6.078520   6.582393
    24  C    3.147941   4.560330   5.170676   6.548184   7.302682
    25  C    3.368887   4.736987   5.194302   6.563495   7.407761
    26  C    4.556233   5.796468   6.003535   7.331321   8.323923
    27  C    5.383458   6.593418   6.727215   8.043667   9.093332
    28  C    5.269224   6.494923   6.739577   8.063903   9.040401
    29  C    4.270785   5.556610   6.015763   7.359339   8.192286
    30  H    3.201916   4.495837   5.465494   6.731306   7.163756
    31  H    2.419768   3.860604   4.928505   6.212607   6.611285
    32  H    3.041860   4.398859   4.952514   6.290399   7.045664
    33  H    4.956174   6.115660   6.237687   7.514268   8.531206
    34  H    6.283305   7.432381   7.451162   8.724796   9.838561
    35  H    6.027712   7.192935   7.377744   8.665373   9.665367
    36  H    4.571901   5.795798   6.319838   7.622801   8.380325
    37  C    4.499057   4.654934   5.884562   6.501726   6.084590
    38  C    5.317972   5.482897   6.790714   7.340891   6.757249
    39  H    5.148307   5.404462   6.576892   7.227764   6.875727
    40  H    6.146480   6.193176   7.449760   7.889601   7.202624
    41  H    5.123409   5.147159   6.446608   6.912479   6.241289
    42  H    5.479638   5.905733   7.264059   7.956741   7.487316
    43  C    4.776989   4.469720   5.499962   5.836012   5.253366
    44  H    4.592971   4.214234   5.098477   5.427416   4.968872
    45  H    4.447432   3.925213   4.962983   5.181478   4.450008
    46  O    4.055276   4.608182   5.142465   6.131006   6.610854
    47  H    5.745707   5.365194   6.344481   6.545900   5.826985
                   11         12         13         14         15
    11  C    0.000000
    12  C    1.377318   0.000000
    13  H    3.751467   2.770634   0.000000
    14  H    4.217158   2.999706   2.398678   0.000000
    15  H    5.557330   4.342013   2.758650   1.509498   0.000000
    16  H    4.394312   3.228204   3.403414   3.636762   4.304805
    17  H    3.965367   2.632934   3.061394   2.389889   3.325766
    18  H    3.662714   3.181680   4.029248   5.125962   6.007316
    19  H    3.241567   3.694251   5.207666   6.451132   7.539450
    20  H    2.003034   3.214242   5.255527   6.155999   7.426123
    21  H    0.969814   2.034486   4.240598   4.451934   5.812344
    22  H    1.978776   0.887252   2.672701   2.287406   3.717616
    23  C    5.954843   4.613224   3.252342   3.076728   2.744050
    24  C    6.898407   5.610254   4.446317   4.528952   4.233017
    25  C    7.104813   5.864385   5.323708   5.179570   5.176524
    26  C    8.185793   7.021244   6.492450   6.542541   6.493483
    27  C    9.007773   7.854614   6.919199   7.264313   6.997363
    28  C    8.875732   7.693692   6.299973   6.833066   6.345802
    29  C    7.878458   6.643292   5.068218   5.531857   4.978182
    30  H    6.472314   5.149209   3.355369   3.219795   2.441188
    31  H    5.871475   4.496377   3.596520   2.750246   2.612529
    32  H    6.675696   5.434493   5.265056   4.816440   5.013192
    33  H    8.449897   7.336863   7.103414   7.050494   7.128436
    34  H    9.836790   8.726364   7.856456   8.248384   7.991618
    35  H    9.542489   8.391782   6.827301   7.520626   6.937676
    36  H    8.011739   6.787331   4.877364   5.475520   4.729248
    37  C    4.918475   4.078127   2.708446   2.074076   2.028846
    38  C    5.450730   4.694285   4.046248   2.576250   2.732333
    39  H    5.780715   4.952821   3.127914   2.861906   2.280775
    40  H    5.902536   5.310753   4.636035   3.457830   3.533566
    41  H    4.892180   4.218705   4.134865   2.513207   3.129117
    42  H    6.189674   5.280465   4.497704   2.701644   2.497898
    43  C    4.171735   3.695739   2.613221   2.935242   3.308487
    44  H    4.067069   3.623726   2.159042   3.245533   3.547142
    45  H    3.253968   2.901922   2.774907   2.779697   3.633045
    46  O    6.223714   5.256642   2.689636   4.393065   3.826806
    47  H    4.749837   4.476551   3.569904   3.785248   4.078997
                   16         17         18         19         20
    16  H    0.000000
    17  H    1.492690   0.000000
    18  H    2.382592   3.382938   0.000000
    19  H    4.564354   5.164285   2.336800   0.000000
    20  H    5.588859   5.574176   3.994312   2.319805   0.000000
    21  H    5.219021   4.595329   4.631716   4.056862   2.337639
    22  H    3.450853   2.486763   3.907282   4.581248   3.952348
    23  C    2.555034   2.493219   4.663544   6.773367   7.495754
    24  C    2.798250   3.353825   4.798968   7.091931   8.213681
    25  C    2.737780   3.462359   4.712774   7.035772   8.306070
    26  C    3.801614   4.744373   5.364472   7.659772   9.190862
    27  C    4.684564   5.699157   6.043215   8.315345   9.950869
    28  C    4.739210   5.649160   6.140597   8.396594   9.907394
    29  C    3.924156   4.615825   5.565507   7.817920   9.080454
    30  H    3.428734   3.255716   5.405206   7.439852   8.061114
    31  H    2.608668   2.121489   4.900433   6.960291   7.525361
    32  H    2.443956   2.941084   4.560349   6.815099   7.941092
    33  H    4.142520   5.086706   5.569438   7.792645   9.374007
    34  H    5.536671   6.612550   6.707323   8.915844  10.672298
    35  H    5.525377   6.456920   6.763175   8.954031  10.513825
    36  H    4.381753   4.935260   5.948501   8.111623   9.257176
    37  C    5.375338   4.345062   6.447256   7.401713   6.745169
    38  C    6.194637   4.919484   7.406387   8.278953   7.364304
    39  H    5.976837   5.067352   7.079023   8.093131   7.525669
    40  H    7.038347   5.795718   8.107371   8.814121   7.730667
    41  H    6.006463   4.663993   7.114494   7.859212   6.819078
    42  H    6.292549   4.983547   7.795353   8.898434   8.153403
    43  C    5.669587   4.811853   6.174917   6.692006   5.789266
    44  H    5.436189   4.804027   5.731668   6.226983   5.510938
    45  H    5.353041   4.408897   5.725416   6.071103   4.966721
    46  O    4.351280   4.645727   5.115178   6.682250   7.381355
    47  H    6.642606   5.750397   7.057256   7.378230   6.249967
                   21         22         23         24         25
    21  H    0.000000
    22  H    2.298251   0.000000
    23  C    6.584585   4.404309   0.000000
    24  C    7.638006   5.562495   1.508600   0.000000
    25  C    7.883344   5.889631   2.539395   1.387774   0.000000
    26  C    9.017032   7.137404   3.793628   2.392690   1.377361
    27  C    9.858261   7.989376   4.283586   2.776638   2.392942
    28  C    9.692551   7.775596   3.776056   2.406562   2.756569
    29  C    8.637352   6.638349   2.493336   1.381079   2.377501
    30  H    7.037297   4.862093   0.925251   2.005991   3.234027
    31  H    6.437451   4.175189   0.953340   2.024285   2.632778
    32  H    7.416467   5.420331   2.637097   1.965694   0.912220
    33  H    9.286054   7.485413   4.487774   3.181093   1.957026
    34  H   10.709555   8.902120   5.278665   3.771660   3.282189
    35  H   10.362854   8.490120   4.491726   3.223440   3.659559
    36  H    8.726548   6.736570   2.615219   1.986242   3.192522
    37  C    4.896353   3.409878   4.481281   5.973660   6.895307
    38  C    5.228904   3.873319   5.351564   6.855643   7.631237
    39  H    5.779795   4.345418   4.743451   6.195470   7.255187
    40  H    5.566207   4.526566   6.199123   7.707134   8.527293
    41  H    4.598131   3.368971   5.516715   6.996481   7.636250
    42  H    6.048010   4.435293   5.132434   6.601919   7.370657
    43  C    4.051063   3.222068   5.308561   6.724009   7.605965
    44  H    4.096003   3.344348   5.165280   6.489657   7.414885
    45  H    3.029665   2.399281   5.430712   6.819824   7.525640
    46  O    6.826320   5.264044   3.223608   3.825909   5.068272
    47  H    4.457772   4.001229   6.249633   7.678801   8.577563
                   26         27         28         29         30
    26  C    0.000000
    27  C    1.370209   0.000000
    28  C    2.364773   1.366420   0.000000
    29  C    2.729258   2.376942   1.380618   0.000000
    30  H    4.380204   4.658045   3.916996   2.550655   0.000000
    31  H    3.984975   4.703022   4.396234   3.210813   1.543981
    32  H    2.035379   3.234750   3.666363   3.178058   3.437625
    33  H    0.888019   1.979506   3.171613   3.616965   5.139732
    34  H    2.045621   0.995325   2.069265   3.288109   5.641989
    35  H    3.174439   1.969234   0.903835   2.003499   4.511319
    36  H    3.632176   3.187489   1.987133   0.903650   2.367225
    37  C    8.213714   8.717872   8.031062   6.664168   4.250407
    38  C    8.995317   9.631810   9.047121   7.683781   5.166901
    39  H    8.528877   8.894387   8.075627   6.702800   4.325032
    40  H    9.885053  10.482389   9.845678   8.472840   5.960272
    41  H    9.009998   9.750690   9.275847   7.940698   5.480048
    42  H    8.726451   9.357336   8.777010   7.423719   4.876738
    43  C    8.878744   9.368924   8.696740   7.378401   5.194150
    44  H    8.622972   9.028211   8.316849   7.039964   5.060011
    45  H    8.813904   9.442952   8.918557   7.635341   5.495585
    46  O    5.899013   5.775792   4.757073   3.646704   2.911357
    47  H    9.855435  10.331661   9.627383   8.300809   6.082421
                   31         32         33         34         35
    31  H    0.000000
    32  H    2.425372   0.000000
    33  H    4.556408   2.306961   0.000000
    34  H    5.682393   4.058339   2.310327   0.000000
    35  H    5.175258   4.569809   3.918370   2.325786   0.000000
    36  H    3.430103   3.921181   4.519973   4.031480   2.293935
    37  C    4.428511   6.685395   8.824197   9.707560   8.569732
    38  C    5.047523   7.283654   9.533858  10.626261   9.646542
    39  H    4.814043   7.151213   9.204256   9.876653   8.530166
    40  H    5.945490   8.200482  10.439369  11.477540  10.409281
    41  H    5.127843   7.200599   9.481983  10.737772   9.927481
    42  H    4.742091   7.025546   9.268062  10.347208   9.382164
    43  C    5.369970   7.405817   9.466592  10.335200   9.205027
    44  H    5.375746   7.297529   9.235264   9.971659   8.777029
    45  H    5.367159   7.213277   9.317054  10.401008   9.501451
    46  O    4.073572   5.459784   6.698715   6.630555   4.986483
    47  H    6.291443   8.369375  10.446303  11.298954  10.111034
                   36         37         38         39         40
    36  H    0.000000
    37  C    6.342941   0.000000
    38  C    7.429937   1.521406   0.000000
    39  H    6.256632   1.006608   2.074488   0.000000
    40  H    8.162877   2.008370   0.933187   2.294152   0.000000
    41  H    7.777792   2.010881   0.900641   2.795654   1.446534
    42  H    7.173869   2.104566   1.054321   2.426789   1.670038
    43  C    7.067070   1.490106   2.486977   1.968398   2.608210
    44  H    6.705715   2.067129   3.314691   2.351076   3.480906
    45  H    7.449163   2.057526   2.629774   2.848902   2.865014
    46  O    3.107841   4.480552   5.918398   4.310372   6.452507
    47  H    7.947280   2.086745   2.670198   2.329196   2.433864
                   41         42         43         44         45
    41  H    0.000000
    42  H    1.633641   0.000000
    43  C    2.638447   3.381818   0.000000
    44  H    3.483285   4.124627   0.910284   0.000000
    45  H    2.388812   3.578900   1.111392   1.620030   0.000000
    46  O    6.298482   6.069706   4.693885   4.093308   5.253995
    47  H    2.853512   3.639723   0.985443   1.580602   1.633538
                   46         47
    46  O    0.000000
    47  H    5.490299   0.000000
 Stoichiometry    C20H24NO2(1-)
 Framework group  C1[X(C20H24NO2)]
 Deg. of freedom   135
 Full point group                 C1      NOp   1
 Largest Abelian subgroup         C1      NOp   1
 Largest concise Abelian subgroup C1      NOp   1
                         Standard orientation:                         
 ---------------------------------------------------------------------
 Center     Atomic      Atomic             Coordinates (Angstroms)
 Number     Number       Type             X           Y           Z
 ---------------------------------------------------------------------
      1          8           0       -0.647593   -3.146633    1.471537
      2          7           0        0.459403   -0.111610    0.059685
      3          6           0       -0.224498   -2.003943    1.436415
      4          6           0       -0.707494   -1.011928    0.369778
      5          6           0       -1.380453   -1.671949   -0.835337
      6          6           0        0.101942    1.137063   -0.713284
      7          6           0       -1.038158    1.967391   -0.186932
      8          6           0       -0.817220    3.091442    0.596043
      9          6           0       -1.865108    3.902592    0.994064
     10          6           0       -3.155655    3.605063    0.610388
     11          6           0       -3.392399    2.507684   -0.181142
     12          6           0       -2.343488    1.707121   -0.575969
     13          1           0       -1.340037   -0.472150    0.809772
     14          1           0       -1.488022   -1.007306   -1.523758
     15          1           0       -0.803980   -2.307854   -1.178439
     16          1           0        0.881525    1.623339   -0.692498
     17          1           0       -0.056467    0.904680   -1.604544
     18          1           0        0.051916    3.308848    0.772955
     19          1           0       -1.688864    4.674343    1.525114
     20          1           0       -3.852823    4.143216    0.879607
     21          1           0       -4.290270    2.289454   -0.475665
     22          1           0       -2.489114    1.004937   -1.098412
     23          6           0        1.486586   -0.858308   -0.751899
     24          6           0        2.885615   -0.325446   -0.565755
     25          6           0        3.389561    0.723666   -1.321610
     26          6           0        4.644834    1.221957   -1.051203
     27          6           0        5.426578    0.676691   -0.066809
     28          6           0        4.957457   -0.382927    0.657235
     29          6           0        3.695298   -0.882217    0.404709
     30          1           0        1.473268   -1.748443   -0.499766
     31          1           0        1.247800   -0.767227   -1.670346
     32          1           0        2.855686    1.018393   -2.000034
     33          1           0        4.928304    1.915055   -1.528527
     34          1           0        6.332864    1.056162    0.092314
     35          1           0        5.463168   -0.709484    1.331427
     36          1           0        3.403744   -1.604588    0.862703
     37          6           0       -2.733690   -2.352234   -0.553567
     38          6           0       -3.421327   -2.674077   -1.871994
     39          1           0       -2.572095   -3.213202   -0.057703
     40          1           0       -4.201079   -3.146002   -1.671714
     41          1           0       -3.716503   -1.912731   -2.251966
     42          1           0       -2.740028   -3.202651   -2.478652
     43          6           0       -3.646059   -1.619800    0.369222
     44          1           0       -3.290004   -1.331937    1.155973
     45          1           0       -3.913904   -0.704161   -0.200914
     46          8           0        0.639667   -1.543158    2.282134
     47          1           0       -4.521435   -2.058139    0.481799
 ---------------------------------------------------------------------
 Rotational constants (GHZ):           0.3170015           0.1844535           0.1370325
 Leave Link  202 at Mon Mar  6 10:21:43 2023, MaxMem=  1048576000 cpu:               0.0 elap:               0.0
 (Enter /ssoft/spack/external/gaussian/g16-C.01/avx2/g16/l301.exe)
 Standard basis: def2SVP (5D, 7F)
 Ernie: Thresh=  0.10000D-02 Tol=  0.10000D-05 Strict=F.
 There are   465 symmetry adapted cartesian basis functions of A   symmetry.
 There are   442 symmetry adapted basis functions of A   symmetry.
   442 basis functions,   743 primitive gaussians,   465 cartesian basis functions
    84 alpha electrons       84 beta electrons
       nuclear repulsion energy      1938.2579420313 Hartrees.
 IExCor= 1009 DFT=T Ex+Corr=PBE1PBE ExCW=0 ScaHFX=  0.250000
 ScaDFX=  0.750000  0.750000  1.000000  1.000000 ScalE2=  1.000000  1.000000
 IRadAn=      5 IRanWt=     -1 IRanGd=            0 ICorTp=0 IEmpDi=141
 NAtoms=   47 NActive=   47 NUniq=   47 SFac= 1.00D+00 NAtFMM=   60 NAOKFM=F Big=F
 Integral buffers will be    131072 words long.
 Raffenetti 2 integral format.
 Two-electron integral symmetry is turned on.
 R6Disp:  Grimme-D3(BJ) Dispersion energy=       -0.0563136087 Hartrees.
 Nuclear repulsion after empirical dispersion term =     1938.2016284226 Hartrees.
 Leave Link  301 at Mon Mar  6 10:21:43 2023, MaxMem=  1048576000 cpu:               0.1 elap:               0.1
 (Enter /ssoft/spack/external/gaussian/g16-C.01/avx2/g16/l302.exe)
 NPDir=0 NMtPBC=     1 NCelOv=     1 NCel=       1 NClECP=     1 NCelD=      1
         NCelK=      1 NCelE2=     1 NClLst=     1 CellRange=     0.0.
 One-electron integrals computed using PRISM.
 One-electron integral symmetry used in STVInt
   1 Symmetry operations used in ECPInt.
 ECPInt:  NShTT=   22155 NPrTT=   78977 LenC2=   19929 LenP2D=   49345.
 LDataN:  DoStor=T MaxTD1= 4 Len=   56
 NBasis=   442 RedAO= T EigKep=  2.70D-04  NBF=   442
 NBsUse=   442 1.00D-06 EigRej= -1.00D+00 NBFU=   442
 Precomputing XC quadrature grid using
 IXCGrd= 4 IRadAn=           5 IRanWt=          -1 IRanGd=           0 AccXCQ= 0.00D+00.
 Generated NRdTot=       0 NPtTot=           0 NUsed=           0 NTot=          32
 NSgBfM=   462   462   462   462   462 MxSgAt=    47 MxSgA2=    47.
 Leave Link  302 at Mon Mar  6 10:21:46 2023, MaxMem=  1048576000 cpu:               2.1 elap:               2.1
 (Enter /ssoft/spack/external/gaussian/g16-C.01/avx2/g16/l303.exe)
 DipDrv:  MaxL=1.
 Leave Link  303 at Mon Mar  6 10:21:46 2023, MaxMem=  1048576000 cpu:               0.1 elap:               0.1
 (Enter /ssoft/spack/external/gaussian/g16-C.01/avx2/g16/l401.exe)
 ExpMin= 1.22D-01 ExpMax= 2.27D+03 ExpMxC= 3.41D+02 IAcc=3 IRadAn=         5 AccDes= 0.00D+00
 Harris functional with IExCor= 1009 and IRadAn=       5 diagonalized for initial guess.
 HarFok:  IExCor= 1009 AccDes= 0.00D+00 IRadAn=         5 IDoV= 1 UseB2=F ITyADJ=14
 ICtDFT=  3500011 ScaDFX=  1.000000  1.000000  1.000000  1.000000
 FoFCou: FMM=F IPFlag=           0 FMFlag=      100000 FMFlg1=           0
         NFxFlg=           0 DoJE=T BraDBF=F KetDBF=T FulRan=T
         wScrn=  0.000000 ICntrl=       500 IOpCl=  0 I1Cent=   200000004 NGrid=           0
         NMat0=    1 NMatS0=      1 NMatT0=    0 NMatD0=    1 NMtDS0=    0 NMtDT0=    0
 Petite list used in FoFCou.
 Harris En= -980.198077335744    
 JPrj=0 DoOrth=F DoCkMO=F.
 Leave Link  401 at Mon Mar  6 10:22:05 2023, MaxMem=  1048576000 cpu:              19.4 elap:              19.5
 (Enter /ssoft/spack/external/gaussian/g16-C.01/avx2/g16/l502.exe)
 Integral symmetry usage will be decided dynamically.
 Closed shell SCF:
 Using DIIS extrapolation, IDIIS=  1040.
 NGot=  1048576000 LenX=  1048134614 LenY=  1047917924
 Requested convergence on RMS density matrix=1.00D-08 within 128 cycles.
 Requested convergence on MAX density matrix=1.00D-06.
 Requested convergence on             energy=1.00D-06.
 No special actions if energy rises.
 Fock matrices will be formed incrementally for  20 cycles.
 Integral accuracy reduced to 1.0D-05 until final iterations.

 Cycle   1  Pass 0  IDiag  1:
 FoFJK:  IHMeth= 1 ICntrl=       0 DoSepK=F KAlg= 0 I1Cent=           0 FoldK=F
 IRaf= 830000000 NMat=       1 IRICut=       1 DoRegI=T DoRafI=F ISym2E= 0 IDoP0=0 IntGTp=1.
 FoFCou: FMM=F IPFlag=           0 FMFlag=      100000 FMFlg1=           0
         NFxFlg=           0 DoJE=F BraDBF=F KetDBF=F FulRan=T
         wScrn=  0.000000 ICntrl=         0 IOpCl=  0 I1Cent=           0 NGrid=           0
         NMat0=    1 NMatS0=      1 NMatT0=    0 NMatD0=    1 NMtDS0=    0 NMtDT0=    0
 Symmetry not used in FoFCou.
 E= -978.716689917281    
 DIIS: error= 2.25D-02 at cycle   1 NSaved=   1.
 NSaved= 1 IEnMin= 1 EnMin= -978.716689917281     IErMin= 1 ErrMin= 2.25D-02
 ErrMax= 2.25D-02  0.00D+00 EMaxC= 1.00D-01 BMatC= 6.79D-01 BMatP= 6.79D-01
 IDIUse=3 WtCom= 7.75D-01 WtEn= 2.25D-01
 Coeff-Com:  0.100D+01
 Coeff-En:   0.100D+01
 Coeff:      0.100D+01
 Gap=     0.221 Goal=   None    Shift=    0.000
 GapD=    0.221 DampG=1.000 DampE=0.500 DampFc=0.5000 IDamp=-1.
 Damping current iteration by 5.00D-01
 RMSDP=7.42D-03 MaxDP=4.25D-01              OVMax= 9.57D-01

 Cycle   2  Pass 0  IDiag  1:
 RMSU=  3.62D-03    CP:  9.54D-01
 E= -978.746725327373     Delta-E=       -0.030035410092 Rises=F Damp=T
 DIIS: error= 1.31D-02 at cycle   2 NSaved=   2.
 NSaved= 2 IEnMin= 2 EnMin= -978.746725327373     IErMin= 2 ErrMin= 1.31D-02
 ErrMax= 1.31D-02  0.00D+00 EMaxC= 1.00D-01 BMatC= 1.53D-01 BMatP= 6.79D-01
 IDIUse=3 WtCom= 8.69D-01 WtEn= 1.31D-01
 Coeff-Com:  0.196D+00 0.804D+00
 Coeff-En:   0.477D+00 0.523D+00
 Coeff:      0.233D+00 0.767D+00
 Gap=    -0.253 Goal=   None    Shift=    0.000
 RMSDP=3.51D-03 MaxDP=2.06D-01 DE=-3.00D-02 OVMax= 6.24D-01

 Cycle   3  Pass 0  IDiag  1:
 RMSU=  2.93D-03    CP:  9.10D-01  5.07D-01
 E= -979.121427505171     Delta-E=       -0.374702177798 Rises=F Damp=F
 DIIS: error= 2.26D-02 at cycle   3 NSaved=   3.
 NSaved= 3 IEnMin= 3 EnMin= -979.121427505171     IErMin= 2 ErrMin= 1.31D-02
 ErrMax= 2.26D-02  0.00D+00 EMaxC= 1.00D-01 BMatC= 3.41D-01 BMatP= 1.53D-01
 IDIUse=2 WtCom= 0.00D+00 WtEn= 1.00D+00
 Coeff-En:   0.000D+00 0.263D+00 0.737D+00
 Coeff:      0.000D+00 0.263D+00 0.737D+00
 Gap=     0.334 Goal=   None    Shift=    0.000
 RMSDP=4.34D-03 MaxDP=4.12D-01 DE=-3.75D-01 OVMax= 9.85D-01

 Cycle   4  Pass 0  IDiag  1:
 RMSU=  2.71D-03    CP:  9.21D-01  1.04D+00  4.75D-02
 E= -977.314623956999     Delta-E=        1.806803548172 Rises=F Damp=F
 DIIS: error= 4.24D-02 at cycle   4 NSaved=   4.
 NSaved= 4 IEnMin= 3 EnMin= -979.121427505171     IErMin= 2 ErrMin= 1.31D-02
 ErrMax= 4.24D-02  0.00D+00 EMaxC= 1.00D-01 BMatC= 1.28D+00 BMatP= 1.53D-01
 IDIUse=2 WtCom= 0.00D+00 WtEn= 1.00D+00
 Coeff-En:   0.000D+00 0.000D+00 0.791D+00 0.209D+00
 Coeff:      0.000D+00 0.000D+00 0.791D+00 0.209D+00
 Gap=     0.019 Goal=   None    Shift=    0.000
 RMSDP=3.88D-03 MaxDP=2.88D-01 DE= 1.81D+00 OVMax= 9.88D-01

 Cycle   5  Pass 0  IDiag  1:
 RMSU=  1.90D-03    CP:  9.30D-01  5.64D-01  5.11D-01  5.20D-02
 E= -979.409961696525     Delta-E=       -2.095337739526 Rises=F Damp=F
 DIIS: error= 6.12D-03 at cycle   5 NSaved=   5.
 NSaved= 5 IEnMin= 5 EnMin= -979.409961696525     IErMin= 5 ErrMin= 6.12D-03
 ErrMax= 6.12D-03  0.00D+00 EMaxC= 1.00D-01 BMatC= 3.76D-02 BMatP= 1.53D-01
 IDIUse=3 WtCom= 9.39D-01 WtEn= 6.12D-02
 Coeff-Com: -0.229D-02 0.146D+00 0.274D+00 0.186D-01 0.563D+00
 Coeff-En:   0.000D+00 0.000D+00 0.000D+00 0.000D+00 0.100D+01
 Coeff:     -0.215D-02 0.137D+00 0.258D+00 0.174D-01 0.590D+00
 Gap=     0.132 Goal=   None    Shift=    0.000
 RMSDP=8.27D-04 MaxDP=7.84D-02 DE=-2.10D+00 OVMax= 5.32D-02

 Cycle   6  Pass 0  IDiag  1:
 RMSU=  6.01D-04    CP:  9.23D-01  5.73D-01  6.21D-01  5.11D-02  7.63D-01
 E= -979.431740450843     Delta-E=       -0.021778754318 Rises=F Damp=F
 DIIS: error= 4.98D-03 at cycle   6 NSaved=   6.
 NSaved= 6 IEnMin= 6 EnMin= -979.431740450843     IErMin= 6 ErrMin= 4.98D-03
 ErrMax= 4.98D-03  0.00D+00 EMaxC= 1.00D-01 BMatC= 1.20D-02 BMatP= 3.76D-02
 IDIUse=3 WtCom= 9.50D-01 WtEn= 4.98D-02
 Coeff-Com: -0.273D-01 0.837D-01 0.481D-01-0.679D-02 0.334D+00 0.568D+00
 Coeff-En:   0.000D+00 0.000D+00 0.000D+00 0.000D+00 0.241D+00 0.759D+00
 Coeff:     -0.259D-01 0.796D-01 0.457D-01-0.645D-02 0.329D+00 0.578D+00
 Gap=     0.114 Goal=   None    Shift=    0.000
 RMSDP=3.71D-04 MaxDP=4.13D-02 DE=-2.18D-02 OVMax= 2.51D-02

 Cycle   7  Pass 0  IDiag  1:
 RMSU=  1.70D-04    CP:  9.25D-01  5.96D-01  5.78D-01  4.02D-02  8.93D-01
                    CP:  7.50D-01
 E= -979.441717114507     Delta-E=       -0.009976663664 Rises=F Damp=F
 DIIS: error= 7.54D-04 at cycle   7 NSaved=   7.
 NSaved= 7 IEnMin= 7 EnMin= -979.441717114507     IErMin= 7 ErrMin= 7.54D-04
 ErrMax= 7.54D-04  0.00D+00 EMaxC= 1.00D-01 BMatC= 4.04D-04 BMatP= 1.20D-02
 IDIUse=3 WtCom= 9.92D-01 WtEn= 7.54D-03
 Coeff-Com: -0.991D-02 0.196D-01-0.263D-01-0.377D-03 0.326D-01 0.208D+00
 Coeff-Com:  0.777D+00
 Coeff-En:   0.000D+00 0.000D+00 0.000D+00 0.000D+00 0.000D+00 0.000D+00
 Coeff-En:   0.100D+01
 Coeff:     -0.983D-02 0.194D-01-0.261D-01-0.375D-03 0.324D-01 0.206D+00
 Coeff:      0.778D+00
 Gap=     0.110 Goal=   None    Shift=    0.000
 RMSDP=9.27D-05 MaxDP=5.42D-03 DE=-9.98D-03 OVMax= 6.33D-03

 Cycle   8  Pass 0  IDiag  1:
 RMSU=  5.50D-05    CP:  9.25D-01  6.04D-01  5.70D-01  3.81D-02  9.15D-01
                    CP:  8.33D-01  9.76D-01
 E= -979.442107382312     Delta-E=       -0.000390267805 Rises=F Damp=F
 DIIS: error= 2.72D-04 at cycle   8 NSaved=   8.
 NSaved= 8 IEnMin= 8 EnMin= -979.442107382312     IErMin= 8 ErrMin= 2.72D-04
 ErrMax= 2.72D-04  0.00D+00 EMaxC= 1.00D-01 BMatC= 7.75D-05 BMatP= 4.04D-04
 IDIUse=3 WtCom= 9.97D-01 WtEn= 2.72D-03
 Coeff-Com: -0.394D-02 0.442D-02-0.215D-01 0.129D-02-0.114D-01 0.670D-01
 Coeff-Com:  0.421D+00 0.543D+00
 Coeff-En:   0.000D+00 0.000D+00 0.000D+00 0.000D+00 0.000D+00 0.000D+00
 Coeff-En:   0.000D+00 0.100D+01
 Coeff:     -0.393D-02 0.441D-02-0.214D-01 0.129D-02-0.114D-01 0.668D-01
 Coeff:      0.420D+00 0.544D+00
 Gap=     0.109 Goal=   None    Shift=    0.000
 RMSDP=2.99D-05 MaxDP=1.20D-03 DE=-3.90D-04 OVMax= 2.89D-03

 Cycle   9  Pass 0  IDiag  1:
 RMSU=  2.07D-05    CP:  9.25D-01  6.05D-01  5.67D-01  3.89D-02  9.22D-01
                    CP:  8.36D-01  1.03D+00  8.23D-01
 E= -979.442179308203     Delta-E=       -0.000071925891 Rises=F Damp=F
 DIIS: error= 1.24D-04 at cycle   9 NSaved=   9.
 NSaved= 9 IEnMin= 9 EnMin= -979.442179308203     IErMin= 9 ErrMin= 1.24D-04
 ErrMax= 1.24D-04  0.00D+00 EMaxC= 1.00D-01 BMatC= 1.06D-05 BMatP= 7.75D-05
 IDIUse=3 WtCom= 9.99D-01 WtEn= 1.24D-03
 Coeff-Com: -0.939D-03 0.689D-03-0.671D-02 0.658D-03-0.688D-02 0.169D-02
 Coeff-Com:  0.545D-01 0.241D+00 0.716D+00
 Coeff-En:   0.000D+00 0.000D+00 0.000D+00 0.000D+00 0.000D+00 0.000D+00
 Coeff-En:   0.000D+00 0.000D+00 0.100D+01
 Coeff:     -0.938D-03 0.688D-03-0.670D-02 0.657D-03-0.687D-02 0.169D-02
 Coeff:      0.544D-01 0.240D+00 0.717D+00
 Gap=     0.109 Goal=   None    Shift=    0.000
 RMSDP=1.31D-05 MaxDP=1.12D-03 DE=-7.19D-05 OVMax= 1.21D-03

 Cycle  10  Pass 0  IDiag  1:
 RMSU=  7.88D-06    CP:  9.25D-01  6.06D-01  5.66D-01  3.87D-02  9.25D-01
                    CP:  8.40D-01  1.04D+00  9.13D-01  8.04D-01
 E= -979.442188666040     Delta-E=       -0.000009357837 Rises=F Damp=F
 DIIS: error= 4.49D-05 at cycle  10 NSaved=  10.
 NSaved=10 IEnMin=10 EnMin= -979.442188666040     IErMin=10 ErrMin= 4.49D-05
 ErrMax= 4.49D-05  0.00D+00 EMaxC= 1.00D-01 BMatC= 1.78D-06 BMatP= 1.06D-05
 IDIUse=1 WtCom= 1.00D+00 WtEn= 0.00D+00
 Coeff-Com: -0.988D-04 0.445D-03-0.121D-02 0.653D-04-0.244D-02-0.850D-02
 Coeff-Com: -0.284D-01 0.533D-01 0.403D+00 0.584D+00
 Coeff:     -0.988D-04 0.445D-03-0.121D-02 0.653D-04-0.244D-02-0.850D-02
 Coeff:     -0.284D-01 0.533D-01 0.403D+00 0.584D+00
 Gap=     0.108 Goal=   None    Shift=    0.000
 RMSDP=5.33D-06 MaxDP=2.63D-04 DE=-9.36D-06 OVMax= 3.03D-04

 Initial convergence to 1.0D-05 achieved.  Increase integral accuracy.
 Cycle  11  Pass 1  IDiag  1:
 E= -979.442231266255     Delta-E=       -0.000042600215 Rises=F Damp=F
 DIIS: error= 9.75D-05 at cycle   1 NSaved=   1.
 NSaved= 1 IEnMin= 1 EnMin= -979.442231266255     IErMin= 1 ErrMin= 9.75D-05
 ErrMax= 9.75D-05  0.00D+00 EMaxC= 1.00D-01 BMatC= 3.36D-06 BMatP= 3.36D-06
 IDIUse=1 WtCom= 1.00D+00 WtEn= 0.00D+00
 Coeff-Com:  0.100D+01
 Coeff:      0.100D+01
 Gap=     0.108 Goal=   None    Shift=    0.000
 RMSDP=5.33D-06 MaxDP=2.63D-04 DE=-4.26D-05 OVMax= 4.01D-04

 Cycle  12  Pass 1  IDiag  1:
 RMSU=  1.06D-04    CP:  1.00D+00
 E= -979.442234683279     Delta-E=       -0.000003417024 Rises=F Damp=F
 DIIS: error= 2.21D-05 at cycle   2 NSaved=   2.
 NSaved= 2 IEnMin= 2 EnMin= -979.442234683279     IErMin= 2 ErrMin= 2.21D-05
 ErrMax= 2.21D-05  0.00D+00 EMaxC= 1.00D-01 BMatC= 2.93D-07 BMatP= 3.36D-06
 IDIUse=1 WtCom= 1.00D+00 WtEn= 0.00D+00
 Coeff-Com:  0.105D+00 0.895D+00
 Coeff:      0.105D+00 0.895D+00
 Gap=     0.108 Goal=   None    Shift=    0.000
 RMSDP=4.65D-06 MaxDP=3.93D-04 DE=-3.42D-06 OVMax= 4.61D-04

 Cycle  13  Pass 1  IDiag  1:
 RMSU=  4.39D-06    CP:  1.00D+00  1.01D+00
 E= -979.442234251755     Delta-E=        0.000000431524 Rises=F Damp=F
 DIIS: error= 4.06D-05 at cycle   3 NSaved=   3.
 NSaved= 3 IEnMin= 2 EnMin= -979.442234683279     IErMin= 2 ErrMin= 2.21D-05
 ErrMax= 4.06D-05  0.00D+00 EMaxC= 1.00D-01 BMatC= 7.99D-07 BMatP= 2.93D-07
 IDIUse=1 WtCom= 1.00D+00 WtEn= 0.00D+00
 Coeff-Com: -0.335D-02 0.626D+00 0.377D+00
 Coeff:     -0.335D-02 0.626D+00 0.377D+00
 Gap=     0.108 Goal=   None    Shift=    0.000
 RMSDP=2.77D-06 MaxDP=2.19D-04 DE= 4.32D-07 OVMax= 3.41D-04

 Cycle  14  Pass 1  IDiag  1:
 RMSU=  7.69D-07    CP:  1.00D+00  1.02D+00  3.99D-01
 E= -979.442234930564     Delta-E=       -0.000000678809 Rises=F Damp=F
 DIIS: error= 5.06D-06 at cycle   4 NSaved=   4.
 NSaved= 4 IEnMin= 4 EnMin= -979.442234930564     IErMin= 4 ErrMin= 5.06D-06
 ErrMax= 5.06D-06  0.00D+00 EMaxC= 1.00D-01 BMatC= 1.39D-08 BMatP= 2.93D-07
 IDIUse=1 WtCom= 1.00D+00 WtEn= 0.00D+00
 Coeff-Com: -0.473D-02 0.361D+00 0.232D+00 0.412D+00
 Coeff:     -0.473D-02 0.361D+00 0.232D+00 0.412D+00
 Gap=     0.108 Goal=   None    Shift=    0.000
 RMSDP=3.56D-07 MaxDP=2.07D-05 DE=-6.79D-07 OVMax= 3.82D-05

 Cycle  15  Pass 1  IDiag  1:
 RMSU=  2.33D-07    CP:  1.00D+00  1.02D+00  4.12D-01  6.60D-01
 E= -979.442234941990     Delta-E=       -0.000000011426 Rises=F Damp=F
 DIIS: error= 9.23D-07 at cycle   5 NSaved=   5.
 NSaved= 5 IEnMin= 5 EnMin= -979.442234941990     IErMin= 5 ErrMin= 9.23D-07
 ErrMax= 9.23D-07  0.00D+00 EMaxC= 1.00D-01 BMatC= 3.54D-10 BMatP= 1.39D-08
 IDIUse=1 WtCom= 1.00D+00 WtEn= 0.00D+00
 Coeff-Com: -0.246D-02 0.173D+00 0.113D+00 0.225D+00 0.491D+00
 Coeff:     -0.246D-02 0.173D+00 0.113D+00 0.225D+00 0.491D+00
 Gap=     0.108 Goal=   None    Shift=    0.000
 RMSDP=6.48D-08 MaxDP=3.21D-06 DE=-1.14D-08 OVMax= 5.11D-06

 Cycle  16  Pass 1  IDiag  1:
 RMSU=  6.12D-08    CP:  1.00D+00  1.02D+00  4.12D-01  6.70D-01  9.22D-01
 E= -979.442234942344     Delta-E=       -0.000000000355 Rises=F Damp=F
 DIIS: error= 1.56D-07 at cycle   6 NSaved=   6.
 NSaved= 6 IEnMin= 6 EnMin= -979.442234942344     IErMin= 6 ErrMin= 1.56D-07
 ErrMax= 1.56D-07  0.00D+00 EMaxC= 1.00D-01 BMatC= 1.57D-11 BMatP= 3.54D-10
 IDIUse=1 WtCom= 1.00D+00 WtEn= 0.00D+00
 Coeff-Com: -0.402D-03 0.251D-01 0.174D-01 0.367D-01 0.195D+00 0.726D+00
 Coeff:     -0.402D-03 0.251D-01 0.174D-01 0.367D-01 0.195D+00 0.726D+00
 Gap=     0.108 Goal=   None    Shift=    0.000
 RMSDP=1.79D-08 MaxDP=6.47D-07 DE=-3.55D-10 OVMax= 1.73D-06

 Cycle  17  Pass 1  IDiag  1:
 RMSU=  1.30D-08    CP:  1.00D+00  1.02D+00  4.13D-01  6.74D-01  9.60D-01
                    CP:  9.17D-01
 E= -979.442234942353     Delta-E=       -0.000000000008 Rises=F Damp=F
 DIIS: error= 8.64D-08 at cycle   7 NSaved=   7.
 NSaved= 7 IEnMin= 7 EnMin= -979.442234942353     IErMin= 7 ErrMin= 8.64D-08
 ErrMax= 8.64D-08  0.00D+00 EMaxC= 1.00D-01 BMatC= 3.53D-12 BMatP= 1.57D-11
 IDIUse=1 WtCom= 1.00D+00 WtEn= 0.00D+00
 Coeff-Com:  0.174D-04-0.306D-02-0.139D-02-0.216D-02 0.620D-01 0.408D+00
 Coeff-Com:  0.537D+00
 Coeff:      0.174D-04-0.306D-02-0.139D-02-0.216D-02 0.620D-01 0.408D+00
 Coeff:      0.537D+00
 Gap=     0.108 Goal=   None    Shift=    0.000
 RMSDP=6.58D-09 MaxDP=2.78D-07 DE=-8.19D-12 OVMax= 7.25D-07

 SCF Done:  E(RPBE1PBE) =  -979.442234942     A.U. after   17 cycles
            NFock= 17  Conv=0.66D-08     -V/T= 2.0030
 KE= 9.765246639746D+02 PE=-6.177801054987D+03 EE= 2.283632527648D+03
 Leave Link  502 at Mon Mar  6 10:34:38 2023, MaxMem=  1048576000 cpu:             747.3 elap:             752.9
 (Enter /ssoft/spack/external/gaussian/g16-C.01/avx2/g16/l801.exe)
 DoSCS=F DFT=T ScalE2(SS,OS)=  1.000000  1.000000
 Range of M.O.s used for correlation:     1   442
 NBasis=   442 NAE=    84 NBE=    84 NFC=     0 NFV=     0
 NROrb=    442 NOA=    84 NOB=    84 NVA=   358 NVB=   358

 **** Warning!!: The largest alpha MO coefficient is  0.13275263D+02

 Leave Link  801 at Mon Mar  6 10:34:38 2023, MaxMem=  1048576000 cpu:               0.0 elap:               0.1
 (Enter /ssoft/spack/external/gaussian/g16-C.01/avx2/g16/l1101.exe)
 Using compressed storage, NAtomX=    47.
 Will process     48 centers per pass.
   1 Symmetry operations used in ECPInt.
 ECPInt:  NShTT=   22155 NPrTT=   78977 LenC2=   19929 LenP2D=   49345.
 LDataN:  DoStor=T MaxTD1= 5 Len=  102
 R6Disp: Adding Grimme-D3(BJ) dispersion energy 1st derivatives to the gradient.
 Leave Link 1101 at Mon Mar  6 10:34:39 2023, MaxMem=  1048576000 cpu:               1.0 elap:               1.1
 (Enter /ssoft/spack/external/gaussian/g16-C.01/avx2/g16/l1102.exe)
 Symmetrizing basis deriv contribution to polar:
 IMax=3 JMax=2 DiffMx= 0.00D+00
 Leave Link 1102 at Mon Mar  6 10:34:39 2023, MaxMem=  1048576000 cpu:               0.1 elap:               0.1
 (Enter /ssoft/spack/external/gaussian/g16-C.01/avx2/g16/l1110.exe)
 Forming Gx(P) for the SCF density, NAtomX=    47.
 Integral derivatives from FoFJK, PRISM(SPDF).
 Do as many integral derivatives as possible in FoFJK.
 G2DrvN: MDV=    1048571023.
 G2DrvN: will do    48 centers at a time, making    1 passes.
 Calling FoFCou, ICntrl=  3107 FMM=F I1Cent=   0 AccDes= 0.00D+00.
 FoFJK:  IHMeth= 1 ICntrl=    3107 DoSepK=F KAlg= 0 I1Cent=           0 FoldK=F
 IRaf=         0 NMat=       1 IRICut=       1 DoRegI=T DoRafI=F ISym2E= 0 IDoP0=0 IntGTp=1.
 FoFCou: FMM=F IPFlag=           0 FMFlag=      100000 FMFlg1=           0
         NFxFlg=           0 DoJE=F BraDBF=F KetDBF=F FulRan=T
         wScrn=  0.000000 ICntrl=      3107 IOpCl=  0 I1Cent=           0 NGrid=           0
         NMat0=    1 NMatS0=      1 NMatT0=    0 NMatD0=    1 NMtDS0=    0 NMtDT0=    0
 Symmetry not used in FoFCou.
 End of G2Drv F.D. properties file   721 does not exist.
 End of G2Drv F.D. properties file   722 does not exist.
 End of G2Drv F.D. properties file   788 does not exist.
 Leave Link 1110 at Mon Mar  6 11:07:43 2023, MaxMem=  1048576000 cpu:            1972.9 elap:            1984.0
 (Enter /ssoft/spack/external/gaussian/g16-C.01/avx2/g16/l1002.exe)
 Minotr:  Closed shell wavefunction.
          IDoAtm=11111111111111111111111111111111111111111111111
          Direct CPHF calculation.
          Differentiating once with respect to electric field.
                with respect to dipole field.
          Differentiating once with respect to nuclear coordinates.
          Requested convergence is 1.0D-08 RMS, and 1.0D-07 maximum.
          Secondary convergence is 1.0D-12 RMS, and 1.0D-12 maximum.
          NewPWx=T KeepS1=F KeepF1=F KeepIn=T MapXYZ=F SortEE=F KeepMc=T.
        14210 words used for storage of precomputed grid.
 Two-electron integrals replicated using symmetry.
          MDV=    1048576000 using IRadAn=       1.
          Solving linear equations simultaneously, MaxMat=     384.
 FoF2E skips out because all densities are zero.
 CalDSu exits because no D1Ps are significant.
 FoFJK:  IHMeth= 1 ICntrl=       0 DoSepK=F KAlg= 0 I1Cent=           0 FoldK=F
 IRaf= 800000000 NMat=     141 IRICut=     352 DoRegI=T DoRafI=T ISym2E= 2 IDoP0=3 IntGTp=3.
 FoFCou: FMM=F IPFlag=           0 FMFlag=      100000 FMFlg1=           0
         NFxFlg=           0 DoJE=F BraDBF=F KetDBF=F FulRan=T
         wScrn=  0.000000 ICntrl=         0 IOpCl=  0 I1Cent=           0 NGrid=           0
         NMat0=  141 NMatS0=    141 NMatT0=    0 NMatD0=  141 NMtDS0=    0 NMtDT0=    0
 Integrals replicated using symmetry in FoFCou.
 Raff kept on since  74.86% of shell-pairs survive, threshold=   0.20 IRatSp=75.
          There are   144 degrees of freedom in the 1st order CPHF.  IDoFFX=6 NUNeed=     3.
    141 vectors produced by pass  0 Test12= 3.01D-14 1.00D-09 XBig12= 2.15D+02 5.04D+00.
 AX will form   141 AO Fock derivatives at one time.
    141 vectors produced by pass  1 Test12= 3.01D-14 1.00D-09 XBig12= 4.51D+01 1.68D+00.
    141 vectors produced by pass  2 Test12= 3.01D-14 1.00D-09 XBig12= 2.42D-01 8.33D-02.
    141 vectors produced by pass  3 Test12= 3.01D-14 1.00D-09 XBig12= 1.03D-03 6.26D-03.
    141 vectors produced by pass  4 Test12= 3.01D-14 1.00D-09 XBig12= 2.82D-06 1.55D-04.
    127 vectors produced by pass  5 Test12= 3.01D-14 1.00D-09 XBig12= 3.59D-09 4.29D-06.
     28 vectors produced by pass  6 Test12= 3.01D-14 1.00D-09 XBig12= 3.72D-12 1.70D-07.
      3 vectors produced by pass  7 Test12= 3.01D-14 1.00D-09 XBig12= 4.05D-15 5.75D-09.
      2 vectors produced by pass  8 Test12= 3.01D-14 1.00D-09 XBig12= 7.33D-16 1.79D-09.
 InvSVY:  IOpt=1 It=  1 EMax= 1.42D-14
 Solved reduced A of dimension   865 with   144 vectors.
 FullF1:  Do perturbations      1 to       3.
 Isotropic polarizability for W=    0.000000      202.79 Bohr**3.
 End of Minotr F.D. properties file   721 does not exist.
 End of Minotr F.D. properties file   722 does not exist.
 End of Minotr F.D. properties file   788 does not exist.
 Leave Link 1002 at Mon Mar  6 12:13:54 2023, MaxMem=  1048576000 cpu:            3955.1 elap:            3970.8
 (Enter /ssoft/spack/external/gaussian/g16-C.01/avx2/g16/l601.exe)
 Copying SCF densities to generalized density rwf, IOpCl= 0 IROHF=0.

 **********************************************************************

            Population analysis using the SCF Density.

 **********************************************************************

 Orbital symmetries:
       Occupied  (A) (A) (A) (A) (A) (A) (A) (A) (A) (A) (A) (A)
                 (A) (A) (A) (A) (A) (A) (A) (A) (A) (A) (A) (A)
                 (A) (A) (A) (A) (A) (A) (A) (A) (A) (A) (A) (A)
                 (A) (A) (A) (A) (A) (A) (A) (A) (A) (A) (A) (A)
                 (A) (A) (A) (A) (A) (A) (A) (A) (A) (A) (A) (A)
                 (A) (A) (A) (A) (A) (A) (A) (A) (A) (A) (A) (A)
                 (A) (A) (A) (A) (A) (A) (A) (A) (A) (A) (A) (A)
       Virtual   (A) (A) (A) (A) (A) (A) (A) (A) (A) (A) (A) (A)
                 (A) (A) (A) (A) (A) (A) (A) (A) (A) (A) (A) (A)
                 (A) (A) (A) (A) (A) (A) (A) (A) (A) (A) (A) (A)
                 (A) (A) (A) (A) (A) (A) (A) (A) (A) (A) (A) (A)
                 (A) (A) (A) (A) (A) (A) (A) (A) (A) (A) (A) (A)
                 (A) (A) (A) (A) (A) (A) (A) (A) (A) (A) (A) (A)
                 (A) (A) (A) (A) (A) (A) (A) (A) (A) (A) (A) (A)
                 (A) (A) (A) (A) (A) (A) (A) (A) (A) (A) (A) (A)
                 (A) (A) (A) (A) (A) (A) (A) (A) (A) (A) (A) (A)
                 (A) (A) (A) (A) (A) (A) (A) (A) (A) (A) (A) (A)
                 (A) (A) (A) (A) (A) (A) (A) (A) (A) (A) (A) (A)
                 (A) (A) (A) (A) (A) (A) (A) (A) (A) (A) (A) (A)
                 (A) (A) (A) (A) (A) (A) (A) (A) (A) (A) (A) (A)
                 (A) (A) (A) (A) (A) (A) (A) (A) (A) (A) (A) (A)
                 (A) (A) (A) (A) (A) (A) (A) (A) (A) (A) (A) (A)
                 (A) (A) (A) (A) (A) (A) (A) (A) (A) (A) (A) (A)
                 (A) (A) (A) (A) (A) (A) (A) (A) (A) (A) (A) (A)
                 (A) (A) (A) (A) (A) (A) (A) (A) (A) (A) (A) (A)
                 (A) (A) (A) (A) (A) (A) (A) (A) (A) (A) (A) (A)
                 (A) (A) (A) (A) (A) (A) (A) (A) (A) (A) (A) (A)
                 (A) (A) (A) (A) (A) (A) (A) (A) (A) (A) (A) (A)
                 (A) (A) (A) (A) (A) (A) (A) (A) (A) (A) (A) (A)
                 (A) (A) (A) (A) (A) (A) (A) (A) (A) (A) (A) (A)
                 (A) (A) (A) (A) (A) (A) (A) (A) (A) (A) (A) (A)
                 (A) (A) (A) (A) (A) (A) (A) (A) (A) (A) (A) (A)
                 (A) (A) (A) (A) (A) (A) (A) (A) (A) (A) (A) (A)
                 (A) (A) (A) (A) (A) (A) (A) (A) (A) (A) (A) (A)
                 (A) (A) (A) (A) (A) (A) (A) (A) (A) (A) (A) (A)
                 (A) (A) (A) (A) (A) (A) (A) (A) (A) (A) (A) (A)
                 (A) (A) (A) (A) (A) (A) (A) (A) (A) (A)
 The electronic state is 1-A.
 Alpha  occ. eigenvalues --  -18.94776 -18.92228 -14.24592 -10.13833 -10.12910
 Alpha  occ. eigenvalues --  -10.12872 -10.12519 -10.12402 -10.12130 -10.11955
 Alpha  occ. eigenvalues --  -10.11502 -10.11374 -10.11210 -10.11038 -10.10891
 Alpha  occ. eigenvalues --  -10.10545 -10.10298 -10.10134 -10.08737 -10.08031
 Alpha  occ. eigenvalues --  -10.07242 -10.07149 -10.05785  -0.84161  -0.80788
 Alpha  occ. eigenvalues --   -0.78967  -0.77800  -0.72559  -0.72152  -0.70256
 Alpha  occ. eigenvalues --   -0.68617  -0.68221  -0.67980  -0.64044  -0.61871
 Alpha  occ. eigenvalues --   -0.61563  -0.57819  -0.55512  -0.55200  -0.53437
 Alpha  occ. eigenvalues --   -0.52059  -0.49706  -0.47292  -0.47040  -0.45396
 Alpha  occ. eigenvalues --   -0.41150  -0.40858  -0.40224  -0.39133  -0.38424
 Alpha  occ. eigenvalues --   -0.36809  -0.36563  -0.36070  -0.35575  -0.35349
 Alpha  occ. eigenvalues --   -0.34840  -0.33596  -0.32716  -0.32259  -0.31426
 Alpha  occ. eigenvalues --   -0.29800  -0.29316  -0.28318  -0.28272  -0.27985
 Alpha  occ. eigenvalues --   -0.27103  -0.26759  -0.26478  -0.25274  -0.24172
 Alpha  occ. eigenvalues --   -0.23269  -0.22730  -0.21972  -0.20111  -0.19388
 Alpha  occ. eigenvalues --   -0.18570  -0.17372  -0.16743  -0.16505  -0.15515
 Alpha  occ. eigenvalues --   -0.08765  -0.05059  -0.04525  -0.01920
 Alpha virt. eigenvalues --    0.08904   0.09171   0.09994   0.10514   0.17121
 Alpha virt. eigenvalues --    0.18766   0.19109   0.19975   0.21089   0.22289
 Alpha virt. eigenvalues --    0.22524   0.23252   0.24175   0.24282   0.24610
 Alpha virt. eigenvalues --    0.24857   0.25494   0.26094   0.26492   0.27036
 Alpha virt. eigenvalues --    0.27466   0.28265   0.29080   0.30179   0.30779
 Alpha virt. eigenvalues --    0.31482   0.31703   0.32139   0.33920   0.34058
 Alpha virt. eigenvalues --    0.34703   0.35312   0.36056   0.36801   0.37859
 Alpha virt. eigenvalues --    0.38254   0.38846   0.40233   0.40418   0.41113
 Alpha virt. eigenvalues --    0.41777   0.42022   0.43252   0.43749   0.43927
 Alpha virt. eigenvalues --    0.45612   0.45782   0.46225   0.46781   0.47502
 Alpha virt. eigenvalues --    0.48510   0.50753   0.52450   0.53285   0.54010
 Alpha virt. eigenvalues --    0.54440   0.54839   0.55188   0.55947   0.56634
 Alpha virt. eigenvalues --    0.57747   0.58845   0.58887   0.59891   0.60497
 Alpha virt. eigenvalues --    0.61284   0.62106   0.62442   0.63028   0.63538
 Alpha virt. eigenvalues --    0.64116   0.64560   0.65696   0.66093   0.66588
 Alpha virt. eigenvalues --    0.67450   0.67947   0.68136   0.69104   0.69875
 Alpha virt. eigenvalues --    0.70580   0.71861   0.72256   0.73254   0.75381
 Alpha virt. eigenvalues --    0.75927   0.76258   0.77259   0.78005   0.78740
 Alpha virt. eigenvalues --    0.79288   0.80326   0.81424   0.81968   0.82202
 Alpha virt. eigenvalues --    0.82374   0.82915   0.83260   0.84088   0.84520
 Alpha virt. eigenvalues --    0.84920   0.85241   0.85400   0.85696   0.86254
 Alpha virt. eigenvalues --    0.87052   0.87331   0.87497   0.87744   0.87985
 Alpha virt. eigenvalues --    0.88071   0.88419   0.88824   0.89623   0.90521
 Alpha virt. eigenvalues --    0.90739   0.90994   0.91392   0.92232   0.92886
 Alpha virt. eigenvalues --    0.93677   0.93990   0.94581   0.94918   0.95640
 Alpha virt. eigenvalues --    0.96617   0.97038   0.97726   0.98132   0.98817
 Alpha virt. eigenvalues --    0.99395   1.00492   1.01055   1.01556   1.03177
 Alpha virt. eigenvalues --    1.03654   1.04737   1.05551   1.07702   1.07941
 Alpha virt. eigenvalues --    1.08128   1.10574   1.12878   1.14464   1.17960
 Alpha virt. eigenvalues --    1.18973   1.19541   1.20328   1.21522   1.22367
 Alpha virt. eigenvalues --    1.22946   1.24948   1.25609   1.26278   1.27811
 Alpha virt. eigenvalues --    1.30272   1.32049   1.32541   1.32829   1.33747
 Alpha virt. eigenvalues --    1.34769   1.35259   1.36141   1.36779   1.37619
 Alpha virt. eigenvalues --    1.38883   1.39258   1.39491   1.41521   1.42302
 Alpha virt. eigenvalues --    1.43020   1.44098   1.46241   1.46879   1.47078
 Alpha virt. eigenvalues --    1.47803   1.49055   1.50004   1.51237   1.53470
 Alpha virt. eigenvalues --    1.54537   1.57962   1.59977   1.63294   1.63894
 Alpha virt. eigenvalues --    1.66948   1.68002   1.70483   1.72698   1.73854
 Alpha virt. eigenvalues --    1.74858   1.75254   1.76914   1.78350   1.78829
 Alpha virt. eigenvalues --    1.79777   1.80251   1.82857   1.84051   1.85330
 Alpha virt. eigenvalues --    1.85944   1.87228   1.87783   1.88396   1.88957
 Alpha virt. eigenvalues --    1.89290   1.90281   1.90587   1.91169   1.91919
 Alpha virt. eigenvalues --    1.91988   1.93008   1.93400   1.94097   1.94854
 Alpha virt. eigenvalues --    1.95173   1.96370   1.97231   1.97750   1.98887
 Alpha virt. eigenvalues --    1.99070   2.00639   2.01232   2.01950   2.02477
 Alpha virt. eigenvalues --    2.03833   2.04537   2.04719   2.06168   2.07283
 Alpha virt. eigenvalues --    2.07538   2.08233   2.09705   2.10528   2.11559
 Alpha virt. eigenvalues --    2.12731   2.14988   2.16314   2.17007   2.17145
 Alpha virt. eigenvalues --    2.18047   2.18419   2.19247   2.21228   2.21977
 Alpha virt. eigenvalues --    2.22769   2.23104   2.24500   2.24573   2.25266
 Alpha virt. eigenvalues --    2.25546   2.26915   2.27230   2.29201   2.30275
 Alpha virt. eigenvalues --    2.30820   2.31912   2.32030   2.32973   2.34086
 Alpha virt. eigenvalues --    2.34562   2.36201   2.37343   2.39152   2.39724
 Alpha virt. eigenvalues --    2.41044   2.41939   2.42346   2.43642   2.44670
 Alpha virt. eigenvalues --    2.45302   2.46641   2.47833   2.48588   2.49686
 Alpha virt. eigenvalues --    2.51051   2.53312   2.54258   2.55093   2.55648
 Alpha virt. eigenvalues --    2.56813   2.57666   2.59152   2.59934   2.62117
 Alpha virt. eigenvalues --    2.62637   2.63214   2.64151   2.66396   2.68968
 Alpha virt. eigenvalues --    2.69384   2.70342   2.72791   2.73046   2.75663
 Alpha virt. eigenvalues --    2.77704   2.77964   2.79953   2.80209   2.80817
 Alpha virt. eigenvalues --    2.83403   2.86282   2.86536   2.88438   2.89756
 Alpha virt. eigenvalues --    2.90250   2.91924   2.93366   2.94227   2.94786
 Alpha virt. eigenvalues --    2.95160   2.96658   2.97623   2.99603   3.01040
 Alpha virt. eigenvalues --    3.02007   3.03210   3.04460   3.09193   3.16282
 Alpha virt. eigenvalues --    3.16899   3.17580   3.19421   3.21296   3.21933
 Alpha virt. eigenvalues --    3.23951   3.24320   3.28608   3.29123   3.30829
 Alpha virt. eigenvalues --    3.32588   3.34151   3.35227   3.37321   3.40056
 Alpha virt. eigenvalues --    3.42605   3.44635   3.44893   3.46720   3.47386
 Alpha virt. eigenvalues --    3.50516   3.52328   3.55950   3.56690   3.60178
 Alpha virt. eigenvalues --    3.60717   3.61985   3.64157   3.64501   3.66140
 Alpha virt. eigenvalues --    3.67367   3.69039   3.74654   3.81291   3.88447
 Alpha virt. eigenvalues --    3.93588   4.09338   4.14483
     Molecular Orbital Coefficients:
                          80        81        82        83        84
                           O         O         O         O         O
     Eigenvalues --    -0.15515  -0.08765  -0.05059  -0.04525  -0.01920
   1 1   O  1S          0.00064  -0.00056  -0.00055  -0.00111   0.01579
   2        2S          0.00128  -0.00226   0.00443  -0.00110   0.03085
   3        3S          0.00097   0.00128  -0.05622  -0.01556   0.11671
   4        4PX        -0.04673  -0.03149   0.25012  -0.29900   0.18154
   5        4PY         0.01189  -0.01822  -0.16502   0.10212   0.07387
   6        4PZ         0.02820  -0.15077   0.37498   0.22066   0.22341
   7        5PX        -0.03061  -0.01277   0.17081  -0.24792   0.14308
   8        5PY         0.00832  -0.01483  -0.14139   0.08300   0.06666
   9        5PZ         0.01974  -0.10446   0.26684   0.18878   0.17573
  10        6D 0       -0.00003   0.00093   0.00055  -0.00215  -0.00269
  11        6D+1        0.00061  -0.00164   0.00201   0.00323  -0.00027
  12        6D-1        0.00139  -0.00511   0.00855   0.00555   0.00668
  13        6D+2       -0.00139   0.00004   0.00594  -0.00481   0.00054
  14        6D-2       -0.00194  -0.00090   0.00401  -0.00801   0.00475
  15 2   N  1S         -0.01249  -0.06868  -0.01751  -0.01297  -0.03084
  16        2S         -0.02734  -0.14880  -0.03233  -0.03266  -0.07561
  17        3S         -0.04457  -0.18170  -0.10704  -0.02415  -0.07847
  18        4PX         0.12204   0.21596   0.00853   0.02656   0.02655
  19        4PY        -0.05980   0.15365  -0.02080   0.00649   0.01311
  20        4PZ        -0.03900   0.43600   0.06881   0.05221   0.10968
  21        5PX        -0.07676  -0.19345   0.00461  -0.04585  -0.02336
  22        5PY         0.03797  -0.13077   0.01004  -0.03275  -0.02282
  23        5PZ         0.02924  -0.33615  -0.06750  -0.01426  -0.05192
  24        6D 0       -0.00206   0.00941   0.00196   0.00145   0.00584
  25        6D+1        0.00533   0.00788  -0.00048   0.00151   0.00395
  26        6D-1       -0.00275   0.00523  -0.00360  -0.00188  -0.00091
  27        6D+2        0.00062   0.00165  -0.00569  -0.00058   0.00008
  28        6D-2        0.00237   0.00330   0.00094   0.00054  -0.00061
  29 3   C  1S         -0.00419  -0.01465  -0.00007  -0.00200  -0.00113
  30        2S          0.00946   0.03255   0.01414   0.00502  -0.00330
  31        3S          0.01558   0.10682  -0.10529   0.01574   0.05474
  32        4PX        -0.02672  -0.00330  -0.06273   0.03357  -0.01261
  33        4PY         0.02359   0.03962   0.04867  -0.00416  -0.02743
  34        4PZ         0.02272  -0.04722  -0.10345  -0.03435  -0.00916
  35        5PX        -0.02555  -0.03598   0.08977   0.03590   0.03597
  36        5PY         0.01289   0.04376  -0.11807  -0.02611   0.17045
  37        5PZ         0.00794  -0.07531   0.17664  -0.04647  -0.04842
  38        6D 0        0.00205   0.00153   0.01121  -0.01843  -0.02349
  39        6D+1       -0.00116   0.00429  -0.00899  -0.00335  -0.02053
  40        6D-1       -0.00092   0.00879  -0.03945  -0.02805  -0.00157
  41        6D+2        0.00086  -0.00020  -0.01190   0.03282  -0.02287
  42        6D-2        0.00356  -0.00281  -0.03238   0.01565   0.01573
  43 4   C  1S         -0.00288  -0.00605  -0.05219  -0.00536   0.01102
  44        2S          0.00853   0.00865   0.11030   0.00907  -0.02063
  45        3S          0.01287  -0.05106   0.51124   0.14424  -0.23484
  46        4PX         0.05284   0.06830   0.10771  -0.00115  -0.02640
  47        4PY        -0.00397   0.10023  -0.17942   0.00694   0.03638
  48        4PZ        -0.03525   0.06001   0.16310   0.02070  -0.05117
  49        5PX         0.02163  -0.03028   0.09160  -0.11759  -0.02508
  50        5PY         0.00850   0.05535  -0.24804  -0.03143   0.08060
  51        5PZ        -0.02412  -0.04925   0.15191  -0.02208  -0.05185
  52        6D 0       -0.00009   0.00188   0.00357  -0.00186   0.00494
  53        6D+1        0.00235  -0.01879  -0.00097  -0.00221   0.00097
  54        6D-1       -0.00272  -0.01471  -0.00692  -0.00139   0.00087
  55        6D+2       -0.00309  -0.00210  -0.00081   0.00159   0.00165
  56        6D-2        0.00598  -0.00705  -0.00348  -0.00346  -0.00311
  57 5   C  1S         -0.00193   0.02824   0.00541   0.00332  -0.00952
  58        2S          0.00863  -0.06295  -0.00207   0.00594   0.02075
  59        3S         -0.02497  -0.18784  -0.12510  -0.15321   0.12299
  60        4PX        -0.02007  -0.08493  -0.03987  -0.00120   0.01288
  61        4PY         0.00299  -0.08184  -0.00730  -0.02523  -0.01052
  62        4PZ         0.02766  -0.12701  -0.05311  -0.02593   0.02965
  63        5PX         0.00623  -0.00919  -0.05300   0.01047   0.03791
  64        5PY         0.00395  -0.05887  -0.00780  -0.01708   0.03102
  65        5PZ         0.01023  -0.10132  -0.10571  -0.12338   0.01887
  66        6D 0       -0.00116  -0.00348   0.00273   0.00004  -0.00329
  67        6D+1        0.00136  -0.00256   0.00183  -0.00124  -0.00191
  68        6D-1       -0.00085  -0.00168  -0.00577   0.00018   0.00484
  69        6D+2        0.00155   0.00063   0.00334  -0.00009   0.00037
  70        6D-2        0.00230   0.00057   0.00077  -0.00115   0.00251
  71 6   C  1S         -0.00027  -0.01701  -0.01405  -0.00496  -0.00778
  72        2S          0.00025   0.04546   0.03107   0.01423   0.02232
  73        3S          0.01745   0.04380   0.08188  -0.00065   0.04151
  74        4PX         0.00250   0.05358   0.00076   0.00790   0.01196
  75        4PY        -0.04345  -0.01413  -0.05104  -0.01529  -0.02279
  76        4PZ         0.02055   0.09285   0.04261   0.01882   0.02661
  77        5PX        -0.00590  -0.01199   0.00823   0.01943  -0.01372
  78        5PY        -0.02095  -0.05731  -0.05205  -0.04317  -0.05117
  79        5PZ         0.02082  -0.04670   0.02984  -0.01055  -0.02187
  80        6D 0        0.00057  -0.02241  -0.00181  -0.00270  -0.00576
  81        6D+1        0.00096  -0.00984  -0.00017  -0.00095  -0.00244
  82        6D-1       -0.00376   0.00370   0.00032   0.00003   0.00179
  83        6D+2       -0.00228  -0.00883  -0.00131  -0.00138  -0.00205
  84        6D-2        0.00220   0.00511  -0.00332   0.00002   0.00037
  85 7   C  1S          0.00543  -0.00666  -0.00468  -0.00046  -0.00172
  86        2S         -0.01219   0.02498   0.01529  -0.00235   0.00905
  87        3S         -0.02349  -0.02444  -0.00592   0.04278  -0.00975
  88        4PX        -0.01256   0.01521   0.00247   0.00125   0.00456
  89        4PY         0.05264  -0.01459  -0.01210  -0.00029  -0.00554
  90        4PZ        -0.03990  -0.01526   0.00421  -0.00022  -0.00056
  91        5PX        -0.02195   0.09420   0.00532   0.03782   0.03609
  92        5PY         0.03401   0.04055  -0.00081  -0.00146   0.02886
  93        5PZ        -0.03069   0.03458   0.00327   0.00804   0.02211
  94        6D 0       -0.00151  -0.00446  -0.00083  -0.00104  -0.00167
  95        6D+1        0.00235   0.00121   0.00134   0.00047   0.00071
  96        6D-1       -0.00113  -0.00199   0.00044   0.00004  -0.00054
  97        6D+2       -0.00235   0.00075   0.00010  -0.00035  -0.00097
  98        6D-2       -0.00058  -0.00043  -0.00137  -0.00053  -0.00022
  99 8   C  1S         -0.00138   0.00364  -0.00012  -0.00008   0.00044
 100        2S          0.00207  -0.00863   0.00158   0.00201  -0.00248
 101        3S          0.01209  -0.08202  -0.00666  -0.02689  -0.04018
 102        4PX         0.00523  -0.00136   0.00181   0.00046   0.00022
 103        4PY         0.01880   0.01787   0.00369   0.00338   0.00793
 104        4PZ        -0.05133  -0.00269  -0.00302  -0.00527  -0.01015
 105        5PX         0.00062   0.01907   0.00462   0.00141   0.00685
 106        5PY         0.01160   0.04066   0.00362   0.02203   0.01622
 107        5PZ        -0.03800  -0.00650  -0.00291   0.00097  -0.00590
 108        6D 0        0.00240   0.00070  -0.00071   0.00011   0.00011
 109        6D+1        0.00049  -0.00113   0.00038   0.00002  -0.00022
 110        6D-1        0.00096   0.00047  -0.00021  -0.00003  -0.00011
 111        6D+2        0.00134   0.00100  -0.00048   0.00027   0.00013
 112        6D-2        0.00040   0.00003  -0.00021   0.00022   0.00002
 113 9   C  1S          0.00121  -0.00222  -0.00014  -0.00013  -0.00038
 114        2S         -0.00240   0.00310   0.00021  -0.00055   0.00013
 115        3S         -0.00753   0.04056   0.00587   0.00342   0.02126
 116        4PX        -0.00678   0.00296   0.00127  -0.00004   0.00045
 117        4PY        -0.00266  -0.01711   0.00465  -0.00206  -0.00372
 118        4PZ         0.01594   0.01482  -0.00781   0.00291   0.00429
 119        5PX        -0.00432   0.00035   0.00261  -0.00660  -0.00183
 120        5PY         0.00051  -0.03420   0.00219  -0.00743  -0.01006
 121        5PZ         0.01132   0.00956  -0.00919  -0.00039   0.00063
 122        6D 0        0.00010  -0.00033  -0.00007  -0.00002   0.00003
 123        6D+1       -0.00349  -0.00098  -0.00036  -0.00045  -0.00089
 124        6D-1        0.00113   0.00005   0.00005   0.00021   0.00029
 125        6D+2        0.00030   0.00077   0.00021   0.00008   0.00035
 126        6D-2        0.00239   0.00035   0.00027   0.00021   0.00045
 127 10  C  1S          0.00030  -0.00027  -0.00036  -0.00008  -0.00012
 128        2S         -0.00007   0.00085   0.00103   0.00012   0.00055
 129        3S         -0.00394   0.01019   0.00669  -0.00071  -0.00236
 130        4PX        -0.00799  -0.00216  -0.00043  -0.00097  -0.00163
 131        4PY        -0.03897  -0.01050  -0.00408  -0.00415  -0.00692
 132        4PZ         0.05288   0.01595   0.00502   0.00545   0.00915
 133        5PX        -0.00494  -0.01069  -0.00268  -0.00320  -0.00949
 134        5PY        -0.02817  -0.01663  -0.00597  -0.00771  -0.00919
 135        5PZ         0.04172   0.00779   0.00334   0.00404   0.00773
 136        6D 0       -0.00087   0.00095  -0.00052   0.00021   0.00054
 137        6D+1        0.00046   0.00060  -0.00036   0.00008   0.00018
 138        6D-1       -0.00029   0.00026  -0.00012   0.00007   0.00016
 139        6D+2       -0.00058   0.00047  -0.00016   0.00006   0.00024
 140        6D-2        0.00039  -0.00063   0.00037  -0.00010  -0.00018
 141 11  C  1S          0.00103   0.00020   0.00031   0.00012   0.00003
 142        2S         -0.00201   0.00139  -0.00001   0.00065  -0.00005
 143        3S         -0.00561  -0.02179  -0.00477  -0.01236   0.00983
 144        4PX        -0.01037   0.00121  -0.00096   0.00043   0.00135
 145        4PY        -0.01621   0.00924  -0.00438   0.00241   0.00524
 146        4PZ         0.03258  -0.01402   0.00784  -0.00288  -0.00721
 147        5PX        -0.00801  -0.00935   0.00038  -0.00708   0.00643
 148        5PY        -0.00847  -0.00369  -0.01074   0.00286  -0.00393
 149        5PZ         0.02593  -0.03081   0.00345  -0.01011  -0.01448
 150        6D 0        0.00269   0.00134   0.00035   0.00049   0.00070
 151        6D+1       -0.00070  -0.00071  -0.00021  -0.00030  -0.00034
 152        6D-1        0.00137   0.00057   0.00031   0.00029   0.00037
 153        6D+2        0.00202   0.00070   0.00023   0.00019   0.00026
[...]
 638,-0.00044028,0.00015509,-0.84557109,-0.33998499,-0.04505558,0.85599
 544,0.00064287,-0.00118809,-0.00076194,0.00007966,-0.00004074,0.000330
 69,-0.00104760,0.00179104,0.00010955,-0.00042125,-0.00011266,-0.000210
 48,-0.00066347,0.00005135,0.00023475,-0.00005484,-0.00009622,-0.000006
 67,0.00014719,0.00007327,-0.00012276,0.00001172,0.00000115,-0.00002414
 ,-0.00003675,0.00000241,0.00001292,0.00008721,0.00001582,0.00002301,-0
 .00005896,0.00014022,0.00021455,-0.00014098,0.00019764,-0.00008648,0.0
 0082557,-0.00005917,-0.00035882,-0.00002571,0.00001635,-0.00005454,0.0
 0009520,0.00007507,0.00013659,0.00000638,0.00001504,0.00001034,0.00001
 622,0.00000529,0.00002476,-0.00000394,-0.00000268,0.00000355,-0.000005
 67,0.00000226,-0.00000259,-0.00000625,-0.00001194,-0.00001014,-0.00005
 595,-0.00004465,-0.00003661,-0.00019010,-0.00014255,0.00003392,-0.0000
 4698,0.00008926,-0.00001369,0.00005069,0.00000310,0.00000556,-0.000014
 39,0.00000237,0.00001877,0.00000337,-0.00000357,-0.00000300,-0.0000095
 8,0.00000342,0.00000975,-0.00000075,-0.00001070,0.00000097,-0.00001695
 ,0.00002133,0.00001773,-0.00000935,0.00000913,0.00000246,0.00001219,0.
 00001268,0.00002300,0.00000022,-0.00000759,-0.00000620,-0.00000323,0.0
 0000136,-0.00000109,-0.00000286,0.00000042,0.00000134,-0.00000528,0.00
 000132,0.00000232,0.00000184,0.00000540,0.00000645,0.00272943,-0.00192
 063,0.00017865,-0.00006601,0.00060498,-0.00054542,0.00041588,0.0003373
 9,-0.00027137,-0.00036713,-0.00009429,0.00022372,0.00060210,0.00047639
 ,0.00001735,-0.00034998,0.00054156,0.00003933,-0.33887596,-0.06449935,
 -0.02227001,0.34472942,0.06746973,-0.00032351,0.00045477,0.00103894,0.
 00019911,-0.00004828,0.00025184,0.00158804,-0.00053430,-0.00071714,0.0
 0034620,-0.00075629,-0.00084391,0.00019871,-0.00015496,0.00214891,-0.0
 0003573,-0.00001591,0.00008837,-0.00002929,0.00001142,0.00012693,0.000
 03303,0.00001025,0.00001105,-0.00000366,0.00000095,-0.00004484,-0.0000
 9856,-0.00002218,-0.00005922,0.00005995,-0.00005936,-0.00003958,0.0000
 3927,-0.00005605,-0.00000439,0.00121164,-0.00053638,-0.00063694,0.0000
 6133,0.00006289,-0.00004068,-0.00019775,0.00035852,0.00023347,-0.00000
 627,0.00004717,-0.00001863,0.00002250,0.00004048,-0.00002258,0.0000046
 6,-0.00000676,0.00000460,-0.00000167,0.00000595,-0.00000439,-0.0000068
 9,0.00001887,-0.00000443,0.00004893,0.00004092,0.00000525,0.00003520,-
 0.00000752,0.00000767,-0.00013195,0.00003096,-0.00002677,0.00006126,0.
 00001313,0.00000008,-0.00001673,-0.00001000,0.00001158,-0.00001285,0.0
 0001377,0.00000697,-0.00001176,0.00001379,0.00000741,0.00000850,-0.000
 00150,-0.00000634,-0.00001447,-0.00002276,0.00002033,-0.00002121,-0.00
 002256,-0.00004054,0.00001131,0.00003456,0.00001511,0.00000678,-0.0000
 0290,-0.00000256,-0.00000503,0.00000308,0.00000217,-0.00000520,0.00000
 319,0.00000383,-0.00000181,-0.00000230,-0.00000008,0.00000445,-0.00000
 251,-0.00003726,-0.03393460,-0.01563972,0.00405106,-0.00242881,-0.0002
 3939,-0.00705759,0.00052472,0.00020992,0.00187992,0.00010619,0.0003217
 4,-0.00001179,0.00037136,0.00000608,-0.00018177,-0.00208189,-0.0009391
 8,-0.00012214,-0.04937752,-0.02328485,0.05298521,0.04725065,0.02207902
 ,-0.05186236,-0.00009704,0.00031124,0.00029573,-0.00004911,0.00003140,
 -0.00009367,0.00034671,-0.00034854,-0.00012513,0.00022982,-0.00010974,
 -0.00019905,0.00026093,-0.00087583,0.00099174,0.00005205,0.00002738,0.
 00008551,-0.00012183,-0.00012302,0.00023126,0.00008970,-0.00001240,0.0
 0001429,0.00007733,0.00001092,-0.00006725,-0.00011186,-0.00006414,-0.0
 0004064,0.00001696,0.00009628,-0.00017275,-0.00029472,0.00033524,0.000
 03825,-0.00010900,-0.00014002,0.00000168,0.00025920,-0.00021533,-0.000
 04866,-0.00019120,0.00016423,0.00012100,0.00000214,0.00001271,-0.00001
 983,-0.00002152,0.00002023,-0.00002720,0.00001278,-0.00000190,0.000005
 53,0.00000996,-0.00000500,-0.00000308,0.00001832,0.00001244,0.00001757
 ,0.00002005,0.00009195,-0.00005343,-0.00000870,0.00058977,0.00030471,0
 .00000153,0.00001952,0.00002800,-0.00001673,0.00000110,0.00000025,0.00
 000107,-0.00000054,-0.00001057,-0.00000630,0.00000420,0.00000005,0.000
 00233,0.00000074,-0.00000409,0.00000091,0.00000372,-0.00000320,0.00000
 353,-0.00001007,-0.00000505,0.00000246,-0.00000076,-0.00001925,-0.0000
 0452,-0.00001205,0.00000019,0.00000391,0.00000488,0.00000724,0.0000014
 3,-0.00000044,0.00000250,0.00000200,0.00000003,0.00000005,0.00000240,-
 0.00000044,-0.00000010,-0.00000009,-0.00000205,-0.00000226,-0.00273495
 ,0.01274629,-0.00803683,0.00056791,0.00196784,-0.00038650,-0.00045052,
 -0.00075156,-0.00313424,-0.00010250,0.00016619,-0.00005032,0.00009582,
 -0.00056230,0.00002384,0.00016941,-0.00007238,0.00028667,-0.05406175,0
 .00727402,-0.00012953,0.00671212,-0.03326663,0.01437420,0.05103494,-0.
 00075680,0.00057918,0.00043451,-0.00029010,-0.00000824,0.00006191,0.00
 103303,-0.00067727,-0.00020974,0.00035936,0.00007017,-0.00009569,0.000
 17900,0.00124788,-0.00021732,0.00002266,-0.00004894,0.00011004,-0.0001
 1168,-0.00009207,0.00041401,0.00016235,0.00006259,0.00003227,0.0002036
 8,-0.00000247,-0.00011236,-0.00027385,0.00000170,-0.00018699,0.0002109
 6,-0.00043139,0.00001347,0.00081641,-0.00132920,-0.00054130,-0.0001061
 9,-0.00023814,0.00006380,-0.00044808,0.00024806,0.00074265,-0.00005195
 ,0.00007142,0.00005707,-0.00002131,0.00002823,-0.00004620,0.00003371,0
 .00001867,-0.00006374,0.00003097,-0.00000964,0.00000795,0.00002106,0.0
 0000821,-0.00001673,-0.00001697,-0.00000664,0.00001329,0.00000529,0.00
 029722,-0.00013191,0.00077970,-0.00033606,0.00015156,-0.00003293,0.000
 07795,-0.00000024,0.00001528,0.00000446,-0.00003051,-0.00001705,-0.000
 00717,-0.00000213,-0.00001798,0.00001666,0.00000597,-0.00000802,0.0000
 1251,0.00000155,0.00000802,0.00000029,-0.00000839,-0.00001414,-0.00001
 897,0.00001064,0.00001353,-0.00000145,-0.00006374,0.00001486,-0.000023
 37,-0.00000098,0.00001376,0.00000183,0.00000759,-0.00000271,0.00000228
 ,0.00000651,-0.00000161,0.00000202,0.00000352,0.00000190,-0.00000220,0
 .00000055,0.00000615,-0.00000313,-0.00002244,0.00029691,-0.00210346,0.
 00204719,-0.00060997,0.00188121,-0.00160692,0.00015427,0.00244008,0.00
 050503,-0.00006177,-0.00034020,0.00014740,0.00126959,0.00034450,0.0004
 8794,0.00000455,0.00034838,-0.00005421,0.00078849,-0.25192839,0.070476
 03,0.00670387,-0.01406098,0.00558124,-0.00883533,0.28259744,0.00089965
 ,-0.00042304,-0.00017382,0.00015438,-0.00003905,0.00006018,-0.00089906
 ,0.00080808,0.00003686,0.00004585,-0.00012148,0.00010670,0.00032031,0.
 00054689,0.00204543,-0.00001088,0.00001606,-0.00006917,0.00000173,0.00
 011614,-0.00030827,-0.00007139,-0.00003601,0.00003619,-0.00008473,0.00
 002812,-0.00000497,0.00001168,-0.00001884,-0.00004106,-0.00018255,0.00
 003962,0.00015320,0.00027834,0.00008921,0.00044566,0.00019388,0.000148
 58,-0.00012962,0.00020438,-0.00075299,-0.00031686,-0.00029840,-0.00008
 335,0.00038748,-0.00000605,-0.00001846,0.00001790,-0.00000478,-0.00002
 814,0.00001026,-0.00003053,0.00000683,-0.00001247,-0.00000459,0.000003
 55,-0.00000097,-0.00002052,0.00001322,-0.00000633,0.00003765,0.0000506
 3,0.00000206,0.00005500,-0.00053170,-0.00024375,0.00000157,-0.00001248
 ,-0.00000297,0.00000705,-0.00000532,0.00000711,0.00000113,0.00000361,0
 .00000836,0.00000859,-0.00000770,-0.00000284,-0.00000079,-0.00000366,0
 .00000285,-0.00000339,-0.00000494,0.00000529,-0.00000150,0.00001596,0.
 00000357,-0.00000655,0.00000844,0.00002587,-0.00000404,0.00000399,-0.0
 0000236,-0.00000459,-0.00000413,-0.00000602,-0.00000011,-0.00000004,-0
 .00000276,-0.00000090,-0.00000071,-0.00000063,-0.00000283,0.00000110,0
 .00000050,-0.00000225,0.00000244,0.00000845,-0.00635379,0.03616269,-0.
 02055666,0.00163886,0.00017584,0.00139563,-0.00401454,-0.00184179,-0.0
 0703765,0.00014619,-0.00003539,-0.00004388,-0.00088995,-0.00082891,0.0
 0047369,0.00053700,-0.00015930,0.00014739,0.00301255,0.07482867,-0.069
 00457,-0.00133417,-0.00089029,-0.00185716,0.00590291,-0.08688548,0.086
 69497,-0.10773075,0.03761822,0.01799585,0.00256717,0.00264790,-0.00007
 128,-0.36959453,-0.05689304,0.06896521,-0.02579867,-0.01421970,0.01442
 791,0.00182997,-0.00385444,0.00094630,0.00139677,-0.00069596,-0.001016
 49,0.00013957,-0.00011261,0.00004320,-0.00024203,0.00008229,-0.0000629
 4,0.00030266,0.00003496,0.00019187,-0.00005067,0.00001650,-0.00001023,
 0.00022257,-0.00013544,-0.00011891,-0.00024022,0.00009491,-0.00003089,
 -0.00089366,-0.00099749,0.00033322,-0.00227174,-0.00143039,0.00051769,
 0.00024786,0.00110330,0.00028427,0.00010716,-0.00084711,0.00028281,0.0
 0002050,0.00083928,-0.00005456,0.00005508,-0.00021978,-0.00003325,0.00
 002051,-0.00006202,0.00004983,0.00001959,-0.00001644,0.00001353,-0.000
 01042,0.00007493,-0.00007969,0.00005699,0.00025600,-0.00011566,-0.0005
 6037,-0.00039798,-0.00033933,-0.00080081,0.00005827,0.00073614,0.00051
 451,-0.00030047,-0.00044936,-0.00028827,0.00025100,0.00035745,0.000159
 62,0.00013899,-0.00017103,0.00047492,0.00038636,-0.00010884,0.00077989
 ,-0.00140615,0.00009363,-0.00095301,-0.00010220,0.00017747,0.00004635,
 0.00066590,0.00008861,-0.00003475,0.00014679,-0.00002016,0.00001637,0.
 00000617,-0.00001751,-0.00008403,0.00006560,-0.00002178,0.00008945,-0.
 00009661,-0.00018464,-0.00083055,-0.00011605,-0.00197043,-0.00022267,0
 .00022752,-0.00056075,-0.00001665,-0.00071786,0.00074292,0.00231070,-0
 .00006902,-0.00091362,-0.00008356,0.00015776,0.00007422,-0.00032136,-0
 .00024857,0.00004200,0.00013211,0.00007769,-0.00014959,-0.00006361,0.0
 0005002,-0.00034284,-0.00031418,0.00036054,-0.00065771,-0.00013823,-0.
 00060668,0.00040848,0.50014715,0.05917912,0.02631578,-0.01070927,-0.00
 543907,-0.00718514,0.00107689,-0.05442886,-0.13002258,0.01876826,-0.03
 086223,-0.01247815,0.01396072,0.00023276,-0.00670751,0.00198271,-0.002
 12376,0.00041006,-0.00057412,-0.00026785,-0.00002046,-0.00088726,-0.00
 009471,0.00004614,-0.00005389,-0.00002617,-0.00004056,0.00026919,0.000
 34171,-0.00007333,0.00026442,-0.00016412,0.00000802,-0.00025460,0.0000
 2918,0.00002072,0.00036405,-0.00099990,-0.00102084,0.00024727,-0.00267
 333,-0.00058451,-0.00010676,-0.00011089,-0.00012136,-0.00027526,0.0001
 2331,-0.00002612,-0.00003155,-0.00033774,-0.00127625,0.00051902,-0.000
 06704,0.00005253,-0.00006511,0.00003944,-0.00003116,0.00005923,0.00001
 938,-0.00001334,0.00003263,-0.00003594,-0.00000481,0.00004215,0.000060
 60,0.00009871,-0.00021412,-0.00010821,0.00004817,0.00147534,-0.0006363
 7,0.00031103,0.00078973,0.00024882,0.00010673,-0.00025366,-0.00000674,
 0.00006011,0.00001648,0.00019881,-0.00014162,-0.00013137,-0.00014317,0
 .00021036,0.00001683,0.00046744,-0.00044385,-0.00024496,0.00013760,-0.
 00054126,0.00011424,-0.00012724,-0.00034425,-0.00040320,-0.00004270,0.
 00009596,0.00008171,0.00003991,-0.00001821,-0.00001673,0.00003062,-0.0
 0001177,-0.00002902,0.00011652,-0.00005692,-0.00007720,-0.00020193,-0.
 00034992,-0.00056830,0.00102154,-0.00081216,-0.00088634,-0.00045220,0.
 00075702,0.00029302,-0.00098466,0.00027548,0.00059885,-0.00030283,-0.0
 0003464,0.00013394,0.00027646,0.00007937,-0.00011838,0.00013700,-0.000
 07719,-0.00001049,-0.00022218,0.00036344,0.00020805,0.00009118,-0.0004
 0711,0.00000289,0.00008557,0.00012316,-0.00019504,0.03812126,0.1334391
 0,0.01430218,-0.00578303,0.03159132,0.00001097,0.00086258,0.00172252,0
 .06447937,0.01879672,-0.11753834,0.02109147,0.00952526,0.01129891,-0.0
 0047510,0.00567038,-0.00029414,-0.00133407,0.00015358,0.00092544,-0.00
 011787,-0.00025194,-0.00022530,0.00017550,0.00006166,0.00001025,-0.000
 04149,0.00005075,0.00011482,0.00014194,0.00000505,0.00006011,-0.000171
 02,0.00007126,-0.00000055,0.00004888,-0.00003291,0.00022735,-0.0015375
 0,-0.00539017,0.00207840,0.00182861,0.00059943,-0.00003242,0.00010287,
 -0.00025865,0.00000488,-0.00010277,0.00050182,-0.00024960,0.00009415,-
 0.00038270,0.00010480,-0.00001653,-0.00004750,-0.00003339,-0.00000616,
 -0.00003009,-0.00000138,-0.00000773,-0.00002283,-0.00000924,0.00000104
 ,-0.00004436,0.00002312,-0.00002357,-0.00013017,0.00002105,0.00020861,
 0.00171335,-0.00069199,0.00022870,0.00000057,-0.00012353,-0.00033255,0
 .00022792,0.00034347,0.00039031,-0.00034023,-0.00038070,0.00007172,-0.
 00026059,0.00009845,-0.00037588,-0.00052290,0.00013650,-0.00019799,0.0
 0176710,-0.00019517,0.00112773,-0.00017045,0.00007554,0.00045308,-0.00
 076139,0.00056823,0.00000190,-0.00013101,-0.00000284,-0.00000758,-0.00
 001974,-0.00002790,0.00008837,-0.00011382,-0.00003812,-0.00010578,0.00
 010402,0.00006753,-0.00013586,0.00005965,0.00141211,-0.00057211,0.0001
 3072,0.00030243,0.00014966,-0.00016209,-0.00016009,-0.00008698,-0.0000
 6369,0.00016245,0.00011283,-0.00003223,-0.00007168,-0.00004948,0.00001
 633,0.00001742,-0.00004689,0.00001412,0.00005257,0.00003053,-0.0001539
 1,0.00000476,-0.00006355,0.00006051,0.00013428,0.00005418,0.00015155,-
 0.00004525,-0.09944800,-0.02543651,0.06865675,0.00003274,-0.00027562,0
 .00009343,0.00009451,-0.00001100,0.00022038,0.00017814,0.00044055,-0.0
 0020919,-0.00055467,0.00006697,-0.00010415,-0.00124166,-0.00015598,-0.
 00333196,-0.00002968,-0.00005480,0.00001916,0.00006155,0.00000498,-0.0
 0004047,0.00000729,0.00000160,-0.00001277,-0.00002821,0.00000052,0.000
 00271,0.00001402,-0.00000615,-0.00001055,-0.00001847,0.00002439,0.0000
 7447,-0.00000917,0.00004172,0.00001788,0.00051789,-0.00016226,0.000277
 34,-0.00006827,0.00005714,0.00007004,0.00057193,-0.00045040,-0.0005526
 1,-0.00000287,0.00002118,-0.00000091,0.00001445,0.00001277,-0.00000368
 ,-0.00000211,-0.00000325,0.00000077,-0.00000435,0.00000303,-0.00000127
 ,-0.00000981,0.00000799,-0.00000680,0.00001275,-0.00001159,0.00001205,
 -0.00004073,-0.00009384,-0.00004346,-0.00006311,0.00005431,-0.00001602
 ,0.00005515,0.00000745,0.00000834,-0.00001114,-0.00000227,0.00000993,-
 0.00000318,0.00000237,-0.00000009,-0.00000785,0.00000523,0.00000627,0.
 00000201,-0.00000411,-0.00000225,-0.00001089,-0.00000031,0.00000894,-0
 .00001948,-0.00001548,-0.00001284,0.00001268,0.00003548,0.00001741,0.0
 0000235,-0.00000473,-0.00000319,-0.00000236,0.00000175,0.00000006,-0.0
 0000320,0.00000144,0.00000248,-0.00000248,-0.00000047,0.00000084,0.000
 00357,0.00000148,-0.00001019,0.00970730,-0.01089058,-0.01150891,0.0013
 2133,-0.00059025,-0.00029940,0.00072944,0.00000810,0.00108963,-0.00007
 076,0.00025453,0.00003283,-0.00006037,-0.00006765,-0.00000667,0.000272
 91,0.00013382,0.00020454,-0.26023340,0.17636443,0.24313850,-0.01331138
 ,0.02492887,0.02283688,-0.00147716,-0.00086427,0.00036573,-0.00011275,
 -0.00013838,0.00006183,0.26378750,0.00004743,-0.00006499,-0.00000010,0
 .00003799,-0.00004535,0.00005882,-0.00001053,0.00000458,-0.00011054,-0
 .00020515,0.00016750,0.00004424,-0.00070317,0.00138690,-0.00056893,0.0
 0000890,-0.00001041,0.00001638,-0.00003851,-0.00006755,0.00018667,0.00
 004220,0.00002624,0.00000560,0.00008375,-0.00001417,-0.00000929,-0.000
 04984,0.00000777,0.00001371,0.00009984,-0.00004065,-0.00011474,-0.0000
 8217,-0.00022854,-0.00022451,-0.00001628,-0.00021628,0.00006134,-0.000
 10929,0.00016921,0.00059085,0.00036520,-0.00001561,-0.00018558,0.00000
 012,0.00000240,-0.00001313,0.00000146,0.00001132,-0.00000422,0.0000189
 1,-0.00000208,0.00000584,0.00000415,-0.00000231,-0.00000051,0.00002286
 ,-0.00000710,0.00001201,-0.00002172,0.00002387,-0.00003668,0.00013371,
 0.00022501,0.00020301,-0.00001991,0.00003912,0.00004109,-0.00000939,0.
 00000007,0.00002021,0.00000175,0.00000018,-0.00000827,-0.00000234,-0.0
 0000031,-0.00000231,0.00000321,-0.00000150,-0.00000322,-0.00000105,0.0
 0000223,-0.00000215,0.00000405,-0.00000061,-0.00000517,-0.00000468,-0.
 00000054,-0.00000496,0.00000014,-0.00000399,-0.00000188,0.00000109,0.0
 0000421,0.00000582,0.00000155,-0.00000098,0.00000113,0.00000256,-0.000
 00051,-0.00000080,0.00000144,0.00000045,0.00000033,-0.00000078,-0.0000
 0057,0.00000470,-0.00094690,-0.00120149,0.00175060,0.00047283,0.000076
 83,0.00048029,-0.00063079,0.00067379,0.00001398,-0.00044413,0.00020125
 ,-0.00033925,0.00009403,-0.00034298,-0.00026477,-0.00003944,0.00003597
 ,0.00025802,0.18049682,-0.13074049,-0.18377557,-0.01142763,0.01073614,
 0.01300014,0.02143256,-0.01881669,-0.02014143,0.00006384,0.00002311,-0
 .00000142,-0.18867871,0.13800754,-0.00001898,0.00037966,0.00004893,0.0
 0033519,-0.00001159,-0.00002765,-0.00009958,-0.00051359,0.00020619,-0.
 00138091,0.00020851,0.00022408,-0.00388879,0.00122668,-0.00480606,-0.0
 0003714,0.00003454,-0.00008934,0.00002119,0.00003045,-0.00016935,-0.00
 003479,-0.00001122,0.00000776,-0.00004558,0.00000086,0.00002465,0.0000
 5889,-0.00001081,0.00003627,-0.00003608,0.00002228,0.00001709,-0.00003
 979,0.00010866,0.00014277,0.00000754,0.00008778,0.00021235,-0.00000110
 ,-0.00020726,-0.00017548,0.00105798,-0.00136523,-0.00118512,0.00002064
 ,-0.00001592,0.00002457,-0.00001830,0.00001627,0.00003232,-0.00001332,
 0.00000506,-0.00000829,0.00000110,-0.00000064,0.00000623,-0.00000456,0
 .00000279,-0.00000218,0.00000568,-0.00000781,0.00002429,-0.00005686,-0
 .00001324,-0.00012535,0.00000015,-0.00006187,0.00002419,-0.00001877,0.
 00000929,0.00007929,0.00002461,0.00000297,-0.00002160,0.00000549,-0.00
 000925,-0.00000493,0.00001424,-0.00001081,-0.00000951,-0.00000572,0.00
 001296,-0.00000153,0.00002824,-0.00000755,-0.00002827,-0.00003667,-0.0
 0004000,0.00004711,-0.00000952,0.00006207,0.00001568,-0.00000879,0.000
 00780,0.00000440,0.00000492,-0.00000294,-0.00000289,0.00000504,-0.0000
 0205,-0.00000350,0.00000512,-0.00000009,-0.00000288,-0.00000661,-0.000
 00385,0.00001293,0.02235879,-0.01773150,-0.01782810,0.00117546,0.00018
 802,0.00183253,0.00073073,0.00037420,0.00171095,-0.00097318,-0.0002320
 8,0.00015745,-0.00007805,0.00001172,-0.00007960,0.00012895,0.00053520,
 0.00018627,0.24912140,-0.18295508,-0.24489688,-0.00592534,0.00185469,0
 .00060813,-0.01015472,0.00876178,0.00779441,0.00017686,0.00022550,-0.0
 0009382,-0.25239508,0.18904466,0.25608150\\-0.04718023,0.01486809,0.00
 645006,-0.02315932,-0.01053480,0.00472489,0.09038403,0.01885889,-0.026
 49721,-0.03238489,-0.00556671,-0.16175843,0.08113304,0.09284844,0.1534
 8349,0.00085905,0.18637168,0.13022133,-0.00202545,-0.00140221,-0.00684
 095,-0.14686154,0.01619636,0.12435472,-0.11960332,0.02826957,-0.048941
 83,-0.02266392,0.03028365,-0.17151595,0.08001855,0.00026537,-0.0700897
 9,0.22208138,-0.03777928,0.07774847,0.05410091,-0.00998291,0.15889449,
 -0.01690914,-0.13516834,0.02472227,-0.06629122,0.04285130,-0.17875736,
 0.15369903,-0.08737688,-0.10089466,-0.15593549,-0.08684623,-0.03850801
 ,0.16064214,-0.01554812,-0.13773193,0.13415031,-0.02980999,0.04796454,
 0.03040730,-0.03348339,0.19256297,-0.09508255,0.00135482,0.07626965,-0
 .24207354,0.04434417,-0.08894515,0.18189246,-0.06622912,0.07825819,-0.
 00580503,0.00486001,0.00853898,0.10488917,0.15510994,-0.07228878,-0.07
 115311,0.21464026,0.04101992,-0.05229766,0.00690033,0.04020376,-0.1157
 4315,-0.14943067,0.08663680,0.06350952,-0.19372410,-0.03221068,-0.0734
 9746,0.16958642,-0.04753987,-0.10737568,-0.10698780,-0.01237569,-0.115
 95376,-0.15955689,0.08308084,0.07085812,-0.24853778,-0.04266211,0.0712
 0665,-0.01731265,-0.05219736,0.12012409,0.17335880,-0.09072203,-0.0651
 4078,0.21770540,0.03805771,0.00756257,-0.05468196,0.00450054,0.1028129
 2,0.11226758,-0.16809198,-0.00681830,0.07268392,-0.03952978,-0.1106641
 8,0.10690411,0.09606505,0.01600179,-0.21733688,0.10205847,-0.01802791,
 -0.00425028,-0.02657162,-0.13415213,-0.16084459,-0.04780526,0.20160073
 ,0.08315720,0.00651642,0.00643810,0.00136713,0.00686039,-0.04247821,-0
 .01916156,0.01219547,-0.06509388,0.05649969,0.06108700\\\@
 The archive entry for this job was punched.

 Writing a WFNX file to "WEGDIV_Complex_0_Ligand_0_ON_Cu_oriented.wfx"


      SCIENCE SANS CONSCIENCE N'EST QUE RUINE DE L'AME.

                                                  -- RABELAIS
 Job cpu time:       0 days  2 hours 29 minutes 49.1 seconds.
 Elapsed time:       0 days  2 hours 30 minutes 28.0 seconds.
 File lengths (MBytes):  RWF=   1200 Int=      0 D2E=      0 Chk=     20 Scr=      8
 Normal termination of Gaussian 16 at Mon Mar  6 12:52:11 2023.
