 Entering Gaussian System, Link 0=g16
 Initial command:
 /ssoft/spack/external/gaussian/g16-C.01/avx2/g16/l1.exe "/scratch/lcmd/2387852/Gau-1722275.inp" -scrdir="/scratch/lcmd/2387852/"
 Entering Link 1 = /ssoft/spack/external/gaussian/g16-C.01/avx2/g16/l1.exe PID=   1722279.
  
 Copyright (c) 1988-2019, Gaussian, Inc.  All Rights Reserved.
  
 This is part of the Gaussian(R) 16 program.  It is based on
 the Gaussian(R) 09 system (copyright 2009, Gaussian, Inc.),
 the Gaussian(R) 03 system (copyright 2003, Gaussian, Inc.),
 the Gaussian(R) 98 system (copyright 1998, Gaussian, Inc.),
 the Gaussian(R) 94 system (copyright 1995, Gaussian, Inc.),
 the Gaussian 92(TM) system (copyright 1992, Gaussian, Inc.),
 the Gaussian 90(TM) system (copyright 1990, Gaussian, Inc.),
 the Gaussian 88(TM) system (copyright 1988, Gaussian, Inc.),
 the Gaussian 86(TM) system (copyright 1986, Carnegie Mellon
 University), and the Gaussian 82(TM) system (copyright 1983,
 Carnegie Mellon University). Gaussian is a federally registered
 trademark of Gaussian, Inc.
  
 This software contains proprietary and confidential information,
 including trade secrets, belonging to Gaussian, Inc.
  
 This software is provided under written license and may be
 used, copied, transmitted, or stored only in accord with that
 written license.
  
 The following legend is applicable only to US Government
 contracts under FAR:
  
                    RESTRICTED RIGHTS LEGEND
  
 Use, reproduction and disclosure by the US Government is
 subject to restrictions as set forth in subparagraphs (a)
 and (c) of the Commercial Computer Software - Restricted
 Rights clause in FAR 52.227-19.
  
 Gaussian, Inc.
 340 Quinnipiac St., Bldg. 40, Wallingford CT 06492
  
  
 ---------------------------------------------------------------
 Warning -- This program may not be used in any manner that
 competes with the business of Gaussian, Inc. or will provide
 assistance to any competitor of Gaussian, Inc.  The licensee
 of this program is prohibited from giving any competitor of
 Gaussian, Inc. access to this program.  By using this program,
 the user acknowledges that Gaussian, Inc. is engaged in the
 business of creating and licensing software in the field of
 computational chemistry and represents and warrants to the
 licensee that it is not a competitor of Gaussian, Inc. and that
 it will not use this program in any manner prohibited above.
 ---------------------------------------------------------------
  

 Cite this work as:
 Gaussian 16, Revision C.01,
 M. J. Frisch, G. W. Trucks, H. B. Schlegel, G. E. Scuseria, 
 M. A. Robb, J. R. Cheeseman, G. Scalmani, V. Barone, 
 G. A. Petersson, H. Nakatsuji, X. Li, M. Caricato, A. V. Marenich, 
 J. Bloino, B. G. Janesko, R. Gomperts, B. Mennucci, H. P. Hratchian, 
 J. V. Ortiz, A. F. Izmaylov, J. L. Sonnenberg, D. Williams-Young, 
 F. Ding, F. Lipparini, F. Egidi, J. Goings, B. Peng, A. Petrone, 
 T. Henderson, D. Ranasinghe, V. G. Zakrzewski, J. Gao, N. Rega, 
 G. Zheng, W. Liang, M. Hada, M. Ehara, K. Toyota, R. Fukuda, 
 J. Hasegawa, M. Ishida, T. Nakajima, Y. Honda, O. Kitao, H. Nakai, 
 T. Vreven, K. Throssell, J. A. Montgomery, Jr., J. E. Peralta, 
 F. Ogliaro, M. J. Bearpark, J. J. Heyd, E. N. Brothers, K. N. Kudin, 
 V. N. Staroverov, T. A. Keith, R. Kobayashi, J. Normand, 
 K. Raghavachari, A. P. Rendell, J. C. Burant, S. S. Iyengar, 
 J. Tomasi, M. Cossi, J. M. Millam, M. Klene, C. Adamo, R. Cammi, 
 J. W. Ochterski, R. L. Martin, K. Morokuma, O. Farkas, 
 J. B. Foresman, and D. J. Fox, Gaussian, Inc., Wallingford CT, 2019.
 
 ******************************************
 Gaussian 16:  ES64L-G16RevC.01  3-Jul-2019
                 6-Mar-2023 
 ******************************************
 %nprocshared=1
 Will use up to    1 processors via shared memory.
 %mem=8000MB
 %chk=WIMMIO_Complex_3_Ligand_2_OO_Cu_oriented.chk
 ----------------------------------------------------------------------
 #p pop=(regular,nbo,savenbos) freq=noraman def2svp empiricaldispersion
 =gd3bj output=wfx pbe1pbe
 ----------------------------------------------------------------------
 1/10=4,30=1,38=1/1,3;
 2/12=2,17=6,18=5,40=1/2;
 3/5=43,7=101,11=2,25=1,30=1,71=2,74=-13,124=41,140=1/1,2,3;
 4//1;
 5/5=2,38=5,98=1/2;
 8/6=4,10=90,11=11/1;
 11/6=1,8=1,9=11,15=111,16=1/1,2,10;
 10/6=1/2;
 6/28=1,40=1,73=1/1,7;
 7/8=1,10=1,25=1/1,2,3,16;
 1/10=4,30=1/3;
 99/6=200/99;
 Leave Link    1 at Mon Mar  6 10:21:43 2023, MaxMem=  1048576000 cpu:               0.0 elap:               0.1
 (Enter /ssoft/spack/external/gaussian/g16-C.01/avx2/g16/l101.exe)
 ----------------------------------------
 WIMMIO_Complex_3_Ligand_2_OO_Cu_oriented
 ----------------------------------------
 Symbolic Z-matrix:
 Charge = -2 Multiplicity = 1
 O                    -1.48554  -1.29467   0. 
 O                    -4.28103  -2.29784  -0.91205 
 O                    -4.92027   0.91233   0.60393 
 C                    -2.53476   0.78955   0.41401 
 C                    -2.64876  -0.55169  -0.31138 
 C                    -3.9667   -1.25449   0.00068 
 C                    -5.09378  -0.25906  -0.18086 
 H                    -3.85601  -2.89243  -0.77609 
 H                    -2.42738   0.5945    1.36194 
 H                    -2.59074  -0.34417  -1.28638 
 H                    -3.92387  -1.63611   0.82336 
 H                    -5.10535  -0.08328  -1.13076 
 H                    -5.99587  -0.75171   0.06228 
 O                    -3.69216   2.79589   0.95306 
 C                    -3.77031   1.63888   0.18075 
 C                    -4.76792   3.69342   0.67277 
 H                    -3.873     1.85953  -0.764 
 H                    -5.57174   3.24197   1.02937 
 H                    -4.52695   4.43555   1.01687 
 H                    -4.84308   3.81358  -0.40985 
 O                    -1.34562   1.39284   0. 
 
 ITRead=  0  0  0  0  0  0  0  0  0  0  0  0  0  0  0  0  0  0  0  0
 ITRead=  0
 MicOpt= -1 -1 -1 -1 -1 -1 -1 -1 -1 -1 -1 -1 -1 -1 -1 -1 -1 -1 -1 -1
 MicOpt= -1
 NAtoms=     21 NQM=       21 NQMF=       0 NMMI=      0 NMMIF=      0
                NMic=       0 NMicF=      0.
                    Isotopes and Nuclear Properties:
 (Nuclear quadrupole moments (NQMom) in fm**2, nuclear magnetic moments (NMagM)
  in nuclear magnetons)

  Atom         1           2           3           4           5           6           7           8           9          10
 IAtWgt=          16          16          16          12          12          12          12           1           1           1
 AtmWgt=  15.9949146  15.9949146  15.9949146  12.0000000  12.0000000  12.0000000  12.0000000   1.0078250   1.0078250   1.0078250
 NucSpn=           0           0           0           0           0           0           0           1           1           1
 AtZEff=  -0.0000000  -0.0000000  -0.0000000  -0.0000000  -0.0000000  -0.0000000  -0.0000000  -0.0000000  -0.0000000  -0.0000000
 NQMom=    0.0000000   0.0000000   0.0000000   0.0000000   0.0000000   0.0000000   0.0000000   0.0000000   0.0000000   0.0000000
 NMagM=    0.0000000   0.0000000   0.0000000   0.0000000   0.0000000   0.0000000   0.0000000   2.7928460   2.7928460   2.7928460
 AtZNuc=   8.0000000   8.0000000   8.0000000   6.0000000   6.0000000   6.0000000   6.0000000   1.0000000   1.0000000   1.0000000

  Atom        11          12          13          14          15          16          17          18          19          20
 IAtWgt=           1           1           1          16          12          12           1           1           1           1
 AtmWgt=   1.0078250   1.0078250   1.0078250  15.9949146  12.0000000  12.0000000   1.0078250   1.0078250   1.0078250   1.0078250
 NucSpn=           1           1           1           0           0           0           1           1           1           1
 AtZEff=  -0.0000000  -0.0000000  -0.0000000  -0.0000000  -0.0000000  -0.0000000  -0.0000000  -0.0000000  -0.0000000  -0.0000000
 NQMom=    0.0000000   0.0000000   0.0000000   0.0000000   0.0000000   0.0000000   0.0000000   0.0000000   0.0000000   0.0000000
 NMagM=    2.7928460   2.7928460   2.7928460   0.0000000   0.0000000   0.0000000   2.7928460   2.7928460   2.7928460   2.7928460
 AtZNuc=   1.0000000   1.0000000   1.0000000   8.0000000   6.0000000   6.0000000   1.0000000   1.0000000   1.0000000   1.0000000

  Atom        21
 IAtWgt=          16
 AtmWgt=  15.9949146
 NucSpn=           0
 AtZEff=  -0.0000000
 NQMom=    0.0000000
 NMagM=    0.0000000
 AtZNuc=   8.0000000
 Leave Link  101 at Mon Mar  6 10:21:43 2023, MaxMem=  1048576000 cpu:               0.1 elap:               0.1
 (Enter /ssoft/spack/external/gaussian/g16-C.01/avx2/g16/l103.exe)

 GradGradGradGradGradGradGradGradGradGradGradGradGradGradGradGradGradGrad
 Berny optimization.
 Initialization pass.
 Trust Radius=3.00D-01 FncErr=1.00D-07 GrdErr=1.00D-07 EigMax=2.50D+02 EigMin=1.00D-04
 Number of steps in this run=      2 maximum allowed number of steps=      2.
 GradGradGradGradGradGradGradGradGradGradGradGradGradGradGradGradGradGrad

 Leave Link  103 at Mon Mar  6 10:21:43 2023, MaxMem=  1048576000 cpu:               0.0 elap:               0.1
 (Enter /ssoft/spack/external/gaussian/g16-C.01/avx2/g16/l202.exe)
                          Input orientation:                          
 ---------------------------------------------------------------------
 Center     Atomic      Atomic             Coordinates (Angstroms)
 Number     Number       Type             X           Y           Z
 ---------------------------------------------------------------------
      1          8           0       -1.485536   -1.294665    0.000000
      2          8           0       -4.281031   -2.297841   -0.912049
      3          8           0       -4.920267    0.912331    0.603931
      4          6           0       -2.534757    0.789550    0.414006
      5          6           0       -2.648760   -0.551690   -0.311381
      6          6           0       -3.966705   -1.254491    0.000683
      7          6           0       -5.093778   -0.259057   -0.180861
      8          1           0       -3.856008   -2.892430   -0.776093
      9          1           0       -2.427378    0.594502    1.361938
     10          1           0       -2.590739   -0.344166   -1.286380
     11          1           0       -3.923874   -1.636111    0.823359
     12          1           0       -5.105348   -0.083278   -1.130765
     13          1           0       -5.995873   -0.751713    0.062277
     14          8           0       -3.692157    2.795895    0.953057
     15          6           0       -3.770306    1.638881    0.180746
     16          6           0       -4.767922    3.693422    0.672766
     17          1           0       -3.872996    1.859529   -0.764002
     18          1           0       -5.571743    3.241968    1.029372
     19          1           0       -4.526946    4.435549    1.016874
     20          1           0       -4.843078    3.813585   -0.409850
     21          8           0       -1.345615    1.392841    0.000000
 ---------------------------------------------------------------------
                    Distance matrix (angstroms):
                    1          2          3          4          5
     1  O    0.000000
     2  O    3.106926   0.000000
     3  O    4.127098   3.607217   0.000000
     4  C    2.369857   3.786803   2.396206   0.000000
     5  C    1.414942   2.464580   2.853226   1.529087   0.000000
     6  C    2.481494   1.421429   2.443011   2.529706   1.525874
     7  C    3.758272   2.313403   1.420617   2.828785   2.465924
     8  H    2.962146   0.743414   4.184891   4.088889   2.674410
     9  H    2.512149   4.119793   2.624898   0.973729   2.040285
    10  H    1.944145   2.610375   3.252500   2.044446   0.998527
    11  H    2.596150   1.891319   2.745087   2.825074   2.022256
    12  H    3.981097   2.373105   2.008646   3.123473   2.631659
    13  H    4.543326   2.506093   2.054108   3.805066   3.373840
    14  O    4.744489   5.456330   2.275513   2.378144   3.727439
    15  C    3.722706   4.117380   1.424560   1.517351   2.509712
    16  C    6.008967   6.216424   2.786111   3.672390   4.845654
    17  H    4.028971   4.179968   1.966011   2.079288   2.741823
    18  H    6.191747   6.010369   2.456141   3.951748   4.973257
    19  H    6.566549   7.008549   3.569074   4.198282   5.492212
    20  H    6.126604   6.157729   3.074246   3.892540   4.886752
    21  O    2.691146   4.803086   3.657015   1.396216   2.361428
                    6          7          8          9         10
     6  C    0.000000
     7  C    1.514642   0.000000
     8  H    1.816172   2.970022   0.000000
     9  H    2.764293   3.196636   4.332535   0.000000
    10  H    2.092488   2.737630   2.890493   2.814494   0.000000
    11  H    0.907890   2.067223   2.034991   2.739563   2.810226
    12  H    1.987064   0.966100   3.094831   3.720817   2.532891
    13  H    2.091435   1.056221   3.140789   4.029339   3.685092
    14  O    4.169894   3.547258   5.947592   2.571571   4.011008
    15  C    2.905614   2.341902   4.632026   2.071087   2.734285
    16  C    5.057221   4.056716   6.804720   3.944161   4.988035
    17  H    3.207903   2.513715   4.752004   2.865262   2.602562
    18  H    4.883901   3.735008   6.620746   4.123919   5.206673
    19  H    5.807156   4.878031   7.573913   4.391002   5.647969
    20  H    5.159647   4.086771   6.788157   4.397423   4.809181
    21  O    3.725382   4.100024   5.026722   1.913747   2.494454
                   11         12         13         14         15
    11  H    0.000000
    12  H    2.761480   0.000000
    13  H    2.377937   1.631928   0.000000
    14  O    4.439954   3.824795   4.322744   0.000000
    15  C    3.340974   2.543271   3.268352   1.393289   0.000000
    16  C    5.398057   4.198814   4.651858   1.428771   2.336334
    17  H    3.839505   2.329744   3.465246   1.964122   0.975591
    18  H    5.153015   3.992615   4.130938   1.933300   2.556409
    19  H    6.104604   5.036536   5.475097   1.841035   3.015454
    20  H    5.662590   3.971655   4.732207   2.053735   2.495792
    21  O    4.062005   4.194419   5.121317   2.895365   2.443835
                   16         17         18         19         20
    16  C    0.000000
    17  H    2.495668   0.000000
    18  H    0.988487   2.830736   0.000000
    19  H    0.852779   3.199227   1.586314   0.000000
    20  H    1.091854   2.210162   1.711449   1.588182   0.000000
    21  O    4.178214   2.681259   4.726419   4.518072   4.273198
                   21
    21  O    0.000000
 Stoichiometry    C6H10O5(2-)
 Framework group  C1[X(C6H10O5)]
 Deg. of freedom    57
 Full point group                 C1      NOp   1
 Largest Abelian subgroup         C1      NOp   1
 Largest concise Abelian subgroup C1      NOp   1
                         Standard orientation:                         
 ---------------------------------------------------------------------
 Center     Atomic      Atomic             Coordinates (Angstroms)
 Number     Number       Type             X           Y           Z
 ---------------------------------------------------------------------
      1          8           0       -2.145048    1.697750   -0.276643
      2          8           0       -2.787651   -1.277734    0.345085
      3          8           0        0.740397   -1.250200   -0.406002
      4          6           0        0.136926    1.061101   -0.217562
      5          6           0       -1.286656    0.670128    0.180759
      6          6           0       -1.644861   -0.732689   -0.300993
      7          6           0       -0.522732   -1.672654    0.088151
      8          1           0       -3.405635   -0.958601    0.082568
      9          1           0        0.140722    1.184139   -1.183479
     10          1           0       -1.315290    0.710318    1.178066
     11          1           0       -1.835440   -0.713217   -1.188441
     12          1           0       -0.563233   -1.705105    1.052857
     13          1           0       -0.772467   -2.633280   -0.273001
     14          8           0        2.392256    0.311197   -0.299427
     15          6           0        1.127914   -0.014319    0.187124
     16          6           0        3.389206   -0.601250    0.164166
     17          1           0        1.148455   -0.128012    1.155850
     18          1           0        3.185817   -1.451727   -0.296735
     19          1           0        4.131087   -0.213303    0.001865
     20          1           0        3.277839   -0.713400    1.244519
     21          8           0        0.401216    2.314023    0.338997
 ---------------------------------------------------------------------
 Rotational constants (GHZ):           1.7815467           0.8605093           0.6085972
 Leave Link  202 at Mon Mar  6 10:21:43 2023, MaxMem=  1048576000 cpu:               0.0 elap:               0.0
 (Enter /ssoft/spack/external/gaussian/g16-C.01/avx2/g16/l301.exe)
 Standard basis: def2SVP (5D, 7F)
 Ernie: Thresh=  0.10000D-02 Tol=  0.10000D-05 Strict=F.
 There are   215 symmetry adapted cartesian basis functions of A   symmetry.
 There are   204 symmetry adapted basis functions of A   symmetry.
   204 basis functions,   345 primitive gaussians,   215 cartesian basis functions
    44 alpha electrons       44 beta electrons
       nuclear repulsion energy       691.7641371032 Hartrees.
 IExCor= 1009 DFT=T Ex+Corr=PBE1PBE ExCW=0 ScaHFX=  0.250000
 ScaDFX=  0.750000  0.750000  1.000000  1.000000 ScalE2=  1.000000  1.000000
 IRadAn=      5 IRanWt=     -1 IRanGd=            0 ICorTp=0 IEmpDi=141
 NAtoms=   21 NActive=   21 NUniq=   21 SFac= 1.00D+00 NAtFMM=   60 NAOKFM=F Big=F
 Integral buffers will be    131072 words long.
 Raffenetti 2 integral format.
 Two-electron integral symmetry is turned on.
 R6Disp:  Grimme-D3(BJ) Dispersion energy=       -0.0174415459 Hartrees.
 Nuclear repulsion after empirical dispersion term =      691.7466955573 Hartrees.
 Leave Link  301 at Mon Mar  6 10:21:43 2023, MaxMem=  1048576000 cpu:               0.1 elap:               0.1
 (Enter /ssoft/spack/external/gaussian/g16-C.01/avx2/g16/l302.exe)
 NPDir=0 NMtPBC=     1 NCelOv=     1 NCel=       1 NClECP=     1 NCelD=      1
         NCelK=      1 NCelE2=     1 NClLst=     1 CellRange=     0.0.
 One-electron integrals computed using PRISM.
 One-electron integral symmetry used in STVInt
   1 Symmetry operations used in ECPInt.
 ECPInt:  NShTT=    4656 NPrTT=   16826 LenC2=    4546 LenP2D=   12778.
 LDataN:  DoStor=T MaxTD1= 4 Len=   56
 NBasis=   204 RedAO= T EigKep=  8.91D-04  NBF=   204
 NBsUse=   204 1.00D-06 EigRej= -1.00D+00 NBFU=   204
 Precomputing XC quadrature grid using
 IXCGrd= 4 IRadAn=           5 IRanWt=          -1 IRanGd=           0 AccXCQ= 0.00D+00.
 Generated NRdTot=       0 NPtTot=           0 NUsed=           0 NTot=          32
 NSgBfM=   214   214   214   214   214 MxSgAt=    21 MxSgA2=    21.
 Leave Link  302 at Mon Mar  6 10:21:44 2023, MaxMem=  1048576000 cpu:               0.5 elap:               0.5
 (Enter /ssoft/spack/external/gaussian/g16-C.01/avx2/g16/l303.exe)
 DipDrv:  MaxL=1.
 Leave Link  303 at Mon Mar  6 10:21:44 2023, MaxMem=  1048576000 cpu:               0.1 elap:               0.1
 (Enter /ssoft/spack/external/gaussian/g16-C.01/avx2/g16/l401.exe)
 ExpMin= 1.22D-01 ExpMax= 2.27D+03 ExpMxC= 3.41D+02 IAcc=3 IRadAn=         5 AccDes= 0.00D+00
 Harris functional with IExCor= 1009 and IRadAn=       5 diagonalized for initial guess.
 HarFok:  IExCor= 1009 AccDes= 0.00D+00 IRadAn=         5 IDoV= 1 UseB2=F ITyADJ=14
 ICtDFT=  3500011 ScaDFX=  1.000000  1.000000  1.000000  1.000000
 FoFCou: FMM=F IPFlag=           0 FMFlag=      100000 FMFlg1=           0
         NFxFlg=           0 DoJE=T BraDBF=F KetDBF=T FulRan=T
         wScrn=  0.000000 ICntrl=       500 IOpCl=  0 I1Cent=   200000004 NGrid=           0
         NMat0=    1 NMatS0=      1 NMatT0=    0 NMatD0=    1 NMtDS0=    0 NMtDT0=    0
 Petite list used in FoFCou.
 Harris En= -609.982838795471    
 JPrj=0 DoOrth=F DoCkMO=F.
 Leave Link  401 at Mon Mar  6 10:21:48 2023, MaxMem=  1048576000 cpu:               4.4 elap:               4.4
 (Enter /ssoft/spack/external/gaussian/g16-C.01/avx2/g16/l502.exe)
 Keep R1 ints in memory in canonical form, NReq=223665168.
 FoFCou: FMM=F IPFlag=           0 FMFlag=           0 FMFlg1=           0
         NFxFlg=           0 DoJE=F BraDBF=F KetDBF=F FulRan=T
         wScrn=  0.000000 ICntrl=       600 IOpCl=  0 I1Cent=           0 NGrid=           0
         NMat0=    1 NMatS0=  20910 NMatT0=    0 NMatD0=    1 NMtDS0=    0 NMtDT0=    0
 Symmetry not used in FoFCou.
 Two-electron integral symmetry not used.
 Closed shell SCF:
 Using DIIS extrapolation, IDIIS=  1040.
 NGot=  1048576000 LenX=   829854865 LenY=   829808199
 Requested convergence on RMS density matrix=1.00D-08 within 128 cycles.
 Requested convergence on MAX density matrix=1.00D-06.
 Requested convergence on             energy=1.00D-06.
 No special actions if energy rises.
 Integral accuracy reduced to 1.0D-05 until final iterations.

 Cycle   1  Pass 0  IDiag  1:
 E= -608.671436734609    
 DIIS: error= 2.39D-02 at cycle   1 NSaved=   1.
 NSaved= 1 IEnMin= 1 EnMin= -608.671436734609     IErMin= 1 ErrMin= 2.39D-02
 ErrMax= 2.39D-02  0.00D+00 EMaxC= 1.00D-01 BMatC= 5.04D-01 BMatP= 5.04D-01
 IDIUse=3 WtCom= 7.61D-01 WtEn= 2.39D-01
 Coeff-Com:  0.100D+01
 Coeff-En:   0.100D+01
 Coeff:      0.100D+01
 Gap=     0.018 Goal=   None    Shift=    0.000
 GapD=    0.018 DampG=0.250 DampE=0.500 DampFc=0.2500 IDamp=-1.
 Damping current iteration by 2.50D-01
 RMSDP=1.64D-01 MaxDP=1.58D+01              OVMax= 9.84D-01

 Cycle   2  Pass 0  IDiag  1:
 E= -608.299513215299     Delta-E=        0.371923519310 Rises=F Damp=T
 DIIS: error= 1.39D-02 at cycle   2 NSaved=   2.
 NSaved= 2 IEnMin= 1 EnMin= -608.671436734609     IErMin= 2 ErrMin= 1.39D-02
 ErrMax= 1.39D-02  0.00D+00 EMaxC= 1.00D-01 BMatC= 1.44D-01 BMatP= 5.04D-01
 IDIUse=3 WtCom= 8.61D-01 WtEn= 1.39D-01
 Coeff-Com:  0.173D+00 0.827D+00
 Coeff-En:   0.716D+00 0.284D+00
 Coeff:      0.249D+00 0.751D+00
 Gap=     0.059 Goal=   None    Shift=    0.000
 RMSDP=4.07D-02 MaxDP=3.93D+00 DE= 3.72D-01 OVMax= 8.95D-01

 Cycle   3  Pass 0  IDiag  1:
 E= -608.804827010155     Delta-E=       -0.505313794856 Rises=F Damp=F
 DIIS: error= 2.10D-02 at cycle   3 NSaved=   3.
 NSaved= 3 IEnMin= 3 EnMin= -608.804827010155     IErMin= 2 ErrMin= 1.39D-02
 ErrMax= 2.10D-02  0.00D+00 EMaxC= 1.00D-01 BMatC= 3.38D-01 BMatP= 1.44D-01
 IDIUse=2 WtCom= 0.00D+00 WtEn= 1.00D+00
 EnCoef did     1 forward-backward iterations
 Coeff-En:   0.449D-01 0.244D+00 0.711D+00
 Coeff:      0.449D-01 0.244D+00 0.711D+00
 Gap=     0.350 Goal=   None    Shift=    0.000
 RMSDP=8.39D-02 MaxDP=9.49D+00 DE=-5.05D-01 OVMax= 7.76D-01

 Cycle   4  Pass 0  IDiag  1:
 E= -607.307542680643     Delta-E=        1.497284329512 Rises=F Damp=F
 DIIS: error= 4.44D-02 at cycle   4 NSaved=   4.
 NSaved= 4 IEnMin= 3 EnMin= -608.804827010155     IErMin= 2 ErrMin= 1.39D-02
 ErrMax= 4.44D-02  0.00D+00 EMaxC= 1.00D-01 BMatC= 1.33D+00 BMatP= 1.44D-01
 IDIUse=2 WtCom= 0.00D+00 WtEn= 1.00D+00
 EnCoef did     4 forward-backward iterations
 Coeff-En:   0.769D-01 0.000D+00 0.702D+00 0.221D+00
 Coeff:      0.769D-01 0.000D+00 0.702D+00 0.221D+00
 Gap=    -0.013 Goal=   None    Shift=    0.000
 RMSDP=8.22D-02 MaxDP=9.48D+00 DE= 1.50D+00 OVMax= 7.87D-01

 Cycle   5  Pass 0  IDiag  1:
 E= -609.100874406554     Delta-E=       -1.793331725911 Rises=F Damp=F
 DIIS: error= 9.96D-03 at cycle   5 NSaved=   5.
 NSaved= 5 IEnMin= 5 EnMin= -609.100874406554     IErMin= 5 ErrMin= 9.96D-03
 ErrMax= 9.96D-03  0.00D+00 EMaxC= 1.00D-01 BMatC= 6.02D-02 BMatP= 1.44D-01
 IDIUse=3 WtCom= 9.00D-01 WtEn= 9.96D-02
 Coeff-Com: -0.103D+00 0.360D+00 0.358D+00 0.214D-02 0.384D+00
 Coeff-En:   0.000D+00 0.000D+00 0.475D-01 0.000D+00 0.952D+00
 Coeff:     -0.931D-01 0.324D+00 0.327D+00 0.193D-02 0.440D+00
 Gap=     0.216 Goal=   None    Shift=    0.000
 RMSDP=8.01D-03 MaxDP=6.71D-01 DE=-1.79D+00 OVMax= 1.63D-01

 Cycle   6  Pass 0  IDiag  1:
 E= -609.093186132684     Delta-E=        0.007688273871 Rises=F Damp=F
 DIIS: error= 9.68D-03 at cycle   6 NSaved=   6.
 NSaved= 6 IEnMin= 5 EnMin= -609.100874406554     IErMin= 6 ErrMin= 9.68D-03
 ErrMax= 9.68D-03  0.00D+00 EMaxC= 1.00D-01 BMatC= 5.83D-02 BMatP= 6.02D-02
 IDIUse=3 WtCom= 9.03D-01 WtEn= 9.68D-02
 Coeff-Com: -0.160D+00 0.225D+00 0.975D-01-0.914D-02 0.342D+00 0.504D+00
 Coeff-En:   0.000D+00 0.000D+00 0.000D+00 0.000D+00 0.535D+00 0.465D+00
 Coeff:     -0.144D+00 0.203D+00 0.881D-01-0.826D-02 0.361D+00 0.500D+00
 Gap=     0.139 Goal=   None    Shift=    0.000
 RMSDP=2.52D-03 MaxDP=1.78D-01 DE= 7.69D-03 OVMax= 4.17D-02

 Cycle   7  Pass 0  IDiag  1:
 E= -609.137104938310     Delta-E=       -0.043918805626 Rises=F Damp=F
 DIIS: error= 4.60D-03 at cycle   7 NSaved=   7.
 NSaved= 7 IEnMin= 7 EnMin= -609.137104938310     IErMin= 7 ErrMin= 4.60D-03
 ErrMax= 4.60D-03  0.00D+00 EMaxC= 1.00D-01 BMatC= 1.32D-02 BMatP= 5.83D-02
 IDIUse=3 WtCom= 9.54D-01 WtEn= 4.60D-02
 Coeff-Com: -0.996D-01 0.103D+00-0.453D-01 0.577D-02 0.108D+00 0.703D-01
 Coeff-Com:  0.858D+00
 Coeff-En:   0.000D+00 0.000D+00 0.000D+00 0.000D+00 0.179D+00 0.000D+00
 Coeff-En:   0.821D+00
 Coeff:     -0.950D-01 0.981D-01-0.432D-01 0.550D-02 0.111D+00 0.671D-01
 Coeff:      0.857D+00
 Gap=     0.113 Goal=   None    Shift=    0.000
 RMSDP=1.45D-03 MaxDP=1.04D-01 DE=-4.39D-02 OVMax= 2.18D-02

 Cycle   8  Pass 0  IDiag  1:
 E= -609.148044225979     Delta-E=       -0.010939287670 Rises=F Damp=F
 DIIS: error= 2.33D-03 at cycle   8 NSaved=   8.
 NSaved= 8 IEnMin= 8 EnMin= -609.148044225979     IErMin= 8 ErrMin= 2.33D-03
 ErrMax= 2.33D-03  0.00D+00 EMaxC= 1.00D-01 BMatC= 3.44D-03 BMatP= 1.32D-02
 IDIUse=3 WtCom= 9.77D-01 WtEn= 2.33D-02
 Coeff-Com: -0.492D-01 0.466D-01-0.449D-01 0.860D-02-0.198D-02-0.641D-01
 Coeff-Com:  0.286D+00 0.819D+00
 Coeff-En:   0.000D+00 0.000D+00 0.000D+00 0.000D+00 0.000D+00 0.000D+00
 Coeff-En:   0.000D+00 0.100D+01
 Coeff:     -0.481D-01 0.455D-01-0.439D-01 0.840D-02-0.194D-02-0.626D-01
 Coeff:      0.279D+00 0.823D+00
 Gap=     0.102 Goal=   None    Shift=    0.000
 RMSDP=8.11D-04 MaxDP=5.38D-02 DE=-1.09D-02 OVMax= 1.37D-02

 Cycle   9  Pass 0  IDiag  1:
 E= -609.150899452644     Delta-E=       -0.002855226664 Rises=F Damp=F
 DIIS: error= 1.12D-03 at cycle   9 NSaved=   9.
 NSaved= 9 IEnMin= 9 EnMin= -609.150899452644     IErMin= 9 ErrMin= 1.12D-03
 ErrMax= 1.12D-03  0.00D+00 EMaxC= 1.00D-01 BMatC= 8.30D-04 BMatP= 3.44D-03
 IDIUse=3 WtCom= 9.89D-01 WtEn= 1.12D-02
 Coeff-Com:  0.256D-02 0.973D-03 0.554D-02 0.263D-02-0.258D-01-0.371D-02
 Coeff-Com: -0.459D+00 0.256D+00 0.122D+01
 Coeff-En:   0.000D+00 0.000D+00 0.000D+00 0.000D+00 0.000D+00 0.000D+00
 Coeff-En:   0.000D+00 0.000D+00 0.100D+01
 Coeff:      0.253D-02 0.962D-03 0.548D-02 0.261D-02-0.255D-01-0.367D-02
 Coeff:     -0.454D+00 0.253D+00 0.122D+01
 Gap=     0.089 Goal=   None    Shift=    0.000
 RMSDP=8.53D-04 MaxDP=5.59D-02 DE=-2.86D-03 OVMax= 1.71D-02

 Cycle  10  Pass 0  IDiag  1:
 E= -609.151902733504     Delta-E=       -0.001003280860 Rises=F Damp=F
 DIIS: error= 1.08D-04 at cycle  10 NSaved=  10.
 NSaved=10 IEnMin=10 EnMin= -609.151902733504     IErMin=10 ErrMin= 1.08D-04
 ErrMax= 1.08D-04  0.00D+00 EMaxC= 1.00D-01 BMatC= 1.06D-05 BMatP= 8.30D-04
 IDIUse=3 WtCom= 9.99D-01 WtEn= 1.08D-03
 Coeff-Com:  0.323D-02-0.203D-02 0.489D-02 0.708D-03-0.901D-02 0.904D-02
 Coeff-Com: -0.216D+00 0.406D-01 0.542D+00 0.627D+00
 Coeff-En:   0.000D+00 0.000D+00 0.000D+00 0.000D+00 0.000D+00 0.000D+00
 Coeff-En:   0.000D+00 0.000D+00 0.000D+00 0.100D+01
 Coeff:      0.323D-02-0.203D-02 0.488D-02 0.707D-03-0.900D-02 0.903D-02
 Coeff:     -0.216D+00 0.406D-01 0.541D+00 0.627D+00
 Gap=     0.088 Goal=   None    Shift=    0.000
 RMSDP=9.79D-05 MaxDP=5.02D-03 DE=-1.00D-03 OVMax= 2.45D-03

 Cycle  11  Pass 0  IDiag  1:
 E= -609.151909571466     Delta-E=       -0.000006837962 Rises=F Damp=F
 DIIS: error= 6.95D-05 at cycle  11 NSaved=  11.
 NSaved=11 IEnMin=11 EnMin= -609.151909571466     IErMin=11 ErrMin= 6.95D-05
 ErrMax= 6.95D-05  0.00D+00 EMaxC= 1.00D-01 BMatC= 3.82D-06 BMatP= 1.06D-05
 IDIUse=1 WtCom= 1.00D+00 WtEn= 0.00D+00
 Coeff-Com:  0.698D-03-0.602D-03 0.111D-02 0.991D-04-0.456D-03 0.395D-02
 Coeff-Com: -0.313D-01 0.303D-02 0.888D-01 0.271D+00 0.663D+00
 Coeff:      0.698D-03-0.602D-03 0.111D-02 0.991D-04-0.456D-03 0.395D-02
 Coeff:     -0.313D-01 0.303D-02 0.888D-01 0.271D+00 0.663D+00
 Gap=     0.089 Goal=   None    Shift=    0.000
 RMSDP=2.63D-05 MaxDP=1.44D-03 DE=-6.84D-06 OVMax= 4.21D-04

 Cycle  12  Pass 0  IDiag  1:
 E= -609.151912734529     Delta-E=       -0.000003163063 Rises=F Damp=F
 DIIS: error= 3.23D-05 at cycle  12 NSaved=  12.
 NSaved=12 IEnMin=12 EnMin= -609.151912734529     IErMin=12 ErrMin= 3.23D-05
 ErrMax= 3.23D-05  0.00D+00 EMaxC= 1.00D-01 BMatC= 4.98D-07 BMatP= 3.82D-06
 IDIUse=1 WtCom= 1.00D+00 WtEn= 0.00D+00
 Coeff-Com:  0.239D-03-0.280D-03 0.104D-03 0.215D-04 0.429D-04 0.554D-03
 Coeff-Com: -0.605D-03 0.491D-02 0.983D-02 0.724D-01 0.262D+00 0.651D+00
 Coeff:      0.239D-03-0.280D-03 0.104D-03 0.215D-04 0.429D-04 0.554D-03
 Coeff:     -0.605D-03 0.491D-02 0.983D-02 0.724D-01 0.262D+00 0.651D+00
 Gap=     0.089 Goal=   None    Shift=    0.000
 RMSDP=1.01D-05 MaxDP=4.70D-04 DE=-3.16D-06 OVMax= 1.86D-04

 Cycle  13  Pass 0  IDiag  1:
 E= -609.151913129766     Delta-E=       -0.000000395237 Rises=F Damp=F
 DIIS: error= 1.02D-05 at cycle  13 NSaved=  13.
 NSaved=13 IEnMin=13 EnMin= -609.151913129766     IErMin=13 ErrMin= 1.02D-05
 ErrMax= 1.02D-05  0.00D+00 EMaxC= 1.00D-01 BMatC= 9.86D-08 BMatP= 4.98D-07
 IDIUse=1 WtCom= 1.00D+00 WtEn= 0.00D+00
 Coeff-Com:  0.383D-04-0.774D-04-0.136D-03 0.592D-05 0.388D-04-0.307D-03
 Coeff-Com:  0.454D-02 0.383D-02-0.697D-02-0.745D-02 0.182D-01 0.317D+00
 Coeff-Com:  0.671D+00
 Coeff:      0.383D-04-0.774D-04-0.136D-03 0.592D-05 0.388D-04-0.307D-03
 Coeff:      0.454D-02 0.383D-02-0.697D-02-0.745D-02 0.182D-01 0.317D+00
 Coeff:      0.671D+00
 Gap=     0.089 Goal=   None    Shift=    0.000
 RMSDP=6.19D-06 MaxDP=3.62D-04 DE=-3.95D-07 OVMax= 9.99D-05

 Initial convergence to 1.0D-05 achieved.  Increase integral accuracy.
 Cycle  14  Pass 1  IDiag  1:
 E= -609.151870773245     Delta-E=        0.000042356521 Rises=F Damp=F
 DIIS: error= 8.32D-06 at cycle   1 NSaved=   1.
 NSaved= 1 IEnMin= 1 EnMin= -609.151870773245     IErMin= 1 ErrMin= 8.32D-06
 ErrMax= 8.32D-06  0.00D+00 EMaxC= 1.00D-01 BMatC= 1.62D-08 BMatP= 1.62D-08
 IDIUse=1 WtCom= 1.00D+00 WtEn= 0.00D+00
 Coeff-Com:  0.100D+01
 Coeff:      0.100D+01
 Gap=     0.089 Goal=   None    Shift=    0.000
 RMSDP=6.19D-06 MaxDP=3.62D-04 DE= 4.24D-05 OVMax= 8.78D-05

 Cycle  15  Pass 1  IDiag  1:
 E= -609.151870769193     Delta-E=        0.000000004052 Rises=F Damp=F
 DIIS: error= 7.85D-06 at cycle   2 NSaved=   2.
 NSaved= 2 IEnMin= 1 EnMin= -609.151870773245     IErMin= 2 ErrMin= 7.85D-06
 ErrMax= 7.85D-06  0.00D+00 EMaxC= 1.00D-01 BMatC= 3.09D-08 BMatP= 1.62D-08
 IDIUse=1 WtCom= 1.00D+00 WtEn= 0.00D+00
 Coeff-Com:  0.597D+00 0.403D+00
 Coeff:      0.597D+00 0.403D+00
 Gap=     0.089 Goal=   None    Shift=    0.000
 RMSDP=4.29D-06 MaxDP=3.00D-04 DE= 4.05D-09 OVMax= 7.53D-05

 Cycle  16  Pass 1  IDiag  1:
 E= -609.151870794661     Delta-E=       -0.000000025468 Rises=F Damp=F
 DIIS: error= 1.72D-06 at cycle   3 NSaved=   3.
 NSaved= 3 IEnMin= 3 EnMin= -609.151870794661     IErMin= 3 ErrMin= 1.72D-06
 ErrMax= 1.72D-06  0.00D+00 EMaxC= 1.00D-01 BMatC= 1.60D-09 BMatP= 1.62D-08
 IDIUse=1 WtCom= 1.00D+00 WtEn= 0.00D+00
 Coeff-Com:  0.196D-01 0.180D+00 0.801D+00
 Coeff:      0.196D-01 0.180D+00 0.801D+00
 Gap=     0.089 Goal=   None    Shift=    0.000
 RMSDP=6.51D-07 MaxDP=2.74D-05 DE=-2.55D-08 OVMax= 1.36D-05

 Cycle  17  Pass 1  IDiag  1:
 E= -609.151870795763     Delta-E=       -0.000000001102 Rises=F Damp=F
 DIIS: error= 7.25D-07 at cycle   4 NSaved=   4.
 NSaved= 4 IEnMin= 4 EnMin= -609.151870795763     IErMin= 4 ErrMin= 7.25D-07
 ErrMax= 7.25D-07  0.00D+00 EMaxC= 1.00D-01 BMatC= 2.42D-10 BMatP= 1.60D-09
 IDIUse=1 WtCom= 1.00D+00 WtEn= 0.00D+00
 Coeff-Com: -0.242D-01 0.824D-01 0.434D+00 0.508D+00
 Coeff:     -0.242D-01 0.824D-01 0.434D+00 0.508D+00
 Gap=     0.089 Goal=   None    Shift=    0.000
 RMSDP=1.65D-07 MaxDP=6.36D-06 DE=-1.10D-09 OVMax= 2.74D-06

 Cycle  18  Pass 1  IDiag  1:
 E= -609.151870795994     Delta-E=       -0.000000000231 Rises=F Damp=F
 DIIS: error= 1.37D-07 at cycle   5 NSaved=   5.
 NSaved= 5 IEnMin= 5 EnMin= -609.151870795994     IErMin= 5 ErrMin= 1.37D-07
 ErrMax= 1.37D-07  0.00D+00 EMaxC= 1.00D-01 BMatC= 1.06D-11 BMatP= 2.42D-10
 IDIUse=1 WtCom= 1.00D+00 WtEn= 0.00D+00
 Coeff-Com: -0.118D-01 0.329D-01 0.150D+00 0.218D+00 0.611D+00
 Coeff:     -0.118D-01 0.329D-01 0.150D+00 0.218D+00 0.611D+00
 Gap=     0.089 Goal=   None    Shift=    0.000
 RMSDP=8.11D-08 MaxDP=5.00D-06 DE=-2.31D-10 OVMax= 1.56D-06

 Cycle  19  Pass 1  IDiag  1:
 E= -609.151870796006     Delta-E=       -0.000000000012 Rises=F Damp=F
 DIIS: error= 5.28D-08 at cycle   6 NSaved=   6.
 NSaved= 6 IEnMin= 6 EnMin= -609.151870796006     IErMin= 6 ErrMin= 5.28D-08
 ErrMax= 5.28D-08  0.00D+00 EMaxC= 1.00D-01 BMatC= 1.87D-12 BMatP= 1.06D-11
 IDIUse=1 WtCom= 1.00D+00 WtEn= 0.00D+00
 Coeff-Com: -0.398D-02 0.105D-01 0.332D-01 0.567D-01 0.325D+00 0.578D+00
 Coeff:     -0.398D-02 0.105D-01 0.332D-01 0.567D-01 0.325D+00 0.578D+00
 Gap=     0.089 Goal=   None    Shift=    0.000
 RMSDP=3.26D-08 MaxDP=1.25D-06 DE=-1.21D-11 OVMax= 8.06D-07

 Cycle  20  Pass 1  IDiag  1:
 E= -609.151870796007     Delta-E=       -0.000000000001 Rises=F Damp=F
 DIIS: error= 1.57D-08 at cycle   7 NSaved=   7.
 NSaved= 7 IEnMin= 7 EnMin= -609.151870796007     IErMin= 7 ErrMin= 1.57D-08
 ErrMax= 1.57D-08  0.00D+00 EMaxC= 1.00D-01 BMatC= 1.82D-13 BMatP= 1.87D-12
 IDIUse=1 WtCom= 1.00D+00 WtEn= 0.00D+00
 Coeff-Com:  0.566D-04 0.772D-04-0.875D-02-0.118D-01 0.456D-01 0.262D+00
 Coeff-Com:  0.713D+00
 Coeff:      0.566D-04 0.772D-04-0.875D-02-0.118D-01 0.456D-01 0.262D+00
 Coeff:      0.713D+00
 Gap=     0.089 Goal=   None    Shift=    0.000
 RMSDP=2.09D-08 MaxDP=7.41D-07 DE=-6.82D-13 OVMax= 5.92D-07

 Cycle  21  Pass 1  IDiag  1:
 E= -609.151870796000     Delta-E=        0.000000000006 Rises=F Damp=F
 DIIS: error= 8.10D-09 at cycle   8 NSaved=   8.
 NSaved= 8 IEnMin= 7 EnMin= -609.151870796007     IErMin= 8 ErrMin= 8.10D-09
 ErrMax= 8.10D-09  0.00D+00 EMaxC= 1.00D-01 BMatC= 3.14D-14 BMatP= 1.82D-13
 IDIUse=1 WtCom= 1.00D+00 WtEn= 0.00D+00
 Coeff-Com:  0.446D-03-0.114D-02-0.816D-02-0.135D-01-0.168D-01 0.576D-01
 Coeff-Com:  0.377D+00 0.604D+00
 Coeff:      0.446D-03-0.114D-02-0.816D-02-0.135D-01-0.168D-01 0.576D-01
 Coeff:      0.377D+00 0.604D+00
 Gap=     0.089 Goal=   None    Shift=    0.000
 RMSDP=6.77D-09 MaxDP=2.43D-07 DE= 6.37D-12 OVMax= 1.98D-07

 SCF Done:  E(RPBE1PBE) =  -609.151870796     A.U. after   21 cycles
            NFock= 21  Conv=0.68D-08     -V/T= 2.0031
 KE= 6.072994927802D+02 PE=-2.846067457927D+03 EE= 9.378693987936D+02
 Leave Link  502 at Mon Mar  6 10:23:13 2023, MaxMem=  1048576000 cpu:              84.4 elap:              85.0
 (Enter /ssoft/spack/external/gaussian/g16-C.01/avx2/g16/l801.exe)
 DoSCS=F DFT=T ScalE2(SS,OS)=  1.000000  1.000000
 Range of M.O.s used for correlation:     1   204
 NBasis=   204 NAE=    44 NBE=    44 NFC=     0 NFV=     0
 NROrb=    204 NOA=    44 NOB=    44 NVA=   160 NVB=   160

 **** Warning!!: The smallest alpha delta epsilon is  0.88976111D-01

 Leave Link  801 at Mon Mar  6 10:23:14 2023, MaxMem=  1048576000 cpu:               0.0 elap:               0.0
 (Enter /ssoft/spack/external/gaussian/g16-C.01/avx2/g16/l1101.exe)
 Using compressed storage, NAtomX=    21.
 Will process     22 centers per pass.
   1 Symmetry operations used in ECPInt.
 ECPInt:  NShTT=    4656 NPrTT=   16826 LenC2=    4546 LenP2D=   12778.
 LDataN:  DoStor=T MaxTD1= 5 Len=  102
 R6Disp: Adding Grimme-D3(BJ) dispersion energy 1st derivatives to the gradient.
 Leave Link 1101 at Mon Mar  6 10:23:14 2023, MaxMem=  1048576000 cpu:               0.2 elap:               0.2
 (Enter /ssoft/spack/external/gaussian/g16-C.01/avx2/g16/l1102.exe)
 Symmetrizing basis deriv contribution to polar:
 IMax=3 JMax=2 DiffMx= 0.00D+00
 Leave Link 1102 at Mon Mar  6 10:23:14 2023, MaxMem=  1048576000 cpu:               0.0 elap:               0.0
 (Enter /ssoft/spack/external/gaussian/g16-C.01/avx2/g16/l1110.exe)
 Forming Gx(P) for the SCF density, NAtomX=    21.
 Integral derivatives from FoFJK, PRISM(SPDF).
 Do as many integral derivatives as possible in FoFJK.
 G2DrvN: MDV=    1048573701.
 G2DrvN: will do    22 centers at a time, making    1 passes.
 Calling FoFCou, ICntrl=  3107 FMM=F I1Cent=   0 AccDes= 0.00D+00.
 FoFJK:  IHMeth= 1 ICntrl=    3107 DoSepK=F KAlg= 0 I1Cent=           0 FoldK=F
 IRaf=         0 NMat=       1 IRICut=       1 DoRegI=T DoRafI=F ISym2E= 0 IDoP0=0 IntGTp=1.
 FoFCou: FMM=F IPFlag=           0 FMFlag=      100000 FMFlg1=           0
         NFxFlg=           0 DoJE=F BraDBF=F KetDBF=F FulRan=T
         wScrn=  0.000000 ICntrl=      3107 IOpCl=  0 I1Cent=           0 NGrid=           0
         NMat0=    1 NMatS0=      1 NMatT0=    0 NMatD0=    1 NMtDS0=    0 NMtDT0=    0
 Symmetry not used in FoFCou.
 End of G2Drv F.D. properties file   721 does not exist.
 End of G2Drv F.D. properties file   722 does not exist.
 End of G2Drv F.D. properties file   788 does not exist.
 Leave Link 1110 at Mon Mar  6 10:27:04 2023, MaxMem=  1048576000 cpu:             228.7 elap:             230.0
 (Enter /ssoft/spack/external/gaussian/g16-C.01/avx2/g16/l1002.exe)
 Minotr:  Closed shell wavefunction.
          IDoAtm=111111111111111111111
          Direct CPHF calculation.
          Differentiating once with respect to electric field.
                with respect to dipole field.
          Differentiating once with respect to nuclear coordinates.
          Requested convergence is 1.0D-08 RMS, and 1.0D-07 maximum.
          Secondary convergence is 1.0D-12 RMS, and 1.0D-12 maximum.
          NewPWx=T KeepS1=F KeepF1=F KeepIn=T MapXYZ=F SortEE=F KeepMc=T.
         6294 words used for storage of precomputed grid.
 Keep R1 ints in memory in canonical form, NReq=223674042.
 FoFCou: FMM=F IPFlag=           0 FMFlag=           0 FMFlg1=           0
         NFxFlg=           0 DoJE=F BraDBF=F KetDBF=F FulRan=T
         wScrn=  0.000000 ICntrl=       600 IOpCl=  0 I1Cent=           0 NGrid=           0
         NMat0=    1 NMatS0=  20910 NMatT0=    0 NMatD0=    1 NMtDS0=    0 NMtDT0=    0
 Symmetry not used in FoFCou.
 Two-electron integral symmetry not used.
          MDV=    1048576000 using IRadAn=       1.
          Solving linear equations simultaneously, MaxMat=       0.
          There are    66 degrees of freedom in the 1st order CPHF.  IDoFFX=6 NUNeed=     3.
     63 vectors produced by pass  0 Test12= 1.07D-14 1.52D-09 XBig12= 9.90D+01 3.48D+00.
 AX will form    63 AO Fock derivatives at one time.
     63 vectors produced by pass  1 Test12= 1.07D-14 1.52D-09 XBig12= 1.90D+01 7.93D-01.
     63 vectors produced by pass  2 Test12= 1.07D-14 1.52D-09 XBig12= 2.94D-01 8.32D-02.
     63 vectors produced by pass  3 Test12= 1.07D-14 1.52D-09 XBig12= 1.54D-03 5.98D-03.
     63 vectors produced by pass  4 Test12= 1.07D-14 1.52D-09 XBig12= 4.23D-06 3.10D-04.
     62 vectors produced by pass  5 Test12= 1.07D-14 1.52D-09 XBig12= 7.77D-09 1.17D-05.
     23 vectors produced by pass  6 Test12= 1.07D-14 1.52D-09 XBig12= 9.43D-12 3.62D-07.
      3 vectors produced by pass  7 Test12= 1.07D-14 1.52D-09 XBig12= 1.10D-14 1.06D-08.
 InvSVY:  IOpt=1 It=  1 EMax= 3.55D-15
 Solved reduced A of dimension   403 with    66 vectors.
 FullF1:  Do perturbations      1 to       3.
 Isotropic polarizability for W=    0.000000       91.05 Bohr**3.
 End of Minotr F.D. properties file   721 does not exist.
 End of Minotr F.D. properties file   722 does not exist.
 End of Minotr F.D. properties file   788 does not exist.
 Leave Link 1002 at Mon Mar  6 10:31:01 2023, MaxMem=  1048576000 cpu:             235.1 elap:             236.7
 (Enter /ssoft/spack/external/gaussian/g16-C.01/avx2/g16/l601.exe)
 Copying SCF densities to generalized density rwf, IOpCl= 0 IROHF=0.

 **********************************************************************

            Population analysis using the SCF Density.

 **********************************************************************

 Orbital symmetries:
       Occupied  (A) (A) (A) (A) (A) (A) (A) (A) (A) (A) (A) (A)
                 (A) (A) (A) (A) (A) (A) (A) (A) (A) (A) (A) (A)
                 (A) (A) (A) (A) (A) (A) (A) (A) (A) (A) (A) (A)
                 (A) (A) (A) (A) (A) (A) (A) (A)
       Virtual   (A) (A) (A) (A) (A) (A) (A) (A) (A) (A) (A) (A)
                 (A) (A) (A) (A) (A) (A) (A) (A) (A) (A) (A) (A)
                 (A) (A) (A) (A) (A) (A) (A) (A) (A) (A) (A) (A)
                 (A) (A) (A) (A) (A) (A) (A) (A) (A) (A) (A) (A)
                 (A) (A) (A) (A) (A) (A) (A) (A) (A) (A) (A) (A)
                 (A) (A) (A) (A) (A) (A) (A) (A) (A) (A) (A) (A)
                 (A) (A) (A) (A) (A) (A) (A) (A) (A) (A) (A) (A)
                 (A) (A) (A) (A) (A) (A) (A) (A) (A) (A) (A) (A)
                 (A) (A) (A) (A) (A) (A) (A) (A) (A) (A) (A) (A)
                 (A) (A) (A) (A) (A) (A) (A) (A) (A) (A) (A) (A)
                 (A) (A) (A) (A) (A) (A) (A) (A) (A) (A) (A) (A)
                 (A) (A) (A) (A) (A) (A) (A) (A) (A) (A) (A) (A)
                 (A) (A) (A) (A) (A) (A) (A) (A) (A) (A) (A) (A)
                 (A) (A) (A) (A)
 The electronic state is 1-A.
 Alpha  occ. eigenvalues --  -18.92230 -18.91099 -18.88254 -18.68283 -18.66856
 Alpha  occ. eigenvalues --   -9.99283  -9.97286  -9.96640  -9.92159  -9.84743
 Alpha  occ. eigenvalues --   -9.84092  -0.79368  -0.78879  -0.73064  -0.52982
 Alpha  occ. eigenvalues --   -0.50835  -0.47371  -0.45999  -0.38679  -0.33721
 Alpha  occ. eigenvalues --   -0.30182  -0.26201  -0.25877  -0.25287  -0.21621
 Alpha  occ. eigenvalues --   -0.19618  -0.18603  -0.16802  -0.15306  -0.10096
 Alpha  occ. eigenvalues --   -0.09164  -0.06773  -0.05543  -0.04241  -0.00857
 Alpha  occ. eigenvalues --   -0.00173   0.01035   0.01946   0.06741   0.08479
 Alpha  occ. eigenvalues --    0.20216   0.20524   0.22446   0.23125
 Alpha virt. eigenvalues --    0.32022   0.35722   0.36957   0.38145   0.39289
 Alpha virt. eigenvalues --    0.39803   0.40997   0.44046   0.47213   0.47851
 Alpha virt. eigenvalues --    0.49516   0.50335   0.53085   0.56385   0.57959
 Alpha virt. eigenvalues --    0.59016   0.62266   0.63972   0.66581   0.68439
 Alpha virt. eigenvalues --    0.70180   0.73069   0.75643   0.78825   0.81509
 Alpha virt. eigenvalues --    0.84521   0.85637   0.86841   0.88959   0.90651
 Alpha virt. eigenvalues --    0.91574   0.93140   0.94541   0.96094   0.96621
 Alpha virt. eigenvalues --    0.98079   0.99212   1.01140   1.03210   1.03613
 Alpha virt. eigenvalues --    1.05400   1.05941   1.06863   1.08057   1.09775
 Alpha virt. eigenvalues --    1.12021   1.12797   1.13698   1.14901   1.16394
 Alpha virt. eigenvalues --    1.18896   1.20251   1.30193   1.32522   1.34102
 Alpha virt. eigenvalues --    1.36870   1.40403   1.41251   1.44662   1.45946
 Alpha virt. eigenvalues --    1.46876   1.49893   1.53925   1.54319   1.57245
 Alpha virt. eigenvalues --    1.59891   1.61676   1.62076   1.64788   1.66521
 Alpha virt. eigenvalues --    1.67583   1.68007   1.71227   1.75973   1.78019
 Alpha virt. eigenvalues --    1.80543   1.82546   1.84189   1.87624   1.90601
 Alpha virt. eigenvalues --    1.93870   1.96175   1.98462   1.99953   2.03311
 Alpha virt. eigenvalues --    2.04165   2.08532   2.09052   2.11227   2.12643
 Alpha virt. eigenvalues --    2.14031   2.16971   2.19239   2.20809   2.21969
 Alpha virt. eigenvalues --    2.26057   2.26481   2.28872   2.30559   2.35262
 Alpha virt. eigenvalues --    2.35879   2.37421   2.39457   2.42205   2.44329
 Alpha virt. eigenvalues --    2.44699   2.46047   2.49354   2.51038   2.53454
 Alpha virt. eigenvalues --    2.59644   2.60440   2.64337   2.67893   2.72433
 Alpha virt. eigenvalues --    2.76672   2.78147   2.78790   2.80852   2.85220
 Alpha virt. eigenvalues --    2.88210   2.89528   2.99398   3.01769   3.05161
 Alpha virt. eigenvalues --    3.08814   3.13794   3.16372   3.20024   3.21945
 Alpha virt. eigenvalues --    3.22950   3.23815   3.26104   3.27166   3.28972
 Alpha virt. eigenvalues --    3.30441   3.32073   3.34892   3.39765   3.43713
 Alpha virt. eigenvalues --    3.47047   3.49422   3.51109   3.53107   3.55544
 Alpha virt. eigenvalues --    3.56478   3.58086   3.58938   3.62283   3.63844
 Alpha virt. eigenvalues --    3.67070   3.74996   3.80492   3.82092   3.85707
 Alpha virt. eigenvalues --    3.91585   3.95282   3.98326   4.02674   4.50700
     Molecular Orbital Coefficients:
                          40        41        42        43        44
                           O         O         O         O         O
     Eigenvalues --     0.08479   0.20216   0.20524   0.22446   0.23125
   1 1   O  1S         -0.04020   0.00551  -0.00692   0.01112   0.00582
   2        2S         -0.07025   0.01538  -0.01205   0.03179   0.01380
   3        3S         -0.14328   0.00076  -0.06416  -0.01227   0.01235
   4        4PX         0.18431   0.21577  -0.32426   0.17120  -0.18381
   5        4PY        -0.16256   0.28843  -0.10499   0.22997  -0.04479
   6        4PZ         0.11062   0.30222   0.36143   0.16664   0.23034
   7        5PX         0.13305   0.17609  -0.27240   0.13130  -0.15972
   8        5PY        -0.11129   0.23965  -0.06711   0.18832  -0.03795
   9        5PZ         0.07992   0.24124   0.28436   0.13779   0.19803
  10        6D 0       -0.00214   0.00332   0.00269   0.00330   0.00173
  11        6D+1        0.00344   0.00486   0.00132   0.00270   0.00098
  12        6D-1       -0.00398  -0.00383  -0.00688  -0.00162  -0.00436
  13        6D+2       -0.00058   0.00782  -0.00590   0.00597  -0.00087
  14        6D-2       -0.00722  -0.00028   0.00691  -0.00273   0.00104
  15 2   O  1S         -0.00189   0.00507  -0.00308   0.01020   0.00879
  16        2S         -0.00253   0.00748  -0.00607   0.01665   0.01322
  17        3S         -0.01281   0.05277  -0.02505   0.10207   0.08887
  18        4PX        -0.00014  -0.02017   0.00833   0.00186   0.03672
  19        4PY         0.09439  -0.03277  -0.02586  -0.00053   0.04139
  20        4PZ         0.04646  -0.01976  -0.00134  -0.02479   0.01187
  21        5PX         0.00326  -0.04583   0.02798  -0.01909   0.07003
  22        5PY         0.07903  -0.03076  -0.02231   0.00610   0.05752
  23        5PZ         0.04373  -0.02893  -0.00579  -0.03550   0.00991
  24        6D 0       -0.00195  -0.00072  -0.00002  -0.00043   0.00037
  25        6D+1       -0.00117   0.00170  -0.00056   0.00148  -0.00203
  26        6D-1       -0.00036  -0.00109   0.00049  -0.00148  -0.00060
  27        6D+2        0.00098   0.00024  -0.00086   0.00016  -0.00080
  28        6D-2       -0.00347   0.00174   0.00140   0.00034  -0.00054
  29 3   O  1S         -0.00476  -0.00590  -0.00319   0.00086   0.00068
  30        2S         -0.01239  -0.01071  -0.00531  -0.00513  -0.00028
  31        3S         -0.02773  -0.05214  -0.01727   0.08297   0.01213
  32        4PX         0.09302   0.01801   0.00424  -0.01573  -0.00551
  33        4PY        -0.15786  -0.02913  -0.01343   0.06762   0.01659
  34        4PZ         0.08746  -0.01693  -0.00369   0.00460  -0.03318
  35        5PX         0.07853   0.00640   0.00368  -0.01941   0.00358
  36        5PY        -0.12450  -0.04167  -0.01416   0.08847   0.03115
  37        5PZ         0.07291  -0.03117  -0.00874   0.01548  -0.04100
  38        6D 0        0.00229  -0.00108   0.00028   0.00026  -0.00021
  39        6D+1       -0.00004  -0.00064   0.00071   0.00080   0.00100
  40        6D-1       -0.00242  -0.00120  -0.00054   0.00019   0.00081
  41        6D+2       -0.00089  -0.00215   0.00018   0.00153   0.00071
  42        6D-2       -0.00008  -0.00011  -0.00022   0.00085  -0.00015
  43 4   C  1S          0.02956   0.01300  -0.03442   0.00881  -0.02020
  44        2S         -0.08861  -0.01371   0.05634  -0.04470   0.03775
  45        3S          0.17872  -0.14325   0.53047   0.10274   0.33268
  46        4PX         0.01231   0.07141  -0.10411   0.02691  -0.12952
  47        4PY        -0.26607   0.00582  -0.01894   0.02725  -0.03683
  48        4PZ        -0.09967   0.01869  -0.02162  -0.05775   0.05829
  49        5PX        -0.00176   0.00795  -0.12643   0.05258   0.06260
  50        5PY        -0.11079   0.12498  -0.26335  -0.15336  -0.03501
  51        5PZ        -0.00240  -0.14808   0.04053   0.04137  -0.06477
  52        6D 0        0.00055  -0.01496   0.01101   0.01645  -0.01697
  53        6D+1       -0.00041  -0.00171  -0.00175   0.00850   0.00086
  54        6D-1       -0.00712  -0.00587   0.01007   0.01283  -0.01206
  55        6D+2        0.01152  -0.01022  -0.00371   0.01569   0.00353
  56        6D-2       -0.01148  -0.01160  -0.00618   0.01474   0.02888
  57 5   C  1S         -0.02237   0.00430   0.02242  -0.00577  -0.03601
  58        2S          0.06480   0.00739  -0.03261   0.03207   0.07226
  59        3S         -0.11944  -0.07123  -0.34972  -0.20241   0.47008
  60        4PX        -0.06832  -0.04868  -0.03705   0.01161   0.17283
  61        4PY         0.19756  -0.03822  -0.02016  -0.00899   0.04902
  62        4PZ        -0.05270  -0.03092  -0.05308  -0.03428  -0.05273
  63        5PX        -0.07583   0.03191  -0.24061   0.00474   0.04003
  64        5PY         0.07906   0.14899   0.13342   0.12292  -0.13107
  65        5PZ        -0.02665   0.13339   0.08946  -0.02012   0.05398
  66        6D 0       -0.00131  -0.01555  -0.01723  -0.00383  -0.01056
  67        6D+1       -0.00076  -0.00791  -0.00835  -0.00846  -0.00789
  68        6D-1       -0.00501   0.00896   0.01527   0.00490   0.00710
  69        6D+2        0.00242  -0.02305   0.01367  -0.01738   0.01560
  70        6D-2       -0.01693  -0.00254  -0.00439  -0.00041  -0.01005
  71 6   C  1S          0.00809  -0.04466  -0.00598  -0.01945   0.01864
  72        2S         -0.02587   0.08691   0.01803   0.03657  -0.03344
  73        3S          0.08251   0.69923   0.18250   0.38601  -0.31428
  74        4PX         0.03025   0.02411   0.00949   0.01755  -0.00671
  75        4PY        -0.15856   0.14612   0.02292   0.09162  -0.05043
  76        4PZ        -0.02915   0.02927   0.00889   0.01399  -0.04865
  77        5PX         0.04165   0.16166   0.04339   0.13400  -0.00537
  78        5PY        -0.09419   0.08886   0.09439   0.05281  -0.09135
  79        5PZ        -0.02401   0.02860  -0.06216   0.01741  -0.19915
  80        6D 0       -0.00133   0.00070  -0.00402  -0.00032  -0.00122
  81        6D+1       -0.00276   0.00042  -0.00072  -0.00280  -0.00123
  82        6D-1       -0.00417   0.00149  -0.00133   0.00016  -0.00312
  83        6D+2       -0.00047   0.00082  -0.00069   0.00207   0.00398
  84        6D-2       -0.00668   0.00384  -0.00040   0.00521   0.00633
  85 7   C  1S         -0.01197   0.00908  -0.00429   0.00303   0.00285
  86        2S          0.02542  -0.00729  -0.00224  -0.00915  -0.01950
  87        3S          0.06187  -0.32316   0.12138  -0.15597   0.12737
  88        4PX        -0.05874   0.03549  -0.00606   0.03655   0.00906
  89        4PY         0.06434  -0.02954   0.00548  -0.02170  -0.01184
  90        4PZ        -0.01504   0.02123   0.00643   0.00580   0.01457
  91        5PX         0.00739   0.12026  -0.01567   0.09440  -0.01585
  92        5PY         0.00105  -0.10412   0.02291  -0.03379   0.04658
  93        5PZ         0.00067   0.07096   0.04721   0.05771   0.02417
  94        6D 0       -0.00194  -0.00131   0.00012   0.00067   0.00173
  95        6D+1        0.00514  -0.00149  -0.00061  -0.00070  -0.00012
  96        6D-1        0.00049   0.00135  -0.00114  -0.00136  -0.00159
  97        6D+2        0.01079  -0.00611   0.00057  -0.00555  -0.00027
  98        6D-2       -0.00655  -0.00263  -0.00073   0.00141   0.00105
  99 8   H  1S          0.02381  -0.01032  -0.00581  -0.00952  -0.00389
 100        2S         -0.01653  -0.10425   0.10098  -0.12025   0.05023
 101        3PX        -0.00045  -0.00183   0.00198  -0.00130   0.00329
 102        3PY         0.00493  -0.00288   0.00019  -0.00055   0.00232
 103        3PZ         0.00390  -0.00200   0.00153  -0.00241   0.00159
 104 9   H  1S          0.02237  -0.08504   0.07481   0.09495  -0.10018
 105        2S         -0.01695  -0.16151  -0.06729   0.11218  -0.24837
 106        3PX        -0.00074   0.00342   0.00126   0.00017  -0.00449
 107        3PY        -0.00774   0.00207   0.00009  -0.00171   0.00221
 108        3PZ        -0.00103  -0.00002   0.00109  -0.00048   0.00183
 109 10  H  1S         -0.00995  -0.09764  -0.12817  -0.02997  -0.07042
 110        2S          0.02960  -0.18032  -0.06658   0.04570  -0.26529
 111        3PX        -0.00299  -0.00504   0.00173  -0.00001   0.00205
 112        3PY         0.00520   0.00051   0.00299   0.00089   0.00411
 113        3PZ        -0.00054   0.00019   0.00071  -0.00026  -0.00151
 114 11  H  1S          0.00253   0.00910  -0.02213  -0.00405   0.00583
 115        2S         -0.04092  -0.23275  -0.14251  -0.12275  -0.10598
 116        3PX         0.00089  -0.00161  -0.00034  -0.00039  -0.00147
 117        3PY        -0.00427   0.00250  -0.00065   0.00253  -0.00315
 118        3PZ        -0.00041   0.00211   0.00024   0.00102  -0.00061
 119 12  H  1S         -0.01134  -0.00251   0.00134  -0.00123   0.01359
 120        2S         -0.04392  -0.02496  -0.08093  -0.01455  -0.00011
 121        3PX        -0.00231   0.00052  -0.00007   0.00181  -0.00031
 122        3PY         0.00321  -0.00136  -0.00185  -0.00278  -0.00205
 123        3PZ        -0.00043   0.00075  -0.00050   0.00008  -0.00098
 124 13  H  1S         -0.05891   0.02298  -0.00841   0.02491  -0.00309
 125        2S         -0.09627   0.09887  -0.00328   0.07438  -0.00471
 126        3PX        -0.00299   0.00224  -0.00005   0.00138   0.00062
 127        3PY         0.00183  -0.00088   0.00108  -0.00047  -0.00037
 128        3PZ        -0.00280   0.00060   0.00024   0.00116   0.00096
 129 14  O  1S         -0.01107  -0.00614   0.01073  -0.00751   0.00866
 130        2S         -0.02053  -0.01399   0.02211  -0.01213   0.01237
 131        3S         -0.05381  -0.00665   0.05375  -0.09316   0.08191
 132        4PX         0.01534   0.01770  -0.00626   0.00713  -0.02316
 133        4PY        -0.02358   0.00358   0.02080  -0.00332  -0.01757
 134        4PZ         0.00805   0.00206   0.00862  -0.02025  -0.00977
 135        5PX         0.01201  -0.00368   0.00183   0.03531  -0.02732
 136        5PY        -0.01042  -0.00048   0.00903   0.00640  -0.00456
 137        5PZ         0.00587   0.00522   0.00547  -0.03150  -0.01012
 138        6D 0       -0.00119  -0.00090   0.00139   0.00047   0.00004
 139        6D+1        0.00162   0.00069  -0.00047  -0.00037  -0.00129
 140        6D-1        0.00008   0.00026  -0.00028   0.00046  -0.00014
 141        6D+2        0.00095   0.00241   0.00039  -0.00247  -0.00291
 142        6D-2       -0.00269  -0.00185   0.00204   0.00071   0.00169
 143 15  C  1S         -0.02371  -0.03644   0.00781   0.03635   0.02104
 144        2S          0.06100   0.08814  -0.01752  -0.10084  -0.05434
 145        3S         -0.01913   0.34292  -0.24312  -0.30808  -0.11925
 146        4PX        -0.07665  -0.07249   0.02041   0.09745   0.03655
 147        4PY         0.10343   0.07593  -0.03277  -0.07826  -0.06713
 148        4PZ        -0.04600  -0.02084   0.01637   0.01800   0.04254
 149        5PX        -0.00341  -0.18541   0.11144   0.25278   0.07321
 150        5PY         0.00520   0.02826  -0.09038   0.03869  -0.09635
 151        5PZ        -0.03775   0.01903   0.01918  -0.01237   0.13983
 152        6D 0       -0.00081   0.00211   0.00149   0.00075  -0.00387
 153        6D+1        0.00142   0.00119   0.00099   0.00191  -0.00269
 154        6D-1       -0.00823  -0.00199  -0.00032   0.00266   0.00324
 155        6D+2        0.00313  -0.00099   0.00343  -0.00571   0.00716
 156        6D-2       -0.00515  -0.00135   0.00053   0.00136  -0.00066
 157 16  C  1S         -0.00566  -0.00620   0.00740   0.00593   0.00622
 158        2S          0.02050   0.01249  -0.01430  -0.00679  -0.01336
 159        3S         -0.01982   0.05085  -0.07403  -0.11678  -0.05537
 160        4PX        -0.02492  -0.01724   0.01996   0.00154   0.01958
 161        4PY         0.03229   0.01497  -0.01604  -0.00053  -0.01607
 162        4PZ        -0.00230   0.00041   0.00471  -0.01669   0.00646
 163        5PX        -0.01900  -0.02219   0.04079  -0.00527   0.00803
 164        5PY         0.03215   0.03138  -0.00773  -0.01326  -0.03606
 165        5PZ         0.00877   0.00539   0.01205  -0.04526  -0.00472
 166        6D 0        0.00008   0.00065  -0.00100   0.00055  -0.00064
 167        6D+1        0.00104   0.00083  -0.00122  -0.00110   0.00038
 168        6D-1       -0.00089  -0.00058   0.00057   0.00013  -0.00034
 169        6D+2        0.00016  -0.00226  -0.00019   0.00152   0.00317
 170        6D-2       -0.00051  -0.00076   0.00023   0.00118   0.00027
 171 17  H  1S         -0.02781   0.00385   0.01426   0.00733  -0.00201
 172        2S          0.00095  -0.15393   0.04706   0.19448  -0.12789
 173        3PX        -0.00253   0.00207   0.00020  -0.00055   0.00062
 174        3PY         0.00269   0.00183   0.00005  -0.00336  -0.00278
 175        3PZ         0.00049   0.00008  -0.00020  -0.00072   0.00018
 176 18  H  1S         -0.00686   0.00276   0.00403  -0.00372  -0.01032
 177        2S          0.03844   0.01773   0.03948  -0.00964  -0.02079
 178        3PX        -0.00307  -0.00041   0.00040   0.00024   0.00044
 179        3PY         0.00056   0.00046  -0.00074  -0.00017  -0.00018
 180        3PZ        -0.00010   0.00001   0.00043  -0.00046   0.00031
 181 19  H  1S          0.00146  -0.00388  -0.00070   0.00212   0.00628
 182        2S         -0.00299  -0.03763   0.01052   0.06485   0.05141
 183        3PX        -0.00037  -0.00112   0.00079   0.00086   0.00149
 184        3PY         0.00148   0.00026  -0.00059   0.00080  -0.00076
 185        3PZ        -0.00023   0.00004  -0.00021  -0.00077   0.00068
 186 20  H  1S          0.00111   0.00256  -0.00468   0.00345  -0.00189
 187        2S         -0.00769  -0.00299   0.00712   0.06721   0.02395
 188        3PX        -0.00010  -0.00016  -0.00037  -0.00087   0.00078
 189        3PY         0.00052   0.00029  -0.00086   0.00034  -0.00047
 190        3PZ        -0.00010  -0.00095   0.00026   0.00139  -0.00022
 191 21  O  1S          0.06054  -0.00169   0.00707  -0.01140   0.00124
 192        2S          0.11192  -0.00327   0.01268  -0.03442   0.00369
 193        3S          0.17530  -0.00190   0.05816   0.03166  -0.01574
 194        4PX         0.09038  -0.17891  -0.23870   0.29398   0.39022
 195        4PY         0.29866   0.10823  -0.04682  -0.20921   0.04806
 196        4PZ         0.15440  -0.22287   0.20977   0.33091  -0.28641
 197        5PX         0.06724  -0.15491  -0.18884   0.23233   0.32827
 198        5PY         0.21796   0.09131  -0.05090  -0.18339   0.04994
 199        5PZ         0.11057  -0.17213   0.15660   0.26817  -0.23897
 200        6D 0        0.00265   0.00244  -0.00248  -0.00560   0.00276
 201        6D+1       -0.00171   0.00213   0.00203  -0.00313  -0.00306
 202        6D-1       -0.00765   0.00397  -0.00370  -0.00529   0.00544
 203        6D+2        0.00825   0.00418  -0.00163  -0.00417   0.00066
 204        6D-2       -0.00396   0.00297   0.00749  -0.00744  -0.00726
                          45        46        47        48        49
                           V         V         V         V         V
     Eigenvalues --     0.32022   0.35722   0.36957   0.38145   0.39289
   1 1   O  1S         -0.00111  -0.00102  -0.00184   0.01335   0.00170
   2        2S         -0.00323  -0.00588  -0.00479   0.03190   0.00567
   3        3S          0.00330   0.02397   0.00470   0.03712  -0.00970
   4        4PX         0.00110  -0.04402   0.03401  -0.05350  -0.01909
   5        4PY         0.01699   0.01686   0.01987  -0.08795  -0.01840
   6        4PZ         0.00949  -0.04434   0.00059  -0.02568   0.00896
   7        5PX         0.00218  -0.03428   0.02922  -0.03596  -0.02182
   8        5PY         0.01318   0.00984   0.01257  -0.08270  -0.01342
   9        5PZ         0.00868  -0.04477  -0.00204  -0.02884   0.01132
  10        6D 0        0.00025   0.00009   0.00044  -0.00006  -0.00044
  11        6D+1        0.00001  -0.00033   0.00020  -0.00034  -0.00023
  12        6D-1       -0.00009   0.00033  -0.00027  -0.00022   0.00031
  13        6D+2        0.00024  -0.00091   0.00005  -0.00235  -0.00007
  14        6D-2        0.00003  -0.00002   0.00011  -0.00169  -0.00002
  15 2   O  1S         -0.00331   0.02905  -0.00994   0.07494   0.00377
  16        2S         -0.00847   0.05755  -0.02193   0.14742   0.00798
  17        3S          0.00077   0.26426  -0.06275   0.60977   0.02338
  18        4PX        -0.00974  -0.04341   0.00104  -0.03462   0.00698
  19        4PY        -0.00712  -0.03704  -0.01473   0.05500   0.01863
  20        4PZ         0.00680  -0.00378   0.02090  -0.07216  -0.02444
  21        5PX        -0.00368  -0.08946   0.02380  -0.17944  -0.00149
  22        5PY        -0.00558  -0.01756  -0.01794   0.07971   0.01835
  23        5PZ         0.00646   0.00488   0.01835  -0.06031  -0.02244
  24        6D 0       -0.00053  -0.00189  -0.00025  -0.00048   0.00076
  25        6D+1        0.00003   0.00035  -0.00097   0.00535   0.00127
  26        6D-1       -0.00009  -0.00240   0.00056  -0.00327  -0.00041
  27        6D+2        0.00053   0.00413  -0.00052   0.00210  -0.00033
  28        6D-2       -0.00031  -0.00258   0.00136  -0.00682  -0.00099
  29 3   O  1S          0.01907   0.00506  -0.00359  -0.05352   0.00409
  30        2S          0.04076   0.01244  -0.00616  -0.10418  -0.00107
  31        3S          0.09113   0.04148  -0.03578  -0.40442   0.09731
  32        4PX         0.01374   0.00838  -0.02600   0.05363   0.01066
  33        4PY        -0.02743   0.02312  -0.01962   0.02167  -0.01443
  34        4PZ        -0.01549  -0.01680  -0.03797  -0.03987   0.00378
  35        5PX         0.01225   0.00763  -0.02962   0.09636   0.03081
  36        5PY        -0.03505   0.07009  -0.03132   0.03690  -0.01042
  37        5PZ        -0.02436   0.01304  -0.06654  -0.07690   0.04751
  38        6D 0        0.00161  -0.00309   0.00028  -0.00153  -0.00028
  39        6D+1        0.00088   0.00088  -0.00035   0.00116   0.00394
  40        6D-1        0.00118  -0.00265   0.00306  -0.00104  -0.00165
  41        6D+2       -0.00063   0.00007   0.00098   0.00091   0.00182
  42        6D-2        0.00230   0.00672  -0.00166  -0.00124   0.00313
  43 4   C  1S          0.00407  -0.00304  -0.00107   0.01272   0.00038
  44        2S         -0.00965   0.01850   0.01995  -0.04439  -0.00144
  45        3S         -0.07194  -0.18991  -0.36322   0.14909   0.06987
  46        4PX        -0.01579   0.00375   0.00722   0.02600  -0.00039
  47        4PY         0.01459  -0.00671  -0.00137   0.01760  -0.00624
  48        4PZ        -0.01153  -0.00027   0.00058  -0.00192   0.00928
  49        5PX         0.00968  -0.01032  -0.03834   0.05004   0.06304
  50        5PY         0.01860   0.04007   0.04825  -0.11555   0.01614
  51        5PZ        -0.01540  -0.10863  -0.03197   0.06211  -0.00264
  52        6D 0        0.00397   0.00085   0.00633  -0.00211  -0.00416
  53        6D+1        0.00167  -0.00132   0.00231  -0.00291  -0.00315
  54        6D-1       -0.00150   0.00054  -0.00251   0.00279   0.00247
  55        6D+2        0.00297   0.00311  -0.00350  -0.00365   0.00386
  56        6D-2        0.00116  -0.00121   0.00130   0.00117   0.00000
  57 5   C  1S         -0.00155  -0.01745   0.00550   0.00651  -0.00132
  58        2S          0.00410   0.01518  -0.02206  -0.00770   0.01671
  59        3S          0.03034   0.15410   0.14275  -0.32832  -0.09633
  60        4PX        -0.00071   0.00201  -0.03131  -0.00515   0.02840
  61        4PY        -0.00453  -0.01481  -0.00293   0.00956   0.00273
  62        4PZ        -0.00070   0.02804   0.02652   0.00990  -0.03534
  63        5PX         0.02226   0.09826   0.03897  -0.02956   0.01581
  64        5PY        -0.01006   0.00436  -0.01943   0.09737   0.04446
  65        5PZ         0.00841   0.12941   0.06744   0.03056  -0.08225
  66        6D 0        0.00026   0.00544  -0.00027   0.00586  -0.00138
  67        6D+1       -0.00092  -0.00058  -0.00012   0.00271   0.00044
  68        6D-1        0.00033   0.00418  -0.00111   0.00176   0.00044
  69        6D+2       -0.00070   0.00248  -0.00022   0.00108   0.00076
  70        6D-2        0.00200   0.00515   0.00158  -0.01117  -0.00202
  71 6   C  1S         -0.00193  -0.01567   0.00566   0.00429   0.00037
  72        2S          0.01261   0.00423   0.00907  -0.09219  -0.01907
  73        3S         -0.16680   0.40427  -0.44052   1.17122   0.30511
  74        4PX        -0.01319  -0.02193  -0.03381   0.10369   0.02858
  75        4PY         0.00909   0.01228   0.01476  -0.00832  -0.00377
  76        4PZ         0.00168  -0.07317   0.02269  -0.10751  -0.01197
  77        5PX        -0.05659  -0.19284  -0.07527  -0.00242   0.08029
  78        5PY         0.06338   0.25870   0.05855  -0.00022  -0.03562
  79        5PZ        -0.02296  -0.32397   0.05863  -0.19518  -0.01900
  80        6D 0        0.00152  -0.00055   0.00251  -0.00371  -0.00162
  81        6D+1        0.00141  -0.00187   0.00326  -0.01006  -0.00267
  82        6D-1       -0.00063  -0.00248  -0.00045   0.00151   0.00078
  83        6D+2       -0.00226  -0.00420  -0.00118   0.01085   0.00191
  84        6D-2       -0.00002   0.00075  -0.00227   0.00913   0.00227
  85 7   C  1S         -0.00486  -0.08328  -0.00977   0.00031   0.02306
  86        2S         -0.00495   0.08957  -0.00426   0.00608  -0.00947
  87        3S          0.38099   2.32682   0.49914  -0.50213  -0.86635
  88        4PX        -0.02618  -0.02363  -0.01184   0.10515   0.01513
  89        4PY        -0.03173  -0.22247   0.00409   0.05165   0.02699
  90        4PZ         0.02680  -0.01733   0.06118  -0.06558  -0.06190
  91        5PX        -0.16900  -0.41241  -0.11141   0.45484   0.08718
  92        5PY        -0.04328  -0.77660   0.07435   0.08454   0.04917
  93        5PZ         0.06024  -0.00374   0.18152  -0.20376  -0.23582
  94        6D 0       -0.00001  -0.00201   0.00087   0.00755   0.00327
  95        6D+1       -0.00231  -0.00037  -0.00429   0.01113   0.00021
  96        6D-1        0.00084  -0.00472   0.00127  -0.00329  -0.00074
  97        6D+2        0.00162  -0.00172   0.00018  -0.01163  -0.00031
  98        6D-2        0.00000  -0.00122   0.00174  -0.00533  -0.00216
  99 8   H  1S          0.00147  -0.01550  -0.00046  -0.03149   0.00325
 100        2S          0.01268  -0.42669   0.13935  -1.14180  -0.05423
 101        3PX        -0.00135  -0.00580  -0.00063   0.00018   0.00157
 102        3PY        -0.00065  -0.00034  -0.00177   0.00880   0.00134
 103        3PZ         0.00033  -0.00100   0.00107  -0.00739  -0.00158
 104 9   H  1S          0.02608  -0.00536   0.03725  -0.01131  -0.03535
 105        2S          0.05607  -0.03238   0.16468   0.08326  -0.08320
 106        3PX        -0.00001   0.00096  -0.00039   0.00203   0.00113
 107        3PY        -0.00016  -0.00050  -0.00045   0.00053  -0.00116
 108        3PZ         0.00005   0.00108   0.00028   0.00198  -0.00010
 109 10  H  1S         -0.00334   0.03727  -0.00546   0.03352  -0.00790
 110        2S          0.01065  -0.10216  -0.07171   0.08101   0.10648
 111        3PX        -0.00023  -0.00175  -0.00251   0.00490   0.00260
 112        3PY         0.00020   0.00372   0.00032  -0.00098  -0.00168
 113        3PZ        -0.00123  -0.00369  -0.00194   0.00245   0.00183
 114 11  H  1S          0.00868   0.01021   0.01704  -0.01941  -0.01918
 115        2S          0.02008  -0.68848   0.27621  -0.68307  -0.15467
 116        3PX        -0.00058   0.00336  -0.00240   0.01822   0.00162
 117        3PY        -0.00024   0.00102  -0.00025  -0.00093  -0.00056
 118        3PZ         0.00000   0.00272  -0.00051   0.00170  -0.00015
 119 12  H  1S          0.00881   0.00425   0.00758   0.01867   0.01103
 120        2S         -0.22835  -0.82337  -0.48555   0.48218   0.71794
 121        3PX        -0.00028   0.00755  -0.00374   0.00825   0.00186
 122        3PY         0.00011   0.00102   0.00035   0.00005  -0.00036
 123        3PZ         0.00002  -0.00798  -0.00163   0.00392   0.00401
 124 13  H  1S          0.00084  -0.02050  -0.00125  -0.00245  -0.00011
 125        2S         -0.19097  -2.06372   0.03189   0.24946   0.24844
 126        3PX         0.00127   0.00470   0.00121   0.00620  -0.00070
 127        3PY        -0.00082  -0.00207   0.00079  -0.00219  -0.00111
 128        3PZ         0.00042   0.00069   0.00069  -0.00262  -0.00076
 129 14  O  1S          0.01294  -0.01592   0.02957  -0.01000  -0.05213
 130        2S          0.05419  -0.03645   0.03981  -0.02005  -0.08287
 131        3S         -0.15065  -0.08868   0.35734  -0.07268  -0.56099
 132        4PX        -0.01099   0.02970   0.04851  -0.02249  -0.08908
 133        4PY         0.02852   0.02820  -0.07714   0.03184   0.13541
 134        4PZ        -0.06155  -0.01516  -0.01083  -0.01878  -0.05560
 135        5PX        -0.08655   0.01907   0.16225  -0.05472  -0.18532
 136        5PY         0.07226   0.03555  -0.14201   0.04080   0.27835
 137        5PZ        -0.11338  -0.01318  -0.04557  -0.05828  -0.08483
 138        6D 0        0.00009  -0.00029   0.00134   0.00024  -0.00182
 139        6D+1        0.00101  -0.00231   0.00184   0.00625  -0.00141
 140        6D-1       -0.00082   0.00054  -0.00534  -0.00034  -0.00015
 141        6D+2       -0.00097   0.00117  -0.00713   0.00072   0.00045
 142        6D-2       -0.00080   0.00060   0.00448   0.00393   0.00045
 143 15  C  1S         -0.00853  -0.01707  -0.01666   0.00090   0.01092
 144        2S          0.00604   0.02924  -0.00944   0.00810   0.02445
 145        3S          0.23754   0.22603   0.89663  -0.32252  -0.62277
 146        4PX        -0.00669   0.03412  -0.05317  -0.01140   0.05355
 147        4PY        -0.02014   0.00108  -0.05391  -0.05988   0.02669
 148        4PZ         0.08980   0.00316   0.12928  -0.04291  -0.07642
 149        5PX        -0.04969  -0.03456  -0.08181   0.03455  -0.05503
 150        5PY        -0.04371   0.07510   0.02418  -0.14247   0.05050
 151        5PZ         0.18013   0.05896   0.35572  -0.08855  -0.25269
 152        6D 0        0.00306   0.00385  -0.00059   0.00450  -0.00084
 153        6D+1       -0.00391   0.00590  -0.00247  -0.00428   0.00014
 154        6D-1       -0.00041   0.00266  -0.00153  -0.00269  -0.00399
 155        6D+2       -0.00149  -0.00486   0.00618  -0.00005  -0.00477
 156        6D-2        0.00193  -0.00649  -0.00620  -0.00158  -0.00285
 157 16  C  1S         -0.11070   0.00826   0.04172  -0.00670  -0.05528
 158        2S          0.09364  -0.02472  -0.04769   0.02156   0.08985
 159        3S          3.32779  -0.18595  -1.58408  -0.04304   0.56427
 160        4PX         0.07268  -0.03941  -0.08972  -0.00739  -0.23320
 161        4PY        -0.07908  -0.02621  -0.09597   0.10846  -0.10326
 162        4PZ         0.13890  -0.05087   0.25188   0.15256  -0.05073
 163        5PX         0.22221  -0.19683  -0.43515  -0.01340  -1.32301
 164        5PY        -0.06297  -0.13910  -0.50230   0.44445  -0.50439
 165        5PZ         0.31326  -0.17871   0.86609   0.53789  -0.19349
 166        6D 0       -0.00237   0.00314  -0.00901  -0.00578   0.00650
 167        6D+1        0.00559  -0.00182   0.00878   0.00052  -0.00792
 168        6D-1       -0.00492   0.00022  -0.00125   0.00412   0.00525
 169        6D+2        0.00147  -0.00306   0.00271  -0.00142  -0.00609
 170        6D-2       -0.00514   0.00134  -0.00581   0.00832   0.01537
 171 17  H  1S          0.03347   0.01003   0.00711   0.00818  -0.00194
 172        2S         -0.27602  -0.10265  -0.84477   0.24477   0.56556
 173        3PX        -0.00427   0.00846  -0.00670  -0.00526   0.00686
 174        3PY         0.00264   0.00075  -0.00170  -0.00451  -0.00524
 175        3PZ        -0.00414  -0.00300  -0.00444   0.00062   0.00161
 176 18  H  1S         -0.00668   0.00490  -0.03471   0.02880   0.03713
 177        2S         -1.08474  -0.35433   0.47695   1.07382  -1.73804
 178        3PX         0.00129   0.00051   0.00107  -0.00317  -0.00300
 179        3PY         0.00419  -0.00187  -0.00294  -0.00224  -0.00068
 180        3PZ         0.00916  -0.00258   0.00163   0.00140  -0.00203
 181 19  H  1S          0.04623  -0.01452  -0.05462   0.02786   0.05529
 182        2S         -1.70624   0.42358   2.27022  -0.13314   1.87828
 183        3PX        -0.00924  -0.00072   0.00495   0.00128   0.00089
 184        3PY        -0.01166   0.00091   0.00121   0.00476   0.00403
 185        3PZ         0.00706  -0.00159   0.00597   0.00326  -0.00406
 186 20  H  1S         -0.02480   0.01805  -0.06515  -0.03664   0.01703
 187        2S         -1.52865   0.26672  -1.05202  -0.84995  -0.48442
 188        3PX         0.00259  -0.00007   0.00764  -0.00369  -0.00394
 189        3PY        -0.00511   0.00138  -0.00032   0.00116   0.00494
 190        3PZ        -0.00484   0.00189  -0.00404  -0.00227   0.00233
 191 21  O  1S         -0.00077  -0.00139   0.00173   0.00521  -0.00270
 192        2S         -0.00331  -0.00857   0.00125   0.01360  -0.00578
 193        3S          0.00492   0.03843   0.04031   0.01605  -0.02318
 194        4PX         0.02489  -0.01292   0.02472  -0.02623  -0.03371
 195        4PY        -0.00707   0.01941  -0.01413  -0.02935   0.01451
 196        4PZ         0.03476  -0.00348   0.03424  -0.01104  -0.01645
 197        5PX         0.01930  -0.00957   0.01411  -0.02265  -0.02456
 198        5PY        -0.01086   0.00020  -0.02261  -0.02626   0.01741
 199        5PZ         0.03276   0.00443   0.03171  -0.02078  -0.01277
 200        6D 0       -0.00034  -0.00024  -0.00045   0.00059  -0.00009
 201        6D+1       -0.00022  -0.00013  -0.00021  -0.00030  -0.00018
 202        6D-1       -0.00046  -0.00027  -0.00048   0.00087  -0.00003
 203        6D+2       -0.00022  -0.00017  -0.00091  -0.00079   0.00083
 204        6D-2       -0.00029   0.00019  -0.00022   0.00048   0.00025
     Density Matrix:
                           1         2         3         4         5
   1 1   O  1S          2.13466
   2        2S          0.26965   0.69699
   3        3S          0.33960   0.52972   0.47696
   4        4PX        -0.02154  -0.02780  -0.09519   0.62807
   5        4PY         0.03835   0.06841   0.14980   0.10031   0.56967
   6        4PZ        -0.01055  -0.00791  -0.10601  -0.05206   0.05548
   7        5PX        -0.02068  -0.05835  -0.09079   0.49439   0.09836
   8        5PY         0.02957   0.08614   0.12452   0.09676   0.42547
   9        5PZ        -0.00902  -0.02011  -0.08889  -0.05148   0.05833
  10        6D 0       -0.00089  -0.00119   0.00086  -0.00423   0.00809
  11        6D+1        0.00107   0.00170  -0.00053   0.00499   0.00059
  12        6D-1       -0.00109  -0.00177   0.00153   0.00049   0.00399
  13        6D+2       -0.00012  -0.00012   0.00125   0.00908   0.01357
  14        6D-2       -0.00244  -0.00371   0.00111  -0.01491   0.00701
  15 2   O  1S          0.00022   0.00056   0.00254   0.00715   0.00967
  16        2S          0.00022   0.00549  -0.00193   0.01264   0.01811
  17        3S          0.00479   0.00358  -0.02161   0.06288   0.06930
  18        4PX         0.00079   0.00242  -0.00160  -0.01780  -0.00245
  19        4PY        -0.00076  -0.00166   0.00925   0.01542   0.01399
  20        4PZ        -0.00061   0.00223  -0.02602  -0.00875  -0.01423
  21        5PX         0.00354   0.00318   0.00262  -0.05987  -0.03834
  22        5PY         0.00185   0.00052   0.00318   0.01053   0.00898
  23        5PZ        -0.00160  -0.00012  -0.01935  -0.01065  -0.02675
  24        6D 0       -0.00020  -0.00000   0.00052  -0.00117  -0.00008
  25        6D+1        0.00001  -0.00005   0.00071   0.00161   0.00136
  26        6D-1       -0.00000   0.00032  -0.00027  -0.00130  -0.00171
  27        6D+2        0.00016   0.00038   0.00016   0.00158   0.00011
  28        6D-2       -0.00002  -0.00010  -0.00011  -0.00147   0.00097
  29 3   O  1S         -0.00040  -0.00126   0.00277   0.00121  -0.00379
  30        2S         -0.00091  -0.00070   0.00279  -0.00129  -0.00754
  31        3S         -0.00164  -0.01264  -0.01893   0.03460  -0.02059
  32        4PX         0.00151   0.00441  -0.00589   0.00102   0.00743
  33        4PY        -0.00114  -0.00312   0.00482   0.00973   0.01196
  34        4PZ         0.00089   0.00621  -0.03175   0.00975  -0.00882
  35        5PX         0.00346   0.00954   0.00407  -0.00961   0.00161
  36        5PY        -0.00076  -0.00352   0.00027   0.00976   0.01224
  37        5PZ         0.00058   0.00339  -0.02706   0.01709  -0.01442
  38        6D 0        0.00008   0.00006  -0.00090  -0.00038  -0.00031
  39        6D+1       -0.00013   0.00002   0.00013  -0.00095   0.00027
  40        6D-1        0.00006   0.00000  -0.00015  -0.00021  -0.00073
  41        6D+2       -0.00005   0.00004  -0.00014  -0.00020  -0.00048
  42        6D-2       -0.00009  -0.00015  -0.00044   0.00004   0.00061
  43 4   C  1S          0.00406   0.00868   0.01428   0.03417   0.00815
  44        2S         -0.00776  -0.01855  -0.01567  -0.06757  -0.01535
  45        3S         -0.01509  -0.07581  -0.15137  -0.40152  -0.25059
  46        4PX         0.01185   0.02874   0.02573   0.09135   0.02118
  47        4PY        -0.00430  -0.00896  -0.01472   0.02210   0.01072
  48        4PZ         0.00370   0.00493   0.03612  -0.00844  -0.01365
  49        5PX         0.00668   0.02412   0.01912   0.04729   0.02125
  50        5PY         0.00141   0.01815   0.05988   0.15481   0.07566
  51        5PZ         0.00181   0.00346   0.00507  -0.04928  -0.05703
  52        6D 0       -0.00072  -0.00062  -0.00204  -0.00488   0.00206
  53        6D+1        0.00019   0.00119  -0.00071   0.00363  -0.00108
  54        6D-1       -0.00030  -0.00044  -0.00291   0.00048  -0.00025
  55        6D+2        0.00060  -0.00011  -0.00318   0.00898  -0.00316
  56        6D-2       -0.00008   0.00057   0.00217  -0.01006   0.00278
  57 5   C  1S         -0.00740  -0.01025   0.01048  -0.06131   0.07131
  58        2S          0.00311  -0.00584  -0.05794   0.14895  -0.14985
  59        3S         -0.02474   0.05991   0.09380  -0.06587  -0.09368
  60        4PX        -0.02124  -0.04864   0.04044  -0.11518   0.18079
  61        4PY         0.02915   0.06611  -0.03174   0.17776  -0.15851
  62        4PZ        -0.01775  -0.04319   0.04201  -0.08154   0.10751
  63        5PX         0.00866  -0.00663   0.05908   0.12046   0.15961
  64        5PY        -0.00504   0.03561  -0.02939   0.12648   0.09267
  65        5PZ        -0.00083  -0.03001  -0.01200  -0.05156   0.06751
  66        6D 0       -0.00470  -0.00980  -0.00225   0.00152   0.00074
  67        6D+1        0.00356   0.00647   0.00458   0.00475  -0.01283
  68        6D-1       -0.00453  -0.00798  -0.00580  -0.01299   0.00861
  69        6D+2       -0.00212  -0.00425  -0.00264  -0.02908  -0.02379
  70        6D-2       -0.00872  -0.01764  -0.00819  -0.00330   0.01043
  71 6   C  1S          0.00255   0.00463   0.01186  -0.01341  -0.03473
  72        2S         -0.00300  -0.00606  -0.01346   0.01570   0.06711
  73        3S         -0.01413  -0.03153  -0.10230   0.42981   0.51824
[...]
 0431566,0.00036662,-0.00036820,0.00080764,0.00324381,0.00359794,-0.021
 66488,0.05823703,0.10332902,-0.53375466,-0.00533681,-0.00550488,-0.008
 12131,-0.00103305,0.00067718,-0.00102598,-0.00034911,-0.00006287,-0.00
 037307,-0.00010785,-0.00303564,-0.00242507,-0.03731909,-0.11680888,0.5
 5921075,0.00639387,0.00157068,-0.00366891,0.00092422,-0.00126375,-0.01
 027517,0.00153801,-0.00237754,0.00200059,0.00088058,0.00190995,-0.0003
 2689,0.00029157,-0.01614019,0.03426505,0.06455486,0.02058888,-0.038489
 62,-0.00378791,0.01273806,-0.03088907,0.00141569,0.00076484,0.00060231
 ,-0.00012238,-0.00132659,-0.00054622,-0.00588104,-0.00266993,0.0005800
 3,-0.06291760,0.00252342,0.00139679,-0.00321941,-0.00861554,-0.0025649
 1,-0.05575435,-0.00077893,0.00160611,-0.00130864,0.00116659,0.00144160
 ,0.00113748,0.00165540,-0.00583745,0.01770601,0.02535317,-0.12841334,0
 .40869853,-0.00345761,-0.00672315,0.02217415,-0.00140921,0.00420336,0.
 00225075,-0.00062859,-0.00051137,-0.00079388,-0.00284351,-0.00109346,0
 .00046292,-0.01664183,0.13861834,-0.00075027,-0.00155602,0.00226085,-0
 .00538391,-0.00532145,-0.03264919,-0.00072453,0.00141150,0.00068809,0.
 00031987,-0.00049187,-0.00076745,-0.00213570,0.00284254,-0.00470264,-0
 .04353225,0.39555021,-0.78813677,0.00467279,-0.00491808,0.00714181,-0.
 00059379,0.00178817,0.00155116,-0.00022673,-0.00000975,0.00063021,0.00
 022228,0.00140861,-0.00016591,0.04767647,-0.38975219,0.81272362,0.0000
 6049,-0.00092344,0.00115383,0.00157471,-0.00326090,0.00029759,0.000522
 88,-0.00289962,-0.00646899,0.00004262,-0.00042315,0.00018492,0.0019353
 9,0.00026971,-0.00272814,-0.00374317,0.01560043,-0.03432615,0.01076783
 ,-0.00283208,0.00132527,-0.00015569,-0.00048286,0.00001790,0.00000796,
 -0.00000382,0.00020706,-0.00053620,0.00004500,0.00136726,-0.00394318,0
 .00415490,0.00120780,-0.00688122,0.00016341,-0.00022178,-0.00049096,-0
 .00093174,0.00313237,0.00065831,-0.00411849,-0.00420114,-0.04384947,-0
 .00018181,-0.00071576,0.00027958,-0.00135233,0.00129079,-0.00042783,0.
 00295428,-0.00918508,0.02678923,-0.00580760,-0.02087632,0.14326948,-0.
 00002122,0.00006489,-0.00042056,-0.00001283,-0.00016983,0.00001051,0.0
 0046449,0.00046082,-0.00028311,0.00400768,-0.00307377,-0.00130499,-0.0
 0062759,0.03107843,0.00006033,0.00044135,0.00052113,0.00099941,-0.0003
 6608,0.00220527,-0.00347287,-0.01108695,-0.01836864,0.00029756,-0.0004
 2447,0.00021613,0.00269840,-0.00054417,0.00006284,-0.00032085,0.002091
 46,-0.00855976,-0.00482311,0.14251875,-0.66786379,0.00017170,-0.000219
 62,0.00019361,0.00015574,0.00006054,0.00020107,-0.00054589,-0.00076205
 ,0.00058642,-0.00082460,0.00069389,0.00056474,0.00658107,-0.13636364,0
 .69327680,-0.00314847,-0.00024303,0.00023562,0.00385665,-0.00022420,-0
 .00031677,0.00115782,-0.00445538,-0.00361251,0.00094541,0.00051271,0.0
 0050367,0.00095861,0.00856774,-0.00363807,-0.03092850,-0.01411475,0.00
 982029,-0.29868687,-0.14618076,0.08899312,-0.00009853,0.00027050,-0.00
 020247,-0.00001445,0.00004592,-0.00014404,0.00035965,-0.00027043,0.000
 65471,0.00187294,-0.00012616,-0.00093746,-0.00075558,0.00117978,-0.002
 45949,0.32284276,0.00165361,0.00052001,0.00004491,-0.00080814,0.002982
 25,0.00213541,-0.02797249,-0.02317285,0.00422653,0.00000447,-0.0008009
 9,0.00015232,0.00035115,-0.00413092,0.00058376,0.02238230,0.00895812,-
 0.00762683,-0.14111763,-0.10356951,0.04563352,-0.00035399,-0.00006555,
 0.00026907,0.00001963,0.00007574,0.00001346,0.00006834,0.00039134,-0.0
 0043735,-0.00117992,0.00113117,0.00026670,-0.00946925,-0.00216104,0.00
 213554,0.15393294,0.12042757,-0.00044039,0.00037914,0.00036205,0.00041
 116,-0.00023408,-0.00038085,-0.02278722,-0.01431842,0.00539992,-0.0004
 6391,-0.00023323,0.00005355,0.00051745,-0.00000483,-0.00016092,-0.0085
 0242,-0.00172137,0.00367321,0.08518906,0.04724700,-0.06679064,-0.00032
 383,0.00000674,-0.00014704,0.00002612,0.00001285,0.00003286,-0.0004345
 5,-0.00036563,0.00054447,0.00035122,-0.00132149,0.00037099,0.03329499,
 0.01461596,-0.00452976,-0.08759173,-0.04263485,0.06378380,-0.00070232,
 0.00316987,0.00066941,0.00148535,0.00012701,0.00037824,-0.00738181,-0.
 03826373,-0.02295634,-0.00118347,0.02857953,0.02061257,-0.00484316,-0.
 00040216,-0.00316975,-0.00147544,-0.00066021,-0.00026799,-0.00476138,-
 0.00082613,0.00333654,-0.00032944,-0.00006865,-0.00016627,0.00139108,-
 0.00153295,-0.00047263,0.00018151,-0.00023898,0.00027113,0.00001370,0.
 00002710,-0.00007144,-0.00021932,-0.00018175,-0.00008300,-0.00003810,-
 0.00166159,-0.00086722,0.29674136,0.00254733,-0.00316495,-0.00005021,0
 .00012587,-0.00233575,-0.00070177,-0.02396348,-0.04959355,-0.02000942,
 0.00964064,-0.03402229,-0.01794450,0.00243128,0.00096136,0.00291628,-0
 .00055028,0.00195465,-0.00050666,-0.00468852,0.00189774,0.00557054,0.0
 0013711,0.00022812,-0.00005128,-0.00194690,0.00225117,0.00035460,-0.00
 003703,0.00034117,-0.00013636,0.00019631,-0.00024293,0.00001550,-0.000
 19537,-0.00055290,-0.00058491,-0.00094956,-0.00282163,-0.00145638,-0.0
 9151513,0.40099350,0.00002312,-0.00105705,0.00080559,-0.00006053,-0.00
 032162,0.00002123,-0.00653283,-0.00613447,0.00932619,0.00700994,-0.001
 00096,0.00333793,-0.00009912,0.00177214,-0.00027370,-0.00026153,0.0002
 3965,-0.00014667,-0.00073593,0.00153827,0.00202940,0.00013883,0.000120
 74,0.00002796,0.00073510,0.00013040,0.00217305,-0.00008489,0.00028290,
 0.00105899,0.00012250,-0.00025726,0.00006069,0.00030463,0.00081926,0.0
 0068625,-0.00028390,-0.00063135,0.00010533,0.07100160,0.11344604,0.239
 07866,0.00131679,-0.00908158,-0.00021844,-0.00558700,0.00135969,-0.000
 53339,-0.14929052,-0.04273967,0.04182890,-0.09237991,0.05975564,-0.048
 70164,0.00389081,0.01651306,0.00554228,0.00692427,0.00161199,0.0007082
 1,-0.00631343,-0.02288344,-0.01025647,0.00106093,0.00017451,0.00064109
 ,-0.00669939,0.00740599,0.00651585,-0.00096200,-0.00147160,-0.00189064
 ,-0.00003835,0.00016779,0.00026062,0.00131466,0.00450015,0.00374036,0.
 00226023,0.00491668,0.00202606,-0.07914218,-0.01610540,-0.03264347,0.3
 8140116,-0.00082744,-0.00573490,-0.00496503,-0.00123487,0.00486610,0.0
 0098835,-0.01796059,-0.08146026,0.00516142,0.03500244,-0.10169243,0.02
 630545,0.02588254,-0.02142077,0.00505861,0.00112196,-0.00373352,0.0014
 7102,-0.03071306,-0.03796368,-0.00346017,0.00074676,-0.00021444,0.0004
 2166,0.00747754,-0.00800749,-0.00547668,-0.00042932,0.00094047,0.00190
 491,0.00017194,0.00006331,-0.00002492,0.00093146,0.00430586,0.00354997
 ,0.00264092,0.00125485,-0.00002309,0.01144682,-0.15215774,-0.05677486,
 -0.05625671,0.46735207,0.00254379,-0.00036343,0.00120283,0.00055102,-0
 .00111809,-0.00048667,0.06783546,0.03435024,-0.10812812,-0.01845737,0.
 01028965,-0.10576256,0.00869954,-0.01019767,0.00447872,-0.00022047,0.0
 0105785,-0.00022286,-0.01679381,-0.00974145,0.00205029,-0.00028714,-0.
 00003332,-0.00011533,-0.03088154,0.02459557,-0.00581689,0.00030697,0.0
 0020279,-0.00233451,0.00024441,0.00038149,0.00001578,-0.00315119,-0.00
 462650,0.00015878,-0.00112969,-0.00451621,-0.00289773,-0.00287072,-0.1
 0037196,-0.15433986,0.07130415,-0.09841173,0.97861567,-0.00063195,0.00
 125278,0.00012512,0.00009878,-0.00028413,-0.00012014,-0.00174128,-0.00
 421336,-0.00101292,0.00300342,0.00405954,0.00309779,-0.00062966,-0.002
 43002,-0.00203978,0.00000132,0.00030496,0.00031374,-0.00072296,-0.0002
 2756,0.00024020,-0.00008740,-0.00000766,-0.00002763,0.00004307,-0.0001
 6351,-0.00019094,0.00018252,0.00010174,0.00047891,-0.00006921,-0.00009
 679,-0.00002537,0.00005710,-0.00001742,-0.00009113,-0.00011951,-0.0005
 5367,-0.00015744,-0.14958162,0.04880273,-0.02437338,-0.00267815,0.0202
 5406,0.00503899,0.57608512,0.00148761,-0.00217375,-0.00015398,-0.00047
 207,0.00007645,0.00011870,0.00386781,0.00326952,0.00085385,-0.00702597
 ,-0.00919974,-0.00636801,0.00156090,0.00295797,0.00292275,0.00022888,0
 .00005513,-0.00043306,0.00127712,-0.00066554,-0.00077657,0.00016011,0.
 00003010,0.00003393,-0.00003249,0.00011284,0.00052256,-0.00027725,-0.0
 0010034,-0.00052636,0.00013891,0.00005183,0.00005320,0.00000823,0.0002
 3708,0.00035445,0.00001462,0.00063755,0.00025660,0.03755357,-0.1159234
 2,-0.00902267,0.03468584,-0.05046286,0.00155762,0.55761810,1.32364254,
 0.00022740,-0.00120825,-0.00051476,-0.00009544,-0.00063608,-0.00036088
 ,-0.00139649,-0.00239847,-0.00064714,-0.00161485,-0.00225840,-0.002205
 08,0.00107900,-0.00029133,0.00173759,-0.00010471,0.00032994,-0.0002178
 2,0.00065601,0.00111743,0.00144240,0.00010130,0.00005580,0.00000981,0.
 00021815,-0.00025466,0.00063880,-0.00000074,0.00038060,-0.00019937,-0.
 00004481,0.00000069,-0.00001502,0.00003996,-0.00021379,-0.00044029,-0.
 00023511,-0.00029363,-0.00008650,-0.03126899,0.00098724,-0.08603575,0.
 01939501,-0.00948347,0.00250723,0.00566527,0.41906441,0.60195254,-0.00
 047282,0.00026807,0.00089627,0.00022159,-0.00036940,-0.00009109,-0.013
 46852,-0.02382602,0.03843200,0.00018671,0.00766714,-0.03007612,0.00077
 796,-0.00206977,-0.00039832,-0.00035204,-0.00004537,-0.00041217,0.0009
 9175,0.00324868,0.00460700,0.00001033,-0.00000158,-0.00005685,-0.00481
 773,0.00300988,0.00013201,-0.00000018,0.00125706,0.00085487,-0.0001817
 2,-0.00002646,0.00003051,0.00011289,0.00020665,-0.00150858,-0.00004212
 ,0.00009967,-0.00038489,0.00417803,-0.00035891,-0.00672657,-0.00044211
 ,0.02242619,-0.08228530,-0.00036795,0.00042360,0.00252450,0.00881988,0
 .00034478,-0.00024952,-0.00092684,0.00013034,-0.00034187,-0.00029417,-
 0.01100866,-0.01110184,0.02058438,0.00182174,-0.00427596,0.02217110,-0
 .00112800,0.00205287,0.00193109,-0.00012368,0.00009018,-0.00013662,0.0
 0024768,0.00354929,0.00467653,0.00002249,0.00002128,-0.00007015,0.0032
 9294,-0.00175420,0.00072446,0.00043294,-0.00042840,-0.00099483,-0.0001
 5092,0.00013840,-0.00010589,0.00016018,-0.00004223,-0.00132367,-0.0000
 3619,-0.00006588,-0.00035272,-0.00130138,-0.01338008,-0.04547250,0.024
 11162,-0.02776534,0.15137168,-0.00504900,0.00461580,-0.00582577,-0.009
 95395,0.04663533,-0.00005163,-0.00011166,0.00041547,0.00010656,0.00038
 409,0.00028401,0.00626907,0.00836360,-0.00610214,0.00182488,0.00137087
 ,-0.00402359,0.00024852,-0.00061122,-0.00063730,0.00015427,-0.00003691
 ,-0.00003872,-0.00088273,-0.00174975,0.00045636,-0.00001629,-0.0000288
 3,0.00000915,0.00029507,0.00100247,-0.00031628,0.00011879,0.00001203,0
 .00097295,-0.00000954,-0.00028418,-0.00004056,0.00042543,0.00146335,0.
 00061242,0.00009047,0.00028433,0.00056772,-0.00506087,-0.00934821,-0.0
 2587559,-0.07257015,0.14456966,-0.61161335,-0.00306809,0.00410899,0.00
 166284,0.07068965,-0.14565291,0.63884329,0.00001328,0.00019145,0.00002
 215,0.00015647,0.00016279,0.00007415,0.00249035,0.00069699,-0.00049373
 ,-0.00035931,-0.00039980,0.00004818,-0.00002660,0.00002581,-0.00002502
 ,-0.00013815,-0.00011320,-0.00005573,0.00053467,0.00033170,-0.00003541
 ,-0.00003422,-0.00002067,-0.00001311,0.00001636,-0.00001366,-0.0000478
 8,0.00000831,-0.00003645,-0.00003115,-0.00001519,0.00001204,-0.0000113
 7,-0.00002217,-0.00007798,-0.00002486,0.00002338,0.00014066,0.00008387
 ,-0.04337321,0.01149286,0.00581575,-0.00259356,-0.00781185,-0.00291907
 ,-0.39311540,-0.24222901,0.17844796,0.00020403,0.00053449,0.00036950,0
 .43101514,-0.00029703,0.00000337,-0.00005090,-0.00017861,0.00043310,0.
 00008662,-0.00052728,-0.00070950,0.00135244,0.00047141,-0.00029413,0.0
 0011161,0.00037504,0.00001149,-0.00000648,0.00030709,-0.00004844,0.000
 28023,-0.00117238,-0.00079270,-0.00050900,0.00002288,-0.00000246,0.000
 03688,-0.00003306,0.00001799,-0.00000490,-0.00002380,0.00000990,0.0000
 2898,-0.00000620,0.00003064,-0.00001194,0.00002792,0.00018935,0.000210
 78,0.00011000,0.00011582,-0.00002313,0.03594373,0.00200571,-0.00734579
 ,0.00353333,0.00478290,-0.00028086,-0.24063704,-0.14314976,0.09435454,
 -0.00009083,-0.00038429,0.00009191,0.22878166,0.14020005,-0.00007071,0
 .00000056,-0.00000979,-0.00011872,0.00016682,0.00003917,-0.00101212,0.
 00082120,-0.00004472,-0.00015204,-0.00035036,0.00014744,0.00010483,0.0
 0014436,0.00003964,0.00013504,0.00003576,0.00010263,-0.00034238,-0.000
 53222,-0.00079577,0.00001924,-0.00000293,0.00002197,-0.00000773,-0.000
 00728,0.00000949,-0.00002198,-0.00000141,0.00000119,0.00000352,0.00001
 612,-0.00000393,0.00001738,-0.00005812,0.00003275,0.00004256,0.0000820
 9,0.00003582,-0.01079271,-0.00051353,0.00847131,0.00119376,0.00053603,
 -0.00029928,0.18622499,0.09614736,-0.09347769,-0.00011229,0.00039373,0
 .00012994,-0.18256283,-0.10579322,0.08737674,-0.00018546,0.00030411,0.
 00007743,0.00009930,-0.00007400,-0.00000634,0.00092357,-0.00113145,-0.
 00022457,0.00105155,0.00169145,0.00101601,-0.00045926,-0.00019656,-0.0
 0042650,-0.00011442,-0.00012149,-0.00004727,0.00039464,0.00033719,0.00
 028245,-0.00002297,0.00000259,-0.00001568,-0.00003839,-0.00005129,-0.0
 0006916,0.00003347,-0.00001154,0.00004185,-0.00001271,0.00000280,-0.00
 000335,-0.00002006,-0.00003456,-0.00004904,0.00001777,0.00002644,0.000
 01130,-0.00099485,0.04907490,0.01885658,-0.00621317,0.00325928,-0.0032
 0361,0.01464249,-0.37881575,-0.16977240,-0.00013577,-0.00027503,-0.000
 09199,-0.00086843,-0.02613214,-0.02055754,-0.00817820,0.00029021,-0.00
 042678,-0.00011408,-0.00009101,-0.00013569,-0.00007170,0.00003031,0.00
 015975,-0.00040444,-0.00143459,-0.00076564,-0.00095838,0.00029430,0.00
 023046,0.00051629,0.00004012,0.00014257,0.00000026,0.00003777,0.000196
 24,0.00011152,0.00004786,0.00003231,0.00000835,0.00002160,-0.00006898,
 0.00007934,-0.00001120,0.00001582,-0.00006608,0.00001390,-0.00002298,0
 .00000480,0.00000682,-0.00003946,-0.00004194,-0.00008494,-0.00006977,-
 0.00001369,0.00185009,-0.02694806,-0.01191468,0.00362597,-0.00127992,0
 .00363478,-0.36720699,-0.96467762,-0.51486744,-0.00012277,0.00010862,-
 0.00014384,0.00535986,-0.00252930,-0.00577754,0.35353335,0.98523161,-0
 .00004312,0.00000410,-0.00003918,-0.00002890,0.00003847,0.00000360,-0.
 00024587,0.00047431,0.00047656,-0.00059264,0.00041144,0.00093649,-0.00
 004155,-0.00004049,-0.00010913,0.00003109,-0.00001758,0.00009688,-0.00
 014871,-0.00012229,-0.00021825,0.00000653,0.00000755,0.00000930,0.0000
 8789,-0.00021660,-0.00007049,0.00001130,-0.00001509,0.00002921,0.00000
 532,-0.00000432,-0.00000331,0.00000138,0.00003285,0.00007291,0.0000244
 8,0.00001479,0.00000656,-0.00248714,0.01435079,0.00521700,0.00080795,-
 0.00063122,-0.00086393,-0.16456701,-0.52096209,-0.10984690,-0.00004325
 ,0.00022869,0.00094088,0.00497879,0.02042860,0.00988885,0.17190299,0.5
 2041977,0.10893471,-0.00008565,-0.00012642,-0.00007514,-0.00003407,0.0
 0007111,-0.00000141,-0.00011722,0.00050862,0.00032256,-0.00015065,-0.0
 0004194,-0.00010830,0.00012568,-0.00000308,0.00028564,0.00001008,-0.00
 007404,-0.00001107,0.00010513,-0.00005725,-0.00006290,0.00001700,-0.00
 000683,0.00000704,0.00005356,-0.00017630,0.00030322,-0.00000480,0.0000
 7208,0.00000612,-0.00000994,0.00000916,0.00000289,0.00001311,0.0000091
 5,-0.00001788,0.00002476,0.00007779,0.00003347,-0.01155547,0.01636127,
 -0.03261764,0.00134396,-0.00546033,-0.00376822,-0.04617748,-0.00948346
 ,-0.00428623,0.00022674,-0.00011714,0.00155319,0.00630203,-0.00000341,
 0.02819593,0.00017858,0.00337072,-0.00977654,0.04986972,-0.00000791,0.
 00010113,0.00000571,-0.00000191,-0.00005495,-0.00003378,-0.00025016,-0
 .00060184,-0.00068597,0.00031056,0.00004393,-0.00051906,-0.00009504,0.
 00001919,-0.00010217,0.00005260,0.00004856,0.00000234,-0.00004008,-0.0
 0002462,0.00012239,-0.00001178,-0.00000256,-0.00000388,-0.00008998,0.0
 0017497,-0.00030760,0.00000936,-0.00007533,-0.00008768,-0.00001537,-0.
 00000075,0.00000010,0.00000273,-0.00001568,-0.00007979,-0.00000932,-0.
 00005425,-0.00004004,0.01412442,-0.01202732,0.02287071,-0.00005197,0.0
 0423628,0.00760410,-0.00966958,-0.05353332,0.02124956,-0.00049230,0.00
 107078,-0.00198126,0.00203488,0.00061381,0.01461651,-0.00088867,0.0105
 1157,-0.03457388,-0.00486262,0.04992940,-0.00008498,0.00054550,0.00004
 287,0.00014128,0.00033344,0.00018905,0.00066159,0.00145015,0.00001935,
 -0.00074332,-0.00034324,0.00094725,-0.00011696,-0.00023406,-0.00025273
 ,0.00001154,-0.00015703,0.00003941,-0.00009175,-0.00032411,-0.00053169
 ,-0.00007436,-0.00004121,-0.00002214,0.00034462,-0.00040855,-0.0002124
 1,0.00002186,-0.00009029,0.00012220,0.00000345,-0.00000789,0.00000607,
 -0.00004707,0.00006835,0.00021164,0.00012229,0.00015640,0.00002420,-0.
 01454976,0.01409610,-0.00741390,0.00111430,-0.00801588,0.00124394,-0.0
 0492890,0.01143310,-0.31543267,0.00031116,0.00248117,0.00110914,-0.003
 89065,-0.00286831,-0.01173619,0.00237817,0.00963930,-0.01518260,0.0197
 0907,-0.02807599,0.34642863,0.01276134,0.00771558,0.00115389,-0.002761
 13,-0.00653243,-0.00213912,-0.01452761,0.00059129,0.00191972,-0.155834
 26,-0.05248985,0.03101447,-0.03303806,-0.02554798,0.00267367,0.0031851
 9,-0.00066183,-0.00110095,0.00347045,0.00329864,0.00179960,-0.00075782
 ,0.00068186,-0.00018085,-0.01838372,-0.01676615,0.02457971,-0.00077182
 ,0.00355244,0.00143707,-0.00090623,-0.00044770,0.00000297,-0.00013306,
 -0.00012026,-0.00048325,-0.00048786,-0.00055701,0.00000891,0.00159073,
 -0.00049973,0.00041173,-0.04717304,-0.01066773,0.00944377,0.00180875,-
 0.00068930,0.00046520,0.00455106,-0.00195524,-0.00039411,-0.00021778,-
 0.00047128,-0.00018620,-0.00009768,0.00042864,0.00011702,-0.00013508,-
 0.00004787,-0.00029156,0.24785762,-0.00935001,-0.00363651,-0.00035206,
 -0.00599094,-0.00526719,-0.00295604,0.01069153,0.00388166,-0.00024662,
 -0.03356923,-0.09925449,0.02193996,-0.03773459,-0.03320384,0.00772982,
 0.00494834,-0.00432879,-0.00066718,0.00177150,-0.00349556,-0.00206324,
 0.00077438,0.00063764,0.00037914,-0.01996430,-0.00355975,0.01440331,0.
 00089339,0.00441397,0.00148217,-0.00032890,-0.00019743,0.00015577,-0.0
 0008930,0.00049538,-0.00025945,-0.00058042,0.00041799,0.00022464,0.003
 83052,0.00253720,-0.00128690,-0.01377187,0.00409150,-0.00538455,-0.001
 83719,0.00419955,0.00019107,-0.00124959,0.00150704,-0.00170254,0.00093
 745,-0.00050354,0.00007607,-0.00049961,0.00033523,0.00017221,-0.000067
 09,-0.00035901,0.00036304,0.10118594,0.13128895,-0.00205618,-0.0012441
 3,0.00399794,0.00003265,0.00066084,0.00018308,-0.00332863,0.00009537,0
 .00391197,0.02802964,0.02368691,-0.10581917,-0.00447273,-0.00371112,0.
 00693245,-0.00113317,-0.00446018,0.00211005,-0.00057869,-0.00006726,-0
 .00081954,0.00003566,0.00003597,-0.00002909,0.04020180,0.02040975,-0.0
 0831540,-0.00012128,0.00289991,0.00653960,-0.00078003,-0.00081843,0.00
 047078,0.00029509,0.00003208,0.00015949,0.00006403,0.00014139,0.000032
 96,-0.00118464,-0.00006191,0.00168590,0.01173567,-0.00270003,0.0026078
 4,-0.00058229,0.00081520,-0.00047135,0.00361746,-0.00340679,0.00264335
 ,0.00027046,-0.00008806,0.00007044,-0.00009935,-0.00004060,-0.00027915
 ,0.00030620,0.00001970,0.00040059,-0.07025168,-0.03219863,0.08398726\\
 0.04955205,0.01084298,0.00402171,0.30792552,-0.39440876,0.10687562,0.0
 2717127,0.00919029,0.00393034,-0.05437982,-0.05155549,0.14028480,-0.05
 841732,0.05537874,-0.10761211,0.00200103,-0.09725802,0.20593033,-0.034
 72740,0.01160425,-0.12774073,-0.30594474,0.40286102,-0.09603905,0.0043
 5855,0.03052680,-0.13169799,0.00971603,-0.02789104,0.10249600,-0.01237
 981,0.08493376,-0.21140729,0.00321300,-0.03189801,0.13229728,0.0362590
 6,0.00877371,-0.01335094,0.01197036,-0.01249512,0.00692848,-0.03255957
 ,0.03887478,-0.13046255,-0.01280700,0.27744518,0.16065486,0.00982256,-
 0.03025953,0.12216210,0.09173000,0.03225486,-0.03367304,-0.08513093,-0
 .30263458,-0.14430981,0.00633848,-0.00233882,0.01180237,0.03628870,-0.
 01194702,-0.00109038\\\@
 The archive entry for this job was punched.

 Writing a WFNX file to "WIMMIO_Complex_3_Ligand_2_OO_Cu_oriented.wfx"


 DIATOMIC MOLECULES ARE PECULIAR BECAUSE THEY ONLY HAVE TWO ENDS,
 AND THESE ENDS ARE VERY CLOSE TOGETHER.
 KLAUS RUEDENBERG, REV.MOD.PHYS. PG 176, 32, (1960)
 Job cpu time:       0 days  0 hours 16 minutes  2.5 seconds.
 Elapsed time:       0 days  0 hours 16 minutes  7.9 seconds.
 File lengths (MBytes):  RWF=    376 Int=      0 D2E=      0 Chk=      8 Scr=      8
 Normal termination of Gaussian 16 at Mon Mar  6 10:37:51 2023.
