 Entering Gaussian System, Link 0=g16
 Initial command:
 /ssoft/spack/external/gaussian/g16-C.01/avx2/g16/l1.exe "/scratch/lcmd/2387853/Gau-1722662.inp" -scrdir="/scratch/lcmd/2387853/"
 Entering Link 1 = /ssoft/spack/external/gaussian/g16-C.01/avx2/g16/l1.exe PID=   1722664.
  
 Copyright (c) 1988-2019, Gaussian, Inc.  All Rights Reserved.
  
 This is part of the Gaussian(R) 16 program.  It is based on
 the Gaussian(R) 09 system (copyright 2009, Gaussian, Inc.),
 the Gaussian(R) 03 system (copyright 2003, Gaussian, Inc.),
 the Gaussian(R) 98 system (copyright 1998, Gaussian, Inc.),
 the Gaussian(R) 94 system (copyright 1995, Gaussian, Inc.),
 the Gaussian 92(TM) system (copyright 1992, Gaussian, Inc.),
 the Gaussian 90(TM) system (copyright 1990, Gaussian, Inc.),
 the Gaussian 88(TM) system (copyright 1988, Gaussian, Inc.),
 the Gaussian 86(TM) system (copyright 1986, Carnegie Mellon
 University), and the Gaussian 82(TM) system (copyright 1983,
 Carnegie Mellon University). Gaussian is a federally registered
 trademark of Gaussian, Inc.
  
 This software contains proprietary and confidential information,
 including trade secrets, belonging to Gaussian, Inc.
  
 This software is provided under written license and may be
 used, copied, transmitted, or stored only in accord with that
 written license.
  
 The following legend is applicable only to US Government
 contracts under FAR:
  
                    RESTRICTED RIGHTS LEGEND
  
 Use, reproduction and disclosure by the US Government is
 subject to restrictions as set forth in subparagraphs (a)
 and (c) of the Commercial Computer Software - Restricted
 Rights clause in FAR 52.227-19.
  
 Gaussian, Inc.
 340 Quinnipiac St., Bldg. 40, Wallingford CT 06492
  
  
 ---------------------------------------------------------------
 Warning -- This program may not be used in any manner that
 competes with the business of Gaussian, Inc. or will provide
 assistance to any competitor of Gaussian, Inc.  The licensee
 of this program is prohibited from giving any competitor of
 Gaussian, Inc. access to this program.  By using this program,
 the user acknowledges that Gaussian, Inc. is engaged in the
 business of creating and licensing software in the field of
 computational chemistry and represents and warrants to the
 licensee that it is not a competitor of Gaussian, Inc. and that
 it will not use this program in any manner prohibited above.
 ---------------------------------------------------------------
  

 Cite this work as:
 Gaussian 16, Revision C.01,
 M. J. Frisch, G. W. Trucks, H. B. Schlegel, G. E. Scuseria, 
 M. A. Robb, J. R. Cheeseman, G. Scalmani, V. Barone, 
 G. A. Petersson, H. Nakatsuji, X. Li, M. Caricato, A. V. Marenich, 
 J. Bloino, B. G. Janesko, R. Gomperts, B. Mennucci, H. P. Hratchian, 
 J. V. Ortiz, A. F. Izmaylov, J. L. Sonnenberg, D. Williams-Young, 
 F. Ding, F. Lipparini, F. Egidi, J. Goings, B. Peng, A. Petrone, 
 T. Henderson, D. Ranasinghe, V. G. Zakrzewski, J. Gao, N. Rega, 
 G. Zheng, W. Liang, M. Hada, M. Ehara, K. Toyota, R. Fukuda, 
 J. Hasegawa, M. Ishida, T. Nakajima, Y. Honda, O. Kitao, H. Nakai, 
 T. Vreven, K. Throssell, J. A. Montgomery, Jr., J. E. Peralta, 
 F. Ogliaro, M. J. Bearpark, J. J. Heyd, E. N. Brothers, K. N. Kudin, 
 V. N. Staroverov, T. A. Keith, R. Kobayashi, J. Normand, 
 K. Raghavachari, A. P. Rendell, J. C. Burant, S. S. Iyengar, 
 J. Tomasi, M. Cossi, J. M. Millam, M. Klene, C. Adamo, R. Cammi, 
 J. W. Ochterski, R. L. Martin, K. Morokuma, O. Farkas, 
 J. B. Foresman, and D. J. Fox, Gaussian, Inc., Wallingford CT, 2019.
 
 ******************************************
 Gaussian 16:  ES64L-G16RevC.01  3-Jul-2019
                 6-Mar-2023 
 ******************************************
 %nprocshared=1
 Will use up to    1 processors via shared memory.
 %mem=8000MB
 %chk=WUBSOB_Complex_9_Ligand_0_ON_Cu_oriented.chk
 ----------------------------------------------------------------------
 #p pop=(regular,nbo,savenbos) freq=noraman def2svp empiricaldispersion
 =gd3bj output=wfx pbe1pbe
 ----------------------------------------------------------------------
 1/10=4,30=1,38=1/1,3;
 2/12=2,17=6,18=5,40=1/2;
 3/5=43,7=101,11=2,25=1,30=1,71=2,74=-13,124=41,140=1/1,2,3;
 4//1;
 5/5=2,38=5,98=1/2;
 8/6=4,10=90,11=11/1;
 11/6=1,8=1,9=11,15=111,16=1/1,2,10;
 10/6=1/2;
 6/28=1,40=1,73=1/1,7;
 7/8=1,10=1,25=1/1,2,3,16;
 1/10=4,30=1/3;
 99/6=200/99;
 Leave Link    1 at Mon Mar  6 10:21:46 2023, MaxMem=  1048576000 cpu:               0.0 elap:               0.1
 (Enter /ssoft/spack/external/gaussian/g16-C.01/avx2/g16/l101.exe)
 ----------------------------------------
 WUBSOB_Complex_9_Ligand_0_ON_Cu_oriented
 ----------------------------------------
 Symbolic Z-matrix:
 Charge = -1 Multiplicity = 1
 O                    -1.87409  -0.538     0. 
 O                    -3.96795   0.2246    0.01197 
 O                    -1.53306   3.47652  -1.54679 
 N                    -0.72943   1.92693   0. 
 C                    -2.74186   0.40291   0.01523 
 C                    -2.22837   1.85672   0.03708 
 C                    -2.69764   2.673    -1.21808 
 C                    -3.90649   3.56519  -0.99316 
 C                    -0.43588   2.6123   -1.31712 
 C                    -0.24476   2.80224   1.1505 
 H                    -2.55142   2.30081   0.84942 
 H                    -2.88251   2.05569  -1.95283 
 H                    -4.12737   4.01512  -1.81162 
 H                    -3.70326   4.21482  -0.31591 
 H                    -4.65169   3.02985  -0.71224 
 H                     0.3908    3.11704  -1.2638 
 H                    -0.35824   1.96063  -2.03166 
 O                     1.68522   4.71513   0.34469 
 N                     1.17691   2.73539   1.329 
 C                     2.04944   3.67425   0.90779 
 C                     3.50174   3.4065    1.22215 
 C                     3.91493   2.70999   2.34941 
 C                     5.27676   2.52591   2.62261 
 C                     6.21078   3.02132   1.77285 
 C                     5.83916   3.68549   0.64582 
 C                     4.47112   3.94615   0.37758 
 H                     3.27971   2.35939   2.93229 
 H                     5.53774   2.06314   3.38483 
 H                     7.11429   2.90692   1.96349 
 H                     6.48947   3.9704    0.04456 
 H                     4.22475   4.47075  -0.35192 
 H                     1.49549   2.04724   1.7345 
 H                    -0.68107   2.52071   1.96903 
 H                    -0.50041   3.72168   0.97869 
 
 ITRead=  0  0  0  0  0  0  0  0  0  0  0  0  0  0  0  0  0  0  0  0
 ITRead=  0  0  0  0  0  0  0  0  0  0  0  0  0  0
 MicOpt= -1 -1 -1 -1 -1 -1 -1 -1 -1 -1 -1 -1 -1 -1 -1 -1 -1 -1 -1 -1
 MicOpt= -1 -1 -1 -1 -1 -1 -1 -1 -1 -1 -1 -1 -1 -1
 NAtoms=     34 NQM=       34 NQMF=       0 NMMI=      0 NMMIF=      0
                NMic=       0 NMicF=      0.
                    Isotopes and Nuclear Properties:
 (Nuclear quadrupole moments (NQMom) in fm**2, nuclear magnetic moments (NMagM)
  in nuclear magnetons)

  Atom         1           2           3           4           5           6           7           8           9          10
 IAtWgt=          16          16          16          14          12          12          12          12          12          12
 AtmWgt=  15.9949146  15.9949146  15.9949146  14.0030740  12.0000000  12.0000000  12.0000000  12.0000000  12.0000000  12.0000000
 NucSpn=           0           0           0           2           0           0           0           0           0           0
 AtZEff=  -0.0000000  -0.0000000  -0.0000000  -0.0000000  -0.0000000  -0.0000000  -0.0000000  -0.0000000  -0.0000000  -0.0000000
 NQMom=    0.0000000   0.0000000   0.0000000   2.0440000   0.0000000   0.0000000   0.0000000   0.0000000   0.0000000   0.0000000
 NMagM=    0.0000000   0.0000000   0.0000000   0.4037610   0.0000000   0.0000000   0.0000000   0.0000000   0.0000000   0.0000000
 AtZNuc=   8.0000000   8.0000000   8.0000000   7.0000000   6.0000000   6.0000000   6.0000000   6.0000000   6.0000000   6.0000000

  Atom        11          12          13          14          15          16          17          18          19          20
 IAtWgt=           1           1           1           1           1           1           1          16          14          12
 AtmWgt=   1.0078250   1.0078250   1.0078250   1.0078250   1.0078250   1.0078250   1.0078250  15.9949146  14.0030740  12.0000000
 NucSpn=           1           1           1           1           1           1           1           0           2           0
 AtZEff=  -0.0000000  -0.0000000  -0.0000000  -0.0000000  -0.0000000  -0.0000000  -0.0000000  -0.0000000  -0.0000000  -0.0000000
 NQMom=    0.0000000   0.0000000   0.0000000   0.0000000   0.0000000   0.0000000   0.0000000   0.0000000   2.0440000   0.0000000
 NMagM=    2.7928460   2.7928460   2.7928460   2.7928460   2.7928460   2.7928460   2.7928460   0.0000000   0.4037610   0.0000000
 AtZNuc=   1.0000000   1.0000000   1.0000000   1.0000000   1.0000000   1.0000000   1.0000000   8.0000000   7.0000000   6.0000000

  Atom        21          22          23          24          25          26          27          28          29          30
 IAtWgt=          12          12          12          12          12          12           1           1           1           1
 AtmWgt=  12.0000000  12.0000000  12.0000000  12.0000000  12.0000000  12.0000000   1.0078250   1.0078250   1.0078250   1.0078250
 NucSpn=           0           0           0           0           0           0           1           1           1           1
 AtZEff=  -0.0000000  -0.0000000  -0.0000000  -0.0000000  -0.0000000  -0.0000000  -0.0000000  -0.0000000  -0.0000000  -0.0000000
 NQMom=    0.0000000   0.0000000   0.0000000   0.0000000   0.0000000   0.0000000   0.0000000   0.0000000   0.0000000   0.0000000
 NMagM=    0.0000000   0.0000000   0.0000000   0.0000000   0.0000000   0.0000000   2.7928460   2.7928460   2.7928460   2.7928460
 AtZNuc=   6.0000000   6.0000000   6.0000000   6.0000000   6.0000000   6.0000000   1.0000000   1.0000000   1.0000000   1.0000000

  Atom        31          32          33          34
 IAtWgt=           1           1           1           1
 AtmWgt=   1.0078250   1.0078250   1.0078250   1.0078250
 NucSpn=           1           1           1           1
 AtZEff=  -0.0000000  -0.0000000  -0.0000000  -0.0000000
 NQMom=    0.0000000   0.0000000   0.0000000   0.0000000
 NMagM=    2.7928460   2.7928460   2.7928460   2.7928460
 AtZNuc=   1.0000000   1.0000000   1.0000000   1.0000000
 Leave Link  101 at Mon Mar  6 10:21:46 2023, MaxMem=  1048576000 cpu:               0.1 elap:               0.1
 (Enter /ssoft/spack/external/gaussian/g16-C.01/avx2/g16/l103.exe)

 GradGradGradGradGradGradGradGradGradGradGradGradGradGradGradGradGradGrad
 Berny optimization.
 Initialization pass.
 Trust Radius=3.00D-01 FncErr=1.00D-07 GrdErr=1.00D-07 EigMax=2.50D+02 EigMin=1.00D-04
 Number of steps in this run=      2 maximum allowed number of steps=      2.
 GradGradGradGradGradGradGradGradGradGradGradGradGradGradGradGradGradGrad

 Leave Link  103 at Mon Mar  6 10:21:46 2023, MaxMem=  1048576000 cpu:               0.0 elap:               0.0
 (Enter /ssoft/spack/external/gaussian/g16-C.01/avx2/g16/l202.exe)
                          Input orientation:                          
 ---------------------------------------------------------------------
 Center     Atomic      Atomic             Coordinates (Angstroms)
 Number     Number       Type             X           Y           Z
 ---------------------------------------------------------------------
      1          8           0       -1.874086   -0.538003    0.000000
      2          8           0       -3.967950    0.224596    0.011974
      3          8           0       -1.533058    3.476521   -1.546794
      4          7           0       -0.729427    1.926927    0.000000
      5          6           0       -2.741864    0.402914    0.015231
      6          6           0       -2.228372    1.856724    0.037082
      7          6           0       -2.697636    2.672995   -1.218077
      8          6           0       -3.906492    3.565191   -0.993162
      9          6           0       -0.435884    2.612304   -1.317119
     10          6           0       -0.244756    2.802243    1.150505
     11          1           0       -2.551423    2.300814    0.849425
     12          1           0       -2.882510    2.055687   -1.952833
     13          1           0       -4.127367    4.015124   -1.811619
     14          1           0       -3.703256    4.214824   -0.315913
     15          1           0       -4.651689    3.029846   -0.712237
     16          1           0        0.390803    3.117036   -1.263804
     17          1           0       -0.358241    1.960633   -2.031658
     18          8           0        1.685221    4.715127    0.344686
     19          7           0        1.176911    2.735394    1.329002
     20          6           0        2.049440    3.674247    0.907792
     21          6           0        3.501743    3.406503    1.222147
     22          6           0        3.914930    2.709987    2.349410
     23          6           0        5.276765    2.525905    2.622607
     24          6           0        6.210780    3.021319    1.772853
     25          6           0        5.839158    3.685487    0.645821
     26          6           0        4.471118    3.946153    0.377577
     27          1           0        3.279710    2.359391    2.932291
     28          1           0        5.537739    2.063143    3.384827
     29          1           0        7.114288    2.906920    1.963495
     30          1           0        6.489472    3.970401    0.044556
     31          1           0        4.224749    4.470749   -0.351915
     32          1           0        1.495491    2.047235    1.734495
     33          1           0       -0.681069    2.520707    1.969032
     34          1           0       -0.500410    3.721682    0.978687
 ---------------------------------------------------------------------
                    Distance matrix (angstroms):
                    1          2          3          4          5
     1  O    0.000000
     2  O    2.228445   0.000000
     3  O    4.315701   4.351261   0.000000
     4  N    2.717743   3.658703   2.332302   0.000000
     5  C    1.280076   1.238990   3.653517   2.524430   0.000000
     6  C    2.421076   2.385499   2.369782   1.501046   1.541984
     7  C    3.531636   3.020163   1.452567   2.431908   2.583848
     8  C    4.685429   3.489076   2.438762   3.709989   3.517557
     9  C    3.705086   4.465773   1.415419   1.513510   3.460361
    10  C    3.890453   4.669335   3.064277   1.524712   3.644334
    11  H    3.039604   2.649255   2.856785   2.044746   2.081867
    12  H    3.399662   2.896816   2.001164   2.909622   2.573852
    13  H    5.393534   4.209395   2.662831   4.380471   4.278441
    14  H    5.102453   4.012417   2.601907   3.765359   3.945198
    15  H    4.577325   2.976811   3.259121   4.136164   3.328274
    16  H    4.481766   5.384472   1.977511   2.066028   4.337739
    17  H    3.559298   4.496694   1.978182   2.065562   3.506836
    18  O    6.354751   7.227303   3.933085   3.704510   6.188925
    19  N    4.667972   5.874373   4.020373   2.460486   4.745867
    20  C    5.827623   6.993680   4.347226   3.405776   5.869827
    21  C    6.778813   8.208859   5.746403   4.646029   7.032838
    22  C    7.041440   8.589561   6.741554   5.263360   7.421851
    23  C    8.209767   9.878066   8.041222   6.581124   8.695051
    24  C    9.009820  10.701818   8.437671   7.246184   9.491845
    25  C    8.817544  10.419160   7.694205   6.830514   9.209064
    26  C    7.778936   9.230467   6.322491   5.591557   8.044435
    27  H    6.599609   8.100257   6.668801   4.985833   6.971111
    28  H    8.553255  10.252537   8.735828   7.124113   9.091885
    29  H    9.824138  11.568029   9.350036   8.144911  10.354202
    30  H    9.501410  11.108096   8.193735   7.502685   9.896736
    31  H    7.899824   9.234854   5.963938   5.580209   8.075627
    32  H    4.587590   6.011512   4.688477   2.823687   4.859510
    33  H    3.828326   4.461590   3.741724   2.057182   3.542493
    34  H    4.581456   5.018763   2.739438   2.057042   4.119051
                    6          7          8          9         10
     6  C    0.000000
     7  C    1.569055   0.000000
     8  C    2.606982   1.519188   0.000000
     9  C    2.370185   2.264733   3.613594   0.000000
    10  C    2.463421   3.412258   4.311114   2.482292   0.000000
    11  H    0.980550   2.105816   2.613424   3.044084   2.379662
    12  H    2.104102   0.977300   2.061095   2.588423   4.140748
    13  H    3.417978   2.048837   0.959738   3.979885   5.031891
    14  H    2.803663   2.049977   0.960206   3.774415   4.013351
    15  H    2.794667   2.049766   0.959601   4.279397   4.789850
    16  H    3.184457   3.120531   4.329068   0.970055   2.516330
    17  H    2.790676   2.577236   4.030281   0.970190   3.293531
    18  O    4.856058   5.081532   5.863399   3.417974   2.834305
    19  N    3.746607   4.637199   5.649955   3.101325   1.434388
    20  C    4.728762   5.296843   6.252891   3.500684   2.466300
    21  C    6.053132   6.702613   7.733998   4.752213   3.795592
    22  C    6.619295   7.513611   8.548614   5.690567   4.329997
    23  C    7.966167   8.852319   9.924017   6.939976   5.721070
    24  C    8.694163   9.403556  10.502659   7.341210   6.489166
    25  C    8.294574   8.796368   9.883239   6.661907   6.168374
    26  C    7.026010   7.453729   8.497553   5.360021   4.913799
    27  H    6.242905   7.283719   8.276753   5.650406   3.974008
    28  H    8.459461   9.454102  10.517436   7.621946   6.243054
    29  H    9.596836  10.317508  11.429468   8.237374   7.404556
    30  H    8.970423   9.363784  10.455483   7.187429   6.923695
    31  H    6.973321   7.204274   8.206601   5.109494   5.001765
    32  H    4.096908   5.166388   6.239048   3.655388   1.984828
    33  H    2.562703   3.774572   4.502099   3.296558   0.969339
    34  H    2.711188   3.279225   3.938791   2.550610   0.969664
                   11         12         13         14         15
    11  H    0.000000
    12  H    2.832376   0.000000
    13  H    3.536045   2.325727   0.000000
    14  H    2.519556   2.831078   1.567446   0.000000
    15  H    2.716871   2.370245   1.566630   1.568685   0.000000
    16  H    3.713307   3.509387   4.639022   4.343380   5.073318
    17  H    3.636813   2.527288   4.298333   4.383410   4.617119
    18  O    4.902329   5.763278   6.239058   5.451823   6.641814
    19  N    3.784089   5.264156   6.295759   5.358217   6.182713
    20  C    4.801840   5.926806   6.757539   5.906198   6.924224
    21  C    6.164600   7.256988   8.232708   7.411546   8.388216
    22  C    6.650647   8.071096   9.148557   8.210069   9.102909
    23  C    8.029656   9.366404  10.503230   9.598339  10.485673
    24  C    8.840139   9.874265  10.986965  10.201741  11.143114
    25  C    8.506505   9.245363  10.270311   9.605352  10.598682
    26  C    7.228131   7.942324   8.873066   8.208136   9.233252
    27  H    6.192243   7.869537   8.950471   7.921822   8.754381
    28  H    8.480525   9.969517  11.145742  10.184361  11.024741
    29  H    9.748564  10.770245  11.910265  11.132186  12.067016
    30  H    9.228929   9.771885  10.777971  10.202028  11.206376
    31  H    7.215840   7.675192   8.490946   7.932216   8.999843
    32  H    4.150321   5.723928   6.932824   5.994129   6.688785
    33  H    2.190913   4.521461   5.329501   4.150256   4.818117
    34  H    2.498446   4.128408   4.585492   3.489613   4.535525
                   16         17         18         19         20
    16  H    0.000000
    17  H    1.577318   0.000000
    18  O    2.610872   4.172527   0.000000
    19  N    2.736103   3.775047   2.268612   0.000000
    20  C    2.788797   4.168184   1.238214   1.349136   0.000000
    21  C    3.992705   5.251405   2.404618   2.422116   1.509865
    22  C    5.063642   6.165653   3.607091   2.922093   2.547178
    23  C    6.271065   7.330416   4.783388   4.304196   3.830785
    24  C    6.565256   7.664946   5.038783   5.061482   4.300163
    25  C    5.801239   6.967909   4.290225   4.806866   3.798778
    26  C    4.475549   5.750601   2.890264   3.636337   2.493910
    27  H    5.150439   6.167210   3.845463   2.670894   2.709430
    28  H    7.015085   8.006959   5.578295   4.867768   4.571608
    29  H    7.460889   8.526159   5.946842   5.973646   5.230296
    30  H    6.295538   7.432429   4.870885   5.603423   4.532855
    31  H    4.166920   5.488716   2.644650   3.889248   2.636901
    32  H    3.369659   4.198539   3.014169   0.859930   1.907214
    33  H    3.457708   4.052581   3.612936   1.976820   3.148422
    34  H    2.487694   3.490513   2.483118   1.977091   2.551276
                   21         22         23         24         25
    21  C    0.000000
    22  C    1.388013   0.000000
    23  C    2.426406   1.401113   0.000000
    24  C    2.791152   2.387525   1.356430   0.000000
    25  C    2.423529   2.748903   2.359788   1.359936   0.000000
    26  C    1.394349   2.392818   2.776028   2.414236   1.418250
    27  H    2.017507   0.930684   2.027772   3.220811   3.679300
    28  H    3.259921   2.030765   0.929105   1.992372   3.197657
    29  H    3.721514   3.228561   1.988993   0.930461   1.992082
    30  H    3.260556   3.678215   3.194303   1.991341   0.930378
    31  H    2.032985   3.239356   3.706338   3.249586   2.053882
    32  H    2.476925   2.582837   3.913554   4.815004   4.768283
    33  H    4.340321   4.615595   5.993577   6.912791   6.754328
    34  H    4.021919   4.732613   6.124386   6.794209   6.348403
                   26         27         28         29         30
    26  C    0.000000
    27  H    3.234785   0.000000
    28  H    3.704991   2.321907   0.000000
    29  H    3.252920   3.992787   2.284218   0.000000
    30  H    2.045787   4.608356   3.962429   2.281165   0.000000
    31  H    0.931697   4.017081   4.635057   4.019468   2.352979
    32  H    3.781729   2.171542   4.366191   5.688795   5.611979
    33  H    5.577603   4.079419   6.394327   7.804920   7.564514
    34  H    5.012765   4.467853   6.708167   7.721225   7.056409
                   31         32         33         34
    31  H    0.000000
    32  H    4.204209   0.000000
    33  H    5.766845   2.239775   0.000000
    34  H    4.965755   2.712681   1.567087   0.000000
 Stoichiometry    C13H15N2O4(1-)
 Framework group  C1[X(C13H15N2O4)]
 Deg. of freedom    96
 Full point group                 C1      NOp   1
 Largest Abelian subgroup         C1      NOp   1
 Largest concise Abelian subgroup C1      NOp   1
                         Standard orientation:                         
 ---------------------------------------------------------------------
 Center     Atomic      Atomic             Coordinates (Angstroms)
 Number     Number       Type             X           Y           Z
 ---------------------------------------------------------------------
      1          8           0       -3.033722    2.432809    0.947917
      2          8           0       -4.868604    1.662172   -0.054726
      3          8           0       -2.308239   -1.803133    0.553273
      4          7           0       -1.465616    0.342793    0.200253
      5          6           0       -3.669462    1.573198    0.244000
      6          6           0       -2.892558    0.342552   -0.265553
      7          6           0       -3.489048   -1.004154    0.275294
      8          6           0       -4.406057   -1.737508   -0.688666
      9          6           0       -1.379184   -0.879335    1.088873
     10          6           0       -0.549708    0.163524   -1.005450
     11          1           0       -2.911158    0.332464   -1.245874
     12          1           0       -3.967090   -0.832188    1.110171
     13          1           0       -4.730337   -2.539304   -0.272658
     14          1           0       -3.918510   -1.964634   -1.484094
     15          1           0       -5.148305   -1.173491   -0.916231
     16          1           0       -0.482837   -1.249988    1.075277
     17          1           0       -1.609827   -0.653644    2.003824
     18          8           0        1.456169   -1.794522   -0.586166
     19          7           0        0.830486    0.383950   -0.683043
     20          6           0        1.737716   -0.593519   -0.478938
     21          6           0        3.141343   -0.130199   -0.170951
     22          6           0        3.676366    1.046926   -0.675635
     23          6           0        5.000311    1.412460   -0.398737
     24          6           0        5.773088    0.617037    0.382301
     25          6           0        5.271240   -0.529548    0.914200
     26          6           0        3.957606   -0.959827    0.596931
     27          1           0        3.149361    1.602228   -1.204860
     28          1           0        5.346210    2.200264   -0.749385
     29          1           0        6.655293    0.857366    0.554676
     30          1           0        5.795175   -1.035667    1.492940
     31          1           0        3.645758   -1.784913    0.896999
     32          1           0        1.098659    1.198223   -0.615799
     33          1           0       -0.816116    0.783565   -1.701290
     34          1           0       -0.655094   -0.735722   -1.352578
 ---------------------------------------------------------------------
 Rotational constants (GHZ):           0.9373011           0.1564151           0.1427087
 Leave Link  202 at Mon Mar  6 10:21:46 2023, MaxMem=  1048576000 cpu:               0.0 elap:               0.0
 (Enter /ssoft/spack/external/gaussian/g16-C.01/avx2/g16/l301.exe)
 Standard basis: def2SVP (5D, 7F)
 Ernie: Thresh=  0.10000D-02 Tol=  0.10000D-05 Strict=F.
 There are   360 symmetry adapted cartesian basis functions of A   symmetry.
 There are   341 symmetry adapted basis functions of A   symmetry.
   341 basis functions,   580 primitive gaussians,   360 cartesian basis functions
    70 alpha electrons       70 beta electrons
       nuclear repulsion energy      1405.7455785969 Hartrees.
 IExCor= 1009 DFT=T Ex+Corr=PBE1PBE ExCW=0 ScaHFX=  0.250000
 ScaDFX=  0.750000  0.750000  1.000000  1.000000 ScalE2=  1.000000  1.000000
 IRadAn=      5 IRanWt=     -1 IRanGd=            0 ICorTp=0 IEmpDi=141
 NAtoms=   34 NActive=   34 NUniq=   34 SFac= 1.00D+00 NAtFMM=   60 NAOKFM=F Big=F
 Integral buffers will be    131072 words long.
 Raffenetti 2 integral format.
 Two-electron integral symmetry is turned on.
 R6Disp:  Grimme-D3(BJ) Dispersion energy=       -0.0354540775 Hartrees.
 Nuclear repulsion after empirical dispersion term =     1405.7101245193 Hartrees.
 Leave Link  301 at Mon Mar  6 10:21:46 2023, MaxMem=  1048576000 cpu:               0.1 elap:               0.1
 (Enter /ssoft/spack/external/gaussian/g16-C.01/avx2/g16/l302.exe)
 NPDir=0 NMtPBC=     1 NCelOv=     1 NCel=       1 NClECP=     1 NCelD=      1
         NCelK=      1 NCelE2=     1 NClLst=     1 CellRange=     0.0.
 One-electron integrals computed using PRISM.
 One-electron integral symmetry used in STVInt
   1 Symmetry operations used in ECPInt.
 ECPInt:  NShTT=   12720 NPrTT=   46348 LenC2=   11121 LenP2D=   28521.
 LDataN:  DoStor=T MaxTD1= 4 Len=   56
 NBasis=   341 RedAO= T EigKep=  3.03D-04  NBF=   341
 NBsUse=   341 1.00D-06 EigRej= -1.00D+00 NBFU=   341
 Precomputing XC quadrature grid using
 IXCGrd= 4 IRadAn=           5 IRanWt=          -1 IRanGd=           0 AccXCQ= 0.00D+00.
 Generated NRdTot=       0 NPtTot=           0 NUsed=           0 NTot=          32
 NSgBfM=   357   357   357   357   357 MxSgAt=    34 MxSgA2=    34.
 Leave Link  302 at Mon Mar  6 10:21:47 2023, MaxMem=  1048576000 cpu:               1.2 elap:               1.2
 (Enter /ssoft/spack/external/gaussian/g16-C.01/avx2/g16/l303.exe)
 DipDrv:  MaxL=1.
 Leave Link  303 at Mon Mar  6 10:21:47 2023, MaxMem=  1048576000 cpu:               0.1 elap:               0.1
 (Enter /ssoft/spack/external/gaussian/g16-C.01/avx2/g16/l401.exe)
 ExpMin= 1.22D-01 ExpMax= 2.27D+03 ExpMxC= 3.41D+02 IAcc=3 IRadAn=         5 AccDes= 0.00D+00
 Harris functional with IExCor= 1009 and IRadAn=       5 diagonalized for initial guess.
 HarFok:  IExCor= 1009 AccDes= 0.00D+00 IRadAn=         5 IDoV= 1 UseB2=F ITyADJ=14
 ICtDFT=  3500011 ScaDFX=  1.000000  1.000000  1.000000  1.000000
 FoFCou: FMM=F IPFlag=           0 FMFlag=      100000 FMFlg1=           0
         NFxFlg=           0 DoJE=T BraDBF=F KetDBF=T FulRan=T
         wScrn=  0.000000 ICntrl=       500 IOpCl=  0 I1Cent=   200000004 NGrid=           0
         NMat0=    1 NMatS0=      1 NMatT0=    0 NMatD0=    1 NMtDS0=    0 NMtDT0=    0
 Petite list used in FoFCou.
 Harris En= -913.418123879969    
 JPrj=0 DoOrth=F DoCkMO=F.
 Leave Link  401 at Mon Mar  6 10:21:57 2023, MaxMem=  1048576000 cpu:              10.1 elap:              10.2
 (Enter /ssoft/spack/external/gaussian/g16-C.01/avx2/g16/l502.exe)
 Integral symmetry usage will be decided dynamically.
 Closed shell SCF:
 Using DIIS extrapolation, IDIIS=  1040.
 NGot=  1048576000 LenX=  1048309978 LenY=  1048179937
 Requested convergence on RMS density matrix=1.00D-08 within 128 cycles.
 Requested convergence on MAX density matrix=1.00D-06.
 Requested convergence on             energy=1.00D-06.
 No special actions if energy rises.
 Fock matrices will be formed incrementally for  20 cycles.
 Integral accuracy reduced to 1.0D-05 until final iterations.

 Cycle   1  Pass 0  IDiag  1:
 FoFJK:  IHMeth= 1 ICntrl=       0 DoSepK=F KAlg= 0 I1Cent=           0 FoldK=F
 IRaf= 800000000 NMat=       1 IRICut=       1 DoRegI=T DoRafI=F ISym2E= 0 IDoP0=0 IntGTp=1.
 FoFCou: FMM=F IPFlag=           0 FMFlag=      100000 FMFlg1=           0
         NFxFlg=           0 DoJE=F BraDBF=F KetDBF=F FulRan=T
         wScrn=  0.000000 ICntrl=         0 IOpCl=  0 I1Cent=           0 NGrid=           0
         NMat0=    1 NMatS0=      1 NMatT0=    0 NMatD0=    1 NMtDS0=    0 NMtDT0=    0
 Symmetry not used in FoFCou.
 E= -912.435505079597    
 DIIS: error= 3.97D-02 at cycle   1 NSaved=   1.
 NSaved= 1 IEnMin= 1 EnMin= -912.435505079597     IErMin= 1 ErrMin= 3.97D-02
 ErrMax= 3.97D-02  0.00D+00 EMaxC= 1.00D-01 BMatC= 5.18D-01 BMatP= 5.18D-01
 IDIUse=3 WtCom= 6.03D-01 WtEn= 3.97D-01
 Coeff-Com:  0.100D+01
 Coeff-En:   0.100D+01
 Coeff:      0.100D+01
 Gap=     0.179 Goal=   None    Shift=    0.000
 GapD=    0.179 DampG=1.000 DampE=0.500 DampFc=0.5000 IDamp=-1.
 Damping current iteration by 5.00D-01
 RMSDP=7.97D-03 MaxDP=4.12D-01              OVMax= 7.91D-01

 Cycle   2  Pass 0  IDiag  1:
 RMSU=  3.95D-03    CP:  9.72D-01
 E= -912.308803691423     Delta-E=        0.126701388174 Rises=F Damp=T
 DIIS: error= 2.65D-02 at cycle   2 NSaved=   2.
 NSaved= 2 IEnMin= 1 EnMin= -912.435505079597     IErMin= 2 ErrMin= 2.65D-02
 ErrMax= 2.65D-02  0.00D+00 EMaxC= 1.00D-01 BMatC= 1.62D-01 BMatP= 5.18D-01
 IDIUse=3 WtCom= 7.35D-01 WtEn= 2.65D-01
 Coeff-Com:  0.281D+00 0.719D+00
 Coeff-En:   0.596D+00 0.404D+00
 Coeff:      0.365D+00 0.635D+00
 Gap=     0.389 Goal=   None    Shift=    0.000
 RMSDP=3.53D-03 MaxDP=1.69D-01 DE= 1.27D-01 OVMax= 5.31D-01

 Cycle   3  Pass 0  IDiag  1:
 RMSU=  3.00D-03    CP:  9.49D-01  5.42D-01
 E= -912.716969291496     Delta-E=       -0.408165600074 Rises=F Damp=F
 DIIS: error= 2.21D-02 at cycle   3 NSaved=   3.
 NSaved= 3 IEnMin= 3 EnMin= -912.716969291496     IErMin= 3 ErrMin= 2.21D-02
 ErrMax= 2.21D-02  0.00D+00 EMaxC= 1.00D-01 BMatC= 2.08D-01 BMatP= 1.62D-01
 IDIUse=2 WtCom= 0.00D+00 WtEn= 1.00D+00
 Coeff-En:   0.000D+00 0.202D+00 0.798D+00
 Coeff:      0.000D+00 0.202D+00 0.798D+00
 Gap=     0.497 Goal=   None    Shift=    0.000
 RMSDP=4.90D-03 MaxDP=3.45D-01 DE=-4.08D-01 OVMax= 9.69D-01

 Cycle   4  Pass 0  IDiag  1:
 RMSU=  2.94D-03    CP:  9.49D-01  1.00D+00 -1.59D-01
 E= -911.010464437589     Delta-E=        1.706504853908 Rises=F Damp=F
 DIIS: error= 8.05D-02 at cycle   4 NSaved=   4.
 NSaved= 4 IEnMin= 3 EnMin= -912.716969291496     IErMin= 3 ErrMin= 2.21D-02
 ErrMax= 8.05D-02  0.00D+00 EMaxC= 1.00D-01 BMatC= 1.07D+00 BMatP= 1.62D-01
 IDIUse=2 WtCom= 0.00D+00 WtEn= 1.00D+00
 Coeff-En:   0.000D+00 0.000D+00 0.827D+00 0.173D+00
 Coeff:      0.000D+00 0.000D+00 0.827D+00 0.173D+00
 Gap=     0.034 Goal=   None    Shift=    0.000
 RMSDP=4.38D-03 MaxDP=2.71D-01 DE= 1.71D+00 OVMax= 9.87D-01

 Cycle   5  Pass 0  IDiag  1:
 RMSU=  1.72D-03    CP:  9.63D-01  5.09D-01  4.73D-01 -8.07D-03
 E= -912.895825827008     Delta-E=       -1.885361389419 Rises=F Damp=F
 DIIS: error= 5.23D-03 at cycle   5 NSaved=   5.
 NSaved= 5 IEnMin= 5 EnMin= -912.895825827008     IErMin= 5 ErrMin= 5.23D-03
 ErrMax= 5.23D-03  0.00D+00 EMaxC= 1.00D-01 BMatC= 2.70D-02 BMatP= 1.62D-01
 IDIUse=3 WtCom= 9.48D-01 WtEn= 5.23D-02
 Coeff-Com: -0.179D-02 0.116D+00 0.298D+00 0.263D-01 0.561D+00
 Coeff-En:   0.000D+00 0.000D+00 0.354D-02 0.000D+00 0.996D+00
 Coeff:     -0.169D-02 0.110D+00 0.283D+00 0.249D-01 0.584D+00
 Gap=     0.101 Goal=   None    Shift=    0.000
 RMSDP=8.23D-04 MaxDP=2.74D-02 DE=-1.89D+00 OVMax= 5.98D-02

 Cycle   6  Pass 0  IDiag  1:
 RMSU=  5.44D-04    CP:  9.57D-01  5.40D-01  6.19D-01 -6.07D-03  7.66D-01
 E= -912.912904594418     Delta-E=       -0.017078767411 Rises=F Damp=F
 DIIS: error= 4.53D-03 at cycle   6 NSaved=   6.
 NSaved= 6 IEnMin= 6 EnMin= -912.912904594418     IErMin= 6 ErrMin= 4.53D-03
 ErrMax= 4.53D-03  0.00D+00 EMaxC= 1.00D-01 BMatC= 8.49D-03 BMatP= 2.70D-02
 IDIUse=3 WtCom= 9.55D-01 WtEn= 4.53D-02
 Coeff-Com: -0.347D-01 0.760D-01 0.552D-01-0.188D-02 0.332D+00 0.574D+00
 Coeff-En:   0.000D+00 0.000D+00 0.000D+00 0.000D+00 0.214D+00 0.786D+00
 Coeff:     -0.331D-01 0.726D-01 0.527D-01-0.180D-02 0.326D+00 0.583D+00
 Gap=     0.076 Goal=   None    Shift=    0.000
 RMSDP=3.39D-04 MaxDP=1.18D-02 DE=-1.71D-02 OVMax= 2.84D-02

 Cycle   7  Pass 0  IDiag  1:
 RMSU=  1.71D-04    CP:  9.58D-01  5.65D-01  5.79D-01 -2.08D-02  8.98D-01
                    CP:  8.32D-01
 E= -912.920756496019     Delta-E=       -0.007851901601 Rises=F Damp=F
 DIIS: error= 1.50D-03 at cycle   7 NSaved=   7.
 NSaved= 7 IEnMin= 7 EnMin= -912.920756496019     IErMin= 7 ErrMin= 1.50D-03
 ErrMax= 1.50D-03  0.00D+00 EMaxC= 1.00D-01 BMatC= 5.69D-04 BMatP= 8.49D-03
 IDIUse=3 WtCom= 9.85D-01 WtEn= 1.50D-02
 Coeff-Com: -0.185D-01 0.357D-01-0.314D-01-0.434D-02 0.621D-01 0.269D+00
 Coeff-Com:  0.687D+00
 Coeff-En:   0.000D+00 0.000D+00 0.000D+00 0.000D+00 0.000D+00 0.000D+00
 Coeff-En:   0.100D+01
 Coeff:     -0.182D-01 0.352D-01-0.310D-01-0.428D-02 0.612D-01 0.265D+00
 Coeff:      0.692D+00
 Gap=     0.069 Goal=   None    Shift=    0.000
 RMSDP=1.21D-04 MaxDP=6.11D-03 DE=-7.85D-03 OVMax= 8.83D-03

 Cycle   8  Pass 0  IDiag  1:
 RMSU=  7.57D-05    CP:  9.58D-01  5.73D-01  5.69D-01 -2.79D-02  9.28D-01
                    CP:  9.35D-01  8.70D-01
 E= -912.921283681814     Delta-E=       -0.000527185794 Rises=F Damp=F
 DIIS: error= 5.06D-04 at cycle   8 NSaved=   8.
 NSaved= 8 IEnMin= 8 EnMin= -912.921283681814     IErMin= 8 ErrMin= 5.06D-04
 ErrMax= 5.06D-04  0.00D+00 EMaxC= 1.00D-01 BMatC= 1.09D-04 BMatP= 5.69D-04
 IDIUse=3 WtCom= 9.95D-01 WtEn= 5.06D-03
 Coeff-Com: -0.645D-02 0.927D-02-0.314D-01-0.512D-03-0.220D-01 0.543D-01
 Coeff-Com:  0.375D+00 0.622D+00
 Coeff-En:   0.000D+00 0.000D+00 0.000D+00 0.000D+00 0.000D+00 0.000D+00
 Coeff-En:   0.000D+00 0.100D+01
 Coeff:     -0.641D-02 0.923D-02-0.312D-01-0.510D-03-0.219D-01 0.540D-01
 Coeff:      0.373D+00 0.624D+00
 Gap=     0.067 Goal=   None    Shift=    0.000
 RMSDP=5.12D-05 MaxDP=2.46D-03 DE=-5.27D-04 OVMax= 3.45D-03

 Cycle   9  Pass 0  IDiag  1:
 RMSU=  2.51D-05    CP:  9.59D-01  5.77D-01  5.63D-01 -2.94D-02  9.43D-01
                    CP:  9.60D-01  1.00D+00  8.51D-01
 E= -912.921395316236     Delta-E=       -0.000111634423 Rises=F Damp=F
 DIIS: error= 2.26D-04 at cycle   9 NSaved=   9.
 NSaved= 9 IEnMin= 9 EnMin= -912.921395316236     IErMin= 9 ErrMin= 2.26D-04
 ErrMax= 2.26D-04  0.00D+00 EMaxC= 1.00D-01 BMatC= 1.72D-05 BMatP= 1.09D-04
 IDIUse=3 WtCom= 9.98D-01 WtEn= 2.26D-03
 Coeff-Com: -0.217D-02 0.981D-03-0.159D-01 0.667D-03-0.189D-01 0.157D-03
 Coeff-Com:  0.115D+00 0.335D+00 0.585D+00
 Coeff-En:   0.000D+00 0.000D+00 0.000D+00 0.000D+00 0.000D+00 0.000D+00
 Coeff-En:   0.000D+00 0.000D+00 0.100D+01
 Coeff:     -0.216D-02 0.979D-03-0.159D-01 0.665D-03-0.188D-01 0.157D-03
 Coeff:      0.115D+00 0.335D+00 0.586D+00
 Gap=     0.066 Goal=   None    Shift=    0.000
 RMSDP=1.73D-05 MaxDP=7.58D-04 DE=-1.12D-04 OVMax= 1.11D-03

 Cycle  10  Pass 0  IDiag  1:
 RMSU=  1.01D-05    CP:  9.59D-01  5.78D-01  5.62D-01 -3.00D-02  9.48D-01
                    CP:  9.71D-01  1.01D+00  9.42D-01  7.94D-01
 E= -912.921409598303     Delta-E=       -0.000014282067 Rises=F Damp=F
 DIIS: error= 5.33D-05 at cycle  10 NSaved=  10.
 NSaved=10 IEnMin=10 EnMin= -912.921409598303     IErMin=10 ErrMin= 5.33D-05
 ErrMax= 5.33D-05  0.00D+00 EMaxC= 1.00D-01 BMatC= 1.33D-06 BMatP= 1.72D-05
 IDIUse=1 WtCom= 1.00D+00 WtEn= 0.00D+00
 Coeff-Com: -0.176D-03 0.363D-03-0.247D-02 0.118D-03-0.381D-02-0.650D-02
 Coeff-Com: -0.729D-02 0.395D-01 0.229D+00 0.752D+00
 Coeff:     -0.176D-03 0.363D-03-0.247D-02 0.118D-03-0.381D-02-0.650D-02
 Coeff:     -0.729D-02 0.395D-01 0.229D+00 0.752D+00
 Gap=     0.065 Goal=   None    Shift=    0.000
 RMSDP=5.98D-06 MaxDP=2.40D-04 DE=-1.43D-05 OVMax= 3.80D-04

 Initial convergence to 1.0D-05 achieved.  Increase integral accuracy.
 Cycle  11  Pass 1  IDiag  1:
 E= -912.921414475692     Delta-E=       -0.000004877389 Rises=F Damp=F
 DIIS: error= 6.89D-05 at cycle   1 NSaved=   1.
 NSaved= 1 IEnMin= 1 EnMin= -912.921414475692     IErMin= 1 ErrMin= 6.89D-05
 ErrMax= 6.89D-05  0.00D+00 EMaxC= 1.00D-01 BMatC= 1.39D-06 BMatP= 1.39D-06
 IDIUse=1 WtCom= 1.00D+00 WtEn= 0.00D+00
 Coeff-Com:  0.100D+01
 Coeff:      0.100D+01
 Gap=     0.065 Goal=   None    Shift=    0.000
 RMSDP=5.98D-06 MaxDP=2.40D-04 DE=-4.88D-06 OVMax= 4.37D-04

 Cycle  12  Pass 1  IDiag  1:
 RMSU=  9.43D-05    CP:  1.00D+00
 E= -912.921415202992     Delta-E=       -0.000000727301 Rises=F Damp=F
 DIIS: error= 5.84D-05 at cycle   2 NSaved=   2.
 NSaved= 2 IEnMin= 2 EnMin= -912.921415202992     IErMin= 2 ErrMin= 5.84D-05
 ErrMax= 5.84D-05  0.00D+00 EMaxC= 1.00D-01 BMatC= 1.12D-06 BMatP= 1.39D-06
 IDIUse=1 WtCom= 1.00D+00 WtEn= 0.00D+00
 Coeff-Com:  0.463D+00 0.537D+00
 Coeff:      0.463D+00 0.537D+00
 Gap=     0.065 Goal=   None    Shift=    0.000
 RMSDP=5.43D-06 MaxDP=3.32D-04 DE=-7.27D-07 OVMax= 4.05D-04

 Cycle  13  Pass 1  IDiag  1:
 RMSU=  5.40D-06    CP:  1.00D+00  1.01D+00
 E= -912.921415766888     Delta-E=       -0.000000563895 Rises=F Damp=F
 DIIS: error= 3.95D-05 at cycle   3 NSaved=   3.
 NSaved= 3 IEnMin= 3 EnMin= -912.921415766888     IErMin= 3 ErrMin= 3.95D-05
 ErrMax= 3.95D-05  0.00D+00 EMaxC= 1.00D-01 BMatC= 4.37D-07 BMatP= 1.12D-06
 IDIUse=1 WtCom= 1.00D+00 WtEn= 0.00D+00
 Coeff-Com:  0.222D-01 0.381D+00 0.597D+00
 Coeff:      0.222D-01 0.381D+00 0.597D+00
 Gap=     0.065 Goal=   None    Shift=    0.000
 RMSDP=2.36D-06 MaxDP=1.51D-04 DE=-5.64D-07 OVMax= 1.75D-04

 Cycle  14  Pass 1  IDiag  1:
 RMSU=  1.01D-06    CP:  1.00D+00  1.01D+00  6.39D-01
 E= -912.921416100135     Delta-E=       -0.000000333247 Rises=F Damp=F
 DIIS: error= 7.55D-06 at cycle   4 NSaved=   4.
 NSaved= 4 IEnMin= 4 EnMin= -912.921416100135     IErMin= 4 ErrMin= 7.55D-06
 ErrMax= 7.55D-06  0.00D+00 EMaxC= 1.00D-01 BMatC= 2.36D-08 BMatP= 4.37D-07
 IDIUse=1 WtCom= 1.00D+00 WtEn= 0.00D+00
 Coeff-Com: -0.378D-02 0.207D+00 0.358D+00 0.439D+00
 Coeff:     -0.378D-02 0.207D+00 0.358D+00 0.439D+00
 Gap=     0.065 Goal=   None    Shift=    0.000
 RMSDP=5.80D-07 MaxDP=3.08D-05 DE=-3.33D-07 OVMax= 3.96D-05

 Cycle  15  Pass 1  IDiag  1:
 RMSU=  2.55D-07    CP:  1.00D+00  1.02D+00  6.45D-01  4.98D-01
 E= -912.921416119963     Delta-E=       -0.000000019828 Rises=F Damp=F
 DIIS: error= 1.54D-06 at cycle   5 NSaved=   5.
 NSaved= 5 IEnMin= 5 EnMin= -912.921416119963     IErMin= 5 ErrMin= 1.54D-06
 ErrMax= 1.54D-06  0.00D+00 EMaxC= 1.00D-01 BMatC= 7.92D-10 BMatP= 2.36D-08
 IDIUse=1 WtCom= 1.00D+00 WtEn= 0.00D+00
 Coeff-Com: -0.299D-02 0.109D+00 0.190D+00 0.260D+00 0.444D+00
 Coeff:     -0.299D-02 0.109D+00 0.190D+00 0.260D+00 0.444D+00
 Gap=     0.065 Goal=   None    Shift=    0.000
 RMSDP=9.44D-08 MaxDP=4.57D-06 DE=-1.98D-08 OVMax= 8.66D-06

 Cycle  16  Pass 1  IDiag  1:
 RMSU=  7.66D-08    CP:  1.00D+00  1.02D+00  6.43D-01  5.18D-01  8.03D-01
 E= -912.921416120705     Delta-E=       -0.000000000742 Rises=F Damp=F
 DIIS: error= 1.41D-07 at cycle   6 NSaved=   6.
 NSaved= 6 IEnMin= 6 EnMin= -912.921416120705     IErMin= 6 ErrMin= 1.41D-07
 ErrMax= 1.41D-07  0.00D+00 EMaxC= 1.00D-01 BMatC= 9.73D-12 BMatP= 7.92D-10
 IDIUse=1 WtCom= 1.00D+00 WtEn= 0.00D+00
 Coeff-Com: -0.993D-03 0.337D-01 0.596D-01 0.842D-01 0.172D+00 0.652D+00
 Coeff:     -0.993D-03 0.337D-01 0.596D-01 0.842D-01 0.172D+00 0.652D+00
 Gap=     0.065 Goal=   None    Shift=    0.000
 RMSDP=2.06D-08 MaxDP=9.63D-07 DE=-7.42D-10 OVMax= 2.88D-06

 Cycle  17  Pass 1  IDiag  1:
 RMSU=  1.79D-08    CP:  1.00D+00  1.02D+00  6.43D-01  5.16D-01  8.39D-01
                    CP:  1.03D+00
 E= -912.921416120719     Delta-E=       -0.000000000014 Rises=F Damp=F
 DIIS: error= 6.69D-08 at cycle   7 NSaved=   7.
 NSaved= 7 IEnMin= 7 EnMin= -912.921416120719     IErMin= 7 ErrMin= 6.69D-08
 ErrMax= 6.69D-08  0.00D+00 EMaxC= 1.00D-01 BMatC= 2.50D-12 BMatP= 9.73D-12
 IDIUse=1 WtCom= 1.00D+00 WtEn= 0.00D+00
 Coeff-Com:  0.594D-04-0.344D-02-0.562D-02-0.576D-02 0.477D-02 0.346D+00
 Coeff-Com:  0.664D+00
 Coeff:      0.594D-04-0.344D-02-0.562D-02-0.576D-02 0.477D-02 0.346D+00
 Coeff:      0.664D+00
 Gap=     0.065 Goal=   None    Shift=    0.000
 RMSDP=1.08D-08 MaxDP=3.50D-07 DE=-1.36D-11 OVMax= 1.83D-06

 Cycle  18  Pass 1  IDiag  1:
 RMSU=  8.32D-09    CP:  1.00D+00  1.02D+00  6.43D-01  5.19D-01  8.55D-01
                    CP:  1.09D+00  9.76D-01
 E= -912.921416120720     Delta-E=       -0.000000000001 Rises=F Damp=F
 DIIS: error= 2.56D-08 at cycle   8 NSaved=   8.
 NSaved= 8 IEnMin= 8 EnMin= -912.921416120720     IErMin= 8 ErrMin= 2.56D-08
 ErrMax= 2.56D-08  0.00D+00 EMaxC= 1.00D-01 BMatC= 3.00D-13 BMatP= 2.50D-12
 IDIUse=1 WtCom= 1.00D+00 WtEn= 0.00D+00
 Coeff-Com:  0.943D-04-0.398D-02-0.674D-02-0.807D-02-0.738D-02 0.153D+00
 Coeff-Com:  0.366D+00 0.507D+00
 Coeff:      0.943D-04-0.398D-02-0.674D-02-0.807D-02-0.738D-02 0.153D+00
 Coeff:      0.366D+00 0.507D+00
 Gap=     0.065 Goal=   None    Shift=    0.000
 RMSDP=3.03D-09 MaxDP=9.19D-08 DE=-1.36D-12 OVMax= 4.58D-07

 SCF Done:  E(RPBE1PBE) =  -912.921416121     A.U. after   18 cycles
            NFock= 18  Conv=0.30D-08     -V/T= 2.0051
 KE= 9.083163338563D+02 PE=-4.962460009866D+03 EE= 1.735512135370D+03
 Leave Link  502 at Mon Mar  6 10:27:44 2023, MaxMem=  1048576000 cpu:             343.4 elap:             346.4
 (Enter /ssoft/spack/external/gaussian/g16-C.01/avx2/g16/l801.exe)
 DoSCS=F DFT=T ScalE2(SS,OS)=  1.000000  1.000000
 Range of M.O.s used for correlation:     1   341
 NBasis=   341 NAE=    70 NBE=    70 NFC=     0 NFV=     0
 NROrb=    341 NOA=    70 NOB=    70 NVA=   271 NVB=   271

 **** Warning!!: The largest alpha MO coefficient is  0.10947014D+02


 **** Warning!!: The smallest alpha delta epsilon is  0.65148500D-01

 Leave Link  801 at Mon Mar  6 10:27:44 2023, MaxMem=  1048576000 cpu:               0.1 elap:               0.1
 (Enter /ssoft/spack/external/gaussian/g16-C.01/avx2/g16/l1101.exe)
 Using compressed storage, NAtomX=    34.
 Will process     35 centers per pass.
   1 Symmetry operations used in ECPInt.
 ECPInt:  NShTT=   12720 NPrTT=   46348 LenC2=   11121 LenP2D=   28521.
 LDataN:  DoStor=T MaxTD1= 5 Len=  102
 R6Disp: Adding Grimme-D3(BJ) dispersion energy 1st derivatives to the gradient.
 Leave Link 1101 at Mon Mar  6 10:27:45 2023, MaxMem=  1048576000 cpu:               0.6 elap:               0.6
 (Enter /ssoft/spack/external/gaussian/g16-C.01/avx2/g16/l1102.exe)
 Symmetrizing basis deriv contribution to polar:
 IMax=3 JMax=2 DiffMx= 0.00D+00
 Leave Link 1102 at Mon Mar  6 10:27:45 2023, MaxMem=  1048576000 cpu:               0.1 elap:               0.1
 (Enter /ssoft/spack/external/gaussian/g16-C.01/avx2/g16/l1110.exe)
 Forming Gx(P) for the SCF density, NAtomX=    34.
 Integral derivatives from FoFJK, PRISM(SPDF).
 Do as many integral derivatives as possible in FoFJK.
 G2DrvN: MDV=    1048572362.
 G2DrvN: will do    35 centers at a time, making    1 passes.
 Calling FoFCou, ICntrl=  3107 FMM=F I1Cent=   0 AccDes= 0.00D+00.
 FoFJK:  IHMeth= 1 ICntrl=    3107 DoSepK=F KAlg= 0 I1Cent=           0 FoldK=F
 IRaf=         0 NMat=       1 IRICut=       1 DoRegI=T DoRafI=F ISym2E= 0 IDoP0=0 IntGTp=1.
 FoFCou: FMM=F IPFlag=           0 FMFlag=      100000 FMFlg1=           0
         NFxFlg=           0 DoJE=F BraDBF=F KetDBF=F FulRan=T
         wScrn=  0.000000 ICntrl=      3107 IOpCl=  0 I1Cent=           0 NGrid=           0
         NMat0=    1 NMatS0=      1 NMatT0=    0 NMatD0=    1 NMtDS0=    0 NMtDT0=    0
 Symmetry not used in FoFCou.
 End of G2Drv F.D. properties file   721 does not exist.
 End of G2Drv F.D. properties file   722 does not exist.
 End of G2Drv F.D. properties file   788 does not exist.
 Leave Link 1110 at Mon Mar  6 10:40:31 2023, MaxMem=  1048576000 cpu:             761.8 elap:             765.8
 (Enter /ssoft/spack/external/gaussian/g16-C.01/avx2/g16/l1002.exe)
 Minotr:  Closed shell wavefunction.
          IDoAtm=1111111111111111111111111111111111
          Direct CPHF calculation.
          Differentiating once with respect to electric field.
                with respect to dipole field.
          Differentiating once with respect to nuclear coordinates.
          Requested convergence is 1.0D-08 RMS, and 1.0D-07 maximum.
          Secondary convergence is 1.0D-12 RMS, and 1.0D-12 maximum.
          NewPWx=T KeepS1=F KeepF1=F KeepIn=T MapXYZ=F SortEE=F KeepMc=T.
        10329 words used for storage of precomputed grid.
 Two-electron integrals replicated using symmetry.
          MDV=    1048576000 using IRadAn=       1.
          Solving linear equations simultaneously, MaxMat=     384.
 FoF2E skips out because all densities are zero.
 CalDSu exits because no D1Ps are significant.
 FoFJK:  IHMeth= 1 ICntrl=       0 DoSepK=F KAlg= 0 I1Cent=           0 FoldK=F
 IRaf= 770000000 NMat=     102 IRICut=     255 DoRegI=T DoRafI=T ISym2E= 2 IDoP0=3 IntGTp=3.
 FoFCou: FMM=F IPFlag=           0 FMFlag=      100000 FMFlg1=           0
         NFxFlg=           0 DoJE=F BraDBF=F KetDBF=F FulRan=T
         wScrn=  0.000000 ICntrl=         0 IOpCl=  0 I1Cent=           0 NGrid=           0
         NMat0=  102 NMatS0=    102 NMatT0=    0 NMatD0=  102 NMtDS0=    0 NMtDT0=    0
 Integrals replicated using symmetry in FoFCou.
 Raff kept on since  72.25% of shell-pairs survive, threshold=   0.20 IRatSp=72.
          There are   105 degrees of freedom in the 1st order CPHF.  IDoFFX=6 NUNeed=     3.
    102 vectors produced by pass  0 Test12= 1.90D-14 1.00D-09 XBig12= 1.70D+02 5.73D+00.
 AX will form   102 AO Fock derivatives at one time.
    102 vectors produced by pass  1 Test12= 1.90D-14 1.00D-09 XBig12= 3.88D+01 1.50D+00.
    102 vectors produced by pass  2 Test12= 1.90D-14 1.00D-09 XBig12= 2.68D-01 1.26D-01.
    102 vectors produced by pass  3 Test12= 1.90D-14 1.00D-09 XBig12= 1.19D-03 7.13D-03.
    102 vectors produced by pass  4 Test12= 1.90D-14 1.00D-09 XBig12= 3.30D-06 2.01D-04.
    100 vectors produced by pass  5 Test12= 1.90D-14 1.00D-09 XBig12= 4.81D-09 6.89D-06.
     34 vectors produced by pass  6 Test12= 1.90D-14 1.00D-09 XBig12= 5.58D-12 2.78D-07.
      3 vectors produced by pass  7 Test12= 1.90D-14 1.00D-09 XBig12= 6.22D-15 9.60D-09.
      1 vectors produced by pass  8 Test12= 1.90D-14 1.00D-09 XBig12= 2.24D-16 1.64D-09.
 InvSVY:  IOpt=1 It=  1 EMax= 8.88D-15
 Solved reduced A of dimension   648 with   105 vectors.
 FullF1:  Do perturbations      1 to       3.
 Isotropic polarizability for W=    0.000000      149.53 Bohr**3.
 End of Minotr F.D. properties file   721 does not exist.
 End of Minotr F.D. properties file   722 does not exist.
 End of Minotr F.D. properties file   788 does not exist.
 Leave Link 1002 at Mon Mar  6 11:04:25 2023, MaxMem=  1048576000 cpu:            1426.4 elap:            1434.9
 (Enter /ssoft/spack/external/gaussian/g16-C.01/avx2/g16/l601.exe)
 Copying SCF densities to generalized density rwf, IOpCl= 0 IROHF=0.

 **********************************************************************

            Population analysis using the SCF Density.

 **********************************************************************

 Orbital symmetries:
       Occupied  (A) (A) (A) (A) (A) (A) (A) (A) (A) (A) (A) (A)
                 (A) (A) (A) (A) (A) (A) (A) (A) (A) (A) (A) (A)
                 (A) (A) (A) (A) (A) (A) (A) (A) (A) (A) (A) (A)
                 (A) (A) (A) (A) (A) (A) (A) (A) (A) (A) (A) (A)
                 (A) (A) (A) (A) (A) (A) (A) (A) (A) (A) (A) (A)
                 (A) (A) (A) (A) (A) (A) (A) (A) (A) (A)
       Virtual   (A) (A) (A) (A) (A) (A) (A) (A) (A) (A) (A) (A)
                 (A) (A) (A) (A) (A) (A) (A) (A) (A) (A) (A) (A)
                 (A) (A) (A) (A) (A) (A) (A) (A) (A) (A) (A) (A)
                 (A) (A) (A) (A) (A) (A) (A) (A) (A) (A) (A) (A)
                 (A) (A) (A) (A) (A) (A) (A) (A) (A) (A) (A) (A)
                 (A) (A) (A) (A) (A) (A) (A) (A) (A) (A) (A) (A)
                 (A) (A) (A) (A) (A) (A) (A) (A) (A) (A) (A) (A)
                 (A) (A) (A) (A) (A) (A) (A) (A) (A) (A) (A) (A)
                 (A) (A) (A) (A) (A) (A) (A) (A) (A) (A) (A) (A)
                 (A) (A) (A) (A) (A) (A) (A) (A) (A) (A) (A) (A)
                 (A) (A) (A) (A) (A) (A) (A) (A) (A) (A) (A) (A)
                 (A) (A) (A) (A) (A) (A) (A) (A) (A) (A) (A) (A)
                 (A) (A) (A) (A) (A) (A) (A) (A) (A) (A) (A) (A)
                 (A) (A) (A) (A) (A) (A) (A) (A) (A) (A) (A) (A)
                 (A) (A) (A) (A) (A) (A) (A) (A) (A) (A) (A) (A)
                 (A) (A) (A) (A) (A) (A) (A) (A) (A) (A) (A) (A)
                 (A) (A) (A) (A) (A) (A) (A) (A) (A) (A) (A) (A)
                 (A) (A) (A) (A) (A) (A) (A) (A) (A) (A) (A) (A)
                 (A) (A) (A) (A) (A) (A) (A) (A) (A) (A) (A) (A)
                 (A) (A) (A) (A) (A) (A) (A) (A) (A) (A) (A) (A)
                 (A) (A) (A) (A) (A) (A) (A) (A) (A) (A) (A) (A)
                 (A) (A) (A) (A) (A) (A) (A) (A) (A) (A) (A) (A)
                 (A) (A) (A) (A) (A) (A) (A)
 The electronic state is 1-A.
 Alpha  occ. eigenvalues --  -19.08303 -19.07611 -18.93981 -18.92514 -14.31391
 Alpha  occ. eigenvalues --  -14.24651 -10.24617 -10.17713 -10.16437 -10.16184
 Alpha  occ. eigenvalues --  -10.16043 -10.16036 -10.15676 -10.15423 -10.14228
 Alpha  occ. eigenvalues --  -10.13205 -10.10435 -10.08818 -10.06038  -0.96076
 Alpha  occ. eigenvalues --   -0.92867  -0.87083  -0.82801  -0.82412  -0.76786
 Alpha  occ. eigenvalues --   -0.72730  -0.72278  -0.71571  -0.67827  -0.63505
 Alpha  occ. eigenvalues --   -0.59510  -0.59050  -0.58048  -0.54042  -0.52153
 Alpha  occ. eigenvalues --   -0.50615  -0.48983  -0.46524  -0.42834  -0.41760
 Alpha  occ. eigenvalues --   -0.40225  -0.39426  -0.38848  -0.38566  -0.37575
 Alpha  occ. eigenvalues --   -0.35245  -0.34833  -0.33594  -0.32174  -0.31922
 Alpha  occ. eigenvalues --   -0.31172  -0.30849  -0.30703  -0.29318  -0.27649
 Alpha  occ. eigenvalues --   -0.26214  -0.24383  -0.23683  -0.21751  -0.21095
 Alpha  occ. eigenvalues --   -0.20461  -0.19234  -0.18138  -0.17785  -0.17110
 Alpha  occ. eigenvalues --   -0.14608  -0.10478  -0.04502  -0.04396  -0.02197
 Alpha virt. eigenvalues --    0.04317   0.05092   0.14130   0.15896   0.18031
 Alpha virt. eigenvalues --    0.19694   0.20968   0.21744   0.22897   0.23411
 Alpha virt. eigenvalues --    0.23750   0.24753   0.25624   0.26823   0.27438
 Alpha virt. eigenvalues --    0.27888   0.28682   0.29109   0.29757   0.30930
 Alpha virt. eigenvalues --    0.31712   0.32169   0.32530   0.33591   0.34818
 Alpha virt. eigenvalues --    0.36683   0.36832   0.37748   0.38465   0.39201
 Alpha virt. eigenvalues --    0.39532   0.41012   0.41796   0.44595   0.45844
 Alpha virt. eigenvalues --    0.46472   0.47716   0.50083   0.50467   0.53146
 Alpha virt. eigenvalues --    0.53789   0.54546   0.56110   0.56570   0.57087
 Alpha virt. eigenvalues --    0.57826   0.58639   0.60224   0.60524   0.61256
 Alpha virt. eigenvalues --    0.62186   0.63100   0.63501   0.64657   0.65447
 Alpha virt. eigenvalues --    0.66464   0.69281   0.69513   0.70566   0.71956
 Alpha virt. eigenvalues --    0.73300   0.75580   0.75966   0.76384   0.77358
 Alpha virt. eigenvalues --    0.78076   0.78545   0.78704   0.79831   0.80448
 Alpha virt. eigenvalues --    0.80663   0.80843   0.81361   0.82053   0.82377
 Alpha virt. eigenvalues --    0.83265   0.83665   0.84518   0.84701   0.86491
 Alpha virt. eigenvalues --    0.87000   0.87318   0.87882   0.88481   0.88877
 Alpha virt. eigenvalues --    0.89900   0.90468   0.90810   0.91704   0.92212
 Alpha virt. eigenvalues --    0.92693   0.93040   0.94005   0.96746   0.98908
 Alpha virt. eigenvalues --    0.99853   1.00341   1.03133   1.03795   1.04824
 Alpha virt. eigenvalues --    1.07942   1.08443   1.10662   1.13260   1.14422
 Alpha virt. eigenvalues --    1.15398   1.15950   1.17406   1.19039   1.20814
 Alpha virt. eigenvalues --    1.24768   1.25280   1.27020   1.28525   1.29547
 Alpha virt. eigenvalues --    1.31379   1.31932   1.32506   1.32829   1.35106
 Alpha virt. eigenvalues --    1.35863   1.36552   1.37602   1.39061   1.40669
 Alpha virt. eigenvalues --    1.41964   1.42266   1.42417   1.43973   1.45700
 Alpha virt. eigenvalues --    1.50841   1.52122   1.52409   1.53481   1.57510
 Alpha virt. eigenvalues --    1.57848   1.59627   1.60669   1.65202   1.66928
 Alpha virt. eigenvalues --    1.69031   1.71170   1.72190   1.75878   1.76903
 Alpha virt. eigenvalues --    1.78158   1.79412   1.79802   1.81681   1.82333
 Alpha virt. eigenvalues --    1.84436   1.84998   1.85805   1.86653   1.88401
 Alpha virt. eigenvalues --    1.89920   1.90284   1.90676   1.92593   1.93415
 Alpha virt. eigenvalues --    1.93686   1.94277   1.96077   1.97658   1.98536
 Alpha virt. eigenvalues --    1.99314   1.99835   2.00566   2.03474   2.04085
 Alpha virt. eigenvalues --    2.04482   2.06617   2.07478   2.09274   2.10004
 Alpha virt. eigenvalues --    2.10727   2.14664   2.15427   2.16564   2.17295
 Alpha virt. eigenvalues --    2.18281   2.18888   2.21363   2.22077   2.22356
 Alpha virt. eigenvalues --    2.23118   2.24033   2.26467   2.26926   2.28386
 Alpha virt. eigenvalues --    2.29742   2.30155   2.32269   2.33119   2.34077
 Alpha virt. eigenvalues --    2.36440   2.36742   2.38690   2.39627   2.40705
 Alpha virt. eigenvalues --    2.41217   2.43241   2.46727   2.48710   2.50548
 Alpha virt. eigenvalues --    2.52058   2.52313   2.54066   2.54897   2.56172
 Alpha virt. eigenvalues --    2.57410   2.62407   2.64550   2.67758   2.68673
 Alpha virt. eigenvalues --    2.72303   2.74205   2.74882   2.77198   2.77837
 Alpha virt. eigenvalues --    2.80231   2.83370   2.84141   2.85680   2.87846
 Alpha virt. eigenvalues --    2.88569   2.89682   2.90884   2.91894   2.93856
 Alpha virt. eigenvalues --    2.94600   2.95003   2.97957   3.01214   3.02829
 Alpha virt. eigenvalues --    3.09397   3.11504   3.12528   3.15477   3.17364
 Alpha virt. eigenvalues --    3.19657   3.19983   3.21044   3.23850   3.26325
 Alpha virt. eigenvalues --    3.27857   3.29056   3.29727   3.30020   3.32034
 Alpha virt. eigenvalues --    3.32340   3.34294   3.37353   3.38647   3.40751
 Alpha virt. eigenvalues --    3.42697   3.44723   3.45070   3.47877   3.48942
 Alpha virt. eigenvalues --    3.49938   3.54090   3.58465   3.61464   3.62622
 Alpha virt. eigenvalues --    3.68557   3.75319   3.85439   3.86466   3.92478
 Alpha virt. eigenvalues --    4.04138
     Molecular Orbital Coefficients:
                          66        67        68        69        70
                           O         O         O         O         O
     Eigenvalues --    -0.14608  -0.10478  -0.04502  -0.04396  -0.02197
   1 1   O  1S         -0.00317   0.00939  -0.00029   0.00001  -0.00311
   2        2S         -0.00397   0.01832   0.00112   0.00141  -0.00581
   3        3S         -0.02730   0.04783  -0.04712  -0.01899  -0.05038
   4        4PX        -0.02374   0.00933  -0.14548   0.07528   0.49266
   5        4PY         0.01451  -0.02145   0.21112   0.29271  -0.22071
   6        4PZ        -0.04238  -0.02307   0.21408  -0.34931   0.00051
   7        5PX        -0.00940  -0.01222  -0.09448   0.06523   0.36615
   8        5PY         0.00853  -0.01593   0.16212   0.23588  -0.15583
   9        5PZ        -0.02452  -0.02197   0.17267  -0.27874   0.00383
  10        6D 0        0.00128   0.00144  -0.00334   0.01201   0.00087
  11        6D+1        0.00144   0.00021  -0.00096   0.00310  -0.00679
  12        6D-1        0.00079   0.00139  -0.00633   0.00355   0.00442
  13        6D+2        0.00084  -0.00229   0.00442   0.00548  -0.01059
  14        6D-2       -0.00017   0.00141  -0.00041  -0.00613  -0.00615
  15 2   O  1S          0.00312   0.00062  -0.00050  -0.00083   0.01361
  16        2S          0.00392   0.00022   0.00743  -0.00267   0.02717
  17        3S          0.02911  -0.00159  -0.08287  -0.00307   0.10656
  18        4PX        -0.00512  -0.02003  -0.10246  -0.13147   0.10114
  19        4PY         0.05890  -0.13279   0.42528  -0.11924   0.26597
  20        4PZ        -0.03849  -0.10648   0.11361   0.38214   0.19669
  21        5PX         0.00109  -0.01372  -0.09884  -0.10551   0.09009
  22        5PY         0.03262  -0.08470   0.31805  -0.10928   0.20906
  23        5PZ        -0.02789  -0.06988   0.06858   0.31169   0.15750
  24        6D 0       -0.00055  -0.00121   0.00310   0.00334   0.00148
  25        6D+1       -0.00169  -0.00394   0.00134   0.01057   0.00530
  26        6D-1        0.00089  -0.00054   0.00223  -0.00304  -0.00085
  27        6D+2        0.00048  -0.00103  -0.00117  -0.00489   0.00361
  28        6D-2        0.00231  -0.00471   0.01032  -0.00349   0.00743
  29 3   O  1S         -0.00404  -0.00642   0.00145   0.00165  -0.00245
  30        2S         -0.00396  -0.01613   0.00727   0.00046  -0.00252
  31        3S         -0.03949  -0.04267  -0.01964   0.02625  -0.04165
  32        4PX        -0.17565  -0.07648  -0.01842  -0.01381  -0.00041
  33        4PY        -0.08464  -0.15939   0.01422   0.00126  -0.04193
  34        4PZ         0.50610   0.04933  -0.02734   0.00244   0.02270
  35        5PX        -0.12542  -0.07365  -0.00942  -0.02416   0.00170
  36        5PY        -0.07086  -0.12317   0.00904   0.00573  -0.04486
  37        5PZ         0.39032   0.02712  -0.02367   0.00112   0.02296
  38        6D 0        0.00343   0.00269  -0.00074  -0.00032   0.00096
  39        6D+1        0.00015  -0.00188  -0.00026  -0.00002  -0.00076
  40        6D-1        0.01067   0.00003   0.00050   0.00025  -0.00013
  41        6D+2        0.00242   0.00252   0.00011  -0.00018   0.00012
  42        6D-2       -0.00460   0.00124   0.00135  -0.00005   0.00011
  43 4   N  1S          0.02302  -0.06755  -0.02569  -0.00547  -0.02892
  44        2S          0.04603  -0.15188  -0.04405  -0.00980  -0.06829
  45        3S          0.13295  -0.11227  -0.16978  -0.02770  -0.09449
  46        4PX        -0.01997   0.12774  -0.02163  -0.00297  -0.02637
  47        4PY         0.03165   0.43992   0.09009   0.02687   0.09163
  48        4PZ        -0.09534   0.23723   0.04901   0.00520   0.02551
  49        5PX         0.03404  -0.13836   0.04060   0.00694   0.00330
  50        5PY        -0.03565  -0.35149  -0.09933  -0.03078  -0.03596
  51        5PZ         0.06349  -0.17522  -0.03520  -0.00663   0.00340
  52        6D 0       -0.00526  -0.00238  -0.00093  -0.00105  -0.00104
  53        6D+1       -0.00139   0.00132  -0.00372  -0.00002  -0.00127
  54        6D-1       -0.00278   0.01121   0.00000  -0.00116   0.00397
  55        6D+2        0.00116  -0.01087  -0.00165  -0.00134  -0.00474
  56        6D-2       -0.00065   0.00602  -0.00376  -0.00060  -0.00172
  57 5   C  1S          0.00370  -0.02260  -0.00150  -0.00082  -0.00342
  58        2S         -0.00351   0.05289   0.02043   0.01026   0.00230
  59        3S         -0.09382   0.10434  -0.07943  -0.00867   0.08223
  60        4PX         0.01305   0.06595   0.04067   0.01884  -0.02566
  61        4PY         0.04354  -0.06253  -0.10798  -0.01227  -0.01557
  62        4PZ        -0.01407  -0.02885  -0.04325  -0.03453  -0.01790
  63        5PX         0.00384   0.02531  -0.12751  -0.00466   0.17907
  64        5PY         0.08099  -0.10262   0.16032   0.05251  -0.04364
  65        5PZ         0.00728  -0.06149   0.07097  -0.00743   0.03013
  66        6D 0       -0.00140   0.00169   0.00229  -0.03315  -0.01018
  67        6D+1        0.00282   0.00605  -0.02241  -0.03482   0.00445
  68        6D-1       -0.00104   0.00135  -0.00015  -0.00296  -0.02000
  69        6D+2       -0.00588  -0.00206  -0.01744  -0.00482   0.03312
  70        6D-2       -0.00165   0.00865  -0.04526   0.01555  -0.01095
  71 6   C  1S         -0.02710  -0.00345  -0.05562  -0.01476   0.00589
  72        2S          0.06432   0.01024   0.12496   0.04419  -0.01094
  73        3S          0.17238  -0.09009   0.44809   0.01577  -0.13707
  74        4PX        -0.07156   0.06477  -0.10499  -0.02661   0.00915
  75        4PY        -0.11986   0.00435   0.21561   0.05197  -0.05120
  76        4PZ         0.07891   0.06209   0.10271   0.02178  -0.02600
  77        5PX        -0.10664   0.01341  -0.09182   0.02938   0.05500
  78        5PY        -0.03947  -0.06711   0.23173   0.10435  -0.08502
  79        5PZ         0.05455  -0.01914   0.13415  -0.03631  -0.04581
  80        6D 0       -0.00395  -0.00844  -0.00159  -0.00214   0.00285
  81        6D+1        0.00553  -0.00531  -0.00421  -0.00184  -0.00343
  82        6D-1       -0.00086  -0.00213  -0.00062  -0.00125   0.00134
  83        6D+2       -0.00518   0.00548  -0.00159  -0.00020  -0.00597
  84        6D-2        0.00437  -0.01985  -0.00678  -0.00139  -0.00029
  85 7   C  1S         -0.00980   0.02238   0.01010   0.00491  -0.00602
  86        2S          0.03282  -0.05675  -0.01775  -0.03255   0.01303
  87        3S          0.03229  -0.06047  -0.06295   0.15665   0.05072
  88        4PX         0.07452  -0.04920  -0.03115   0.00050   0.00213
  89        4PY         0.04329  -0.05600  -0.04991  -0.00429   0.02169
  90        4PZ        -0.15618   0.00735   0.00071  -0.00874  -0.00707
  91        5PX         0.02659  -0.02250   0.01863  -0.03117   0.02756
  92        5PY        -0.02662  -0.04158  -0.06725   0.07853  -0.00253
  93        5PZ        -0.00155   0.04739   0.02128  -0.04853  -0.00266
  94        6D 0       -0.00146  -0.00048  -0.00395  -0.00226   0.00219
  95        6D+1        0.02123   0.00075   0.00581   0.00144  -0.00104
  96        6D-1       -0.01538   0.00135   0.00393   0.00047  -0.00107
  97        6D+2       -0.01147  -0.00440  -0.00326  -0.00238  -0.00045
  98        6D-2        0.00756   0.00226  -0.00244   0.00005   0.00293
  99 8   C  1S         -0.01277  -0.00398  -0.01311  -0.00099  -0.00273
 100        2S          0.03473   0.01245   0.02771   0.00570   0.00327
 101        3S          0.04779  -0.00376   0.15191  -0.07271   0.07594
 102        4PX         0.03461   0.02561   0.01566   0.00428  -0.01607
 103        4PY         0.01124   0.02887   0.03856   0.00016   0.01276
 104        4PZ         0.05812   0.00085   0.01126  -0.00148  -0.00211
 105        5PX         0.02958   0.04007  -0.02069   0.00084  -0.05186
 106        5PY         0.03804   0.00808   0.02651  -0.03437   0.02416
 107        5PZ        -0.01964   0.01766   0.00565  -0.00655  -0.01827
 108        6D 0       -0.00537   0.00203   0.00083   0.00007  -0.00072
 109        6D+1        0.00085   0.00144   0.00186   0.00028   0.00017
 110        6D-1       -0.00272   0.00122   0.00088  -0.00014  -0.00036
 111        6D+2       -0.00229   0.00159   0.00099   0.00061   0.00009
 112        6D-2        0.00579  -0.00265  -0.00231  -0.00098  -0.00014
 113 9   C  1S          0.01010  -0.02372  -0.01211  -0.00610  -0.00300
 114        2S         -0.01785   0.05558   0.03757   0.01778   0.00783
 115        3S         -0.01505   0.02181  -0.00005   0.05027  -0.01092
 116        4PX         0.05916  -0.02190  -0.01868  -0.00648  -0.00223
 117        4PY        -0.04113   0.08736   0.02819   0.01992   0.02387
 118        4PZ        -0.09162  -0.01643  -0.01778  -0.00460  -0.01626
 119        5PX        -0.00000  -0.02110   0.00339   0.00879  -0.00481
 120        5PY        -0.04458  -0.05030  -0.00135  -0.00480   0.00190
 121        5PZ         0.03695  -0.02954  -0.02136   0.01903  -0.04385
 122        6D 0       -0.02516   0.01790   0.00493   0.00124   0.00356
 123        6D+1       -0.00620  -0.00349  -0.00109  -0.00030  -0.00203
 124        6D-1       -0.01939  -0.01279  -0.00062  -0.00081  -0.00278
 125        6D+2        0.00195   0.00400   0.00214   0.00058   0.00007
 126        6D-2        0.00648  -0.00769   0.00005  -0.00034   0.00096
 127 10  C  1S         -0.00315  -0.01430  -0.01474  -0.00083  -0.00399
 128        2S         -0.00182   0.04250   0.03683   0.00153   0.01046
 129        3S          0.07879  -0.00387   0.05847  -0.02372   0.01619
 130        4PX         0.00341  -0.04911  -0.03126  -0.00014  -0.01656
 131        4PY        -0.01428   0.09043   0.01695  -0.00113   0.01291
 132        4PZ        -0.05341   0.07627   0.04233   0.00139   0.02828
 133        5PX         0.05441  -0.06517  -0.02124   0.00084  -0.03015
 134        5PY        -0.03355  -0.02338  -0.01746  -0.00827  -0.01706
 135        5PZ        -0.04166   0.04106   0.03414   0.01909   0.04094
 136        6D 0        0.00385  -0.00387   0.00143   0.00017   0.00055
 137        6D+1        0.00305  -0.00305  -0.00196  -0.00028  -0.00038
 138        6D-1       -0.00150  -0.01919  -0.00391  -0.00096  -0.00484
 139        6D+2       -0.00509   0.01413   0.00028  -0.00012   0.00217
 140        6D-2       -0.00009   0.00906   0.00063   0.00026   0.00298
 141 11  H  1S         -0.04583  -0.07440  -0.03765  -0.01664   0.02516
 142        2S         -0.03281  -0.06552  -0.07799  -0.09482  -0.00147
 143        3PX        -0.00118   0.00235  -0.00211  -0.00048   0.00171
 144        3PY        -0.00489   0.00220   0.00690  -0.00046  -0.00237
 145        3PZ         0.00102  -0.00116   0.00166  -0.00143  -0.00083
 146 12  H  1S         -0.19077  -0.01346  -0.02205  -0.02169   0.00762
 147        2S         -0.12902  -0.01050  -0.03333  -0.00296   0.00168
 148        3PX        -0.00051  -0.00199  -0.00145   0.00090   0.00052
 149        3PY         0.00257  -0.00120  -0.00003  -0.00076   0.00033
 150        3PZ         0.00172  -0.00001  -0.00013  -0.00101  -0.00004
 151 13  H  1S          0.03480  -0.03243  -0.02780  -0.00215  -0.00247
 152        2S          0.06274  -0.01541  -0.05219  -0.00149   0.00207
 153        3PX         0.00175   0.00129   0.00131   0.00032   0.00025
 154        3PY         0.00048   0.00027   0.00067   0.00088   0.00051
 155        3PZ         0.00230   0.00109   0.00137   0.00038   0.00039
 156 14  H  1S         -0.03577   0.01100   0.00166   0.00384  -0.00700
 157        2S         -0.09404   0.00553  -0.01495   0.00735  -0.00140
 158        3PX         0.00019  -0.00019   0.00025  -0.00032   0.00044
 159        3PY        -0.00088   0.00099   0.00129   0.00054   0.00069
 160        3PZ         0.00021   0.00016   0.00130   0.00021   0.00038
 161 15  H  1S         -0.02201   0.01032   0.01708   0.00182   0.01010
 162        2S         -0.03270   0.04816  -0.10022   0.02282  -0.11511
 163        3PX         0.00002   0.00154  -0.00000  -0.00040  -0.00150
 164        3PY         0.00103   0.00158  -0.00038   0.00039  -0.00187
 165        3PZ         0.00323   0.00005  -0.00072   0.00018  -0.00090
 166 16  H  1S          0.07248  -0.02701  -0.01558  -0.00887  -0.01129
 167        2S          0.04506  -0.04667  -0.02975  -0.02562  -0.01445
 168        3PX         0.00149   0.00121   0.00088   0.00092   0.00027
 169        3PY         0.00140   0.00375   0.00083   0.00091   0.00087
 170        3PZ        -0.00481   0.00031  -0.00078  -0.00085   0.00011
 171 17  H  1S         -0.17111   0.06784   0.02343   0.00884   0.00652
 172        2S         -0.13125   0.05341   0.02366  -0.05185   0.05930
 173        3PX        -0.00082  -0.00052  -0.00123  -0.00097  -0.00021
 174        3PY        -0.00018   0.00115   0.00096   0.00098   0.00086
 175        3PZ         0.00153  -0.00087  -0.00030   0.00078  -0.00045
 176 18  O  1S         -0.00087   0.00344   0.00106   0.00024   0.00072
 177        2S         -0.00076   0.00793   0.00241   0.00069   0.00146
 178        3S         -0.01211   0.00530   0.00189  -0.00084   0.00358
 179        4PX         0.03271  -0.03986  -0.00581  -0.00052  -0.00607
 180        4PY        -0.00070   0.00220   0.00096   0.00009  -0.00053
 181        4PZ        -0.02635  -0.02560   0.01010  -0.00041   0.00660
 182        5PX         0.02655  -0.02754  -0.00492  -0.00051  -0.00598
 183        5PY        -0.00484  -0.00029   0.00016  -0.00040   0.00009
 184        5PZ        -0.02141  -0.02127   0.00920  -0.00052   0.00591
 185        6D 0       -0.00007  -0.00007  -0.00001  -0.00000  -0.00005
 186        6D+1       -0.00033  -0.00058  -0.00005   0.00001  -0.00011
 187        6D-1       -0.00097  -0.00059   0.00006   0.00002  -0.00001
 188        6D+2        0.00051  -0.00073  -0.00014   0.00000  -0.00013
 189        6D-2        0.00090  -0.00091  -0.00016  -0.00004  -0.00014
 190 19  N  1S         -0.00613   0.01505  -0.00144  -0.00030   0.00164
 191        2S         -0.01151   0.03713  -0.00200  -0.00011   0.00508
 192        3S         -0.06919   0.08346  -0.00266  -0.00357   0.01054
 193        4PX        -0.02287   0.05812  -0.01035  -0.00075   0.00397
 194        4PY        -0.00312   0.00568  -0.00215  -0.00041   0.00152
 195        4PZ        -0.03493  -0.00866   0.00678  -0.00095   0.00489
 196        5PX         0.02691  -0.05588   0.01103   0.00233  -0.00288
 197        5PY         0.01076   0.02957   0.01636  -0.00026  -0.00090
 198        5PZ         0.04566  -0.01907  -0.01562  -0.00337  -0.01477
 199        6D 0        0.00119  -0.00153  -0.00117  -0.00001  -0.00044
 200        6D+1        0.00096   0.00061  -0.00115   0.00015  -0.00093
 201        6D-1        0.00027  -0.00316  -0.00056  -0.00017  -0.00061
 202        6D+2       -0.00036   0.00090   0.00084   0.00005   0.00055
 203        6D-2        0.00053  -0.00265  -0.00013   0.00009  -0.00075
 204 20  C  1S          0.00060  -0.00187  -0.00118   0.00003  -0.00058
 205        2S         -0.00489   0.01350   0.00522  -0.00046   0.00296
 206        3S          0.02365  -0.01210   0.00470   0.00283   0.00221
 207        4PX        -0.00483  -0.00090  -0.00113  -0.00015   0.00064
 208        4PY         0.00003   0.00420   0.00381   0.00012   0.00148
 209        4PZ        -0.00268   0.00387  -0.01082   0.00098  -0.00908
 210        5PX        -0.01550  -0.03943  -0.00774  -0.00116   0.00550
 211        5PY        -0.00179   0.00002   0.00189  -0.00144   0.00114
 212        5PZ        -0.00251   0.00572  -0.00470   0.00329  -0.00233
 213        6D 0       -0.00043  -0.00035  -0.00039  -0.00014  -0.00018
 214        6D+1       -0.00099  -0.00024  -0.00011  -0.00006  -0.00024
 215        6D-1        0.00268   0.00288  -0.00127   0.00017  -0.00077
 216        6D+2       -0.00228   0.00382  -0.00051  -0.00006   0.00051
 217        6D-2       -0.00292   0.00224   0.00030   0.00005   0.00041
 218 21  C  1S          0.00334  -0.00534   0.00044  -0.00004  -0.00049
 219        2S         -0.00901   0.01257  -0.00066   0.00021   0.00199
 220        3S          0.01267   0.04005  -0.01537   0.00181  -0.00647
 221        4PX         0.01312  -0.01717   0.00207  -0.00018  -0.00060
 222        4PY         0.00311  -0.00445  -0.00101  -0.00005  -0.00195
 223        4PZ         0.00200  -0.00263   0.00047   0.00025  -0.00198
 224        5PX         0.01508  -0.04076  -0.00699   0.00097   0.00311
 225        5PY         0.00128  -0.00739   0.00112   0.00287   0.00432
 226        5PZ         0.00136  -0.01641  -0.00781  -0.00190  -0.00741
 227        6D 0       -0.00011   0.00013   0.00025  -0.00002   0.00034
 228        6D+1       -0.00014  -0.00009   0.00067  -0.00004   0.00057
 229        6D-1        0.00000   0.00001   0.00009  -0.00003   0.00006
 230        6D+2       -0.00020   0.00035   0.00005   0.00000  -0.00016
 231        6D-2       -0.00021   0.00031  -0.00016  -0.00000   0.00003
 232 22  C  1S         -0.00055  -0.00028   0.00067   0.00006   0.00034
 233        2S          0.00132   0.00084  -0.00194  -0.00013  -0.00085
 234        3S         -0.00578  -0.00915  -0.01170  -0.00463  -0.00772
 235        4PX        -0.00136   0.00000   0.00058   0.00028  -0.00048
 236        4PY        -0.00348   0.00408   0.00244  -0.00023   0.00255
 237        4PZ        -0.00177  -0.00339   0.00228  -0.00023   0.00256
 238        5PX        -0.00103   0.00675  -0.00535   0.00043  -0.00102
 239        5PY         0.00512  -0.00361  -0.00614   0.00136   0.00374
 240        5PZ        -0.00259   0.00814   0.00745  -0.00075   0.00159
 241        6D 0        0.00009   0.00009   0.00003   0.00001  -0.00002
 242        6D+1       -0.00009  -0.00005   0.00010  -0.00002   0.00019
 243        6D-1       -0.00025   0.00016  -0.00005   0.00001   0.00014
 244        6D+2       -0.00013  -0.00019  -0.00009   0.00003  -0.00007
 245        6D-2       -0.00050   0.00051   0.00004  -0.00002   0.00012
 246 23  C  1S          0.00060  -0.00033  -0.00025  -0.00002  -0.00020
 247        2S         -0.00146   0.00027   0.00046   0.00001   0.00048
 248        3S          0.00206  -0.00523   0.00844   0.00146   0.00355
 249        4PX         0.00367  -0.00254  -0.00095  -0.00005  -0.00114
 250        4PY        -0.00042   0.00091   0.00012  -0.00009   0.00069
 251        4PZ        -0.00176   0.00304   0.00061  -0.00016   0.00141
 252        5PX         0.00410  -0.00365  -0.00546   0.00003  -0.00180
 253        5PY        -0.00428   0.00451   0.00081  -0.00085   0.00067
 254        5PZ        -0.00017  -0.00221  -0.00214   0.00016   0.00231
 255        6D 0        0.00003   0.00012  -0.00019   0.00002  -0.00023
 256        6D+1        0.00002   0.00032  -0.00008   0.00002  -0.00017
 257        6D-1       -0.00001   0.00002  -0.00004   0.00000  -0.00002
 258        6D+2       -0.00014   0.00019   0.00010  -0.00001   0.00007
 259        6D-2        0.00023  -0.00030  -0.00016   0.00003  -0.00022
 260 24  C  1S          0.00016  -0.00066   0.00006   0.00001  -0.00006
 261        2S         -0.00045   0.00137   0.00001  -0.00003   0.00023
 262        3S         -0.00828   0.01134   0.00229  -0.00086   0.00057
 263        4PX        -0.00067  -0.00113   0.00104  -0.00011   0.00126
 264        4PY         0.00068   0.00024  -0.00161   0.00019  -0.00229
 265        4PZ         0.00097   0.00025  -0.00263   0.00038  -0.00361
 266        5PX         0.00146  -0.00430   0.00109   0.00007   0.00187
 267        5PY         0.00072   0.00221  -0.00068   0.00000  -0.00336
 268        5PZ         0.00168  -0.00106  -0.00306   0.00066  -0.00369
 269        6D 0        0.00022  -0.00023  -0.00003   0.00001  -0.00008
 270        6D+1       -0.00004  -0.00002  -0.00001   0.00000  -0.00003
 271        6D-1       -0.00017   0.00015  -0.00001   0.00000   0.00001
 272        6D+2       -0.00003  -0.00013   0.00001   0.00000   0.00002
 273        6D-2        0.00002  -0.00009  -0.00007   0.00001  -0.00007
 274 25  C  1S          0.00056  -0.00051   0.00031   0.00001   0.00006
 275        2S         -0.00131   0.00104  -0.00076   0.00003  -0.00004
 276        3S          0.00337  -0.01411  -0.00372  -0.00078  -0.00115
 277        4PX         0.00158  -0.00087   0.00098   0.00001   0.00014
 278        4PY         0.00242  -0.00191   0.00016   0.00003   0.00008
 279        4PZ         0.00346  -0.00351   0.00037   0.00004   0.00014
 280        5PX        -0.00020   0.00536   0.00155   0.00027  -0.00025
 281        5PY         0.00456  -0.00127  -0.00049   0.00011  -0.00095
 282        5PZ         0.00115  -0.00169   0.00094   0.00009   0.00080
 283        6D 0        0.00001  -0.00003   0.00004   0.00000   0.00006
 284        6D+1        0.00018  -0.00022  -0.00013   0.00002  -0.00026
 285        6D-1       -0.00004   0.00009  -0.00015   0.00002  -0.00019
 286        6D+2        0.00004  -0.00020   0.00019  -0.00003   0.00022
 287        6D-2       -0.00017   0.00022  -0.00010   0.00000  -0.00007
 288 26  C  1S         -0.00056   0.00022  -0.00077  -0.00005  -0.00034
 289        2S          0.00099   0.00025   0.00193   0.00025   0.00097
 290        3S         -0.00885   0.02298   0.01615   0.00244   0.00773
 291        4PX        -0.00259   0.00161  -0.00292   0.00003  -0.00233
 292        4PY         0.00121  -0.00360   0.00247  -0.00025   0.00222
 293        4PZ        -0.00169   0.00195   0.00135  -0.00034   0.00329
 294        5PX        -0.00070   0.01020  -0.00419   0.00007  -0.00486
 295        5PY        -0.00496   0.00404   0.00793  -0.00047   0.00384
 296        5PZ         0.00115   0.00357  -0.00106  -0.00020   0.00306
 297        6D 0        0.00015  -0.00024  -0.00000  -0.00003   0.00007
 298        6D+1       -0.00008   0.00005   0.00003   0.00000   0.00010
 299        6D-1       -0.00011   0.00004  -0.00009   0.00000   0.00002
 300        6D+2       -0.00053   0.00052  -0.00013   0.00003   0.00005
 301        6D-2        0.00015  -0.00029  -0.00004  -0.00000   0.00001
 302 27  H  1S          0.00133   0.00123  -0.00034  -0.00012  -0.00021
 303        2S         -0.00105   0.01545   0.01342   0.00064   0.00053
 304        3PX        -0.00010   0.00076   0.00004  -0.00003  -0.00006
 305        3PY        -0.00018  -0.00018   0.00004  -0.00003   0.00007
 306        3PZ        -0.00004   0.00002   0.00010  -0.00002   0.00008
 307 28  H  1S          0.00133  -0.00178  -0.00028   0.00004  -0.00023
 308        2S          0.00207  -0.00359  -0.00198   0.00010  -0.00067
 309        3PX         0.00007  -0.00008   0.00004  -0.00000  -0.00004
 310        3PY         0.00003   0.00004   0.00000   0.00001   0.00004
 311        3PZ        -0.00007   0.00024   0.00009  -0.00001   0.00006
 312 29  H  1S         -0.00078  -0.00007  -0.00005   0.00002  -0.00001
 313        2S         -0.00033  -0.00055  -0.00021   0.00006  -0.00024
 314        3PX        -0.00003  -0.00002   0.00003  -0.00001   0.00007
 315        3PY         0.00003  -0.00004  -0.00011   0.00002  -0.00010
 316        3PZ         0.00003   0.00001  -0.00013   0.00001  -0.00019
 317 30  H  1S          0.00145  -0.00163   0.00048  -0.00000   0.00003
 318        2S          0.00173  -0.00027   0.00086   0.00008  -0.00008
 319        3PX         0.00005  -0.00015   0.00002  -0.00000   0.00001
 320        3PY         0.00005  -0.00010   0.00004  -0.00000   0.00002
 321        3PZ         0.00014  -0.00015  -0.00001   0.00000  -0.00000
 322 31  H  1S          0.00103   0.00035   0.00052   0.00009   0.00006
 323        2S          0.00054  -0.00942   0.00014  -0.00140  -0.00195
 324        3PX        -0.00018   0.00022  -0.00003  -0.00001  -0.00002
 325        3PY         0.00003  -0.00011   0.00002  -0.00002   0.00010
 326        3PZ        -0.00013   0.00021   0.00012  -0.00002   0.00016
 327 32  H  1S          0.00637  -0.01773  -0.00107   0.00111  -0.00203
[...]
 395,0.00001525,0.00018013,-0.00010738,0.00011885,-0.00009529,-0.000257
 24,-0.00129245,-0.00079856,0.00023044,-0.00075119,-0.00053792,-0.00174
 147,0.00564683,0.00592577,-0.01645973,0.00969579,-0.00039260,0.1073473
 2,0.02367260,0.03166570,0.02043188,0.00485278,0.00618937,0.00035726,0.
 00497140,0.00689885,-0.00061682,0.00024172,-0.00019330,0.00068720,-0.0
 0488458,-0.00389749,-0.10965324,-0.03740888,0.00000795,-0.00000976,-0.
 00000137,0.00000429,-0.00000431,-0.00000118,-0.00000291,-0.00000470,-0
 .00000082,-0.00000143,0.00000091,-0.00000160,-0.00000816,0.00001189,0.
 00000030,0.00000148,-0.00000165,-0.00000056,0.00000141,0.00000277,0.00
 000014,-0.00000039,-0.00000065,0.00000007,0.00000313,0.00000520,0.0000
 0183,-0.00001546,-0.00003610,0.00004735,0.00000029,-0.00000043,-0.0000
 0054,-0.00000040,-0.00000049,-0.00000052,0.00000017,0.00000029,0.00000
 012,0.00000007,-0.00000021,-0.00000037,-0.00000027,0.00000040,0.000000
 15,0.00000010,-0.00000072,0.00000019,-0.00000143,-0.00000077,-0.000001
 64,0.00002049,-0.00018894,0.00026321,-0.00012857,-0.00001536,0.0000642
 1,-0.00009367,-0.00044385,-0.00059229,0.00082330,0.00048605,-0.0018600
 1,0.00402460,0.00547097,-0.00030295,0.02787146,-0.00152027,0.01049618,
 -0.17715618,0.03322983,-0.01396771,-0.03209842,0.00544072,0.00097063,-
 0.00132168,0.00679714,-0.00246325,0.00124206,-0.00020041,0.00053807,-0
 .00155201,-0.00374887,-0.00059966,0.17925157,-0.04113047,0.00710207,-0
 .00000771,-0.00002896,-0.00000589,-0.00003335,-0.00002466,-0.00000145,
 -0.00002850,0.00001426,-0.00003469,-0.00008043,0.00000145,-0.00003554,
 0.00002335,0.00004558,-0.00000277,0.00003403,-0.00000930,-0.00002943,0
 .00000673,-0.00000164,0.00001210,-0.00000404,0.00000289,-0.00000477,0.
 00001348,-0.00003142,0.00005409,0.00017730,-0.00010150,0.00008682,0.00
 000407,0.00000033,-0.00000123,-0.00000314,-0.00000022,-0.00000413,-0.0
 0000261,0.00000360,-0.00000201,0.00000210,-0.00000140,0.00000096,0.000
 00046,-0.00000104,0.00000111,-0.00000168,0.00000995,0.00002214,-0.0000
 1041,-0.00000224,-0.00001494,-0.00004124,0.00033809,-0.00029747,-0.000
 76883,0.00009229,-0.00018664,0.00015480,-0.00124865,0.00138626,-0.0052
 0045,0.00239662,-0.00159330,-0.00040828,0.00063316,-0.00111031,0.00049
 225,0.00225674,-0.00244874,0.01367666,0.00815657,-0.01396576,-0.417732
 14,-0.19363624,0.40796859,-0.01503664,-0.01221094,0.02293357,-0.000012
 18,-0.00011721,-0.00001872,0.00061232,0.00035150,-0.00045786,0.0008971
 8,-0.00114090,0.00076666,0.42111957,0.00001365,-0.00000639,-0.00000464
 ,0.00001749,0.00000176,-0.00000182,0.00001784,-0.00001268,0.00000149,0
 .00002096,-0.00000372,0.00000410,-0.00001830,0.00000189,0.00000120,-0.
 00001046,-0.00000132,0.00000631,-0.00000479,0.00000157,0.00000025,0.00
 000229,-0.00000096,0.00000103,-0.00001683,0.00001725,-0.00000464,-0.00
 001143,0.00001822,-0.00003259,0.00000046,-0.00000054,-0.00000083,0.000
 00073,-0.00000046,-0.00000006,0.00000088,-0.00000073,0.00000119,-0.000
 00081,-0.00000016,-0.00000116,-0.00000010,0.00000074,-0.00000027,0.000
 00244,0.00000417,-0.00000077,-0.00000090,-0.00000245,-0.00000118,0.000
 08087,-0.00019856,0.00016603,0.00035336,-0.00006970,-0.00001389,-0.000
 03779,0.00068386,-0.00043112,0.00275508,0.00635089,0.00366830,0.000448
 53,-0.00102757,0.00017887,0.00150224,0.00524725,0.00669369,-0.01459423
 ,0.00238143,0.01269896,-0.18972714,-0.04632590,0.18871706,0.00635664,0
 .00925390,-0.00373550,-0.00000952,-0.00110365,-0.00067772,-0.00066404,
 -0.00012284,0.00048373,0.00019466,-0.00483624,-0.00422011,0.19453665,0
 .03420280,0.00000732,-0.00000556,-0.00000301,0.00000910,-0.00000104,-0
 .00000134,0.00001281,0.00000072,-0.00001056,-0.00001031,-0.00000739,-0
 .00000642,-0.00001029,0.00000623,-0.00000053,-0.00000298,-0.00000158,-
 0.00000598,-0.00000826,-0.00000344,0.00000489,0.00000242,0.00000074,-0
 .00000086,-0.00001394,-0.00000151,0.00001117,0.00001390,-0.00004621,0.
 00000936,0.00000228,-0.00000020,-0.00000120,0.00000046,0.00000024,-0.0
 0000108,-0.00000072,-0.00000007,0.00000038,-0.00000065,-0.00000059,-0.
 00000013,0.00000024,0.00000028,-0.00000011,-0.00000092,0.00000469,0.00
 000574,-0.00000261,-0.00000256,-0.00000395,0.00016163,0.00006006,-0.00
 005084,-0.00015016,-0.00000059,-0.00013103,-0.00043297,-0.00036976,0.0
 0048847,-0.00228098,0.00364312,0.00244162,-0.00112675,-0.00034594,-0.0
 0008576,-0.00267723,0.00618574,-0.00195611,0.02393283,0.00972660,-0.01
 028261,0.40515957,0.19003008,-0.34812475,-0.01226824,-0.00207785,0.011
 63328,0.00004462,-0.00061374,-0.00037245,0.00118229,0.00045858,-0.0005
 5735,-0.00021620,-0.00390629,0.00008002,-0.41218313,-0.19998350,0.3484
 7284,0.00001926,0.00009159,-0.00000175,0.00008494,0.00007561,-0.000003
 75,0.00014024,0.00002272,0.00002677,0.00015496,0.00002071,0.00005107,-
 0.00006631,-0.00013873,0.00000176,-0.00007942,0.00002767,0.00002881,-0
 .00006950,-0.00003979,0.00000548,0.00002312,0.00000292,0.00000201,-0.0
 0012295,-0.00000049,-0.00006076,-0.00028800,0.00006006,-0.00003744,0.0
 0000455,-0.00000251,-0.00000059,0.00001224,0.00000679,0.00000448,-0.00
 000007,-0.00000893,0.00000404,-0.00000897,0.00000043,0.00000130,0.0000
 0330,0.,-0.00000196,-0.00000201,-0.00002097,-0.00002326,0.00002967,0.0
 0000753,0.00002138,0.00012944,0.00126247,-0.00183396,0.00061008,0.0010
 3122,-0.00045542,0.00101361,-0.00304742,0.00169657,0.01160757,-0.01504
 162,0.02241977,-0.00408143,-0.00182446,0.00368501,-0.00108406,-0.00033
 248,0.00058377,-0.00666448,0.00119179,-0.00022102,-0.00273378,0.019095
 90,-0.02841998,-0.03911132,0.13318606,-0.18600819,0.00072407,-0.000708
 56,0.00132080,0.00000375,-0.00005247,-0.00006571,-0.00014568,0.0007126
 7,-0.00157258,0.00218732,-0.00122341,0.00085220,0.03750803,0.00002408,
 -0.00001712,-0.00001049,0.00002632,-0.00000241,-0.00000315,0.00005725,
 -0.00001251,-0.00002720,0.00004093,-0.00002585,-0.00004773,-0.00002770
 ,0.00001740,-0.00000085,-0.00001033,0.00000275,-0.00000806,-0.00001561
 ,-0.00001002,0.00001062,0.00000654,0.00000269,-0.00000109,-0.00007271,
 -0.00000263,0.00002150,0.00011413,0.00006971,0.00032815,0.00001021,-0.
 00000165,-0.00000451,0.00000096,0.00000086,-0.00000307,0.00000015,-0.0
 0000033,0.00000193,-0.00000105,-0.00000117,-0.00000188,0.00000135,-0.0
 0000025,-0.00000050,-0.00001975,0.00002704,0.00002975,-0.00001065,-0.0
 0000793,-0.00001551,0.00050301,0.00012980,-0.00022536,-0.00079476,-0.0
 0025795,0.00015894,0.00137910,-0.00403015,-0.00165933,0.00429197,0.001
 30215,0.00793949,-0.00194432,0.00517657,0.00382451,-0.00001710,-0.0001
 0551,-0.00119834,0.00086891,0.00615155,0.00343328,-0.00406473,0.006346
 96,0.00225974,0.13436250,-0.24634406,0.40707692,0.00026056,0.00000045,
 0.00037700,0.00003671,-0.00101035,-0.00057219,-0.00012082,-0.00005736,
 0.00010450,-0.00034773,-0.00441734,-0.00275414,-0.13443411,0.23706447,
 -0.00000299,-0.00002447,-0.00000723,-0.00002216,-0.00001743,-0.0000037
 6,-0.00000717,0.00001456,-0.00004711,-0.00001720,-0.00000090,-0.000052
 24,0.00001571,0.00003333,-0.00000233,0.00002799,-0.00000353,-0.0000165
 5,-0.00000203,-0.00000392,0.00001580,-0.00000047,0.00000374,-0.0000032
 6,-0.00000849,-0.00003033,0.00004876,0.00013731,0.00001165,0.00028991,
 0.00000548,-0.00000014,-0.00000261,-0.00000158,-0.00000042,-0.00000415
 ,-0.00000280,0.00000278,-0.00000163,0.00000106,-0.00000202,0.00000042,
 0.00000097,-0.00000090,0.00000075,-0.00000773,0.00000204,0.00004123,-0
 .00001368,-0.00000698,-0.00001695,-0.00032442,-0.00128960,0.00079079,-
 0.00053654,-0.00024938,0.00028532,-0.00146475,-0.00123597,-0.00197763,
 -0.00854866,0.00980587,-0.00686596,0.00303089,0.00495272,0.00105517,0.
 00074363,-0.00071464,-0.00011349,0.00035313,0.00376706,0.00403543,0.00
 347394,0.00197470,0.00453120,-0.18337016,0.40581806,-0.52452495,-0.000
 50009,0.00042955,-0.00050209,-0.00002186,-0.00069523,-0.00043674,0.000
 10072,-0.00002392,0.00026081,-0.00080620,-0.00356213,-0.00157061,0.187
 91802,-0.41889761,0.52497780,0.00021905,-0.00017075,0.00018784,0.00009
 411,-0.00008076,0.00002034,0.00013712,-0.00017646,-0.00004286,0.001105
 08,-0.00093442,0.00032314,-0.00022662,0.00032413,-0.00006650,-0.000046
 49,-0.00042087,0.00013160,0.00014506,0.00004416,0.00007297,0.00001330,
 0.00000473,0.00003383,-0.00015002,0.00011557,0.00001255,-0.01048378,0.
 03497889,-0.01600813,0.00008996,0.00007337,-0.00005144,-0.00000202,-0.
 00001489,0.00000307,0.00000392,-0.00001569,-0.00000857,0.00001381,-0.0
 0001738,-0.00000428,-0.00000760,0.00000544,-0.00000978,0.00000145,-0.0
 0006862,0.00000101,0.00003796,0.00002234,-0.00001948,-0.00485398,-0.00
 797448,0.00276225,-0.12773435,0.37347340,-0.22753393,0.01961291,-0.025
 77276,0.01568482,-0.00063172,0.00082997,0.00046278,-0.00131356,-0.0008
 9809,-0.00010062,-0.00057005,0.00051513,-0.00002765,0.00015195,0.00012
 613,-0.00037389,0.00043421,-0.00001301,-0.00000141,-0.00020852,-0.0000
 8018,-0.00002590,-0.00088797,-0.00033097,-0.00126368,0.00000406,-0.000
 03134,-0.00001337,0.00004698,0.00000069,-0.00006091,0.00001830,-0.0000
 0468,0.00001253,0.00022544,-0.00002711,-0.00009141,0.13000397,0.000469
 70,-0.00032690,0.00015691,0.00027068,-0.00012525,-0.00000377,0.0000769
 2,-0.00032551,0.00008323,0.00048913,0.00026234,0.00056886,-0.00048444,
 0.00050292,-0.00002029,-0.00034597,-0.00046695,0.00003486,0.00010148,0
 .00001905,-0.00001854,0.00000304,-0.00002333,0.00004065,0.00007274,0.0
 0014263,-0.00047333,-0.00555012,0.00790148,-0.00434104,0.00013243,-0.0
 0004131,-0.00001497,-0.00000127,-0.00000370,-0.00000613,0.00001492,-0.
 00001401,0.00000047,0.00000252,-0.00000882,-0.00000679,-0.00001158,0.0
 0001532,-0.00000371,0.00002264,0.00000175,0.00014901,-0.00003465,0.000
 00417,-0.00005896,-0.00422167,0.00117970,0.00414484,0.36687672,-0.7431
 2113,0.50555122,0.01347025,-0.01849269,0.00752708,0.00069194,0.0004313
 8,-0.00105680,0.00045242,-0.00039680,0.00039596,0.00009761,0.00008391,
 -0.00027964,0.00025113,-0.00001554,-0.00004703,0.00026381,0.00009473,-
 0.00006941,0.00027519,-0.00008735,0.00011969,-0.00042669,0.00095881,-0
 .00055816,0.00005177,0.00002546,0.00004807,0.00004311,0.00002867,-0.00
 002410,0.00006881,-0.00003464,0.00000537,0.00005539,-0.00000055,-0.000
 04576,-0.37199031,0.75130205,0.00027640,0.00017517,-0.00011873,0.00035
 369,0.00017537,-0.00006715,0.00045461,-0.00021101,0.00020732,0.0014101
 8,0.00060064,0.00001340,-0.00039823,-0.00023554,0.00003706,-0.00050481
 ,-0.00035308,0.00021652,-0.00000858,-0.00013223,-0.00003792,0.00005982
 ,-0.00001890,0.00005883,-0.00027375,0.00040765,-0.00087227,0.00149886,
 -0.00172138,0.00142776,0.00021561,-0.00010961,-0.00000060,0.00002163,0
 .00001065,0.00000030,0.00002154,-0.00003698,0.00000503,-0.00001808,-0.
 00001147,-0.00000212,0.00000310,0.00000645,0.00000067,0.00002020,0.000
 10306,0.00012832,-0.00006190,-0.00002481,0.00001004,0.00099818,0.00391
 474,0.00754007,-0.22445087,0.50759799,-0.17609985,-0.00404659,0.004602
 74,-0.00937330,-0.00058389,-0.00153810,-0.00167314,-0.00136789,-0.0011
 3668,0.00087304,0.00064626,0.00018722,-0.00055645,-0.00021280,-0.00026
 508,0.00040105,-0.00022996,0.00045111,-0.00037685,0.00065730,0.0001513
 2,-0.00034662,-0.00137137,0.00031545,-0.00072924,-0.00004754,0.0000173
 4,0.00002509,0.00005815,0.00005139,-0.00002563,-0.00000533,0.00004732,
 0.00002173,0.00006253,-0.00009218,-0.00015456,0.22569702,-0.51176446,0
 .17791599,-0.00015793,0.00009276,-0.00000745,-0.00005933,0.00002418,0.
 00010708,-0.00042543,0.00033471,0.00012708,0.00411994,0.00256947,-0.01
 099104,0.00018533,-0.00010173,-0.00011699,0.00057167,-0.00019925,-0.00
 227905,0.00033364,0.00005215,0.00011739,-0.00006795,-0.00004468,-0.000
 00258,-0.00046078,-0.00225766,-0.00233153,-0.13143689,-0.08961518,0.26
 121011,-0.00047565,-0.00004205,-0.00049407,0.00000323,-0.00002706,0.00
 000523,0.00000124,0.00001703,0.00000441,0.00001391,0.00003103,-0.00001
 584,-0.00002391,0.00001319,-0.00001010,-0.00002748,-0.00018885,0.00020
 079,0.00005258,0.00044481,-0.00075971,0.00139477,-0.00122452,0.0010642
 2,-0.03269092,-0.01936368,0.03136516,-0.00297436,0.00715333,-0.0008029
 6,-0.00045880,-0.00143714,-0.00056513,-0.00020701,-0.00003217,0.000079
 91,0.00001415,0.00013660,0.00000504,-0.00010438,-0.00001933,0.00000850
 ,-0.00009134,0.00012706,0.00006799,-0.00013050,0.00013696,-0.00019271,
 0.00000031,-0.00008471,-0.00002331,-0.00003981,0.00000334,-0.00000918,
 -0.00000410,-0.00002179,-0.00001736,-0.00004657,0.00001505,-0.00000861
 ,0.00003623,-0.00006512,-0.00007158,0.00209567,-0.00034317,-0.00077545
 ,0.15350203,0.00045877,-0.00028761,0.00053356,0.00061762,-0.00000211,-
 0.00005741,-0.00082121,0.00076042,0.00004205,0.00849733,0.00519435,-0.
 02606411,-0.00041878,0.00033296,0.00003766,0.00093031,0.00118558,-0.00
 029201,0.00016650,0.00038934,-0.00011129,-0.00005308,0.00003076,0.0000
 1090,-0.00101748,-0.00377232,-0.00281182,-0.09239480,-0.06471577,0.184
 35286,0.00009123,0.00034865,0.00030356,0.00002467,-0.00002470,0.000008
 13,0.00000490,-0.00002035,-0.00001372,-0.00001091,-0.00002905,0.000011
 33,-0.00002361,0.00004446,0.00000537,0.00011129,-0.00018912,0.00004063
 ,0.00026169,0.00073022,-0.00109601,-0.00192170,0.00040262,-0.00067079,
 0.00549035,0.00295678,-0.00495932,0.00093698,-0.00154394,0.00140425,-0
 .00010138,0.00030868,0.00039985,0.00009898,-0.00005192,-0.00001614,-0.
 00007930,-0.00006889,0.00000257,0.00001604,0.00003560,-0.00004594,0.00
 002049,-0.00003980,0.00002251,-0.00007692,0.00001396,-0.00002096,0.000
 01728,0.00001938,0.00005561,0.,0.00000860,0.00000400,-0.00000454,0.000
 00536,0.00000180,-0.00000373,0.00000100,0.00000074,0.00002599,0.000008
 69,-0.00000690,-0.00042239,0.00030298,-0.00088555,0.09958950,0.0639566
 7,0.00007262,-0.00003040,0.00026252,0.00016798,-0.00005009,0.00001182,
 -0.00104328,0.00019049,0.00024542,0.00701818,0.00591773,-0.02237913,-0
 .00040922,0.00000806,0.00017269,0.00273958,0.00035759,-0.00004494,0.00
 052127,0.00089287,-0.00001616,-0.00012636,-0.00005606,-0.00001031,-0.0
 0087501,-0.00517007,-0.00251138,0.26579339,0.18612398,-0.49167780,-0.0
 0077548,0.00037066,0.00085718,-0.00000800,-0.00013983,0.00015525,0.000
 01708,0.00001080,0.00001493,0.00002270,0.00002718,-0.00001880,-0.00005
 253,0.00003981,-0.00001112,-0.00020551,-0.00028981,0.00050498,-0.00003
 727,0.00095600,-0.00133894,0.00052518,-0.00062102,0.00049061,-0.010982
 73,-0.00492812,0.01202149,-0.00172287,0.00146698,-0.00011604,-0.000070
 33,-0.00048830,-0.00039214,-0.00005541,-0.00000692,0.00005127,-0.00000
 775,0.00004714,0.00000240,-0.00002869,-0.00000370,-0.00000075,-0.00001
 861,0.00004947,0.00002871,-0.00002181,0.00005403,-0.00000509,-0.000021
 92,0.00000810,-0.00003890,-0.00001194,0.00000101,-0.00000146,-0.000000
 33,-0.00000792,-0.00000630,-0.00001313,0.00000059,-0.00000301,-0.00000
 207,-0.00003298,-0.00002618,0.00065525,-0.00011467,0.00021564,-0.26425
 661,-0.18302849,0.50622134,-0.00060763,0.00003395,-0.00001257,-0.00022
 658,0.00007441,-0.00006533,-0.00081819,0.00090985,0.00060066,0.0028932
 1,-0.01561266,-0.00508739,0.00022631,-0.00067283,0.00051937,0.00308696
 ,0.00014479,-0.00040702,-0.00008781,-0.00044616,-0.00014946,0.00006005
 ,-0.00003745,-0.00010530,0.00042151,0.00015062,0.00115260,-0.04470321,
 0.16249277,-0.02538804,-0.00041375,0.00022830,0.00060041,-0.00000331,0
 .00004058,0.00000089,-0.00000707,0.00002099,0.00000988,-0.00016918,0.0
 0003625,0.00002099,0.00000357,0.00002046,0.00004026,0.00003950,0.00020
 893,0.00017918,-0.00013179,-0.00001658,-0.00002124,0.00183561,-0.00307
 658,0.00156582,-0.02293694,0.04275611,-0.01324842,0.00226157,0.0059162
 2,-0.00310199,0.00005522,-0.00041869,-0.00024297,-0.00006374,0.0000233
 7,-0.00008810,0.00019371,-0.00005205,0.00005191,-0.00008435,-0.0000688
 7,0.00014178,-0.00014372,0.00006901,-0.00007518,0.00026229,-0.00000044
 ,-0.00002837,0.00004931,-0.00001339,0.00014460,0.00001276,-0.00000221,
 -0.00000474,-0.00000642,-0.00000365,0.00001279,-0.00000174,0.00000461,
 0.00000073,-0.00005982,-0.00001107,0.00001311,-0.00733761,-0.00084454,
 0.00190195,0.00755846,-0.02001011,0.00321363,0.05884283,-0.00053959,0.
 00000959,0.00006421,-0.00046541,-0.00009268,0.00001311,-0.00121392,0.0
 0162041,-0.00057111,-0.00132967,-0.01884719,-0.00866876,0.00028898,-0.
 00037746,0.00014663,0.00218479,0.00024450,-0.00025639,-0.00007758,-0.0
 0004358,-0.00012322,0.00000684,-0.00003234,-0.00012106,0.00009474,-0.0
 0016323,0.00383122,0.17516288,-0.61968731,0.13241370,-0.00075195,-0.00
 000181,0.00026986,0.00004579,-0.00003230,0.00006729,-0.00000811,0.0000
 8034,0.00004870,-0.00006836,0.00008658,0.00001161,0.00001816,-0.000017
 40,-0.00000479,0.00024589,0.00025241,-0.00054228,0.00001902,0.00001121
 ,0.00005940,-0.00215450,-0.00022424,0.00002392,-0.00180180,0.00541634,
 -0.00031855,-0.00122161,-0.00100536,0.00075318,0.00002865,-0.00031256,
 -0.00013836,0.00008158,0.00006532,0.00000761,0.00001568,0.00001039,0.0
 0001655,-0.00000788,-0.00000575,0.00001962,-0.00003018,0.00001741,-0.0
 0001060,0.00004409,0.00001106,0.00003347,0.00001904,-0.00000892,-0.000
 00025,0.00000489,-0.00001165,-0.00000914,-0.00000240,-0.00000172,-0.00
 000030,-0.00000070,-0.00000088,-0.00000123,-0.00000155,0.00000404,-0.0
 0000389,-0.00106880,0.00022710,-0.00027854,0.00432689,-0.00629147,-0.0
 0155411,-0.17184392,0.63910115,-0.00077186,-0.00030913,0.00021884,-0.0
 0056527,-0.00009859,-0.00007453,0.00032155,0.00157321,0.00086477,-0.00
 147772,-0.03713790,-0.00773384,0.00038557,-0.00046686,0.00020824,0.003
 68430,0.00000464,-0.00017292,-0.00135876,-0.00092310,0.00062290,0.0001
 8861,0.00016757,-0.00012652,0.00102504,-0.00317512,0.00300249,-0.02815
 579,0.12879569,-0.02228866,-0.00029081,0.00055590,0.00038994,0.0002254
 7,0.00021672,-0.00013530,-0.00005762,0.00001374,-0.00001860,-0.0001842
 9,-0.00001688,0.00005984,0.00006966,-0.00003584,0.00001941,0.00052308,
 0.00030054,-0.00059270,0.00021205,0.00048843,0.00007321,0.00045419,-0.
 00004616,-0.00079591,-0.00139081,0.00208215,-0.00078996,0.00062417,0.0
 0011293,0.00021681,-0.00021134,0.00015565,0.00010456,-0.00002358,-0.00
 002545,-0.00002303,-0.00005082,-0.00002526,-0.00001003,-0.00001577,0.0
 0002473,-0.00003923,0.00001811,-0.00002704,0.00002926,-0.00005842,0.00
 003341,-0.00001257,0.00001272,0.00001293,0.00003314,-0.00000828,0.0000
 0840,0.00000060,-0.00000386,0.00000219,0.00000104,-0.00000886,0.000001
 80,0.00000017,0.00002270,-0.00001016,-0.00000336,-0.00035724,0.0000813
 1,0.00133659,-0.01063166,0.03284306,-0.00265780,0.03785556,-0.12517749
 ,0.02829317\\0.01977631,-0.04038261,-0.00041420,0.01797794,-0.02250656
 ,0.00128465,0.00860969,0.00716498,0.00176665,-0.00719446,-0.03271525,-
 0.00136950,-0.03373125,0.06583078,0.00053813,-0.05327721,0.04938792,0.
 10167155,-0.03482426,-0.07495007,-0.09805936,-0.11274202,0.07817800,0.
 01992400,0.12523814,-0.01263924,-0.11387151,-0.06818365,0.08644494,0.1
 1354021,0.03908028,-0.05018876,-0.09290396,0.01959290,0.07552778,0.088
 96682,0.03139374,-0.06579053,0.11856359,-0.03005000,-0.09328493,-0.097
 60903,0.10438881,0.08167363,-0.04082697,-0.10294310,-0.07062564,-0.009
 38697,-0.00391796,0.09225300,0.08920401,-0.01597053,0.02211242,-0.0067
 5143,0.07583153,-0.17501918,0.09883951,0.01422822,-0.02820742,0.006275
 19,0.00312449,-0.00901205,0.00715994,-0.12412770,-0.05659571,0.1031661
 1,0.08241984,-0.07992847,0.12697092,0.14033900,-0.01716666,0.03308862,
 0.15244747,0.03246685,-0.08396259,-0.06874633,0.10407023,-0.14040395,0
 .12274614,0.06807465,-0.11433131,-0.04948880,0.09086416,-0.15146584,-0
 .17639532,0.02428680,-0.03569940,-0.12545584,-0.06018556,0.11687320,0.
 04960668,-0.09787105,0.14154156,-0.08256149,0.18666171,-0.10200869,0.0
 5578786,0.04479729,-0.10279197,0.02702091,-0.12272545,0.02248201\\\@
 The archive entry for this job was punched.

 Writing a WFNX file to "WUBSOB_Complex_9_Ligand_0_ON_Cu_oriented.wfx"


 I HAVE NOT FAILED, I HAVE ONLY DISCOVERED 10,000
 WAYS THAT DIDN'T WORK.  -- THOMAS A. EDISON
 Job cpu time:       0 days  1 hours  1 minutes 14.4 seconds.
 Elapsed time:       0 days  1 hours  1 minutes 35.1 seconds.
 File lengths (MBytes):  RWF=    580 Int=      0 D2E=      0 Chk=     16 Scr=      8
 Normal termination of Gaussian 16 at Mon Mar  6 11:23:21 2023.
