 Entering Gaussian System, Link 0=g16
 Initial command:
 /ssoft/spack/external/gaussian/g16-C.01/avx2/g16/l1.exe "/scratch/lcmd/2387854/Gau-1722621.inp" -scrdir="/scratch/lcmd/2387854/"
 Entering Link 1 = /ssoft/spack/external/gaussian/g16-C.01/avx2/g16/l1.exe PID=   1722641.
  
 Copyright (c) 1988-2019, Gaussian, Inc.  All Rights Reserved.
  
 This is part of the Gaussian(R) 16 program.  It is based on
 the Gaussian(R) 09 system (copyright 2009, Gaussian, Inc.),
 the Gaussian(R) 03 system (copyright 2003, Gaussian, Inc.),
 the Gaussian(R) 98 system (copyright 1998, Gaussian, Inc.),
 the Gaussian(R) 94 system (copyright 1995, Gaussian, Inc.),
 the Gaussian 92(TM) system (copyright 1992, Gaussian, Inc.),
 the Gaussian 90(TM) system (copyright 1990, Gaussian, Inc.),
 the Gaussian 88(TM) system (copyright 1988, Gaussian, Inc.),
 the Gaussian 86(TM) system (copyright 1986, Carnegie Mellon
 University), and the Gaussian 82(TM) system (copyright 1983,
 Carnegie Mellon University). Gaussian is a federally registered
 trademark of Gaussian, Inc.
  
 This software contains proprietary and confidential information,
 including trade secrets, belonging to Gaussian, Inc.
  
 This software is provided under written license and may be
 used, copied, transmitted, or stored only in accord with that
 written license.
  
 The following legend is applicable only to US Government
 contracts under FAR:
  
                    RESTRICTED RIGHTS LEGEND
  
 Use, reproduction and disclosure by the US Government is
 subject to restrictions as set forth in subparagraphs (a)
 and (c) of the Commercial Computer Software - Restricted
 Rights clause in FAR 52.227-19.
  
 Gaussian, Inc.
 340 Quinnipiac St., Bldg. 40, Wallingford CT 06492
  
  
 ---------------------------------------------------------------
 Warning -- This program may not be used in any manner that
 competes with the business of Gaussian, Inc. or will provide
 assistance to any competitor of Gaussian, Inc.  The licensee
 of this program is prohibited from giving any competitor of
 Gaussian, Inc. access to this program.  By using this program,
 the user acknowledges that Gaussian, Inc. is engaged in the
 business of creating and licensing software in the field of
 computational chemistry and represents and warrants to the
 licensee that it is not a competitor of Gaussian, Inc. and that
 it will not use this program in any manner prohibited above.
 ---------------------------------------------------------------
  

 Cite this work as:
 Gaussian 16, Revision C.01,
 M. J. Frisch, G. W. Trucks, H. B. Schlegel, G. E. Scuseria, 
 M. A. Robb, J. R. Cheeseman, G. Scalmani, V. Barone, 
 G. A. Petersson, H. Nakatsuji, X. Li, M. Caricato, A. V. Marenich, 
 J. Bloino, B. G. Janesko, R. Gomperts, B. Mennucci, H. P. Hratchian, 
 J. V. Ortiz, A. F. Izmaylov, J. L. Sonnenberg, D. Williams-Young, 
 F. Ding, F. Lipparini, F. Egidi, J. Goings, B. Peng, A. Petrone, 
 T. Henderson, D. Ranasinghe, V. G. Zakrzewski, J. Gao, N. Rega, 
 G. Zheng, W. Liang, M. Hada, M. Ehara, K. Toyota, R. Fukuda, 
 J. Hasegawa, M. Ishida, T. Nakajima, Y. Honda, O. Kitao, H. Nakai, 
 T. Vreven, K. Throssell, J. A. Montgomery, Jr., J. E. Peralta, 
 F. Ogliaro, M. J. Bearpark, J. J. Heyd, E. N. Brothers, K. N. Kudin, 
 V. N. Staroverov, T. A. Keith, R. Kobayashi, J. Normand, 
 K. Raghavachari, A. P. Rendell, J. C. Burant, S. S. Iyengar, 
 J. Tomasi, M. Cossi, J. M. Millam, M. Klene, C. Adamo, R. Cammi, 
 J. W. Ochterski, R. L. Martin, K. Morokuma, O. Farkas, 
 J. B. Foresman, and D. J. Fox, Gaussian, Inc., Wallingford CT, 2019.
 
 ******************************************
 Gaussian 16:  ES64L-G16RevC.01  3-Jul-2019
                 6-Mar-2023 
 ******************************************
 %nprocshared=1
 Will use up to    1 processors via shared memory.
 %mem=8000MB
 %chk=WUGWAX_Complex_2_Ligand_0_ON_Cu_oriented.chk
 ----------------------------------------------------------------------
 #p pop=(regular,nbo,savenbos) freq=noraman def2svp empiricaldispersion
 =gd3bj output=wfx pbe1pbe
 ----------------------------------------------------------------------
 1/10=4,30=1,38=1/1,3;
 2/12=2,17=6,18=5,40=1/2;
 3/5=43,7=101,11=2,25=1,30=1,71=2,74=-13,124=41,140=1/1,2,3;
 4//1;
 5/5=2,38=5,98=1/2;
 8/6=4,10=90,11=11/1;
 11/6=1,8=1,9=11,15=111,16=1/1,2,10;
 10/6=1/2;
 6/28=1,40=1,73=1/1,7;
 7/8=1,10=1,25=1/1,2,3,16;
 1/10=4,30=1/3;
 99/6=200/99;
 Leave Link    1 at Mon Mar  6 10:21:46 2023, MaxMem=  1048576000 cpu:               0.0 elap:               0.2
 (Enter /ssoft/spack/external/gaussian/g16-C.01/avx2/g16/l101.exe)
 ----------------------------------------
 WUGWAX_Complex_2_Ligand_0_ON_Cu_oriented
 ----------------------------------------
 Symbolic Z-matrix:
 Charge = -1 Multiplicity = 1
 N                    -1.97956   0.41953   0. 
 H                    -3.26375   1.64903  -1.04751 
 C                    -1.77722   1.16778  -2.39604 
 C                    -2.2852    1.52205  -0.98448 
 C                    -1.56532  -0.14172  -2.84028 
 H                    -1.69222  -0.8511   -2.25264 
 C                    -1.58925   2.19899  -3.3288 
 H                    -1.74467   3.08031  -3.07356 
 C                    -1.16226  -0.40289  -4.15712 
 H                    -1.03363  -1.28209  -4.43419 
 C                    -0.95586   0.63358  -5.048 
 H                    -0.67389   0.45822  -5.9161 
 C                    -1.17187   1.92402  -4.63448 
 H                    -1.03931   2.62574  -5.23106 
 C                    -3.02481  -0.14562   3.70446 
 H                    -2.58243   0.61908   4.10335 
 H                    -2.85798  -0.90832   4.27848 
 C                    -4.42098   0.10412   3.68578 
 H                    -4.66255   0.51199   2.85141 
 H                    -4.89535  -0.72399   3.78613 
 H                    -4.65024   0.6944    4.40803 
 C                    -2.56687   0.7281    1.35655 
 C                    -2.38143  -0.41676   2.34331 
 H                    -2.76867  -1.22249   1.96711 
 O                     0.45548   1.89092   0. 
 C                    -0.37859   2.90063  -0.04482 
 C                    -1.70384   2.83216  -0.45995 
 C                    -0.68611   5.40448   0.53903 
 C                    -2.04052   5.29235   0.15695 
 C                    -2.5824    4.00455  -0.3919 
 C                    -2.89678   6.40449   0.30952 
 H                    -3.78913   6.34322   0.05055 
 C                    -2.41309   7.58286   0.84117 
 H                    -2.98272   8.31219   0.9396 
 O                     1.42763   4.30258   0.64164 
 C                     0.22567   4.22581   0.39585 
 C                    -0.20029   6.6036    1.07363 
 H                     0.69203   6.68071   1.32162 
 C                    -1.07609   7.69343   1.23319 
 H                    -0.76487   8.48912   1.60144 
 O                    -3.77502   3.94641  -0.73971 
 H                    -3.5137    0.9141    1.25824 
 H                    -2.14282   1.52613   1.71202 
 H                    -2.30463  -0.34577  -0.27551 
 H                    -1.43338  -0.57544   2.46843 
 
 ITRead=  0  0  0  0  0  0  0  0  0  0  0  0  0  0  0  0  0  0  0  0
 ITRead=  0  0  0  0  0  0  0  0  0  0  0  0  0  0  0  0  0  0  0  0
 ITRead=  0  0  0  0  0
 MicOpt= -1 -1 -1 -1 -1 -1 -1 -1 -1 -1 -1 -1 -1 -1 -1 -1 -1 -1 -1 -1
 MicOpt= -1 -1 -1 -1 -1 -1 -1 -1 -1 -1 -1 -1 -1 -1 -1 -1 -1 -1 -1 -1
 MicOpt= -1 -1 -1 -1 -1
 NAtoms=     45 NQM=       45 NQMF=       0 NMMI=      0 NMMIF=      0
                NMic=       0 NMicF=      0.
                    Isotopes and Nuclear Properties:
 (Nuclear quadrupole moments (NQMom) in fm**2, nuclear magnetic moments (NMagM)
  in nuclear magnetons)

  Atom         1           2           3           4           5           6           7           8           9          10
 IAtWgt=          14           1          12          12          12           1          12           1          12           1
 AtmWgt=  14.0030740   1.0078250  12.0000000  12.0000000  12.0000000   1.0078250  12.0000000   1.0078250  12.0000000   1.0078250
 NucSpn=           2           1           0           0           0           1           0           1           0           1
 AtZEff=  -0.0000000  -0.0000000  -0.0000000  -0.0000000  -0.0000000  -0.0000000  -0.0000000  -0.0000000  -0.0000000  -0.0000000
 NQMom=    2.0440000   0.0000000   0.0000000   0.0000000   0.0000000   0.0000000   0.0000000   0.0000000   0.0000000   0.0000000
 NMagM=    0.4037610   2.7928460   0.0000000   0.0000000   0.0000000   2.7928460   0.0000000   2.7928460   0.0000000   2.7928460
 AtZNuc=   7.0000000   1.0000000   6.0000000   6.0000000   6.0000000   1.0000000   6.0000000   1.0000000   6.0000000   1.0000000

  Atom        11          12          13          14          15          16          17          18          19          20
 IAtWgt=          12           1          12           1          12           1           1          12           1           1
 AtmWgt=  12.0000000   1.0078250  12.0000000   1.0078250  12.0000000   1.0078250   1.0078250  12.0000000   1.0078250   1.0078250
 NucSpn=           0           1           0           1           0           1           1           0           1           1
 AtZEff=  -0.0000000  -0.0000000  -0.0000000  -0.0000000  -0.0000000  -0.0000000  -0.0000000  -0.0000000  -0.0000000  -0.0000000
 NQMom=    0.0000000   0.0000000   0.0000000   0.0000000   0.0000000   0.0000000   0.0000000   0.0000000   0.0000000   0.0000000
 NMagM=    0.0000000   2.7928460   0.0000000   2.7928460   0.0000000   2.7928460   2.7928460   0.0000000   2.7928460   2.7928460
 AtZNuc=   6.0000000   1.0000000   6.0000000   1.0000000   6.0000000   1.0000000   1.0000000   6.0000000   1.0000000   1.0000000

  Atom        21          22          23          24          25          26          27          28          29          30
 IAtWgt=           1          12          12           1          16          12          12          12          12          12
 AtmWgt=   1.0078250  12.0000000  12.0000000   1.0078250  15.9949146  12.0000000  12.0000000  12.0000000  12.0000000  12.0000000
 NucSpn=           1           0           0           1           0           0           0           0           0           0
 AtZEff=  -0.0000000  -0.0000000  -0.0000000  -0.0000000  -0.0000000  -0.0000000  -0.0000000  -0.0000000  -0.0000000  -0.0000000
 NQMom=    0.0000000   0.0000000   0.0000000   0.0000000   0.0000000   0.0000000   0.0000000   0.0000000   0.0000000   0.0000000
 NMagM=    2.7928460   0.0000000   0.0000000   2.7928460   0.0000000   0.0000000   0.0000000   0.0000000   0.0000000   0.0000000
 AtZNuc=   1.0000000   6.0000000   6.0000000   1.0000000   8.0000000   6.0000000   6.0000000   6.0000000   6.0000000   6.0000000

  Atom        31          32          33          34          35          36          37          38          39          40
 IAtWgt=          12           1          12           1          16          12          12           1          12           1
 AtmWgt=  12.0000000   1.0078250  12.0000000   1.0078250  15.9949146  12.0000000  12.0000000   1.0078250  12.0000000   1.0078250
 NucSpn=           0           1           0           1           0           0           0           1           0           1
 AtZEff=  -0.0000000  -0.0000000  -0.0000000  -0.0000000  -0.0000000  -0.0000000  -0.0000000  -0.0000000  -0.0000000  -0.0000000
 NQMom=    0.0000000   0.0000000   0.0000000   0.0000000   0.0000000   0.0000000   0.0000000   0.0000000   0.0000000   0.0000000
 NMagM=    0.0000000   2.7928460   0.0000000   2.7928460   0.0000000   0.0000000   0.0000000   2.7928460   0.0000000   2.7928460
 AtZNuc=   6.0000000   1.0000000   6.0000000   1.0000000   8.0000000   6.0000000   6.0000000   1.0000000   6.0000000   1.0000000

  Atom        41          42          43          44          45
 IAtWgt=          16           1           1           1           1
 AtmWgt=  15.9949146   1.0078250   1.0078250   1.0078250   1.0078250
 NucSpn=           0           1           1           1           1
 AtZEff=  -0.0000000  -0.0000000  -0.0000000  -0.0000000  -0.0000000
 NQMom=    0.0000000   0.0000000   0.0000000   0.0000000   0.0000000
 NMagM=    0.0000000   2.7928460   2.7928460   2.7928460   2.7928460
 AtZNuc=   8.0000000   1.0000000   1.0000000   1.0000000   1.0000000
 Leave Link  101 at Mon Mar  6 10:21:46 2023, MaxMem=  1048576000 cpu:               0.1 elap:               0.1
 (Enter /ssoft/spack/external/gaussian/g16-C.01/avx2/g16/l103.exe)

 GradGradGradGradGradGradGradGradGradGradGradGradGradGradGradGradGradGrad
 Berny optimization.
 Initialization pass.
 Trust Radius=3.00D-01 FncErr=1.00D-07 GrdErr=1.00D-07 EigMax=2.50D+02 EigMin=1.00D-04
 Number of steps in this run=      2 maximum allowed number of steps=      2.
 GradGradGradGradGradGradGradGradGradGradGradGradGradGradGradGradGradGrad

 Leave Link  103 at Mon Mar  6 10:21:46 2023, MaxMem=  1048576000 cpu:               0.0 elap:               0.0
 (Enter /ssoft/spack/external/gaussian/g16-C.01/avx2/g16/l202.exe)
                          Input orientation:                          
 ---------------------------------------------------------------------
 Center     Atomic      Atomic             Coordinates (Angstroms)
 Number     Number       Type             X           Y           Z
 ---------------------------------------------------------------------
      1          7           0       -1.979561    0.419529    0.000000
      2          1           0       -3.263748    1.649032   -1.047506
      3          6           0       -1.777223    1.167781   -2.396041
      4          6           0       -2.285199    1.522046   -0.984477
      5          6           0       -1.565320   -0.141716   -2.840279
      6          1           0       -1.692220   -0.851102   -2.252645
      7          6           0       -1.589251    2.198988   -3.328798
      8          1           0       -1.744670    3.080311   -3.073563
      9          6           0       -1.162260   -0.402893   -4.157120
     10          1           0       -1.033631   -1.282089   -4.434186
     11          6           0       -0.955857    0.633577   -5.048002
     12          1           0       -0.673889    0.458220   -5.916104
     13          6           0       -1.171867    1.924016   -4.634484
     14          1           0       -1.039312    2.625740   -5.231061
     15          6           0       -3.024814   -0.145617    3.704464
     16          1           0       -2.582426    0.619083    4.103345
     17          1           0       -2.857980   -0.908319    4.278480
     18          6           0       -4.420980    0.104120    3.685781
     19          1           0       -4.662549    0.511995    2.851411
     20          1           0       -4.895347   -0.723991    3.786135
     21          1           0       -4.650244    0.694399    4.408025
     22          6           0       -2.566865    0.728102    1.356555
     23          6           0       -2.381431   -0.416763    2.343314
     24          1           0       -2.768666   -1.222495    1.967112
     25          8           0        0.455485    1.890916    0.000000
     26          6           0       -0.378594    2.900630   -0.044817
     27          6           0       -1.703842    2.832156   -0.459953
     28          6           0       -0.686108    5.404485    0.539030
     29          6           0       -2.040519    5.292354    0.156948
     30          6           0       -2.582398    4.004546   -0.391900
     31          6           0       -2.896782    6.404486    0.309516
     32          1           0       -3.789130    6.343218    0.050545
     33          6           0       -2.413091    7.582857    0.841171
     34          1           0       -2.982718    8.312187    0.939604
     35          8           0        1.427630    4.302578    0.641640
     36          6           0        0.225667    4.225814    0.395849
     37          6           0       -0.200292    6.603598    1.073627
     38          1           0        0.692028    6.680715    1.321622
     39          6           0       -1.076094    7.693428    1.233186
     40          1           0       -0.764869    8.489124    1.601438
     41          8           0       -3.775021    3.946407   -0.739708
     42          1           0       -3.513705    0.914095    1.258238
     43          1           0       -2.142819    1.526133    1.712019
     44          1           0       -2.304632   -0.345769   -0.275515
     45          1           0       -1.433377   -0.575442    2.468430
 ---------------------------------------------------------------------
                    Distance matrix (angstroms):
                    1          2          3          4          5
     1  N    0.000000
     2  H    2.063512   0.000000
     3  C    2.518300   2.063954   0.000000
     4  C    1.509355   0.988765   1.541446   0.000000
     5  C    2.924684   3.050488   1.398940   2.594288   0.000000
     6  H    2.602206   3.189472   2.025754   2.755305   0.929863
     7  C    3.794696   2.882826   1.403124   2.537408   2.391260
     8  H    4.072067   2.908792   2.029253   2.661700   3.235437
     9  C    4.315786   4.277423   2.438564   3.877118   1.401692
    10  H    4.842757   5.003449   3.272435   4.618451   2.030685
    11  C    5.155203   4.728793   2.827174   4.366780   2.417967
    12  H    6.058594   5.641688   3.756549   5.296129   3.258108
    13  C    4.939058   4.161490   2.439052   3.837140   2.764277
    14  H    5.754601   4.837790   3.272231   4.561124   3.694772
    15  C    3.890372   5.085181   6.363777   5.031331   6.705505
    16  H    4.152193   5.296816   6.572020   5.175869   7.058841
    17  H    4.565106   5.922062   7.073010   5.825244   7.275670
    18  C    4.432266   5.111745   6.716352   5.327606   7.127740
    19  H    3.916314   4.295468   6.024194   4.624503   6.512718
    20  H    4.913681   5.626494   7.177799   5.883561   7.438917
    21  H    5.161277   5.709335   7.400922   5.946218   7.921727
    22  C    1.510094   2.667071   3.859900   2.487994   4.401487
    23  C    2.520319   4.067389   5.033621   3.852588   5.254648
    24  H    2.681130   4.192695   5.072819   4.059325   5.072192
    25  O    2.845072   3.871494   3.353942   2.935406   4.035149
    26  C    2.953128   3.300908   3.238392   2.533495   4.298697
    27  C    2.471507   2.044091   2.554205   1.526267   3.811700
    28  C    5.178162   4.823354   5.268286   4.466710   6.553861
    29  C    4.875734   4.027505   4.857899   3.946891   6.224011
    30  C    3.656412   2.538209   3.565406   2.569491   4.921433
    31  C    6.062740   4.958882   5.999711   5.087895   7.385578
    32  H    6.194125   4.849445   6.067841   5.155267   7.440199
    33  C    7.225565   6.284981   7.213672   6.331096   8.598885
    34  H    8.011443   6.958822   7.976357   7.091871   9.368298
    35  O    5.205644   5.648322   5.415306   4.915355   6.390091
    36  C    4.416734   4.571553   4.599759   3.939557   5.723240
    37  C    6.523893   6.199330   6.638781   5.865561   7.917148
    38  H    6.934445   6.824863   7.093000   6.387005   8.304372
    39  C    7.432807   6.820712   7.499796   6.668278   8.844317
    40  H    8.316156   7.749074   8.402783   7.585416   9.739660
    41  O    4.026129   2.373620   3.802026   2.856048   5.099797
    42  H    2.044836   2.432913   4.053823   2.628422   4.659268
    43  H    2.045052   2.981034   4.139835   2.700256   4.882484
    44  H    0.875934   2.344164   2.658125   1.997934   2.676982
    45  H    2.716878   4.545365   5.178816   4.128876   5.328031
                    6          7          8          9         10
     6  H    0.000000
     7  C    3.236010   0.000000
     8  H    4.016549   0.930607   0.000000
     9  C    2.027011   2.763734   3.694050   0.000000
    10  H    2.319183   3.694387   4.624652   0.930751   0.000000
    11  C    3.249696   2.409847   3.241472   1.382224   2.013106
    12  H    4.021474   3.249971   4.012726   2.018426   2.313908
    13  C    3.693942   1.398082   2.025239   2.375389   3.215329
    14  H    4.624465   2.025624   2.314943   3.215755   3.988254
    15  C    6.144970   7.551476   7.614922   8.083304   8.455412
    16  H    6.584263   7.662849   7.633315   8.443731   8.882717
    17  H    6.634596   8.314789   8.438079   8.619181   8.909462
    18  C    6.604807   7.849298   7.855513   8.508079   8.906715
    19  H    6.060716   7.105357   7.086296   7.887240   8.334729
    20  H    6.836889   8.372357   8.453103   8.782616   9.099341
    21  H    7.450034   8.455288   8.373118   9.312990   9.755567
    22  C    4.035494   5.007172   5.082799   5.801093   6.318572
    23  C    4.667602   6.296235   6.479009   6.613790   6.964184
    24  H    4.370700   6.414377   6.706051   6.384239   6.632535
    25  O    4.147976   3.918769   3.962592   5.016005   5.652206
    26  C    4.547044   3.569667   3.327424   5.332770   6.098424
    27  C    4.096372   2.940120   2.625682   4.942458   5.759403
    28  C    6.923733   5.104015   4.424157   7.483728   8.340499
    29  C    6.608291   4.682199   3.926432   7.198497   8.081809
    30  C    5.275614   3.587722   2.957586   5.968182   6.832808
    31  C    7.788402   5.712546   4.880853   8.324651   9.222661
    32  H    7.839640   5.782220   4.958471   8.373464   9.265576
    33  C    9.012381   6.859548   6.003736   9.503667  10.407668
    34  H    9.788856   7.584998   6.709009  10.258814  11.168110
    35  O    6.683619   5.412120   5.035887   7.202575   7.937904
    36  C    6.038865   4.612478   4.151051   6.639337   7.433173
    37  C    8.298342   6.380529   5.656663   8.796421   9.654767
    38  H    8.671118   6.849563   6.182075   9.145080   9.975644
    39  C    9.248764   7.159882   6.346333   9.726934  10.615122
    40  H   10.146613   8.034466   7.216017  10.601267  11.488150
    41  O    5.444551   3.812408   3.212371   6.117323   6.964306
    42  H    4.331285   5.137643   5.156208   6.048955   6.586174
    43  H    4.644658   5.115566   5.047355   6.255353   6.847792
    44  H    2.130599   4.038577   4.458774   4.046621   4.448223
    45  H    4.736194   6.428811   6.646437   6.633339   6.950198
                   11         12         13         14         15
    11  C    0.000000
    12  H    0.929438   0.000000
    13  C    1.372185   2.009748   0.000000
    14  H    2.002296   2.302381   0.930533   0.000000
    15  C    9.027369   9.922035   8.789474   9.563798   0.000000
    16  H    9.294789  10.200870   8.946630   9.671557   0.969320
    17  H    9.642551  10.515095   9.502949  10.306721   0.969042
    18  C    9.410970  10.313208   9.115677   9.864295   1.418449
    19  H    8.726687   9.632321   8.379576   9.106158   1.960186
    20  H    9.767525  10.646678   9.580348  10.363374   1.959612
    21  H   10.152273  11.065930   9.766168  10.472864   1.960267
    22  C    6.604743   7.519824   6.266481   7.023612   2.546719
    23  C    7.600463   8.479344   7.458684   8.272199   1.529768
    24  H    7.479513   8.328144   7.485411   8.343457   2.060016
    25  O    5.390280   6.190992   4.912007   5.489844   5.475674
    26  C    5.523099   6.365891   4.759002   5.235383   5.508104
    27  C    5.142317   6.038704   4.305162   4.821584   5.287199
    28  C    7.351820   8.132308   6.254189   6.414057   6.803907
    29  C    7.069102   7.881528   5.920987   6.094578   6.566981
    30  C    5.973973   6.836348   4.931300   5.263050   5.848059
    31  C    8.110092   8.891438   6.891522   6.958959   7.378748
    32  H    8.162268   8.940851   6.951900   7.019722   7.486006
    33  C    9.224878   9.972263   7.971569   7.958157   8.264500
    34  H    9.945886  10.677837   8.669392   8.613339   8.898352
    35  O    7.177368   7.886664   6.344480   6.586821   6.999399
    36  C    6.628400   7.405722   5.705754   5.985192   6.373536
    37  C    8.584077   9.319136   7.444796   7.501760   7.775033
    38  H    8.936191   9.642087   7.847005   7.897975   8.129678
    39  C    9.450359  10.179506   8.229511   8.213970   8.447210
    40  H   10.293743  11.000778   9.063830   9.007643   9.169996
    41  O    6.122412   6.969902   5.102524   5.422224   6.087540
    42  H    6.811016   7.729395   6.420928   7.152856   2.710355
    43  H    6.921230   7.841330   6.432664   7.115703   2.746361
    44  H    5.055190   5.926379   5.043381   5.915094   4.049562
    45  H    7.628007   8.482080   7.534392   8.347755   2.060388
                   16         17         18         19         20
    16  H    0.000000
    17  H    1.561909   0.000000
    18  C    1.954438   1.954301   0.000000
    19  H    2.430168   2.703754   0.959630   0.000000
    20  H    2.693339   2.104102   0.959616   1.567024   0.000000
    21  H    2.091500   2.407841   0.960536   1.567313   1.568010
    22  C    2.748997   3.361587   3.041774   2.583251   3.665141
    23  C    2.052093   2.052704   2.496656   2.514806   2.914772
    24  H    2.826586   2.334332   2.728345   2.716105   2.842555
    25  O    5.261550   6.092632   6.368479   6.018824   7.057192
    26  C    5.222028   6.272667   6.170795   5.696137   6.943711
    27  C    5.147164   6.146214   5.657926   5.010212   6.392273
    28  C    6.261025   7.651929   7.207300   6.715329   8.112928
    29  C    6.140617   7.490235   6.710964   6.081695   7.584026
    30  C    5.627486   6.784147   5.934745   5.200386   6.720475
    31  C    6.925522   8.320536   7.308691   6.655871   8.179018
    32  H    7.116674   8.445547   7.248484   6.527701   8.069931
    33  C    7.691853   9.171319   8.249541   7.687536   9.156316
    34  H    8.327865   9.807211   8.773964   8.204866   9.665061
    35  O    6.452293   7.664627   7.816654   7.506123   8.668003
    36  C    5.885526   7.137438   7.028751   6.611875   7.887927
    37  C    7.118158   8.588556   8.178066   7.757569   9.115635
    38  H    7.429900   8.884763   8.659313   8.310526   9.598034
    39  C    7.781594   9.297258   8.648762   8.188669   9.589431
    40  H    8.455802   9.992978   9.381893   8.965987  10.330307
    41  O    5.995710   7.042127   5.896218   5.047676   6.599319
    42  H    3.008147   3.587901   2.715174   2.004926   3.313989
    43  H    2.595079   3.608980   3.332848   2.945459   4.115997
    44  H    4.492497   4.621853   4.513667   4.009139   4.832376
    45  H    2.328122   2.327355   3.296895   3.428810   3.707243
                   21         22         23         24         25
    21  H    0.000000
    22  C    3.695006   0.000000
    23  C    3.262702   1.522760   0.000000
    24  H    3.629445   2.053858   0.969888   0.000000
    25  O    6.850606   3.510980   4.343340   4.894692   0.000000
    26  C    6.553033   3.387071   4.551882   5.173052   1.310427
    27  C    6.078528   2.910593   4.344297   4.844037   2.400038
    28  C    7.271066   5.106286   6.325859   7.091779   3.733491
    29  C    6.784063   4.748526   6.122944   6.800747   4.221901
    30  C    6.186465   3.713816   5.202862   5.737735   3.721525
    31  C    7.244136   5.781564   7.136622   7.806080   5.630791
    32  H    7.185980   5.893142   7.275696   7.871124   6.151610
    33  C    8.073298   6.875822   8.139494   8.884165   6.429190
    34  H    8.534710   7.606913   8.861519   9.592275   7.344168
    35  O    8.009067   5.407770   6.298954   7.063442   2.678223
    36  C    7.234842   4.577683   5.669489   6.412407   2.379340
    37  C    8.114118   6.340518   7.460224   8.285082   4.877713
    38  H    8.596611   6.786398   7.801551   8.651808   4.974415
    39  C    8.475881   7.124141   8.289240   9.104786   6.126633
    40  H    9.150453   7.971237   9.081766   9.922926   6.898565
    41  O    6.151482   4.026344   5.521266   5.920910   4.761238
    42  H    3.355763   0.969930   2.056847   2.371203   4.276892
    43  H    3.774574   0.971095   2.056774   2.830497   3.132931
    44  H    5.340355   1.971197   2.620917   2.452214   3.563274
    45  H    3.965193   2.054334   0.969350   1.566203   3.967855
                   26         27         28         29         30
    26  C    0.000000
    27  C    1.390434   0.000000
    28  C    2.589350   2.941195   0.000000
    29  C    2.919426   2.558612   1.411733   0.000000
    30  C    2.489146   1.466626   2.534241   1.501105   0.000000
    31  C    4.329414   3.844052   2.437162   1.411843   2.520027
    32  H    4.846881   4.115409   3.278503   2.042860   2.668585
    33  C    5.181448   4.976456   2.796259   2.419374   3.788593
    34  H    6.085679   5.798709   3.726876   3.258784   4.526469
    35  O    2.387285   3.630670   2.385920   3.639043   4.151789
    36  C    1.521654   2.529364   1.497030   2.515985   2.924848
    37  C    3.872297   4.340081   1.399887   2.438461   3.818019
    38  H    4.159619   4.870894   2.034815   3.278844   4.562883
    39  C    5.009063   5.185823   2.423469   2.802420   4.303221
    40  H    5.838718   6.093627   3.263420   3.732716   5.233378
    41  O    3.621082   2.368460   3.647265   2.371511   1.243664
    42  H    3.933597   3.147497   5.355013   4.748923   3.625076
    43  H    2.843976   2.572131   4.305754   4.075921   3.280585
    44  H    3.781792   3.239472   6.028974   5.660850   4.360728
    45  H    4.417245   4.501144   6.327758   6.335819   5.520691
                   31         32         33         34         35
    31  C    0.000000
    32  H    0.931185   0.000000
    33  C    1.380279   2.013771   0.000000
    34  H    2.010899   2.305984   0.930637   0.000000
    35  O    4.819632   5.632778   5.054817   5.967990   0.000000
    36  C    3.808379   4.552058   4.293145   5.223777   1.229236
    37  C    2.809727   3.740889   2.430939   3.267894   2.851567
    38  H    3.739012   4.670152   3.269015   4.038737   2.580507
    39  C    2.414424   3.253041   1.397664   2.025899   4.256339
    40  H    3.249589   4.019494   2.028784   2.321247   4.822388
    41  O    2.813241   2.523767   4.192588   4.744245   5.394678
    42  H    5.605806   5.568640   6.771829   7.423963   6.023188
    43  H    5.131647   5.354918   6.124975   6.881321   4.647844
    44  H    6.801386   6.859490   8.007613   8.769066   6.031425
    45  H    7.451299   7.698285   8.376494   9.150285   5.942862
                   36         37         38         39         40
    36  C    0.000000
    37  C    2.508920   0.000000
    38  H    2.664786   0.929346   0.000000
    39  C    3.797376   1.407202   2.039525   0.000000
    40  H    4.539869   2.037778   2.339057   0.930377   0.000000
    41  O    4.168100   4.809109   5.628503   5.021622   5.931126
    42  H    5.068934   6.586594   7.137654   7.204299   8.065664
    43  H    3.824958   5.473719   5.895632   6.277158   7.098888
    44  H    5.268066   7.385265   7.803992   8.271287   9.162377
    45  H    5.486354   7.416508   7.647505   8.368255   9.130440
                   41         42         43         44         45
    41  O    0.000000
    42  H    3.640740   0.000000
    43  H    3.812188   1.568387   0.000000
    44  H    4.560735   2.324116   2.735050   0.000000
    45  H    6.018518   2.830379   2.343519   2.888090   0.000000
 Stoichiometry    C21H20NO3(1-)
 Framework group  C1[X(C21H20NO3)]
 Deg. of freedom   129
 Full point group                 C1      NOp   1
 Largest Abelian subgroup         C1      NOp   1
 Largest concise Abelian subgroup C1      NOp   1
                         Standard orientation:                         
 ---------------------------------------------------------------------
 Center     Atomic      Atomic             Coordinates (Angstroms)
 Number     Number       Type             X           Y           Z
 ---------------------------------------------------------------------
      1          7           0       -1.968113    1.225205    0.229544
      2          1           0       -1.403209    0.255206   -1.501950
      3          6           0       -2.335752   -1.193889   -0.365994
      4          6           0       -1.429918    0.041549   -0.536914
      5          6           0       -3.691837   -1.123270   -0.029720
      6          1           0       -4.077890   -0.295754    0.145855
      7          6           0       -1.808794   -2.465339   -0.638917
      8          1           0       -0.916082   -2.546238   -0.889018
      9          6           0       -4.479044   -2.280331    0.049387
     10          1           0       -5.381052   -2.210296    0.267955
     11          6           0       -3.927880   -3.523939   -0.195970
     12          1           0       -4.448694   -4.290731   -0.127857
     13          6           0       -2.602606   -3.612001   -0.540622
     14          1           0       -2.227002   -4.445982   -0.711759
     15          6           0       -0.913710    4.968220    0.343846
     16          1           0       -0.026210    4.862530    0.719018
     17          1           0       -1.335677    5.709728    0.803359
     18          6           0       -0.782888    5.306928   -1.027343
     19          1           0       -0.797801    4.507429   -1.557881
     20          1           0       -1.510234    5.876568   -1.286842
     21          1           0        0.049195    5.766455   -1.165552
     22          6           0       -1.132197    2.457410   -0.022046
     23          6           0       -1.714673    3.698953    0.639837
     24          1           0       -2.625662    3.822481    0.330769
     25          8           0       -0.500734   -0.151731    2.240831
     26          6           0        0.334229   -0.320419    1.245041
     27          6           0        0.010170   -0.218400   -0.103249
     28          6           0        2.816629   -0.715060    0.623207
     29          6           0        2.466150   -0.557838   -0.735261
     30          6           0        1.037792   -0.340466   -1.142520
     31          6           0        3.478164   -0.590682   -1.719155
     32          1           0        3.255383   -0.498319   -2.618568
     33          6           0        4.797317   -0.760368   -1.350087
     34          1           0        5.459788   -0.780664   -2.003391
     35          8           0        2.002170   -0.876278    2.860008
     36          6           0        1.752447   -0.665758    1.674959
     37          6           0        4.155801   -0.891161    0.991027
     38          1           0        4.387977   -0.999233    1.884390
     39          6           0        5.149697   -0.902785   -0.005092
     40          1           0        6.043578   -1.004424    0.232075
     41          8           0        0.760594   -0.227919   -2.349663
     42          1           0       -1.066130    2.607017   -0.978089
     43          1           0       -0.234969    2.307181    0.317715
     44          1           0       -2.794909    1.398827   -0.001812
     45          1           0       -1.744422    3.561084    1.598871
 ---------------------------------------------------------------------
 Rotational constants (GHZ):           0.2323085           0.1760709           0.1255374
 Leave Link  202 at Mon Mar  6 10:21:46 2023, MaxMem=  1048576000 cpu:               0.0 elap:               0.0
 (Enter /ssoft/spack/external/gaussian/g16-C.01/avx2/g16/l301.exe)
 Standard basis: def2SVP (5D, 7F)
 Ernie: Thresh=  0.10000D-02 Tol=  0.10000D-05 Strict=F.
 There are   475 symmetry adapted cartesian basis functions of A   symmetry.
 There are   450 symmetry adapted basis functions of A   symmetry.
   450 basis functions,   765 primitive gaussians,   475 cartesian basis functions
    89 alpha electrons       89 beta electrons
       nuclear repulsion energy      2116.0300285330 Hartrees.
 IExCor= 1009 DFT=T Ex+Corr=PBE1PBE ExCW=0 ScaHFX=  0.250000
 ScaDFX=  0.750000  0.750000  1.000000  1.000000 ScalE2=  1.000000  1.000000
 IRadAn=      5 IRanWt=     -1 IRanGd=            0 ICorTp=0 IEmpDi=141
 NAtoms=   45 NActive=   45 NUniq=   45 SFac= 1.00D+00 NAtFMM=   60 NAOKFM=F Big=F
 Integral buffers will be    131072 words long.
 Raffenetti 2 integral format.
 Two-electron integral symmetry is turned on.
 R6Disp:  Grimme-D3(BJ) Dispersion energy=       -0.0540246512 Hartrees.
 Nuclear repulsion after empirical dispersion term =     2115.9760038818 Hartrees.
 Leave Link  301 at Mon Mar  6 10:21:46 2023, MaxMem=  1048576000 cpu:               0.1 elap:               0.1
 (Enter /ssoft/spack/external/gaussian/g16-C.01/avx2/g16/l302.exe)
 NPDir=0 NMtPBC=     1 NCelOv=     1 NCel=       1 NClECP=     1 NCelD=      1
         NCelK=      1 NCelE2=     1 NClLst=     1 CellRange=     0.0.
 One-electron integrals computed using PRISM.
 One-electron integral symmetry used in STVInt
   1 Symmetry operations used in ECPInt.
 ECPInt:  NShTT=   22155 NPrTT=   80585 LenC2=   19313 LenP2D=   47459.
 LDataN:  DoStor=T MaxTD1= 4 Len=   56
 NBasis=   450 RedAO= T EigKep=  1.93D-04  NBF=   450
 NBsUse=   450 1.00D-06 EigRej= -1.00D+00 NBFU=   450
 Precomputing XC quadrature grid using
 IXCGrd= 4 IRadAn=           5 IRanWt=          -1 IRanGd=           0 AccXCQ= 0.00D+00.
 Generated NRdTot=       0 NPtTot=           0 NUsed=           0 NTot=          32
 NSgBfM=   470   470   470   470   470 MxSgAt=    45 MxSgA2=    45.
 Leave Link  302 at Mon Mar  6 10:21:48 2023, MaxMem=  1048576000 cpu:               2.0 elap:               2.1
 (Enter /ssoft/spack/external/gaussian/g16-C.01/avx2/g16/l303.exe)
 DipDrv:  MaxL=1.
 Leave Link  303 at Mon Mar  6 10:21:48 2023, MaxMem=  1048576000 cpu:               0.1 elap:               0.1
 (Enter /ssoft/spack/external/gaussian/g16-C.01/avx2/g16/l401.exe)
 ExpMin= 1.22D-01 ExpMax= 2.27D+03 ExpMxC= 3.41D+02 IAcc=3 IRadAn=         5 AccDes= 0.00D+00
 Harris functional with IExCor= 1009 and IRadAn=       5 diagonalized for initial guess.
 HarFok:  IExCor= 1009 AccDes= 0.00D+00 IRadAn=         5 IDoV= 1 UseB2=F ITyADJ=14
 ICtDFT=  3500011 ScaDFX=  1.000000  1.000000  1.000000  1.000000
 FoFCou: FMM=F IPFlag=           0 FMFlag=      100000 FMFlg1=           0
         NFxFlg=           0 DoJE=T BraDBF=F KetDBF=T FulRan=T
         wScrn=  0.000000 ICntrl=       500 IOpCl=  0 I1Cent=   200000004 NGrid=           0
         NMat0=    1 NMatS0=      1 NMatT0=    0 NMatD0=    1 NMtDS0=    0 NMtDT0=    0
 Petite list used in FoFCou.
 Harris En= -1090.99940969554    
 JPrj=0 DoOrth=F DoCkMO=F.
 Leave Link  401 at Mon Mar  6 10:22:05 2023, MaxMem=  1048576000 cpu:              17.1 elap:              17.3
 (Enter /ssoft/spack/external/gaussian/g16-C.01/avx2/g16/l502.exe)
 Integral symmetry usage will be decided dynamically.
 Closed shell SCF:
 Using DIIS extrapolation, IDIIS=  1040.
 NGot=  1048576000 LenX=  1048115794 LenY=  1047889694
 Requested convergence on RMS density matrix=1.00D-08 within 128 cycles.
 Requested convergence on MAX density matrix=1.00D-06.
 Requested convergence on             energy=1.00D-06.
 No special actions if energy rises.
 Fock matrices will be formed incrementally for  20 cycles.
 Integral accuracy reduced to 1.0D-05 until final iterations.

 Cycle   1  Pass 0  IDiag  1:
 FoFJK:  IHMeth= 1 ICntrl=       0 DoSepK=F KAlg= 0 I1Cent=           0 FoldK=F
 IRaf= 790000000 NMat=       1 IRICut=       1 DoRegI=T DoRafI=F ISym2E= 0 IDoP0=0 IntGTp=1.
 FoFCou: FMM=F IPFlag=           0 FMFlag=      100000 FMFlg1=           0
         NFxFlg=           0 DoJE=F BraDBF=F KetDBF=F FulRan=T
         wScrn=  0.000000 ICntrl=         0 IOpCl=  0 I1Cent=           0 NGrid=           0
         NMat0=    1 NMatS0=      1 NMatT0=    0 NMatD0=    1 NMtDS0=    0 NMtDT0=    0
 Symmetry not used in FoFCou.
 E= -1089.70777927850    
 DIIS: error= 2.51D-02 at cycle   1 NSaved=   1.
 NSaved= 1 IEnMin= 1 EnMin= -1089.70777927850     IErMin= 1 ErrMin= 2.51D-02
 ErrMax= 2.51D-02  0.00D+00 EMaxC= 1.00D-01 BMatC= 6.32D-01 BMatP= 6.32D-01
 IDIUse=3 WtCom= 7.49D-01 WtEn= 2.51D-01
 Coeff-Com:  0.100D+01
 Coeff-En:   0.100D+01
 Coeff:      0.100D+01
 Gap=     0.059 Goal=   None    Shift=    0.000
 GapD=    0.059 DampG=0.500 DampE=0.500 DampFc=0.2500 IDamp=-1.
 Damping current iteration by 2.50D-01
 RMSDP=6.64D-03 MaxDP=2.84D-01              OVMax= 9.16D-01

 Cycle   2  Pass 0  IDiag  1:
 RMSU=  1.63D-03    CP:  9.81D-01
 E= -1089.84392700417     Delta-E=       -0.136147725669 Rises=F Damp=T
 DIIS: error= 1.41D-02 at cycle   2 NSaved=   2.
 NSaved= 2 IEnMin= 2 EnMin= -1089.84392700417     IErMin= 2 ErrMin= 1.41D-02
 ErrMax= 1.41D-02  0.00D+00 EMaxC= 1.00D-01 BMatC= 1.84D-01 BMatP= 6.32D-01
 IDIUse=3 WtCom= 8.59D-01 WtEn= 1.41D-01
 Coeff-Com: -0.347D+00 0.135D+01
 Coeff-En:   0.151D+00 0.849D+00
 Coeff:     -0.277D+00 0.128D+01
 Gap=    -0.274 Goal=   None    Shift=    0.000
 RMSDP=3.18D-03 MaxDP=1.41D-01 DE=-1.36D-01 OVMax= 4.20D-01

 Cycle   3  Pass 0  IDiag  1:
 RMSU=  2.93D-03    CP:  9.32D-01  1.55D+00
 E= -1089.86474054856     Delta-E=       -0.020813544387 Rises=F Damp=F
 DIIS: error= 3.35D-02 at cycle   3 NSaved=   3.
 NSaved= 3 IEnMin= 3 EnMin= -1089.86474054856     IErMin= 2 ErrMin= 1.41D-02
 ErrMax= 3.35D-02  0.00D+00 EMaxC= 1.00D-01 BMatC= 5.07D-01 BMatP= 1.84D-01
 IDIUse=2 WtCom= 0.00D+00 WtEn= 1.00D+00
 Coeff-En:   0.000D+00 0.485D+00 0.515D+00
 Coeff:      0.000D+00 0.485D+00 0.515D+00
 Gap=     0.221 Goal=   None    Shift=    0.000
 RMSDP=4.41D-03 MaxDP=3.40D-01 DE=-2.08D-02 OVMax= 8.49D-01

 Cycle   4  Pass 0  IDiag  1:
 RMSU=  2.02D-03    CP:  9.27D-01  2.65D+00 -1.89D-01
 E= -1088.20488857016     Delta-E=        1.659851978400 Rises=F Damp=F
 DIIS: error= 5.73D-02 at cycle   4 NSaved=   4.
 NSaved= 4 IEnMin= 3 EnMin= -1089.86474054856     IErMin= 2 ErrMin= 1.41D-02
 ErrMax= 5.73D-02  0.00D+00 EMaxC= 1.00D-01 BMatC= 1.51D+00 BMatP= 1.84D-01
 IDIUse=2 WtCom= 0.00D+00 WtEn= 1.00D+00
 Coeff-En:   0.000D+00 0.000D+00 0.728D+00 0.272D+00
 Coeff:      0.000D+00 0.000D+00 0.728D+00 0.272D+00
 Gap=     0.064 Goal=   None    Shift=    0.000
 RMSDP=3.71D-03 MaxDP=2.30D-01 DE= 1.66D+00 OVMax= 9.79D-01

 Cycle   5  Pass 0  IDiag  1:
 RMSU=  1.86D-03    CP:  9.45D-01  1.22D+00  3.31D-01  2.23D-01
 E= -1090.30232402693     Delta-E=       -2.097435456767 Rises=F Damp=F
 DIIS: error= 7.39D-03 at cycle   5 NSaved=   5.
 NSaved= 5 IEnMin= 5 EnMin= -1090.30232402693     IErMin= 5 ErrMin= 7.39D-03
 ErrMax= 7.39D-03  0.00D+00 EMaxC= 1.00D-01 BMatC= 6.38D-02 BMatP= 1.84D-01
 IDIUse=3 WtCom= 9.26D-01 WtEn= 7.39D-02
 Coeff-Com: -0.316D+00 0.562D+00 0.261D+00-0.217D-01 0.514D+00
 Coeff-En:   0.000D+00 0.000D+00 0.574D-01 0.000D+00 0.943D+00
 Coeff:     -0.292D+00 0.521D+00 0.246D+00-0.201D-01 0.546D+00
 Gap=     0.119 Goal=   None    Shift=    0.000
 RMSDP=1.07D-03 MaxDP=5.78D-02 DE=-2.10D+00 OVMax= 1.42D-01

 Cycle   6  Pass 0  IDiag  1:
 RMSU=  7.70D-04    CP:  9.40D-01  1.43D+00  4.88D-01  8.39D-02  7.96D-01
 E= -1090.34526767318     Delta-E=       -0.042943646251 Rises=F Damp=F
 DIIS: error= 4.94D-03 at cycle   6 NSaved=   6.
 NSaved= 6 IEnMin= 6 EnMin= -1090.34526767318     IErMin= 6 ErrMin= 4.94D-03
 ErrMax= 4.94D-03  0.00D+00 EMaxC= 1.00D-01 BMatC= 1.71D-02 BMatP= 6.38D-02
 IDIUse=3 WtCom= 9.51D-01 WtEn= 4.94D-02
 Coeff-Com: -0.211D+00 0.320D+00 0.719D-01-0.187D-01 0.319D+00 0.519D+00
 Coeff-En:   0.000D+00 0.000D+00 0.000D+00 0.000D+00 0.198D+00 0.802D+00
 Coeff:     -0.201D+00 0.304D+00 0.684D-01-0.177D-01 0.313D+00 0.533D+00
 Gap=     0.111 Goal=   None    Shift=    0.000
 RMSDP=4.70D-04 MaxDP=3.35D-02 DE=-4.29D-02 OVMax= 6.07D-02

 Cycle   7  Pass 0  IDiag  1:
 RMSU=  2.38D-04    CP:  9.41D-01  1.45D+00  4.38D-01  6.46D-02  9.33D-01
                    CP:  6.47D-01
 E= -1090.36124397467     Delta-E=       -0.015976301493 Rises=F Damp=F
 DIIS: error= 1.20D-03 at cycle   7 NSaved=   7.
 NSaved= 7 IEnMin= 7 EnMin= -1090.36124397467     IErMin= 7 ErrMin= 1.20D-03
 ErrMax= 1.20D-03  0.00D+00 EMaxC= 1.00D-01 BMatC= 1.41D-03 BMatP= 1.71D-02
 IDIUse=3 WtCom= 9.88D-01 WtEn= 1.20D-02
 Coeff-Com: -0.748D-01 0.106D+00-0.870D-02-0.215D-02 0.950D-01 0.312D+00
 Coeff-Com:  0.572D+00
 Coeff-En:   0.000D+00 0.000D+00 0.000D+00 0.000D+00 0.000D+00 0.000D+00
 Coeff-En:   0.100D+01
 Coeff:     -0.739D-01 0.105D+00-0.860D-02-0.213D-02 0.938D-01 0.309D+00
 Coeff:      0.577D+00
 Gap=     0.106 Goal=   None    Shift=    0.000
 RMSDP=1.53D-04 MaxDP=8.52D-03 DE=-1.60D-02 OVMax= 1.94D-02

 Cycle   8  Pass 0  IDiag  1:
 RMSU=  9.57D-05    CP:  9.41D-01  1.44D+00  4.25D-01  7.52D-02  9.49D-01
                    CP:  7.79D-01  8.85D-01
 E= -1090.36277712094     Delta-E=       -0.001533146274 Rises=F Damp=F
 DIIS: error= 7.51D-04 at cycle   8 NSaved=   8.
 NSaved= 8 IEnMin= 8 EnMin= -1090.36277712094     IErMin= 8 ErrMin= 7.51D-04
 ErrMax= 7.51D-04  0.00D+00 EMaxC= 1.00D-01 BMatC= 2.39D-04 BMatP= 1.41D-03
 IDIUse=3 WtCom= 9.92D-01 WtEn= 7.51D-03
 Coeff-Com: -0.349D-01 0.532D-01-0.110D-01-0.112D-02 0.146D-01 0.104D+00
 Coeff-Com:  0.278D+00 0.597D+00
 Coeff-En:   0.000D+00 0.000D+00 0.000D+00 0.000D+00 0.000D+00 0.000D+00
 Coeff-En:   0.000D+00 0.100D+01
 Coeff:     -0.346D-01 0.528D-01-0.110D-01-0.111D-02 0.144D-01 0.104D+00
 Coeff:      0.276D+00 0.600D+00
 Gap=     0.107 Goal=   None    Shift=    0.000
 RMSDP=5.56D-05 MaxDP=2.90D-03 DE=-1.53D-03 OVMax= 4.77D-03

 Cycle   9  Pass 0  IDiag  1:
 RMSU=  4.22D-05    CP:  9.41D-01  1.45D+00  4.23D-01  6.78D-02  9.54D-01
                    CP:  7.87D-01  9.27D-01  7.49D-01
 E= -1090.36297953439     Delta-E=       -0.000202413447 Rises=F Damp=F
 DIIS: error= 2.58D-04 at cycle   9 NSaved=   9.
 NSaved= 9 IEnMin= 9 EnMin= -1090.36297953439     IErMin= 9 ErrMin= 2.58D-04
 ErrMax= 2.58D-04  0.00D+00 EMaxC= 1.00D-01 BMatC= 5.18D-05 BMatP= 2.39D-04
 IDIUse=3 WtCom= 9.97D-01 WtEn= 2.58D-03
 Coeff-Com: -0.592D-02 0.111D-01-0.139D-02-0.307D-03-0.116D-01-0.350D-01
 Coeff-Com: -0.731D-01 0.282D+00 0.834D+00
 Coeff-En:   0.000D+00 0.000D+00 0.000D+00 0.000D+00 0.000D+00 0.000D+00
 Coeff-En:   0.000D+00 0.000D+00 0.100D+01
 Coeff:     -0.591D-02 0.111D-01-0.139D-02-0.306D-03-0.115D-01-0.349D-01
 Coeff:     -0.729D-01 0.281D+00 0.835D+00
 Gap=     0.106 Goal=   None    Shift=    0.000
 RMSDP=2.88D-05 MaxDP=1.65D-03 DE=-2.02D-04 OVMax= 4.27D-03

 Cycle  10  Pass 0  IDiag  1:
 RMSU=  1.71D-05    CP:  9.41D-01  1.45D+00  4.22D-01  6.61D-02  9.57D-01
                    CP:  7.97D-01  9.67D-01  9.35D-01  1.05D+00
 E= -1090.36303299773     Delta-E=       -0.000053463340 Rises=F Damp=F
 DIIS: error= 9.50D-05 at cycle  10 NSaved=  10.
 NSaved=10 IEnMin=10 EnMin= -1090.36303299773     IErMin=10 ErrMin= 9.50D-05
 ErrMax= 9.50D-05  0.00D+00 EMaxC= 1.00D-01 BMatC= 7.60D-06 BMatP= 5.18D-05
 IDIUse=1 WtCom= 1.00D+00 WtEn= 0.00D+00
 Coeff-Com: -0.286D-02 0.503D-02 0.137D-02-0.231D-03-0.344D-02-0.273D-01
 Coeff-Com: -0.801D-01 0.104D+00 0.492D+00 0.512D+00
 Coeff:     -0.286D-02 0.503D-02 0.137D-02-0.231D-03-0.344D-02-0.273D-01
 Coeff:     -0.801D-01 0.104D+00 0.492D+00 0.512D+00
 Gap=     0.106 Goal=   None    Shift=    0.000
 RMSDP=1.08D-05 MaxDP=5.27D-04 DE=-5.35D-05 OVMax= 2.27D-03

 Cycle  11  Pass 0  IDiag  1:
 RMSU=  8.48D-06    CP:  9.41D-01  1.46D+00  4.21D-01  6.70D-02  9.58D-01
                    CP:  7.95D-01  9.59D-01  9.52D-01  1.12D+00  7.54D-01
 E= -1090.36304089764     Delta-E=       -0.000007899908 Rises=F Damp=F
 DIIS: error= 3.99D-05 at cycle  11 NSaved=  11.
 NSaved=11 IEnMin=11 EnMin= -1090.36304089764     IErMin=11 ErrMin= 3.99D-05
 ErrMax= 3.99D-05  0.00D+00 EMaxC= 1.00D-01 BMatC= 8.84D-07 BMatP= 7.60D-06
 IDIUse=1 WtCom= 1.00D+00 WtEn= 0.00D+00
 Coeff-Com: -0.596D-03 0.113D-02 0.897D-03-0.113D-03-0.108D-02-0.116D-01
 Coeff-Com: -0.377D-01 0.189D-01 0.159D+00 0.315D+00 0.557D+00
 Coeff:     -0.596D-03 0.113D-02 0.897D-03-0.113D-03-0.108D-02-0.116D-01
 Coeff:     -0.377D-01 0.189D-01 0.159D+00 0.315D+00 0.557D+00
 Gap=     0.106 Goal=   None    Shift=    0.000
 RMSDP=4.66D-06 MaxDP=1.80D-04 DE=-7.90D-06 OVMax= 5.33D-04

 Initial convergence to 1.0D-05 achieved.  Increase integral accuracy.
 Cycle  12  Pass 1  IDiag  1:
 E= -1090.36304244526     Delta-E=       -0.000001547621 Rises=F Damp=F
 DIIS: error= 1.47D-04 at cycle   1 NSaved=   1.
 NSaved= 1 IEnMin= 1 EnMin= -1090.36304244526     IErMin= 1 ErrMin= 1.47D-04
 ErrMax= 1.47D-04  0.00D+00 EMaxC= 1.00D-01 BMatC= 4.65D-06 BMatP= 4.65D-06
 IDIUse=3 WtCom= 9.99D-01 WtEn= 1.47D-03
 Coeff-Com:  0.100D+01
 Coeff-En:   0.100D+01
 Coeff:      0.100D+01
 Gap=     0.106 Goal=   None    Shift=    0.000
 RMSDP=4.66D-06 MaxDP=1.80D-04 DE=-1.55D-06 OVMax= 4.77D-04

 Cycle  13  Pass 1  IDiag  1:
 RMSU=  1.36D-04    CP:  1.00D+00
 E= -1090.36304681736     Delta-E=       -0.000004372095 Rises=F Damp=F
 DIIS: error= 2.87D-05 at cycle   2 NSaved=   2.
 NSaved= 2 IEnMin= 2 EnMin= -1090.36304681736     IErMin= 2 ErrMin= 2.87D-05
 ErrMax= 2.87D-05  0.00D+00 EMaxC= 1.00D-01 BMatC= 5.16D-07 BMatP= 4.65D-06
 IDIUse=1 WtCom= 1.00D+00 WtEn= 0.00D+00
 Coeff-Com:  0.131D+00 0.869D+00
 Coeff:      0.131D+00 0.869D+00
 Gap=     0.106 Goal=   None    Shift=    0.000
 RMSDP=6.62D-06 MaxDP=4.42D-04 DE=-4.37D-06 OVMax= 1.14D-03

 Cycle  14  Pass 1  IDiag  1:
 RMSU=  6.34D-06    CP:  1.00D+00  1.01D+00
 E= -1090.36304565000     Delta-E=        0.000001167357 Rises=F Damp=F
 DIIS: error= 5.06D-05 at cycle   3 NSaved=   3.
 NSaved= 3 IEnMin= 2 EnMin= -1090.36304681736     IErMin= 2 ErrMin= 2.87D-05
 ErrMax= 5.06D-05  0.00D+00 EMaxC= 1.00D-01 BMatC= 1.80D-06 BMatP= 5.16D-07
 IDIUse=1 WtCom= 1.00D+00 WtEn= 0.00D+00
 Coeff-Com:  0.702D-03 0.654D+00 0.345D+00
 Coeff:      0.702D-03 0.654D+00 0.345D+00
 Gap=     0.106 Goal=   None    Shift=    0.000
 RMSDP=4.57D-06 MaxDP=3.47D-04 DE= 1.17D-06 OVMax= 7.97D-04

 Cycle  15  Pass 1  IDiag  1:
 RMSU=  1.33D-06    CP:  1.00D+00  1.02D+00  3.14D-01
 E= -1090.36304726789     Delta-E=       -0.000001617894 Rises=F Damp=F
 DIIS: error= 1.12D-05 at cycle   4 NSaved=   4.
 NSaved= 4 IEnMin= 4 EnMin= -1090.36304726789     IErMin= 4 ErrMin= 1.12D-05
 ErrMax= 1.12D-05  0.00D+00 EMaxC= 1.00D-01 BMatC= 6.62D-08 BMatP= 5.16D-07
 IDIUse=1 WtCom= 1.00D+00 WtEn= 0.00D+00
 Coeff-Com: -0.510D-02 0.416D+00 0.233D+00 0.356D+00
 Coeff:     -0.510D-02 0.416D+00 0.233D+00 0.356D+00
 Gap=     0.106 Goal=   None    Shift=    0.000
 RMSDP=8.03D-07 MaxDP=4.86D-05 DE=-1.62D-06 OVMax= 1.13D-04

 Cycle  16  Pass 1  IDiag  1:
 RMSU=  4.40D-07    CP:  1.00D+00  1.02D+00  3.56D-01  5.39D-01
 E= -1090.36304732340     Delta-E=       -0.000000055511 Rises=F Damp=F
 DIIS: error= 1.73D-06 at cycle   5 NSaved=   5.
 NSaved= 5 IEnMin= 5 EnMin= -1090.36304732340     IErMin= 5 ErrMin= 1.73D-06
 ErrMax= 1.73D-06  0.00D+00 EMaxC= 1.00D-01 BMatC= 2.14D-09 BMatP= 6.62D-08
 IDIUse=1 WtCom= 1.00D+00 WtEn= 0.00D+00
 Coeff-Com: -0.327D-02 0.239D+00 0.132D+00 0.235D+00 0.398D+00
 Coeff:     -0.327D-02 0.239D+00 0.132D+00 0.235D+00 0.398D+00
 Gap=     0.106 Goal=   None    Shift=    0.000
 RMSDP=1.58D-07 MaxDP=7.43D-06 DE=-5.55D-08 OVMax= 1.78D-05

 Cycle  17  Pass 1  IDiag  1:
 RMSU=  1.28D-07    CP:  1.00D+00  1.02D+00  3.51D-01  5.95D-01  9.01D-01
 E= -1090.36304732547     Delta-E=       -0.000000002070 Rises=F Damp=F
 DIIS: error= 4.68D-07 at cycle   6 NSaved=   6.
 NSaved= 6 IEnMin= 6 EnMin= -1090.36304732547     IErMin= 6 ErrMin= 4.68D-07
 ErrMax= 4.68D-07  0.00D+00 EMaxC= 1.00D-01 BMatC= 1.47D-10 BMatP= 2.14D-09
 IDIUse=1 WtCom= 1.00D+00 WtEn= 0.00D+00
 Coeff-Com:  0.137D-03-0.198D-01-0.164D-01 0.675D-02 0.980D-01 0.931D+00
 Coeff:      0.137D-03-0.198D-01-0.164D-01 0.675D-02 0.980D-01 0.931D+00
 Gap=     0.106 Goal=   None    Shift=    0.000
 RMSDP=1.15D-07 MaxDP=3.87D-06 DE=-2.07D-09 OVMax= 2.75D-05

 Cycle  18  Pass 1  IDiag  1:
 RMSU=  7.51D-08    CP:  1.00D+00  1.02D+00  3.48D-01  6.35D-01  1.04D+00
                    CP:  1.15D+00
 E= -1090.36304732583     Delta-E=       -0.000000000353 Rises=F Damp=F
 DIIS: error= 1.86D-07 at cycle   7 NSaved=   7.
 NSaved= 7 IEnMin= 7 EnMin= -1090.36304732583     IErMin= 7 ErrMin= 1.86D-07
 ErrMax= 1.86D-07  0.00D+00 EMaxC= 1.00D-01 BMatC= 5.91D-11 BMatP= 1.47D-10
 IDIUse=1 WtCom= 1.00D+00 WtEn= 0.00D+00
 Coeff-Com:  0.797D-03-0.644D-01-0.398D-01-0.442D-01-0.411D-01 0.583D+00
 Coeff-Com:  0.606D+00
 Coeff:      0.797D-03-0.644D-01-0.398D-01-0.442D-01-0.411D-01 0.583D+00
 Coeff:      0.606D+00
 Gap=     0.106 Goal=   None    Shift=    0.000
 RMSDP=5.54D-08 MaxDP=1.65D-06 DE=-3.53D-10 OVMax= 1.19D-05

 Cycle  19  Pass 1  IDiag  1:
 RMSU=  3.18D-08    CP:  1.00D+00  1.02D+00  3.46D-01  6.54D-01  1.07D+00
                    CP:  1.39D+00  1.17D+00
 E= -1090.36304732594     Delta-E=       -0.000000000111 Rises=F Damp=F
 DIIS: error= 9.87D-08 at cycle   8 NSaved=   8.
 NSaved= 8 IEnMin= 8 EnMin= -1090.36304732594     IErMin= 8 ErrMin= 9.87D-08
 ErrMax= 9.87D-08  0.00D+00 EMaxC= 1.00D-01 BMatC= 4.74D-12 BMatP= 5.91D-11
 IDIUse=1 WtCom= 1.00D+00 WtEn= 0.00D+00
 Coeff-Com:  0.388D-03-0.304D-01-0.184D-01-0.233D-01-0.318D-01 0.193D+00
 Coeff-Com:  0.315D+00 0.595D+00
 Coeff:      0.388D-03-0.304D-01-0.184D-01-0.233D-01-0.318D-01 0.193D+00
 Coeff:      0.315D+00 0.595D+00
 Gap=     0.106 Goal=   None    Shift=    0.000
 RMSDP=1.48D-08 MaxDP=7.20D-07 DE=-1.11D-10 OVMax= 3.26D-06

 Cycle  20  Pass 1  IDiag  1:
 RMSU=  1.02D-08    CP:  1.00D+00  1.02D+00  3.46D-01  6.56D-01  1.08D+00
                    CP:  1.42D+00  1.28D+00  1.03D+00
 E= -1090.36304732596     Delta-E=       -0.000000000022 Rises=F Damp=F
 DIIS: error= 7.92D-08 at cycle   9 NSaved=   9.
 NSaved= 9 IEnMin= 9 EnMin= -1090.36304732596     IErMin= 9 ErrMin= 7.92D-08
 ErrMax= 7.92D-08  0.00D+00 EMaxC= 1.00D-01 BMatC= 2.02D-12 BMatP= 4.74D-12
 IDIUse=1 WtCom= 1.00D+00 WtEn= 0.00D+00
 Coeff-Com:  0.418D-04-0.275D-02-0.129D-02-0.402D-02-0.950D-02-0.401D-01
 Coeff-Com:  0.495D-01 0.424D+00 0.584D+00
 Coeff:      0.418D-04-0.275D-02-0.129D-02-0.402D-02-0.950D-02-0.401D-01
 Coeff:      0.495D-01 0.424D+00 0.584D+00
 Gap=     0.106 Goal=   None    Shift=    0.000
 RMSDP=8.41D-09 MaxDP=3.80D-07 DE=-2.23D-11 OVMax= 1.82D-06

 SCF Done:  E(RPBE1PBE) =  -1090.36304733     A.U. after   20 cycles
            NFock= 20  Conv=0.84D-08     -V/T= 2.0052
 KE= 1.084678397718D+03 PE=-6.794234522767D+03 EE= 2.503217073842D+03
 Leave Link  502 at Mon Mar  6 10:35:44 2023, MaxMem=  1048576000 cpu:             812.8 elap:             819.0
 (Enter /ssoft/spack/external/gaussian/g16-C.01/avx2/g16/l801.exe)
 DoSCS=F DFT=T ScalE2(SS,OS)=  1.000000  1.000000
 Range of M.O.s used for correlation:     1   450
 NBasis=   450 NAE=    89 NBE=    89 NFC=     0 NFV=     0
 NROrb=    450 NOA=    89 NOB=    89 NVA=   361 NVB=   361

 **** Warning!!: The largest alpha MO coefficient is  0.12077756D+02

 Leave Link  801 at Mon Mar  6 10:35:45 2023, MaxMem=  1048576000 cpu:               0.0 elap:               0.0
 (Enter /ssoft/spack/external/gaussian/g16-C.01/avx2/g16/l1101.exe)
 Using compressed storage, NAtomX=    45.
 Will process     46 centers per pass.
   1 Symmetry operations used in ECPInt.
 ECPInt:  NShTT=   22155 NPrTT=   80585 LenC2=   19313 LenP2D=   47459.
 LDataN:  DoStor=T MaxTD1= 5 Len=  102
 R6Disp: Adding Grimme-D3(BJ) dispersion energy 1st derivatives to the gradient.
 Leave Link 1101 at Mon Mar  6 10:35:46 2023, MaxMem=  1048576000 cpu:               1.0 elap:               1.2
 (Enter /ssoft/spack/external/gaussian/g16-C.01/avx2/g16/l1102.exe)
 Symmetrizing basis deriv contribution to polar:
 IMax=3 JMax=2 DiffMx= 0.00D+00
 Leave Link 1102 at Mon Mar  6 10:35:46 2023, MaxMem=  1048576000 cpu:               0.1 elap:               0.1
 (Enter /ssoft/spack/external/gaussian/g16-C.01/avx2/g16/l1110.exe)
 Forming Gx(P) for the SCF density, NAtomX=    45.
 Integral derivatives from FoFJK, PRISM(SPDF).
 Do as many integral derivatives as possible in FoFJK.
 G2DrvN: MDV=    1048571229.
 G2DrvN: will do    46 centers at a time, making    1 passes.
 Calling FoFCou, ICntrl=  3107 FMM=F I1Cent=   0 AccDes= 0.00D+00.
 FoFJK:  IHMeth= 1 ICntrl=    3107 DoSepK=F KAlg= 0 I1Cent=           0 FoldK=F
 IRaf=         0 NMat=       1 IRICut=       1 DoRegI=T DoRafI=F ISym2E= 0 IDoP0=0 IntGTp=1.
 FoFCou: FMM=F IPFlag=           0 FMFlag=      100000 FMFlg1=           0
         NFxFlg=           0 DoJE=F BraDBF=F KetDBF=F FulRan=T
         wScrn=  0.000000 ICntrl=      3107 IOpCl=  0 I1Cent=           0 NGrid=           0
         NMat0=    1 NMatS0=      1 NMatT0=    0 NMatD0=    1 NMtDS0=    0 NMtDT0=    0
 Symmetry not used in FoFCou.
 End of G2Drv F.D. properties file   721 does not exist.
 End of G2Drv F.D. properties file   722 does not exist.
 End of G2Drv F.D. properties file   788 does not exist.
 Leave Link 1110 at Mon Mar  6 11:04:47 2023, MaxMem=  1048576000 cpu:            1731.7 elap:            1741.2
 (Enter /ssoft/spack/external/gaussian/g16-C.01/avx2/g16/l1002.exe)
 Minotr:  Closed shell wavefunction.
          IDoAtm=111111111111111111111111111111111111111111111
          Direct CPHF calculation.
          Differentiating once with respect to electric field.
                with respect to dipole field.
          Differentiating once with respect to nuclear coordinates.
          Requested convergence is 1.0D-08 RMS, and 1.0D-07 maximum.
          Secondary convergence is 1.0D-12 RMS, and 1.0D-12 maximum.
          NewPWx=T KeepS1=F KeepF1=F KeepIn=T MapXYZ=F SortEE=F KeepMc=T.
        13621 words used for storage of precomputed grid.
 Two-electron integrals replicated using symmetry.
          MDV=    1048576000 using IRadAn=       1.
          Solving linear equations simultaneously, MaxMat=     384.
 FoF2E skips out because all densities are zero.
 CalDSu exits because no D1Ps are significant.
 FoFJK:  IHMeth= 1 ICntrl=       0 DoSepK=F KAlg= 0 I1Cent=           0 FoldK=F
 IRaf= 760000000 NMat=     135 IRICut=     337 DoRegI=T DoRafI=T ISym2E= 2 IDoP0=3 IntGTp=3.
 FoFCou: FMM=F IPFlag=           0 FMFlag=      100000 FMFlg1=           0
         NFxFlg=           0 DoJE=F BraDBF=F KetDBF=F FulRan=T
         wScrn=  0.000000 ICntrl=         0 IOpCl=  0 I1Cent=           0 NGrid=           0
         NMat0=  135 NMatS0=    135 NMatT0=    0 NMatD0=  135 NMtDS0=    0 NMtDT0=    0
 Integrals replicated using symmetry in FoFCou.
 Raff kept on since  70.78% of shell-pairs survive, threshold=   0.20 IRatSp=71.
          There are   138 degrees of freedom in the 1st order CPHF.  IDoFFX=6 NUNeed=     3.
    135 vectors produced by pass  0 Test12= 3.21D-14 1.00D-09 XBig12= 3.81D+02 1.05D+01.
 AX will form   135 AO Fock derivatives at one time.
    135 vectors produced by pass  1 Test12= 3.21D-14 1.00D-09 XBig12= 1.26D+02 1.89D+00.
    135 vectors produced by pass  2 Test12= 3.21D-14 1.00D-09 XBig12= 2.05D+00 1.94D-01.
    135 vectors produced by pass  3 Test12= 3.21D-14 1.00D-09 XBig12= 1.01D-02 6.01D-03.
    135 vectors produced by pass  4 Test12= 3.21D-14 1.00D-09 XBig12= 3.18D-05 4.29D-04.
    123 vectors produced by pass  5 Test12= 3.21D-14 1.00D-09 XBig12= 5.27D-08 2.03D-05.
     39 vectors produced by pass  6 Test12= 3.21D-14 1.00D-09 XBig12= 5.81D-11 8.05D-07.
      3 vectors produced by pass  7 Test12= 3.21D-14 1.00D-09 XBig12= 6.34D-14 2.37D-08.
      1 vectors produced by pass  8 Test12= 3.21D-14 1.00D-09 XBig12= 7.09D-16 1.40D-09.
 InvSVY:  IOpt=1 It=  1 EMax= 1.15D-14
 Solved reduced A of dimension   841 with   138 vectors.
 FullF1:  Do perturbations      1 to       3.
 Isotropic polarizability for W=    0.000000      228.93 Bohr**3.
 End of Minotr F.D. properties file   721 does not exist.
 End of Minotr F.D. properties file   722 does not exist.
 End of Minotr F.D. properties file   788 does not exist.
 Leave Link 1002 at Mon Mar  6 12:07:53 2023, MaxMem=  1048576000 cpu:            3770.9 elap:            3786.3
 (Enter /ssoft/spack/external/gaussian/g16-C.01/avx2/g16/l601.exe)
 Copying SCF densities to generalized density rwf, IOpCl= 0 IROHF=0.

 **********************************************************************

            Population analysis using the SCF Density.

 **********************************************************************

 Orbital symmetries:
       Occupied  (A) (A) (A) (A) (A) (A) (A) (A) (A) (A) (A) (A)
                 (A) (A) (A) (A) (A) (A) (A) (A) (A) (A) (A) (A)
                 (A) (A) (A) (A) (A) (A) (A) (A) (A) (A) (A) (A)
                 (A) (A) (A) (A) (A) (A) (A) (A) (A) (A) (A) (A)
                 (A) (A) (A) (A) (A) (A) (A) (A) (A) (A) (A) (A)
                 (A) (A) (A) (A) (A) (A) (A) (A) (A) (A) (A) (A)
                 (A) (A) (A) (A) (A) (A) (A) (A) (A) (A) (A) (A)
                 (A) (A) (A) (A) (A)
       Virtual   (A) (A) (A) (A) (A) (A) (A) (A) (A) (A) (A) (A)
                 (A) (A) (A) (A) (A) (A) (A) (A) (A) (A) (A) (A)
                 (A) (A) (A) (A) (A) (A) (A) (A) (A) (A) (A) (A)
                 (A) (A) (A) (A) (A) (A) (A) (A) (A) (A) (A) (A)
                 (A) (A) (A) (A) (A) (A) (A) (A) (A) (A) (A) (A)
                 (A) (A) (A) (A) (A) (A) (A) (A) (A) (A) (A) (A)
                 (A) (A) (A) (A) (A) (A) (A) (A) (A) (A) (A) (A)
                 (A) (A) (A) (A) (A) (A) (A) (A) (A) (A) (A) (A)
                 (A) (A) (A) (A) (A) (A) (A) (A) (A) (A) (A) (A)
                 (A) (A) (A) (A) (A) (A) (A) (A) (A) (A) (A) (A)
                 (A) (A) (A) (A) (A) (A) (A) (A) (A) (A) (A) (A)
                 (A) (A) (A) (A) (A) (A) (A) (A) (A) (A) (A) (A)
                 (A) (A) (A) (A) (A) (A) (A) (A) (A) (A) (A) (A)
                 (A) (A) (A) (A) (A) (A) (A) (A) (A) (A) (A) (A)
                 (A) (A) (A) (A) (A) (A) (A) (A) (A) (A) (A) (A)
                 (A) (A) (A) (A) (A) (A) (A) (A) (A) (A) (A) (A)
                 (A) (A) (A) (A) (A) (A) (A) (A) (A) (A) (A) (A)
                 (A) (A) (A) (A) (A) (A) (A) (A) (A) (A) (A) (A)
                 (A) (A) (A) (A) (A) (A) (A) (A) (A) (A) (A) (A)
                 (A) (A) (A) (A) (A) (A) (A) (A) (A) (A) (A) (A)
                 (A) (A) (A) (A) (A) (A) (A) (A) (A) (A) (A) (A)
                 (A) (A) (A) (A) (A) (A) (A) (A) (A) (A) (A) (A)
                 (A) (A) (A) (A) (A) (A) (A) (A) (A) (A) (A) (A)
                 (A) (A) (A) (A) (A) (A) (A) (A) (A) (A) (A) (A)
                 (A) (A) (A) (A) (A) (A) (A) (A) (A) (A) (A) (A)
                 (A) (A) (A) (A) (A) (A) (A) (A) (A) (A) (A) (A)
                 (A) (A) (A) (A) (A) (A) (A) (A) (A) (A) (A) (A)
                 (A) (A) (A) (A) (A) (A) (A) (A) (A) (A) (A) (A)
                 (A) (A) (A) (A) (A) (A) (A) (A) (A) (A) (A) (A)
                 (A) (A) (A) (A) (A) (A) (A) (A) (A) (A) (A) (A)
                 (A)
 The electronic state is 1-A.
 Alpha  occ. eigenvalues --  -19.07125 -19.03293 -18.99914 -14.22470 -10.18466
 Alpha  occ. eigenvalues --  -10.16546 -10.13629 -10.13556 -10.13324 -10.12676
 Alpha  occ. eigenvalues --  -10.12609 -10.12475 -10.12442 -10.12402 -10.11856
 Alpha  occ. eigenvalues --  -10.11108 -10.10721 -10.10659 -10.10641 -10.10232
 Alpha  occ. eigenvalues --  -10.10071 -10.09632 -10.09152 -10.08368 -10.07427
 Alpha  occ. eigenvalues --   -0.92114  -0.88780  -0.81934  -0.79617  -0.77656
 Alpha  occ. eigenvalues --   -0.76473  -0.74792  -0.69316  -0.67971  -0.67483
 Alpha  occ. eigenvalues --   -0.66301  -0.64908  -0.63035  -0.58253  -0.56685
 Alpha  occ. eigenvalues --   -0.55659  -0.53231  -0.53088  -0.51623  -0.50683
 Alpha  occ. eigenvalues --   -0.48418  -0.47275  -0.44963  -0.41977  -0.41418
 Alpha  occ. eigenvalues --   -0.40947  -0.40399  -0.38922  -0.38101  -0.37067
 Alpha  occ. eigenvalues --   -0.36092  -0.35576  -0.35261  -0.34864  -0.33855
 Alpha  occ. eigenvalues --   -0.33252  -0.32040  -0.31381  -0.31157  -0.30177
 Alpha  occ. eigenvalues --   -0.29626  -0.29132  -0.28296  -0.27443  -0.27030
 Alpha  occ. eigenvalues --   -0.26615  -0.26034  -0.25984  -0.25502  -0.25083
 Alpha  occ. eigenvalues --   -0.24470  -0.24005  -0.23040  -0.22208  -0.19095
 Alpha  occ. eigenvalues --   -0.16570  -0.15734  -0.15255  -0.14604  -0.14203
 Alpha  occ. eigenvalues --   -0.12209  -0.10205  -0.06964  -0.06295
 Alpha virt. eigenvalues --    0.04342   0.08276   0.10777   0.11523   0.13121
 Alpha virt. eigenvalues --    0.16791   0.19202   0.19670   0.19727   0.20556
 Alpha virt. eigenvalues --    0.21107   0.21729   0.22938   0.23076   0.23360
 Alpha virt. eigenvalues --    0.24381   0.24998   0.26078   0.26478   0.27123
 Alpha virt. eigenvalues --    0.27290   0.28196   0.28435   0.28913   0.29596
 Alpha virt. eigenvalues --    0.30961   0.32088   0.32658   0.33091   0.33676
 Alpha virt. eigenvalues --    0.35191   0.35873   0.36478   0.37055   0.37780
 Alpha virt. eigenvalues --    0.38500   0.38859   0.39868   0.40799   0.41431
 Alpha virt. eigenvalues --    0.41877   0.42081   0.42525   0.42857   0.43585
 Alpha virt. eigenvalues --    0.44903   0.45625   0.47292   0.47694   0.48894
 Alpha virt. eigenvalues --    0.49157   0.50312   0.51739   0.52176   0.52866
 Alpha virt. eigenvalues --    0.53558   0.54396   0.55597   0.56187   0.56391
 Alpha virt. eigenvalues --    0.57850   0.58522   0.58929   0.59612   0.59923
 Alpha virt. eigenvalues --    0.60699   0.61261   0.61647   0.62290   0.62753
 Alpha virt. eigenvalues --    0.63145   0.63884   0.64608   0.65487   0.65732
 Alpha virt. eigenvalues --    0.66841   0.67617   0.68141   0.69291   0.69732
 Alpha virt. eigenvalues --    0.71467   0.71567   0.72065   0.72541   0.72707
 Alpha virt. eigenvalues --    0.73170   0.74104   0.75336   0.76669   0.76845
 Alpha virt. eigenvalues --    0.77908   0.79209   0.79634   0.80929   0.81640
 Alpha virt. eigenvalues --    0.81791   0.82172   0.82284   0.83194   0.83723
 Alpha virt. eigenvalues --    0.84042   0.84375   0.84516   0.84974   0.85158
 Alpha virt. eigenvalues --    0.85230   0.85509   0.85773   0.86208   0.86841
 Alpha virt. eigenvalues --    0.86919   0.87083   0.87606   0.88128   0.88303
 Alpha virt. eigenvalues --    0.88601   0.88913   0.89184   0.90107   0.90202
 Alpha virt. eigenvalues --    0.90521   0.91670   0.91993   0.92400   0.93226
 Alpha virt. eigenvalues --    0.94183   0.95909   0.96239   0.96400   0.96823
 Alpha virt. eigenvalues --    0.99214   0.99652   1.00555   1.01194   1.02157
 Alpha virt. eigenvalues --    1.02834   1.04203   1.04381   1.05180   1.08313
 Alpha virt. eigenvalues --    1.09450   1.09992   1.10522   1.12073   1.15058
 Alpha virt. eigenvalues --    1.17075   1.17921   1.18833   1.20223   1.21745
 Alpha virt. eigenvalues --    1.21942   1.23508   1.23785   1.24866   1.26261
 Alpha virt. eigenvalues --    1.29412   1.30481   1.31065   1.31306   1.32361
 Alpha virt. eigenvalues --    1.32856   1.33071   1.33968   1.35476   1.35988
 Alpha virt. eigenvalues --    1.36658   1.37886   1.38402   1.38906   1.39423
 Alpha virt. eigenvalues --    1.41220   1.41360   1.41876   1.43243   1.44053
 Alpha virt. eigenvalues --    1.44719   1.45998   1.46842   1.47770   1.48838
 Alpha virt. eigenvalues --    1.50401   1.52222   1.53008   1.54721   1.55099
 Alpha virt. eigenvalues --    1.57828   1.59344   1.60518   1.62148   1.64750
 Alpha virt. eigenvalues --    1.65145   1.65977   1.67037   1.69578   1.71490
 Alpha virt. eigenvalues --    1.73414   1.74077   1.75975   1.76719   1.77489
 Alpha virt. eigenvalues --    1.79466   1.81207   1.82258   1.82883   1.84670
 Alpha virt. eigenvalues --    1.86211   1.87081   1.88729   1.89086   1.89743
 Alpha virt. eigenvalues --    1.89862   1.90274   1.90813   1.91063   1.91833
 Alpha virt. eigenvalues --    1.93063   1.93486   1.94213   1.94975   1.95564
 Alpha virt. eigenvalues --    1.96805   1.97191   1.98111   1.98690   1.99202
 Alpha virt. eigenvalues --    1.99790   2.00766   2.01522   2.01835   2.02733
 Alpha virt. eigenvalues --    2.02954   2.03777   2.04861   2.05561   2.06284
 Alpha virt. eigenvalues --    2.07354   2.07567   2.09236   2.10656   2.12144
 Alpha virt. eigenvalues --    2.13253   2.15408   2.15852   2.16679   2.17395
 Alpha virt. eigenvalues --    2.18096   2.19064   2.19299   2.19588   2.20426
 Alpha virt. eigenvalues --    2.21504   2.23414   2.24340   2.25196   2.25638
 Alpha virt. eigenvalues --    2.27155   2.27848   2.28580   2.29367   2.29938
 Alpha virt. eigenvalues --    2.30472   2.31484   2.31900   2.33144   2.34502
 Alpha virt. eigenvalues --    2.35225   2.37537   2.38677   2.39975   2.40976
 Alpha virt. eigenvalues --    2.41544   2.41863   2.42403   2.43664   2.44683
 Alpha virt. eigenvalues --    2.45066   2.46123   2.48376   2.49663   2.52151
 Alpha virt. eigenvalues --    2.55000   2.55828   2.56013   2.56595   2.57247
 Alpha virt. eigenvalues --    2.58185   2.59175   2.59743   2.60681   2.63142
 Alpha virt. eigenvalues --    2.64417   2.65424   2.66801   2.70385   2.71428
 Alpha virt. eigenvalues --    2.72967   2.73859   2.74901   2.75980   2.76581
 Alpha virt. eigenvalues --    2.77101   2.78593   2.82093   2.82502   2.84218
 Alpha virt. eigenvalues --    2.84371   2.85059   2.85511   2.86305   2.87989
 Alpha virt. eigenvalues --    2.91226   2.91885   2.92259   2.93375   2.94337
 Alpha virt. eigenvalues --    2.95779   2.97688   2.99079   3.00311   3.02221
 Alpha virt. eigenvalues --    3.03347   3.06117   3.09504   3.12574   3.14680
 Alpha virt. eigenvalues --    3.17269   3.21031   3.21800   3.23209   3.25923
 Alpha virt. eigenvalues --    3.26718   3.27849   3.30547   3.31302   3.31566
 Alpha virt. eigenvalues --    3.32654   3.33485   3.34205   3.34598   3.34706
 Alpha virt. eigenvalues --    3.35031   3.37480   3.39230   3.41146   3.42646
 Alpha virt. eigenvalues --    3.44441   3.47980   3.50564   3.51168   3.52803
 Alpha virt. eigenvalues --    3.57886   3.58197   3.63698   3.67527   3.70416
 Alpha virt. eigenvalues --    3.72928   3.77280   3.80845   3.86781   4.00012
 Alpha virt. eigenvalues --    4.06464
     Molecular Orbital Coefficients:
                          85        86        87        88        89
                           O         O         O         O         O
     Eigenvalues --    -0.14203  -0.12209  -0.10205  -0.06964  -0.06295
   1 1   N  1S          0.00092  -0.03360  -0.05164   0.04508  -0.00739
   2        2S          0.00521  -0.06627  -0.10485   0.09797  -0.02005
   3        3S         -0.01765  -0.14993  -0.18205   0.17922   0.02048
   4        4PX        -0.00009  -0.00496   0.01947  -0.02451   0.03065
   5        4PY         0.01201  -0.05172  -0.08379   0.06906  -0.03724
   6        4PZ         0.03828   0.24632   0.36529  -0.27111  -0.08272
   7        5PX         0.00542   0.01663   0.00456  -0.01234  -0.01444
   8        5PY        -0.00108   0.04978   0.05994  -0.03961   0.03512
   9        5PZ        -0.02856  -0.18341  -0.29869   0.19961   0.05361
  10        6D 0       -0.00043   0.00778   0.00818  -0.00752  -0.00490
  11        6D+1       -0.00057   0.00150   0.00347  -0.00402  -0.00019
  12        6D-1        0.00044  -0.00185  -0.00446   0.00631  -0.00061
  13        6D+2        0.00058  -0.00077   0.00063  -0.00104   0.00049
  14        6D-2       -0.00092   0.00155  -0.00144   0.00217  -0.00121
  15 2   H  1S         -0.06957  -0.04513  -0.12305   0.09008  -0.00346
  16        2S         -0.09019  -0.11927  -0.01479   0.05527  -0.00829
  17        3PX        -0.00021  -0.00369   0.00462  -0.00264  -0.00059
  18        3PY        -0.00041   0.00179   0.00122  -0.00056   0.00117
  19        3PZ         0.00076   0.00195  -0.00195   0.00045   0.00057
  20 3   C  1S          0.00119  -0.01161  -0.01157   0.00744  -0.02078
  21        2S         -0.00283   0.03562   0.04357  -0.00973   0.03978
  22        3S          0.02223   0.02204  -0.07944  -0.11080   0.07494
  23        4PX        -0.03764   0.04184   0.01913  -0.01383   0.05549
  24        4PY         0.01256   0.02871   0.03845  -0.02867   0.05386
  25        4PZ        -0.12285   0.04200  -0.00689   0.01205   0.00551
  26        5PX        -0.01901   0.05858  -0.00269  -0.05309  -0.01061
  27        5PY        -0.02135  -0.07067   0.00051   0.03169   0.05954
  28        5PZ        -0.08849   0.01279   0.00761  -0.01051   0.03877
  29        6D 0       -0.00011  -0.00073  -0.00180   0.00119   0.00141
  30        6D+1        0.00094  -0.00153   0.00284  -0.00256  -0.00100
  31        6D-1        0.00594  -0.00150   0.00295  -0.00279  -0.00100
  32        6D+2        0.00225  -0.00277   0.00127  -0.00132  -0.00375
  33        6D-2        0.00146  -0.00076   0.00100  -0.00057  -0.00063
  34 4   C  1S         -0.01124  -0.00206  -0.00762   0.00623  -0.00063
  35        2S          0.02794   0.00486   0.02453  -0.01384   0.00226
  36        3S          0.03500   0.01882  -0.05156   0.04518   0.00291
  37        4PX         0.05099  -0.07872   0.00103  -0.02658  -0.00987
  38        4PY        -0.00781   0.02446  -0.00202   0.00653  -0.02047
  39        4PZ         0.05871   0.00498   0.12682  -0.07049  -0.00039
  40        5PX        -0.00231  -0.16605  -0.04788   0.05234   0.01384
  41        5PY         0.00735   0.05510  -0.01367  -0.02875  -0.07486
  42        5PZ         0.00963  -0.02763   0.02052  -0.03809  -0.00991
  43        6D 0       -0.00872  -0.01172  -0.01831   0.01306   0.00041
  44        6D+1        0.00167   0.00087   0.00557  -0.00183   0.00125
  45        6D-1        0.00528  -0.00368  -0.00436   0.00347   0.00032
  46        6D+2        0.00206  -0.00457  -0.00369   0.00157   0.00619
  47        6D-2       -0.00139  -0.00165  -0.00346   0.00145   0.01876
  48 5   C  1S         -0.00159   0.00241  -0.00104  -0.00089   0.00806
  49        2S          0.00466  -0.00092   0.00376   0.00248  -0.01954
  50        3S         -0.00617   0.02043   0.02801  -0.05080  -0.06490
  51        4PX        -0.00212  -0.00648  -0.00722   0.01199  -0.02393
  52        4PY         0.00484  -0.00444   0.00369  -0.00358  -0.00809
  53        4PZ        -0.04280   0.05887  -0.00726   0.02529   0.01866
  54        5PX        -0.00349   0.00884  -0.00871   0.03028  -0.04060
  55        5PY         0.01934   0.02502   0.02214  -0.00447  -0.00695
  56        5PZ        -0.03506   0.02936  -0.03264   0.03538   0.02157
  57        6D 0        0.00268  -0.00114   0.00010  -0.00020  -0.00041
  58        6D+1       -0.00662   0.00109  -0.00165   0.00127   0.00134
  59        6D-1       -0.00265  -0.00159  -0.00194   0.00102  -0.00005
  60        6D+2       -0.00188   0.00009  -0.00029   0.00026   0.00096
  61        6D-2        0.00009   0.00149   0.00113  -0.00150   0.00307
  62 6   H  1S         -0.00118   0.00073   0.00014   0.00225  -0.00942
  63        2S         -0.00906  -0.03392  -0.04072   0.03909  -0.00062
  64        3PX        -0.00022  -0.00063  -0.00118   0.00051   0.00014
  65        3PY         0.00006  -0.00070  -0.00026  -0.00021  -0.00009
  66        3PZ        -0.00150   0.00178  -0.00076   0.00173   0.00087
  67 7   C  1S          0.00128  -0.00112   0.00213  -0.00135  -0.00745
  68        2S         -0.00338   0.00342  -0.00725   0.00434   0.01424
  69        3S         -0.02191  -0.06215   0.00600   0.08368   0.02701
  70        4PX        -0.03182   0.00176  -0.00828   0.00406   0.03244
  71        4PY         0.00877  -0.00202  -0.00817   0.00648  -0.00620
  72        4PZ        -0.11741   0.01777  -0.03445   0.03247   0.01234
  73        5PX        -0.00927   0.02431  -0.00346  -0.01903   0.01966
  74        5PY        -0.01347  -0.04303   0.03652   0.03013   0.03147
  75        5PZ        -0.08747   0.00660  -0.02821   0.04261   0.00560
  76        6D 0       -0.00182   0.00058  -0.00052   0.00007   0.00087
  77        6D+1        0.00189   0.00078   0.00129  -0.00085  -0.00093
  78        6D-1       -0.00436   0.00282   0.00044   0.00056  -0.00086
  79        6D+2        0.00039  -0.00073  -0.00111   0.00047  -0.00296
  80        6D-2       -0.00092   0.00228   0.00116  -0.00040  -0.00135
  81 8   H  1S         -0.00067  -0.00480  -0.00518   0.00186   0.01182
  82        2S         -0.01508  -0.02534  -0.00023   0.00519  -0.00472
  83        3PX        -0.00070   0.00020  -0.00106   0.00099  -0.00496
  84        3PY         0.00078   0.00008  -0.00114  -0.00004  -0.00307
  85        3PZ        -0.00412   0.00083  -0.00129   0.00110   0.00010
  86 9   C  1S          0.00049  -0.00223  -0.00091   0.00105  -0.00515
  87        2S         -0.00087   0.00649   0.00239  -0.00414   0.01264
  88        3S          0.01301   0.01169   0.00735   0.02349   0.02985
  89        4PX         0.01877   0.01142   0.01014  -0.00567   0.00800
  90        4PY        -0.01048   0.00623   0.00096  -0.00257   0.01597
  91        4PZ         0.09399   0.00916   0.02846  -0.01002  -0.02515
  92        5PX         0.02363   0.01079   0.01356   0.00393   0.00120
  93        5PY        -0.00270   0.02065   0.00766   0.01111  -0.00260
  94        5PZ         0.06851   0.01661   0.03486  -0.01555  -0.02242
  95        6D 0       -0.00127   0.00046  -0.00024  -0.00004   0.00034
  96        6D+1        0.00022   0.00095   0.00023   0.00007   0.00059
  97        6D-1       -0.00574   0.00376  -0.00112   0.00203   0.00144
  98        6D+2        0.00007  -0.00056  -0.00056   0.00038  -0.00103
  99        6D-2       -0.00142   0.00053  -0.00043   0.00080  -0.00028
 100 10  H  1S          0.00340  -0.00772  -0.00302   0.00271  -0.00893
 101        2S          0.00455  -0.00566   0.00031   0.00195  -0.01515
 102        3PX         0.00075   0.00015   0.00035  -0.00014  -0.00000
 103        3PY        -0.00054  -0.00010  -0.00021  -0.00047   0.00106
 104        3PZ         0.00387   0.00009   0.00076  -0.00029  -0.00108
 105 11  C  1S          0.00024  -0.00065  -0.00077   0.00084  -0.00322
 106        2S          0.00007   0.00113   0.00262  -0.00169   0.00870
 107        3S         -0.02028  -0.00014   0.01795   0.00652   0.02651
 108        4PX         0.03055  -0.01418   0.00627  -0.00794   0.00206
 109        4PY        -0.01051   0.00509  -0.00165   0.00189   0.00313
 110        4PZ         0.11874  -0.04425   0.02604  -0.02900  -0.01961
 111        5PX         0.01380  -0.02334   0.00647  -0.00610   0.01912
 112        5PY        -0.00932   0.01047  -0.00298   0.00067  -0.01229
 113        5PZ         0.09251  -0.03397   0.01697  -0.02448  -0.02451
 114        6D 0        0.00108   0.00083   0.00063  -0.00024  -0.00055
 115        6D+1       -0.00146  -0.00146  -0.00114   0.00034   0.00148
 116        6D-1        0.00294   0.00054   0.00085  -0.00020  -0.00079
 117        6D+2        0.00010  -0.00068  -0.00023   0.00026  -0.00037
 118        6D-2        0.00085   0.00071   0.00065  -0.00036  -0.00028
 119 12  H  1S         -0.00029   0.00208   0.00098  -0.00093  -0.00145
 120        2S         -0.00033   0.00070  -0.00160  -0.00114  -0.00673
 121        3PX         0.00137  -0.00028   0.00030  -0.00035  -0.00036
 122        3PY        -0.00047   0.00003  -0.00004   0.00021   0.00022
 123        3PZ         0.00487  -0.00187   0.00133  -0.00142  -0.00076
 124 13  C  1S         -0.00079  -0.00094  -0.00203   0.00116   0.00181
 125        2S          0.00167   0.00148   0.00574  -0.00202  -0.00348
 126        3S          0.01223   0.01538   0.02532  -0.02402  -0.00089
 127        4PX         0.00131  -0.00538  -0.00028  -0.00140   0.00087
 128        4PY         0.00103   0.00856   0.00963  -0.00545  -0.00275
 129        4PZ         0.00566  -0.04155  -0.01680   0.00437   0.01965
 130        5PX        -0.01253  -0.01927   0.01942   0.00520   0.03840
 131        5PY         0.00323   0.00856   0.01077  -0.01338   0.00310
 132        5PZ         0.00335  -0.02743  -0.01726   0.00116   0.01265
 133        6D 0        0.00268  -0.00078   0.00073  -0.00066  -0.00061
 134        6D+1       -0.00699   0.00212  -0.00191   0.00201   0.00079
 135        6D-1       -0.00389   0.00071  -0.00129   0.00118   0.00053
 136        6D+2       -0.00234   0.00055   0.00001   0.00022   0.00217
 137        6D-2       -0.00039  -0.00001   0.00022  -0.00023   0.00106
 138 14  H  1S         -0.00001  -0.00092  -0.00473   0.00280  -0.00771
 139        2S          0.00234   0.00173  -0.00933   0.00202  -0.01297
 140        3PX         0.00030  -0.00012  -0.00043  -0.00019  -0.00041
 141        3PY        -0.00001   0.00022   0.00018   0.00002  -0.00023
 142        3PZ         0.00032  -0.00181  -0.00070   0.00029   0.00084
[...]
 00026456,-0.00113097,-0.00092835,0.00174937,0.00016633,-0.00058063,0.0
 0185545,0.00009523,-0.00020005,0.00044465,0.00013975,-0.00002715,0.000
 02539,-0.64949857,0.11509984,-0.08379502,-0.00007547,-0.00182022,-0.00
 017534,0.00079982,0.00034725,-0.00022029,0.00020921,-0.00071613,0.0000
 9988,-0.00041150,0.00046833,-0.00026252,0.00043045,-0.00027629,0.00005
 492,-0.00005207,-0.00007400,-0.00003025,0.00003503,0.00004062,0.000088
 91,-0.00138051,0.00016776,-0.00002819,0.00002403,-0.00001537,-0.000023
 16,-0.00000346,-0.00000836,0.00001286,-0.00000558,-0.00001859,-0.00001
 741,-0.00000262,-0.00000968,0.00000494,-0.00001533,-0.00010333,-0.0000
 0360,-0.00008671,0.00017330,-0.00006120,0.00002295,0.00005276,0.000012
 05,-0.00000377,0.00000830,0.00000395,0.00002797,-0.00004387,-0.0000153
 1,0.00000162,-0.00000432,0.00000372,0.00110127,0.00020233,-0.00016968,
 0.67179107,0.00983993,-0.00060243,-0.00342002,0.00017789,0.00055820,-0
 .00046623,-0.00003843,-0.00008455,0.00013840,-0.00187144,0.00044896,0.
 00053127,0.00001881,-0.00001238,0.00001765,0.00005665,0.00002449,0.000
 03547,-0.00002218,0.00001379,-0.00006995,0.00001230,0.00000324,-0.0000
 0145,-0.00002454,0.00000180,-0.00003687,0.00000143,-0.00000506,-0.0000
 0968,0.00001374,-0.00004852,-0.00002070,0.00000536,-0.00000069,-0.0000
 0197,-0.00001733,0.00003210,0.00003275,0.00000771,0.00000368,-0.000001
 28,0.00005059,0.00085382,-0.00075048,-0.00007888,-0.00004042,0.0001310
 5,0.00002144,0.00000287,-0.00030642,-0.00008244,0.00022106,-0.00025508
 ,-0.00077467,0.00059033,0.00069901,0.00002998,-0.00007205,0.00001933,-
 0.00013803,0.00012684,-0.00038475,0.12096901,-0.02394348,0.01278616,0.
 03094935,-0.00705665,0.00636656,0.00005915,0.00145373,-0.00144323,0.00
 038743,-0.00028213,0.00026789,-0.00041505,0.00038660,-0.00020705,0.000
 45564,-0.00002057,-0.00027082,-0.00001090,0.00002985,-0.00000881,-0.00
 003613,-0.00002495,0.00003926,-0.00070790,0.00000078,-0.00004125,0.000
 02116,0.00000687,0.00000575,0.00000400,-0.00001477,-0.00000112,0.00000
 249,0.00000407,-0.00000198,-0.00000057,0.00000347,0.00000190,0.0000717
 3,-0.00000237,0.00003249,-0.00011979,0.00002911,-0.00007454,0.00000758
 ,0.00000782,0.00000731,0.00000187,0.00000276,-0.00000259,0.00000195,0.
 00001332,0.00000939,0.00000130,0.00000249,-0.00000016,0.00065772,0.000
 19375,-0.00013181,-0.12558623,0.02209826,0.04260163,-0.00997775,-0.015
 52015,-0.00182243,0.00051969,-0.00001295,-0.00042777,-0.00007804,-0.00
 019963,0.00239747,-0.00326030,0.00410866,-0.00004416,-0.00014256,-0.00
 001465,0.00012818,0.00018727,0.00015946,-0.00010759,-0.00009615,0.0002
 5461,-0.00001969,0.00000467,-0.00000793,-0.00007049,0.00005033,0.00010
 948,-0.00000520,-0.00000643,0.00000450,0.00000840,0.00013796,-0.000047
 03,0.00000540,0.00001277,-0.00001194,0.00010448,-0.00007015,-0.0001536
 9,0.00001464,0.00000099,-0.00000191,-0.00061654,-0.00049737,0.00087677
 ,0.00002239,0.00000839,-0.00000590,0.00015229,-0.00010266,0.00031478,0
 .00031100,0.00037466,-0.00096343,0.00181980,0.00047754,-0.00164130,-0.
 00001445,-0.00007153,0.00006536,0.00020627,-0.00014866,0.00022202,-0.0
 7882176,0.01160882,0.00008584,-0.02477244,0.00472466,-0.00426544,0.000
 99745,-0.00057997,0.00115256,0.00025629,0.00044343,0.00020883,0.000208
 22,-0.00033712,0.00013652,-0.00038342,0.00022223,-0.00026796,0.0000245
 6,0.00003499,-0.00001425,-0.00003977,-0.00000694,0.00001424,0.00018892
 ,0.00010615,-0.00001431,0.00000324,0.00000191,0.00000927,0.00000032,-0
 .00000319,0.00000192,0.00000463,0.00000283,-0.00000415,0.00000052,0.00
 000153,-0.00000121,0.00005288,0.00000991,0.00002419,-0.00009880,0.0000
 2214,0.00001794,-0.00000184,-0.00000172,0.00000005,0.00000084,0.000001
 06,-0.00000308,-0.00000430,0.00000998,0.00000979,-0.00000087,0.0000010
 8,0.00000046,-0.00012012,0.00000874,-0.00002126,0.07155774,-0.01398482
 ,0.01707742,0.00913980,0.01889982,0.00926320,-0.00019759,-0.00021501,0
 .00013841,-0.00006938,0.00012283,-0.00005446,0.00055011,-0.00007180,-0
 .00051438,-0.00001858,0.00010216,0.00001272,0.00000630,-0.00006007,-0.
 00001172,0.00001262,-0.00006830,-0.00002241,-0.00002731,-0.00000575,0.
 00000429,0.00000568,-0.00004982,0.00002757,-0.00000215,0.00000243,-0.0
 0000153,-0.00000809,0.00001996,0.00001700,-0.00000532,-0.00000450,0.00
 000439,0.00001909,-0.00000106,-0.00001066,0.00000767,-0.00000301,-0.00
 000182,0.00018815,-0.00065991,-0.00000708,0.00008729,-0.00021611,0.000
 25493,-0.00008205,0.00013852,0.00018862,-0.00022099,0.00049118,0.00023
 098,-0.00004537,-0.00030990,-0.00019533,-0.00001786,0.00009042,-0.0000
 9914,0.00000920,-0.00017421,0.00023692,-0.14205174,-0.25322794,-0.1143
 7922,0.00357861,0.00929837,0.00237438,0.00096674,0.00175679,-0.0013896
 0,-0.00033442,0.00129282,-0.00089067,0.00119118,-0.00172973,0.00117042
 ,-0.00111002,-0.00049059,0.00057386,0.00005906,0.00004233,-0.00000448,
 0.00007901,0.00002093,-0.00000055,0.00024804,-0.00018163,0.00001770,-0
 .00003589,0.00002793,0.00000805,-0.00000287,0.00000436,-0.00001169,-0.
 00002130,-0.00001610,-0.00000533,0.00000008,0.00000207,-0.00000604,-0.
 00008477,0.00008267,-0.00004011,0.00017310,-0.00009322,0.00016589,-0.0
 0002502,0.00003063,0.00000700,0.00000289,-0.00000615,-0.00000155,0.000
 02535,-0.00000966,0.00000903,-0.00000070,0.00000166,-0.00000116,-0.000
 53841,0.00015290,-0.00011465,-0.01481603,-0.03544338,-0.01399711,0.143
 61393,-0.00037676,-0.00423784,-0.00223132,-0.00005648,-0.00004340,-0.0
 0012096,-0.00013057,-0.00002547,-0.00005328,0.00032109,0.00017128,0.00
 060609,0.00000118,-0.00005828,-0.00002522,-0.00001816,0.00004918,0.000
 02378,0.00004203,-0.00004724,-0.00002295,0.00002517,0.00002125,0.00001
 207,0.00000804,0.00001988,0.00001020,-0.00000004,-0.00000535,-0.000005
 33,0.00000826,-0.00001913,-0.00002711,0.00000173,0.00000251,-0.0000031
 7,-0.00002329,0.00003163,0.00001610,0.00000253,0.00000170,-0.00000823,
 -0.00007371,0.00176422,-0.00144957,-0.00025080,0.00025921,0.00100257,0
 .00042530,0.00030086,-0.00016700,-0.00005136,-0.00020938,0.00019508,-0
 .00005922,-0.00011147,0.00009055,0.00009440,0.00000058,-0.00002489,-0.
 00008183,-0.00000036,0.00000716,-0.25489305,-0.45720607,-0.20773124,-0
 .01200167,-0.02193647,-0.00805543,0.00110706,-0.00308559,0.00382825,0.
 00057101,-0.00044176,0.00006323,-0.00119805,0.00000879,0.00096066,-0.0
 0047698,-0.00066662,0.00102714,-0.00004574,-0.00001914,0.00005535,-0.0
 0002076,0.00007328,-0.00005088,-0.00010955,-0.00030461,0.00046346,0.00
 002599,-0.00001949,-0.00001439,-0.00000045,-0.00001043,-0.00000031,0.0
 0001246,0.00001989,0.00000864,0.00000124,0.00000575,-0.00000057,0.0000
 8655,0.00000180,0.00003657,-0.00005669,0.00007140,-0.00014822,0.000002
 05,-0.00001578,-0.00001354,0.00000151,0.00000325,-0.00000194,-0.000014
 63,0.00001826,0.00001136,-0.00000063,0.00000323,0.00000109,0.00000671,
 0.00013201,-0.00013243,0.00792171,0.00942476,0.00467900,0.25921371,0.4
 7412237,-0.00967861,-0.02967565,-0.01723603,0.00008098,0.00015167,-0.0
 0019621,0.00006522,0.00002041,0.00009471,-0.00101048,-0.00210275,0.001
 30994,0.00007026,-0.00017786,0.00000819,-0.00005846,0.00018518,0.00008
 839,0.00003287,-0.00006424,0.00011138,-0.00000235,0.00002530,-0.000037
 06,-0.00003097,0.00012635,0.00004099,-0.00000511,-0.00000500,0.0000032
 3,0.00001128,0.00002303,-0.00004462,0.00000269,0.00001515,-0.00001127,
 0.00001387,0.00002854,-0.00006065,-0.00000862,-0.00000080,-0.00001182,
 0.00028218,-0.00007682,0.00211880,-0.00017576,-0.00053544,-0.00043033,
 -0.00037271,-0.00018657,0.00031356,-0.00003498,-0.00024161,-0.00013926
 ,0.00002391,-0.00000902,0.00007323,-0.00011309,-0.00001215,0.00005869,
 0.00006168,0.00002603,-0.00000472,-0.11354339,-0.20320675,-0.08199244,
 0.01327963,0.02554427,0.00777689,-0.00113809,0.00458443,-0.00363510,-0
 .00016209,0.00030423,0.00027150,0.00095249,0.00029108,-0.00048570,-0.0
 0010069,0.00005076,0.00037251,-0.00003287,-0.00013557,-0.00009628,-0.0
 0001965,0.00011339,0.00003417,-0.00060196,0.00082972,-0.00027130,0.000
 01088,0.00002343,0.00002367,-0.00000406,0.00001769,0.00000637,-0.00004
 935,-0.00004013,-0.00003040,0.00000148,-0.00000997,-0.00000216,-0.0002
 0488,-0.00010552,-0.00008874,0.00029241,0.00035181,0.00019956,-0.00000
 262,0.00008807,0.00003693,-0.00000415,0.00000475,0.00000509,0.00006064
 ,-0.00009696,-0.00002571,0.00000275,-0.00000757,-0.00000100,0.00058528
 ,-0.00005791,0.00025463,-0.00137545,-0.00379131,-0.00022478,0.11163476
 ,0.20902114,0.09778229,-0.06177754,-0.42329374,-0.14588521,0.00080319,
 0.00069128,0.00054688,0.00099393,-0.00130809,-0.00053369,-0.00254416,0
 .01712256,-0.00098951,-0.00010301,-0.00115656,-0.00004541,0.00082289,0
 .00095858,0.00137631,-0.00022603,0.00014448,0.00051992,0.00004646,0.00
 007058,-0.00011184,-0.00034984,0.00049517,0.00000377,-0.00001433,-0.00
 002538,0.00005207,0.00010834,0.00021880,-0.00009834,0.00003053,0.00006
 900,-0.00004638,0.00004176,-0.00011155,-0.00030557,0.00001776,0.000011
 96,0.00000835,-0.00009147,0.00032556,-0.00024166,-0.00003447,-0.000015
 17,0.00003264,0.00003936,0.00000923,-0.00009136,-0.00002714,-0.0000304
 5,-0.00000575,-0.00012350,0.00005438,0.00011015,-0.00000482,-0.0000100
 3,0.00001879,-0.00005994,0.00001698,-0.00003728,0.00009261,0.01942982,
 0.01475626,0.00083699,-0.00038562,-0.00078249,0.00043068,-0.00037096,-
 0.00004679,-0.00130804,-0.00050906,0.00069046,0.00005414,0.00063847,-0
 .00034912,0.00005237,0.00017411,-0.00043817,-0.00006209,-0.00009796,0.
 00018382,0.00006094,-0.00010571,-0.00003243,-0.00044552,0.00031409,0.0
 0027929,-0.00001703,0.00000322,-0.00003880,0.00000327,0.00002127,0.000
 00979,-0.00000097,-0.00003341,-0.00001067,-0.00000093,-0.00001345,0.00
 000443,-0.00036268,-0.00018223,0.00002534,0.00040565,0.00052386,-0.000
 44333,0.00000066,0.00002264,0.00000550,-0.00000417,0.00000617,0.000009
 80,0.00002416,-0.00003530,-0.00003290,0.00000207,-0.00000722,-0.000006
 38,0.00015610,-0.00021685,0.00002172,0.00099489,0.00117295,0.00000968,
 -0.00101894,-0.00007979,0.00127224,0.06277393,-0.37118813,-0.80905951,
 -0.30870688,0.00061101,0.00135076,-0.00119913,-0.00033762,0.00049563,0
 .00007957,-0.01271117,-0.02028838,-0.00991044,0.00018128,-0.00003477,-
 0.00033158,0.00017408,0.00059384,-0.00079071,0.00019530,-0.00008370,-0
 .00009280,-0.00002259,0.00000486,-0.00004569,-0.00006132,0.00014059,-0
 .00009411,0.00000661,-0.00001063,-0.00001238,-0.00000413,-0.00004889,-
 0.00012342,0.00002682,0.00001039,-0.00000461,0.00001662,0.00008284,-0.
 00001294,-0.00001419,-0.00000443,-0.00002174,0.00001555,-0.00012298,0.
 00024793,-0.00001407,-0.00007809,-0.00001390,-0.00001164,-0.00000990,0
 .00006312,-0.00000109,-0.00003869,0.00001765,0.00015672,-0.00001271,-0
 .00009324,-0.00000724,-0.00001637,0.00002932,0.00003086,0.00000004,0.0
 0002073,-0.00552771,-0.00201526,0.00198781,0.00046287,0.00175239,0.000
 41719,-0.00063149,0.00002054,-0.00061199,0.00000126,0.00052650,0.00000
 730,0.00057729,-0.00018954,-0.00014735,0.00211125,-0.00285698,0.003065
 89,-0.00001679,-0.00011037,-0.00001258,0.00032544,-0.00003075,-0.00022
 914,-0.00176556,-0.00046758,0.00006557,-0.00004274,0.00001127,-0.00003
 363,0.00000011,0.00000740,-0.00000881,-0.00004752,-0.00007537,-0.00000
 432,-0.00000593,-0.00001452,0.00000095,-0.00002379,0.00000622,-0.00001
 946,0.00023458,0.00010361,0.00004202,-0.00001603,0.00009238,0.00005959
 ,-0.00000171,0.00000135,-0.00000035,0.00007641,-0.00007479,-0.00001323
 ,0.00000374,-0.00000037,-0.00000703,0.00061081,0.00034907,0.00024428,-
 0.00014606,0.00015205,0.00115111,0.00095033,0.00063062,0.00012469,0.38
 564618,0.82929410,-0.12937724,-0.31281025,-0.06902407,-0.00012313,-0.0
 0020063,0.00060909,0.00043147,-0.00032261,0.00137258,0.01073861,0.0297
 6659,0.00800950,0.00002946,0.00068545,-0.00081634,0.00095501,-0.001020
 83,-0.00169162,-0.00006990,0.00002467,-0.00034231,-0.00002867,-0.00007
 301,0.00015962,0.00006802,-0.00046112,-0.00044161,0.00000314,0.0000340
 7,0.00001565,-0.00005123,-0.00032371,0.00024093,-0.00000305,-0.0000661
 8,0.00005832,-0.00011053,0.00009399,0.00038991,0.00000449,-0.00000088,
 0.00002608,0.00043568,0.00034757,0.00018082,-0.00008431,0.00011482,0.0
 0043205,0.00004515,0.00008090,0.00002584,0.00003340,0.00001636,0.00012
 793,-0.00005507,-0.00005139,-0.00007258,0.00001281,0.00000997,-0.00004
 713,-0.00004715,0.00000354,0.00002004,-0.01638931,-0.03527093,-0.01695
 119,-0.00138034,-0.00113808,0.00210618,0.00044541,0.00148766,-0.000614
 61,0.00053878,-0.00071211,-0.00008503,-0.00070409,0.00075404,0.0001716
 0,-0.00154404,0.00377278,-0.00348061,0.00003495,0.00015861,-0.00001819
 ,-0.00042253,0.00014653,0.00027859,0.00148056,0.00074650,0.00024915,0.
 00005819,0.00003300,0.00005526,-0.00000225,-0.00002379,0.00000849,0.00
 005053,0.00010469,0.00000392,0.00000753,0.00002462,-0.00000236,0.00025
 537,0.00009980,0.00001668,-0.00033511,-0.00032890,0.00007499,0.0000277
 0,-0.00011755,-0.00005242,0.00000393,-0.00000430,-0.00000217,-0.000096
 93,0.00010816,0.00003021,-0.00000411,0.00000462,0.00000761,-0.00046743
 ,-0.00003244,-0.00020169,0.00022845,0.00033139,0.00165716,0.00435282,-
 0.00075947,-0.00706608,0.13110966,0.31474508,0.08472531,0.00059144,-0.
 00058799,-0.00018120,-0.00006218,-0.00006137,0.00011777,-0.00003016,0.
 00006699,0.00000337,0.00022958,-0.00015348,0.00006835,0.00001299,0.000
 00552,-0.00001201,-0.00001326,0.00000911,0.00000427,0.00000546,-0.0000
 1484,-0.00001955,-0.00000306,-0.00000200,0.00000443,0.00000401,-0.0000
 0465,0.00000462,-0.00000147,-0.00000176,-0.00000611,0.00000384,0.00000
 027,-0.00000853,-0.00000092,-0.00000028,-0.00000157,0.00000338,0.00000
 405,-0.00000287,0.00000055,-0.00000052,-0.00000303,-0.00917696,0.00056
 613,-0.00343527,0.00078761,0.00030086,-0.00035757,0.00031213,-0.000522
 19,-0.00006789,0.00067442,0.00104677,0.00270349,0.00041677,-0.00014940
 ,-0.00009519,0.00010519,-0.00007614,-0.00005587,-0.00080469,-0.0000168
 0,0.00005163,0.00000990,-0.00135779,0.00166405,-0.66617424,0.10326089,
 -0.09339480,-0.01142259,0.00633902,0.00015955,0.00000487,0.00001818,-0
 .00003307,-0.00002845,0.00000753,-0.00003018,0.00004223,0.00000622,0.0
 0000130,0.00000210,0.00000568,0.00000179,-0.00000145,-0.00000102,0.000
 00290,-0.00002455,-0.00001454,-0.00000949,0.00000293,0.00000075,-0.000
 00104,-0.00000031,-0.00000373,0.00000136,0.00000250,0.00000085,-0.0000
 0068,-0.00000077,0.00000011,0.00000099,0.00004056,0.00000826,0.0000163
 1,-0.00005130,-0.00002100,-0.00002146,0.00000104,-0.00000256,-0.000000
 34,0.00000004,0.00000005,-0.00000053,-0.00000060,0.00000644,0.00000173
 ,-0.00000024,0.00000104,0.00000050,0.00004454,0.00001965,-0.00000561,0
 .00081207,0.00036872,0.00029152,0.00077088,0.00014048,-0.00000709,-0.0
 0021607,0.00018339,-0.00005467,0.68313224,-0.00094923,0.00160088,-0.00
 151003,-0.00006128,0.00009527,-0.00019162,-0.00009389,0.00002395,0.000
 01879,-0.00007015,-0.00001165,-0.00025819,0.00000746,0.00001308,0.0000
 0820,-0.00001816,-0.00000631,-0.00000390,0.00001317,0.00000224,-0.0000
 1522,-0.00000586,-0.00000393,0.00001072,0.00000996,-0.00000764,-0.0000
 0277,0.00000001,-0.00000034,-0.00000379,-0.00000081,-0.00000850,0.0000
 0069,-0.00000192,-0.00000145,-0.00000036,0.00000245,0.00000129,0.00001
 309,-0.00000013,-0.00000013,0.00000061,0.00704076,-0.00272036,0.000721
 62,0.00034803,0.00012412,0.00064343,-0.00055776,0.00039459,0.00029416,
 0.00035938,0.00076138,-0.00113623,-0.00017634,-0.00021580,0.00007766,0
 .00042762,-0.00008435,-0.00029511,0.00029640,0.00016897,-0.00004778,0.
 03256211,-0.00701447,0.00543862,0.10573792,-0.01375164,0.01225610,-0.0
 3618235,0.00710817,-0.00377422,-0.00026428,0.00051221,-0.00038949,0.00
 057766,-0.00037755,-0.00000234,-0.00034415,0.00013806,-0.00001633,0.00
 001506,0.00001805,0.00000361,0.00000806,-0.00005132,-0.00000815,0.0003
 5681,-0.00011159,0.00000758,-0.00001185,0.00001694,0.00000415,0.000000
 60,0.00000090,-0.00000122,-0.00000694,-0.00000428,-0.00000323,-0.00000
 082,0.00000165,0.00000028,-0.00003742,0.00003802,-0.00004134,0.0000763
 8,-0.00004053,0.00007703,-0.00000983,-0.00000033,-0.00000413,-0.000000
 04,-0.00000549,0.00000173,0.00000580,0.00000544,0.00000038,-0.00000045
 ,0.00000069,0.00000120,-0.00034273,-0.00005395,-0.00000968,0.00052543,
 -0.00447983,0.00456151,0.00029305,0.00132613,-0.00141149,-0.00015282,0
 .00001814,0.00002278,-0.10937491,0.01658126,0.00018245,-0.00187217,0.0
 0230720,0.00013917,-0.00023992,0.00021617,0.00009567,-0.00003401,-0.00
 003170,0.00035707,0.00035963,-0.00004285,0.00000824,0.00002229,-0.0000
 2220,-0.00000491,-0.00000647,-0.00000833,-0.00001106,0.00000635,0.0000
 1147,0.00000570,-0.00000050,-0.00000126,0.00000711,-0.00000802,0.00000
 045,-0.00000297,0.00000131,-0.00000125,-0.00000036,0.00000254,0.000008
 11,-0.00000086,-0.00000077,0.00000271,-0.00000958,-0.00001265,0.000004
 60,-0.00000124,-0.00000052,0.00000301,0.03832729,-0.00548699,0.0024493
 5,-0.00079523,-0.00023908,0.00217400,-0.00051503,0.00091610,0.00200474
 ,0.00172682,-0.00206678,-0.00721083,-0.00059803,-0.00004234,-0.0000392
 9,0.00003169,0.00013514,-0.00009597,0.00195484,-0.00032580,-0.00017717
 ,-0.02612707,0.00559897,-0.00526663,-0.09256295,0.01066848,-0.00422369
 ,-0.01601563,0.00453363,-0.00244668,0.00015988,-0.00044035,0.00014558,
 -0.00037612,0.00028686,-0.00003469,0.00026260,-0.00009087,-0.00002804,
 -0.00002270,-0.00002412,-0.00000353,0.00000808,0.00002936,0.00000281,-
 0.00023768,0.00006368,0.00000579,0.00000560,-0.00001331,-0.00000687,-0
 .00000025,0.00000140,0.00000183,0.00000190,0.00000234,0.00000106,0.000
 00009,-0.00000151,0.00000052,-0.00002242,-0.00002697,-0.00002284,0.000
 00874,0.00001378,0.00000091,0.00000531,0.00000125,-0.00000372,-0.00000
 164,0.00000018,0.00000259,-0.00000256,-0.00001057,-0.00000684,0.000000
 43,-0.00000179,0.00000125,0.00021937,0.00000858,-0.00001992,0.00050067
 ,0.00423134,-0.00311489,0.00106773,-0.00107203,0.00110694,-0.00047381,
 0.00017165,-0.00014351,0.09270567,-0.01503732,0.01250161\\-0.05542516,
 -0.18758449,-0.07572908,0.10353023,-0.01637778,0.00905476,0.00229310,-
 0.00694842,-0.00310925,-0.11931286,0.02625772,-0.02429605,-0.02433400,
 -0.13587580,0.11262196,0.02305969,0.13898778,-0.11477330,-0.02985826,0
 .17011757,0.04994984,0.02915342,-0.17066151,-0.05120643,0.02814248,-0.
 16218147,-0.06449582,-0.02563509,0.17171694,0.05214278,0.05090404,-0.0
 2257293,-0.15906493,-0.05524549,0.03492621,0.17107609,0.03028208,0.115
 43685,-0.12394941,-0.02530096,-0.13821701,0.11512920,0.00004083,0.0091
 2970,0.11723398,-0.06389777,-0.09868953,-0.05014205,-0.02876805,0.0992
 3843,-0.07557748,-0.06148460,0.01332792,0.00176987,0.04220192,-0.06094
 902,0.11625670,0.07522292,0.11657711,-0.01199684,0.03950012,-0.0830066
 6,-0.10177373,-0.07519512,0.12756666,0.05725559,0.06754310,-0.11791578
 ,-0.02656801,0.05178316,0.10676033,0.04971103,0.05084514,-0.06520421,0
 .00582510,-0.07552826,0.07058097,-0.00752635,0.02825186,-0.02360054,0.
 00811845,0.00265246,-0.00018375,-0.00014225,-0.00264033,-0.00496891,-0
 .00232327,-0.00267555,0.03352315,0.00491150,-0.17389081,0.00406422,-0.
 04397727,0.17161734,0.01716127,0.05129791,-0.11669041,0.13297536,0.014
 48295,0.11120504,-0.14221452,-0.01961302,0.02668992,-0.00620263,0.0036
 9947,-0.01880760,0.00053014,-0.00464479,0.18624403,0.00468492,0.048614
 43,-0.17627911,-0.01143849,-0.04837839,0.05285913,0.16305965,0.0727700
 0,-0.06156117,-0.15548588,-0.07140414,-0.00210608,-0.00869354,-0.00147
 343,0.12597492,-0.02592100,0.01242611,-0.05738500,-0.10108379,-0.04142
 736,0.07599098,0.16969950,0.06396708,-0.12396622,0.01965526,-0.0147221
 2\\\@
 The archive entry for this job was punched.

 Writing a WFNX file to "WUGWAX_Complex_2_Ligand_0_ON_Cu_oriented.wfx"


 THERE ARE TWO THINGS THAT EVERYBODY THINKS THEY CAN DO BETTER THAN
 ANYONE ELSE - PUNCH THE FIRE, AND EDIT A DAILY PAPER.
 -- UNCLE ESEK, "CENTURY MAGAZINE", 1885
 Job cpu time:       0 days  2 hours 21 minutes 34.4 seconds.
 Elapsed time:       0 days  2 hours 22 minutes 12.3 seconds.
 File lengths (MBytes):  RWF=   1216 Int=      0 D2E=      0 Chk=     20 Scr=      8
 Normal termination of Gaussian 16 at Mon Mar  6 12:43:58 2023.
