 Entering Gaussian System, Link 0=g16
 Initial command:
 /ssoft/spack/external/gaussian/g16-C.01/avx2/g16/l1.exe "/scratch/lcmd/2387857/Gau-1722666.inp" -scrdir="/scratch/lcmd/2387857/"
 Entering Link 1 = /ssoft/spack/external/gaussian/g16-C.01/avx2/g16/l1.exe PID=   1722667.
  
 Copyright (c) 1988-2019, Gaussian, Inc.  All Rights Reserved.
  
 This is part of the Gaussian(R) 16 program.  It is based on
 the Gaussian(R) 09 system (copyright 2009, Gaussian, Inc.),
 the Gaussian(R) 03 system (copyright 2003, Gaussian, Inc.),
 the Gaussian(R) 98 system (copyright 1998, Gaussian, Inc.),
 the Gaussian(R) 94 system (copyright 1995, Gaussian, Inc.),
 the Gaussian 92(TM) system (copyright 1992, Gaussian, Inc.),
 the Gaussian 90(TM) system (copyright 1990, Gaussian, Inc.),
 the Gaussian 88(TM) system (copyright 1988, Gaussian, Inc.),
 the Gaussian 86(TM) system (copyright 1986, Carnegie Mellon
 University), and the Gaussian 82(TM) system (copyright 1983,
 Carnegie Mellon University). Gaussian is a federally registered
 trademark of Gaussian, Inc.
  
 This software contains proprietary and confidential information,
 including trade secrets, belonging to Gaussian, Inc.
  
 This software is provided under written license and may be
 used, copied, transmitted, or stored only in accord with that
 written license.
  
 The following legend is applicable only to US Government
 contracts under FAR:
  
                    RESTRICTED RIGHTS LEGEND
  
 Use, reproduction and disclosure by the US Government is
 subject to restrictions as set forth in subparagraphs (a)
 and (c) of the Commercial Computer Software - Restricted
 Rights clause in FAR 52.227-19.
  
 Gaussian, Inc.
 340 Quinnipiac St., Bldg. 40, Wallingford CT 06492
  
  
 ---------------------------------------------------------------
 Warning -- This program may not be used in any manner that
 competes with the business of Gaussian, Inc. or will provide
 assistance to any competitor of Gaussian, Inc.  The licensee
 of this program is prohibited from giving any competitor of
 Gaussian, Inc. access to this program.  By using this program,
 the user acknowledges that Gaussian, Inc. is engaged in the
 business of creating and licensing software in the field of
 computational chemistry and represents and warrants to the
 licensee that it is not a competitor of Gaussian, Inc. and that
 it will not use this program in any manner prohibited above.
 ---------------------------------------------------------------
  

 Cite this work as:
 Gaussian 16, Revision C.01,
 M. J. Frisch, G. W. Trucks, H. B. Schlegel, G. E. Scuseria, 
 M. A. Robb, J. R. Cheeseman, G. Scalmani, V. Barone, 
 G. A. Petersson, H. Nakatsuji, X. Li, M. Caricato, A. V. Marenich, 
 J. Bloino, B. G. Janesko, R. Gomperts, B. Mennucci, H. P. Hratchian, 
 J. V. Ortiz, A. F. Izmaylov, J. L. Sonnenberg, D. Williams-Young, 
 F. Ding, F. Lipparini, F. Egidi, J. Goings, B. Peng, A. Petrone, 
 T. Henderson, D. Ranasinghe, V. G. Zakrzewski, J. Gao, N. Rega, 
 G. Zheng, W. Liang, M. Hada, M. Ehara, K. Toyota, R. Fukuda, 
 J. Hasegawa, M. Ishida, T. Nakajima, Y. Honda, O. Kitao, H. Nakai, 
 T. Vreven, K. Throssell, J. A. Montgomery, Jr., J. E. Peralta, 
 F. Ogliaro, M. J. Bearpark, J. J. Heyd, E. N. Brothers, K. N. Kudin, 
 V. N. Staroverov, T. A. Keith, R. Kobayashi, J. Normand, 
 K. Raghavachari, A. P. Rendell, J. C. Burant, S. S. Iyengar, 
 J. Tomasi, M. Cossi, J. M. Millam, M. Klene, C. Adamo, R. Cammi, 
 J. W. Ochterski, R. L. Martin, K. Morokuma, O. Farkas, 
 J. B. Foresman, and D. J. Fox, Gaussian, Inc., Wallingford CT, 2019.
 
 ******************************************
 Gaussian 16:  ES64L-G16RevC.01  3-Jul-2019
                 6-Mar-2023 
 ******************************************
 %nprocshared=1
 Will use up to    1 processors via shared memory.
 %mem=8000MB
 %chk=WUGWIF_Complex_7_Ligand_1_ON_Cu_oriented.chk
 ----------------------------------------------------------------------
 #p pop=(regular,nbo,savenbos) freq=noraman def2svp empiricaldispersion
 =gd3bj output=wfx pbe1pbe
 ----------------------------------------------------------------------
 1/10=4,30=1,38=1/1,3;
 2/12=2,17=6,18=5,40=1/2;
 3/5=43,7=101,11=2,25=1,30=1,71=2,74=-13,124=41,140=1/1,2,3;
 4//1;
 5/5=2,38=5,98=1/2;
 8/6=4,10=90,11=11/1;
 11/6=1,8=1,9=11,15=111,16=1/1,2,10;
 10/6=1/2;
 6/28=1,40=1,73=1/1,7;
 7/8=1,10=1,25=1/1,2,3,16;
 1/10=4,30=1/3;
 99/6=200/99;
 Leave Link    1 at Mon Mar  6 10:21:46 2023, MaxMem=  1048576000 cpu:               0.0 elap:               0.2
 (Enter /ssoft/spack/external/gaussian/g16-C.01/avx2/g16/l101.exe)
 ----------------------------------------
 WUGWIF_Complex_7_Ligand_1_ON_Cu_oriented
 ----------------------------------------
 Symbolic Z-matrix:
 Charge = -1 Multiplicity = 1
 O                    -3.77885   3.6066    1.59281 
 C                    -1.60198   0.6148    2.40047 
 C                    -0.57668   1.21443   3.12967 
 H                    -0.2779    2.05866   2.88 
 C                    -2.05795  -0.64112   2.81365 
 C                    -2.24764   1.2581    1.16279 
 H                    -3.21687   1.29626   1.30292 
 C                    -1.48567  -1.27467   3.91994 
 H                    -1.80082  -2.10574   4.19483 
 C                     0.00687   0.58568   4.21638 
 H                     0.70093   0.99745   4.68059 
 C                    -0.45043  -0.66564   4.60778 
 H                    -0.05959  -1.09583   5.33464 
 O                    -3.07894  -1.19789   2.08963 
 C                    -2.17293   5.16171   0.85221 
 C                    -0.50632   2.8452    0.28628 
 C                    -1.75652   2.65067   0.84569 
 C                    -0.90907   5.39494   0.29266 
 C                    -2.64214   3.77044   1.12613 
 C                    -2.99579   6.25184   1.16043 
 H                    -3.83767   6.10707   1.52884 
 C                    -2.56329   7.54527   0.91731 
 C                    -1.31209   7.76887   0.34959 
 O                     1.0553    4.40882  -0.5797 
 C                    -0.03584   4.24606  -0.05134 
 C                    -0.48118   6.69648   0.03489 
 H                     0.35454   6.84883  -0.3433 
 N                    -1.96829   0.33252   0. 
 C                    -2.55118   0.76822  -1.30559 
 H                    -2.3007    0.12206  -1.98478 
 H                    -2.15234   1.61869  -1.5509 
 C                    -4.05931   0.92304  -1.32502 
 H                    -4.31884   1.60106  -0.6831 
 H                    -4.46893   0.08508  -1.05721 
 C                    -4.5767    1.31586  -2.70657 
 H                    -4.13238   2.13067  -2.98637 
 H                    -4.33781   0.61956  -3.33799 
 C                    -6.06905   1.53127  -2.76499 
 H                    -6.32251   1.77299  -3.659 
 H                    -6.31375   2.23718  -2.1609 
 H                    -6.51955   0.72365  -2.51107 
 H                    -2.36237  -0.45704   0.28537 
 O                     0.34596   1.91093   0. 
 H                    -3.10955   8.26652   1.13448 
 H                    -3.27762  -1.9243    2.41201 
 H                    -1.02984   8.63788   0.17876 
 
 ITRead=  0  0  0  0  0  0  0  0  0  0  0  0  0  0  0  0  0  0  0  0
 ITRead=  0  0  0  0  0  0  0  0  0  0  0  0  0  0  0  0  0  0  0  0
 ITRead=  0  0  0  0  0  0
 MicOpt= -1 -1 -1 -1 -1 -1 -1 -1 -1 -1 -1 -1 -1 -1 -1 -1 -1 -1 -1 -1
 MicOpt= -1 -1 -1 -1 -1 -1 -1 -1 -1 -1 -1 -1 -1 -1 -1 -1 -1 -1 -1 -1
 MicOpt= -1 -1 -1 -1 -1 -1
 NAtoms=     46 NQM=       46 NQMF=       0 NMMI=      0 NMMIF=      0
                NMic=       0 NMicF=      0.
                    Isotopes and Nuclear Properties:
 (Nuclear quadrupole moments (NQMom) in fm**2, nuclear magnetic moments (NMagM)
  in nuclear magnetons)

  Atom         1           2           3           4           5           6           7           8           9          10
 IAtWgt=          16          12          12           1          12          12           1          12           1          12
 AtmWgt=  15.9949146  12.0000000  12.0000000   1.0078250  12.0000000  12.0000000   1.0078250  12.0000000   1.0078250  12.0000000
 NucSpn=           0           0           0           1           0           0           1           0           1           0
 AtZEff=  -0.0000000  -0.0000000  -0.0000000  -0.0000000  -0.0000000  -0.0000000  -0.0000000  -0.0000000  -0.0000000  -0.0000000
 NQMom=    0.0000000   0.0000000   0.0000000   0.0000000   0.0000000   0.0000000   0.0000000   0.0000000   0.0000000   0.0000000
 NMagM=    0.0000000   0.0000000   0.0000000   2.7928460   0.0000000   0.0000000   2.7928460   0.0000000   2.7928460   0.0000000
 AtZNuc=   8.0000000   6.0000000   6.0000000   1.0000000   6.0000000   6.0000000   1.0000000   6.0000000   1.0000000   6.0000000

  Atom        11          12          13          14          15          16          17          18          19          20
 IAtWgt=           1          12           1          16          12          12          12          12          12          12
 AtmWgt=   1.0078250  12.0000000   1.0078250  15.9949146  12.0000000  12.0000000  12.0000000  12.0000000  12.0000000  12.0000000
 NucSpn=           1           0           1           0           0           0           0           0           0           0
 AtZEff=  -0.0000000  -0.0000000  -0.0000000  -0.0000000  -0.0000000  -0.0000000  -0.0000000  -0.0000000  -0.0000000  -0.0000000
 NQMom=    0.0000000   0.0000000   0.0000000   0.0000000   0.0000000   0.0000000   0.0000000   0.0000000   0.0000000   0.0000000
 NMagM=    2.7928460   0.0000000   2.7928460   0.0000000   0.0000000   0.0000000   0.0000000   0.0000000   0.0000000   0.0000000
 AtZNuc=   1.0000000   6.0000000   1.0000000   8.0000000   6.0000000   6.0000000   6.0000000   6.0000000   6.0000000   6.0000000

  Atom        21          22          23          24          25          26          27          28          29          30
 IAtWgt=           1          12          12          16          12          12           1          14          12           1
 AtmWgt=   1.0078250  12.0000000  12.0000000  15.9949146  12.0000000  12.0000000   1.0078250  14.0030740  12.0000000   1.0078250
 NucSpn=           1           0           0           0           0           0           1           2           0           1
 AtZEff=  -0.0000000  -0.0000000  -0.0000000  -0.0000000  -0.0000000  -0.0000000  -0.0000000  -0.0000000  -0.0000000  -0.0000000
 NQMom=    0.0000000   0.0000000   0.0000000   0.0000000   0.0000000   0.0000000   0.0000000   2.0440000   0.0000000   0.0000000
 NMagM=    2.7928460   0.0000000   0.0000000   0.0000000   0.0000000   0.0000000   2.7928460   0.4037610   0.0000000   2.7928460
 AtZNuc=   1.0000000   6.0000000   6.0000000   8.0000000   6.0000000   6.0000000   1.0000000   7.0000000   6.0000000   1.0000000

  Atom        31          32          33          34          35          36          37          38          39          40
 IAtWgt=           1          12           1           1          12           1           1          12           1           1
 AtmWgt=   1.0078250  12.0000000   1.0078250   1.0078250  12.0000000   1.0078250   1.0078250  12.0000000   1.0078250   1.0078250
 NucSpn=           1           0           1           1           0           1           1           0           1           1
 AtZEff=  -0.0000000  -0.0000000  -0.0000000  -0.0000000  -0.0000000  -0.0000000  -0.0000000  -0.0000000  -0.0000000  -0.0000000
 NQMom=    0.0000000   0.0000000   0.0000000   0.0000000   0.0000000   0.0000000   0.0000000   0.0000000   0.0000000   0.0000000
 NMagM=    2.7928460   0.0000000   2.7928460   2.7928460   0.0000000   2.7928460   2.7928460   0.0000000   2.7928460   2.7928460
 AtZNuc=   1.0000000   6.0000000   1.0000000   1.0000000   6.0000000   1.0000000   1.0000000   6.0000000   1.0000000   1.0000000

  Atom        41          42          43          44          45          46
 IAtWgt=           1           1          16           1           1           1
 AtmWgt=   1.0078250   1.0078250  15.9949146   1.0078250   1.0078250   1.0078250
 NucSpn=           1           1           0           1           1           1
 AtZEff=  -0.0000000  -0.0000000  -0.0000000  -0.0000000  -0.0000000  -0.0000000
 NQMom=    0.0000000   0.0000000   0.0000000   0.0000000   0.0000000   0.0000000
 NMagM=    2.7928460   2.7928460   0.0000000   2.7928460   2.7928460   2.7928460
 AtZNuc=   1.0000000   1.0000000   8.0000000   1.0000000   1.0000000   1.0000000
 Leave Link  101 at Mon Mar  6 10:21:46 2023, MaxMem=  1048576000 cpu:               0.1 elap:               0.1
 (Enter /ssoft/spack/external/gaussian/g16-C.01/avx2/g16/l103.exe)

 GradGradGradGradGradGradGradGradGradGradGradGradGradGradGradGradGradGrad
 Berny optimization.
 Initialization pass.
 Trust Radius=3.00D-01 FncErr=1.00D-07 GrdErr=1.00D-07 EigMax=2.50D+02 EigMin=1.00D-04
 Number of steps in this run=      2 maximum allowed number of steps=      2.
 GradGradGradGradGradGradGradGradGradGradGradGradGradGradGradGradGradGrad

 Leave Link  103 at Mon Mar  6 10:21:46 2023, MaxMem=  1048576000 cpu:               0.0 elap:               0.1
 (Enter /ssoft/spack/external/gaussian/g16-C.01/avx2/g16/l202.exe)
                          Input orientation:                          
 ---------------------------------------------------------------------
 Center     Atomic      Atomic             Coordinates (Angstroms)
 Number     Number       Type             X           Y           Z
 ---------------------------------------------------------------------
      1          8           0       -3.778848    3.606604    1.592815
      2          6           0       -1.601975    0.614795    2.400472
      3          6           0       -0.576677    1.214427    3.129665
      4          1           0       -0.277896    2.058665    2.879997
      5          6           0       -2.057950   -0.641123    2.813650
      6          6           0       -2.247644    1.258098    1.162787
      7          1           0       -3.216874    1.296265    1.302924
      8          6           0       -1.485665   -1.274665    3.919939
      9          1           0       -1.800821   -2.105742    4.194834
     10          6           0        0.006870    0.585682    4.216382
     11          1           0        0.700930    0.997454    4.680588
     12          6           0       -0.450427   -0.665640    4.607779
     13          1           0       -0.059586   -1.095831    5.334635
     14          8           0       -3.078937   -1.197887    2.089634
     15          6           0       -2.172933    5.161710    0.852206
     16          6           0       -0.506325    2.845196    0.286282
     17          6           0       -1.756521    2.650674    0.845688
     18          6           0       -0.909067    5.394940    0.292662
     19          6           0       -2.642140    3.770442    1.126129
     20          6           0       -2.995787    6.251840    1.160434
     21          1           0       -3.837673    6.107067    1.528838
     22          6           0       -2.563285    7.545268    0.917310
     23          6           0       -1.312086    7.768866    0.349589
     24          8           0        1.055305    4.408822   -0.579701
     25          6           0       -0.035838    4.246057   -0.051339
     26          6           0       -0.481182    6.696477    0.034894
     27          1           0        0.354545    6.848826   -0.343297
     28          7           0       -1.968288    0.332519    0.000000
     29          6           0       -2.551184    0.768218   -1.305585
     30          1           0       -2.300703    0.122064   -1.984784
     31          1           0       -2.152336    1.618686   -1.550905
     32          6           0       -4.059307    0.923041   -1.325019
     33          1           0       -4.318842    1.601065   -0.683099
     34          1           0       -4.468931    0.085078   -1.057215
     35          6           0       -4.576699    1.315858   -2.706573
     36          1           0       -4.132377    2.130672   -2.986368
     37          1           0       -4.337813    0.619563   -3.337995
     38          6           0       -6.069050    1.531268   -2.764994
     39          1           0       -6.322511    1.772993   -3.659000
     40          1           0       -6.313746    2.237182   -2.160895
     41          1           0       -6.519549    0.723647   -2.511069
     42          1           0       -2.362366   -0.457036    0.285372
     43          8           0        0.345962    1.910933    0.000000
     44          1           0       -3.109552    8.266521    1.134484
     45          1           0       -3.277623   -1.924303    2.412014
     46          1           0       -1.029841    8.637883    0.178759
 ---------------------------------------------------------------------
                    Distance matrix (angstroms):
                    1          2          3          4          5
     1  O    0.000000
     2  C    3.787084   0.000000
     3  C    4.282326   1.393742   0.000000
     4  H    4.038516   2.016900   0.929700   0.000000
     5  C    4.742901   1.398557   2.395225   3.234478   0.000000
     6  C    2.836369   1.537073   2.581210   2.733061   2.523564
     7  H    2.395311   2.068070   3.211592   3.421404   2.716408
     8  C    5.873753   2.427420   2.765208   3.694763   1.397412
     9  H    6.581336   3.265057   3.695488   4.624973   2.029506
    10  C    5.508242   2.426264   1.384486   2.009153   2.781401
    11  H    6.034105   3.263239   2.021069   2.307899   3.712387
    12  C    6.198424   2.799603   2.394872   3.230609   2.409073
    13  H    7.067320   3.730216   3.235207   4.002968   3.248936
    14  O    4.880556   2.358782   3.627979   4.367566   1.369890
    15  C    2.354956   4.837102   4.828654   4.163171   6.126447
    16  C    3.605021   3.262658   3.278595   2.719957   4.577068
    17  C    2.358348   2.566328   2.944722   2.583644   3.847033
    18  C    3.622732   5.269988   5.063176   4.268889   6.641489
    19  C    1.239655   3.558651   3.848831   3.405273   4.759297
    20  C    2.792385   5.937734   5.924989   5.284557   7.150217
    21  H    2.501973   5.993592   6.093822   5.557626   7.096212
    22  C    4.176958   7.152296   6.994331   6.259230   8.418342
    23  C    4.995493   7.447878   7.157536   6.330791   8.795216
    24  O    5.360262   5.507922   5.160128   4.389780   6.834408
    25  C    4.137906   4.652981   4.427423   3.665516   6.015117
    26  C    4.780066   6.621102   6.295999   5.444744   8.003003
    27  H    5.598703   7.086564   6.683943   5.808206   8.478549
    28  N    4.066303   2.444613   3.536827   3.759174   2.978698
    29  C    4.238433   3.828759   4.875369   4.934793   4.381509
    30  H    5.208276   4.467827   5.506642   5.613222   4.864807
    31  H    4.059597   4.113888   4.955185   4.831148   4.915789
    32  C    3.974156   4.473565   5.661963   5.768090   4.855988
    33  H    3.081162   4.226406   5.356347   5.406875   4.729302
    34  H    4.460943   4.522791   5.827095   6.079593   4.617769
    35  C    4.936478   5.951671   7.076167   7.088105   6.375479
    36  H    4.824134   6.141569   7.133608   7.019718   6.754725
    37  H    5.792041   6.357267   7.505374   7.564216   6.680557
    38  C    5.342522   6.890335   8.063098   8.104414   7.206211
    39  H    6.116691   7.768017   8.911373   8.909403   8.118475
    40  H    4.731951   6.755665   7.870833   7.865999   7.151402
    41  H    5.715307   6.951088   8.208317   8.354884   7.079625
    42  H    4.497665   2.490114   3.751330   4.172031   2.553184
    43  O    4.735653   3.352119   3.336343   2.950492   4.495377
    44  H    4.729996   7.900913   7.754240   7.042909   9.125327
    45  H    5.613665   3.042194   4.202589   5.008133   1.815341
    46  H    5.905114   8.344656   8.001306   7.151798   9.700496
                    6          7          8          9         10
     6  C    0.000000
     7  H    0.980052   0.000000
     8  C    3.820653   4.056542   0.000000
     9  H    4.550646   4.684229   0.930365   0.000000
    10  C    3.854792   4.402919   2.403420   3.242217   0.000000
    11  H    4.597494   5.181418   3.243812   4.015537   0.931002
    12  C    4.335750   4.735437   1.384107   2.016923   1.388567
    13  H    5.266203   5.652016   2.016692   2.313215   2.020493
    14  O    2.753535   2.618918   2.427844   2.624815   4.150467
    15  C    3.916660   4.029221   7.163117   8.007964   6.083524
    16  C    2.513829   3.283265   5.579949   6.439277   4.562286
    17  C    1.510305   2.043556   4.993262   5.817408   4.328431
    18  C    4.434227   4.811002   7.614016   8.501906   6.274032
    19  C    2.543392   2.546199   5.881829   6.682388   5.168134
    20  C    5.049473   4.962551   8.157427   8.971327   7.103529
    21  H    5.116120   4.855949   8.107976   8.871670   7.244936
    22  C    6.299873   6.294912   9.379140  10.220837   8.119447
    23  C    6.627719   6.814076   9.724350  10.608141   8.263768
    24  O    4.885979   5.611043   7.681491   8.566982   6.222381
    25  C    3.910766   4.544700   6.953519   7.841588   5.622599
    26  C    5.828250   6.184998   8.924218   9.824745   7.420570
    27  H    6.347907   6.804118   9.356958  10.267645   7.754904
    28  N    1.512220   2.045821   4.264022   4.854873   4.662962
    29  C    2.534754   2.743410   5.710937   6.251184   6.088438
    30  H    3.346728   3.609313   6.122164   6.587919   6.632819
    31  H    2.739202   3.062929   6.224633   6.856270   6.244266
    32  C    3.095733   2.784793   6.242045   6.689025   6.881477
    33  H    2.795493   2.291620   6.122473   6.623827   6.614204
    34  H    3.352387   2.933407   5.959936   6.285103   6.935000
    35  C    4.516612   4.233861   7.757317   8.187935   8.334841
    36  H    4.639945   4.464572   8.142388   8.657542   8.449850
    37  H    5.003356   4.822091   8.024989   8.402805   8.714702
    38  C    5.486823   4.973740   8.577237   8.937831   9.303254
    39  H    6.333979   5.873069   9.493346   9.857636  10.173122
    40  H    5.342158   4.740674   8.521736   8.923160   9.129475
    41  H    5.659684   5.077607   8.407800   8.674156   9.373994
    42  H    1.929949   2.199923   3.827166   4.279890   4.706737
    43  O    2.916343   3.843076   5.372971   6.191849   4.432736
    44  H    7.061281   6.973117  10.071246  10.893226   8.843386
    45  H    3.570588   3.406732   2.430427   2.322135   4.510394
    46  H    7.544043   7.742494  10.604849  11.495597   9.067255
                   11         12         13         14         15
    11  H    0.000000
    12  C    2.024057   0.000000
    13  H    2.321207   0.930667   0.000000
    14  O    5.081335   3.678778   4.433614   0.000000
    15  C    6.344811   7.143484   7.982182   6.541906   0.000000
    16  C    4.917473   5.568162   6.420057   5.120247   2.909311
    17  C    4.845479   5.182388   6.088229   4.255303   2.545337
    18  C    6.417466   7.453940   8.262761   7.169575   1.401729
    19  C    5.612465   6.050150   6.932656   5.079707   1.493592
    20  C    7.325693   8.137234   8.946144   7.507913   1.400170
    21  H    7.525995   8.174526   8.979965   7.365631   2.030490
    22  C    8.227468   9.246769  10.022468   8.836459   2.416188
    23  C    8.286242   9.487651  10.247062   9.303342   2.791226
    24  O    6.279622   7.411298   8.156197   7.460059   3.610917
    25  C    5.786829   6.782628   7.585846   6.593993   2.494392
    26  C    7.447062   8.666775   9.433189   8.561032   2.426011
    27  H    7.719972   9.034840   9.773842   9.080613   3.265537
    28  N    5.429067   4.952964   5.843086   2.818200   4.908077
    29  C    6.816382   6.437158   7.333161   3.958737   4.909369
    30  H    7.362289   6.892451   7.751114   4.353022   5.784710
    31  H    6.881756   6.785575   7.691480   4.695231   4.281166
    32  C    7.663727   7.123623   8.026493   4.137549   5.124942
    33  H    7.370997   6.935126   7.850327   4.130320   4.431735
    34  H    7.777036   6.985993   7.854464   3.671612   5.889795
    35  C    9.084322   8.628569   9.533183   5.618346   5.764857
    36  H    9.133852   8.890848   9.810048   6.160750   5.268895
    37  H    9.477838   8.938615   9.821421   5.860635   6.547945
    38  C   10.077415   9.526442  10.422058   6.321113   6.437699
    39  H   10.930642  10.429187  11.328718   7.238348   7.003811
    40  H    9.876665   9.413811  10.315351   6.350645   5.897285
    41  H   10.194617   9.457397  10.324567   6.057769   7.064070
    42  H    5.551329   4.730986   5.586225   2.077906   5.650442
    43  O    4.782087   5.338969   6.137054   5.075556   4.199837
    44  H    8.940580   9.945764  10.705008   9.512532   3.255271
    45  H    5.432493   3.794555   4.425363   0.819198   7.339272
    46  H    9.035386  10.320246  11.057560  10.227053   3.720749
                   16         17         18         19         20
    16  C    0.000000
    17  C    1.383389   0.000000
    18  C    2.581364   2.924895   0.000000
    19  C    2.474496   1.454939   2.517380   0.000000
    20  C    4.308920   3.821419   2.416962   2.506707   0.000000
    21  H    4.825104   4.092009   3.257605   2.655427   0.930297
    22  C    5.169136   4.961154   2.783978   3.781420   1.385325
    23  C    4.989568   5.161349   2.408566   4.284793   2.407008
    24  O    2.373508   3.609596   2.364784   4.121708   4.778716
    25  C    1.515836   2.512102   1.483509   2.899216   3.775296
    26  C    3.859559   4.318842   1.394105   3.797659   2.790659
    27  H    4.143250   4.847140   2.028532   4.540461   3.720527
    28  N    2.921103   2.476667   5.180320   3.679885   6.118883
    29  C    3.321043   2.967003   5.163091   3.864564   6.029016
    30  H    3.974038   3.834264   5.909877   4.806768   6.924572
    31  H    2.754802   2.639191   4.382300   3.469361   5.434049
    32  C    4.349098   3.605483   5.704279   4.015492   5.975337
    33  H    4.125876   3.162967   5.193474   3.284940   5.174823
    34  H    5.012533   4.190524   6.533716   4.656830   6.716925
    35  C    5.278636   4.727970   6.251868   4.945412   6.466602
    36  H    4.936500   4.538694   5.638902   4.671432   5.955823
    37  H    5.724433   5.318993   6.909573   5.721166   7.332083
    38  C    6.479244   5.734806   7.134609   5.647871   6.865692
    39  H    7.109353   6.473856   7.618367   6.358647   7.372524
    40  H    6.331232   5.475292   6.723239   5.161018   6.177180
    41  H    6.963118   6.137401   7.820447   6.127517   7.513837
    42  H    3.788090   3.215411   6.029739   4.319342   6.795291
    43  O    1.296609   2.383871   3.714707   3.695225   5.599764
    44  H    6.073468   5.783756   3.714401   4.520318   2.018058
    45  H    5.911594   5.069274   7.979538   5.872602   8.276182
    46  H    5.817289   6.067910   3.247189   5.214308   3.243737
                   21         22         23         24         25
    21  H    0.000000
    22  C    2.016545   0.000000
    23  C    3.245119   1.392050   0.000000
    24  O    5.592066   5.017224   4.214026   0.000000
    25  C    4.518215   4.267442   3.768253   1.223213   0.000000
    26  C    3.720928   2.415421   1.392642   2.823453   2.492052
    27  H    4.650784   3.253904   2.025888   2.549622   2.648026
    28  N    6.259181   7.295152   7.473424   5.108269   4.364949
    29  C    6.179993   7.132309   7.299592   5.175680   4.471629
    30  H    7.108310   7.974652   8.056069   5.622574   5.086762
    31  H    5.698310   6.433144   6.491734   4.360855   3.692065
    32  C    5.921803   7.149827   7.564183   6.234214   5.371499
    33  H    5.042642   6.401316   6.938933   6.064292   5.073384
    34  H    6.584110   7.948879   8.425282   7.031356   6.162617
    35  C    6.437433   7.482775   7.851060   6.768270   6.021275
    36  H    6.023757   6.857011   7.132452   6.155814   5.465426
    37  H    7.351795   8.319974   8.594524   7.145095   6.516177
    38  C    6.659877   7.875148   8.440199   7.988257   7.150780
    39  H    7.202241   8.270040   8.782007   8.417948   7.658559
    40  H    5.892459   7.191459   7.868841   7.843412   6.920834
    41  H    7.245309   8.598856   9.216081   8.642286   7.777927
    42  H    6.841797   8.029732   8.292929   6.008777   5.257870
    43  O    6.119451   6.407098   6.098091   2.660576   2.366688
    44  H    2.312773   0.930472   2.023513   5.930119   5.197887
    45  H    8.099170   9.613386  10.103190   8.236085   7.392606
    46  H    4.013934   2.022552   0.929535   4.775778   4.508782
                   26         27         28         29         30
    26  C    0.000000
    27  H    0.929881   0.000000
    28  N    6.535493   6.926447   0.000000
    29  C    6.420752   6.807573   1.494708   0.000000
    30  H    7.114258   7.415804   2.023403   0.970343   0.000000
    31  H    5.575973   5.924283   2.023217   0.970854   1.565293
    32  C    6.927114   7.453912   2.544946   1.516174   2.041946
    33  H    6.419219   7.035269   2.756980   2.050790   2.820410
    34  H    7.797785   8.338099   2.726196   2.050883   2.358594
    35  C    7.296572   7.779201   3.885396   2.522973   2.669510
    36  H    6.580716   7.027038   4.103051   2.679830   2.897017
    37  H    7.948514   8.354050   4.103566   2.710135   2.495697
    38  C    8.108207   8.683525   5.089051   3.884263   4.098173
    39  H    8.485675   9.018927   5.867070   4.557527   4.658703
    40  H    7.663264   8.308852   5.213465   4.128716   4.539742
    41  H    8.866707   9.458870   5.212718   4.147662   4.293896
    42  H    7.400969   7.820003   0.927433   2.016939   2.343665
    43  O    4.856626   4.949819   2.801276   3.376952   3.760885
    44  H    3.253070   4.024135   8.095550   7.905079   8.758782
    45  H    9.369559   9.886970   3.553226   4.647357   4.947103
    46  H    2.022567   2.321592   8.360126   8.151650   8.877792
                   31         32         33         34         35
    31  H    0.000000
    32  C    2.042422   0.000000
    33  H    2.333912   0.969090   0.000000
    34  H    2.821754   0.970408   1.568664   0.000000
    35  C    2.702741   1.526661   2.059680   2.060781   0.000000
    36  H    2.498649   2.055188   2.370718   2.831847   0.969345
    37  H    2.994703   2.054687   2.830579   2.346236   0.969838
    38  C    4.101500   2.546082   2.720732   2.751065   1.508948
    39  H    4.675280   3.360354   3.591690   3.613046   2.040576
    40  H    4.251113   2.740101   2.562844   3.041876   2.040573
    41  H    4.560215   2.738478   2.992398   2.593549   2.040491
    42  H    2.779325   2.716170   3.000252   2.556177   4.122883
    43  O    2.955031   4.705104   4.724726   5.256866   5.649092
    44  H    7.233346   7.802429   7.013865   8.578314   8.075764
    45  H    5.433578   4.762752   4.805422   4.182389   6.195658
    46  H    7.315795   8.423646   7.815186   9.300831   8.632346
                   36         37         38         39         40
    36  H    0.000000
    37  H    1.565023   0.000000
    38  C    2.039362   2.038803   0.000000
    39  H    2.318849   2.317859   0.960167   0.000000
    40  H    2.334764   2.811862   0.960795   1.568396   0.000000
    41  H    2.811445   2.335511   0.958999   1.567704   1.567088
    42  H    4.531386   4.265002   5.195920   6.017794   5.371819
    43  O    5.387225   5.894709   6.995835   7.607617   7.009110
    44  H    7.461651   8.943583   8.326356   8.687146   7.581512
    45  H    6.805583   6.376352   6.821616   7.732953   6.888215
    46  H    7.873217   9.359684   9.195830   9.479845   8.623376
                   41         42         43         44         45
    41  H    0.000000
    42  H    5.147452   0.000000
    43  O    7.406102   3.608844   0.000000
    44  H    9.045059   8.796575   7.322645   0.000000
    45  H    6.462079   2.741017   5.801484  10.271963   0.000000
    46  H   10.000360   9.192635   6.868525   2.318732  11.027226
                   46
    46  H    0.000000
 Stoichiometry    C21H20NO4(1-)
 Framework group  C1[X(C21H20NO4)]
 Deg. of freedom   132
 Full point group                 C1      NOp   1
 Largest Abelian subgroup         C1      NOp   1
 Largest concise Abelian subgroup C1      NOp   1
                         Standard orientation:                         
 ---------------------------------------------------------------------
 Center     Atomic      Atomic             Coordinates (Angstroms)
 Number     Number       Type             X           Y           Z
 ---------------------------------------------------------------------
      1          8           0       -0.742712    0.423177   -2.113609
      2          6           0        2.280784   -0.944411   -0.288731
      3          6           0        1.925395   -2.283968   -0.141077
      4          1           0        1.037490   -2.500263    0.029751
      5          6           0        3.615821   -0.644169   -0.577681
      6          6           0        1.284166    0.216326   -0.140295
      7          1           0        1.323729    0.764897   -0.951472
      8          6           0        4.561994   -1.665274   -0.699591
      9          1           0        5.446321   -1.458559   -0.901614
     10          6           0        2.860232   -3.300032   -0.243518
     11          1           0        2.604404   -4.187505   -0.126439
     12          6           0        4.183771   -2.984645   -0.520820
     13          1           0        4.818128   -3.662440   -0.586585
     14          8           0        3.932355    0.679222   -0.735924
     15          6           0       -2.502909   -0.492120   -0.844848
     16          6           0       -0.555229   -0.702367    1.306067
     17          6           0       -0.149062   -0.205761    0.080434
     18          6           0       -2.946046   -1.006560    0.381458
     19          6           0       -1.085853   -0.054854   -1.022516
     20          6           0       -3.404448   -0.396507   -1.911882
     21          1           0       -3.120679   -0.053173   -2.728614
     22          6           0       -4.717924   -0.808610   -1.756718
     23          6           0       -5.154297   -1.306583   -0.532217
     24          8           0       -2.363587   -1.501657    2.619275
     25          6           0       -2.002437   -1.097957    1.522531
     26          6           0       -4.271874   -1.407084    0.540481
     27          1           0       -4.565840   -1.741084    1.357002
     28          7           0        1.764287    1.050949    1.025766
     29          6           0        0.939147    2.263456    1.314078
     30          1           0        1.316484    2.715601    2.085278
     31          1           0        0.043785    1.975039    1.554289
     32          6           0        0.832154    3.262254    0.178412
     33          1           0        0.412700    2.835238   -0.583725
     34          1           0        1.723480    3.539376   -0.086982
     35          6           0        0.020365    4.493388    0.573381
     36          1           0       -0.854137    4.206407    0.877549
     37          1           0        0.461147    4.931101    1.318166
     38          6           0       -0.157145    5.495281   -0.540901
     39          1           0       -0.673147    6.239737   -0.222393
     40          1           0       -0.615861    5.078510   -1.275074
     41          1           0        0.702203    5.802977   -0.835049
     42          1           0        2.615292    1.294370    0.748877
     43          8           0        0.205655   -0.868255    2.342759
     44          1           0       -5.309966   -0.753391   -2.472411
     45          1           0        4.730151    0.750372   -0.907810
     46          1           0       -6.039006   -1.572572   -0.429383
 ---------------------------------------------------------------------
 Rotational constants (GHZ):           0.2460005           0.1598274           0.1213809
 Leave Link  202 at Mon Mar  6 10:21:46 2023, MaxMem=  1048576000 cpu:               0.0 elap:               0.0
 (Enter /ssoft/spack/external/gaussian/g16-C.01/avx2/g16/l301.exe)
 Standard basis: def2SVP (5D, 7F)
 Ernie: Thresh=  0.10000D-02 Tol=  0.10000D-05 Strict=F.
 There are   490 symmetry adapted cartesian basis functions of A   symmetry.
 There are   464 symmetry adapted basis functions of A   symmetry.
   464 basis functions,   790 primitive gaussians,   490 cartesian basis functions
    93 alpha electrons       93 beta electrons
       nuclear repulsion energy      2311.6536967998 Hartrees.
 IExCor= 1009 DFT=T Ex+Corr=PBE1PBE ExCW=0 ScaHFX=  0.250000
 ScaDFX=  0.750000  0.750000  1.000000  1.000000 ScalE2=  1.000000  1.000000
 IRadAn=      5 IRanWt=     -1 IRanGd=            0 ICorTp=0 IEmpDi=141
 NAtoms=   46 NActive=   46 NUniq=   46 SFac= 1.00D+00 NAtFMM=   60 NAOKFM=F Big=F
 Integral buffers will be    131072 words long.
 Raffenetti 2 integral format.
 Two-electron integral symmetry is turned on.
 R6Disp:  Grimme-D3(BJ) Dispersion energy=       -0.0566216002 Hartrees.
 Nuclear repulsion after empirical dispersion term =     2311.5970751996 Hartrees.
 Leave Link  301 at Mon Mar  6 10:21:46 2023, MaxMem=  1048576000 cpu:               0.1 elap:               0.1
 (Enter /ssoft/spack/external/gaussian/g16-C.01/avx2/g16/l302.exe)
 NPDir=0 NMtPBC=     1 NCelOv=     1 NCel=       1 NClECP=     1 NCelD=      1
         NCelK=      1 NCelE2=     1 NClLst=     1 CellRange=     0.0.
 One-electron integrals computed using PRISM.
 One-electron integral symmetry used in STVInt
   1 Symmetry operations used in ECPInt.
 ECPInt:  NShTT=   23436 NPrTT=   85476 LenC2=   20509 LenP2D=   50334.
 LDataN:  DoStor=T MaxTD1= 4 Len=   56
 NBasis=   464 RedAO= T EigKep=  1.73D-04  NBF=   464
 NBsUse=   464 1.00D-06 EigRej= -1.00D+00 NBFU=   464
 Precomputing XC quadrature grid using
 IXCGrd= 4 IRadAn=           5 IRanWt=          -1 IRanGd=           0 AccXCQ= 0.00D+00.
 Generated NRdTot=       0 NPtTot=           0 NUsed=           0 NTot=          32
 NSgBfM=   486   485   486   486   486 MxSgAt=    46 MxSgA2=    46.
 Leave Link  302 at Mon Mar  6 10:21:48 2023, MaxMem=  1048576000 cpu:               1.7 elap:               1.7
 (Enter /ssoft/spack/external/gaussian/g16-C.01/avx2/g16/l303.exe)
 DipDrv:  MaxL=1.
 Leave Link  303 at Mon Mar  6 10:21:48 2023, MaxMem=  1048576000 cpu:               0.1 elap:               0.1
 (Enter /ssoft/spack/external/gaussian/g16-C.01/avx2/g16/l401.exe)
 ExpMin= 1.22D-01 ExpMax= 2.27D+03 ExpMxC= 3.41D+02 IAcc=3 IRadAn=         5 AccDes= 0.00D+00
 Harris functional with IExCor= 1009 and IRadAn=       5 diagonalized for initial guess.
 HarFok:  IExCor= 1009 AccDes= 0.00D+00 IRadAn=         5 IDoV= 1 UseB2=F ITyADJ=14
 ICtDFT=  3500011 ScaDFX=  1.000000  1.000000  1.000000  1.000000
 FoFCou: FMM=F IPFlag=           0 FMFlag=      100000 FMFlg1=           0
         NFxFlg=           0 DoJE=T BraDBF=F KetDBF=T FulRan=T
         wScrn=  0.000000 ICntrl=       500 IOpCl=  0 I1Cent=   200000004 NGrid=           0
         NMat0=    1 NMatS0=      1 NMatT0=    0 NMatD0=    1 NMtDS0=    0 NMtDT0=    0
 Petite list used in FoFCou.
 Harris En= -1166.11961532241    
 JPrj=0 DoOrth=F DoCkMO=F.
 Leave Link  401 at Mon Mar  6 10:22:04 2023, MaxMem=  1048576000 cpu:              15.7 elap:              15.8
 (Enter /ssoft/spack/external/gaussian/g16-C.01/avx2/g16/l502.exe)
 Integral symmetry usage will be decided dynamically.
 Closed shell SCF:
 Using DIIS extrapolation, IDIIS=  1040.
 NGot=  1048576000 LenX=  1048086590 LenY=  1047846000
 Requested convergence on RMS density matrix=1.00D-08 within 128 cycles.
 Requested convergence on MAX density matrix=1.00D-06.
 Requested convergence on             energy=1.00D-06.
 No special actions if energy rises.
 Fock matrices will be formed incrementally for  20 cycles.
 Integral accuracy reduced to 1.0D-05 until final iterations.

 Cycle   1  Pass 0  IDiag  1:
 FoFJK:  IHMeth= 1 ICntrl=       0 DoSepK=F KAlg= 0 I1Cent=           0 FoldK=F
 IRaf= 790000000 NMat=       1 IRICut=       1 DoRegI=T DoRafI=F ISym2E= 0 IDoP0=0 IntGTp=1.
 FoFCou: FMM=F IPFlag=           0 FMFlag=      100000 FMFlg1=           0
         NFxFlg=           0 DoJE=F BraDBF=F KetDBF=F FulRan=T
         wScrn=  0.000000 ICntrl=         0 IOpCl=  0 I1Cent=           0 NGrid=           0
         NMat0=    1 NMatS0=      1 NMatT0=    0 NMatD0=    1 NMtDS0=    0 NMtDT0=    0
 Symmetry not used in FoFCou.
 E= -1164.81077387041    
 DIIS: error= 1.97D-02 at cycle   1 NSaved=   1.
 NSaved= 1 IEnMin= 1 EnMin= -1164.81077387041     IErMin= 1 ErrMin= 1.97D-02
 ErrMax= 1.97D-02  0.00D+00 EMaxC= 1.00D-01 BMatC= 6.60D-01 BMatP= 6.60D-01
 IDIUse=3 WtCom= 8.03D-01 WtEn= 1.97D-01
 Coeff-Com:  0.100D+01
 Coeff-En:   0.100D+01
 Coeff:      0.100D+01
 Gap=     0.057 Goal=   None    Shift=    0.000
 GapD=    0.057 DampG=0.500 DampE=0.500 DampFc=0.2500 IDamp=-1.
 Damping current iteration by 2.50D-01
 RMSDP=6.61D-03 MaxDP=3.00D-01              OVMax= 9.25D-01

 Cycle   2  Pass 0  IDiag  1:
 RMSU=  1.62D-03    CP:  9.82D-01
 E= -1164.95712512101     Delta-E=       -0.146351250598 Rises=F Damp=T
 DIIS: error= 1.17D-02 at cycle   2 NSaved=   2.
 NSaved= 2 IEnMin= 2 EnMin= -1164.95712512101     IErMin= 2 ErrMin= 1.17D-02
 ErrMax= 1.17D-02  0.00D+00 EMaxC= 1.00D-01 BMatC= 1.91D-01 BMatP= 6.60D-01
 IDIUse=3 WtCom= 8.83D-01 WtEn= 1.17D-01
 Coeff-Com: -0.387D+00 0.139D+01
 Coeff-En:   0.117D+00 0.883D+00
 Coeff:     -0.328D+00 0.133D+01
 Gap=    -0.280 Goal=   None    Shift=    0.000
 RMSDP=3.24D-03 MaxDP=1.44D-01 DE=-1.46D-01 OVMax= 4.37D-01

 Cycle   3  Pass 0  IDiag  1:
 RMSU=  2.98D-03    CP:  9.30D-01  1.53D+00
 E= -1164.98166131860     Delta-E=       -0.024536197592 Rises=F Damp=F
 DIIS: error= 3.12D-02 at cycle   3 NSaved=   3.
 NSaved= 3 IEnMin= 3 EnMin= -1164.98166131860     IErMin= 2 ErrMin= 1.17D-02
 ErrMax= 3.12D-02  0.00D+00 EMaxC= 1.00D-01 BMatC= 5.18D-01 BMatP= 1.91D-01
 IDIUse=2 WtCom= 0.00D+00 WtEn= 1.00D+00
 Coeff-En:   0.000D+00 0.483D+00 0.517D+00
 Coeff:      0.000D+00 0.483D+00 0.517D+00
 Gap=     0.223 Goal=   None    Shift=    0.000
 RMSDP=4.49D-03 MaxDP=3.66D-01 DE=-2.45D-02 OVMax= 8.59D-01

 Cycle   4  Pass 0  IDiag  1:
 RMSU=  2.05D-03    CP:  9.30D-01  2.70D+00 -1.80D-01
 E= -1163.26421825189     Delta-E=        1.717443066718 Rises=F Damp=F
 DIIS: error= 5.00D-02 at cycle   4 NSaved=   4.
 NSaved= 4 IEnMin= 3 EnMin= -1164.98166131860     IErMin= 2 ErrMin= 1.17D-02
 ErrMax= 5.00D-02  0.00D+00 EMaxC= 1.00D-01 BMatC= 1.56D+00 BMatP= 1.91D-01
 IDIUse=2 WtCom= 0.00D+00 WtEn= 1.00D+00
 Coeff-En:   0.000D+00 0.000D+00 0.731D+00 0.269D+00
 Coeff:      0.000D+00 0.000D+00 0.731D+00 0.269D+00
 Gap=     0.063 Goal=   None    Shift=    0.000
 RMSDP=3.64D-03 MaxDP=2.51D-01 DE= 1.72D+00 OVMax= 9.78D-01

 Cycle   5  Pass 0  IDiag  1:
 RMSU=  1.85D-03    CP:  9.45D-01  1.30D+00  3.12D-01  2.39D-01
 E= -1165.42248638961     Delta-E=       -2.158268137719 Rises=F Damp=F
 DIIS: error= 6.74D-03 at cycle   5 NSaved=   5.
 NSaved= 5 IEnMin= 5 EnMin= -1165.42248638961     IErMin= 5 ErrMin= 6.74D-03
 ErrMax= 6.74D-03  0.00D+00 EMaxC= 1.00D-01 BMatC= 6.52D-02 BMatP= 1.91D-01
 IDIUse=3 WtCom= 9.33D-01 WtEn= 6.74D-02
 Coeff-Com: -0.318D+00 0.567D+00 0.261D+00-0.212D-01 0.512D+00
 Coeff-En:   0.000D+00 0.000D+00 0.618D-01 0.000D+00 0.938D+00
 Coeff:     -0.297D+00 0.528D+00 0.248D+00-0.198D-01 0.540D+00
 Gap=     0.119 Goal=   None    Shift=    0.000
 RMSDP=1.08D-03 MaxDP=5.36D-02 DE=-2.16D+00 OVMax= 1.46D-01

 Cycle   6  Pass 0  IDiag  1:
 RMSU=  7.54D-04    CP:  9.39D-01  1.49D+00  4.68D-01  9.02D-02  7.79D-01
 E= -1165.46611492507     Delta-E=       -0.043628535468 Rises=F Damp=F
 DIIS: error= 4.42D-03 at cycle   6 NSaved=   6.
 NSaved= 6 IEnMin= 6 EnMin= -1165.46611492507     IErMin= 6 ErrMin= 4.42D-03
 ErrMax= 4.42D-03  0.00D+00 EMaxC= 1.00D-01 BMatC= 1.70D-02 BMatP= 6.52D-02
 IDIUse=3 WtCom= 9.56D-01 WtEn= 4.42D-02
 Coeff-Com: -0.205D+00 0.309D+00 0.683D-01-0.171D-01 0.316D+00 0.528D+00
 Coeff-En:   0.000D+00 0.000D+00 0.000D+00 0.000D+00 0.202D+00 0.798D+00
 Coeff:     -0.196D+00 0.295D+00 0.653D-01-0.163D-01 0.311D+00 0.540D+00
 Gap=     0.112 Goal=   None    Shift=    0.000
 RMSDP=4.72D-04 MaxDP=3.54D-02 DE=-4.36D-02 OVMax= 5.25D-02

 Cycle   7  Pass 0  IDiag  1:
 RMSU=  2.38D-04    CP:  9.40D-01  1.52D+00  4.16D-01  8.21D-02  9.21D-01
                    CP:  6.51D-01
 E= -1165.48182078080     Delta-E=       -0.015705855724 Rises=F Damp=F
 DIIS: error= 1.10D-03 at cycle   7 NSaved=   7.
 NSaved= 7 IEnMin= 7 EnMin= -1165.48182078080     IErMin= 7 ErrMin= 1.10D-03
 ErrMax= 1.10D-03  0.00D+00 EMaxC= 1.00D-01 BMatC= 1.40D-03 BMatP= 1.70D-02
 IDIUse=3 WtCom= 9.89D-01 WtEn= 1.10D-02
 Coeff-Com: -0.739D-01 0.105D+00-0.805D-02-0.174D-02 0.994D-01 0.312D+00
 Coeff-Com:  0.567D+00
 Coeff-En:   0.000D+00 0.000D+00 0.000D+00 0.000D+00 0.000D+00 0.000D+00
 Coeff-En:   0.100D+01
 Coeff:     -0.731D-01 0.104D+00-0.796D-02-0.172D-02 0.983D-01 0.309D+00
 Coeff:      0.572D+00
 Gap=     0.107 Goal=   None    Shift=    0.000
 RMSDP=1.51D-04 MaxDP=8.56D-03 DE=-1.57D-02 OVMax= 1.43D-02

 Cycle   8  Pass 0  IDiag  1:
 RMSU=  9.90D-05    CP:  9.40D-01  1.52D+00  4.01D-01  9.09D-02  9.35D-01
                    CP:  7.76D-01  8.64D-01
 E= -1165.48327879151     Delta-E=       -0.001458010709 Rises=F Damp=F
 DIIS: error= 7.65D-04 at cycle   8 NSaved=   8.
 NSaved= 8 IEnMin= 8 EnMin= -1165.48327879151     IErMin= 8 ErrMin= 7.65D-04
 ErrMax= 7.65D-04  0.00D+00 EMaxC= 1.00D-01 BMatC= 2.75D-04 BMatP= 1.40D-03
 IDIUse=3 WtCom= 9.92D-01 WtEn= 7.65D-03
 Coeff-Com: -0.343D-01 0.517D-01-0.127D-01-0.605D-03 0.170D-01 0.111D+00
 Coeff-Com:  0.308D+00 0.560D+00
 Coeff-En:   0.000D+00 0.000D+00 0.000D+00 0.000D+00 0.000D+00 0.000D+00
 Coeff-En:   0.000D+00 0.100D+01
 Coeff:     -0.340D-01 0.513D-01-0.126D-01-0.601D-03 0.168D-01 0.110D+00
 Coeff:      0.305D+00 0.564D+00
 Gap=     0.108 Goal=   None    Shift=    0.000
 RMSDP=5.73D-05 MaxDP=3.34D-03 DE=-1.46D-03 OVMax= 3.73D-03

 Cycle   9  Pass 0  IDiag  1:
 RMSU=  4.09D-05    CP:  9.40D-01  1.52D+00  4.00D-01  8.45D-02  9.40D-01
                    CP:  7.82D-01  9.23D-01  7.04D-01
 E= -1165.48350437557     Delta-E=       -0.000225584061 Rises=F Damp=F
 DIIS: error= 2.32D-04 at cycle   9 NSaved=   9.
 NSaved= 9 IEnMin= 9 EnMin= -1165.48350437557     IErMin= 9 ErrMin= 2.32D-04
 ErrMax= 2.32D-04  0.00D+00 EMaxC= 1.00D-01 BMatC= 5.27D-05 BMatP= 2.75D-04
 IDIUse=3 WtCom= 9.98D-01 WtEn= 2.32D-03
 Coeff-Com: -0.686D-02 0.122D-01-0.204D-02-0.178D-03-0.948D-02-0.292D-01
 Coeff-Com: -0.557D-01 0.240D+00 0.851D+00
 Coeff-En:   0.000D+00 0.000D+00 0.000D+00 0.000D+00 0.000D+00 0.000D+00
 Coeff-En:   0.000D+00 0.000D+00 0.100D+01
 Coeff:     -0.685D-02 0.122D-01-0.203D-02-0.178D-03-0.946D-02-0.292D-01
 Coeff:     -0.556D-01 0.240D+00 0.851D+00
 Gap=     0.108 Goal=   None    Shift=    0.000
 RMSDP=2.69D-05 MaxDP=1.35D-03 DE=-2.26D-04 OVMax= 3.77D-03

 Cycle  10  Pass 0  IDiag  1:
 RMSU=  1.71D-05    CP:  9.40D-01  1.52D+00  3.98D-01  8.33D-02  9.43D-01
                    CP:  7.91D-01  9.54D-01  8.63D-01  1.06D+00
 E= -1165.48355771792     Delta-E=       -0.000053342348 Rises=F Damp=F
 DIIS: error= 8.23D-05 at cycle  10 NSaved=  10.
 NSaved=10 IEnMin=10 EnMin= -1165.48355771792     IErMin=10 ErrMin= 8.23D-05
 ErrMax= 8.23D-05  0.00D+00 EMaxC= 1.00D-01 BMatC= 8.53D-06 BMatP= 5.27D-05
 IDIUse=1 WtCom= 1.00D+00 WtEn= 0.00D+00
 Coeff-Com: -0.279D-02 0.488D-02 0.124D-02-0.186D-03-0.315D-02-0.273D-01
 Coeff-Com: -0.796D-01 0.696D-01 0.505D+00 0.532D+00
 Coeff:     -0.279D-02 0.488D-02 0.124D-02-0.186D-03-0.315D-02-0.273D-01
 Coeff:     -0.796D-01 0.696D-01 0.505D+00 0.532D+00
 Gap=     0.108 Goal=   None    Shift=    0.000
 RMSDP=1.03D-05 MaxDP=4.54D-04 DE=-5.33D-05 OVMax= 1.80D-03

 Cycle  11  Pass 0  IDiag  1:
 RMSU=  8.20D-06    CP:  9.40D-01  1.53D+00  3.98D-01  8.39D-02  9.44D-01
                    CP:  7.91D-01  9.52D-01  8.81D-01  1.13D+00  7.68D-01
 E= -1165.48356717730     Delta-E=       -0.000009459385 Rises=F Damp=F
 DIIS: error= 3.82D-05 at cycle  11 NSaved=  11.
 NSaved=11 IEnMin=11 EnMin= -1165.48356717730     IErMin=11 ErrMin= 3.82D-05
 ErrMax= 3.82D-05  0.00D+00 EMaxC= 1.00D-01 BMatC= 6.40D-07 BMatP= 8.53D-06
 IDIUse=1 WtCom= 1.00D+00 WtEn= 0.00D+00
 Coeff-Com: -0.481D-03 0.908D-03 0.792D-03-0.820D-04-0.969D-03-0.114D-01
 Coeff-Com: -0.368D-01 0.614D-02 0.155D+00 0.291D+00 0.596D+00
 Coeff:     -0.481D-03 0.908D-03 0.792D-03-0.820D-04-0.969D-03-0.114D-01
 Coeff:     -0.368D-01 0.614D-02 0.155D+00 0.291D+00 0.596D+00
 Gap=     0.107 Goal=   None    Shift=    0.000
 RMSDP=4.18D-06 MaxDP=1.63D-04 DE=-9.46D-06 OVMax= 4.91D-04

 Initial convergence to 1.0D-05 achieved.  Increase integral accuracy.
 Cycle  12  Pass 1  IDiag  1:
 E= -1165.48352747760     Delta-E=        0.000039699702 Rises=F Damp=F
 DIIS: error= 1.55D-04 at cycle   1 NSaved=   1.
 NSaved= 1 IEnMin= 1 EnMin= -1165.48352747760     IErMin= 1 ErrMin= 1.55D-04
 ErrMax= 1.55D-04  0.00D+00 EMaxC= 1.00D-01 BMatC= 7.12D-06 BMatP= 7.12D-06
 IDIUse=3 WtCom= 9.98D-01 WtEn= 1.55D-03
 Coeff-Com:  0.100D+01
 Coeff-En:   0.100D+01
 Coeff:      0.100D+01
 Gap=     0.108 Goal=   None    Shift=    0.000
 RMSDP=4.18D-06 MaxDP=1.63D-04 DE= 3.97D-05 OVMax= 3.95D-04

 Cycle  13  Pass 1  IDiag  1:
 RMSU=  1.72D-04    CP:  1.00D+00
 E= -1165.48353429894     Delta-E=       -0.000006821344 Rises=F Damp=F
 DIIS: error= 2.41D-05 at cycle   2 NSaved=   2.
 NSaved= 2 IEnMin= 2 EnMin= -1165.48353429894     IErMin= 2 ErrMin= 2.41D-05
 ErrMax= 2.41D-05  0.00D+00 EMaxC= 1.00D-01 BMatC= 4.75D-07 BMatP= 7.12D-06
 IDIUse=1 WtCom= 1.00D+00 WtEn= 0.00D+00
 Coeff-Com:  0.819D-01 0.918D+00
 Coeff:      0.819D-01 0.918D+00
 Gap=     0.107 Goal=   None    Shift=    0.000
 RMSDP=6.37D-06 MaxDP=3.65D-04 DE=-6.82D-06 OVMax= 7.38D-04

 Cycle  14  Pass 1  IDiag  1:
 RMSU=  5.85D-06    CP:  1.00D+00  1.01D+00
 E= -1165.48353334073     Delta-E=        0.000000958215 Rises=F Damp=F
 DIIS: error= 4.61D-05 at cycle   3 NSaved=   3.
 NSaved= 3 IEnMin= 2 EnMin= -1165.48353429894     IErMin= 2 ErrMin= 2.41D-05
 ErrMax= 4.61D-05  0.00D+00 EMaxC= 1.00D-01 BMatC= 1.60D-06 BMatP= 4.75D-07
 IDIUse=1 WtCom= 1.00D+00 WtEn= 0.00D+00
 Coeff-Com: -0.497D-02 0.652D+00 0.353D+00
 Coeff:     -0.497D-02 0.652D+00 0.353D+00
 Gap=     0.108 Goal=   None    Shift=    0.000
 RMSDP=4.03D-06 MaxDP=2.64D-04 DE= 9.58D-07 OVMax= 5.35D-04

 Cycle  15  Pass 1  IDiag  1:
 RMSU=  1.13D-06    CP:  1.00D+00  1.02D+00  3.43D-01
 E= -1165.48353470312     Delta-E=       -0.000001362392 Rises=F Damp=F
 DIIS: error= 6.74D-06 at cycle   4 NSaved=   4.
 NSaved= 4 IEnMin= 4 EnMin= -1165.48353470312     IErMin= 4 ErrMin= 6.74D-06
 ErrMax= 6.74D-06  0.00D+00 EMaxC= 1.00D-01 BMatC= 3.29D-08 BMatP= 4.75D-07
 IDIUse=1 WtCom= 1.00D+00 WtEn= 0.00D+00
 Coeff-Com: -0.500D-02 0.413D+00 0.231D+00 0.361D+00
 Coeff:     -0.500D-02 0.413D+00 0.231D+00 0.361D+00
 Gap=     0.108 Goal=   None    Shift=    0.000
 RMSDP=6.04D-07 MaxDP=4.07D-05 DE=-1.36D-06 OVMax= 8.49D-05

 Cycle  16  Pass 1  IDiag  1:
 RMSU=  4.06D-07    CP:  1.00D+00  1.02D+00  3.72D-01  6.38D-01
 E= -1165.48353472966     Delta-E=       -0.000000026545 Rises=F Damp=F
 DIIS: error= 1.42D-06 at cycle   5 NSaved=   5.
 NSaved= 5 IEnMin= 5 EnMin= -1165.48353472966     IErMin= 5 ErrMin= 1.42D-06
 ErrMax= 1.42D-06  0.00D+00 EMaxC= 1.00D-01 BMatC= 2.11D-09 BMatP= 3.29D-08
 IDIUse=1 WtCom= 1.00D+00 WtEn= 0.00D+00
 Coeff-Com: -0.312D-02 0.240D+00 0.133D+00 0.256D+00 0.374D+00
 Coeff:     -0.312D-02 0.240D+00 0.133D+00 0.256D+00 0.374D+00
 Gap=     0.108 Goal=   None    Shift=    0.000
 RMSDP=1.57D-07 MaxDP=7.16D-06 DE=-2.65D-08 OVMax= 2.32D-05

 Cycle  17  Pass 1  IDiag  1:
 RMSU=  1.17D-07    CP:  1.00D+00  1.02D+00  3.67D-01  7.04D-01  8.41D-01
 E= -1165.48353473169     Delta-E=       -0.000000002031 Rises=F Damp=F
 DIIS: error= 2.88D-07 at cycle   6 NSaved=   6.
 NSaved= 6 IEnMin= 6 EnMin= -1165.48353473169     IErMin= 6 ErrMin= 2.88D-07
 ErrMax= 2.88D-07  0.00D+00 EMaxC= 1.00D-01 BMatC= 8.02D-11 BMatP= 2.11D-09
 IDIUse=1 WtCom= 1.00D+00 WtEn= 0.00D+00
 Coeff-Com:  0.488D-04-0.919D-02-0.800D-02 0.243D-01 0.792D-01 0.914D+00
 Coeff:      0.488D-04-0.919D-02-0.800D-02 0.243D-01 0.792D-01 0.914D+00
 Gap=     0.108 Goal=   None    Shift=    0.000
 RMSDP=8.91D-08 MaxDP=3.45D-06 DE=-2.03D-09 OVMax= 2.27D-05

 Cycle  18  Pass 1  IDiag  1:
 RMSU=  6.69D-08    CP:  1.00D+00  1.02D+00  3.65D-01  7.42D-01  9.29D-01
                    CP:  1.10D+00
 E= -1165.48353473192     Delta-E=       -0.000000000228 Rises=F Damp=F
 DIIS: error= 2.19D-07 at cycle   7 NSaved=   7.
 NSaved= 7 IEnMin= 7 EnMin= -1165.48353473192     IErMin= 7 ErrMin= 2.19D-07
 ErrMax= 2.19D-07  0.00D+00 EMaxC= 1.00D-01 BMatC= 4.30D-11 BMatP= 8.02D-11
 IDIUse=1 WtCom= 1.00D+00 WtEn= 0.00D+00
 Coeff-Com:  0.608D-03-0.502D-01-0.301D-01-0.297D-01-0.460D-01 0.551D+00
 Coeff-Com:  0.604D+00
 Coeff:      0.608D-03-0.502D-01-0.301D-01-0.297D-01-0.460D-01 0.551D+00
 Coeff:      0.604D+00
 Gap=     0.108 Goal=   None    Shift=    0.000
 RMSDP=4.23D-08 MaxDP=1.26D-06 DE=-2.28D-10 OVMax= 8.07D-06

 Cycle  19  Pass 1  IDiag  1:
 RMSU=  2.50D-08    CP:  1.00D+00  1.02D+00  3.64D-01  7.62D-01  9.35D-01
                    CP:  1.29D+00  1.18D+00
 E= -1165.48353473199     Delta-E=       -0.000000000066 Rises=F Damp=F
 DIIS: error= 5.64D-08 at cycle   8 NSaved=   8.
 NSaved= 8 IEnMin= 8 EnMin= -1165.48353473199     IErMin= 8 ErrMin= 5.64D-08
 ErrMax= 5.64D-08  0.00D+00 EMaxC= 1.00D-01 BMatC= 2.33D-12 BMatP= 4.30D-11
 IDIUse=1 WtCom= 1.00D+00 WtEn= 0.00D+00
 Coeff-Com:  0.230D-03-0.183D-01-0.107D-01-0.144D-01-0.321D-01 0.100D+00
 Coeff-Com:  0.235D+00 0.740D+00
 Coeff:      0.230D-03-0.183D-01-0.107D-01-0.144D-01-0.321D-01 0.100D+00
 Coeff:      0.235D+00 0.740D+00
 Gap=     0.108 Goal=   None    Shift=    0.000
 RMSDP=1.47D-08 MaxDP=5.21D-07 DE=-6.64D-11 OVMax= 3.49D-06

 Cycle  20  Pass 1  IDiag  1:
 RMSU=  8.17D-09    CP:  1.00D+00  1.02D+00  3.64D-01  7.66D-01  9.40D-01
                    CP:  1.32D+00  1.34D+00  1.09D+00
 E= -1165.48353473201     Delta-E=       -0.000000000024 Rises=F Damp=F
 DIIS: error= 5.80D-08 at cycle   9 NSaved=   9.
 NSaved= 9 IEnMin= 9 EnMin= -1165.48353473201     IErMin= 8 ErrMin= 5.64D-08
 ErrMax= 5.80D-08  0.00D+00 EMaxC= 1.00D-01 BMatC= 1.57D-12 BMatP= 2.33D-12
 IDIUse=1 WtCom= 1.00D+00 WtEn= 0.00D+00
 Coeff-Com:  0.184D-04-0.104D-02-0.419D-03-0.337D-02-0.108D-01-0.626D-01
 Coeff-Com:  0.235D-01 0.522D+00 0.533D+00
 Coeff:      0.184D-04-0.104D-02-0.419D-03-0.337D-02-0.108D-01-0.626D-01
 Coeff:      0.235D-01 0.522D+00 0.533D+00
 Gap=     0.108 Goal=   None    Shift=    0.000
 RMSDP=6.86D-09 MaxDP=3.12D-07 DE=-2.41D-11 OVMax= 1.37D-06

 SCF Done:  E(RPBE1PBE) =  -1165.48353473     A.U. after   20 cycles
            NFock= 20  Conv=0.69D-08     -V/T= 2.0052
 KE= 1.159468316764D+03 PE=-7.364463719836D+03 EE= 2.727914793140D+03
 Leave Link  502 at Mon Mar  6 10:34:21 2023, MaxMem=  1048576000 cpu:             732.8 elap:             737.9
 (Enter /ssoft/spack/external/gaussian/g16-C.01/avx2/g16/l801.exe)
 DoSCS=F DFT=T ScalE2(SS,OS)=  1.000000  1.000000
 Range of M.O.s used for correlation:     1   464
 NBasis=   464 NAE=    93 NBE=    93 NFC=     0 NFV=     0
 NROrb=    464 NOA=    93 NOB=    93 NVA=   371 NVB=   371

 **** Warning!!: The largest alpha MO coefficient is  0.12451084D+02

 Leave Link  801 at Mon Mar  6 10:34:21 2023, MaxMem=  1048576000 cpu:               0.0 elap:               0.0
 (Enter /ssoft/spack/external/gaussian/g16-C.01/avx2/g16/l1101.exe)
 Using compressed storage, NAtomX=    46.
 Will process     47 centers per pass.
   1 Symmetry operations used in ECPInt.
 ECPInt:  NShTT=   23436 NPrTT=   85476 LenC2=   20509 LenP2D=   50334.
 LDataN:  DoStor=T MaxTD1= 5 Len=  102
 R6Disp: Adding Grimme-D3(BJ) dispersion energy 1st derivatives to the gradient.
 Leave Link 1101 at Mon Mar  6 10:34:23 2023, MaxMem=  1048576000 cpu:               0.9 elap:               1.0
 (Enter /ssoft/spack/external/gaussian/g16-C.01/avx2/g16/l1102.exe)
 Symmetrizing basis deriv contribution to polar:
 IMax=3 JMax=2 DiffMx= 0.00D+00
 Leave Link 1102 at Mon Mar  6 10:34:23 2023, MaxMem=  1048576000 cpu:               0.1 elap:               0.1
 (Enter /ssoft/spack/external/gaussian/g16-C.01/avx2/g16/l1110.exe)
 Forming Gx(P) for the SCF density, NAtomX=    46.
 Integral derivatives from FoFJK, PRISM(SPDF).
 Do as many integral derivatives as possible in FoFJK.
 G2DrvN: MDV=    1048571126.
 G2DrvN: will do    47 centers at a time, making    1 passes.
 Calling FoFCou, ICntrl=  3107 FMM=F I1Cent=   0 AccDes= 0.00D+00.
 FoFJK:  IHMeth= 1 ICntrl=    3107 DoSepK=F KAlg= 0 I1Cent=           0 FoldK=F
 IRaf=         0 NMat=       1 IRICut=       1 DoRegI=T DoRafI=F ISym2E= 0 IDoP0=0 IntGTp=1.
 FoFCou: FMM=F IPFlag=           0 FMFlag=      100000 FMFlg1=           0
         NFxFlg=           0 DoJE=F BraDBF=F KetDBF=F FulRan=T
         wScrn=  0.000000 ICntrl=      3107 IOpCl=  0 I1Cent=           0 NGrid=           0
         NMat0=    1 NMatS0=      1 NMatT0=    0 NMatD0=    1 NMtDS0=    0 NMtDT0=    0
 Symmetry not used in FoFCou.
 End of G2Drv F.D. properties file   721 does not exist.
 End of G2Drv F.D. properties file   722 does not exist.
 End of G2Drv F.D. properties file   788 does not exist.
 Leave Link 1110 at Mon Mar  6 10:59:32 2023, MaxMem=  1048576000 cpu:            1504.5 elap:            1509.6
 (Enter /ssoft/spack/external/gaussian/g16-C.01/avx2/g16/l1002.exe)
 Minotr:  Closed shell wavefunction.
          IDoAtm=1111111111111111111111111111111111111111111111
          Direct CPHF calculation.
          Differentiating once with respect to electric field.
                with respect to dipole field.
          Differentiating once with respect to nuclear coordinates.
          Requested convergence is 1.0D-08 RMS, and 1.0D-07 maximum.
          Secondary convergence is 1.0D-12 RMS, and 1.0D-12 maximum.
          NewPWx=T KeepS1=F KeepF1=F KeepIn=T MapXYZ=F SortEE=F KeepMc=T.
        13933 words used for storage of precomputed grid.
 Two-electron integrals replicated using symmetry.
          MDV=    1048576000 using IRadAn=       1.
          Solving linear equations simultaneously, MaxMat=     384.
 FoF2E skips out because all densities are zero.
 CalDSu exits because no D1Ps are significant.
 FoFJK:  IHMeth= 1 ICntrl=       0 DoSepK=F KAlg= 0 I1Cent=           0 FoldK=F
 IRaf= 760000000 NMat=     138 IRICut=     345 DoRegI=T DoRafI=T ISym2E= 2 IDoP0=3 IntGTp=3.
 FoFCou: FMM=F IPFlag=           0 FMFlag=      100000 FMFlg1=           0
         NFxFlg=           0 DoJE=F BraDBF=F KetDBF=F FulRan=T
         wScrn=  0.000000 ICntrl=         0 IOpCl=  0 I1Cent=           0 NGrid=           0
         NMat0=  138 NMatS0=    138 NMatT0=    0 NMatD0=  138 NMtDS0=    0 NMtDT0=    0
 Integrals replicated using symmetry in FoFCou.
 Raff kept on since  71.16% of shell-pairs survive, threshold=   0.20 IRatSp=71.
          There are   141 degrees of freedom in the 1st order CPHF.  IDoFFX=6 NUNeed=     3.
    138 vectors produced by pass  0 Test12= 3.45D-14 1.00D-09 XBig12= 3.26D+02 8.12D+00.
 AX will form   138 AO Fock derivatives at one time.
    138 vectors produced by pass  1 Test12= 3.45D-14 1.00D-09 XBig12= 9.16D+01 1.48D+00.
    138 vectors produced by pass  2 Test12= 3.45D-14 1.00D-09 XBig12= 1.33D+00 1.54D-01.
    138 vectors produced by pass  3 Test12= 3.45D-14 1.00D-09 XBig12= 6.85D-03 7.74D-03.
    138 vectors produced by pass  4 Test12= 3.45D-14 1.00D-09 XBig12= 2.01D-05 2.88D-04.
    125 vectors produced by pass  5 Test12= 3.45D-14 1.00D-09 XBig12= 3.16D-08 1.14D-05.
     42 vectors produced by pass  6 Test12= 3.45D-14 1.00D-09 XBig12= 3.91D-11 4.39D-07.
      3 vectors produced by pass  7 Test12= 3.45D-14 1.00D-09 XBig12= 4.45D-14 1.99D-08.
      3 vectors produced by pass  8 Test12= 3.45D-14 1.00D-09 XBig12= 2.26D-15 3.44D-09.
      3 vectors produced by pass  9 Test12= 3.45D-14 1.00D-09 XBig12= 6.06D-15 4.01D-09.
      3 vectors produced by pass 10 Test12= 3.45D-14 1.00D-09 XBig12= 1.82D-15 3.11D-09.
      3 vectors produced by pass 11 Test12= 3.45D-14 1.00D-09 XBig12= 1.14D-15 2.27D-09.
      3 vectors produced by pass 12 Test12= 3.45D-14 1.00D-09 XBig12= 6.73D-16 1.77D-09.
      3 vectors produced by pass 13 Test12= 3.45D-14 1.00D-09 XBig12= 8.28D-16 1.77D-09.
      3 vectors produced by pass 14 Test12= 3.45D-14 1.00D-09 XBig12= 7.64D-16 2.03D-09.
      2 vectors produced by pass 15 Test12= 3.45D-14 1.00D-09 XBig12= 3.48D-16 1.14D-09.
 InvSVY:  IOpt=1 It=  1 EMax= 1.78D-14
 Solved reduced A of dimension   883 with   141 vectors.
 FullF1:  Do perturbations      1 to       3.
 Isotropic polarizability for W=    0.000000      231.24 Bohr**3.
 End of Minotr F.D. properties file   721 does not exist.
 End of Minotr F.D. properties file   722 does not exist.
 End of Minotr F.D. properties file   788 does not exist.
 Leave Link 1002 at Mon Mar  6 11:58:27 2023, MaxMem=  1048576000 cpu:            3522.6 elap:            3535.0
 (Enter /ssoft/spack/external/gaussian/g16-C.01/avx2/g16/l601.exe)
 Copying SCF densities to generalized density rwf, IOpCl= 0 IROHF=0.

 **********************************************************************

            Population analysis using the SCF Density.

 **********************************************************************

 Orbital symmetries:
       Occupied  (A) (A) (A) (A) (A) (A) (A) (A) (A) (A) (A) (A)
                 (A) (A) (A) (A) (A) (A) (A) (A) (A) (A) (A) (A)
                 (A) (A) (A) (A) (A) (A) (A) (A) (A) (A) (A) (A)
                 (A) (A) (A) (A) (A) (A) (A) (A) (A) (A) (A) (A)
                 (A) (A) (A) (A) (A) (A) (A) (A) (A) (A) (A) (A)
                 (A) (A) (A) (A) (A) (A) (A) (A) (A) (A) (A) (A)
                 (A) (A) (A) (A) (A) (A) (A) (A) (A) (A) (A) (A)
                 (A) (A) (A) (A) (A) (A) (A) (A) (A)
       Virtual   (A) (A) (A) (A) (A) (A) (A) (A) (A) (A) (A) (A)
                 (A) (A) (A) (A) (A) (A) (A) (A) (A) (A) (A) (A)
                 (A) (A) (A) (A) (A) (A) (A) (A) (A) (A) (A) (A)
                 (A) (A) (A) (A) (A) (A) (A) (A) (A) (A) (A) (A)
                 (A) (A) (A) (A) (A) (A) (A) (A) (A) (A) (A) (A)
                 (A) (A) (A) (A) (A) (A) (A) (A) (A) (A) (A) (A)
                 (A) (A) (A) (A) (A) (A) (A) (A) (A) (A) (A) (A)
                 (A) (A) (A) (A) (A) (A) (A) (A) (A) (A) (A) (A)
                 (A) (A) (A) (A) (A) (A) (A) (A) (A) (A) (A) (A)
                 (A) (A) (A) (A) (A) (A) (A) (A) (A) (A) (A) (A)
                 (A) (A) (A) (A) (A) (A) (A) (A) (A) (A) (A) (A)
                 (A) (A) (A) (A) (A) (A) (A) (A) (A) (A) (A) (A)
                 (A) (A) (A) (A) (A) (A) (A) (A) (A) (A) (A) (A)
                 (A) (A) (A) (A) (A) (A) (A) (A) (A) (A) (A) (A)
                 (A) (A) (A) (A) (A) (A) (A) (A) (A) (A) (A) (A)
                 (A) (A) (A) (A) (A) (A) (A) (A) (A) (A) (A) (A)
                 (A) (A) (A) (A) (A) (A) (A) (A) (A) (A) (A) (A)
                 (A) (A) (A) (A) (A) (A) (A) (A) (A) (A) (A) (A)
                 (A) (A) (A) (A) (A) (A) (A) (A) (A) (A) (A) (A)
                 (A) (A) (A) (A) (A) (A) (A) (A) (A) (A) (A) (A)
                 (A) (A) (A) (A) (A) (A) (A) (A) (A) (A) (A) (A)
                 (A) (A) (A) (A) (A) (A) (A) (A) (A) (A) (A) (A)
                 (A) (A) (A) (A) (A) (A) (A) (A) (A) (A) (A) (A)
                 (A) (A) (A) (A) (A) (A) (A) (A) (A) (A) (A) (A)
                 (A) (A) (A) (A) (A) (A) (A) (A) (A) (A) (A) (A)
                 (A) (A) (A) (A) (A) (A) (A) (A) (A) (A) (A) (A)
                 (A) (A) (A) (A) (A) (A) (A) (A) (A) (A) (A) (A)
                 (A) (A) (A) (A) (A) (A) (A) (A) (A) (A) (A) (A)
                 (A) (A) (A) (A) (A) (A) (A) (A) (A) (A) (A) (A)
                 (A) (A) (A) (A) (A) (A) (A) (A) (A) (A) (A) (A)
                 (A) (A) (A) (A) (A) (A) (A) (A) (A) (A) (A)
 The electronic state is 1-A.
 Alpha  occ. eigenvalues --  -19.13528 -19.06784 -19.02888 -18.99625 -14.21368
 Alpha  occ. eigenvalues --  -10.18696 -10.17898 -10.15987 -10.13148 -10.12933
 Alpha  occ. eigenvalues --  -10.12738 -10.12368 -10.12220 -10.12016 -10.11976
 Alpha  occ. eigenvalues --  -10.11839 -10.11691 -10.11478 -10.11336 -10.10490
 Alpha  occ. eigenvalues --  -10.10259 -10.09381 -10.09193 -10.08654 -10.07410
 Alpha  occ. eigenvalues --  -10.06704  -1.01664  -0.92256  -0.88662  -0.82347
 Alpha  occ. eigenvalues --   -0.78549  -0.77759  -0.76619  -0.72520  -0.69306
 Alpha  occ. eigenvalues --   -0.68026  -0.67410  -0.66562  -0.64335  -0.62982
 Alpha  occ. eigenvalues --   -0.57950  -0.56581  -0.55684  -0.54491  -0.53128
 Alpha  occ. eigenvalues --   -0.51723  -0.50863  -0.48489  -0.47850  -0.47056
 Alpha  occ. eigenvalues --   -0.42436  -0.41718  -0.41021  -0.40129  -0.39332
 Alpha  occ. eigenvalues --   -0.37880  -0.36789  -0.36611  -0.36081  -0.35814
 Alpha  occ. eigenvalues --   -0.35435  -0.34057  -0.33080  -0.32927  -0.31742
 Alpha  occ. eigenvalues --   -0.31481  -0.31077  -0.30498  -0.29496  -0.29046
 Alpha  occ. eigenvalues --   -0.28563  -0.27653  -0.27213  -0.26984  -0.26218
 Alpha  occ. eigenvalues --   -0.25491  -0.25428  -0.25123  -0.24595  -0.24252
 Alpha  occ. eigenvalues --   -0.23555  -0.22968  -0.22133  -0.19174  -0.16303
 Alpha  occ. eigenvalues --   -0.15664  -0.15296  -0.14031  -0.13084  -0.11629
 Alpha  occ. eigenvalues --   -0.09525  -0.06473  -0.06121
 Alpha virt. eigenvalues --    0.04630   0.08682   0.10739   0.11878   0.13484
 Alpha virt. eigenvalues --    0.17018   0.17571   0.19526   0.19810   0.20160
 Alpha virt. eigenvalues --    0.21367   0.22655   0.23228   0.23281   0.23866
 Alpha virt. eigenvalues --    0.24117   0.25723   0.26253   0.26877   0.27377
 Alpha virt. eigenvalues --    0.27668   0.27831   0.28773   0.29284   0.30322
 Alpha virt. eigenvalues --    0.31549   0.31963   0.32942   0.33583   0.34501
 Alpha virt. eigenvalues --    0.34760   0.35237   0.36492   0.37099   0.38147
 Alpha virt. eigenvalues --    0.38747   0.38904   0.39083   0.39760   0.40587
 Alpha virt. eigenvalues --    0.41266   0.42418   0.42941   0.43078   0.43494
 Alpha virt. eigenvalues --    0.43817   0.45483   0.46238   0.47471   0.48749
 Alpha virt. eigenvalues --    0.48844   0.48998   0.49780   0.53181   0.53572
 Alpha virt. eigenvalues --    0.54462   0.54770   0.54828   0.55970   0.56887
 Alpha virt. eigenvalues --    0.57967   0.58315   0.59024   0.59191   0.59467
 Alpha virt. eigenvalues --    0.59961   0.60485   0.61558   0.61781   0.62388
 Alpha virt. eigenvalues --    0.62672   0.63517   0.63921   0.64788   0.65541
 Alpha virt. eigenvalues --    0.66249   0.67238   0.68157   0.68299   0.69820
 Alpha virt. eigenvalues --    0.70687   0.71375   0.72205   0.72605   0.73011
 Alpha virt. eigenvalues --    0.73870   0.74561   0.75382   0.76073   0.76846
 Alpha virt. eigenvalues --    0.76952   0.78714   0.79482   0.79962   0.81033
 Alpha virt. eigenvalues --    0.81144   0.81764   0.82315   0.82648   0.83418
 Alpha virt. eigenvalues --    0.84124   0.84179   0.84679   0.84992   0.85316
 Alpha virt. eigenvalues --    0.85702   0.85856   0.86130   0.86283   0.86850
 Alpha virt. eigenvalues --    0.87086   0.87207   0.87552   0.88021   0.88593
 Alpha virt. eigenvalues --    0.88709   0.88850   0.89922   0.90133   0.90466
 Alpha virt. eigenvalues --    0.90820   0.91400   0.91991   0.92889   0.93219
 Alpha virt. eigenvalues --    0.94120   0.94854   0.95261   0.95774   0.96541
 Alpha virt. eigenvalues --    0.96912   0.97833   0.99366   1.00711   1.01531
 Alpha virt. eigenvalues --    1.03550   1.03773   1.04124   1.04534   1.06375
 Alpha virt. eigenvalues --    1.07531   1.08704   1.09514   1.11756   1.12870
 Alpha virt. eigenvalues --    1.14178   1.14445   1.16736   1.17982   1.19498
 Alpha virt. eigenvalues --    1.20584   1.20828   1.21653   1.22602   1.23775
 Alpha virt. eigenvalues --    1.24799   1.25490   1.28081   1.29461   1.30903
 Alpha virt. eigenvalues --    1.31567   1.32179   1.33080   1.33354   1.34917
 Alpha virt. eigenvalues --    1.35614   1.36099   1.36472   1.36661   1.36895
 Alpha virt. eigenvalues --    1.37529   1.38788   1.39208   1.40623   1.41256
 Alpha virt. eigenvalues --    1.41786   1.43380   1.44735   1.45912   1.47353
 Alpha virt. eigenvalues --    1.47804   1.49143   1.49864   1.50847   1.51169
 Alpha virt. eigenvalues --    1.51931   1.53141   1.55503   1.56772   1.57802
 Alpha virt. eigenvalues --    1.59442   1.61151   1.61976   1.63074   1.63295
 Alpha virt. eigenvalues --    1.65440   1.66569   1.68523   1.70133   1.73759
 Alpha virt. eigenvalues --    1.74491   1.75531   1.76774   1.77793   1.79340
 Alpha virt. eigenvalues --    1.80434   1.81785   1.82380   1.82909   1.85046
 Alpha virt. eigenvalues --    1.85883   1.86763   1.87933   1.88576   1.89717
 Alpha virt. eigenvalues --    1.89921   1.90394   1.90910   1.91408   1.92469
 Alpha virt. eigenvalues --    1.93277   1.93956   1.94890   1.95569   1.96557
 Alpha virt. eigenvalues --    1.97047   1.97473   1.98102   1.98927   1.99246
 Alpha virt. eigenvalues --    1.99837   2.00259   2.00673   2.01082   2.04512
 Alpha virt. eigenvalues --    2.04740   2.05491   2.06551   2.06850   2.07482
 Alpha virt. eigenvalues --    2.08327   2.08505   2.09879   2.11023   2.12479
 Alpha virt. eigenvalues --    2.13849   2.14903   2.15292   2.16407   2.17424
 Alpha virt. eigenvalues --    2.17825   2.18300   2.19062   2.19564   2.19889
 Alpha virt. eigenvalues --    2.20540   2.21475   2.22084   2.22785   2.23519
 Alpha virt. eigenvalues --    2.25828   2.26804   2.28358   2.28994   2.29439
 Alpha virt. eigenvalues --    2.30185   2.30821   2.32500   2.33059   2.34119
 Alpha virt. eigenvalues --    2.34957   2.36330   2.36787   2.39504   2.40509
 Alpha virt. eigenvalues --    2.41350   2.42032   2.42710   2.43113   2.44246
 Alpha virt. eigenvalues --    2.45942   2.46501   2.48547   2.49547   2.50725
 Alpha virt. eigenvalues --    2.52592   2.54366   2.56390   2.57131   2.57565
 Alpha virt. eigenvalues --    2.59180   2.59420   2.60179   2.60791   2.63554
 Alpha virt. eigenvalues --    2.64041   2.66353   2.67613   2.69030   2.69582
 Alpha virt. eigenvalues --    2.71252   2.73385   2.73798   2.75266   2.76210
 Alpha virt. eigenvalues --    2.76488   2.76945   2.77476   2.78732   2.78973
 Alpha virt. eigenvalues --    2.82270   2.83721   2.84934   2.85182   2.87176
 Alpha virt. eigenvalues --    2.87769   2.88945   2.91790   2.92807   2.93137
 Alpha virt. eigenvalues --    2.94560   2.94911   2.95443   2.97577   2.99135
 Alpha virt. eigenvalues --    3.00825   3.03263   3.03855   3.05708   3.08784
 Alpha virt. eigenvalues --    3.12496   3.15482   3.17356   3.21303   3.22481
 Alpha virt. eigenvalues --    3.23180   3.24722   3.25078   3.27069   3.28805
 Alpha virt. eigenvalues --    3.29547   3.31237   3.32053   3.32909   3.33413
 Alpha virt. eigenvalues --    3.33801   3.34461   3.35134   3.35509   3.39049
 Alpha virt. eigenvalues --    3.41131   3.42568   3.43393   3.45735   3.48137
 Alpha virt. eigenvalues --    3.49594   3.50103   3.51616   3.54041   3.54882
 Alpha virt. eigenvalues --    3.60883   3.65569   3.70866   3.72799   3.74555
 Alpha virt. eigenvalues --    3.75395   3.78345   3.89137   4.00885   4.02368
 Alpha virt. eigenvalues --    4.18411
     Molecular Orbital Coefficients:
                          89        90        91        92        93
                           O         O         O         O         O
     Eigenvalues --    -0.13084  -0.11629  -0.09525  -0.06473  -0.06121
   1 1   O  1S         -0.00158  -0.00057   0.00525   0.00068  -0.00038
   2        2S         -0.00449  -0.00184   0.01145   0.00151  -0.00286
   3        3S          0.00789   0.00795   0.02424   0.00141   0.01625
   4        4PX         0.01193   0.42981   0.24655   0.02515  -0.06254
   5        4PY        -0.01211   0.06308   0.01930  -0.07508   0.22204
   6        4PZ         0.00077   0.15545   0.09959  -0.05814   0.06987
   7        5PX         0.00663   0.30893   0.18389   0.01843  -0.05289
   8        5PY        -0.00983   0.04508   0.01274  -0.06426   0.18390
   9        5PZ         0.00372   0.11396   0.07563  -0.04891   0.06204
  10        6D 0       -0.00034   0.00579   0.00381  -0.00099   0.00210
  11        6D+1        0.00018   0.00780   0.00417   0.00106  -0.00174
  12        6D-1       -0.00040  -0.00012  -0.00064  -0.00083   0.00292
  13        6D+2       -0.00003  -0.00240  -0.00217  -0.00125   0.00235
  14        6D-2        0.00037  -0.00436  -0.00256   0.00030  -0.00178
  15 2   C  1S         -0.00076   0.01103  -0.01551  -0.01683   0.01732
  16        2S          0.00464  -0.03573   0.05578   0.04207  -0.03569
  17        3S         -0.02180   0.04799  -0.08723  -0.02693  -0.01176
  18        4PX         0.05460   0.02654  -0.02573  -0.03996   0.05814
  19        4PY         0.01113  -0.02570   0.04441   0.05374  -0.03718
  20        4PZ         0.26910  -0.04100   0.03250  -0.00898   0.01111
  21        5PX         0.02912   0.04919  -0.05671  -0.06093  -0.02645
  22        5PY         0.01040   0.05696  -0.01259  -0.01292  -0.06747
  23        5PZ         0.20101  -0.02735   0.01972  -0.00094   0.02393
  24        6D 0       -0.00551   0.00154  -0.00196  -0.00002  -0.00235
  25        6D+1        0.01368  -0.00199  -0.00136  -0.00243  -0.00027
  26        6D-1       -0.00097   0.00127   0.00147   0.00183  -0.00042
  27        6D+2        0.00265   0.00285   0.00094   0.00084   0.00447
  28        6D-2        0.00062   0.00021   0.00017   0.00056  -0.00021
  29 3   C  1S         -0.00090   0.00247   0.00231   0.00406   0.00663
  30        2S          0.00240  -0.00832  -0.00043  -0.02114  -0.00912
  31        3S          0.00352   0.04610  -0.05097   0.00773  -0.07937
  32        4PX        -0.00183  -0.00669   0.00242  -0.00863   0.02224
  33        4PY         0.00413  -0.00648  -0.01424  -0.02382   0.00214
  34        4PZ        -0.00678  -0.01515   0.01042  -0.01846   0.00946
  35        5PX         0.00155   0.00237  -0.00332  -0.02872   0.01927
  36        5PY         0.00188   0.02311   0.00009  -0.00410  -0.04274
  37        5PZ        -0.00014  -0.01332  -0.00317   0.01246  -0.01078
  38        6D 0       -0.00094   0.00015  -0.00058   0.00070  -0.00103
  39        6D+1       -0.00400  -0.00070   0.00074  -0.00106   0.00041
  40        6D-1        0.01880  -0.00203   0.00146   0.00092   0.00009
  41        6D+2       -0.00195   0.00091  -0.00078  -0.00160   0.00295
  42        6D-2        0.00364   0.00102  -0.00162  -0.00145  -0.00024
  43 4   H  1S          0.00060   0.00470  -0.00399  -0.01054  -0.00394
  44        2S         -0.00028   0.01270   0.00246  -0.02337   0.01133
  45        3PX        -0.00012  -0.00008   0.00050   0.00177  -0.00488
  46        3PY         0.00003  -0.00030  -0.00108  -0.00124   0.00201
  47        3PZ        -0.00058  -0.00030   0.00032  -0.00015  -0.00032
  48 5   C  1S         -0.00072  -0.00415  -0.00203  -0.00140  -0.00771
  49        2S          0.00160   0.00747   0.00954   0.01064   0.02384
  50        3S          0.01561  -0.02393   0.04674   0.02916   0.04685
  51        4PX         0.06027  -0.02813   0.00422   0.00137  -0.02974
  52        4PY         0.01948  -0.00382   0.00447   0.00473  -0.00388
  53        4PZ         0.29671  -0.02269   0.01068  -0.01462   0.01758
  54        5PX         0.02332   0.03673  -0.04962  -0.02482  -0.03754
  55        5PY         0.01923  -0.01592  -0.02009  -0.01862  -0.02100
  56        5PZ         0.18571  -0.02313   0.01792  -0.01783   0.01431
  57        6D 0        0.00504   0.00005   0.00023  -0.00042   0.00053
  58        6D+1       -0.00882   0.00201  -0.00179   0.00063  -0.00125
  59        6D-1       -0.01731   0.00110  -0.00077  -0.00004  -0.00078
  60        6D+2       -0.00078  -0.00088   0.00221   0.00306  -0.00145
  61        6D-2       -0.00361   0.00183  -0.00199  -0.00262   0.00260
  62 6   C  1S         -0.00346   0.00054  -0.00605  -0.00596  -0.00347
  63        2S          0.00838  -0.00082   0.02058   0.01104   0.00927
  64        3S         -0.06262  -0.03630  -0.05937   0.01472  -0.05394
  65        4PX        -0.02125  -0.07881   0.01753  -0.01802  -0.01229
  66        4PY        -0.00097  -0.02684  -0.03768  -0.04371   0.01348
  67        4PZ        -0.06524  -0.00286   0.10770   0.07494   0.02600
  68        5PX         0.00373  -0.15689   0.06912   0.06784   0.04111
  69        5PY        -0.00392  -0.06649   0.00637  -0.01632   0.08887
  70        5PZ        -0.04037   0.00670  -0.00022   0.03984   0.01653
  71        6D 0       -0.00193   0.00775  -0.01654  -0.01489  -0.00244
  72        6D+1        0.00283  -0.00011  -0.00305  -0.00244   0.00612
  73        6D-1       -0.01268  -0.00409   0.00732   0.00694   0.00348
  74        6D+2        0.00134   0.00263  -0.00350  -0.00046  -0.00854
  75        6D-2       -0.00288   0.00046   0.00286  -0.00288   0.01670
  76 7   H  1S          0.06611   0.02480  -0.10955  -0.10959  -0.01575
  77        2S          0.06327   0.11638  -0.03808  -0.07863  -0.02095
  78        3PX        -0.00062  -0.00447  -0.00286  -0.00239  -0.00083
  79        3PY        -0.00020  -0.00119   0.00249   0.00201  -0.00007
  80        3PZ         0.00201  -0.00318  -0.00126  -0.00011  -0.00086
  81 8   C  1S          0.00015   0.00267  -0.00067  -0.00149   0.00473
  82        2S          0.00043  -0.00812   0.00220   0.00401  -0.01229
  83        3S          0.00118  -0.02069  -0.00741  -0.01586  -0.03609
  84        4PX         0.02703   0.01081  -0.00433  -0.00222   0.01114
  85        4PY         0.01013  -0.00603   0.00281   0.00560  -0.01028
  86        4PZ         0.12689  -0.00157   0.00224   0.02087  -0.01289
  87        5PX         0.02072   0.00485   0.00974   0.01296   0.00590
  88        5PY         0.01372  -0.03524   0.03690   0.02767   0.00458
  89        5PZ         0.11063  -0.00066  -0.00314   0.01743  -0.00971
  90        6D 0        0.00024  -0.00002   0.00007   0.00027  -0.00021
  91        6D+1       -0.00692   0.00033  -0.00013   0.00055  -0.00076
  92        6D-1        0.01694  -0.00175   0.00063  -0.00109   0.00083
  93        6D+2       -0.00262   0.00157  -0.00099  -0.00085   0.00159
  94        6D-2        0.00277  -0.00025   0.00023   0.00017  -0.00009
  95 9   H  1S          0.00040   0.00888  -0.00544  -0.00612   0.00922
  96        2S          0.00087   0.01386  -0.01166  -0.01178   0.01721
  97        3PX         0.00109   0.00019  -0.00023  -0.00005   0.00024
  98        3PY         0.00029   0.00029  -0.00051  -0.00006  -0.00079
  99        3PZ         0.00482   0.00008   0.00012   0.00094  -0.00066
 100 10  C  1S          0.00090   0.00057  -0.00299  -0.00264  -0.00186
 101        2S         -0.00431  -0.00014   0.00637   0.00800   0.00329
 102        3S          0.00623  -0.01681   0.03390   0.02588   0.00461
 103        4PX        -0.05108   0.00795  -0.00886  -0.00927  -0.00272
 104        4PY        -0.02318  -0.00084   0.01002   0.00909   0.00226
 105        4PZ        -0.27811   0.01486  -0.00511  -0.01632   0.00936
 106        5PX        -0.03665  -0.00376  -0.01653  -0.00969   0.02685
 107        5PY        -0.01437  -0.00630   0.01347   0.00330   0.00363
 108        5PZ        -0.21040   0.01242   0.00202  -0.02422   0.01150
 109        6D 0        0.00290  -0.00041   0.00016  -0.00027   0.00027
 110        6D+1       -0.00760   0.00139  -0.00082   0.00114  -0.00055
 111        6D-1       -0.00091  -0.00038   0.00041  -0.00055   0.00036
 112        6D+2       -0.00149   0.00051   0.00070   0.00170  -0.00171
 113        6D-2       -0.00093   0.00009  -0.00020  -0.00038   0.00031
 114 11  H  1S          0.00007  -0.00061  -0.00568  -0.00799   0.00554
 115        2S          0.00174  -0.00213  -0.00761  -0.01172   0.00782
 116        3PX        -0.00211   0.00029   0.00002  -0.00053  -0.00041
[...]
 285,-0.00042362,0.00062232,0.00029332,-0.00002326,0.00040304,-0.000108
 35,0.00031660,0.00007458,0.00008175,0.00011935,-0.00009822,-0.00009630
 ,-0.00001502,-0.00008023,0.00007008,-0.00001842,0.00007327,0.00010028,
 -0.00003751,-0.00007376,-0.00011586,-0.00003114,0.00005185,-0.00010269
 ,-0.00005215,0.00001301,-0.00004904,0.00006841,-0.00002672,0.00003223,
 0.00000879,-0.00001789,0.00002747,-0.00135748,0.00022797,-0.00074876,0
 .27660732,0.00479409,-0.00120147,-0.00236284,0.00087339,0.00164967,0.0
 0031001,0.00018031,0.00049511,-0.00005522,0.00072018,-0.00076261,-0.00
 031295,-0.00023747,0.00109058,-0.00113532,0.00094698,-0.00652422,-0.00
 268944,0.00010441,0.00013528,-0.00017701,0.00040074,0.00016911,0.00037
 513,-0.00003189,0.00002749,-0.00012847,-0.00054098,0.00042543,-0.00023
 782,0.00003673,-0.00001532,-0.00013761,-0.00028017,-0.00029195,-0.0001
 1586,0.00003483,-0.00004701,-0.00003923,-0.00056621,-0.00019573,0.0001
 6289,-0.00031048,-0.00151964,0.00036162,0.13243658,-0.25521561,-0.0411
 4981,0.03436602,0.00265594,-0.01298319,-0.00612043,-0.00765252,0.00335
 005,-0.00931963,0.01151969,0.00463990,-0.00006144,0.00101297,-0.000059
 43,-0.00000873,0.00022145,0.00001011,-0.00045169,-0.00078684,0.0002278
 9,-0.00013919,-0.00127281,0.00008678,0.00597396,0.00453936,-0.00313354
 ,0.02606736,-0.06580253,-0.00462003,0.00228479,-0.00169686,-0.00109150
 ,-0.00007576,0.00011802,0.00003476,-0.00980107,-0.00165011,0.00051169,
 0.00101816,-0.00009146,0.00175558,0.00023408,0.00026688,0.00010668,0.0
 0110075,-0.00057434,-0.00020008,-0.00018605,-0.00034404,-0.00046749,-0
 .00038291,-0.00008105,-0.00004891,-0.00007272,0.00010630,0.00002213,-0
 .00032656,0.00008900,0.00014387,0.00006925,-0.00003703,-0.00007784,0.0
 0006383,0.00004490,0.00011106,-0.00003090,0.00002704,-0.00014326,-0.00
 006973,0.00000788,-0.00002094,-0.00006031,0.00001757,0.00001391,0.0000
 1307,0.00000305,0.00000513,-0.00106543,0.00072316,0.00046546,-0.181977
 90,0.32087260,0.00296748,-0.00200246,-0.00407190,0.00043259,0.00184404
 ,-0.00009924,-0.00020939,-0.00078667,-0.00006069,-0.00008389,0.0002799
 8,0.00060041,-0.00114192,-0.00135688,-0.00027205,-0.00373065,-0.002121
 29,-0.00364251,-0.00014965,-0.00039719,0.00048310,-0.00011744,0.000444
 57,-0.00044798,0.00003995,0.00001920,-0.00009722,0.00052743,-0.0004905
 6,0.00032690,-0.00002828,-0.00000871,0.00006192,0.00020353,0.00046367,
 0.00002218,-0.00000237,0.00005746,-0.00000991,0.00072036,0.00060327,0.
 00081374,-0.00028504,-0.00052199,-0.00167766,0.05268938,-0.04510067,-0
 .10337550,0.02572902,-0.01979628,0.00569338,0.00004660,0.00059372,-0.0
 0093301,0.00170802,0.00781747,0.01000089,-0.00020977,0.00032891,0.0001
 3672,-0.00002113,0.00024431,0.00002635,-0.00038090,-0.00024587,0.00034
 154,0.00032451,-0.00043207,-0.00007817,-0.00404983,0.00394748,0.000107
 07,0.00372337,-0.00152483,0.01427462,-0.00040813,0.00070945,0.00057516
 ,-0.00002604,-0.00018077,-0.00003354,-0.00148020,-0.00137502,0.0022623
 1,0.00059236,0.00108571,0.00006894,0.00029142,0.00024841,0.00016025,0.
 00130165,-0.00064985,0.00026973,0.00011595,-0.00055042,0.00024785,-0.0
 0022727,-0.00001204,-0.00005272,-0.00027713,0.00001912,-0.00002446,-0.
 00004971,0.00003731,0.00002414,0.00008749,-0.00007717,0.00003118,0.000
 04399,0.00004219,0.00006025,-0.00001150,-0.00001887,-0.00000427,-0.000
 00901,0.00000834,-0.00000436,-0.00002867,0.00002287,-0.00000172,-0.000
 01578,-0.00001067,-0.00000113,-0.00068304,0.00020124,-0.00003309,-0.07
 774871,0.05880906,0.07849456,-0.00017761,0.00019675,0.00014375,0.00000
 249,0.00000811,0.00000110,0.00000088,0.00000025,0.00000137,-0.00000013
 ,0.00000015,0.00000486,0.00000205,0.00000025,0.00000165,0.00002253,-0.
 00002762,-0.00006985,0.00000119,-0.00000487,-0.00000034,-0.00000010,0.
 00000158,-0.00000163,0.00000011,0.00000025,-0.00000025,0.00000176,-0.0
 0000056,-0.00000088,-0.00000140,0.00000053,0.00000028,-0.00000056,0.00
 000148,-0.00000244,-0.00000027,0.00000082,-0.00000020,-0.00000476,0.00
 000027,-0.00000349,0.00126126,-0.00328091,0.00350723,-0.00008124,0.000
 01974,0.00015448,-0.00009148,-0.00018882,0.00004608,-0.00055694,-0.001
 16802,-0.00022201,0.00083643,-0.00047188,-0.00035673,0.01342234,-0.015
 42526,-0.00142967,-0.00050885,0.00120713,-0.00296936,-0.28456845,0.408
 69778,0.13210670,-0.01047023,0.02724780,0.00701788,0.00012300,0.000165
 64,0.00003476,-0.00037833,0.00003775,-0.00051440,-0.00364035,-0.002064
 69,0.00558662,-0.00048081,0.00139625,0.00017342,-0.00001097,-0.0000305
 8,-0.00000280,0.00000398,-0.00000960,0.00000960,-0.00000231,0.00000075
 ,-0.00000103,-0.00000042,0.00000211,-0.00000088,-0.00000094,0.00000012
 ,-0.00000431,-0.00000021,-0.00000145,0.00000198,0.00000123,0.00000190,
 0.00000027,-0.00000146,-0.00000158,0.00000179,0.00000166,-0.00000010,-
 0.00000271,-0.00000084,0.00000230,0.00000093,0.00000077,0.00000056,-0.
 00000322,-0.00000091,-0.00000128,-0.00000008,-0.00000185,-0.00000066,0
 .00000176,0.00000030,0.00000161,-0.00000014,-0.00000003,-0.00000754,-0
 .00000915,0.00003118,0.00002367,-0.00003585,0.28438230,-0.00041643,0.0
 0009713,0.00016395,-0.00002282,-0.00002915,-0.00003683,0.00000620,0.00
 000085,0.00000424,-0.00001001,0.00000383,-0.00001693,0.00003043,0.0000
 1641,0.00002043,0.00015422,0.00003524,-0.00005329,-0.00000546,0.000010
 71,0.00000607,-0.00001109,-0.00001414,0.00000271,0.00000115,-0.0000041
 8,0.00000309,-0.00000441,-0.00000261,0.00000246,0.00000413,-0.00000133
 ,0.00000086,0.00000619,-0.00000399,0.00001352,0.00000105,-0.00000258,0
 .00000125,-0.00002367,-0.00002020,-0.00000256,-0.00276710,-0.00467683,
 0.00171447,-0.00028804,0.00008457,0.00013345,-0.00021692,-0.00042370,0
 .00011206,-0.00122108,-0.00015469,0.00048966,0.00182304,-0.00013135,-0
 .00076050,0.02219984,-0.01651597,-0.00885804,-0.00034349,0.00227518,-0
 .00017037,0.40888174,-0.51768815,-0.16128058,-0.01083697,0.01147435,0.
 00461466,0.00010578,0.00010024,-0.00005006,-0.00011291,-0.00015463,0.0
 0001520,-0.00219597,0.00104412,0.00124630,-0.00033477,0.00051484,0.000
 11503,-0.00002926,-0.00008193,-0.00000073,0.00003140,-0.00000500,0.000
 02800,-0.00000577,-0.00000721,-0.00000661,-0.00000173,0.00000524,0.000
 01185,-0.00000811,0.00000490,-0.00000196,0.00001131,0.00000312,0.00000
 448,-0.00000144,-0.00000371,-0.00000192,0.00000052,-0.00000330,0.00000
 768,0.00000274,-0.00000021,0.00000124,-0.00000226,0.00000056,-0.000002
 96,-0.00000296,0.00000259,-0.00001016,-0.00000465,-0.00000061,-0.00000
 489,0.00000153,-0.00000100,0.00000540,-0.00000020,-0.00000026,0.000001
 76,-0.00000617,-0.00000851,-0.00002710,0.00017447,-0.00010104,-0.00006
 650,-0.41559912,0.52378276,0.00014669,-0.00009680,0.00012074,0.0000204
 4,0.00003126,0.00000524,0.00000456,0.00000365,-0.00000137,-0.00000045,
 0.00000104,0.00000535,0.00000389,0.00001126,-0.00000446,-0.00007157,0.
 00002699,-0.00012737,0.00000527,-0.00000948,0.00000612,0.00000148,0.00
 000135,-0.00000256,-0.00000183,0.00000080,-0.00000048,-0.00000012,-0.0
 0000312,-0.00000402,-0.00000301,0.00000256,-0.00000066,0.00000032,0.00
 000147,-0.00000383,-0.00000071,0.00000086,0.00000068,-0.00001130,-0.00
 000912,-0.00000965,0.00341030,0.00194984,0.00719166,0.00017157,-0.0000
 0229,0.00021259,0.00003399,0.00006803,-0.00006634,-0.00030744,0.000550
 11,-0.00107331,-0.00043976,0.00027314,0.00010134,-0.00303569,0.0081432
 9,0.00968254,-0.00276708,-0.00089814,-0.00576783,0.13231774,-0.1615257
 0,-0.00718068,0.00839768,-0.01220005,0.00463055,0.00001959,-0.00008128
 ,0.00021411,-0.00046636,-0.00009684,-0.00131535,0.00555642,0.00125746,
 0.00605089,0.00027200,-0.00063684,0.00002527,-0.00001943,-0.00004065,-
 0.00001161,0.00001133,-0.00001316,0.00002139,-0.00000182,0.00000012,-0
 .00000266,0.00000433,0.00000281,0.00000224,-0.00000214,0.00000109,-0.0
 0000441,-0.00000093,-0.00000242,0.00000323,0.00000030,0.00000306,-0.00
 000036,-0.00000325,-0.00000400,0.00000455,0.00000448,0.00000055,-0.000
 00266,-0.00000026,0.00000215,-0.00000029,0.00000018,0.00000404,-0.0000
 0640,-0.00000305,-0.00000287,-0.00000349,-0.00000243,-0.00000324,0.000
 00542,0.00000039,0.00000331,0.00000091,-0.00000535,-0.00000535,-0.0000
 0843,-0.00002960,-0.00000472,-0.00002910,-0.13985640,0.16335325,-0.007
 64866,-0.00037442,0.00006141,0.00012464,-0.00330300,-0.00160584,-0.005
 02968,0.00089827,-0.00174518,0.00047429,-0.00042481,0.00003056,-0.0000
 9287,-0.01613834,-0.04208601,0.01442011,0.00000292,0.00049501,-0.00018
 868,0.00016566,-0.00036000,0.00010697,0.00286961,0.00270318,0.00294218
 ,-0.00008963,0.00051771,-0.00164838,0.00030681,0.00062390,-0.00025326,
 0.00000115,0.00012041,-0.00003797,-0.00091628,-0.00066660,0.00055971,0
 .00021228,0.00016460,0.00015928,0.04032414,-0.31484047,0.10851202,-0.0
 0002859,-0.00003597,0.00001422,0.00010270,0.00004085,-0.00004848,-0.00
 000558,0.00008324,-0.00002872,0.00001363,0.00008463,-0.00000580,0.0003
 8985,-0.00018254,-0.00013176,0.00000217,0.00002284,-0.00000407,0.00000
 558,-0.00001215,-0.00000010,0.00000660,0.00002064,-0.00000644,-0.00002
 123,0.00004558,0.00000526,0.00005375,0.00009822,-0.00003963,-0.0000109
 8,-0.00017230,0.00001770,-0.00000784,-0.00003802,0.00000299,0.00000349
 ,-0.00000729,0.00000037,0.00004283,0.00056952,-0.00026736,0.00022320,-
 0.00014033,0.00032907,-0.00003376,-0.00000536,-0.00004626,-0.00005947,
 0.00004834,-0.00004245,-0.00005991,0.00011277,-0.00010934,0.00003521,0
 .00000752,0.00002551,0.00002729,-0.00006082,0.00002604,-0.00005279,-0.
 00002881,0.00003079,-0.00000021,-0.00001088,0.00001933,0.00000563,0.00
 000629,-0.00000620,-0.00000266,0.00002663,-0.00003184,-0.00002745,-0.0
 0000026,-0.00000151,0.00000751,0.00001491,-0.00000056,-0.00001081,-0.0
 0002488,-0.00001040,-0.00029198,-0.00041832,0.00063920,-0.00002231,0.0
 0015079,-0.00005547,0.00000053,0.00000957,0.00000102,-0.02381889,-0.00
 001448,0.00011959,-0.00005755,-0.00195326,0.00153182,-0.00159624,-0.00
 091677,-0.00066022,0.00062598,-0.00002863,-0.00007041,-0.00025813,-0.0
 0403861,-0.02015868,0.01024047,0.00001604,0.00047289,0.00007110,0.0000
 3287,0.00024294,-0.00019620,0.00536409,0.00456623,0.00144924,-0.001043
 31,0.00000900,-0.00039988,0.00044584,0.00027876,0.00044101,-0.00001136
 ,-0.00002800,-0.00001572,0.00033828,-0.00105432,0.00044241,0.00029098,
 0.00017153,0.00013786,-0.35487396,-1.08460787,0.53146369,-0.00000151,-
 0.00000752,0.00000896,-0.00004564,0.00002966,0.00005137,0.00003976,0.0
 0007110,-0.00018818,0.00000600,0.00005433,-0.00000124,0.00002467,-0.00
 010347,0.00002725,-0.00000063,0.00001633,-0.00000467,0.00000301,-0.000
 01458,0.00000401,0.00000482,0.00001071,-0.00000740,-0.00000926,0.00003
 271,0.00000037,0.00008455,0.00006560,-0.00005665,-0.00008207,-0.000127
 61,0.00005797,-0.00000069,-0.00001824,-0.00000253,0.00000240,-0.000004
 83,0.00000123,0.00025590,0.00040999,-0.00080715,0.00004285,-0.00002332
 ,0.00016935,-0.00001374,-0.00001087,-0.00007301,-0.00001505,0.00002773
 ,-0.00003457,-0.00001971,0.00005140,-0.00011019,0.00000960,-0.00003732
 ,0.00001358,0.00000107,0.00000489,0.00005428,-0.00002135,0.00000393,0.
 00002493,-0.00000001,-0.00000166,0.00000078,0.00000336,-0.00000508,-0.
 00002510,-0.00000601,0.00000803,-0.00003398,-0.00001244,0.00000603,-0.
 00000956,0.00000592,-0.00000876,0.00000643,-0.00000510,-0.00000139,0.0
 0001241,-0.00031368,-0.00048469,0.00089905,0.00007749,-0.00001425,-0.0
 0012748,-0.00000105,0.00000545,0.00000258,0.35637784,1.09924704,0.0000
 4348,0.00005188,-0.00007277,-0.00502769,-0.00183083,-0.00190992,-0.000
 10460,-0.00030044,0.00162432,-0.00000975,-0.00019519,-0.00030478,-0.01
 382802,-0.03234395,0.00805747,-0.00038825,-0.00047422,-0.00039002,0.00
 023145,-0.00014531,-0.00002103,0.00081870,-0.00152282,0.00065279,-0.00
 045744,0.00133709,-0.00047738,-0.00019283,0.00054776,-0.00043206,0.000
 04169,0.00013494,-0.00006350,-0.00011696,-0.00063045,-0.00067314,0.000
 09225,0.00002076,0.00001743,0.13889252,0.57630947,-0.12301767,0.000002
 30,0.00001195,0.00000799,-0.00008192,0.00010077,0.00003684,0.00009278,
 -0.00009487,-0.00010885,0.00000076,0.00000577,-0.00000009,-0.00004815,
 -0.00000022,0.00003137,0.00000013,0.00000211,-0.00000468,0.00000099,-0
 .00000375,0.00000419,0.00000015,0.00000254,-0.00000381,-0.00000202,0.0
 0000635,-0.00000214,0.00004238,0.00001976,-0.00002940,-0.00003135,-0.0
 0004258,0.00002164,0.00000121,-0.00000158,-0.00000294,0.00000078,-0.00
 000032,0.00000133,0.00055874,0.00018485,-0.00115656,0.00029959,0.00014
 280,0.00029286,0.00000562,0.00000506,-0.00009155,-0.00006422,0.0000270
 0,-0.00013062,0.00001701,0.00009120,-0.00009471,0.00000932,-0.00004880
 ,0.00003072,-0.00005384,-0.00001971,0.00004463,-0.00005602,-0.00002480
 ,0.00001814,0.00001020,-0.00001551,0.00002233,0.00000758,0.00000329,-0
 .00002612,0.00000488,0.00000945,-0.00001959,-0.00000820,-0.00000040,0.
 00000233,0.00000353,-0.00000698,-0.00000086,-0.00001572,-0.00000023,0.
 00000085,-0.00044728,0.00094429,0.00115642,0.00008001,-0.00005606,-0.0
 0002847,0.00000029,0.00000077,0.00000230,-0.12032477,-0.54220224,0.117
 03518,0.00029015,-0.00021036,-0.00006323,-0.00000581,-0.00000646,0.000
 00627,-0.00000101,-0.00000027,-0.00000380,0.00000312,0.00000075,0.0000
 0640,0.00000234,0.00000076,0.00000315,0.00004136,-0.00002092,0.0000520
 3,0.00000340,0.00001940,-0.00000270,-0.00000155,0.00000025,-0.00000266
 ,-0.00000028,-0.00000012,-0.00000046,0.00000101,-0.00000164,0.00000079
 ,-0.00000138,0.00000157,-0.00000106,0.00000034,0.00000310,-0.00000256,
 0.00000021,0.00000060,-0.00000003,-0.00000290,-0.00000231,-0.00000392,
 -0.00128067,0.00074194,0.00004259,-0.00034205,-0.00003486,0.00013364,0
 .00012247,-0.00010471,-0.00004779,-0.00123590,0.00400184,0.00427716,-0
 .00052927,0.00011981,-0.00041351,-0.00440992,0.00002244,0.00575482,-0.
 00001091,-0.00156047,0.00015822,-0.00332326,-0.03281040,0.00631854,-0.
 05685553,-0.25579199,0.06015885,-0.00017906,-0.00028195,0.00015652,0.0
 0113419,0.00106516,-0.00047610,0.01205060,0.02573440,-0.00320976,-0.00
 006189,-0.00186202,-0.00295841,0.00000578,0.00001282,-0.00000628,-0.00
 000008,-0.00000121,-0.00000028,0.00000128,0.00000136,-0.00000043,0.000
 00040,-0.00000090,-0.00000222,-0.00000184,0.00000171,0.00000291,-0.000
 00002,0.00000043,0.00000033,0.00000061,0.00000028,-0.00000083,0.000000
 42,-0.00000183,0.00000078,0.00000073,0.00000074,0.00000021,-0.00000015
 ,0.00000001,-0.00000074,-0.00000069,0.00000229,-0.00000060,-0.00000059
 ,-0.00000133,-0.00000189,0.00000066,-0.00000109,0.00000219,0.00000027,
 0.00000060,0.00000009,0.00000087,0.00000504,0.00000609,-0.00003074,0.0
 0022367,-0.00007835,0.00088548,0.00102751,-0.00335398,0.00000011,0.000
 00099,0.00000072,0.05372972,-0.00018560,-0.00003731,0.00007870,-0.0000
 0991,-0.00001269,-0.00002145,0.00000451,0.00000298,0.00000178,-0.00000
 640,0.00000237,-0.00001203,0.00001723,0.00001281,0.00000938,0.00000225
 ,0.00006450,0.00000556,-0.00000473,-0.00000582,0.00000736,-0.00000561,
 -0.00000978,0.00000177,-0.00000017,-0.00000233,0.00000205,-0.00000394,
 -0.00000330,0.00000005,0.00000197,-0.00000007,0.00000073,0.00000508,-0
 .00000333,0.00000864,0.00000026,-0.00000194,0.00000145,-0.00001319,-0.
 00001576,-0.00000198,0.00076664,0.00040788,-0.00042331,0.00041657,0.00
 021254,-0.00024956,-0.00008134,0.00002463,0.00004766,0.00386483,-0.002
 00982,-0.00119099,0.00008495,-0.00007870,-0.00010583,-0.00002282,0.001
 85055,0.00039833,0.00015235,0.00004213,-0.00004030,0.00556855,0.003477
 12,-0.00228158,-0.25611933,-0.76643365,0.15611759,0.00038162,0.0000953
 8,-0.00018439,-0.00142292,-0.00051362,0.00074350,-0.01216184,-0.015475
 01,0.00654782,-0.00023273,0.00169259,-0.00033827,-0.00001120,-0.000033
 89,-0.00000764,0.00001684,-0.00000022,0.00001652,-0.00000253,-0.000006
 42,-0.00000421,0.00000073,0.00000300,0.00000944,-0.00000314,0.00000411
 ,-0.00000010,0.00000584,0.00000221,0.00000184,-0.00000195,-0.00000243,
 -0.00000147,-0.00000059,-0.00000205,0.00000465,0.00000131,0.00000105,0
 .00000287,-0.00000038,-0.00000203,-0.00000274,-0.00000217,0.00000240,-
 0.00000505,-0.00000333,0.00000024,-0.00000356,0.00000184,-0.00000100,0
 .00000257,0.00000008,-0.00000056,0.00000138,-0.00000813,0.00000017,-0.
 00001001,0.00002999,-0.00034001,0.00002647,-0.00072993,0.00057421,-0.0
 0006004,0.00000505,0.00000544,0.00000144,0.25970539,0.77651342,-0.0000
 7867,0.00009994,0.00014032,-0.00001903,-0.00003415,0.00000478,-0.00000
 195,0.00000140,-0.00000277,0.00000220,0.00000142,0.00000502,0.00001669
 ,0.00000535,0.00001513,0.00005290,0.00001544,0.00013666,-0.00000012,-0
 .00000102,-0.00000571,-0.00000480,-0.00000389,-0.00000324,0.00000005,-
 0.00000076,0.00000083,0.00000112,-0.00000338,0.00000018,-0.00000223,0.
 00000233,-0.00000060,0.00000117,0.00000283,-0.00000288,-0.00000014,0.0
 0000080,0.00000032,-0.00001246,-0.00000723,-0.00000994,0.00020139,-0.0
 0048751,-0.00116408,0.00009784,-0.00005469,-0.00012844,-0.00007736,0.0
 0003182,0.00001413,0.00412208,-0.00137106,0.00696062,-0.00035745,-0.00
 013344,-0.00123395,0.00578654,0.00040581,0.00593849,0.00010339,0.00074
 140,0.00019868,0.00412583,0.01459146,0.00474511,0.06049871,0.15604159,
 0.01331521,0.00013689,0.00010747,0.00005684,-0.00035847,-0.00037475,0.
 00041765,-0.00140213,-0.01013188,0.00884506,-0.00302653,0.00040472,-0.
 00556697,-0.00000950,0.00002158,-0.00001667,0.00001144,-0.00000639,0.0
 0001107,-0.00000202,-0.00000105,-0.00000245,0.00000099,0.00000022,0.00
 000189,-0.00000041,0.00000037,-0.00000218,0.00000115,-0.00000202,0.000
 00184,0.00000021,0.00000218,-0.00000132,-0.00000352,-0.00000449,0.0000
 0415,0.00000295,0.00000172,-0.00000154,-0.00000014,0.00000082,-0.00000
 021,0.00000082,0.00000318,-0.00000455,-0.00000297,-0.00000185,-0.00000
 170,-0.00000187,-0.00000202,0.00000284,0.00000094,0.00000236,0.0000001
 2,0.00000096,0.00000601,0.00000714,-0.00004614,-0.00005515,-0.00010451
 ,-0.00330896,-0.00072185,-0.00501116,0.00000132,0.00000136,0.00000154,
 -0.06645071,-0.15909503,-0.02756074\\0.00515058,-0.00658680,-0.0008296
 3,0.00463034,-0.00683465,0.01139059,0.06023938,0.15730627,-0.04127600,
 -0.05711732,-0.16441646,0.05252287,-0.00059410,-0.00622098,0.00180294,
 -0.12289944,0.00816395,0.03676221,0.11104366,-0.00820502,-0.02229777,-
 0.05010057,-0.15223306,0.05885496,0.06153716,0.16317912,-0.05325031,0.
 13089686,0.08191596,0.08363736,-0.13406428,-0.08011919,-0.08937851,0.0
 6885876,-0.08455927,0.13421064,-0.07479342,0.08471868,-0.14159994,-0.0
 6458212,-0.21639777,0.08728097,-0.00290834,-0.00275982,0.00102932,-0.0
 7194089,0.05490990,0.02606105,0.02966321,-0.01585938,-0.01467832,0.001
 70366,-0.00109618,0.00093378,-0.00328603,0.02917239,-0.00142361,-0.159
 07323,-0.02227233,0.06950616,0.16317841,0.03330539,-0.07215730,-0.1066
 8586,0.13615487,0.04267996,0.05076282,0.16701363,-0.03163371,0.0136351
 3,-0.00547990,-0.00581528,-0.01576901,0.00138004,0.00695686,0.16378999
 ,0.02382334,-0.07405758,-0.16424562,-0.02590530,0.07436438,-0.02620574
 ,-0.09828925,0.03351365,0.06949973,0.02887182,-0.13860217,-0.03611796,
 0.08689375,0.08446237,-0.05420445,-0.10814426,0.02836738,-0.07499332,-
 0.02100533,0.11275644,0.03402685,-0.08990661,-0.08445865,0.05368120,0.
 10975061,-0.03495129,0.07508801,0.01694468,-0.11423128,-0.05963674,-0.
 10696056,0.03636335,-0.03276872,0.09112334,0.08318217,-0.12832507,0.01
 673080,-0.00669007,0.03897479,-0.03497055,0.12829431,0.03725967,-0.100
 43142,-0.08622524,0.06816749,0.11688024,-0.03720143,0.04363457,0.09253
 494,-0.02070679,0.04219499,-0.05110557,-0.01842410,0.10717343,-0.14060
 979,-0.04192427,0.06165310,0.22087001,-0.09658033,-0.05613157,-0.17127
 427,0.03345984\\\@
 The archive entry for this job was punched.

 Writing a WFNX file to "WUGWIF_Complex_7_Ligand_1_ON_Cu_oriented.wfx"


 In the beginning the Universe was created.
 This has made a lot of people very angry
 and been widely regarded as a bad move.
                               -D.Adams
 Job cpu time:       0 days  2 hours  9 minutes 19.6 seconds.
 Elapsed time:       0 days  2 hours  9 minutes 48.1 seconds.
 File lengths (MBytes):  RWF=   1300 Int=      0 D2E=      0 Chk=     20 Scr=      8
 Normal termination of Gaussian 16 at Mon Mar  6 12:31:34 2023.
