 Entering Gaussian System, Link 0=g16
 Initial command:
 /ssoft/spack/external/gaussian/g16-C.01/avx2/g16/l1.exe "/scratch/lcmd/2387858/Gau-1722586.inp" -scrdir="/scratch/lcmd/2387858/"
 Entering Link 1 = /ssoft/spack/external/gaussian/g16-C.01/avx2/g16/l1.exe PID=   1722591.
  
 Copyright (c) 1988-2019, Gaussian, Inc.  All Rights Reserved.
  
 This is part of the Gaussian(R) 16 program.  It is based on
 the Gaussian(R) 09 system (copyright 2009, Gaussian, Inc.),
 the Gaussian(R) 03 system (copyright 2003, Gaussian, Inc.),
 the Gaussian(R) 98 system (copyright 1998, Gaussian, Inc.),
 the Gaussian(R) 94 system (copyright 1995, Gaussian, Inc.),
 the Gaussian 92(TM) system (copyright 1992, Gaussian, Inc.),
 the Gaussian 90(TM) system (copyright 1990, Gaussian, Inc.),
 the Gaussian 88(TM) system (copyright 1988, Gaussian, Inc.),
 the Gaussian 86(TM) system (copyright 1986, Carnegie Mellon
 University), and the Gaussian 82(TM) system (copyright 1983,
 Carnegie Mellon University). Gaussian is a federally registered
 trademark of Gaussian, Inc.
  
 This software contains proprietary and confidential information,
 including trade secrets, belonging to Gaussian, Inc.
  
 This software is provided under written license and may be
 used, copied, transmitted, or stored only in accord with that
 written license.
  
 The following legend is applicable only to US Government
 contracts under FAR:
  
                    RESTRICTED RIGHTS LEGEND
  
 Use, reproduction and disclosure by the US Government is
 subject to restrictions as set forth in subparagraphs (a)
 and (c) of the Commercial Computer Software - Restricted
 Rights clause in FAR 52.227-19.
  
 Gaussian, Inc.
 340 Quinnipiac St., Bldg. 40, Wallingford CT 06492
  
  
 ---------------------------------------------------------------
 Warning -- This program may not be used in any manner that
 competes with the business of Gaussian, Inc. or will provide
 assistance to any competitor of Gaussian, Inc.  The licensee
 of this program is prohibited from giving any competitor of
 Gaussian, Inc. access to this program.  By using this program,
 the user acknowledges that Gaussian, Inc. is engaged in the
 business of creating and licensing software in the field of
 computational chemistry and represents and warrants to the
 licensee that it is not a competitor of Gaussian, Inc. and that
 it will not use this program in any manner prohibited above.
 ---------------------------------------------------------------
  

 Cite this work as:
 Gaussian 16, Revision C.01,
 M. J. Frisch, G. W. Trucks, H. B. Schlegel, G. E. Scuseria, 
 M. A. Robb, J. R. Cheeseman, G. Scalmani, V. Barone, 
 G. A. Petersson, H. Nakatsuji, X. Li, M. Caricato, A. V. Marenich, 
 J. Bloino, B. G. Janesko, R. Gomperts, B. Mennucci, H. P. Hratchian, 
 J. V. Ortiz, A. F. Izmaylov, J. L. Sonnenberg, D. Williams-Young, 
 F. Ding, F. Lipparini, F. Egidi, J. Goings, B. Peng, A. Petrone, 
 T. Henderson, D. Ranasinghe, V. G. Zakrzewski, J. Gao, N. Rega, 
 G. Zheng, W. Liang, M. Hada, M. Ehara, K. Toyota, R. Fukuda, 
 J. Hasegawa, M. Ishida, T. Nakajima, Y. Honda, O. Kitao, H. Nakai, 
 T. Vreven, K. Throssell, J. A. Montgomery, Jr., J. E. Peralta, 
 F. Ogliaro, M. J. Bearpark, J. J. Heyd, E. N. Brothers, K. N. Kudin, 
 V. N. Staroverov, T. A. Keith, R. Kobayashi, J. Normand, 
 K. Raghavachari, A. P. Rendell, J. C. Burant, S. S. Iyengar, 
 J. Tomasi, M. Cossi, J. M. Millam, M. Klene, C. Adamo, R. Cammi, 
 J. W. Ochterski, R. L. Martin, K. Morokuma, O. Farkas, 
 J. B. Foresman, and D. J. Fox, Gaussian, Inc., Wallingford CT, 2019.
 
 ******************************************
 Gaussian 16:  ES64L-G16RevC.01  3-Jul-2019
                 6-Mar-2023 
 ******************************************
 %nprocshared=1
 Will use up to    1 processors via shared memory.
 %mem=8000MB
 %chk=XABNAQ_Complex_4_Ligand_1_ON_Cu_oriented.chk
 ----------------------------------------------------------------------
 #p pop=(regular,nbo,savenbos) freq=noraman def2svp empiricaldispersion
 =gd3bj output=wfx pbe1pbe
 ----------------------------------------------------------------------
 1/10=4,30=1,38=1/1,3;
 2/12=2,17=6,18=5,40=1/2;
 3/5=43,7=101,11=2,25=1,30=1,71=2,74=-13,124=41,140=1/1,2,3;
 4//1;
 5/5=2,38=5,98=1/2;
 8/6=4,10=90,11=11/1;
 11/6=1,8=1,9=11,15=111,16=1/1,2,10;
 10/6=1/2;
 6/28=1,40=1,73=1/1,7;
 7/8=1,10=1,25=1/1,2,3,16;
 1/10=4,30=1/3;
 99/6=200/99;
 Leave Link    1 at Mon Mar  6 10:21:46 2023, MaxMem=  1048576000 cpu:               0.0 elap:               0.2
 (Enter /ssoft/spack/external/gaussian/g16-C.01/avx2/g16/l101.exe)
 ----------------------------------------
 XABNAQ_Complex_4_Ligand_1_ON_Cu_oriented
 ----------------------------------------
 Symbolic Z-matrix:
 Charge = -1 Multiplicity = 1
 O                    -1.85742   0.55436   0. 
 S                     0.20472   6.4497   -1.26277 
 O                    -3.19453   2.30553  -0.03759 
 N                     0.40442   1.94504   0. 
 H                     0.75815   2.18354  -0.79257 
 H                     1.00505   2.13101   0.64452 
 C                    -2.06794   1.8038    0.04293 
 C                    -0.85277   2.71476   0.24354 
 H                    -0.84577   2.99645   1.16146 
 C                    -0.9188    3.97952  -0.60561 
 H                    -1.79759   4.36274  -0.55271 
 C                     0.11165   5.01172  -0.14715 
 H                    -0.11994   5.30765   0.73658 
 H                     0.97312   4.59323  -0.10596 
 C                     1.36884   5.85115  -2.45249 
 H                     1.03455   5.05323  -2.86745 
 H                    -0.74477   3.75086  -1.5217 
 H                     2.20153   5.6594   -2.01549 
 H                     1.50688   6.52576  -3.12324 
 
 ITRead=  0  0  0  0  0  0  0  0  0  0  0  0  0  0  0  0  0  0  0
 MicOpt= -1 -1 -1 -1 -1 -1 -1 -1 -1 -1 -1 -1 -1 -1 -1 -1 -1 -1 -1
 NAtoms=     19 NQM=       19 NQMF=       0 NMMI=      0 NMMIF=      0
                NMic=       0 NMicF=      0.
                    Isotopes and Nuclear Properties:
 (Nuclear quadrupole moments (NQMom) in fm**2, nuclear magnetic moments (NMagM)
  in nuclear magnetons)

  Atom         1           2           3           4           5           6           7           8           9          10
 IAtWgt=          16          32          16          14           1           1          12          12           1          12
 AtmWgt=  15.9949146  31.9720718  15.9949146  14.0030740   1.0078250   1.0078250  12.0000000  12.0000000   1.0078250  12.0000000
 NucSpn=           0           0           0           2           1           1           0           0           1           0
 AtZEff=  -0.0000000  -0.0000000  -0.0000000  -0.0000000  -0.0000000  -0.0000000  -0.0000000  -0.0000000  -0.0000000  -0.0000000
 NQMom=    0.0000000   0.0000000   0.0000000   2.0440000   0.0000000   0.0000000   0.0000000   0.0000000   0.0000000   0.0000000
 NMagM=    0.0000000   0.0000000   0.0000000   0.4037610   2.7928460   2.7928460   0.0000000   0.0000000   2.7928460   0.0000000
 AtZNuc=   8.0000000  16.0000000   8.0000000   7.0000000   1.0000000   1.0000000   6.0000000   6.0000000   1.0000000   6.0000000

  Atom        11          12          13          14          15          16          17          18          19
 IAtWgt=           1          12           1           1          12           1           1           1           1
 AtmWgt=   1.0078250  12.0000000   1.0078250   1.0078250  12.0000000   1.0078250   1.0078250   1.0078250   1.0078250
 NucSpn=           1           0           1           1           0           1           1           1           1
 AtZEff=  -0.0000000  -0.0000000  -0.0000000  -0.0000000  -0.0000000  -0.0000000  -0.0000000  -0.0000000  -0.0000000
 NQMom=    0.0000000   0.0000000   0.0000000   0.0000000   0.0000000   0.0000000   0.0000000   0.0000000   0.0000000
 NMagM=    2.7928460   0.0000000   2.7928460   2.7928460   0.0000000   2.7928460   2.7928460   2.7928460   2.7928460
 AtZNuc=   1.0000000   6.0000000   1.0000000   1.0000000   6.0000000   1.0000000   1.0000000   1.0000000   1.0000000
 Leave Link  101 at Mon Mar  6 10:21:46 2023, MaxMem=  1048576000 cpu:               0.1 elap:               0.1
 (Enter /ssoft/spack/external/gaussian/g16-C.01/avx2/g16/l103.exe)

 GradGradGradGradGradGradGradGradGradGradGradGradGradGradGradGradGradGrad
 Berny optimization.
 Initialization pass.
 Trust Radius=3.00D-01 FncErr=1.00D-07 GrdErr=1.00D-07 EigMax=2.50D+02 EigMin=1.00D-04
 Number of steps in this run=      2 maximum allowed number of steps=      2.
 GradGradGradGradGradGradGradGradGradGradGradGradGradGradGradGradGradGrad

 Leave Link  103 at Mon Mar  6 10:21:46 2023, MaxMem=  1048576000 cpu:               0.0 elap:               0.0
 (Enter /ssoft/spack/external/gaussian/g16-C.01/avx2/g16/l202.exe)
                          Input orientation:                          
 ---------------------------------------------------------------------
 Center     Atomic      Atomic             Coordinates (Angstroms)
 Number     Number       Type             X           Y           Z
 ---------------------------------------------------------------------
      1          8           0       -1.857418    0.554360    0.000000
      2         16           0        0.204718    6.449703   -1.262774
      3          8           0       -3.194529    2.305534   -0.037595
      4          7           0        0.404416    1.945040    0.000000
      5          1           0        0.758151    2.183539   -0.792570
      6          1           0        1.005045    2.131005    0.644518
      7          6           0       -2.067940    1.803803    0.042930
      8          6           0       -0.852770    2.714764    0.243543
      9          1           0       -0.845766    2.996447    1.161457
     10          6           0       -0.918802    3.979519   -0.605605
     11          1           0       -1.797591    4.362743   -0.552712
     12          6           0        0.111649    5.011719   -0.147154
     13          1           0       -0.119940    5.307654    0.736582
     14          1           0        0.973123    4.593232   -0.105959
     15          6           0        1.368837    5.851151   -2.452488
     16          1           0        1.034546    5.053228   -2.867450
     17          1           0       -0.744766    3.750862   -1.521703
     18          1           0        2.201529    5.659403   -2.015487
     19          1           0        1.506882    6.525755   -3.123236
 ---------------------------------------------------------------------
                    Distance matrix (angstroms):
                    1          2          3          4          5
     1  O    0.000000
     2  S    6.371975   0.000000
     3  O    2.203608   5.498188   0.000000
     4  N    2.655162   4.682571   3.617150   0.000000
     5  H    3.181759   4.327532   4.025984   0.900099   0.000000
     6  H    3.330902   4.788469   4.258187   0.900412   1.459088
     7  C    1.267782   5.334249   1.235889   2.476759   2.971372
     8  C    2.394990   4.163777   2.393813   1.494090   1.987661
     9  H    2.887249   4.348032   2.726127   2.004344   2.655483
    10  C    3.602703   2.792128   2.881630   2.501354   2.464279
    11  H    3.848746   2.978058   2.539466   3.316567   3.367236
    12  C    4.875134   1.822380   4.273904   3.084135   2.972058
    13  H    5.114215   2.325318   4.366368   3.482052   3.587401
    14  H    4.933120   2.318437   4.754741   2.710642   2.514810
    15  C    6.669289   1.768858   6.263180   4.711954   4.071811
    16  H    6.068404   2.283362   5.782990   4.275531   3.551990
    17  H    3.710956   2.872683   3.208253   2.626251   2.290610
    18  H    6.826324   2.275611   6.654166   4.592199   3.957334
    19  H    7.531977   2.272166   7.030982   5.652697   4.984721
                    6          7          8          9         10
     6  H    0.000000
     7  C    3.148366   0.000000
     8  C    1.988223   1.531905   0.000000
     9  H    2.107538   2.041375   0.960187   0.000000
    10  C    2.946353   2.544573   1.524801   2.023431   0.000000
    11  H    3.777404   2.641221   2.059744   2.389793   0.960171
    12  C    3.118238   3.882971   2.521657   2.586586   1.528871
    13  H    3.371226   4.068517   2.739199   2.459476   2.050267
    14  H    2.574256   4.129303   2.642855   2.732110   2.050774
    15  C    4.854202   5.866820   4.694790   5.110225   3.485295
    16  H    4.568826   5.352988   4.325350   4.898776   3.175588
    17  H    3.221535   2.826641   2.049697   2.789030   0.960108
    18  H    4.577858   6.109917   4.806543   5.144931   3.813953
    19  H    5.810476   6.715712   5.605963   6.029060   4.325012
                   11         12         13         14         15
    11  H    0.000000
    12  C    2.056902   0.000000
    13  H    2.317251   0.960313   0.000000
    14  H    2.815950   0.958627   1.554047   0.000000
    15  C    3.981304   2.756762   3.561182   2.691681   0.000000
    16  H    3.722336   2.872885   3.792969   2.800214   0.959492
    17  H    1.556208   2.052461   2.813159   2.380139   3.121681
    18  H    4.451292   2.877110   3.617573   2.508385   0.959746
    19  H    4.712299   3.618846   4.362169   3.622638   0.961275
                   16         17         18         19
    16  H    0.000000
    17  H    2.583242   0.000000
    18  H    1.566888   3.544997   0.000000
    19  H    1.567439   3.915975   1.568505   0.000000
 Stoichiometry    C5H10NO2S(1-)
 Framework group  C1[X(C5H10NO2S)]
 Deg. of freedom    51
 Full point group                 C1      NOp   1
 Largest Abelian subgroup         C1      NOp   1
 Largest concise Abelian subgroup C1      NOp   1
                         Standard orientation:                         
 ---------------------------------------------------------------------
 Center     Atomic      Atomic             Coordinates (Angstroms)
 Number     Number       Type             X           Y           Z
 ---------------------------------------------------------------------
      1          8           0        3.462568    0.449957   -0.466184
      2         16           0       -2.785778   -0.633256    0.155817
      3          8           0        2.612348   -1.575698   -0.293753
      4          7           0        1.255265    1.729736    0.268570
      5          1           0        0.653490    1.940850   -0.366627
      6          1           0        1.016254    2.142716    1.032155
      7          6           0        2.532247   -0.350896   -0.149315
      8          6           0        1.270412    0.250408    0.477535
      9          1           0        1.309376    0.092755    1.423890
     10          6           0       -0.008745   -0.408386   -0.027209
     11          1           0        0.095427   -1.362879   -0.031639
     12          6           0       -1.208159   -0.034437    0.844005
     13          1           0       -1.080748   -0.405611    1.720474
     14          1           0       -1.246545    0.919876    0.926333
     15          6           0       -3.185772    0.706154   -0.928086
     16          1           0       -2.491203    0.820564   -1.580091
     17          1           0       -0.175280   -0.119579   -0.927578
     18          1           0       -3.280314    1.512880   -0.416846
     19          1           0       -4.014100    0.511243   -1.375223
 ---------------------------------------------------------------------
 Rotational constants (GHZ):           3.0976242           0.5699943           0.5221567
 Leave Link  202 at Mon Mar  6 10:21:46 2023, MaxMem=  1048576000 cpu:               0.0 elap:               0.0
 (Enter /ssoft/spack/external/gaussian/g16-C.01/avx2/g16/l301.exe)
 Standard basis: def2SVP (5D, 7F)
 Ernie: Thresh=  0.10000D-02 Tol=  0.10000D-05 Strict=F.
 There are   189 symmetry adapted cartesian basis functions of A   symmetry.
 There are   180 symmetry adapted basis functions of A   symmetry.
   180 basis functions,   307 primitive gaussians,   189 cartesian basis functions
    40 alpha electrons       40 beta electrons
       nuclear repulsion energy       532.3507454242 Hartrees.
 IExCor= 1009 DFT=T Ex+Corr=PBE1PBE ExCW=0 ScaHFX=  0.250000
 ScaDFX=  0.750000  0.750000  1.000000  1.000000 ScalE2=  1.000000  1.000000
 IRadAn=      5 IRanWt=     -1 IRanGd=            0 ICorTp=0 IEmpDi=141
 NAtoms=   19 NActive=   19 NUniq=   19 SFac= 1.00D+00 NAtFMM=   60 NAOKFM=F Big=F
 Integral buffers will be    131072 words long.
 Raffenetti 2 integral format.
 Two-electron integral symmetry is turned on.
 R6Disp:  Grimme-D3(BJ) Dispersion energy=       -0.0163928120 Hartrees.
 Nuclear repulsion after empirical dispersion term =      532.3343526122 Hartrees.
 Leave Link  301 at Mon Mar  6 10:21:46 2023, MaxMem=  1048576000 cpu:               0.1 elap:               0.1
 (Enter /ssoft/spack/external/gaussian/g16-C.01/avx2/g16/l302.exe)
 NPDir=0 NMtPBC=     1 NCelOv=     1 NCel=       1 NClECP=     1 NCelD=      1
         NCelK=      1 NCelE2=     1 NClLst=     1 CellRange=     0.0.
 One-electron integrals computed using PRISM.
 One-electron integral symmetry used in STVInt
   1 Symmetry operations used in ECPInt.
 ECPInt:  NShTT=    3741 NPrTT=   13687 LenC2=    3621 LenP2D=   10316.
 LDataN:  DoStor=T MaxTD1= 4 Len=   56
 NBasis=   180 RedAO= T EigKep=  1.23D-03  NBF=   180
 NBsUse=   180 1.00D-06 EigRej= -1.00D+00 NBFU=   180
 Precomputing XC quadrature grid using
 IXCGrd= 4 IRadAn=           5 IRanWt=          -1 IRanGd=           0 AccXCQ= 0.00D+00.
 Generated NRdTot=       0 NPtTot=           0 NUsed=           0 NTot=          32
 NSgBfM=   189   189   189   189   189 MxSgAt=    19 MxSgA2=    19.
 Leave Link  302 at Mon Mar  6 10:21:46 2023, MaxMem=  1048576000 cpu:               0.4 elap:               0.4
 (Enter /ssoft/spack/external/gaussian/g16-C.01/avx2/g16/l303.exe)
 DipDrv:  MaxL=1.
 Leave Link  303 at Mon Mar  6 10:21:46 2023, MaxMem=  1048576000 cpu:               0.0 elap:               0.0
 (Enter /ssoft/spack/external/gaussian/g16-C.01/avx2/g16/l401.exe)
 ExpMin= 1.22D-01 ExpMax= 9.18D+03 ExpMxC= 1.38D+03 IAcc=3 IRadAn=         5 AccDes= 0.00D+00
 Harris functional with IExCor= 1009 and IRadAn=       5 diagonalized for initial guess.
 HarFok:  IExCor= 1009 AccDes= 0.00D+00 IRadAn=         5 IDoV= 1 UseB2=F ITyADJ=14
 ICtDFT=  3500011 ScaDFX=  1.000000  1.000000  1.000000  1.000000
 FoFCou: FMM=F IPFlag=           0 FMFlag=      100000 FMFlg1=           0
         NFxFlg=           0 DoJE=T BraDBF=F KetDBF=T FulRan=T
         wScrn=  0.000000 ICntrl=       500 IOpCl=  0 I1Cent=   200000004 NGrid=           0
         NMat0=    1 NMatS0=      1 NMatT0=    0 NMatD0=    1 NMtDS0=    0 NMtDT0=    0
 Petite list used in FoFCou.
 Harris En= -799.167512942400    
 JPrj=0 DoOrth=F DoCkMO=F.
 Leave Link  401 at Mon Mar  6 10:21:49 2023, MaxMem=  1048576000 cpu:               2.6 elap:               2.6
 (Enter /ssoft/spack/external/gaussian/g16-C.01/avx2/g16/l502.exe)
 Keep R1 ints in memory in canonical form, NReq=136121333.
 FoFCou: FMM=F IPFlag=           0 FMFlag=           0 FMFlg1=           0
         NFxFlg=           0 DoJE=F BraDBF=F KetDBF=F FulRan=T
         wScrn=  0.000000 ICntrl=       600 IOpCl=  0 I1Cent=           0 NGrid=           0
         NMat0=    1 NMatS0=  16290 NMatT0=    0 NMatD0=    1 NMtDS0=    0 NMtDT0=    0
 Symmetry not used in FoFCou.
 Two-electron integral symmetry not used.
 Closed shell SCF:
 Using DIIS extrapolation, IDIIS=  1040.
 NGot=  1048576000 LenX=   915810637 LenY=   915774475
 Requested convergence on RMS density matrix=1.00D-08 within 128 cycles.
 Requested convergence on MAX density matrix=1.00D-06.
 Requested convergence on             energy=1.00D-06.
 No special actions if energy rises.
 Integral accuracy reduced to 1.0D-05 until final iterations.

 Cycle   1  Pass 0  IDiag  1:
 E= -798.398610737390    
 DIIS: error= 4.58D-02 at cycle   1 NSaved=   1.
 NSaved= 1 IEnMin= 1 EnMin= -798.398610737390     IErMin= 1 ErrMin= 4.58D-02
 ErrMax= 4.58D-02  0.00D+00 EMaxC= 1.00D-01 BMatC= 4.40D-01 BMatP= 4.40D-01
 IDIUse=3 WtCom= 5.42D-01 WtEn= 4.58D-01
 Coeff-Com:  0.100D+01
 Coeff-En:   0.100D+01
 Coeff:      0.100D+01
 Gap=     0.545 Goal=   None    Shift=    0.000
 GapD=    0.545 DampG=2.000 DampE=0.500 DampFc=1.0000 IDamp=-1.
 RMSDP=6.42D-02 MaxDP=6.26D+00              OVMax= 8.99D-01

 Cycle   2  Pass 0  IDiag  1:
 E= -797.020298920939     Delta-E=        1.378311816452 Rises=F Damp=F
 DIIS: error= 8.21D-02 at cycle   2 NSaved=   2.
 NSaved= 2 IEnMin= 1 EnMin= -798.398610737390     IErMin= 1 ErrMin= 4.58D-02
 ErrMax= 8.21D-02  0.00D+00 EMaxC= 1.00D-01 BMatC= 1.37D+00 BMatP= 4.40D-01
 IDIUse=2 WtCom= 0.00D+00 WtEn= 1.00D+00
 Coeff-En:   0.808D+00 0.192D+00
 Coeff:      0.808D+00 0.192D+00
 Gap=    -0.107 Goal=   None    Shift=    0.000
 RMSDP=6.34D-02 MaxDP=6.25D+00 DE= 1.38D+00 OVMax= 7.03D-01

 Cycle   3  Pass 0  IDiag  1:
 E= -798.663138997827     Delta-E=       -1.642840076888 Rises=F Damp=F
 DIIS: error= 1.82D-02 at cycle   3 NSaved=   3.
 NSaved= 3 IEnMin= 3 EnMin= -798.663138997827     IErMin= 3 ErrMin= 1.82D-02
 ErrMax= 1.82D-02  0.00D+00 EMaxC= 1.00D-01 BMatC= 1.55D-01 BMatP= 4.40D-01
 IDIUse=3 WtCom= 8.18D-01 WtEn= 1.82D-01
 Coeff-Com:  0.401D+00 0.104D+00 0.495D+00
 Coeff-En:   0.222D+00 0.000D+00 0.778D+00
 Coeff:      0.368D+00 0.848D-01 0.547D+00
 Gap=     0.199 Goal=   None    Shift=    0.000
 RMSDP=2.95D-03 MaxDP=6.59D-02 DE=-1.64D+00 OVMax= 1.02D-01

 Cycle   4  Pass 0  IDiag  1:
 E= -798.793759029818     Delta-E=       -0.130620031991 Rises=F Damp=F
 DIIS: error= 9.91D-03 at cycle   4 NSaved=   4.
 NSaved= 4 IEnMin= 4 EnMin= -798.793759029818     IErMin= 4 ErrMin= 9.91D-03
 ErrMax= 9.91D-03  0.00D+00 EMaxC= 1.00D-01 BMatC= 1.82D-02 BMatP= 1.55D-01
 IDIUse=3 WtCom= 9.01D-01 WtEn= 9.91D-02
 Coeff-Com:  0.135D+00 0.223D-01 0.297D+00 0.545D+00
 Coeff-En:   0.000D+00 0.000D+00 0.000D+00 0.100D+01
 Coeff:      0.122D+00 0.201D-01 0.268D+00 0.590D+00
 Gap=     0.169 Goal=   None    Shift=    0.000
 RMSDP=1.36D-03 MaxDP=3.88D-02 DE=-1.31D-01 OVMax= 7.17D-02

 Cycle   5  Pass 0  IDiag  1:
 E= -798.804650930219     Delta-E=       -0.010891900401 Rises=F Damp=F
 DIIS: error= 6.00D-03 at cycle   5 NSaved=   5.
 NSaved= 5 IEnMin= 5 EnMin= -798.804650930219     IErMin= 5 ErrMin= 6.00D-03
 ErrMax= 6.00D-03  0.00D+00 EMaxC= 1.00D-01 BMatC= 5.52D-03 BMatP= 1.82D-02
 IDIUse=3 WtCom= 9.40D-01 WtEn= 6.00D-02
 Coeff-Com:  0.255D-01 0.409D-02 0.948D-01 0.393D+00 0.482D+00
 Coeff-En:   0.000D+00 0.000D+00 0.000D+00 0.242D+00 0.758D+00
 Coeff:      0.240D-01 0.384D-02 0.891D-01 0.384D+00 0.499D+00
 Gap=     0.168 Goal=   None    Shift=    0.000
 RMSDP=5.50D-04 MaxDP=1.71D-02 DE=-1.09D-02 OVMax= 3.31D-02

 Cycle   6  Pass 0  IDiag  1:
 E= -798.808796035375     Delta-E=       -0.004145105156 Rises=F Damp=F
 DIIS: error= 8.23D-04 at cycle   6 NSaved=   6.
 NSaved= 6 IEnMin= 6 EnMin= -798.808796035375     IErMin= 6 ErrMin= 8.23D-04
 ErrMax= 8.23D-04  0.00D+00 EMaxC= 1.00D-01 BMatC= 2.00D-04 BMatP= 5.52D-03
 IDIUse=3 WtCom= 9.92D-01 WtEn= 8.23D-03
 Coeff-Com: -0.305D-04-0.859D-03 0.103D-01 0.106D+00 0.235D+00 0.650D+00
 Coeff-En:   0.000D+00 0.000D+00 0.000D+00 0.000D+00 0.000D+00 0.100D+01
 Coeff:     -0.302D-04-0.852D-03 0.102D-01 0.105D+00 0.233D+00 0.652D+00
 Gap=     0.165 Goal=   None    Shift=    0.000
 RMSDP=1.37D-04 MaxDP=3.84D-03 DE=-4.15D-03 OVMax= 4.25D-03

 Cycle   7  Pass 0  IDiag  1:
 E= -798.808973490282     Delta-E=       -0.000177454906 Rises=F Damp=F
 DIIS: error= 1.15D-04 at cycle   7 NSaved=   7.
 NSaved= 7 IEnMin= 7 EnMin= -798.808973490282     IErMin= 7 ErrMin= 1.15D-04
 ErrMax= 1.15D-04  0.00D+00 EMaxC= 1.00D-01 BMatC= 5.46D-06 BMatP= 2.00D-04
 IDIUse=3 WtCom= 9.99D-01 WtEn= 1.15D-03
 Coeff-Com: -0.251D-03-0.324D-03-0.388D-04 0.171D-01 0.580D-01 0.234D+00
 Coeff-Com:  0.692D+00
 Coeff-En:   0.000D+00 0.000D+00 0.000D+00 0.000D+00 0.000D+00 0.000D+00
 Coeff-En:   0.100D+01
 Coeff:     -0.251D-03-0.323D-03-0.388D-04 0.171D-01 0.579D-01 0.233D+00
 Coeff:      0.692D+00
 Gap=     0.166 Goal=   None    Shift=    0.000
 RMSDP=2.59D-05 MaxDP=6.62D-04 DE=-1.77D-04 OVMax= 5.61D-04

 Cycle   8  Pass 0  IDiag  1:
 E= -798.808978637766     Delta-E=       -0.000005147484 Rises=F Damp=F
 DIIS: error= 3.54D-05 at cycle   8 NSaved=   8.
 NSaved= 8 IEnMin= 8 EnMin= -798.808978637766     IErMin= 8 ErrMin= 3.54D-05
 ErrMax= 3.54D-05  0.00D+00 EMaxC= 1.00D-01 BMatC= 6.01D-07 BMatP= 5.46D-06
 IDIUse=1 WtCom= 1.00D+00 WtEn= 0.00D+00
 Coeff-Com:  0.697D-04-0.120D-03-0.402D-03 0.120D-02 0.112D-01 0.610D-01
 Coeff-Com:  0.301D+00 0.626D+00
 Coeff:      0.697D-04-0.120D-03-0.402D-03 0.120D-02 0.112D-01 0.610D-01
 Coeff:      0.301D+00 0.626D+00
 Gap=     0.166 Goal=   None    Shift=    0.000
 RMSDP=6.61D-06 MaxDP=2.07D-04 DE=-5.15D-06 OVMax= 1.95D-04

 Initial convergence to 1.0D-05 achieved.  Increase integral accuracy.
 Cycle   9  Pass 1  IDiag  1:
 E= -798.808951370348     Delta-E=        0.000027267417 Rises=F Damp=F
 DIIS: error= 1.05D-05 at cycle   1 NSaved=   1.
 NSaved= 1 IEnMin= 1 EnMin= -798.808951370348     IErMin= 1 ErrMin= 1.05D-05
 ErrMax= 1.05D-05  0.00D+00 EMaxC= 1.00D-01 BMatC= 5.05D-08 BMatP= 5.05D-08
 IDIUse=1 WtCom= 1.00D+00 WtEn= 0.00D+00
 Coeff-Com:  0.100D+01
 Coeff:      0.100D+01
 Gap=     0.166 Goal=   None    Shift=    0.000
 RMSDP=6.61D-06 MaxDP=2.07D-04 DE= 2.73D-05 OVMax= 1.09D-04

 Cycle  10  Pass 1  IDiag  1:
 E= -798.808951353695     Delta-E=        0.000000016653 Rises=F Damp=F
 DIIS: error= 1.33D-05 at cycle   2 NSaved=   2.
 NSaved= 2 IEnMin= 1 EnMin= -798.808951370348     IErMin= 1 ErrMin= 1.05D-05
 ErrMax= 1.33D-05  0.00D+00 EMaxC= 1.00D-01 BMatC= 7.23D-08 BMatP= 5.05D-08
 IDIUse=1 WtCom= 1.00D+00 WtEn= 0.00D+00
 Coeff-Com:  0.547D+00 0.453D+00
 Coeff:      0.547D+00 0.453D+00
 Gap=     0.166 Goal=   None    Shift=    0.000
 RMSDP=1.89D-06 MaxDP=5.03D-05 DE= 1.67D-08 OVMax= 5.93D-05

 Cycle  11  Pass 1  IDiag  1:
 E= -798.808951427903     Delta-E=       -0.000000074207 Rises=F Damp=F
 DIIS: error= 1.89D-06 at cycle   3 NSaved=   3.
 NSaved= 3 IEnMin= 3 EnMin= -798.808951427903     IErMin= 3 ErrMin= 1.89D-06
 ErrMax= 1.89D-06  0.00D+00 EMaxC= 1.00D-01 BMatC= 8.08D-10 BMatP= 5.05D-08
 IDIUse=1 WtCom= 1.00D+00 WtEn= 0.00D+00
 Coeff-Com:  0.136D+00 0.147D+00 0.716D+00
 Coeff:      0.136D+00 0.147D+00 0.716D+00
 Gap=     0.166 Goal=   None    Shift=    0.000
 RMSDP=3.17D-07 MaxDP=9.49D-06 DE=-7.42D-08 OVMax= 1.00D-05

 Cycle  12  Pass 1  IDiag  1:
 E= -798.808951428411     Delta-E=       -0.000000000509 Rises=F Damp=F
 DIIS: error= 1.28D-06 at cycle   4 NSaved=   4.
 NSaved= 4 IEnMin= 4 EnMin= -798.808951428411     IErMin= 4 ErrMin= 1.28D-06
 ErrMax= 1.28D-06  0.00D+00 EMaxC= 1.00D-01 BMatC= 2.88D-10 BMatP= 8.08D-10
 IDIUse=1 WtCom= 1.00D+00 WtEn= 0.00D+00
 Coeff-Com:  0.525D-02 0.229D-01 0.393D+00 0.579D+00
 Coeff:      0.525D-02 0.229D-01 0.393D+00 0.579D+00
 Gap=     0.166 Goal=   None    Shift=    0.000
 RMSDP=1.29D-07 MaxDP=4.21D-06 DE=-5.09D-10 OVMax= 5.30D-06

 Cycle  13  Pass 1  IDiag  1:
 E= -798.808951428616     Delta-E=       -0.000000000204 Rises=F Damp=F
 DIIS: error= 3.69D-07 at cycle   5 NSaved=   5.
 NSaved= 5 IEnMin= 5 EnMin= -798.808951428616     IErMin= 5 ErrMin= 3.69D-07
 ErrMax= 3.69D-07  0.00D+00 EMaxC= 1.00D-01 BMatC= 3.20D-11 BMatP= 2.88D-10
 IDIUse=1 WtCom= 1.00D+00 WtEn= 0.00D+00
 Coeff-Com: -0.112D-01-0.199D-02 0.154D+00 0.325D+00 0.535D+00
 Coeff:     -0.112D-01-0.199D-02 0.154D+00 0.325D+00 0.535D+00
 Gap=     0.166 Goal=   None    Shift=    0.000
 RMSDP=5.44D-08 MaxDP=1.29D-06 DE=-2.04D-10 OVMax= 2.15D-06

 Cycle  14  Pass 1  IDiag  1:
 E= -798.808951428637     Delta-E=       -0.000000000022 Rises=F Damp=F
 DIIS: error= 1.62D-07 at cycle   6 NSaved=   6.
 NSaved= 6 IEnMin= 6 EnMin= -798.808951428637     IErMin= 6 ErrMin= 1.62D-07
 ErrMax= 1.62D-07  0.00D+00 EMaxC= 1.00D-01 BMatC= 4.24D-12 BMatP= 3.20D-11
 IDIUse=1 WtCom= 1.00D+00 WtEn= 0.00D+00
 Coeff-Com: -0.679D-02-0.287D-02 0.586D-01 0.143D+00 0.323D+00 0.484D+00
 Coeff:     -0.679D-02-0.287D-02 0.586D-01 0.143D+00 0.323D+00 0.484D+00
 Gap=     0.166 Goal=   None    Shift=    0.000
 RMSDP=1.69D-08 MaxDP=5.77D-07 DE=-2.16D-11 OVMax= 1.11D-06

 Cycle  15  Pass 1  IDiag  1:
 E= -798.808951428646     Delta-E=       -0.000000000009 Rises=F Damp=F
 DIIS: error= 4.74D-08 at cycle   7 NSaved=   7.
 NSaved= 7 IEnMin= 7 EnMin= -798.808951428646     IErMin= 7 ErrMin= 4.74D-08
 ErrMax= 4.74D-08  0.00D+00 EMaxC= 1.00D-01 BMatC= 4.83D-13 BMatP= 4.24D-12
 IDIUse=1 WtCom= 1.00D+00 WtEn= 0.00D+00
 Coeff-Com: -0.234D-02-0.148D-02 0.106D-01 0.335D-01 0.103D+00 0.291D+00
 Coeff-Com:  0.566D+00
 Coeff:     -0.234D-02-0.148D-02 0.106D-01 0.335D-01 0.103D+00 0.291D+00
 Coeff:      0.566D+00
 Gap=     0.166 Goal=   None    Shift=    0.000
 RMSDP=6.84D-09 MaxDP=2.14D-07 DE=-9.09D-12 OVMax= 1.71D-07

 SCF Done:  E(RPBE1PBE) =  -798.808951429     A.U. after   15 cycles
            NFock= 15  Conv=0.68D-08     -V/T= 2.0024
 KE= 7.969133872330D+02 PE=-2.962957481057D+03 EE= 8.349007897827D+02
 Leave Link  502 at Mon Mar  6 10:22:34 2023, MaxMem=  1048576000 cpu:              44.6 elap:              45.0
 (Enter /ssoft/spack/external/gaussian/g16-C.01/avx2/g16/l801.exe)
 DoSCS=F DFT=T ScalE2(SS,OS)=  1.000000  1.000000
 Range of M.O.s used for correlation:     1   180
 NBasis=   180 NAE=    40 NBE=    40 NFC=     0 NFV=     0
 NROrb=    180 NOA=    40 NOB=    40 NVA=   140 NVB=   140
 Leave Link  801 at Mon Mar  6 10:22:34 2023, MaxMem=  1048576000 cpu:               0.0 elap:               0.0
 (Enter /ssoft/spack/external/gaussian/g16-C.01/avx2/g16/l1101.exe)
 Using compressed storage, NAtomX=    19.
 Will process     20 centers per pass.
   1 Symmetry operations used in ECPInt.
 ECPInt:  NShTT=    3741 NPrTT=   13687 LenC2=    3621 LenP2D=   10316.
 LDataN:  DoStor=T MaxTD1= 5 Len=  102
 R6Disp: Adding Grimme-D3(BJ) dispersion energy 1st derivatives to the gradient.
 Leave Link 1101 at Mon Mar  6 10:22:34 2023, MaxMem=  1048576000 cpu:               0.2 elap:               0.2
 (Enter /ssoft/spack/external/gaussian/g16-C.01/avx2/g16/l1102.exe)
 Symmetrizing basis deriv contribution to polar:
 IMax=3 JMax=2 DiffMx= 0.00D+00
 Leave Link 1102 at Mon Mar  6 10:22:34 2023, MaxMem=  1048576000 cpu:               0.0 elap:               0.0
 (Enter /ssoft/spack/external/gaussian/g16-C.01/avx2/g16/l1110.exe)
 Forming Gx(P) for the SCF density, NAtomX=    19.
 Integral derivatives from FoFJK, PRISM(SPDF).
 Do as many integral derivatives as possible in FoFJK.
 G2DrvN: MDV=    1048573907.
 G2DrvN: will do    20 centers at a time, making    1 passes.
 Calling FoFCou, ICntrl=  3107 FMM=F I1Cent=   0 AccDes= 0.00D+00.
 FoFJK:  IHMeth= 1 ICntrl=    3107 DoSepK=F KAlg= 0 I1Cent=           0 FoldK=F
 IRaf=         0 NMat=       1 IRICut=       1 DoRegI=T DoRafI=F ISym2E= 0 IDoP0=0 IntGTp=1.
 FoFCou: FMM=F IPFlag=           0 FMFlag=      100000 FMFlg1=           0
         NFxFlg=           0 DoJE=F BraDBF=F KetDBF=F FulRan=T
         wScrn=  0.000000 ICntrl=      3107 IOpCl=  0 I1Cent=           0 NGrid=           0
         NMat0=    1 NMatS0=      1 NMatT0=    0 NMatD0=    1 NMtDS0=    0 NMtDT0=    0
 Symmetry not used in FoFCou.
 End of G2Drv F.D. properties file   721 does not exist.
 End of G2Drv F.D. properties file   722 does not exist.
 End of G2Drv F.D. properties file   788 does not exist.
 Leave Link 1110 at Mon Mar  6 10:24:42 2023, MaxMem=  1048576000 cpu:             126.8 elap:             127.4
 (Enter /ssoft/spack/external/gaussian/g16-C.01/avx2/g16/l1002.exe)
 Minotr:  Closed shell wavefunction.
          IDoAtm=1111111111111111111
          Direct CPHF calculation.
          Differentiating once with respect to electric field.
                with respect to dipole field.
          Differentiating once with respect to nuclear coordinates.
          Requested convergence is 1.0D-08 RMS, and 1.0D-07 maximum.
          Secondary convergence is 1.0D-12 RMS, and 1.0D-12 maximum.
          NewPWx=T KeepS1=F KeepF1=F KeepIn=T MapXYZ=F SortEE=F KeepMc=T.
         5656 words used for storage of precomputed grid.
 Keep R1 ints in memory in canonical form, NReq=136129329.
 FoFCou: FMM=F IPFlag=           0 FMFlag=           0 FMFlg1=           0
         NFxFlg=           0 DoJE=F BraDBF=F KetDBF=F FulRan=T
         wScrn=  0.000000 ICntrl=       600 IOpCl=  0 I1Cent=           0 NGrid=           0
         NMat0=    1 NMatS0=  16290 NMatT0=    0 NMatD0=    1 NMtDS0=    0 NMtDT0=    0
 Symmetry not used in FoFCou.
 Two-electron integral symmetry not used.
          MDV=    1048576000 using IRadAn=       1.
          Solving linear equations simultaneously, MaxMat=       0.
          There are    60 degrees of freedom in the 1st order CPHF.  IDoFFX=6 NUNeed=     3.
     57 vectors produced by pass  0 Test12= 9.33D-15 1.67D-09 XBig12= 6.57D+01 2.49D+00.
 AX will form    57 AO Fock derivatives at one time.
     57 vectors produced by pass  1 Test12= 9.33D-15 1.67D-09 XBig12= 9.68D+00 5.49D-01.
     57 vectors produced by pass  2 Test12= 9.33D-15 1.67D-09 XBig12= 1.09D-01 4.73D-02.
     57 vectors produced by pass  3 Test12= 9.33D-15 1.67D-09 XBig12= 4.54D-04 3.74D-03.
     57 vectors produced by pass  4 Test12= 9.33D-15 1.67D-09 XBig12= 8.17D-07 1.09D-04.
     46 vectors produced by pass  5 Test12= 9.33D-15 1.67D-09 XBig12= 9.36D-10 4.27D-06.
     11 vectors produced by pass  6 Test12= 9.33D-15 1.67D-09 XBig12= 8.93D-13 9.98D-08.
      2 vectors produced by pass  7 Test12= 9.33D-15 1.67D-09 XBig12= 8.16D-16 2.96D-09.
 InvSVY:  IOpt=1 It=  1 EMax= 5.33D-15
 Solved reduced A of dimension   344 with    60 vectors.
 FullF1:  Do perturbations      1 to       3.
 Isotropic polarizability for W=    0.000000       76.27 Bohr**3.
 End of Minotr F.D. properties file   721 does not exist.
 End of Minotr F.D. properties file   722 does not exist.
 End of Minotr F.D. properties file   788 does not exist.
 Leave Link 1002 at Mon Mar  6 10:26:42 2023, MaxMem=  1048576000 cpu:             119.6 elap:             120.4
 (Enter /ssoft/spack/external/gaussian/g16-C.01/avx2/g16/l601.exe)
 Copying SCF densities to generalized density rwf, IOpCl= 0 IROHF=0.

 **********************************************************************

            Population analysis using the SCF Density.

 **********************************************************************

 Orbital symmetries:
       Occupied  (A) (A) (A) (A) (A) (A) (A) (A) (A) (A) (A) (A)
                 (A) (A) (A) (A) (A) (A) (A) (A) (A) (A) (A) (A)
                 (A) (A) (A) (A) (A) (A) (A) (A) (A) (A) (A) (A)
                 (A) (A) (A) (A)
       Virtual   (A) (A) (A) (A) (A) (A) (A) (A) (A) (A) (A) (A)
                 (A) (A) (A) (A) (A) (A) (A) (A) (A) (A) (A) (A)
                 (A) (A) (A) (A) (A) (A) (A) (A) (A) (A) (A) (A)
                 (A) (A) (A) (A) (A) (A) (A) (A) (A) (A) (A) (A)
                 (A) (A) (A) (A) (A) (A) (A) (A) (A) (A) (A) (A)
                 (A) (A) (A) (A) (A) (A) (A) (A) (A) (A) (A) (A)
                 (A) (A) (A) (A) (A) (A) (A) (A) (A) (A) (A) (A)
                 (A) (A) (A) (A) (A) (A) (A) (A) (A) (A) (A) (A)
                 (A) (A) (A) (A) (A) (A) (A) (A) (A) (A) (A) (A)
                 (A) (A) (A) (A) (A) (A) (A) (A) (A) (A) (A) (A)
                 (A) (A) (A) (A) (A) (A) (A) (A) (A) (A) (A) (A)
                 (A) (A) (A) (A) (A) (A) (A) (A)
 The electronic state is 1-A.
 Alpha  occ. eigenvalues --  -88.88050 -18.91972 -18.90640 -14.19040 -10.12349
 Alpha  occ. eigenvalues --  -10.11404 -10.08357 -10.07283 -10.05929  -7.88234
 Alpha  occ. eigenvalues --   -5.82502  -5.82110  -5.81419  -0.81681  -0.76865
 Alpha  occ. eigenvalues --   -0.73886  -0.70903  -0.67642  -0.59561  -0.52511
 Alpha  occ. eigenvalues --   -0.49840  -0.40188  -0.38548  -0.37699  -0.37118
 Alpha  occ. eigenvalues --   -0.33238  -0.31538  -0.29083  -0.27330  -0.25582
 Alpha  occ. eigenvalues --   -0.23841  -0.21302  -0.21115  -0.17623  -0.16339
 Alpha  occ. eigenvalues --   -0.12383  -0.09833  -0.03001  -0.02724  -0.00246
 Alpha virt. eigenvalues --    0.16401   0.17687   0.20949   0.22576   0.22941
 Alpha virt. eigenvalues --    0.23179   0.24997   0.27746   0.29901   0.30104
 Alpha virt. eigenvalues --    0.31971   0.32909   0.34563   0.36575   0.41113
 Alpha virt. eigenvalues --    0.42064   0.46032   0.48065   0.51489   0.52012
 Alpha virt. eigenvalues --    0.53106   0.56976   0.59796   0.63456   0.66408
 Alpha virt. eigenvalues --    0.67242   0.68762   0.74245   0.76281   0.77409
 Alpha virt. eigenvalues --    0.78899   0.79374   0.80964   0.81017   0.81708
 Alpha virt. eigenvalues --    0.83316   0.84574   0.85671   0.86187   0.86785
 Alpha virt. eigenvalues --    0.87748   0.88823   0.89326   0.90040   0.91667
 Alpha virt. eigenvalues --    0.92191   0.92732   0.94594   0.95803   0.97142
 Alpha virt. eigenvalues --    0.99176   1.03250   1.04177   1.06090   1.07931
 Alpha virt. eigenvalues --    1.13138   1.14929   1.15865   1.19028   1.20438
 Alpha virt. eigenvalues --    1.24431   1.27273   1.30793   1.31169   1.33324
 Alpha virt. eigenvalues --    1.37275   1.39479   1.40716   1.43590   1.45300
 Alpha virt. eigenvalues --    1.47519   1.51435   1.55670   1.58994   1.64996
 Alpha virt. eigenvalues --    1.69090   1.72707   1.77946   1.84818   1.86215
 Alpha virt. eigenvalues --    1.92827   1.93731   1.95788   1.96497   1.97399
 Alpha virt. eigenvalues --    1.98054   1.99267   2.01501   2.02020   2.04018
 Alpha virt. eigenvalues --    2.05001   2.09891   2.12141   2.18763   2.20038
 Alpha virt. eigenvalues --    2.20439   2.23476   2.24345   2.27980   2.30138
 Alpha virt. eigenvalues --    2.32971   2.37574   2.44838   2.45913   2.48400
 Alpha virt. eigenvalues --    2.53393   2.56145   2.59486   2.62794   2.67060
 Alpha virt. eigenvalues --    2.71371   2.72342   2.74083   2.76635   2.84338
 Alpha virt. eigenvalues --    2.87198   2.93036   2.93775   2.95935   2.97441
 Alpha virt. eigenvalues --    3.02786   3.08850   3.12443   3.16664   3.22936
 Alpha virt. eigenvalues --    3.29326   3.30354   3.31918   3.33556   3.36323
 Alpha virt. eigenvalues --    3.38608   3.41718   3.45773   3.49904   3.52022
 Alpha virt. eigenvalues --    3.61652   3.66638   3.73406   3.88398   3.94627
     Molecular Orbital Coefficients:
                          36        37        38        39        40
                           O         O         O         O         O
     Eigenvalues --    -0.12383  -0.09833  -0.03001  -0.02724  -0.00246
   1 1   O  1S         -0.00127   0.01188  -0.00049  -0.00075  -0.00331
   2        2S         -0.00367   0.02306   0.00133  -0.00081  -0.00680
   3        3S          0.00134   0.04966  -0.05506  -0.00545  -0.04721
   4        4PX        -0.01432  -0.03301   0.30670   0.15329  -0.21561
   5        4PY         0.03637   0.03085  -0.10829  -0.01562   0.46713
   6        4PZ        -0.02885   0.00792  -0.10686   0.43829   0.11605
   7        5PX        -0.00963  -0.02057   0.23810   0.12852  -0.15364
   8        5PY         0.02587  -0.00167  -0.06205  -0.01507   0.34766
   9        5PZ        -0.01805   0.00496  -0.08027   0.35103   0.08318
  10        6D 0       -0.00045   0.00071   0.00150   0.00713   0.00199
  11        6D+1        0.00086  -0.00054   0.00319  -0.00975  -0.00476
  12        6D-1        0.00147  -0.00036   0.00123  -0.00817   0.00139
  13        6D+2        0.00096   0.00320  -0.00671  -0.00472   0.01249
  14        6D-2       -0.00089   0.00177  -0.00331  -0.00255  -0.00511
  15 2   S  1S          0.00019   0.00146   0.00148  -0.00025  -0.00055
  16        2S          0.00150   0.00968   0.00982  -0.00154  -0.00367
  17        3S         -0.00817  -0.01984  -0.01639  -0.00127   0.00435
  18        4S          0.00462   0.00925  -0.01783   0.00847   0.02341
  19        5PX        -0.12335  -0.03641  -0.02373   0.00256   0.01009
  20        5PY         0.10539   0.02702  -0.00051  -0.00003   0.00099
  21        5PZ         0.17515   0.04084   0.00412  -0.00028  -0.00097
  22        6PX        -0.21635  -0.06498  -0.04177   0.00337   0.01766
  23        6PY         0.18369   0.04723  -0.00107  -0.00033   0.00190
  24        6PZ         0.30628   0.07098   0.00681  -0.00010  -0.00173
  25        7PX        -0.33459  -0.09358  -0.07841   0.00911   0.04195
  26        7PY         0.28129   0.08266  -0.00059   0.00321   0.00761
  27        7PZ         0.46238   0.11688   0.01508  -0.00488  -0.00141
  28        8D 0       -0.00497  -0.00164  -0.00283   0.00024   0.00162
  29        8D+1        0.00057  -0.00004  -0.00122   0.00050   0.00115
  30        8D-1        0.00631  -0.00152  -0.00122  -0.00062   0.00059
  31        8D+2       -0.00580  -0.00010   0.00309  -0.00053  -0.00184
  32        8D-2       -0.00470  -0.00556  -0.00220   0.00034   0.00039
  33 3   O  1S         -0.00094   0.00031  -0.00112   0.00054   0.01362
  34        2S         -0.00104  -0.00232   0.00462  -0.00072   0.02759
  35        3S         -0.00664   0.01295  -0.07936   0.01715   0.10040
  36        4PX        -0.00694  -0.17786   0.38391  -0.17472   0.32019
  37        4PY         0.03375  -0.04645  -0.06506   0.04753   0.15909
  38        4PZ        -0.03080   0.03048  -0.20076  -0.38237  -0.10323
  39        5PX        -0.00563  -0.11127   0.27830  -0.14448   0.25064
  40        5PY         0.02032  -0.02493  -0.07329   0.04501   0.13453
  41        5PZ        -0.01853   0.01612  -0.15348  -0.31562  -0.08096
  42        6D 0       -0.00069   0.00045   0.00078  -0.00426  -0.00075
  43        6D+1        0.00006  -0.00108   0.00180   0.00190   0.00307
  44        6D-1       -0.00143   0.00084  -0.00524  -0.01114  -0.00248
  45        6D+2       -0.00110   0.00209   0.00097  -0.00040  -0.00549
  46        6D-2       -0.00074  -0.00662   0.00890  -0.00536   0.00808
  47 4   N  1S          0.02165  -0.06962  -0.01938   0.00365  -0.03037
  48        2S          0.04816  -0.15771  -0.03138   0.01273  -0.07122
  49        3S          0.04668  -0.11838  -0.14960  -0.01547  -0.10812
  50        4PX        -0.13058   0.45088   0.10330  -0.01713   0.09793
  51        4PY        -0.04728   0.17149  -0.00819  -0.00665  -0.00847
  52        4PZ         0.04514  -0.13329  -0.03642   0.01506  -0.02331
  53        5PX         0.10221  -0.35629  -0.11659   0.00719  -0.04909
  54        5PY         0.04598  -0.18985   0.03084   0.03023  -0.00801
  55        5PZ        -0.03389   0.10520   0.03291  -0.00856   0.00654
  56        6D 0        0.00175  -0.00583  -0.00107  -0.00037  -0.00150
  57        6D+1        0.00290  -0.00751  -0.00112   0.00164  -0.00313
  58        6D-1       -0.00048  -0.00235   0.00392  -0.00052   0.00063
  59        6D+2       -0.00357   0.01390   0.00184   0.00023   0.00598
  60        6D-2       -0.00298   0.00615  -0.00423   0.00015  -0.00052
  61 5   H  1S         -0.00979   0.06594   0.01955   0.01230   0.01830
  62        2S          0.01339   0.00657  -0.00409  -0.01521   0.03864
  63        3PX         0.00584  -0.02050  -0.00466   0.00065  -0.00596
  64        3PY         0.00210  -0.00686   0.00027  -0.00117   0.00046
  65        3PZ        -0.00403   0.01414   0.00281  -0.00167   0.00552
  66 6   H  1S         -0.02254   0.05572   0.04618  -0.01797   0.02268
  67        2S         -0.01383   0.01038   0.02700  -0.00567   0.04528
  68        3PX         0.00701  -0.02460  -0.00460   0.00108  -0.00857
  69        3PY         0.00285  -0.01001   0.00054   0.00034  -0.00057
  70        3PZ         0.00010  -0.00020  -0.00048   0.00046  -0.00133
  71 7   C  1S         -0.00023  -0.02676  -0.00156   0.00040  -0.00382
  72        2S         -0.00123   0.05827   0.02121   0.00165   0.00513
  73        3S          0.00679   0.16828  -0.08835   0.01976   0.08301
  74        4PX        -0.01624  -0.09904  -0.11354   0.01680  -0.02383
  75        4PY        -0.01853   0.05831   0.02988  -0.00733  -0.02895
  76        4PZ        -0.02722   0.02735   0.04971   0.02051   0.00491
  77        5PX        -0.01470  -0.15525   0.18929  -0.00723  -0.03772
  78        5PY         0.00094   0.04446  -0.10042   0.01580   0.16745
  79        5PZ        -0.02459   0.05322  -0.08551   0.03178   0.03154
  80        6D 0        0.00132   0.00014   0.00805  -0.00756  -0.00349
  81        6D+1       -0.00101   0.00071  -0.01152   0.01799   0.01065
  82        6D-1        0.00178  -0.00151   0.01691   0.04190   0.01000
  83        6D+2       -0.00501  -0.00226   0.02953   0.00988  -0.03342
  84        6D-2       -0.00099   0.01069  -0.03971   0.01860  -0.01963
  85 8   C  1S          0.01376   0.00752  -0.05819   0.00301   0.00546
  86        2S         -0.02889  -0.01045   0.13420   0.00652  -0.00975
  87        3S         -0.09860  -0.22878   0.50479  -0.15401  -0.13461
  88        4PX         0.03475   0.07066   0.21997  -0.01531  -0.03635
  89        4PY        -0.00067   0.09718  -0.07880   0.00396  -0.00068
  90        4PZ         0.04144   0.00136  -0.13114   0.00936   0.01489
  91        5PX         0.06234  -0.05363   0.22909   0.06094  -0.07764
  92        5PY         0.02971   0.02867  -0.07334   0.10168   0.05367
  93        5PZ         0.02905   0.08054  -0.15111   0.08020   0.04298
  94        6D 0        0.00149  -0.00239  -0.00083  -0.00063   0.00137
  95        6D+1       -0.00224  -0.00385  -0.00088   0.00136  -0.00058
  96        6D-1       -0.00305   0.00495   0.00294   0.00095   0.00105
  97        6D+2        0.00199  -0.00318   0.00212   0.00027   0.00596
  98        6D-2        0.00467  -0.02381  -0.00795   0.00093   0.00008
  99 9   H  1S          0.02439  -0.02777  -0.03666  -0.00280   0.00830
 100        2S          0.01624  -0.02212  -0.10046  -0.03818   0.00173
 101        3PX         0.00012   0.00470   0.00774  -0.00240  -0.00117
 102        3PY        -0.00061   0.00369  -0.00272  -0.00173  -0.00011
 103        3PZ         0.00021   0.00156  -0.00217   0.00131   0.00083
 104 10  C  1S         -0.03150   0.02300   0.00650  -0.00024  -0.01069
 105        2S          0.06025  -0.05817  -0.01257  -0.01446   0.01569
 106        3S          0.24808  -0.07491  -0.03353   0.16659   0.17190
 107        4PX        -0.10959  -0.12786  -0.05266   0.01010   0.03147
 108        4PY         0.03884  -0.07349  -0.04636   0.01806  -0.02609
 109        4PZ         0.06169  -0.02435   0.00041   0.01080   0.00630
 110        5PX        -0.02929  -0.04999  -0.06977   0.14818  -0.00657
 111        5PY         0.02772   0.02824  -0.05965   0.02879  -0.04347
 112        5PZ         0.07656  -0.06437  -0.03191  -0.01547   0.01268
 113        6D 0        0.00246  -0.00322  -0.00416  -0.00022  -0.00003
 114        6D+1       -0.00344  -0.00431  -0.00539   0.00024   0.00199
 115        6D-1       -0.00015  -0.00045  -0.00258   0.00070   0.00069
 116        6D+2        0.00167  -0.00487   0.00471   0.00132  -0.00358
 117        6D-2       -0.00389  -0.00105  -0.00093   0.00027   0.00226
 118 11  H  1S         -0.02114   0.05073   0.00652  -0.01594   0.02772
 119        2S         -0.07626   0.10057  -0.09384  -0.00623  -0.11093
 120        3PX        -0.00098  -0.00322  -0.00584  -0.00090  -0.00416
 121        3PY         0.00107  -0.00138  -0.00012   0.00025   0.00107
 122        3PZ         0.00112   0.00039   0.00137  -0.00009   0.00035
 123 12  C  1S         -0.00367   0.00364  -0.01471  -0.00120   0.01169
 124        2S          0.01523  -0.00235   0.03012  -0.00137  -0.02277
 125        3S         -0.00502  -0.10434   0.05053   0.07641  -0.14355
 126        4PX         0.06693   0.02599   0.03418   0.00418  -0.02229
 127        4PY        -0.03474  -0.04585  -0.01596  -0.00189   0.00260
 128        4PZ        -0.08152  -0.01775  -0.02687  -0.00243   0.01840
 129        5PX        -0.02168   0.04926   0.04103   0.02097  -0.01476
 130        5PY         0.01037  -0.09533  -0.05107  -0.00770  -0.01800
 131        5PZ        -0.03227  -0.02806  -0.02684  -0.02441   0.03494
 132        6D 0       -0.00645   0.00041   0.00116  -0.00012  -0.00137
 133        6D+1       -0.01177  -0.00376  -0.00243  -0.00042   0.00115
 134        6D-1       -0.00410   0.00001   0.00053  -0.00007   0.00050
 135        6D+2        0.01296   0.00040  -0.00269   0.00066   0.00081
 136        6D-2       -0.00508  -0.00229  -0.00321   0.00030   0.00035
 137 13  H  1S         -0.05490   0.00063  -0.00022  -0.00073  -0.00566
 138        2S         -0.01287   0.00267  -0.02349  -0.00555   0.00457
 139        3PX         0.00271  -0.00090  -0.00042  -0.00033  -0.00071
 140        3PY        -0.00333  -0.00047   0.00017   0.00037   0.00056
 141        3PZ        -0.00082   0.00016  -0.00146  -0.00013   0.00087
 142 14  H  1S         -0.06236  -0.02635   0.01110  -0.00520   0.00287
 143        2S         -0.08696   0.17330   0.06511  -0.01881   0.08259
 144        3PX         0.00086   0.00464   0.00073  -0.00027  -0.00001
 145        3PY         0.00108   0.00059  -0.00145  -0.00021   0.00041
 146        3PZ        -0.00293  -0.00111  -0.00136   0.00042   0.00024
 147 15  C  1S          0.00038  -0.00152  -0.00006  -0.00038  -0.00026
 148        2S          0.00058   0.00796   0.00074   0.00292   0.00081
 149        3S         -0.02103  -0.01705  -0.00787  -0.01317   0.00056
 150        4PX         0.05103   0.01484   0.00756  -0.00008  -0.00190
 151        4PY        -0.03983  -0.01838  -0.00268   0.00054  -0.00268
 152        4PZ        -0.07583  -0.00794  -0.00061   0.00010  -0.00000
 153        5PX         0.00098  -0.01925  -0.00118  -0.00542  -0.00056
 154        5PY        -0.00116  -0.00289  -0.00116   0.00239  -0.00091
 155        5PZ        -0.00537   0.00733   0.00686  -0.00197  -0.00316
 156        6D 0        0.01486   0.00371   0.00064  -0.00004  -0.00017
 157        6D+1       -0.00716  -0.00185  -0.00172   0.00025   0.00072
 158        6D-1       -0.01033  -0.00257  -0.00071   0.00010   0.00036
 159        6D+2        0.00992   0.00217  -0.00019  -0.00001   0.00003
 160        6D-2        0.00993   0.00281   0.00142  -0.00009  -0.00048
 161 16  H  1S          0.11369   0.02829   0.01103  -0.00043  -0.00405
 162        2S          0.09935   0.05448   0.01887   0.00687  -0.00494
 163        3PX        -0.00230   0.00014   0.00003  -0.00013  -0.00010
 164        3PY         0.00022  -0.00030   0.00023  -0.00003  -0.00019
 165        3PZ        -0.00188   0.00046   0.00004   0.00029   0.00003
 166 17  H  1S          0.00993  -0.01448  -0.02656  -0.01255  -0.00484
 167        2S         -0.03001  -0.03656  -0.04139  -0.02850  -0.01769
 168        3PX        -0.00161  -0.00313  -0.00028  -0.00316   0.00204
 169        3PY         0.00135  -0.00159  -0.00012   0.00041  -0.00028
 170        3PZ         0.00266  -0.00040  -0.00050   0.00121   0.00029
 171 18  H  1S         -0.10994  -0.02574  -0.00410   0.00102  -0.00001
 172        2S         -0.07945  -0.03835  -0.00579   0.00103   0.00036
 173        3PX         0.00277   0.00121   0.00050   0.00016  -0.00008
 174        3PY        -0.00098   0.00032   0.00019  -0.00002   0.00018
 175        3PZ         0.00132   0.00117   0.00010   0.00004   0.00027
 176 19  H  1S         -0.00128  -0.00538  -0.00820   0.00056   0.00366
 177        2S         -0.00029  -0.01162  -0.00328  -0.00130   0.00056
 178        3PX         0.00242   0.00031   0.00016  -0.00002   0.00002
 179        3PY        -0.00202  -0.00131  -0.00066  -0.00005   0.00005
 180        3PZ        -0.00385  -0.00084   0.00001  -0.00007  -0.00008
                          41        42        43        44        45
                           V         V         V         V         V
     Eigenvalues --     0.16401   0.17687   0.20949   0.22576   0.22941
   1 1   O  1S         -0.00147   0.00679  -0.00421   0.00008   0.00443
   2        2S         -0.00321   0.01513  -0.01016  -0.00200   0.00644
   3        3S         -0.00770   0.03193  -0.01970   0.02127   0.04479
   4        4PX         0.01093  -0.04376   0.03342   0.00782  -0.02679
   5        4PY        -0.00153   0.02463  -0.00424  -0.00866   0.01588
   6        4PZ        -0.01437  -0.00924  -0.00122   0.01327  -0.04538
   7        5PX         0.01148  -0.04373   0.03275   0.00587  -0.03573
   8        5PY        -0.00178   0.01733  -0.00439  -0.01145   0.00575
   9        5PZ        -0.01390  -0.00904  -0.00046   0.01696  -0.04219
  10        6D 0        0.00008   0.00003   0.00012  -0.00043   0.00018
  11        6D+1        0.00008  -0.00047   0.00021   0.00045  -0.00113
  12        6D-1        0.00016  -0.00004   0.00006   0.00026  -0.00018
  13        6D+2        0.00002   0.00087   0.00047  -0.00007   0.00060
  14        6D-2       -0.00015   0.00094  -0.00033   0.00014   0.00079
  15 2   S  1S         -0.00020  -0.00129  -0.03459   0.00010   0.00641
  16        2S         -0.00240  -0.00993  -0.23270   0.00072   0.04534
  17        3S          0.06604   0.07225   0.30424  -0.01653  -0.14981
  18        4S         -0.36783  -0.23954   1.40346   0.12109   0.14720
  19        5PX         0.06445  -0.07204   0.06383  -0.03750   0.04683
  20        5PY        -0.04847   0.00381   0.11071   0.01489  -0.02082
  21        5PZ         0.07689  -0.05714  -0.01951  -0.04104   0.03963
  22        6PX         0.09796  -0.11444   0.09844  -0.05921   0.07910
  23        6PY        -0.07386   0.00712   0.18107   0.01960  -0.03414
  24        6PZ         0.11885  -0.09010  -0.03175  -0.07370   0.06144
  25        7PX         0.45873  -0.47919   0.53495  -0.24441   0.28502
  26        7PY        -0.40260  -0.00255   0.86092   0.16908  -0.13984
  27        7PZ         0.56447  -0.36923  -0.18618  -0.20374   0.28651
  28        8D 0        0.01582  -0.01722   0.00347   0.01161   0.01655
  29        8D+1       -0.00865   0.03318  -0.08915   0.01840  -0.03081
  30        8D-1       -0.07049   0.04052   0.04162   0.02514  -0.03627
  31        8D+2       -0.05832   0.04366  -0.02280   0.02779  -0.05814
  32        8D-2       -0.04448   0.04805   0.00461   0.03523   0.00342
  33 3   O  1S         -0.00138   0.00341  -0.00335   0.00360   0.00023
  34        2S         -0.00183   0.00574  -0.00757   0.00782  -0.00097
  35        3S         -0.01263   0.02457  -0.02403   0.00821   0.01079
  36        4PX         0.00539  -0.00741   0.01896  -0.01634  -0.00295
  37        4PY        -0.00132   0.00141  -0.00961  -0.00167   0.00073
  38        4PZ        -0.00652  -0.01303   0.00283   0.01275  -0.05352
  39        5PX         0.00954  -0.01213   0.01659  -0.01437   0.00020
  40        5PY        -0.00218   0.00618  -0.01456  -0.00046   0.00715
  41        5PZ        -0.00745  -0.01201   0.00022   0.01615  -0.05302
  42        6D 0        0.00009  -0.00024   0.00043  -0.00004   0.00001
  43        6D+1        0.00011  -0.00007   0.00027  -0.00004  -0.00057
  44        6D-1        0.00004   0.00020  -0.00016  -0.00070   0.00069
  45        6D+2        0.00002  -0.00027   0.00043  -0.00043  -0.00040
  46        6D-2        0.00011  -0.00033  -0.00041  -0.00076   0.00012
  47 4   N  1S          0.00278   0.04135   0.00479  -0.01259   0.05714
  48        2S         -0.00194   0.05472   0.00270  -0.02013   0.08105
  49        3S          0.08023   0.56395   0.08730  -0.12581   0.84675
  50        4PX         0.00848   0.10909   0.02791   0.00181   0.06960
  51        4PY        -0.01717  -0.03301  -0.00190   0.00863  -0.04534
  52        4PZ         0.02985  -0.02010   0.03466   0.10581  -0.01833
  53        5PX        -0.03995  -0.17465  -0.05065  -0.01541  -0.17090
  54        5PY         0.04249   0.09592   0.00638  -0.03233   0.11829
  55        5PZ        -0.06929   0.01599  -0.06892  -0.23417   0.03475
  56        6D 0       -0.00055   0.00079   0.00006  -0.00316   0.00009
  57        6D+1        0.00235   0.00160   0.00135   0.00520   0.00080
  58        6D-1       -0.00054  -0.00097   0.00055   0.00007   0.00046
  59        6D+2        0.00196   0.00179   0.00204   0.00055   0.00301
  60        6D-2       -0.00130  -0.00307  -0.00086   0.00147  -0.00326
  61 5   H  1S         -0.00188   0.00421   0.00250  -0.00398  -0.01801
  62        2S         -0.21511  -0.39591  -0.25041  -0.39486  -0.56478
  63        3PX        -0.00084   0.00303   0.00054  -0.00203   0.00003
  64        3PY         0.00118  -0.00134   0.00003   0.00300  -0.00189
  65        3PZ        -0.00217   0.00145  -0.00230  -0.00046   0.00208
  66 6   H  1S         -0.00825  -0.00713   0.00405   0.00479  -0.02674
  67        2S          0.04346  -0.43720   0.09436   0.56413  -0.63646
  68        3PX        -0.00036   0.00363  -0.00181  -0.00174   0.00093
  69        3PY        -0.00148  -0.00133  -0.00347  -0.00140  -0.00212
  70        3PZ         0.00008  -0.00190   0.00076  -0.00195  -0.00121
  71 7   C  1S         -0.00540   0.00394  -0.01276   0.00334  -0.00767
  72        2S          0.01221  -0.00519   0.02873  -0.00975   0.02381
  73        3S          0.03765  -0.08693   0.13711   0.00027  -0.10480
  74        4PX        -0.01353   0.01907  -0.04411  -0.00598   0.00135
  75        4PY         0.00574  -0.00500   0.02027   0.00014   0.00387
  76        4PZ         0.01236   0.01187   0.00433  -0.03722   0.06534
  77        5PX        -0.01156   0.01286  -0.04101  -0.02888   0.01185
  78        5PY         0.00337  -0.01565   0.01155  -0.01574  -0.02337
  79        5PZ         0.00920   0.00385   0.01715  -0.00545   0.03528
  80        6D 0        0.00132   0.00110   0.00118  -0.00150   0.00355
  81        6D+1       -0.00073  -0.00248   0.00131   0.00183  -0.00528
  82        6D-1        0.00082  -0.00040   0.00093  -0.00066   0.00198
  83        6D+2       -0.00006  -0.00111   0.00058   0.00011  -0.00093
  84        6D-2       -0.00142   0.00383  -0.00389  -0.00030   0.00136
  85 8   C  1S          0.01114  -0.01505   0.03043   0.00789   0.00176
  86        2S         -0.03436   0.00717  -0.05928   0.01490  -0.02489
  87        3S          0.02152   0.34749  -0.26962  -0.67891   0.25964
  88        4PX         0.03489  -0.01552   0.04741  -0.01261   0.02330
  89        4PY         0.01056  -0.03394   0.02307   0.02395  -0.04335
  90        4PZ         0.00244   0.06141  -0.04281  -0.06824   0.03650
  91        5PX         0.00094   0.01660  -0.09582   0.05617   0.11112
  92        5PY         0.04281  -0.01898   0.06426   0.08496  -0.09259
  93        5PZ        -0.00257   0.17513  -0.20246  -0.27458   0.15067
  94        6D 0        0.00020  -0.00057  -0.00266   0.00521  -0.00788
  95        6D+1       -0.00064   0.00430  -0.00607   0.00209   0.00038
  96        6D-1        0.00052   0.00082   0.00086  -0.00048  -0.00177
  97        6D+2        0.00293  -0.00274   0.00439   0.00010   0.00110
  98        6D-2       -0.00171  -0.00205  -0.00216  -0.00149  -0.00327
  99 9   H  1S          0.00088   0.02150  -0.02099   0.03968  -0.02360
 100        2S          0.02291  -0.31437   0.42855   0.68018  -0.33582
 101        3PX         0.00083   0.00292  -0.00333  -0.00127  -0.00081
 102        3PY        -0.00029  -0.00182  -0.00006   0.00207  -0.00485
 103        3PZ         0.00137  -0.00612   0.00253   0.00350  -0.00315
 104 10  C  1S         -0.00920  -0.02415   0.00175  -0.03834  -0.02263
 105        2S          0.02103   0.03675  -0.00899   0.02006   0.01213
 106        3S         -0.00566   0.35379  -0.03322   1.46210   0.65073
 107        4PX        -0.02103   0.00253  -0.02023  -0.06396  -0.03314
 108        4PY         0.02338  -0.01216  -0.00800   0.02748   0.04076
 109        4PZ        -0.04141  -0.06992   0.00413  -0.09468  -0.02820
 110        5PX        -0.04659   0.09553  -0.15595  -0.15187  -0.21349
 111        5PY         0.07964  -0.07558  -0.19677   0.13165   0.19582
 112        5PZ        -0.11952  -0.22374  -0.02188  -0.20209  -0.05004
 113        6D 0        0.00365  -0.00169   0.01013  -0.00432   0.00499
 114        6D+1       -0.00231   0.00137  -0.00146  -0.00288   0.00401
 115        6D-1        0.00399   0.00218   0.00631  -0.00246   0.00191
 116        6D+2       -0.00496   0.00594  -0.00616   0.00612   0.00104
 117        6D-2       -0.00257  -0.00006  -0.00414   0.00439  -0.00324
 118 11  H  1S          0.01497  -0.00686   0.00237  -0.01899  -0.00429
 119        2S          0.14926  -0.28191  -0.08597  -0.30635   0.07814
 120        3PX        -0.00290   0.00240   0.00356  -0.00079   0.00042
 121        3PY         0.00124   0.00332   0.00086   0.00346   0.00481
 122        3PZ        -0.00070  -0.00308  -0.00204   0.00025  -0.00085
 123 12  C  1S          0.03312  -0.09727   0.05533   0.01438   0.04279
 124        2S         -0.07983   0.15524  -0.09945   0.04876  -0.07656
 125        3S         -0.31955   1.88481  -0.58799  -1.32987  -0.88425
 126        4PX         0.13061  -0.15293   0.24303  -0.08596   0.09483
 127        4PY         0.10455   0.01766   0.14835  -0.08506   0.09273
 128        4PZ         0.03250   0.00690   0.09643  -0.12153   0.02868
 129        5PX         0.23890  -0.22233   0.60795  -0.33211   0.02922
 130        5PY         0.11194   0.18361   0.59808  -0.17134   0.27286
 131        5PZ         0.03718   0.11721   0.25014  -0.19399   0.04332
 132        6D 0       -0.00899   0.00573   0.00596   0.00434   0.00293
 133        6D+1       -0.00214  -0.00293   0.01631  -0.00426  -0.00202
 134        6D-1        0.00479   0.00094   0.00726   0.00172  -0.00197
 135        6D+2       -0.00379   0.00420   0.01526   0.00023   0.00039
 136        6D-2        0.01057  -0.00560   0.00056  -0.00508  -0.00197
 137 13  H  1S         -0.04886   0.02641   0.03858  -0.00190   0.01736
 138        2S          0.14067  -0.75453   0.30795   0.75645   0.55025
 139        3PX        -0.00060  -0.00631   0.01549   0.00066   0.00022
 140        3PY         0.00325   0.00193   0.00804  -0.00108  -0.00148
 141        3PZ        -0.00106  -0.00540   0.00603   0.00384   0.00230
 142 14  H  1S          0.06211  -0.02108  -0.06744  -0.03077  -0.00134
 143        2S          0.03321  -1.05184  -0.51610   0.72439  -0.08480
 144        3PX         0.01045  -0.00519   0.00874  -0.00475  -0.00225
 145        3PY        -0.00033  -0.01334  -0.00347   0.00369   0.00035
 146        3PZ         0.00491  -0.00093   0.00899   0.00379  -0.00176
 147 15  C  1S         -0.13109  -0.01813   0.05121  -0.00022   0.01777
 148        2S          0.18953  -0.01985  -0.09812  -0.01325   0.01659
 149        3S          2.93721   0.97933  -0.55818   0.25887  -1.12730
 150        4PX        -0.00053   0.01193  -0.06734   0.08375   0.21432
 151        4PY        -0.09308   0.15828   0.22183   0.00460  -0.07380
 152        4PZ         0.06378  -0.07442  -0.12723  -0.19780   0.09279
 153        5PX        -0.03438  -0.01772  -0.21667   0.31374   0.87929
 154        5PY        -0.10609   0.36149   0.69512  -0.11011  -0.14122
 155        5PZ         0.09253  -0.17917  -0.38846  -0.75015   0.23697
 156        6D 0        0.00167  -0.00220   0.00580  -0.00112  -0.00042
 157        6D+1        0.00525  -0.00659   0.01424   0.00285   0.00970
 158        6D-1        0.00338  -0.00805  -0.01768  -0.00141   0.01142
 159        6D+2        0.00693  -0.01252  -0.00051  -0.01175   0.01014
 160        6D-2       -0.00179   0.00019  -0.01587   0.00074  -0.00006
 161 16  H  1S         -0.00756   0.02918  -0.04062  -0.02131  -0.03334
 162        2S         -0.98291  -0.53385   0.03906  -1.29972  -0.50299
 163        3PX        -0.00597  -0.00859  -0.00513  -0.00945   0.00320
 164        3PY        -0.00749   0.00553   0.00072   0.00475  -0.00760
 165        3PZ         0.00930  -0.00095  -0.00422   0.00217   0.00133
 166 17  H  1S          0.01615   0.01146   0.01738  -0.01578   0.01816
 167        2S         -0.16040  -0.35849   0.11135  -0.98202  -0.38651
 168        3PX         0.00424   0.00223   0.00102   0.00519  -0.00311
 169        3PY        -0.00395  -0.00569  -0.00176  -0.00466  -0.00624
 170        3PZ         0.00326   0.00617  -0.00038   0.00922   0.00374
 171 18  H  1S         -0.00640   0.03619  -0.04210   0.03371   0.00360
 172        2S         -1.10872  -0.62160  -0.33274   0.85338   0.42936
 173        3PX         0.00127  -0.00245  -0.00725   0.00432   0.00009
 174        3PY        -0.01240   0.00124   0.00062   0.00481  -0.00061
 175        3PZ         0.00010  -0.01022  -0.00686  -0.00108   0.00924
 176 19  H  1S          0.04893  -0.06893   0.01576  -0.02552   0.05244
 177        2S         -1.16366  -0.34867   0.11357  -0.21182   1.87774
 178        3PX         0.00671   0.00682  -0.00287   0.00448  -0.00774
 179        3PY         0.00077   0.00220   0.01846  -0.00071  -0.00323
 180        3PZ         0.00348   0.00325  -0.01138  -0.00194  -0.00440
     Density Matrix:
                           1         2         3         4         5
   1 1   O  1S          2.13538
   2        2S          0.27465   0.71618
   3        3S          0.31989   0.49129   0.40581
   4        4PX         0.03621   0.06788   0.12834   0.61858
   5        4PY         0.02892   0.05040   0.10526  -0.09172   0.69690
   6        4PZ        -0.01280  -0.02394  -0.04788  -0.01512   0.04684
   7        5PX         0.03232   0.09241   0.10240   0.42303  -0.09510
   8        5PY         0.02688   0.07329   0.08137  -0.08647   0.47637
   9        5PZ        -0.01098  -0.03143  -0.03836   0.00372   0.04320
  10        6D 0        0.00059   0.00087   0.00306   0.00970   0.00698
  11        6D+1        0.00037   0.00059   0.00247   0.00488  -0.00106
  12        6D-1       -0.00071  -0.00144   0.00056  -0.00060   0.00559
  13        6D+2        0.00060   0.00104  -0.00005  -0.01674   0.01480
  14        6D-2        0.00137   0.00302  -0.00250  -0.01290  -0.01543
  15 2   S  1S         -0.00007  -0.00031   0.00108   0.00102  -0.00051
  16        2S         -0.00039  -0.00112   0.00193   0.00697  -0.00330
  17        3S          0.00064   0.00141  -0.00043  -0.01046   0.00388
  18        4S         -0.00040  -0.00228  -0.00373  -0.02914   0.01800
  19        5PX         0.00082   0.00230  -0.00155  -0.00854   0.00405
  20        5PY         0.00016   0.00034   0.00101  -0.00247   0.00109
  21        5PZ         0.00007  -0.00004   0.00214  -0.00258   0.00157
  22        6PX         0.00148   0.00379  -0.00118  -0.01520   0.00677
  23        6PY         0.00028   0.00057   0.00190  -0.00442   0.00198
  24        6PZ         0.00016   0.00003   0.00388  -0.00452   0.00278
  25        7PX         0.00175   0.00338  -0.00288  -0.04266   0.02279
  26        7PY         0.00036   0.00091   0.00257  -0.01148   0.00745
  27        7PZ        -0.00041  -0.00206   0.00381  -0.01035   0.00611
  28        8D 0        0.00001   0.00020   0.00062  -0.00167   0.00137
  29        8D+1        0.00016   0.00018   0.00007  -0.00014  -0.00033
  30        8D-1       -0.00001   0.00006   0.00014  -0.00069  -0.00006
  31        8D+2        0.00002  -0.00024  -0.00046   0.00243  -0.00177
  32        8D-2        0.00011   0.00024  -0.00030  -0.00015  -0.00077
  33 3   O  1S         -0.00236  -0.00335  -0.00959  -0.00696   0.02935
  34        2S         -0.00362  -0.01604   0.01011  -0.00799   0.05659
  35        3S         -0.00516   0.02157   0.03965  -0.09640   0.17437
  36        4PX        -0.02445  -0.04539  -0.15200   0.00077   0.09067
  37        4PY        -0.01339  -0.02990  -0.03847   0.00371   0.09835
  38        4PZ         0.00931   0.01549   0.06882  -0.08043  -0.01180
  39        5PX        -0.01833  -0.04661  -0.11787  -0.01728   0.09120
  40        5PY        -0.00957  -0.01352  -0.01775  -0.02487   0.11067
  41        5PZ         0.00718   0.01828   0.05530  -0.07969  -0.01062
  42        6D 0        0.00008   0.00008   0.00068  -0.00095   0.00116
  43        6D+1        0.00003  -0.00045  -0.00138  -0.00094   0.00099
  44        6D-1       -0.00021   0.00019   0.00221   0.00114   0.00059
  45        6D+2        0.00022   0.00088   0.00237   0.00146  -0.00075
  46        6D-2        0.00046  -0.00069  -0.00499  -0.00287  -0.00184
  47 4   N  1S         -0.00201  -0.00426   0.00112   0.01300  -0.01639
  48        2S         -0.00589  -0.01710  -0.00111   0.03644  -0.04808
  49        3S          0.00713   0.03868   0.06618   0.02360  -0.01962
  50        4PX         0.00769   0.01836   0.00613  -0.01465   0.03527
  51        4PY         0.00016  -0.00176   0.01757   0.02381  -0.00260
  52        4PZ        -0.00223  -0.00218  -0.02243   0.00136  -0.00841
  53        5PX        -0.00103  -0.00351   0.00450  -0.01738   0.00585
  54        5PY        -0.00666  -0.02464  -0.04071   0.00320  -0.03131
  55        5PZ         0.00062   0.00507   0.01204   0.01649  -0.00287
  56        6D 0       -0.00001  -0.00016   0.00019   0.00000  -0.00100
  57        6D+1       -0.00032  -0.00054  -0.00135   0.00197  -0.00238
  58        6D-1       -0.00001  -0.00032  -0.00067   0.00054   0.00033
  59        6D+2        0.00079   0.00099  -0.00022  -0.00315   0.00369
  60        6D-2        0.00020   0.00071   0.00181   0.00019  -0.00077
  61 5   H  1S          0.00058   0.00447  -0.01308   0.00020   0.00379
  62        2S          0.00281   0.00676  -0.00190  -0.02652   0.04226
  63        3PX        -0.00043  -0.00060  -0.00077   0.00177  -0.00357
  64        3PY        -0.00007   0.00001  -0.00062  -0.00222   0.00060
  65        3PZ         0.00059   0.00124   0.00084  -0.00218   0.00413
  66 6   H  1S          0.00073  -0.00078   0.00832  -0.00764   0.00681
  67        2S          0.00082   0.00281   0.00045  -0.01515   0.04140
  68        3PX        -0.00073  -0.00151  -0.00039   0.00284  -0.00596
  69        3PY        -0.00000  -0.00007  -0.00162  -0.00035  -0.00011
  70        3PZ        -0.00013  -0.00062  -0.00076   0.00084  -0.00136
  71 7   C  1S         -0.01720  -0.02843   0.00278   0.09460   0.07543
  72        2S          0.01655   0.03235  -0.07939  -0.19308  -0.17777
  73        3S          0.00057   0.03201   0.02304  -0.12369   0.08746
  74        4PX         0.04441   0.08944  -0.00612  -0.13864  -0.22082
  75        4PY         0.03458   0.06883  -0.01447  -0.21403  -0.09935
  76        4PZ        -0.01560  -0.03235   0.00356   0.14169   0.05964
  77        5PX        -0.01209   0.03237  -0.01269   0.16785  -0.11337
  78        5PY        -0.00478   0.05345   0.03357  -0.13132   0.19915
  79        5PZ         0.00424  -0.01002   0.00873  -0.01156   0.04967
  80        6D 0       -0.00548  -0.00900  -0.00535   0.00431  -0.00155
  81        6D+1       -0.00392  -0.00670  -0.00206  -0.00008   0.01519
  82        6D-1       -0.00543  -0.00884  -0.00859   0.01885   0.00549
  83        6D+2        0.00193   0.00409   0.00011   0.03092  -0.04182
  84        6D-2        0.01474   0.02405   0.02051  -0.01708  -0.01265
  85 8   C  1S          0.00564   0.01201   0.01058  -0.03328   0.00863
  86        2S         -0.01133  -0.02634  -0.02338   0.08120  -0.01755
  87        3S         -0.03302  -0.06024  -0.10072   0.31327  -0.24573
  88        4PX        -0.01743  -0.03875  -0.04782   0.09074  -0.01650
  89        4PY         0.00093   0.00091   0.01748  -0.03496   0.00288
  90        4PZ         0.00893   0.02000   0.02454  -0.06177   0.01200
  91        5PX        -0.01601  -0.04183  -0.05630   0.15372  -0.09931
  92        5PY        -0.00208  -0.04780  -0.04116  -0.08456   0.01517
  93        5PZ         0.01160   0.03149   0.04236  -0.07673   0.07146
  94        6D 0        0.00018   0.00066  -0.00007  -0.00313   0.00093
  95        6D+1       -0.00002   0.00047   0.00147   0.00540  -0.00123
  96        6D-1        0.00005   0.00029   0.00104   0.00117   0.00114
  97        6D+2        0.00033  -0.00020  -0.00321  -0.00738   0.00239
  98        6D-2        0.00008  -0.00065  -0.00131  -0.00528  -0.00041
  99 9   H  1S          0.00178   0.00296   0.00300  -0.02282   0.00043
 100        2S          0.00350   0.00045   0.00663  -0.07695   0.01263
 101        3PX        -0.00041  -0.00034  -0.00042   0.00461  -0.00021
 102        3PY        -0.00027   0.00166   0.00222  -0.00038   0.00126
 103        3PZ         0.00019   0.00071   0.00033  -0.00202   0.00095
 104 10  C  1S         -0.00052  -0.00082  -0.00263   0.00641  -0.00339
 105        2S          0.00086   0.00032   0.00436  -0.01819   0.00085
 106        3S         -0.00263  -0.02699  -0.04620  -0.05161   0.11914
 107        4PX         0.00369   0.00749   0.00300  -0.01553   0.00077
 108        4PY         0.00198   0.00361   0.01562  -0.00481  -0.00714
 109        4PZ         0.00060   0.00304  -0.01443  -0.00876   0.00398
 110        5PX         0.00518   0.01819   0.02182   0.01862   0.00355
 111        5PY         0.00548   0.01324   0.02611  -0.00522  -0.01828
 112        5PZ        -0.00115  -0.02196  -0.02819  -0.05167  -0.00336
 113        6D 0        0.00020   0.00009   0.00077  -0.00262   0.00032
 114        6D+1        0.00051   0.00054   0.00068  -0.00275   0.00057
 115        6D-1        0.00001   0.00032   0.00010  -0.00155   0.00049
 116        6D+2       -0.00013  -0.00072  -0.00054   0.00400  -0.00208
 117        6D-2        0.00000   0.00053   0.00028  -0.00057   0.00090
 118 11  H  1S          0.00020   0.00083  -0.00397  -0.01294   0.00647
 119        2S          0.00800   0.02203   0.04564  -0.01260  -0.06615
 120        3PX         0.00031   0.00035   0.00145  -0.00145  -0.00240
 121        3PY         0.00008  -0.00008   0.00008  -0.00055  -0.00011
 122        3PZ        -0.00021   0.00062  -0.00001   0.00102   0.00062
 123 12  C  1S          0.00084   0.00189   0.00229  -0.01124   0.00662
 124        2S         -0.00162  -0.00525  -0.00634   0.01955  -0.01243
 125        3S         -0.00090   0.02272   0.02768   0.13839  -0.08957
 126        4PX        -0.00216  -0.00452  -0.00359   0.01027  -0.00166
 127        4PY        -0.00016  -0.00075  -0.00028  -0.00707  -0.00038
 128        4PZ         0.00093   0.00166   0.00651  -0.01280   0.00764
 129        5PX        -0.00164   0.00290   0.00145   0.02317  -0.00373
 130        5PY        -0.00149  -0.00668  -0.00169  -0.02251  -0.01191
 131        5PZ        -0.00027  -0.00471  -0.00624  -0.03388   0.01677
 132        6D 0        0.00003  -0.00031   0.00036   0.00122  -0.00065
 133        6D+1        0.00014   0.00012  -0.00035  -0.00113   0.00020
 134        6D-1       -0.00009   0.00001  -0.00037   0.00000   0.00029
 135        6D+2        0.00017   0.00043   0.00043  -0.00171   0.00078
 136        6D-2        0.00020   0.00013   0.00044  -0.00135   0.00028
 137 13  H  1S          0.00003  -0.00080   0.00456   0.00579  -0.00316
 138        2S         -0.00042  -0.00400   0.00197  -0.02052   0.00685
 139        3PX        -0.00001   0.00000   0.00001  -0.00039   0.00024
 140        3PY        -0.00001   0.00003   0.00005   0.00015   0.00043
 141        3PZ         0.00017   0.00020   0.00027  -0.00099   0.00052
 142 14  H  1S         -0.00075  -0.00246  -0.00458   0.00519  -0.00100
 143        2S          0.00109   0.00148  -0.00768  -0.01480   0.05130
 144        3PX        -0.00003   0.00009   0.00036  -0.00015   0.00068
 145        3PY         0.00011   0.00017   0.00017  -0.00098   0.00031
 146        3PZ         0.00004   0.00014   0.00045  -0.00031   0.00035
 147 15  C  1S          0.00003   0.00004   0.00014  -0.00010  -0.00011
 148        2S         -0.00008   0.00087  -0.00148   0.00097   0.00101
 149        3S          0.00041  -0.00343  -0.00446  -0.00804  -0.00377
 150        4PX        -0.00020  -0.00040  -0.00089   0.00221  -0.00091
 151        4PY         0.00000   0.00015  -0.00069   0.00062  -0.00192
 152        4PZ         0.00000   0.00003   0.00018   0.00099  -0.00015
 153        5PX        -0.00003  -0.00159  -0.00316  -0.00186  -0.00232
 154        5PY         0.00017  -0.00003  -0.00087  -0.00084  -0.00124
 155        5PZ        -0.00019  -0.00021   0.00040   0.00513  -0.00203
 156        6D 0       -0.00001  -0.00004   0.00013  -0.00010   0.00010
 157        6D+1        0.00003   0.00018   0.00010  -0.00064   0.00041
 158        6D-1        0.00003   0.00006  -0.00004  -0.00015   0.00012
 159        6D+2        0.00005   0.00005   0.00015  -0.00031   0.00014
 160        6D-2       -0.00002  -0.00009   0.00007   0.00048  -0.00020
 161 16  H  1S         -0.00029  -0.00032  -0.00098   0.00321  -0.00157
 162        2S         -0.00030   0.00256   0.00537   0.01200   0.00187
 163        3PX         0.00000   0.00001   0.00019  -0.00002   0.00001
 164        3PY         0.00001  -0.00004  -0.00004   0.00013  -0.00014
 165        3PZ        -0.00005   0.00013   0.00005   0.00019   0.00014
 166 17  H  1S          0.00048  -0.00217   0.01802  -0.01158   0.00033
 167        2S          0.00002  -0.00958  -0.00027  -0.03640  -0.01646
 168        3PX         0.00012  -0.00042  -0.00063  -0.00184   0.00013
 169        3PY        -0.00020   0.00030   0.00011   0.00034   0.00048
 170        3PZ         0.00001   0.00017   0.00106   0.00037   0.00039
 171 18  H  1S         -0.00003   0.00055  -0.00154   0.00098  -0.00067
 172        2S         -0.00029   0.00027  -0.00096   0.00035   0.00091
 173        3PX        -0.00004   0.00003   0.00004   0.00021   0.00006
 174        3PY         0.00000   0.00000   0.00011   0.00006   0.00006
 175        3PZ         0.00001   0.00001   0.00014  -0.00015   0.00022
 176 19  H  1S          0.00026   0.00070  -0.00029  -0.00387   0.00211
 177        2S          0.00011  -0.00011  -0.00128  -0.00122  -0.00133
 178        3PX         0.00000  -0.00004  -0.00018   0.00002  -0.00006
 179        3PY        -0.00001   0.00001  -0.00004  -0.00029   0.00006
 180        3PZ         0.00003  -0.00002  -0.00009   0.00011  -0.00016
                           6         7         8         9        10
   6        4PZ         0.61122
   7        5PX         0.00610   0.29963
   8        5PY         0.03876  -0.07592   0.33426
   9        5PZ         0.45226   0.01357   0.03200   0.33995
  10        6D 0        0.00817   0.00620   0.00419   0.00628   0.00038
  11        6D+1       -0.01798   0.00267  -0.00124  -0.01276  -0.00017
  12        6D-1       -0.01417  -0.00116   0.00345  -0.00991  -0.00014
  13        6D+2       -0.00091  -0.01161   0.01057  -0.00087  -0.00014
  14        6D-2       -0.00058  -0.00729  -0.00944  -0.00111  -0.00044
  15 2   S  1S         -0.00084   0.00067  -0.00050  -0.00040   0.00001
  16        2S         -0.00531   0.00530  -0.00302  -0.00366   0.00004
  17        3S          0.00505  -0.00861   0.00389   0.00367  -0.00007
  18        4S          0.02042  -0.02073   0.01315   0.01520  -0.00002
  19        5PX         0.00715  -0.00705   0.00415   0.00510  -0.00003
  20        5PY         0.00063  -0.00195   0.00066   0.00035  -0.00001
  21        5PZ         0.00008  -0.00185   0.00050   0.00010   0.00001
  22        6PX         0.01154  -0.01289   0.00713   0.00870  -0.00006
  23        6PY         0.00102  -0.00350   0.00116   0.00066  -0.00001
  24        6PZ         0.00046  -0.00320   0.00077   0.00037   0.00000
  25        7PX         0.03215  -0.03400   0.01987   0.02386  -0.00006
  26        7PY         0.00559  -0.00816   0.00454   0.00426   0.00001
  27        7PZ        -0.00295  -0.00701   0.00228  -0.00263  -0.00007
  28        8D 0        0.00159  -0.00142   0.00104   0.00121   0.00001
  29        8D+1        0.00118  -0.00020  -0.00015   0.00086   0.00001
  30        8D-1       -0.00023  -0.00061   0.00002  -0.00016  -0.00002
  31        8D+2       -0.00218   0.00193  -0.00137  -0.00168  -0.00001
  32        8D-2        0.00049  -0.00019  -0.00037   0.00037  -0.00001
  33 3   O  1S          0.00557  -0.00497   0.02262   0.00406   0.00003
  34        2S          0.00715  -0.01991   0.04854   0.01185   0.00005
  35        3S          0.06274  -0.08189   0.12566   0.05200   0.00123
  36        4PX        -0.06995   0.01181   0.11047  -0.07508  -0.00120
  37        4PY         0.02587   0.00411   0.07858   0.02383  -0.00030
  38        4PZ        -0.15546  -0.09150  -0.02028  -0.15547  -0.00082
[...]
 3,0.00255641,-0.00014817,-0.00008606,0.00016362,-0.00171075,-0.0011456
 1,0.00152217,0.10799169,-0.07616840,1.29662828,0.00002249,-0.00101038,
 -0.00092546,-0.00001955,0.00013562,-0.00003635,-0.00126587,-0.00056391
 ,-0.00101855,-0.12905796,-0.08518330,0.33466575,0.13047493,-0.00024376
 ,-0.00136984,-0.00181136,-0.00003764,0.00010083,0.00000879,0.00009054,
 -0.00060015,0.00012585,-0.10369414,0.00612996,0.27541658,0.08448153,0.
 00110172,0.00032632,-0.00051846,-0.00029572,-0.00017621,-0.00006085,-0
 .00011035,0.00000629,-0.00039467,-0.00005966,0.31146261,0.21774871,-0.
 71844489,-0.32947086,-0.23494096,0.74764528,0.00009589,-0.00053832,0.0
 0032173,0.00014190,0.00013204,-0.00001151,-0.00298843,-0.00088469,-0.0
 0040092,-0.39989892,-0.11405554,-0.45889225,0.01427290,0.00148993,0.02
 091387,0.40934951,-0.00104078,-0.00093105,0.00152981,-0.00028320,0.000
 11931,-0.00013069,-0.00062117,0.00026279,-0.00010116,-0.14801034,0.035
 87033,-0.18310333,0.00811858,-0.00158474,0.01316005,0.12059222,-0.0271
 5730,-0.00053487,0.00097155,-0.00002764,0.00021911,-0.00002024,-0.0000
 1445,0.00095464,0.00092812,-0.00014564,-0.43974398,-0.13598745,-0.4759
 5700,-0.03598781,-0.01264689,-0.02905704,0.45921878,0.15103965,0.49629
 327,-0.12496557,0.04986222,-0.00078267,0.00171704,0.00502359,-0.001850
 82,-0.57017071,0.18841405,-0.03669778,-0.03315966,-0.00755089,-0.00535
 419,-0.00085911,-0.00096125,-0.00006417,-0.00244053,0.00063371,0.00128
 046,0.84421626,0.05259610,-0.49202762,-0.01481568,0.00023767,-0.000108
 43,-0.00010791,0.19231956,-0.18647621,0.01298327,0.01949011,-0.0006256
 5,0.00367593,0.00324025,0.00114597,0.00068970,0.00538586,-0.00111587,-
 0.00292892,-0.19430593,0.80705481,-0.00007788,-0.01587366,-0.09247151,
 0.00080909,0.00204829,-0.00032253,-0.03618749,0.01298186,-0.07699149,0
 .00562847,0.00371307,0.00386041,0.00164905,0.00046360,-0.00032387,0.00
 136209,-0.00034355,0.00051633,0.05104034,0.01179967,0.25969924,-0.0035
 3160,-0.00567120,-0.00008691,-0.00422137,-0.00865768,0.00177647,-0.045
 24269,-0.00854126,-0.00724025,-0.14260226,0.02465517,0.00593545,-0.012
 24803,0.01528220,-0.00123655,-0.02077222,0.01857666,0.01330877,-0.1189
 4989,-0.05493106,-0.01266374,0.40711100,-0.02408681,-0.04967087,-0.008
 25789,-0.00116408,-0.00293165,0.00000545,0.00698017,0.00853557,0.00239
 985,0.07234903,-0.08624242,-0.01289567,-0.00989065,-0.00370843,0.00244
 905,-0.01130075,-0.00351329,-0.00101391,-0.04073976,-0.09638336,-0.008
 14772,0.01113400,0.44909102,-0.00180477,-0.00419609,0.02119043,-0.0012
 4655,-0.00345384,0.00156349,-0.00561252,-0.00032287,0.01920333,0.01737
 231,-0.00590072,-0.11435081,0.03210436,-0.02440572,-0.00273424,-0.0236
 0462,0.01691496,0.00692496,-0.01321322,-0.01144546,-0.09826245,0.01139
 305,0.16505411,0.97775751,-0.00133097,-0.00138312,0.00341167,-0.000007
 03,0.00029045,-0.00030890,-0.00047865,0.00010072,0.00499782,-0.0117495
 4,0.01300879,0.03655686,-0.00468115,0.00542685,0.00150842,0.00353314,-
 0.00198569,0.00108307,-0.00016992,-0.00802496,-0.03049110,0.01921938,-
 0.00328648,-0.02220942,-0.00654781,-0.00202235,-0.00108256,0.00378177,
 0.00023289,0.00078876,-0.00051603,0.00008620,0.00057517,0.00302660,0.0
 0422109,-0.00617406,-0.01852581,0.00189113,-0.00291958,-0.00018440,-0.
 00104928,0.00238844,-0.00016057,-0.00048221,-0.00726997,-0.02369178,0.
 00100136,-0.04234623,-0.21315704,-0.00297265,0.05523879,-0.00079016,-0
 .00001485,0.00028721,-0.00023078,-0.00026524,0.00041413,-0.00112441,0.
 00006502,0.00094497,-0.00193719,0.00092411,-0.00041275,0.00017360,-0.0
 0062455,0.00077619,0.00074524,0.00054912,0.00156721,0.00276351,0.00077
 853,-0.00039858,-0.00512373,-0.20876425,-0.66793513,0.00611806,0.20874
 017,0.68354386,-0.00317464,-0.00462726,-0.00425282,0.00229352,-0.00149
 091,0.00277989,-0.00141615,0.00007872,-0.00177761,-0.01665070,0.032471
 29,-0.01798042,0.00318021,-0.00138849,-0.00260206,-0.00158411,0.003947
 58,0.00040525,0.00757779,-0.01765914,0.01974566,-0.08318900,0.00041115
 ,0.00641737,0.00073772,-0.00136783,-0.00009945,0.87906395,-0.00132018,
 -0.00096634,-0.00198704,-0.01657038,-0.03032132,0.00481759,0.00337987,
 -0.00151712,-0.00055542,0.01271807,-0.02250971,0.00760014,-0.00145603,
 0.00209981,0.00287393,-0.00010505,-0.00161569,-0.00008304,-0.00812148,
 -0.02294006,0.01537270,0.00418199,-0.14200226,0.05332517,-0.00209638,0
 .00434321,-0.00453733,-0.26183504,0.45179881,-0.00245866,-0.00372297,-
 0.00082417,0.01318408,0.02049073,0.00038244,-0.00146861,0.00185382,0.0
 0008461,0.00165844,-0.00607544,0.00343350,0.00070933,-0.00173626,0.003
 04773,0.00032366,0.00027229,-0.00060232,0.00840132,-0.00225447,0.00472
 984,-0.00550585,0.05125977,-0.13177404,-0.00146464,0.03766168,-0.01992
 519,-0.13981855,0.15356065,0.90171965,-0.00029618,0.00040921,0.0002015
 0,0.00078910,0.00072948,-0.00008633,-0.00181511,-0.00123538,0.00009317
 ,0.00081931,-0.00149865,0.00008043,-0.00003504,-0.00005062,-0.00011919
 ,-0.00006552,0.00004797,0.00003476,0.00056710,-0.00067412,-0.00037258,
 0.00276970,-0.00077367,0.00022508,0.00040063,0.00023389,-0.00012751,-0
 .60935669,0.27719247,0.04676179,0.62686151,-0.00198066,0.00186494,0.00
 035391,0.00044316,0.00215661,-0.00076390,-0.00293677,0.00275484,-0.001
 15556,0.00284540,-0.00568086,0.00425642,-0.00098005,0.00095248,0.00101
 448,0.00023439,-0.00125575,-0.00006655,0.00701335,-0.00250502,-0.00041
 969,0.02491548,-0.01076202,-0.00576804,-0.00008791,0.00119961,-0.00001
 017,0.27771548,-0.10359076,-0.02145437,-0.27933070,0.11465697,0.000432
 53,-0.00069759,-0.00009771,0.00053422,-0.00015866,-0.00006525,0.000303
 69,-0.00133585,-0.00150891,-0.00110026,0.00449824,-0.00151695,-0.00027
 498,-0.00010470,-0.00039707,-0.00009454,0.00010995,0.00028688,-0.00166
 691,0.00028049,0.00133779,-0.01942009,0.00852568,0.00124939,-0.0002126
 1,-0.00082984,0.00036935,0.04176378,-0.02035941,0.00463974,-0.04207196
 ,0.02203576,-0.00452990,0.00102236,-0.00001334,0.00037814,-0.04164162,
 0.02309753,-0.00237862,0.00176856,-0.00128225,0.00073773,-0.00131773,0
 .00161324,0.00087756,0.00050120,-0.00018243,-0.00022891,0.00012829,0.0
 0045012,-0.00072189,-0.00345370,0.00117680,-0.00117797,0.00220361,-0.0
 0517545,0.00396262,-0.00008145,-0.00034999,-0.00039021,-0.14383740,-0.
 03688859,-0.02529440,-0.01905174,-0.03308251,-0.01420668,0.82681709,-0
 .00080392,-0.00033608,-0.00031470,0.00212567,-0.10712895,0.05427003,0.
 00027720,0.00147786,-0.00077167,-0.00193790,0.00046575,0.00009778,0.00
 023330,-0.00066723,0.00001327,-0.00018487,-0.00021071,-0.00010260,0.00
 196501,-0.00240933,0.00209648,-0.01652359,-0.02775333,-0.00096435,0.00
 021122,0.00147781,-0.00173021,-0.04032997,-0.11066173,-0.03681043,0.00
 756133,0.00739321,0.00486717,-0.30660907,0.41468273,0.00070881,0.00100
 214,0.00053973,0.01590185,0.02585646,-0.06772232,0.00021033,-0.0003629
 4,0.00039787,0.00004509,-0.00014478,0.00066666,-0.00022964,-0.00009005
 ,0.00008436,0.00006351,0.00008609,0.00022560,-0.00130882,0.00293085,-0
 .00211215,0.01285846,0.01175501,0.00395138,0.00101446,0.00093311,0.001
 57645,-0.02783227,-0.03692430,-0.10249825,0.00123266,0.00074252,-0.000
 58838,-0.12468103,0.20537486,0.79512660,0.00004150,0.00046389,0.000023
 20,-0.00128965,0.00233526,-0.00182012,-0.00002424,0.00017622,0.0001492
 5,-0.00006105,0.00044784,-0.00000040,-0.00015267,-0.00007547,-0.000185
 12,-0.00006235,0.00001268,0.00013994,-0.00037006,-0.00014570,-0.000070
 42,0.00132011,0.00130282,-0.00039521,0.00027529,-0.00005729,0.00070227
 ,0.00461981,-0.01368276,-0.02846461,0.00156501,0.00154199,-0.00008669,
 -0.03155483,0.06097868,0.16778094,0.03503804,0.00011149,0.00011329,-0.
 00002598,-0.00952799,0.00539928,0.02278913,0.00015615,-0.00010954,0.00
 014836,-0.00003478,-0.00051872,0.00044907,-0.00019285,0.00036017,0.000
 09617,0.00006312,-0.00002955,-0.00009103,-0.00038643,0.00016304,0.0002
 6258,0.00099832,0.00207034,-0.00162514,-0.00008301,-0.00039963,0.00108
 545,0.00488427,-0.00950172,-0.02309305,0.00039685,0.00143442,0.0012240
 8,0.06529915,-0.05230194,-0.21226225,-0.05765183,0.06514936,-0.0000178
 7,0.00007965,-0.00004529,0.00400185,-0.00337243,-0.00907328,-0.0000725
 2,-0.00002376,0.00002939,-0.00014317,0.00021496,-0.00002117,-0.0000483
 7,0.00002994,-0.00002079,-0.00002116,-0.00004952,-0.00001122,-0.000089
 32,0.00005677,0.00018342,0.00052341,0.00065773,0.00102948,0.00012716,-
 0.00049012,0.00026591,0.00274551,-0.00286609,-0.00749181,0.00029121,0.
 00074276,0.00061558,0.17388977,-0.22107105,-0.61636677,-0.17393578,0.2
 2272946,0.62675954,0.00054633,-0.00043509,-0.00003272,0.00561923,-0.00
 762101,0.00424298,0.00027658,-0.00083358,0.00027670,0.00166369,0.00138
 797,-0.00020265,-0.00000773,-0.00043569,-0.00033251,0.00031020,-0.0005
 0793,0.00036923,-0.00078445,0.00095419,-0.00002204,-0.00101700,0.00258
 248,-0.00026404,-0.00002974,-0.00014272,0.00019104,-0.02218130,0.00848
 041,0.00090857,-0.00156335,-0.00409159,-0.00256141,-0.59276435,0.29937
 679,-0.01797474,-0.00510451,0.00054559,-0.00516636,0.61201413,0.000714
 76,-0.00018927,0.00001068,0.01631156,-0.01798922,0.00610294,0.00078129
 ,-0.00091093,0.00029734,0.00050776,0.00168992,0.00013967,0.00019915,-0
 .00144312,-0.00094124,0.00033688,-0.00144883,0.00029533,-0.00140988,0.
 00081406,-0.00019659,-0.00117778,0.00202283,0.00017185,0.00023429,-0.0
 0008034,0.00014083,-0.02818335,0.01065097,-0.00067898,-0.00322499,-0.0
 0459852,-0.00219240,0.30301140,-0.12016058,0.00739382,0.01033506,-0.00
 403657,0.00253250,-0.29899910,0.13130694,0.00023861,0.00019549,0.00007
 261,-0.01440912,0.01820315,-0.00985676,0.00027665,-0.00012838,0.000134
 18,0.00020209,0.00035524,-0.00053473,0.00012522,-0.00063872,-0.0003722
 5,-0.00002792,0.00043836,-0.00018804,-0.00082499,-0.00016958,-0.000221
 52,0.00112668,0.00060053,0.00045809,0.00014238,-0.00008923,-0.00009853
 ,-0.01385894,0.00483454,0.00097931,-0.00167511,-0.00220754,0.00003102,
 -0.02895078,0.00654853,0.01245690,0.03655565,-0.01734003,0.00523546,0.
 02139427,-0.01031283,-0.01116527,0.00005946,0.00014535,0.00006441,-0.1
 0838724,0.03961891,0.07899365,0.00010145,-0.00001369,0.00001351,-0.000
 09017,-0.00025100,0.00000296,0.00002656,0.00001369,0.00009433,-0.00000
 915,0.00006178,-0.00007662,-0.00031086,-0.00005173,-0.00016785,0.00076
 920,-0.00009732,-0.00008235,-0.00003246,0.00002537,-0.00003852,-0.0008
 2418,0.00061915,-0.00035236,0.00028618,0.00014296,0.00006581,0.0001275
 0,0.00183303,0.00215698,-0.00108357,0.00067082,-0.00077758,0.00159361,
 0.00037991,-0.00124268,0.73261346,-0.00020448,-0.00044077,-0.00006359,
 0.06147547,-0.07900005,-0.05167280,-0.00041571,-0.00013802,-0.00004363
 ,0.00018896,-0.00055443,-0.00006363,0.00000959,0.00016445,0.00018954,-
 0.00002844,0.00014140,-0.00009845,0.00067570,0.00039188,0.00014160,-0.
 00061160,0.00011254,-0.00027586,0.00003385,0.00005790,-0.00016941,0.00
 015689,0.00061008,0.00157001,-0.00008488,-0.00008243,-0.00011956,-0.01
 538813,0.00812008,0.02035645,-0.00129150,-0.00589798,0.00298589,-0.000
 55469,0.00311536,-0.00150349,0.13307321,0.95983094,0.00016485,0.000087
 65,-0.00004018,0.06241003,-0.02194997,-0.10042216,0.00030893,-0.000032
 20,0.00003607,0.00009000,-0.00000635,-0.00003770,0.00000971,-0.0001359
 8,0.00005450,0.00002760,-0.00005507,-0.00000457,-0.00042630,-0.0000928
 5,0.00009229,-0.00016288,0.00023236,-0.00003493,-0.00003625,-0.0000713
 1,0.00013557,-0.00025559,-0.00153216,0.00156275,0.00016283,0.00036673,
 -0.00050634,0.01445604,-0.00631554,-0.02074011,0.00084694,0.00557304,-
 0.00146307,0.00040882,-0.00339534,0.00297922,0.28089171,-0.14753440,0.
 73027415,-0.00006620,0.00004437,-0.00002831,0.00110346,0.02482796,0.01
 881463,-0.00007338,0.00008145,-0.00007370,-0.00016288,0.00003447,0.000
 00958,0.00007218,0.00002897,0.00007111,-0.00000701,0.00001501,-0.00004
 705,0.00014279,-0.00011084,0.00006189,0.00005940,-0.00048117,-0.000277
 09,-0.00000423,0.00016835,-0.00008431,0.00006180,0.00040270,0.00025134
 ,-0.00000860,0.00000012,0.00004242,0.00060063,-0.00046859,-0.00201195,
 0.00019158,0.00029164,-0.00024018,-0.00004036,-0.00027444,0.00006641,-
 0.07968540,-0.21715845,-0.11760533,0.08875166,0.00011401,0.00018466,0.
 00004945,0.00003582,-0.00337312,-0.00290155,0.00018065,0.00002998,0.00
 004164,-0.00011202,0.00015452,-0.00000418,0.00003487,-0.00007575,-0.00
 010968,0.00000969,-0.00002979,0.00002246,-0.00033967,-0.00010278,-0.00
 016250,0.00054874,-0.00010106,0.00010109,0.00001722,0.00002250,-0.0000
 2233,-0.00032786,0.00094597,-0.00083451,0.00007647,-0.00003656,0.00008
 564,0.00058408,0.00072114,0.00160422,0.00000733,-0.00020120,0.00001372
 ,-0.00000745,0.00017849,0.00014687,-0.22575861,-0.50628882,-0.25891301
 ,0.22697453,0.51406839,-0.00011551,-0.00010246,0.00001438,0.00401178,-
 0.01788288,-0.01309612,-0.00021053,-0.00004308,-0.00000743,-0.00002811
 ,-0.00023429,0.00005572,-0.00002999,0.00017149,0.00005496,-0.00002365,
 0.00007087,-0.00004456,0.00022844,0.00012638,-0.00000584,0.00012762,0.
 00011820,0.00009073,-0.00001165,-0.00007915,0.00006082,-0.00013355,0.0
 0032640,-0.00037413,-0.00010129,-0.00004964,0.00022309,-0.00157845,-0.
 00074822,0.00173951,-0.00036245,0.00004855,0.00024779,-0.00014385,0.00
 042196,-0.00066541,-0.12781226,-0.26341834,-0.12537104,0.11723168,0.27
 036265,0.12642588,-0.00037555,-0.00031271,-0.00018240,0.00104802,0.001
 55451,-0.00028696,-0.00085432,-0.00050396,-0.00103528,0.00057014,-0.00
 094565,-0.00140340,-0.00015942,0.00028377,0.00009248,-0.00000293,0.000
 01880,0.00003636,0.00119844,0.00026175,0.00087205,-0.00117579,0.002288
 47,-0.00258104,0.00088426,0.00053480,-0.00067209,-0.01572205,0.0351557
 9,0.13229936,-0.00203882,0.00744865,0.03848788,0.00278494,-0.01096998,
 -0.02904702,-0.00373607,-0.00413697,-0.00157150,0.00144472,0.00116478,
 0.00016487,-0.00025326,0.00000222,-0.00007837,-0.00028436,-0.00029173,
 0.00044406,0.01669724,0.00026114,-0.00042431,-0.00042478,0.00173278,0.
 00190442,-0.00081813,-0.00033847,-0.00000145,-0.00015831,-0.00260452,0
 .00268960,-0.00048964,0.00098005,0.00035896,-0.00103403,-0.00010279,0.
 00018728,-0.00011204,0.00094750,0.00250583,0.00001411,-0.00533942,0.00
 345604,0.03575279,0.00061134,-0.00572648,0.00378872,0.03760087,-0.0244
 4126,-0.16955204,0.00020993,-0.00386536,-0.01598864,0.00338151,-0.0112
 5072,-0.02509696,-0.00472348,-0.00279484,-0.00142560,0.00030507,0.0011
 4567,0.00133192,-0.00055918,0.00007505,0.00023998,-0.00063619,-0.00029
 706,0.00035458,-0.03169847,0.03631235,0.00009884,0.00077717,0.00016103
 ,0.00016156,0.00048962,0.00059441,0.00061965,0.00027052,0.00011215,0.0
 0112051,-0.00141852,0.00238617,-0.00140537,0.00090656,0.00019942,0.000
 10764,-0.00038891,0.00022589,-0.00134059,-0.00141566,0.00074152,0.0041
 6032,-0.00404352,-0.01849428,-0.00020647,0.00372368,-0.00122931,0.1350
 0895,-0.17431206,-0.65653301,-0.00432473,0.00251416,0.00041054,0.00321
 406,0.00015534,-0.00619455,-0.00134876,-0.00095907,0.00045555,-0.00012
 102,-0.00003730,0.00024437,0.00017500,0.00002650,0.00011119,-0.0001817
 1,-0.00004663,0.00030904,-0.13561127,0.17355223,0.67638189,0.00004437,
 -0.00010414,-0.00001829,-0.01575381,0.00743428,0.00190197,0.00008816,-
 0.00007897,0.00001683,0.00012966,-0.00002245,0.00000439,-0.00004255,-0
 .00004236,-0.00004061,0.00000601,-0.00003540,0.00004328,-0.00004318,0.
 00012154,0.00001460,-0.00022120,0.00003825,-0.00007830,0.00002922,0.00
 000943,-0.00000326,0.00015593,-0.00014857,0.00012153,0.00013446,0.0001
 7734,-0.00002317,0.00154215,0.00013611,-0.00246276,0.00043685,0.000249
 76,-0.00016277,-0.00011390,-0.00107147,0.00100927,-0.54265296,0.118900
 85,-0.31074798,-0.00833380,0.00715741,-0.00381198,-0.00009728,-0.00001
 381,-0.00002234,0.55458916,0.00009028,0.00011697,0.00001322,0.01165834
 ,-0.00269480,0.00206405,0.00013228,0.00004442,0.00001147,0.00009251,0.
 00017114,-0.00001949,-0.00004325,-0.00010138,-0.00005267,0.00001347,-0
 .00007895,0.00006453,-0.00015909,-0.00009294,-0.00003717,-0.00009197,0
 .00007590,0.00005978,0.00001027,-0.00002827,0.00000817,0.00004051,-0.0
 0043748,-0.00015205,0.00001767,-0.00006114,0.00008705,-0.00212638,0.00
 044615,0.00014141,-0.00005193,-0.00019124,-0.00007520,0.00016493,0.000
 29268,-0.00031199,0.12320447,-0.02295623,0.07225035,-0.03288458,0.0113
 3412,-0.01709131,-0.00006323,-0.00000087,0.00006373,-0.12804958,0.0174
 6795,-0.00002156,-0.00000724,0.00000628,0.03090996,-0.01024391,0.00044
 652,-0.00005318,0.00000999,0.00001493,-0.00005293,-0.00000050,-0.00000
 229,-0.00000733,0.00002822,-0.00002287,-0.00001279,0.00004000,-0.00000
 454,0.00004461,0.00000988,-0.00002834,0.00004871,0.00004545,0.00007231
 ,0.00001132,-0.00001553,0.00000292,-0.00014452,0.00057581,-0.00032294,
 -0.00020572,-0.00017520,-0.00001912,-0.00038895,-0.00162349,0.00312081
 ,0.00004241,-0.00062023,0.00020833,-0.00105219,0.00105429,-0.00003291,
 -0.29734370,0.07092815,-0.14181451,-0.01241668,0.00773163,-0.00626316,
 -0.00001160,0.00000261,0.00000833,0.30665639,-0.06778935,0.15431683,-0
 .00006269,-0.00014669,-0.00002939,-0.00298326,-0.01528344,0.01308265,-
 0.00012191,-0.00003777,-0.00002969,0.00008060,-0.00009530,-0.00001615,
 -0.00002139,0.00001436,-0.00001925,-0.00000668,0.00000938,0.00001855,0
 .00025821,0.00011966,0.00004784,-0.00028134,-0.00009022,-0.00010567,0.
 00003329,0.00003981,-0.00007211,0.00024547,0.00009401,0.00020824,0.000
 03805,0.00001188,0.00008899,-0.00379352,0.00312955,0.00357516,-0.00004
 921,-0.00165329,0.00066766,0.00013819,0.00036418,-0.00031258,-0.002248
 17,-0.07877887,0.06953525,-0.00231730,-0.00890348,0.01231968,0.0000720
 9,-0.00001386,-0.00010427,0.01010270,0.02804529,-0.02600225,0.00091687
 ,0.00000243,0.00005812,0.00000891,0.00279928,0.01068827,-0.01220093,0.
 00000647,0.00000131,-0.00000039,-0.00005301,0.00001279,0.00000821,-0.0
 0000364,0.00005587,0.00000207,-0.00000786,0.00000196,-0.00000996,-0.00
 007854,-0.00001831,-0.00002128,0.00025163,0.00005069,0.00013537,-0.000
 02480,-0.00006506,0.00005823,-0.00009690,0.00005660,-0.00030438,-0.000
 00228,0.00002533,0.00007258,0.00248430,-0.00190412,-0.00329568,0.00007
 820,0.00129303,-0.00066958,-0.00016858,-0.00035954,0.00004718,-0.07305
 713,-0.35726097,0.36128409,-0.00085533,-0.01713361,0.02764829,0.000209
 17,0.00016716,0.00014216,-0.00465822,-0.00330603,0.00004941,0.07317479
 ,0.36763651,0.00003773,0.00012732,0.00001335,0.00035001,0.01268025,-0.
 01065156,0.00006512,0.00004405,0.00000007,-0.00003820,0.00011902,0.000
 00536,-0.00000232,-0.00001583,-0.00002369,0.00000524,-0.00003891,0.000
 01688,-0.00013892,-0.00010094,-0.00002257,0.00018107,0.00001976,0.0000
 9479,-0.00003020,-0.00005620,0.00005489,-0.00011063,-0.00013009,-0.000
 23372,0.00000098,0.00004393,0.00006626,0.00248198,-0.00297119,-0.00366
 333,0.00042895,0.00161089,-0.00053704,0.00008193,-0.00080653,0.0005442
 7,0.06543557,0.36876502,-0.34481114,-0.00358277,-0.01716498,0.01660576
 ,0.00008386,0.00006323,0.00010965,0.00760321,0.01076548,-0.00968658,-0
 .07285263,-0.37295430,0.35211835\\-0.00955140,-0.02747759,-0.00282387,
 0.01214877,-0.01511794,-0.01681612,0.01068082,-0.03486497,-0.00041197,
 0.15720921,0.04436951,-0.03226165,-0.05632624,-0.03414851,0.13429545,-
 0.09936984,-0.02820583,-0.10694096,0.01535826,0.06833560,0.00574991,-0
 .02239908,0.05017966,0.13495758,0.00159623,-0.03712576,-0.13661721,-0.
 09951975,0.01782018,-0.11985554,0.12789193,-0.05125844,-0.00960135,0.0
 9576197,-0.00704324,0.13369038,0.03321471,-0.05026315,-0.12523905,-0.1
 2933503,0.05875740,-0.00414107,0.07615733,-0.03389004,-0.08062152,0.04
 901967,0.11553037,0.06124071,-0.02402843,0.03455823,0.13426139,-0.1213
 6746,0.02697435,-0.06223250,-0.01714167,-0.09712984,0.09336737\\\@
 The archive entry for this job was punched.

 Writing a WFNX file to "XABNAQ_Complex_4_Ligand_1_ON_Cu_oriented.wfx"


 FLOATING POINT NUMBERS ARE LIKE SANDPILES:
 EVERY TIME THAT YOU MOVE ONE, YOU LOSE A LITTLE SAND 
 AND YOU PICK UP A LITTLE DIRT.
 Job cpu time:       0 days  0 hours  8 minutes 58.8 seconds.
 Elapsed time:       0 days  0 hours  9 minutes  1.6 seconds.
 File lengths (MBytes):  RWF=    360 Int=      0 D2E=      0 Chk=      8 Scr=      8
 Normal termination of Gaussian 16 at Mon Mar  6 10:30:47 2023.
