 Entering Gaussian System, Link 0=g16
 Initial command:
 /ssoft/spack/external/gaussian/g16-C.01/avx2/g16/l1.exe "/scratch/lcmd/2387859/Gau-1722653.inp" -scrdir="/scratch/lcmd/2387859/"
 Entering Link 1 = /ssoft/spack/external/gaussian/g16-C.01/avx2/g16/l1.exe PID=   1722661.
  
 Copyright (c) 1988-2019, Gaussian, Inc.  All Rights Reserved.
  
 This is part of the Gaussian(R) 16 program.  It is based on
 the Gaussian(R) 09 system (copyright 2009, Gaussian, Inc.),
 the Gaussian(R) 03 system (copyright 2003, Gaussian, Inc.),
 the Gaussian(R) 98 system (copyright 1998, Gaussian, Inc.),
 the Gaussian(R) 94 system (copyright 1995, Gaussian, Inc.),
 the Gaussian 92(TM) system (copyright 1992, Gaussian, Inc.),
 the Gaussian 90(TM) system (copyright 1990, Gaussian, Inc.),
 the Gaussian 88(TM) system (copyright 1988, Gaussian, Inc.),
 the Gaussian 86(TM) system (copyright 1986, Carnegie Mellon
 University), and the Gaussian 82(TM) system (copyright 1983,
 Carnegie Mellon University). Gaussian is a federally registered
 trademark of Gaussian, Inc.
  
 This software contains proprietary and confidential information,
 including trade secrets, belonging to Gaussian, Inc.
  
 This software is provided under written license and may be
 used, copied, transmitted, or stored only in accord with that
 written license.
  
 The following legend is applicable only to US Government
 contracts under FAR:
  
                    RESTRICTED RIGHTS LEGEND
  
 Use, reproduction and disclosure by the US Government is
 subject to restrictions as set forth in subparagraphs (a)
 and (c) of the Commercial Computer Software - Restricted
 Rights clause in FAR 52.227-19.
  
 Gaussian, Inc.
 340 Quinnipiac St., Bldg. 40, Wallingford CT 06492
  
  
 ---------------------------------------------------------------
 Warning -- This program may not be used in any manner that
 competes with the business of Gaussian, Inc. or will provide
 assistance to any competitor of Gaussian, Inc.  The licensee
 of this program is prohibited from giving any competitor of
 Gaussian, Inc. access to this program.  By using this program,
 the user acknowledges that Gaussian, Inc. is engaged in the
 business of creating and licensing software in the field of
 computational chemistry and represents and warrants to the
 licensee that it is not a competitor of Gaussian, Inc. and that
 it will not use this program in any manner prohibited above.
 ---------------------------------------------------------------
  

 Cite this work as:
 Gaussian 16, Revision C.01,
 M. J. Frisch, G. W. Trucks, H. B. Schlegel, G. E. Scuseria, 
 M. A. Robb, J. R. Cheeseman, G. Scalmani, V. Barone, 
 G. A. Petersson, H. Nakatsuji, X. Li, M. Caricato, A. V. Marenich, 
 J. Bloino, B. G. Janesko, R. Gomperts, B. Mennucci, H. P. Hratchian, 
 J. V. Ortiz, A. F. Izmaylov, J. L. Sonnenberg, D. Williams-Young, 
 F. Ding, F. Lipparini, F. Egidi, J. Goings, B. Peng, A. Petrone, 
 T. Henderson, D. Ranasinghe, V. G. Zakrzewski, J. Gao, N. Rega, 
 G. Zheng, W. Liang, M. Hada, M. Ehara, K. Toyota, R. Fukuda, 
 J. Hasegawa, M. Ishida, T. Nakajima, Y. Honda, O. Kitao, H. Nakai, 
 T. Vreven, K. Throssell, J. A. Montgomery, Jr., J. E. Peralta, 
 F. Ogliaro, M. J. Bearpark, J. J. Heyd, E. N. Brothers, K. N. Kudin, 
 V. N. Staroverov, T. A. Keith, R. Kobayashi, J. Normand, 
 K. Raghavachari, A. P. Rendell, J. C. Burant, S. S. Iyengar, 
 J. Tomasi, M. Cossi, J. M. Millam, M. Klene, C. Adamo, R. Cammi, 
 J. W. Ochterski, R. L. Martin, K. Morokuma, O. Farkas, 
 J. B. Foresman, and D. J. Fox, Gaussian, Inc., Wallingford CT, 2019.
 
 ******************************************
 Gaussian 16:  ES64L-G16RevC.01  3-Jul-2019
                 6-Mar-2023 
 ******************************************
 %nprocshared=1
 Will use up to    1 processors via shared memory.
 %mem=8000MB
 %chk=XAJSAD_Complex_3_Ligand_0_NN_Cu_oriented.chk
 ----------------------------------------------------------------------
 #p pop=(regular,nbo,savenbos) freq=noraman def2svp empiricaldispersion
 =gd3bj output=wfx pbe1pbe
 ----------------------------------------------------------------------
 1/10=4,30=1,38=1/1,3;
 2/12=2,17=6,18=5,40=1/2;
 3/5=43,7=101,11=2,25=1,30=1,71=2,74=-13,124=41,140=1/1,2,3;
 4//1;
 5/5=2,38=5,98=1/2;
 8/6=4,10=90,11=11/1;
 11/6=1,8=1,9=11,15=111,16=1/1,2,10;
 10/6=1/2;
 6/28=1,40=1,73=1/1,7;
 7/8=1,10=1,25=1/1,2,3,16;
 1/10=4,30=1/3;
 99/6=200/99;
 Leave Link    1 at Mon Mar  6 10:21:46 2023, MaxMem=  1048576000 cpu:               0.0 elap:               0.1
 (Enter /ssoft/spack/external/gaussian/g16-C.01/avx2/g16/l101.exe)
 ----------------------------------------
 XAJSAD_Complex_3_Ligand_0_NN_Cu_oriented
 ----------------------------------------
 Symbolic Z-matrix:
 Charge = -1 Multiplicity = 1
 N                    -0.95238  -1.69852   0. 
 N                    -1.84049   0.86702   0. 
 O                    -2.03513   2.07791   0.66111 
 C                    -1.9682   -1.88443  -0.98284 
 C                    -2.91692  -0.88275  -1.23055 
 C                    -3.88278  -1.10106  -2.21656 
 C                    -3.91614  -2.27177  -2.92524 
 C                    -2.99686  -3.25413  -2.67582 
 H                    -3.02172  -4.05699  -3.16414 
 C                    -2.02922  -3.06077  -1.70194 
 H                    -1.40521  -3.74284  -1.52708 
 C                    -2.93985   0.39111  -0.48013 
 S                    -1.12241  -2.49417   1.373 
 O                     0.04023  -2.11735   2.16711 
 O                    -1.36077  -3.89128   1.16265 
 C                    -2.54993  -1.85507   2.1888 
 C                    -2.4739   -0.6827    2.91541 
 H                    -1.64848  -0.2436    3.01377 
 C                    -4.89919  -1.94854   2.61099 
 H                    -5.7267   -2.38072   2.50235 
 C                    -3.77594  -2.49858   2.03022 
 H                    -3.83693  -3.29403   1.53364 
 C                    -4.247     1.10738  -0.25438 
 H                    -4.97229   0.5827   -0.62911 
 H                    -4.21957   1.97583  -0.68503 
 H                    -4.39021   1.22327   0.69848 
 C                    -3.60673  -0.15576   3.49404 
 H                    -3.54555   0.63691   3.99614 
 C                    -4.84035  -0.78157   3.34862 
 C                    -6.08018  -0.18045   3.96332 
 H                    -6.38953   0.55541   3.41154 
 H                    -5.87397   0.14562   4.85182 
 H                    -6.77365  -0.85656   4.01808 
 H                    -4.57167  -2.39941  -3.58586 
 H                    -1.38159   2.23607   1.14697 
 H                    -4.5207   -0.43503  -2.39475 
 
 ITRead=  0  0  0  0  0  0  0  0  0  0  0  0  0  0  0  0  0  0  0  0
 ITRead=  0  0  0  0  0  0  0  0  0  0  0  0  0  0  0  0
 MicOpt= -1 -1 -1 -1 -1 -1 -1 -1 -1 -1 -1 -1 -1 -1 -1 -1 -1 -1 -1 -1
 MicOpt= -1 -1 -1 -1 -1 -1 -1 -1 -1 -1 -1 -1 -1 -1 -1 -1
 NAtoms=     36 NQM=       36 NQMF=       0 NMMI=      0 NMMIF=      0
                NMic=       0 NMicF=      0.
                    Isotopes and Nuclear Properties:
 (Nuclear quadrupole moments (NQMom) in fm**2, nuclear magnetic moments (NMagM)
  in nuclear magnetons)

  Atom         1           2           3           4           5           6           7           8           9          10
 IAtWgt=          14          14          16          12          12          12          12          12           1          12
 AtmWgt=  14.0030740  14.0030740  15.9949146  12.0000000  12.0000000  12.0000000  12.0000000  12.0000000   1.0078250  12.0000000
 NucSpn=           2           2           0           0           0           0           0           0           1           0
 AtZEff=  -0.0000000  -0.0000000  -0.0000000  -0.0000000  -0.0000000  -0.0000000  -0.0000000  -0.0000000  -0.0000000  -0.0000000
 NQMom=    2.0440000   2.0440000   0.0000000   0.0000000   0.0000000   0.0000000   0.0000000   0.0000000   0.0000000   0.0000000
 NMagM=    0.4037610   0.4037610   0.0000000   0.0000000   0.0000000   0.0000000   0.0000000   0.0000000   2.7928460   0.0000000
 AtZNuc=   7.0000000   7.0000000   8.0000000   6.0000000   6.0000000   6.0000000   6.0000000   6.0000000   1.0000000   6.0000000

  Atom        11          12          13          14          15          16          17          18          19          20
 IAtWgt=           1          12          32          16          16          12          12           1          12           1
 AtmWgt=   1.0078250  12.0000000  31.9720718  15.9949146  15.9949146  12.0000000  12.0000000   1.0078250  12.0000000   1.0078250
 NucSpn=           1           0           0           0           0           0           0           1           0           1
 AtZEff=  -0.0000000  -0.0000000  -0.0000000  -0.0000000  -0.0000000  -0.0000000  -0.0000000  -0.0000000  -0.0000000  -0.0000000
 NQMom=    0.0000000   0.0000000   0.0000000   0.0000000   0.0000000   0.0000000   0.0000000   0.0000000   0.0000000   0.0000000
 NMagM=    2.7928460   0.0000000   0.0000000   0.0000000   0.0000000   0.0000000   0.0000000   2.7928460   0.0000000   2.7928460
 AtZNuc=   1.0000000   6.0000000  16.0000000   8.0000000   8.0000000   6.0000000   6.0000000   1.0000000   6.0000000   1.0000000

  Atom        21          22          23          24          25          26          27          28          29          30
 IAtWgt=          12           1          12           1           1           1          12           1          12          12
 AtmWgt=  12.0000000   1.0078250  12.0000000   1.0078250   1.0078250   1.0078250  12.0000000   1.0078250  12.0000000  12.0000000
 NucSpn=           0           1           0           1           1           1           0           1           0           0
 AtZEff=  -0.0000000  -0.0000000  -0.0000000  -0.0000000  -0.0000000  -0.0000000  -0.0000000  -0.0000000  -0.0000000  -0.0000000
 NQMom=    0.0000000   0.0000000   0.0000000   0.0000000   0.0000000   0.0000000   0.0000000   0.0000000   0.0000000   0.0000000
 NMagM=    0.0000000   2.7928460   0.0000000   2.7928460   2.7928460   2.7928460   0.0000000   2.7928460   0.0000000   0.0000000
 AtZNuc=   6.0000000   1.0000000   6.0000000   1.0000000   1.0000000   1.0000000   6.0000000   1.0000000   6.0000000   6.0000000

  Atom        31          32          33          34          35          36
 IAtWgt=           1           1           1           1           1           1
 AtmWgt=   1.0078250   1.0078250   1.0078250   1.0078250   1.0078250   1.0078250
 NucSpn=           1           1           1           1           1           1
 AtZEff=  -0.0000000  -0.0000000  -0.0000000  -0.0000000  -0.0000000  -0.0000000
 NQMom=    0.0000000   0.0000000   0.0000000   0.0000000   0.0000000   0.0000000
 NMagM=    2.7928460   2.7928460   2.7928460   2.7928460   2.7928460   2.7928460
 AtZNuc=   1.0000000   1.0000000   1.0000000   1.0000000   1.0000000   1.0000000
 Leave Link  101 at Mon Mar  6 10:21:46 2023, MaxMem=  1048576000 cpu:               0.1 elap:               0.1
 (Enter /ssoft/spack/external/gaussian/g16-C.01/avx2/g16/l103.exe)

 GradGradGradGradGradGradGradGradGradGradGradGradGradGradGradGradGradGrad
 Berny optimization.
 Initialization pass.
 Trust Radius=3.00D-01 FncErr=1.00D-07 GrdErr=1.00D-07 EigMax=2.50D+02 EigMin=1.00D-04
 Number of steps in this run=      2 maximum allowed number of steps=      2.
 GradGradGradGradGradGradGradGradGradGradGradGradGradGradGradGradGradGrad

 Leave Link  103 at Mon Mar  6 10:21:46 2023, MaxMem=  1048576000 cpu:               0.0 elap:               0.0
 (Enter /ssoft/spack/external/gaussian/g16-C.01/avx2/g16/l202.exe)
                          Input orientation:                          
 ---------------------------------------------------------------------
 Center     Atomic      Atomic             Coordinates (Angstroms)
 Number     Number       Type             X           Y           Z
 ---------------------------------------------------------------------
      1          7           0       -0.952378   -1.698521    0.000000
      2          7           0       -1.840487    0.867023    0.000000
      3          8           0       -2.035129    2.077908    0.661105
      4          6           0       -1.968200   -1.884426   -0.982840
      5          6           0       -2.916916   -0.882753   -1.230551
      6          6           0       -3.882780   -1.101061   -2.216563
      7          6           0       -3.916138   -2.271771   -2.925239
      8          6           0       -2.996861   -3.254128   -2.675823
      9          1           0       -3.021722   -4.056993   -3.164137
     10          6           0       -2.029222   -3.060775   -1.701941
     11          1           0       -1.405209   -3.742842   -1.527082
     12          6           0       -2.939847    0.391108   -0.480132
     13         16           0       -1.122411   -2.494166    1.372997
     14          8           0        0.040231   -2.117346    2.167108
     15          8           0       -1.360774   -3.891282    1.162650
     16          6           0       -2.549933   -1.855066    2.188804
     17          6           0       -2.473898   -0.682702    2.915405
     18          1           0       -1.648478   -0.243597    3.013767
     19          6           0       -4.899191   -1.948536    2.610991
     20          1           0       -5.726704   -2.380725    2.502346
     21          6           0       -3.775935   -2.498580    2.030223
     22          1           0       -3.836934   -3.294032    1.533644
     23          6           0       -4.246998    1.107376   -0.254380
     24          1           0       -4.972287    0.582703   -0.629106
     25          1           0       -4.219570    1.975829   -0.685025
     26          1           0       -4.390208    1.223273    0.698481
     27          6           0       -3.606727   -0.155763    3.494040
     28          1           0       -3.545552    0.636913    3.996142
     29          6           0       -4.840347   -0.781574    3.348620
     30          6           0       -6.080177   -0.180453    3.963324
     31          1           0       -6.389527    0.555407    3.411540
     32          1           0       -5.873968    0.145624    4.851819
     33          1           0       -6.773650   -0.856562    4.018082
     34          1           0       -4.571670   -2.399406   -3.585864
     35          1           0       -1.381592    2.236066    1.146966
     36          1           0       -4.520705   -0.435028   -2.394745
 ---------------------------------------------------------------------
                    Distance matrix (angstroms):
                    1          2          3          4          5
     1  N    0.000000
     2  N    2.714913   0.000000
     3  O    3.983821   1.393265   0.000000
     4  C    1.425633   2.924510   4.290353   0.000000
     5  C    2.457467   2.394717   3.622351   1.401703   0.000000
     6  C    3.722548   3.599648   4.669115   2.408598   1.397416
     7  C    4.203512   4.766275   5.943044   2.778023   2.408274
     8  C    3.709428   5.047883   6.363225   2.408406   2.778241
     9  H    4.456045   5.971014   7.296770   3.253922   3.718271
    10  C    2.431446   4.284836   5.655978   1.380082   2.398748
    11  H    2.591580   4.875685   6.250288   2.016648   3.248585
    12  C    2.923544   1.290587   2.228504   2.524850   1.478640
    13  S    1.595958   3.701128   4.716323   2.576259   3.548994
    14  O    2.420133   4.140038   4.916841   3.743023   4.670442
    15  O    2.515302   4.921722   6.028062   2.999928   4.147317
    16  C    2.714323   3.564259   4.250549   3.224686   3.573801
    17  C    3.441874   3.361911   3.591010   4.110497   4.174354
    18  H    3.418209   3.217629   3.327747   4.332137   4.475677
    19  C    4.738894   4.909208   5.311983   4.637935   4.452275
    20  H    5.433353   5.649096   6.074315   5.149678   4.906460
    21  C    3.568525   4.381216   5.084204   3.567021   3.739178
    22  H    3.635709   4.863357   5.732849   3.436837   3.781728
    23  C    4.335007   2.431825   2.583101   3.830724   2.585080
    24  H    4.664700   3.206990   3.539376   3.903382   2.594966
    25  H    4.964338   2.712701   2.567931   4.478719   3.188416
    26  H    4.565461   2.667559   2.505633   4.283778   3.213580
    27  C    4.651235   4.046482   3.935064   5.071046   4.829712
    28  H    5.305464   4.350787   3.934503   5.799607   5.479313
    29  C    5.212519   4.788559   4.823756   5.312914   4.967759
    30  C    6.656334   5.897467   5.689223   6.654052   6.121746
    31  H    6.803043   5.694689   5.370632   6.694139   5.972968
    32  H    7.152836   6.350554   6.002707   7.308856   6.840829
    33  H    7.123278   6.591800   6.506457   7.011282   6.513311
    34  H    5.142853   5.566628   6.672116   3.717390   3.253606
    35  H    4.120768   1.844016   0.829570   4.675322   4.211513
    36  H    4.479305   3.822789   4.672383   3.257224   2.031734
                    6          7          8          9         10
     6  C    0.000000
     7  C    1.368904   0.000000
     8  C    2.373072   1.368321   0.000000
     9  H    3.221312   2.010987   0.940032   0.000000
    10  C    2.746087   2.383157   1.386419   2.028676   0.000000
    11  H    3.686835   3.228569   2.022821   2.322015   0.940842
    12  C    2.476062   3.744679   4.255826   5.195785   3.773268
    13  S    4.737649   5.131199   4.525931   5.160949   3.255548
    14  O    5.969876   6.450481   5.828395   6.446702   4.488010
    15  O    5.056177   5.085621   4.220974   4.637596   3.056541
    16  C    4.663932   5.309764   5.081507   5.807326   4.106430
    17  C    5.338264   6.222405   6.176371   6.974724   5.212758
    18  H    5.751843   6.672898   6.576691   7.388794   5.506301
    19  C    5.005655   5.632115   5.768347   6.428264   5.298601
    20  H    5.225485   5.722648   5.918472   6.498910   5.640024
    21  C    4.472098   4.962631   4.829563   5.475296   4.158860
    22  H    4.344568   4.575252   4.292660   4.828646   3.713656
    23  C    2.976577   4.319907   5.142854   6.052990   4.938364
    24  H    2.557755   3.812572   4.776257   5.635412   4.804950
    25  H    3.453446   4.811729   5.728066   6.631423   5.585617
    26  H    3.762645   5.056820   5.777064   6.683845   5.448793
    27  C    5.794893   6.766120   6.931019   7.739066   6.158396
    28  H    6.460029   7.516867   7.743150   8.577688   6.959906
    29  C    5.655994   6.514305   6.768004   7.513439   6.213320
    30  C    6.623222   7.517245   7.939306   8.670778   7.536691
    31  H    6.379907   7.366503   7.942212   8.709528   7.631299
    32  H    7.448563   8.376129   8.746511   9.489618   8.247111
    33  H    6.876606   7.640543   8.051138   8.712290   7.751569
    34  H    2.008794   0.939382   2.009663   2.308200   3.232742
    35  H    5.357769   6.582353   6.882227   7.802450   6.049150
    36  H    0.939307   2.005131   3.216897   3.994689   3.685378
                   11         12         13         14         15
    11  H    0.000000
    12  C    4.532192   0.000000
    13  S    3.170114   3.880975   0.000000
    14  O    4.287024   4.709680   1.457513   0.000000
    15  O    2.694192   4.850883   1.432828   2.473580   0.000000
    16  C    4.322256   3.510064   1.764032   2.603500   2.571627
    17  C    5.499295   3.591636   2.736228   2.989816   3.821803
    18  H    5.737875   3.778599   2.834420   2.660735   4.100611
    19  C    5.705357   4.343732   4.011784   4.962199   4.288630
    20  H    6.063578   4.934045   4.742132   5.782672   4.810189
    21  C    4.452298   3.918063   2.733708   3.837604   2.919813
    22  H    3.934814   4.294218   2.834471   4.101009   2.574046
    23  C    5.763693   1.507530   5.038105   5.885811   5.943470
    24  H    5.678094   2.046880   5.319501   6.343061   6.022455
    25  H    6.429066   2.047197   5.814525   6.560080   6.783038
    26  H    6.206904   2.045770   4.995280   5.739808   5.962516
    27  C    6.551755   4.066675   4.017310   4.348432   4.943054
    28  H    7.366772   4.523751   4.749332   4.877412   5.771176
    29  C    6.658961   4.432429   4.545229   5.196182   5.153269
    30  C    8.043041   5.471074   6.053305   6.666134   6.624710
    31  H    8.228510   5.203115   6.418572   7.073473   7.079471
    32  H    8.705192   6.090898   6.453526   6.877969   7.090522
    33  H    8.240123   6.040584   6.450948   7.172494   6.830977
    34  H    4.008726   4.482788   6.041247   7.378745   5.923169
    35  H    6.549690   2.911954   4.742717   4.691958   6.127403
    36  H    4.626099   2.616746   5.475795   6.666546   5.880979
                   16         17         18         19         20
    16  C    0.000000
    17  C    1.381364   0.000000
    18  H    2.022379   0.940110   0.000000
    19  C    2.388722   2.752644   3.692720   0.000000
    20  H    3.235197   3.692512   4.632580   0.939877   0.000000
    21  C    1.393678   2.403385   3.252442   1.378964   2.010545
    22  H    2.038683   3.253640   4.035500   2.024704   2.311655
    23  C    4.198242   4.049172   4.388418   4.239611   4.685713
    24  H    4.444225   4.517384   5.000100   4.112268   4.376876
    25  H    5.071719   4.803983   5.021696   5.169744   5.604494
    26  H    3.883793   3.495674   3.876769   3.738601   4.246051
    27  C    2.389160   1.376875   2.018196   2.379974   3.229274
    28  H    3.235380   2.014402   2.310680   3.230407   4.011856
    29  C    2.782725   2.407806   3.254162   1.381796   2.014719
    30  C    4.291372   3.788883   4.532725   2.519851   2.664694
    31  H    4.695524   4.136570   4.824332   3.021873   3.144334
    32  H    4.705701   3.999537   4.624359   3.218231   3.453136
    33  H    4.709889   4.442295   5.258494   2.585713   2.390946
    34  H    6.142517   7.043736   7.533106   6.221862   6.196834
    35  H    4.380389   3.583255   3.115269   5.659309   6.483195
    36  H    5.187424   5.696355   6.126854   5.243220   5.405707
                   21         22         23         24         25
    21  C    0.000000
    22  H    0.939710   0.000000
    23  C    4.294674   4.768393   0.000000
    24  H    4.242357   4.582094   0.970436   0.000000
    25  H    5.252592   5.730649   0.969752   1.584459   0.000000
    26  H    4.000382   4.627057   0.970507   1.584813   1.584155
    27  C    2.767704   3.707409   4.007009   4.405726   4.731158
    28  H    3.707995   4.647701   4.333623   4.840602   4.915315
    29  C    2.412313   3.257825   4.111180   4.207252   4.925336
    30  C    3.797383   4.542010   4.775779   4.785419   5.451473
    31  H    4.250381   4.986021   4.281830   4.282072   4.848522
    32  H    4.399427   5.195289   5.444747   5.571769   6.061628
    33  H    3.953998   4.553899   5.338066   5.187750   6.055161
    34  H    5.673047   5.248767   4.847857   4.218517   5.261324
    35  H    5.378652   6.063020   3.383528   4.333721   3.387925
    36  H    4.938954   4.906494   2.652375   2.087387   2.970868
                   26         27         28         29         30
    26  H    0.000000
    27  C    3.214147   0.000000
    28  H    3.454248   0.940310   0.000000
    29  C    3.353398   1.390901   2.026792   0.000000
    30  C    3.935180   2.517695   2.663360   1.508769   0.000000
    31  H    3.435697   2.873421   2.904583   2.047300   0.970388
    32  H    4.540164   2.659846   2.528848   2.046381   0.968645
    33  H    4.585440   3.285596   3.556904   2.047306   0.970065
    34  H    5.613586   7.489332   8.231583   7.125773   8.011840
    35  H    3.206035   4.022541   3.918905   5.090818   5.987332
    36  H    3.512128   5.965831   6.553123   5.762683   6.551473
                   31         32         33         34         35
    31  H    0.000000
    32  H    1.583707   0.000000
    33  H    1.584013   1.583958   0.000000
    34  H    7.810198   8.908853   8.065301   0.000000
    35  H    5.747376   6.186868   6.847039   7.352815   0.000000
    36  H    6.179516   7.394672   6.810125   2.297856   5.434381
                   36
    36  H    0.000000
 Stoichiometry    C15H15N2O3S(1-)
 Framework group  C1[X(C15H15N2O3S)]
 Deg. of freedom   102
 Full point group                 C1      NOp   1
 Largest Abelian subgroup         C1      NOp   1
 Largest concise Abelian subgroup C1      NOp   1
                         Standard orientation:                         
 ---------------------------------------------------------------------
 Center     Atomic      Atomic             Coordinates (Angstroms)
 Number     Number       Type             X           Y           Z
 ---------------------------------------------------------------------
      1          7           0       -1.406854    1.021655    1.052917
      2          7           0       -0.208379   -1.151385    2.153965
      3          8           0        0.859909   -1.722661    2.842146
      4          6           0       -1.990566    0.060207    0.176945
      5          6           0       -1.537263   -1.266121    0.165103
      6          6           0       -2.151882   -2.178646   -0.696473
      7          6           0       -3.171172   -1.791690   -1.524247
      8          6           0       -3.606328   -0.494413   -1.520738
      9          1           0       -4.306702   -0.231341   -2.089886
     10          6           0       -3.011669    0.429283   -0.674969
     11          1           0       -3.307550    1.322354   -0.682945
     12          6           0       -0.426391   -1.732408    1.022375
     13         16           0       -0.428805    2.097494    0.394834
     14          8           0        0.007682    2.932102    1.507152
     15          8           0       -1.023149    2.749790   -0.733998
     16          6           0        0.987591    1.235558   -0.207412
     17          6           0        2.008815    0.881599    0.652809
     18          1           0        1.972051    1.138132    1.556494
     19          6           0        2.111929    0.104734   -1.985921
     20          1           0        2.142834   -0.162471   -2.886484
     21          6           0        1.034336    0.842892   -1.543813
     22          1           0        0.341460    1.075727   -2.134378
     23          6           0        0.460877   -2.858785    0.556889
     24          1           0        0.192414   -3.135123   -0.333792
     25          1           0        0.380042   -3.608542    1.166602
     26          1           0        1.382607   -2.555596    0.537542
     27          6           0        3.079645    0.151536    0.187926
     28          1           0        3.776314   -0.076732    0.776763
     29          6           0        3.146665   -0.250620   -1.141880
     30          6           0        4.310959   -1.074320   -1.634142
     31          1           0        4.190654   -1.997935   -1.361905
     32          1           0        5.132984   -0.729580   -1.255062
     33          1           0        4.354129   -1.026122   -2.602047
     34          1           0       -3.573604   -2.420022   -2.094936
     35          1           0        1.120943   -1.199936    3.431048
     36          1           0       -1.859868   -3.071311   -0.709630
 ---------------------------------------------------------------------
 Rotational constants (GHZ):           0.3708135           0.2769233           0.2358713
 Leave Link  202 at Mon Mar  6 10:21:46 2023, MaxMem=  1048576000 cpu:               0.0 elap:               0.0
 (Enter /ssoft/spack/external/gaussian/g16-C.01/avx2/g16/l301.exe)
 Standard basis: def2SVP (5D, 7F)
 Ernie: Thresh=  0.10000D-02 Tol=  0.10000D-05 Strict=F.
 There are   394 symmetry adapted cartesian basis functions of A   symmetry.
 There are   373 symmetry adapted basis functions of A   symmetry.
   373 basis functions,   642 primitive gaussians,   394 cartesian basis functions
    80 alpha electrons       80 beta electrons
       nuclear repulsion energy      1921.6137398964 Hartrees.
 IExCor= 1009 DFT=T Ex+Corr=PBE1PBE ExCW=0 ScaHFX=  0.250000
 ScaDFX=  0.750000  0.750000  1.000000  1.000000 ScalE2=  1.000000  1.000000
 IRadAn=      5 IRanWt=     -1 IRanGd=            0 ICorTp=0 IEmpDi=141
 NAtoms=   36 NActive=   36 NUniq=   36 SFac= 1.00D+00 NAtFMM=   60 NAOKFM=F Big=F
 Integral buffers will be    131072 words long.
 Raffenetti 2 integral format.
 Two-electron integral symmetry is turned on.
 R6Disp:  Grimme-D3(BJ) Dispersion energy=       -0.0494243727 Hartrees.
 Nuclear repulsion after empirical dispersion term =     1921.5643155237 Hartrees.
 Leave Link  301 at Mon Mar  6 10:21:46 2023, MaxMem=  1048576000 cpu:               0.1 elap:               0.1
 (Enter /ssoft/spack/external/gaussian/g16-C.01/avx2/g16/l302.exe)
 NPDir=0 NMtPBC=     1 NCelOv=     1 NCel=       1 NClECP=     1 NCelD=      1
         NCelK=      1 NCelE2=     1 NClLst=     1 CellRange=     0.0.
 One-electron integrals computed using PRISM.
 One-electron integral symmetry used in STVInt
   1 Symmetry operations used in ECPInt.
 ECPInt:  NShTT=   15051 NPrTT=   55939 LenC2=   14147 LenP2D=   36662.
 LDataN:  DoStor=T MaxTD1= 4 Len=   56
 NBasis=   373 RedAO= T EigKep=  2.18D-04  NBF=   373
 NBsUse=   373 1.00D-06 EigRej= -1.00D+00 NBFU=   373
 Precomputing XC quadrature grid using
 IXCGrd= 4 IRadAn=           5 IRanWt=          -1 IRanGd=           0 AccXCQ= 0.00D+00.
 Generated NRdTot=       0 NPtTot=           0 NUsed=           0 NTot=          32
 NSgBfM=   392   392   392   392   392 MxSgAt=    36 MxSgA2=    36.
 Leave Link  302 at Mon Mar  6 10:21:47 2023, MaxMem=  1048576000 cpu:               1.1 elap:               1.1
 (Enter /ssoft/spack/external/gaussian/g16-C.01/avx2/g16/l303.exe)
 DipDrv:  MaxL=1.
 Leave Link  303 at Mon Mar  6 10:21:47 2023, MaxMem=  1048576000 cpu:               0.1 elap:               0.0
 (Enter /ssoft/spack/external/gaussian/g16-C.01/avx2/g16/l401.exe)
 ExpMin= 1.22D-01 ExpMax= 9.18D+03 ExpMxC= 1.38D+03 IAcc=3 IRadAn=         5 AccDes= 0.00D+00
 Harris functional with IExCor= 1009 and IRadAn=       5 diagonalized for initial guess.
 HarFok:  IExCor= 1009 AccDes= 0.00D+00 IRadAn=         5 IDoV= 1 UseB2=F ITyADJ=14
 ICtDFT=  3500011 ScaDFX=  1.000000  1.000000  1.000000  1.000000
 FoFCou: FMM=F IPFlag=           0 FMFlag=      100000 FMFlg1=           0
         NFxFlg=           0 DoJE=T BraDBF=F KetDBF=T FulRan=T
         wScrn=  0.000000 ICntrl=       500 IOpCl=  0 I1Cent=   200000004 NGrid=           0
         NMat0=    1 NMatS0=      1 NMatT0=    0 NMatD0=    1 NMtDS0=    0 NMtDT0=    0
 Petite list used in FoFCou.
 Harris En= -1312.25885042268    
 JPrj=0 DoOrth=F DoCkMO=F.
 Leave Link  401 at Mon Mar  6 10:21:58 2023, MaxMem=  1048576000 cpu:              11.3 elap:              11.4
 (Enter /ssoft/spack/external/gaussian/g16-C.01/avx2/g16/l502.exe)
 Integral symmetry usage will be decided dynamically.
 Closed shell SCF:
 Using DIIS extrapolation, IDIIS=  1040.
 NGot=  1048576000 LenX=  1048258144 LenY=  1048102467
 Requested convergence on RMS density matrix=1.00D-08 within 128 cycles.
 Requested convergence on MAX density matrix=1.00D-06.
 Requested convergence on             energy=1.00D-06.
 No special actions if energy rises.
 Fock matrices will be formed incrementally for  20 cycles.
 Integral accuracy reduced to 1.0D-05 until final iterations.

 Cycle   1  Pass 0  IDiag  1:
 FoFJK:  IHMeth= 1 ICntrl=       0 DoSepK=F KAlg= 0 I1Cent=           0 FoldK=F
 IRaf= 880000000 NMat=       1 IRICut=       1 DoRegI=T DoRafI=F ISym2E= 0 IDoP0=0 IntGTp=1.
 FoFCou: FMM=F IPFlag=           0 FMFlag=      100000 FMFlg1=           0
         NFxFlg=           0 DoJE=F BraDBF=F KetDBF=F FulRan=T
         wScrn=  0.000000 ICntrl=         0 IOpCl=  0 I1Cent=           0 NGrid=           0
         NMat0=    1 NMatS0=      1 NMatT0=    0 NMatD0=    1 NMtDS0=    0 NMtDT0=    0
 Symmetry not used in FoFCou.
 E= -1311.02684605816    
 DIIS: error= 2.96D-02 at cycle   1 NSaved=   1.
 NSaved= 1 IEnMin= 1 EnMin= -1311.02684605816     IErMin= 1 ErrMin= 2.96D-02
 ErrMax= 2.96D-02  0.00D+00 EMaxC= 1.00D-01 BMatC= 7.28D-01 BMatP= 7.28D-01
 IDIUse=3 WtCom= 7.04D-01 WtEn= 2.96D-01
 Coeff-Com:  0.100D+01
 Coeff-En:   0.100D+01
 Coeff:      0.100D+01
 Gap=     0.167 Goal=   None    Shift=    0.000
 GapD=    0.167 DampG=1.000 DampE=0.500 DampFc=0.5000 IDamp=-1.
 Damping current iteration by 5.00D-01
 RMSDP=6.17D-03 MaxDP=4.14D-01              OVMax= 2.21D-01

 Cycle   2  Pass 0  IDiag  1:
 RMSU=  3.02D-03    CP:  9.70D-01
 E= -1311.30380191911     Delta-E=       -0.276955860958 Rises=F Damp=T
 DIIS: error= 8.44D-03 at cycle   2 NSaved=   2.
 NSaved= 2 IEnMin= 2 EnMin= -1311.30380191911     IErMin= 2 ErrMin= 8.44D-03
 ErrMax= 8.44D-03  0.00D+00 EMaxC= 1.00D-01 BMatC= 5.92D-02 BMatP= 7.28D-01
 IDIUse=3 WtCom= 9.16D-01 WtEn= 8.44D-02
 Coeff-Com:  0.116D+00 0.884D+00
 Coeff-En:   0.167D+00 0.833D+00
 Coeff:      0.120D+00 0.880D+00
 Gap=     0.162 Goal=   None    Shift=    0.000
 RMSDP=2.27D-03 MaxDP=1.19D-01 DE=-2.77D-01 OVMax= 1.61D-01

 Cycle   3  Pass 0  IDiag  1:
 RMSU=  2.18D-03    CP:  9.40D-01  9.58D-01
 E= -1311.65198712593     Delta-E=       -0.348185206813 Rises=F Damp=F
 DIIS: error= 9.05D-03 at cycle   3 NSaved=   3.
 NSaved= 3 IEnMin= 3 EnMin= -1311.65198712593     IErMin= 2 ErrMin= 8.44D-03
 ErrMax= 9.05D-03  0.00D+00 EMaxC= 1.00D-01 BMatC= 6.33D-02 BMatP= 5.92D-02
 IDIUse=3 WtCom= 9.10D-01 WtEn= 9.05D-02
 Coeff-Com:  0.549D-02 0.509D+00 0.486D+00
 Coeff-En:   0.000D+00 0.000D+00 0.100D+01
 Coeff:      0.499D-02 0.463D+00 0.532D+00
 Gap=     0.160 Goal=   None    Shift=    0.000
 RMSDP=1.28D-03 MaxDP=5.87D-02 DE=-3.48D-01 OVMax= 6.50D-02

 Cycle   4  Pass 0  IDiag  1:
 RMSU=  7.96D-04    CP:  9.46D-01  1.02D+00  5.55D-01
 E= -1311.70176137857     Delta-E=       -0.049774252638 Rises=F Damp=F
 DIIS: error= 4.41D-03 at cycle   4 NSaved=   4.
 NSaved= 4 IEnMin= 4 EnMin= -1311.70176137857     IErMin= 4 ErrMin= 4.41D-03
 ErrMax= 4.41D-03  0.00D+00 EMaxC= 1.00D-01 BMatC= 9.85D-03 BMatP= 5.92D-02
 IDIUse=3 WtCom= 9.56D-01 WtEn= 4.41D-02
 Coeff-Com: -0.356D-02 0.164D+00 0.311D+00 0.529D+00
 Coeff-En:   0.000D+00 0.000D+00 0.144D+00 0.856D+00
 Coeff:     -0.341D-02 0.156D+00 0.304D+00 0.543D+00
 Gap=     0.143 Goal=   None    Shift=    0.000
 RMSDP=4.54D-04 MaxDP=2.20D-02 DE=-4.98D-02 OVMax= 3.19D-02

 Cycle   5  Pass 0  IDiag  1:
 RMSU=  2.38D-04    CP:  9.45D-01  1.02D+00  6.73D-01  6.41D-01
 E= -1311.71021378361     Delta-E=       -0.008452405045 Rises=F Damp=F
 DIIS: error= 1.47D-03 at cycle   5 NSaved=   5.
 NSaved= 5 IEnMin= 5 EnMin= -1311.71021378361     IErMin= 5 ErrMin= 1.47D-03
 ErrMax= 1.47D-03  0.00D+00 EMaxC= 1.00D-01 BMatC= 1.30D-03 BMatP= 9.85D-03
 IDIUse=3 WtCom= 9.85D-01 WtEn= 1.47D-02
 Coeff-Com: -0.313D-02 0.336D-01 0.117D+00 0.337D+00 0.516D+00
 Coeff-En:   0.000D+00 0.000D+00 0.000D+00 0.121D+00 0.879D+00
 Coeff:     -0.308D-02 0.331D-01 0.116D+00 0.333D+00 0.521D+00
 Gap=     0.150 Goal=   None    Shift=    0.000
 RMSDP=1.60D-04 MaxDP=5.70D-03 DE=-8.45D-03 OVMax= 1.48D-02

 Cycle   6  Pass 0  IDiag  1:
 RMSU=  9.97D-05    CP:  9.44D-01  1.01D+00  6.60D-01  7.17D-01  5.69D-01
 E= -1311.71150341619     Delta-E=       -0.001289632578 Rises=F Damp=F
 DIIS: error= 2.41D-04 at cycle   6 NSaved=   6.
 NSaved= 6 IEnMin= 6 EnMin= -1311.71150341619     IErMin= 6 ErrMin= 2.41D-04
 ErrMax= 2.41D-04  0.00D+00 EMaxC= 1.00D-01 BMatC= 9.10D-05 BMatP= 1.30D-03
 IDIUse=3 WtCom= 9.98D-01 WtEn= 2.41D-03
 Coeff-Com: -0.147D-02 0.522D-02 0.356D-01 0.130D+00 0.289D+00 0.541D+00
 Coeff-En:   0.000D+00 0.000D+00 0.000D+00 0.000D+00 0.209D-02 0.998D+00
 Coeff:     -0.147D-02 0.521D-02 0.355D-01 0.130D+00 0.288D+00 0.543D+00
 Gap=     0.148 Goal=   None    Shift=    0.000
 RMSDP=4.90D-05 MaxDP=1.81D-03 DE=-1.29D-03 OVMax= 4.43D-03

 Cycle   7  Pass 0  IDiag  1:
 RMSU=  2.38D-05    CP:  9.44D-01  1.02D+00  6.63D-01  7.12D-01  6.30D-01
                    CP:  6.12D-01
 E= -1311.71158905159     Delta-E=       -0.000085635396 Rises=F Damp=F
 DIIS: error= 1.35D-04 at cycle   7 NSaved=   7.
 NSaved= 7 IEnMin= 7 EnMin= -1311.71158905159     IErMin= 7 ErrMin= 1.35D-04
 ErrMax= 1.35D-04  0.00D+00 EMaxC= 1.00D-01 BMatC= 1.05D-05 BMatP= 9.10D-05
 IDIUse=3 WtCom= 9.99D-01 WtEn= 1.35D-03
 Coeff-Com: -0.605D-03-0.969D-04 0.998D-02 0.453D-01 0.124D+00 0.323D+00
 Coeff-Com:  0.499D+00
 Coeff-En:   0.000D+00 0.000D+00 0.000D+00 0.000D+00 0.000D+00 0.311D-01
 Coeff-En:   0.969D+00
 Coeff:     -0.604D-03-0.967D-04 0.996D-02 0.452D-01 0.124D+00 0.322D+00
 Coeff:      0.500D+00
 Gap=     0.148 Goal=   None    Shift=    0.000
 RMSDP=1.34D-05 MaxDP=4.33D-04 DE=-8.56D-05 OVMax= 9.55D-04

 Cycle   8  Pass 0  IDiag  1:
 RMSU=  8.39D-06    CP:  9.44D-01  1.02D+00  6.63D-01  7.14D-01  6.27D-01
                    CP:  6.50D-01  5.95D-01
 E= -1311.71160021334     Delta-E=       -0.000011161751 Rises=F Damp=F
 DIIS: error= 4.15D-05 at cycle   8 NSaved=   8.
 NSaved= 8 IEnMin= 8 EnMin= -1311.71160021334     IErMin= 8 ErrMin= 4.15D-05
 ErrMax= 4.15D-05  0.00D+00 EMaxC= 1.00D-01 BMatC= 8.18D-07 BMatP= 1.05D-05
 IDIUse=1 WtCom= 1.00D+00 WtEn= 0.00D+00
 Coeff-Com: -0.193D-03-0.725D-03 0.158D-02 0.112D-01 0.387D-01 0.123D+00
 Coeff-Com:  0.279D+00 0.547D+00
 Coeff:     -0.193D-03-0.725D-03 0.158D-02 0.112D-01 0.387D-01 0.123D+00
 Coeff:      0.279D+00 0.547D+00
 Gap=     0.148 Goal=   None    Shift=    0.000
 RMSDP=4.01D-06 MaxDP=1.59D-04 DE=-1.12D-05 OVMax= 2.44D-04

 Initial convergence to 1.0D-05 achieved.  Increase integral accuracy.
 Cycle   9  Pass 1  IDiag  1:
 E= -1311.71163285697     Delta-E=       -0.000032643629 Rises=F Damp=F
 DIIS: error= 1.12D-04 at cycle   1 NSaved=   1.
 NSaved= 1 IEnMin= 1 EnMin= -1311.71163285697     IErMin= 1 ErrMin= 1.12D-04
 ErrMax= 1.12D-04  0.00D+00 EMaxC= 1.00D-01 BMatC= 2.17D-06 BMatP= 2.17D-06
 IDIUse=3 WtCom= 9.99D-01 WtEn= 1.12D-03
 Coeff-Com:  0.100D+01
 Coeff-En:   0.100D+01
 Coeff:      0.100D+01
 Gap=     0.148 Goal=   None    Shift=    0.000
 RMSDP=4.01D-06 MaxDP=1.59D-04 DE=-3.26D-05 OVMax= 2.22D-04

 Cycle  10  Pass 1  IDiag  1:
 RMSU=  1.15D-04    CP:  1.00D+00
 E= -1311.71163467886     Delta-E=       -0.000001821890 Rises=F Damp=F
 DIIS: error= 1.13D-05 at cycle   2 NSaved=   2.
 NSaved= 2 IEnMin= 2 EnMin= -1311.71163467886     IErMin= 2 ErrMin= 1.13D-05
 ErrMax= 1.13D-05  0.00D+00 EMaxC= 1.00D-01 BMatC= 1.32D-07 BMatP= 2.17D-06
 IDIUse=1 WtCom= 1.00D+00 WtEn= 0.00D+00
 Coeff-Com:  0.760D-01 0.924D+00
 Coeff:      0.760D-01 0.924D+00
 Gap=     0.148 Goal=   None    Shift=    0.000
 RMSDP=3.71D-06 MaxDP=1.04D-04 DE=-1.82D-06 OVMax= 2.15D-04

 Cycle  11  Pass 1  IDiag  1:
 RMSU=  3.32D-06    CP:  1.00D+00  1.01D+00
 E= -1311.71163444220     Delta-E=        0.000000236660 Rises=F Damp=F
 DIIS: error= 2.03D-05 at cycle   3 NSaved=   3.
 NSaved= 3 IEnMin= 2 EnMin= -1311.71163467886     IErMin= 2 ErrMin= 1.13D-05
 ErrMax= 2.03D-05  0.00D+00 EMaxC= 1.00D-01 BMatC= 3.62D-07 BMatP= 1.32D-07
 IDIUse=1 WtCom= 1.00D+00 WtEn= 0.00D+00
 Coeff-Com: -0.431D-02 0.627D+00 0.377D+00
 Coeff:     -0.431D-02 0.627D+00 0.377D+00
 Gap=     0.148 Goal=   None    Shift=    0.000
 RMSDP=2.12D-06 MaxDP=7.03D-05 DE= 2.37D-07 OVMax= 1.34D-04

 Cycle  12  Pass 1  IDiag  1:
 RMSU=  5.66D-07    CP:  1.00D+00  1.02D+00  3.89D-01
 E= -1311.71163481045     Delta-E=       -0.000000368256 Rises=F Damp=F
 DIIS: error= 2.47D-06 at cycle   4 NSaved=   4.
 NSaved= 4 IEnMin= 4 EnMin= -1311.71163481045     IErMin= 4 ErrMin= 2.47D-06
 ErrMax= 2.47D-06  0.00D+00 EMaxC= 1.00D-01 BMatC= 4.59D-09 BMatP= 1.32D-07
 IDIUse=1 WtCom= 1.00D+00 WtEn= 0.00D+00
 Coeff-Com: -0.407D-02 0.354D+00 0.225D+00 0.425D+00
 Coeff:     -0.407D-02 0.354D+00 0.225D+00 0.425D+00
 Gap=     0.148 Goal=   None    Shift=    0.000
 RMSDP=2.75D-07 MaxDP=1.18D-05 DE=-3.68D-07 OVMax= 1.27D-05

 Cycle  13  Pass 1  IDiag  1:
 RMSU=  1.87D-07    CP:  1.00D+00  1.02D+00  4.01D-01  6.54D-01
 E= -1311.71163481463     Delta-E=       -0.000000004174 Rises=F Damp=F
 DIIS: error= 2.99D-07 at cycle   5 NSaved=   5.
 NSaved= 5 IEnMin= 5 EnMin= -1311.71163481463     IErMin= 5 ErrMin= 2.99D-07
 ErrMax= 2.99D-07  0.00D+00 EMaxC= 1.00D-01 BMatC= 1.15D-10 BMatP= 4.59D-09
 IDIUse=1 WtCom= 1.00D+00 WtEn= 0.00D+00
 Coeff-Com: -0.192D-02 0.156D+00 0.101D+00 0.219D+00 0.525D+00
 Coeff:     -0.192D-02 0.156D+00 0.101D+00 0.219D+00 0.525D+00
 Gap=     0.148 Goal=   None    Shift=    0.000
 RMSDP=5.00D-08 MaxDP=2.72D-06 DE=-4.17D-09 OVMax= 2.98D-06

 Cycle  14  Pass 1  IDiag  1:
 RMSU=  4.43D-08    CP:  1.00D+00  1.02D+00  4.02D-01  6.76D-01  9.07D-01
 E= -1311.71163481476     Delta-E=       -0.000000000136 Rises=F Damp=F
 DIIS: error= 1.07D-07 at cycle   6 NSaved=   6.
 NSaved= 6 IEnMin= 6 EnMin= -1311.71163481476     IErMin= 6 ErrMin= 1.07D-07
 ErrMax= 1.07D-07  0.00D+00 EMaxC= 1.00D-01 BMatC= 1.12D-11 BMatP= 1.15D-10
 IDIUse=1 WtCom= 1.00D+00 WtEn= 0.00D+00
 Coeff-Com: -0.210D-03 0.130D-01 0.964D-02 0.296D-01 0.243D+00 0.705D+00
 Coeff:     -0.210D-03 0.130D-01 0.964D-02 0.296D-01 0.243D+00 0.705D+00
 Gap=     0.148 Goal=   None    Shift=    0.000
 RMSDP=1.82D-08 MaxDP=7.88D-07 DE=-1.36D-10 OVMax= 2.21D-06

 Cycle  15  Pass 1  IDiag  1:
 RMSU=  1.45D-08    CP:  1.00D+00  1.02D+00  4.02D-01  6.83D-01  9.41D-01
                    CP:  8.41D-01
 E= -1311.71163481477     Delta-E=       -0.000000000013 Rises=F Damp=F
 DIIS: error= 3.86D-08 at cycle   7 NSaved=   7.
 NSaved= 7 IEnMin= 7 EnMin= -1311.71163481477     IErMin= 7 ErrMin= 3.86D-08
 ErrMax= 3.86D-08  0.00D+00 EMaxC= 1.00D-01 BMatC= 2.01D-12 BMatP= 1.12D-11
 IDIUse=1 WtCom= 1.00D+00 WtEn= 0.00D+00
 Coeff-Com:  0.123D-03-0.122D-01-0.707D-02-0.107D-01 0.634D-01 0.373D+00
 Coeff-Com:  0.593D+00
 Coeff:      0.123D-03-0.122D-01-0.707D-02-0.107D-01 0.634D-01 0.373D+00
 Coeff:      0.593D+00
 Gap=     0.148 Goal=   None    Shift=    0.000
 RMSDP=7.45D-09 MaxDP=2.00D-07 DE=-1.27D-11 OVMax= 4.58D-07

 SCF Done:  E(RPBE1PBE) =  -1311.71163481     A.U. after   15 cycles
            NFock= 15  Conv=0.75D-08     -V/T= 2.0038
 KE= 1.306717163384D+03 PE=-6.942287943003D+03 EE= 2.402294829280D+03
 Leave Link  502 at Mon Mar  6 10:28:20 2023, MaxMem=  1048576000 cpu:             378.4 elap:             381.3
 (Enter /ssoft/spack/external/gaussian/g16-C.01/avx2/g16/l801.exe)
 DoSCS=F DFT=T ScalE2(SS,OS)=  1.000000  1.000000
 Range of M.O.s used for correlation:     1   373
 NBasis=   373 NAE=    80 NBE=    80 NFC=     0 NFV=     0
 NROrb=    373 NOA=    80 NOB=    80 NVA=   293 NVB=   293

 **** Warning!!: The largest alpha MO coefficient is  0.12334103D+02

 Leave Link  801 at Mon Mar  6 10:28:20 2023, MaxMem=  1048576000 cpu:               0.0 elap:               0.0
 (Enter /ssoft/spack/external/gaussian/g16-C.01/avx2/g16/l1101.exe)
 Using compressed storage, NAtomX=    36.
 Will process     37 centers per pass.
   1 Symmetry operations used in ECPInt.
 ECPInt:  NShTT=   15051 NPrTT=   55939 LenC2=   14147 LenP2D=   36662.
 LDataN:  DoStor=T MaxTD1= 5 Len=  102
 R6Disp: Adding Grimme-D3(BJ) dispersion energy 1st derivatives to the gradient.
 Leave Link 1101 at Mon Mar  6 10:28:21 2023, MaxMem=  1048576000 cpu:               0.6 elap:               0.7
 (Enter /ssoft/spack/external/gaussian/g16-C.01/avx2/g16/l1102.exe)
 Symmetrizing basis deriv contribution to polar:
 IMax=3 JMax=2 DiffMx= 0.00D+00
 Leave Link 1102 at Mon Mar  6 10:28:21 2023, MaxMem=  1048576000 cpu:               0.1 elap:               0.1
 (Enter /ssoft/spack/external/gaussian/g16-C.01/avx2/g16/l1110.exe)
 Forming Gx(P) for the SCF density, NAtomX=    36.
 Integral derivatives from FoFJK, PRISM(SPDF).
 Do as many integral derivatives as possible in FoFJK.
 G2DrvN: MDV=    1048572156.
 G2DrvN: will do    37 centers at a time, making    1 passes.
 Calling FoFCou, ICntrl=  3107 FMM=F I1Cent=   0 AccDes= 0.00D+00.
 FoFJK:  IHMeth= 1 ICntrl=    3107 DoSepK=F KAlg= 0 I1Cent=           0 FoldK=F
 IRaf=         0 NMat=       1 IRICut=       1 DoRegI=T DoRafI=F ISym2E= 0 IDoP0=0 IntGTp=1.
 FoFCou: FMM=F IPFlag=           0 FMFlag=      100000 FMFlg1=           0
         NFxFlg=           0 DoJE=F BraDBF=F KetDBF=F FulRan=T
         wScrn=  0.000000 ICntrl=      3107 IOpCl=  0 I1Cent=           0 NGrid=           0
         NMat0=    1 NMatS0=      1 NMatT0=    0 NMatD0=    1 NMtDS0=    0 NMtDT0=    0
 Symmetry not used in FoFCou.
 End of G2Drv F.D. properties file   721 does not exist.
 End of G2Drv F.D. properties file   722 does not exist.
 End of G2Drv F.D. properties file   788 does not exist.
 Leave Link 1110 at Mon Mar  6 10:44:29 2023, MaxMem=  1048576000 cpu:             964.2 elap:             968.0
 (Enter /ssoft/spack/external/gaussian/g16-C.01/avx2/g16/l1002.exe)
 Minotr:  Closed shell wavefunction.
          IDoAtm=111111111111111111111111111111111111
          Direct CPHF calculation.
          Differentiating once with respect to electric field.
                with respect to dipole field.
          Differentiating once with respect to nuclear coordinates.
          Requested convergence is 1.0D-08 RMS, and 1.0D-07 maximum.
          Secondary convergence is 1.0D-12 RMS, and 1.0D-12 maximum.
          NewPWx=T KeepS1=F KeepF1=F KeepIn=T MapXYZ=F SortEE=F KeepMc=T.
        10841 words used for storage of precomputed grid.
 Two-electron integrals replicated using symmetry.
          MDV=    1048576000 using IRadAn=       1.
          Solving linear equations simultaneously, MaxMat=     384.
 FoF2E skips out because all densities are zero.
 CalDSu exits because no D1Ps are significant.
 FoFJK:  IHMeth= 1 ICntrl=       0 DoSepK=F KAlg= 0 I1Cent=           0 FoldK=F
 IRaf= 860000000 NMat=     108 IRICut=     270 DoRegI=T DoRafI=T ISym2E= 2 IDoP0=3 IntGTp=3.
 FoFCou: FMM=F IPFlag=           0 FMFlag=      100000 FMFlg1=           0
         NFxFlg=           0 DoJE=F BraDBF=F KetDBF=F FulRan=T
         wScrn=  0.000000 ICntrl=         0 IOpCl=  0 I1Cent=           0 NGrid=           0
         NMat0=  108 NMatS0=    108 NMatT0=    0 NMatD0=  108 NMtDS0=    0 NMtDT0=    0
 Integrals replicated using symmetry in FoFCou.
 Raff kept on since  81.71% of shell-pairs survive, threshold=   0.20 IRatSp=82.
          There are   111 degrees of freedom in the 1st order CPHF.  IDoFFX=6 NUNeed=     3.
    108 vectors produced by pass  0 Test12= 2.34D-14 1.00D-09 XBig12= 2.33D+02 4.84D+00.
 AX will form   108 AO Fock derivatives at one time.
    108 vectors produced by pass  1 Test12= 2.34D-14 1.00D-09 XBig12= 4.79D+01 8.20D-01.
    108 vectors produced by pass  2 Test12= 2.34D-14 1.00D-09 XBig12= 4.75D-01 6.97D-02.
    108 vectors produced by pass  3 Test12= 2.34D-14 1.00D-09 XBig12= 2.63D-03 4.01D-03.
    108 vectors produced by pass  4 Test12= 2.34D-14 1.00D-09 XBig12= 8.44D-06 2.49D-04.
    103 vectors produced by pass  5 Test12= 2.34D-14 1.00D-09 XBig12= 1.47D-08 8.38D-06.
     38 vectors produced by pass  6 Test12= 2.34D-14 1.00D-09 XBig12= 1.93D-11 3.07D-07.
      3 vectors produced by pass  7 Test12= 2.34D-14 1.00D-09 XBig12= 2.16D-14 9.82D-09.
      1 vectors produced by pass  8 Test12= 2.34D-14 1.00D-09 XBig12= 1.54D-16 1.16D-09.
 InvSVY:  IOpt=1 It=  1 EMax= 8.88D-15
 Solved reduced A of dimension   685 with   111 vectors.
 FullF1:  Do perturbations      1 to       3.
 Isotropic polarizability for W=    0.000000      185.55 Bohr**3.
 End of Minotr F.D. properties file   721 does not exist.
 End of Minotr F.D. properties file   722 does not exist.
 End of Minotr F.D. properties file   788 does not exist.
 Leave Link 1002 at Mon Mar  6 11:14:33 2023, MaxMem=  1048576000 cpu:            1797.7 elap:            1804.1
 (Enter /ssoft/spack/external/gaussian/g16-C.01/avx2/g16/l601.exe)
 Copying SCF densities to generalized density rwf, IOpCl= 0 IROHF=0.

 **********************************************************************

            Population analysis using the SCF Density.

 **********************************************************************

 Orbital symmetries:
       Occupied  (A) (A) (A) (A) (A) (A) (A) (A) (A) (A) (A) (A)
                 (A) (A) (A) (A) (A) (A) (A) (A) (A) (A) (A) (A)
                 (A) (A) (A) (A) (A) (A) (A) (A) (A) (A) (A) (A)
                 (A) (A) (A) (A) (A) (A) (A) (A) (A) (A) (A) (A)
                 (A) (A) (A) (A) (A) (A) (A) (A) (A) (A) (A) (A)
                 (A) (A) (A) (A) (A) (A) (A) (A) (A) (A) (A) (A)
                 (A) (A) (A) (A) (A) (A) (A) (A)
       Virtual   (A) (A) (A) (A) (A) (A) (A) (A) (A) (A) (A) (A)
                 (A) (A) (A) (A) (A) (A) (A) (A) (A) (A) (A) (A)
                 (A) (A) (A) (A) (A) (A) (A) (A) (A) (A) (A) (A)
                 (A) (A) (A) (A) (A) (A) (A) (A) (A) (A) (A) (A)
                 (A) (A) (A) (A) (A) (A) (A) (A) (A) (A) (A) (A)
                 (A) (A) (A) (A) (A) (A) (A) (A) (A) (A) (A) (A)
                 (A) (A) (A) (A) (A) (A) (A) (A) (A) (A) (A) (A)
                 (A) (A) (A) (A) (A) (A) (A) (A) (A) (A) (A) (A)
                 (A) (A) (A) (A) (A) (A) (A) (A) (A) (A) (A) (A)
                 (A) (A) (A) (A) (A) (A) (A) (A) (A) (A) (A) (A)
                 (A) (A) (A) (A) (A) (A) (A) (A) (A) (A) (A) (A)
                 (A) (A) (A) (A) (A) (A) (A) (A) (A) (A) (A) (A)
                 (A) (A) (A) (A) (A) (A) (A) (A) (A) (A) (A) (A)
                 (A) (A) (A) (A) (A) (A) (A) (A) (A) (A) (A) (A)
                 (A) (A) (A) (A) (A) (A) (A) (A) (A) (A) (A) (A)
                 (A) (A) (A) (A) (A) (A) (A) (A) (A) (A) (A) (A)
                 (A) (A) (A) (A) (A) (A) (A) (A) (A) (A) (A) (A)
                 (A) (A) (A) (A) (A) (A) (A) (A) (A) (A) (A) (A)
                 (A) (A) (A) (A) (A) (A) (A) (A) (A) (A) (A) (A)
                 (A) (A) (A) (A) (A) (A) (A) (A) (A) (A) (A) (A)
                 (A) (A) (A) (A) (A) (A) (A) (A) (A) (A) (A) (A)
                 (A) (A) (A) (A) (A) (A) (A) (A) (A) (A) (A) (A)
                 (A) (A) (A) (A) (A) (A) (A) (A) (A) (A) (A) (A)
                 (A) (A) (A) (A) (A) (A) (A) (A) (A) (A) (A) (A)
                 (A) (A) (A) (A) (A)
 The electronic state is 1-A.
 Alpha  occ. eigenvalues --  -89.03719 -19.11069 -19.00916 -18.99769 -14.29547
 Alpha  occ. eigenvalues --  -14.17037 -10.14279 -10.13268 -10.12260 -10.11657
 Alpha  occ. eigenvalues --  -10.10821 -10.10749 -10.10748 -10.10654 -10.10598
 Alpha  occ. eigenvalues --  -10.10546 -10.09515 -10.09039 -10.08683 -10.08354
 Alpha  occ. eigenvalues --  -10.07478  -8.00425  -5.94631  -5.94556  -5.94492
 Alpha  occ. eigenvalues --   -0.99538  -0.95645  -0.83099  -0.78474  -0.77706
 Alpha  occ. eigenvalues --   -0.75303  -0.71698  -0.70289  -0.66855  -0.65995
 Alpha  occ. eigenvalues --   -0.63857  -0.63164  -0.61578  -0.53563  -0.53461
 Alpha  occ. eigenvalues --   -0.52237  -0.50391  -0.47839  -0.46466  -0.42964
 Alpha  occ. eigenvalues --   -0.40258  -0.39283  -0.38794  -0.38012  -0.37205
 Alpha  occ. eigenvalues --   -0.36869  -0.35807  -0.35388  -0.34401  -0.34094
 Alpha  occ. eigenvalues --   -0.33145  -0.32766  -0.31827  -0.31148  -0.29890
 Alpha  occ. eigenvalues --   -0.28690  -0.28338  -0.27052  -0.26573  -0.26423
 Alpha  occ. eigenvalues --   -0.25416  -0.25229  -0.24158  -0.18835  -0.17999
 Alpha  occ. eigenvalues --   -0.16893  -0.16052  -0.15712  -0.15088  -0.14601
 Alpha  occ. eigenvalues --   -0.13334  -0.12084  -0.11842  -0.07521  -0.05162
 Alpha virt. eigenvalues --    0.09655   0.10665   0.11217   0.13762   0.16582
 Alpha virt. eigenvalues --    0.18059   0.19618   0.20355   0.21363   0.22080
 Alpha virt. eigenvalues --    0.23667   0.23845   0.25152   0.26653   0.27146
 Alpha virt. eigenvalues --    0.27357   0.28431   0.28702   0.29680   0.30231
 Alpha virt. eigenvalues --    0.30764   0.31500   0.31888   0.32852   0.33289
 Alpha virt. eigenvalues --    0.33475   0.35770   0.36369   0.38653   0.39387
 Alpha virt. eigenvalues --    0.41256   0.42157   0.42458   0.43359   0.43829
 Alpha virt. eigenvalues --    0.45508   0.45648   0.46061   0.48413   0.49814
 Alpha virt. eigenvalues --    0.50542   0.51755   0.52997   0.53416   0.54702
 Alpha virt. eigenvalues --    0.56755   0.57291   0.58070   0.58651   0.59307
 Alpha virt. eigenvalues --    0.59691   0.60728   0.61735   0.62689   0.63316
 Alpha virt. eigenvalues --    0.64246   0.65044   0.66036   0.66242   0.66808
 Alpha virt. eigenvalues --    0.68168   0.69120   0.69723   0.70129   0.71664
 Alpha virt. eigenvalues --    0.72471   0.73028   0.73951   0.75215   0.75659
 Alpha virt. eigenvalues --    0.76141   0.77256   0.78264   0.78996   0.80227
 Alpha virt. eigenvalues --    0.81305   0.82286   0.83127   0.83939   0.84252
 Alpha virt. eigenvalues --    0.84604   0.85060   0.85519   0.85663   0.86640
 Alpha virt. eigenvalues --    0.87103   0.87360   0.87697   0.88150   0.88318
 Alpha virt. eigenvalues --    0.89225   0.89485   0.90523   0.90830   0.91769
 Alpha virt. eigenvalues --    0.92004   0.92310   0.92710   0.94104   0.94266
 Alpha virt. eigenvalues --    0.95871   0.97041   0.97829   0.98731   0.98775
 Alpha virt. eigenvalues --    0.99825   1.00417   1.00726   1.03607   1.04098
 Alpha virt. eigenvalues --    1.04575   1.06613   1.08063   1.09783   1.10094
 Alpha virt. eigenvalues --    1.11380   1.12401   1.13694   1.14458   1.15364
 Alpha virt. eigenvalues --    1.16768   1.18713   1.19128   1.19762   1.23369
 Alpha virt. eigenvalues --    1.25051   1.25967   1.28104   1.28760   1.30192
 Alpha virt. eigenvalues --    1.31359   1.33593   1.34979   1.35364   1.35779
 Alpha virt. eigenvalues --    1.36660   1.37505   1.37846   1.38690   1.40592
 Alpha virt. eigenvalues --    1.41084   1.42345   1.42637   1.43539   1.44073
 Alpha virt. eigenvalues --    1.46004   1.46355   1.47700   1.48016   1.48794
 Alpha virt. eigenvalues --    1.51071   1.53004   1.55149   1.58981   1.59614
 Alpha virt. eigenvalues --    1.60927   1.61972   1.63014   1.64613   1.66432
 Alpha virt. eigenvalues --    1.67722   1.71159   1.72965   1.73266   1.75595
 Alpha virt. eigenvalues --    1.77328   1.78267   1.79524   1.82534   1.84491
 Alpha virt. eigenvalues --    1.85349   1.86776   1.87238   1.89059   1.90129
 Alpha virt. eigenvalues --    1.90642   1.91830   1.92854   1.93725   1.94278
 Alpha virt. eigenvalues --    1.96135   1.96893   1.97650   1.99583   2.00767
 Alpha virt. eigenvalues --    2.01495   2.02336   2.03013   2.04185   2.04558
 Alpha virt. eigenvalues --    2.05545   2.06661   2.07023   2.08729   2.10294
 Alpha virt. eigenvalues --    2.12581   2.14374   2.15022   2.17059   2.18609
 Alpha virt. eigenvalues --    2.20345   2.20869   2.22944   2.23437   2.27346
 Alpha virt. eigenvalues --    2.28351   2.28978   2.30389   2.31212   2.31659
 Alpha virt. eigenvalues --    2.31840   2.32843   2.35243   2.35462   2.36475
 Alpha virt. eigenvalues --    2.37201   2.39332   2.41939   2.42979   2.45050
 Alpha virt. eigenvalues --    2.45778   2.46568   2.47495   2.47828   2.48744
 Alpha virt. eigenvalues --    2.48929   2.52387   2.56103   2.57262   2.58060
 Alpha virt. eigenvalues --    2.59536   2.60035   2.60656   2.61984   2.65309
 Alpha virt. eigenvalues --    2.67777   2.68091   2.68900   2.71725   2.73528
 Alpha virt. eigenvalues --    2.74441   2.77310   2.79772   2.80547   2.81127
 Alpha virt. eigenvalues --    2.81714   2.83199   2.85163   2.85671   2.86509
 Alpha virt. eigenvalues --    2.87936   2.88350   2.88490   2.89965   2.92131
 Alpha virt. eigenvalues --    2.93053   2.96718   2.98931   3.02379   3.04129
 Alpha virt. eigenvalues --    3.08065   3.08389   3.12570   3.14082   3.16798
 Alpha virt. eigenvalues --    3.20117   3.21124   3.22423   3.23766   3.24529
 Alpha virt. eigenvalues --    3.24654   3.25919   3.29658   3.30495   3.31542
 Alpha virt. eigenvalues --    3.32579   3.32794   3.33417   3.36416   3.40374
 Alpha virt. eigenvalues --    3.45617   3.46559   3.51314   3.54558   3.55757
 Alpha virt. eigenvalues --    3.59615   3.62157   3.65865   3.67871   3.75436
 Alpha virt. eigenvalues --    3.94897   4.04819   4.11493
     Molecular Orbital Coefficients:
                          76        77        78        79        80
                           O         O         O         O         O
     Eigenvalues --    -0.13334  -0.12084  -0.11842  -0.07521  -0.05162
   1 1   N  1S          0.01679  -0.01723  -0.03615  -0.07318  -0.03116
   2        2S          0.03030  -0.04092  -0.07656  -0.15255  -0.06355
   3        3S          0.11339  -0.05414  -0.12650  -0.18434  -0.07031
   4        4PX        -0.08492   0.04308  -0.02922  -0.18762   0.32868
   5        4PY         0.00757   0.10296   0.08965   0.08273  -0.30098
   6        4PZ        -0.01395  -0.01767   0.10261   0.30050   0.23787
   7        5PX         0.06827  -0.03960   0.02566   0.15825  -0.26675
   8        5PY        -0.01143  -0.08149  -0.06789  -0.09074   0.24864
   9        5PZ        -0.01752   0.02230  -0.05538  -0.24618  -0.17730
  10        6D 0       -0.00033   0.00100   0.00671   0.01041   0.01092
  11        6D+1       -0.00195   0.00381  -0.00157  -0.01045   0.01107
  12        6D-1        0.00106   0.00704   0.00648   0.00099  -0.01250
  13        6D+2        0.00237  -0.00045   0.00007   0.00392  -0.00892
  14        6D-2        0.00067  -0.00158  -0.00111   0.00333   0.00042
  15 2   N  1S         -0.03221  -0.01198   0.02307   0.00575   0.03773
  16        2S         -0.06700  -0.02222   0.04737   0.01242   0.08542
  17        3S         -0.11376  -0.05956   0.09639   0.03385   0.12958
  18        4PX        -0.04545  -0.10460   0.17202  -0.07432   0.03590
  19        4PY         0.11799  -0.04307   0.08865  -0.12263  -0.10062
  20        4PZ         0.04319   0.08691  -0.12797   0.04446  -0.04267
  21        5PX         0.02238   0.06981  -0.10944   0.07042  -0.02040
  22        5PY        -0.06225   0.04004  -0.07467   0.07118   0.04070
  23        5PZ        -0.03238  -0.05462   0.08573  -0.03328   0.03356
  24        6D 0       -0.00146   0.00658  -0.01106   0.00516   0.00404
  25        6D+1        0.00190  -0.00362   0.00559  -0.00270  -0.00318
  26        6D-1        0.00247  -0.00188   0.00353  -0.00247  -0.00041
  27        6D+2       -0.00200   0.00141  -0.00314   0.00362   0.00312
  28        6D-2       -0.00307  -0.00496   0.00746  -0.00121   0.00525
  29 3   O  1S         -0.00179   0.00312  -0.00611   0.00318  -0.00496
  30        2S         -0.00163   0.00741  -0.01288   0.00700  -0.01514
  31        3S         -0.00743   0.01160  -0.03071   0.00620  -0.00764
  32        4PX        -0.05400  -0.09911   0.16822  -0.04846   0.04971
  33        4PY         0.06426  -0.04504   0.08004  -0.06485  -0.05848
  34        4PZ         0.00563   0.07995  -0.12919   0.05323   0.01094
  35        5PX        -0.04595  -0.08174   0.13888  -0.03378   0.04590
  36        5PY         0.04572  -0.03812   0.06234  -0.05167  -0.03906
  37        5PZ        -0.00187   0.06515  -0.10519   0.05471   0.01413
  38        6D 0        0.00071   0.00319  -0.00495   0.00209  -0.00077
  39        6D+1        0.00183  -0.00051   0.00131  -0.00171  -0.00148
  40        6D-1        0.00146  -0.00007   0.00039  -0.00136  -0.00126
  41        6D+2       -0.00007  -0.00009   0.00035  -0.00115   0.00003
  42        6D-2        0.00018  -0.00235   0.00427  -0.00231  -0.00073
  43 4   C  1S          0.00263  -0.01221  -0.02326  -0.02124  -0.00841
  44        2S         -0.00925   0.03490   0.05903   0.05127   0.02756
  45        3S          0.03179   0.02251   0.04616   0.11089  -0.11242
  46        4PX         0.00503   0.06086   0.11152  -0.06425   0.04873
  47        4PY         0.01118   0.08634   0.07160   0.03757  -0.01492
  48        4PZ        -0.05029  -0.01237  -0.02322   0.14574   0.05839
  49        5PX        -0.03402   0.01528   0.05347  -0.06349  -0.05126
  50        5PY        -0.00095   0.01422   0.06000  -0.03733   0.08798
  51        5PZ        -0.07461  -0.04085  -0.04135   0.00642   0.00095
  52        6D 0        0.00183   0.00976  -0.00361  -0.01697  -0.01168
  53        6D+1        0.00289   0.00435   0.00004   0.00524  -0.01660
  54        6D-1       -0.00282  -0.00142   0.00677  -0.00893   0.00630
  55        6D+2        0.00309  -0.00287   0.00710   0.00600  -0.02348
  56        6D-2       -0.00055   0.00093  -0.00042   0.01508  -0.00227
  57 5   C  1S         -0.00143   0.00533   0.00796   0.00943  -0.02528
  58        2S          0.00466  -0.01068  -0.02355  -0.01854   0.05981
  59        3S         -0.00255  -0.05416   0.03289  -0.13177   0.21706
  60        4PX         0.00882  -0.03603   0.11049  -0.13046  -0.03423
  61        4PY        -0.01834  -0.05968   0.02199  -0.08204   0.09331
  62        4PZ         0.02492   0.03468  -0.12820   0.12964   0.00893
  63        5PX         0.03785   0.01282   0.06497  -0.08966  -0.06759
  64        5PY         0.00611  -0.01485   0.03303  -0.06648   0.12013
  65        5PZ         0.04604   0.06013  -0.09559   0.15741  -0.00925
  66        6D 0       -0.00028  -0.00669   0.00725  -0.00165  -0.00269
  67        6D+1        0.00166   0.00225  -0.00144  -0.00166  -0.00277
  68        6D-1       -0.00324  -0.00068  -0.00097   0.00798   0.00068
  69        6D+2       -0.00048   0.00106  -0.00818   0.00214   0.00081
  70        6D-2        0.00184   0.00900  -0.00266  -0.00012   0.00031
  71 6   C  1S          0.00014  -0.00744  -0.00040  -0.00674   0.00789
  72        2S          0.00083   0.01931   0.00325   0.01822  -0.01776
  73        3S          0.04759   0.06015  -0.01064   0.05407  -0.06353
  74        4PX        -0.03183  -0.11424   0.10855   0.02678  -0.02060
  75        4PY        -0.00883  -0.01748   0.04558   0.02887  -0.03161
  76        4PZ         0.02069   0.15591  -0.11527  -0.00201   0.01463
  77        5PX        -0.02199  -0.07506   0.08732   0.03662  -0.01407
  78        5PY         0.01529   0.00336   0.00586   0.02891  -0.03765
  79        5PZ         0.02512   0.13638  -0.09912   0.02071   0.00730
  80        6D 0        0.00045   0.00003  -0.00573   0.01415  -0.00155
  81        6D+1        0.00052   0.00034   0.00114   0.00081  -0.00217
  82        6D-1       -0.00006   0.00185  -0.00230   0.00004   0.00109
  83        6D+2        0.00091   0.00286   0.00294  -0.00451  -0.00299
  84        6D-2       -0.00022  -0.00008   0.00349  -0.00455  -0.00072
  85 7   C  1S         -0.00143   0.00033  -0.00295  -0.00188   0.00042
  86        2S          0.00366  -0.00003   0.00715   0.00480   0.00049
  87        3S         -0.03307  -0.00223   0.01743   0.00214   0.02507
  88        4PX        -0.00555  -0.05779  -0.02293   0.13834  -0.01199
  89        4PY        -0.00216  -0.02593  -0.00850   0.04621   0.01025
  90        4PZ         0.01831   0.05769   0.03235  -0.14856  -0.00748
  91        5PX        -0.01282  -0.04668  -0.01791   0.13248  -0.01122
  92        5PY        -0.01767  -0.02862   0.00240   0.02636   0.00993
  93        5PZ         0.00111   0.04469   0.02787  -0.12420  -0.00180
  94        6D 0        0.00100   0.00614  -0.00517   0.00067   0.00065
  95        6D+1        0.00040   0.00264  -0.00285   0.00065  -0.00041
  96        6D-1       -0.00199  -0.00542   0.00813  -0.00019  -0.00046
  97        6D+2       -0.00075  -0.00635   0.00741  -0.00034  -0.00289
  98        6D-2       -0.00016   0.00442  -0.00414   0.00153   0.00116
  99 8   C  1S          0.00363  -0.00197  -0.00203  -0.00079  -0.01330
 100        2S         -0.01031   0.00508   0.00367   0.00370   0.03221
 101        3S          0.03650   0.04716  -0.01445  -0.00541   0.10199
 102        4PX         0.00430   0.08742  -0.12401   0.04249   0.04954
 103        4PY        -0.00581   0.04208  -0.03831   0.02009   0.02776
 104        4PZ        -0.02799  -0.08144   0.14828  -0.03699   0.01127
 105        5PX         0.03056   0.08126  -0.09758   0.03094   0.04125
 106        5PY        -0.00857   0.04050  -0.03109  -0.01090   0.06074
 107        5PZ        -0.00435  -0.06072   0.10984  -0.03402   0.00878
 108        6D 0       -0.00115  -0.00569   0.00235   0.00652  -0.00180
 109        6D+1        0.00120   0.00178  -0.00092  -0.00335  -0.00295
 110        6D-1       -0.00128  -0.00479   0.00062   0.00860   0.00119
 111        6D+2        0.00053  -0.00055  -0.00163   0.00203  -0.00375
 112        6D-2        0.00103   0.00645  -0.00154  -0.00941   0.00022
 113 9   H  1S          0.00964  -0.00190  -0.00709  -0.00427  -0.03047
 114        2S          0.01573  -0.00385  -0.00374   0.00021  -0.04959
 115        3PX         0.00012   0.00311  -0.00536   0.00191   0.00145
 116        3PY        -0.00038   0.00118  -0.00154   0.00146   0.00070
 117        3PZ        -0.00089  -0.00339   0.00599  -0.00179  -0.00010
 118 10  C  1S         -0.01019  -0.00342   0.00104  -0.00340   0.03194
 119        2S          0.02682   0.01421   0.00223   0.01073  -0.07556
 120        3S         -0.06548  -0.05832  -0.02850  -0.00412  -0.19692
 121        4PX         0.04644   0.12933  -0.08889  -0.11949  -0.07920
 122        4PY         0.01982   0.03191  -0.01788  -0.03329   0.01143
 123        4PZ        -0.00489  -0.13595   0.06975   0.12380  -0.08148
 124        5PX        -0.01163   0.08417  -0.08954  -0.15914  -0.03026
 125        5PY         0.03972   0.04142  -0.01932   0.00043   0.02509
 126        5PZ        -0.01578  -0.07877   0.03555   0.07580  -0.01180
 127        6D 0       -0.00025   0.00392  -0.00809   0.00719   0.00218
 128        6D+1       -0.00064   0.00020   0.00071   0.00177   0.00171
 129        6D-1        0.00013   0.00466   0.00001  -0.00128   0.00323
 130        6D+2        0.00078   0.00238   0.00420  -0.00280  -0.00159
 131        6D-2       -0.00220  -0.00110   0.00544   0.00265   0.00075
 132 11  H  1S          0.01187  -0.01140   0.00254  -0.00387  -0.00535
 133        2S         -0.02977  -0.01044  -0.01461  -0.06972   0.04474
 134        3PX         0.00028   0.00446  -0.00347  -0.00396  -0.00195
 135        3PY        -0.00104   0.00076  -0.00139  -0.00202   0.00079
 136        3PZ        -0.00037  -0.00535   0.00306   0.00451  -0.00030
 137 12  C  1S         -0.01157  -0.00547   0.01232   0.00237   0.00946
 138        2S          0.02711   0.01507  -0.03362  -0.00841  -0.01910
 139        3S          0.02847   0.00392  -0.03566  -0.01072  -0.05906
 140        4PX        -0.03207   0.07100  -0.10461   0.03854   0.04377
 141        4PY         0.01397   0.07914  -0.13003   0.01922   0.01941
 142        4PZ         0.04670  -0.02722   0.06021  -0.02639  -0.04163
 143        5PX         0.01298   0.07069  -0.10172   0.03589   0.01600
 144        5PY        -0.03019   0.04337  -0.08776   0.03235   0.01311
 145        5PZ         0.02705  -0.01328   0.04397  -0.04228  -0.04686
 146        6D 0        0.00296  -0.00608   0.01361  -0.01331  -0.00301
 147        6D+1        0.00370   0.00623  -0.00789   0.00122  -0.00349
 148        6D-1       -0.00329   0.00404  -0.00539   0.00763   0.00204
 149        6D+2        0.00327  -0.00037  -0.00080   0.00082  -0.00082
 150        6D-2        0.00181   0.00490  -0.00556   0.00232  -0.00147
 151 13  S  1S          0.00143   0.00120  -0.00072  -0.00714  -0.00315
 152        2S          0.00928   0.00807  -0.00488  -0.04746  -0.02113
 153        3S         -0.00300  -0.01859   0.01175   0.08249   0.03918
 154        4S         -0.07064   0.00501  -0.01164   0.05140   0.00912
 155        5PX         0.00040   0.01236  -0.00189  -0.03307  -0.01636
 156        5PY         0.01031   0.00550  -0.00634  -0.04236  -0.00157
 157        5PZ         0.00310  -0.00273   0.00659   0.01953   0.00289
 158        6PX        -0.01107   0.03018  -0.00131  -0.06920  -0.02813
 159        6PY         0.02181   0.01390  -0.00928  -0.07976  -0.00963
 160        6PZ         0.00246  -0.01517   0.00866   0.04393   0.01020
 161        7PX         0.11685  -0.01134  -0.01606  -0.02595  -0.09254
 162        7PY         0.00061  -0.01442  -0.04137  -0.11241   0.06907
 163        7PZ         0.05453   0.10860   0.05719  -0.03018  -0.07071
 164        8D 0        0.00816   0.02567   0.01965  -0.01290  -0.01863
 165        8D+1        0.07277  -0.01219   0.00297   0.02012  -0.04694
 166        8D-1       -0.10317  -0.01667  -0.01789  -0.00757   0.01808
 167        8D+2       -0.00245   0.01534  -0.00816  -0.05745   0.07335
 168        8D-2        0.02237  -0.08546  -0.04199   0.03111   0.03162
 169 14  O  1S         -0.00158   0.00139   0.00207   0.00542  -0.00033
 170        2S         -0.00662   0.00585   0.00495   0.00974  -0.00341
 171        3S         -0.00131  -0.03003   0.00150   0.04529   0.02068
 172        4PX         0.39152  -0.18696  -0.11671  -0.02552   0.06643
 173        4PY        -0.22157  -0.17562  -0.16745  -0.02982  -0.10890
 174        4PZ         0.06240   0.27210   0.19401   0.00944   0.09142
 175        5PX         0.29545  -0.14304  -0.09120  -0.02147   0.05815
 176        5PY        -0.17086  -0.12509  -0.12481  -0.02402  -0.10384
 177        5PZ         0.04133   0.21191   0.14409  -0.00765   0.07044
 178        6D 0       -0.00192  -0.01347  -0.01057  -0.00239  -0.00453
 179        6D+1       -0.01237   0.00397   0.00277   0.00231  -0.00281
 180        6D-1        0.00663   0.00035   0.00171   0.00132   0.00307
 181        6D+2       -0.01143  -0.00249  -0.00343  -0.00167  -0.00216
 182        6D-2       -0.00670   0.00586   0.00450   0.00149   0.00043
 183 15  O  1S          0.00141  -0.00095   0.00322   0.00398  -0.00915
 184        2S          0.00393  -0.00227   0.00709   0.00749  -0.01823
 185        3S          0.03732   0.02240   0.02291   0.00937  -0.07330
 186        4PX         0.12930  -0.03445   0.03252   0.07864   0.12423
 187        4PY         0.11800   0.12582   0.12385   0.09310   0.15304
 188        4PZ         0.20041   0.16661   0.10353  -0.02196  -0.09504
 189        5PX         0.09085  -0.02207   0.03038   0.06640   0.09695
 190        5PY         0.08439   0.09423   0.09915   0.08537   0.12765
 191        5PZ         0.15283   0.12811   0.08076  -0.01390  -0.08913
 192        6D 0        0.00601   0.00741   0.00481   0.00016  -0.00226
 193        6D+1        0.00607   0.00076   0.00188   0.00144   0.00213
 194        6D-1        0.00209   0.00247   0.00283   0.00189   0.00459
 195        6D+2        0.00547   0.00301   0.00340   0.00126   0.00639
 196        6D-2        0.00213   0.00296   0.00166   0.00032   0.00067
 197 16  C  1S          0.03009  -0.02222  -0.00628   0.02338  -0.01138
 198        2S         -0.08289   0.06068   0.02160  -0.06454   0.03689
 199        3S         -0.07946   0.02856  -0.01734   0.00437  -0.05136
 200        4PX         0.05483  -0.04882   0.00999   0.09837  -0.04736
 201        4PY        -0.17706   0.13937   0.06015  -0.02768  -0.00210
 202        4PZ        -0.05722   0.01480  -0.00066  -0.04686   0.02858
 203        5PX         0.03173  -0.09200  -0.02777   0.10950  -0.04683
 204        5PY        -0.12795   0.09499   0.04818  -0.07153   0.07347
 205        5PZ        -0.08744  -0.06987  -0.05022  -0.03752   0.06599
 206        6D 0        0.00570  -0.00038   0.00110   0.00255  -0.00254
 207        6D+1       -0.00031  -0.00409  -0.00231  -0.00137   0.00361
 208        6D-1        0.00245   0.00021  -0.00038  -0.00209   0.00184
 209        6D+2       -0.00561   0.00217   0.00270   0.00560  -0.00512
 210        6D-2        0.00143  -0.00013   0.00107   0.00482  -0.00402
 211 17  C  1S          0.00517   0.00843   0.00147  -0.00487   0.00033
 212        2S         -0.01233  -0.01539  -0.00119   0.00946   0.00173
 213        3S         -0.11546   0.04559   0.00713  -0.04428  -0.01207
 214        4PX        -0.04140   0.06533   0.02220   0.00926  -0.02956
 215        4PY        -0.06500   0.03732   0.02724   0.06423  -0.05582
 216        4PZ         0.00133  -0.00810  -0.01131  -0.02019   0.00826
 217        5PX        -0.12968  -0.02798  -0.02564   0.02158  -0.03299
 218        5PY         0.02289   0.04875   0.02583   0.05477  -0.04866
 219        5PZ        -0.00202  -0.04731  -0.03687   0.02819  -0.01028
 220        6D 0        0.00310  -0.00373  -0.00026   0.00441  -0.00166
 221        6D+1        0.00174  -0.00226   0.00001   0.00027   0.00081
 222        6D-1        0.00378  -0.00304  -0.00154  -0.00126   0.00128
 223        6D+2        0.00217  -0.00087  -0.00147  -0.00138   0.00023
 224        6D-2        0.00394  -0.00433  -0.00327   0.00255  -0.00018
 225 18  H  1S          0.00124  -0.01637  -0.00519   0.01173  -0.00675
 226        2S          0.08750   0.00120   0.03409  -0.00360   0.01424
 227        3PX        -0.00260   0.00245   0.00123   0.00008  -0.00121
 228        3PY        -0.00020   0.00098   0.00117   0.00193  -0.00120
 229        3PZ         0.00084   0.00037  -0.00065  -0.00063   0.00119
 230 19  C  1S          0.01227  -0.00396   0.00047   0.00515  -0.00306
 231        2S         -0.03023   0.00929  -0.00213  -0.00929   0.00775
 232        3S         -0.04446  -0.03040  -0.02186  -0.02651  -0.02657
 233        4PX         0.07132  -0.03895  -0.00375   0.00238  -0.00308
 234        4PY         0.02071  -0.02860  -0.00649  -0.04229   0.01686
 235        4PZ        -0.04203   0.02160   0.00377  -0.00040   0.00190
 236        5PX         0.10040   0.00091   0.02410   0.01016  -0.01399
 237        5PY        -0.00256  -0.04044  -0.02048  -0.03998   0.00878
 238        5PZ         0.00346   0.00527   0.00796   0.00631  -0.02368
 239        6D 0        0.00174  -0.00092  -0.00011   0.00154  -0.00105
 240        6D+1       -0.00155   0.00111   0.00086  -0.00012  -0.00016
 241        6D-1        0.00362  -0.00255  -0.00133  -0.00044   0.00058
 242        6D+2        0.00341  -0.00328  -0.00307  -0.00411   0.00461
 243        6D-2        0.00342  -0.00293  -0.00210  -0.00230   0.00300
 244 20  H  1S          0.02698  -0.01236  -0.00338   0.00947  -0.00605
 245        2S          0.03637  -0.01126   0.00406   0.01375  -0.01379
 246        3PX         0.00156  -0.00197  -0.00063  -0.00028   0.00009
 247        3PY         0.00184  -0.00116   0.00004  -0.00166   0.00088
 248        3PZ        -0.00110   0.00062   0.00009  -0.00016   0.00032
 249 21  C  1S         -0.01891   0.00240  -0.00010  -0.00783   0.00507
 250        2S          0.04261  -0.00728  -0.00417   0.01952  -0.01413
 251        3S          0.05013   0.00041   0.03644  -0.01025   0.07933
 252        4PX        -0.06383   0.02914   0.02014   0.00988  -0.02549
 253        4PY        -0.00472   0.03184   0.04293   0.05729  -0.06324
 254        4PZ         0.07189  -0.03819  -0.02006   0.00613   0.00166
 255        5PX        -0.00778   0.05502   0.03591   0.01984  -0.00959
 256        5PY        -0.05088   0.00020   0.01044   0.05213  -0.05377
 257        5PZ        -0.03520  -0.06647  -0.04881  -0.03662   0.06551
 258        6D 0        0.00505  -0.00328  -0.00145   0.00049   0.00022
 259        6D+1        0.00289  -0.00092   0.00068   0.00523  -0.00259
 260        6D-1       -0.00633   0.00435   0.00170   0.00019  -0.00053
 261        6D+2        0.00295  -0.00272  -0.00036  -0.00075   0.00005
 262        6D-2        0.00320  -0.00092   0.00068   0.00052  -0.00159
 263 22  H  1S          0.02783  -0.00579   0.00192   0.01885  -0.00659
 264        2S         -0.02812  -0.03364  -0.03414  -0.00185   0.01447
 265        3PX        -0.00095   0.00163   0.00132   0.00134  -0.00059
 266        3PY        -0.00104  -0.00016   0.00082   0.00236  -0.00186
 267        3PZ         0.00272  -0.00123  -0.00061   0.00038  -0.00051
 268 23  C  1S          0.00522  -0.00065   0.00290  -0.00636  -0.00600
 269        2S         -0.01284   0.00040  -0.00480   0.01726   0.01169
 270        3S         -0.03607   0.00817  -0.01989   0.00831   0.03418
 271        4PX         0.03303  -0.01122   0.01928  -0.02281  -0.02737
 272        4PY        -0.02943  -0.02286   0.02552   0.01696   0.01941
 273        4PZ        -0.02252  -0.00699   0.00164   0.00568   0.01230
 274        5PX         0.03376  -0.00199   0.00064  -0.01866  -0.01877
 275        5PY        -0.03673  -0.02623   0.02681   0.00225   0.03352
 276        5PZ        -0.02750  -0.02140   0.01549   0.01600   0.01359
 277        6D 0        0.00083   0.00003   0.00044  -0.00061  -0.00045
 278        6D+1       -0.00019   0.00137  -0.00202   0.00039   0.00074
 279        6D-1        0.00082  -0.00069   0.00138   0.00026  -0.00086
 280        6D+2        0.00119  -0.00439   0.00726  -0.00163  -0.00276
 281        6D-2        0.00102   0.00016  -0.00010   0.00017  -0.00040
 282 24  H  1S          0.01302   0.00920  -0.00956   0.00154  -0.00280
 283        2S         -0.00026  -0.02558   0.02393   0.00282  -0.00850
 284        3PX         0.00145   0.00061  -0.00016  -0.00016  -0.00125
 285        3PY        -0.00098  -0.00126   0.00183   0.00025   0.00007
 286        3PZ        -0.00003   0.00110  -0.00164   0.00068   0.00057
 287 25  H  1S         -0.00334   0.02004  -0.03256   0.00085   0.00868
 288        2S         -0.00677   0.01872  -0.03014  -0.00114   0.02034
 289        3PX         0.00051  -0.00021   0.00035  -0.00070  -0.00050
 290        3PY        -0.00078  -0.00061   0.00077   0.00043   0.00029
 291        3PZ        -0.00063  -0.00089   0.00137  -0.00007  -0.00016
 292 26  H  1S          0.01446  -0.02321   0.03674  -0.01048  -0.01746
 293        2S         -0.00564  -0.02585   0.05592  -0.00729  -0.01687
 294        3PX         0.00018   0.00015   0.00044  -0.00058  -0.00088
 295        3PY        -0.00114   0.00041  -0.00063   0.00138   0.00105
 296        3PZ        -0.00078  -0.00084   0.00066  -0.00057   0.00120
 297 27  C  1S          0.00095  -0.00703  -0.00124   0.00522  -0.00146
 298        2S         -0.00139   0.01746   0.00342  -0.01260   0.00022
 299        3S          0.11603   0.00370  -0.00458   0.02454   0.01898
 300        4PX         0.02707  -0.03606  -0.02417   0.02211  -0.00316
 301        4PY         0.01719  -0.00128  -0.02510  -0.00888   0.00703
 302        4PZ        -0.01163   0.01391   0.00874  -0.00815   0.00298
 303        5PX        -0.03363  -0.02054  -0.02743   0.00726  -0.01588
 304        5PY         0.04475   0.02013  -0.00510   0.00082   0.00175
 305        5PZ         0.02474   0.05907   0.03371  -0.02664   0.00565
 306        6D 0        0.00155  -0.00116  -0.00096  -0.00211   0.00157
 307        6D+1       -0.00180   0.00127   0.00151   0.00339  -0.00277
 308        6D-1       -0.00403   0.00368   0.00197   0.00207  -0.00262
 309        6D+2        0.00457  -0.00395  -0.00234  -0.00242   0.00335
 310        6D-2        0.00014  -0.00020  -0.00032  -0.00163   0.00081
 311 28  H  1S          0.01040  -0.01292  -0.00509   0.01093  -0.00054
 312        2S         -0.00392  -0.02886   0.00385   0.01148   0.00114
 313        3PX         0.00183  -0.00090  -0.00084   0.00087   0.00000
 314        3PY         0.00037  -0.00088  -0.00156  -0.00038   0.00049
 315        3PZ        -0.00127  -0.00002  -0.00017  -0.00006  -0.00034
 316 29  C  1S          0.00228  -0.00148  -0.00049   0.00089  -0.00020
 317        2S         -0.00568   0.00325   0.00252  -0.00212   0.00049
 318        3S         -0.05211   0.04814   0.00624  -0.03899   0.02656
 319        4PX         0.04552  -0.04106  -0.02955  -0.03537   0.03530
 320        4PY         0.08582  -0.07223  -0.04714  -0.05751   0.05957
 321        4PZ        -0.02572   0.01631   0.01143   0.01605  -0.01887
 322        5PX         0.06845  -0.03613  -0.00860  -0.02892   0.02290
 323        5PY         0.05381  -0.04836  -0.03470  -0.05232   0.06203
 324        5PZ         0.00892   0.05348   0.03295   0.00673  -0.02649
 325        6D 0        0.00185  -0.00069   0.00047   0.00031  -0.00039
 326        6D+1        0.00123  -0.00138  -0.00110   0.00123  -0.00007
 327        6D-1       -0.00046   0.00102  -0.00081   0.00090  -0.00035
 328        6D+2       -0.00284   0.00185   0.00063   0.00096  -0.00035
 329        6D-2       -0.00029   0.00047   0.00018   0.00127  -0.00055
 330 30  C  1S          0.00287  -0.00213  -0.00005   0.00171  -0.00092
 331        2S         -0.00728   0.00490  -0.00030  -0.00448   0.00164
 332        3S         -0.02115   0.01725   0.00142   0.00047   0.00868
[...]
 -0.00003819,0.00000003,0.00005464,0.00012705,0.00014053,0.00010994,-0.
 00085772,0.00022615,0.00049787,-0.00007463,0.00003560,0.00018037,0.008
 54130,-0.01754410,0.01122308,-0.12495180,0.29878196,-0.22122453,0.1268
 6072,-0.30988937,0.22760495,-0.00003787,-0.00001702,0.00018474,-0.0000
 1202,0.00003103,0.00003020,0.00001720,-0.00005791,-0.00005982,-0.00011
 923,-0.00003597,-0.00014088,0.00003125,-0.00002532,-0.00000208,0.00000
 820,-0.00000055,0.00000444,0.00002671,-0.00001446,0.00000583,-0.000026
 14,0.00000975,-0.00001817,-0.00000099,0.00000016,0.00000389,0.00003463
 ,0.00003170,0.00003134,-0.00000010,-0.00000299,-0.00000485,-0.00002050
 ,0.00006062,0.00000839,0.00023230,-0.00006590,-0.00006594,-0.00010832,
 -0.00002905,-0.00003729,-0.00006401,0.00003543,0.00002390,0.00003601,0
 .00011613,0.00021386,0.00032256,0.00044693,-0.00021235,0.00005397,-0.0
 0005861,-0.00006535,-0.00394849,0.00078549,0.00111181,0.00005472,-0.00
 019592,0.00039379,-0.00022319,0.00133101,-0.00038195,-0.00027460,0.000
 09989,0.00002626,0.00001712,-0.00002025,-0.00000849,-0.00000765,0.0000
 0958,0.00001498,0.00000350,-0.00000071,0.00000203,-0.00002177,0.000002
 05,-0.00000517,0.00164841,0.00035862,-0.00051519,-0.00037616,-0.000688
 19,-0.00014787,0.00546251,0.01337869,0.03321057,-0.02594057,-0.0551117
 5,-0.13919161,-0.00372763,-0.00668103,-0.00951512,0.03104413,0.0000180
 6,-0.00001462,-0.00000631,-0.00000939,0.00002871,0.00000671,0.00001154
 ,-0.00003643,-0.00003866,0.00001490,0.00000428,0.00002167,-0.00000979,
 0.00000656,-0.00000772,0.00000597,-0.00000078,0.00000150,-0.00000329,-
 0.00000159,-0.00000426,0.00000207,-0.00000112,0.00000138,-0.00000089,-
 0.00000117,-0.00000093,-0.00000587,-0.00000041,-0.00000993,0.00000009,
 0.00000151,0.00000092,0.00001146,-0.00001285,0.00000356,-0.00002667,0.
 00008481,-0.00020062,0.00001980,-0.00002115,0.00004555,0.00003526,-0.0
 0001271,0.00004675,-0.00013773,0.00023134,0.00009684,0.00035140,-0.000
 67000,0.00031910,-0.00001223,0.00003716,-0.00001944,0.00276988,-0.0003
 3411,-0.00131053,-0.00005821,0.00061861,-0.00018243,0.00009309,-0.0009
 8878,0.00013282,0.00017529,-0.00004178,-0.00004618,-0.00002130,-0.0000
 0320,0.00000452,0.00000466,-0.00001046,-0.00001994,-0.00000222,0.00000
 205,0.00000660,0.00003358,0.00002507,0.00000581,-0.00202647,0.00085330
 ,0.00130553,-0.00006873,0.00057024,-0.00043423,-0.00213810,-0.00820913
 ,-0.01349038,-0.05698944,-0.07317317,-0.21352412,0.00706560,0.01427590
 ,0.03204099,0.05196471,0.07381741,0.00006573,-0.00002326,-0.00021050,0
 .00003557,-0.00007765,-0.00007406,-0.00001738,0.00013656,0.00009414,0.
 00013668,0.00004301,0.00016920,-0.00002947,0.00001998,-0.00001465,0.00
 000428,0.00000996,-0.00000662,-0.00002486,0.00001519,-0.00001597,0.000
 02796,-0.00000995,0.00001888,-0.00000145,-0.00000387,-0.00000449,-0.00
 004015,-0.00003751,-0.00004668,0.00000085,0.00000516,0.00000766,0.0000
 0295,-0.00003245,-0.00000074,-0.00025253,0.00022182,-0.00000371,0.0001
 3477,-0.00000310,0.00003038,0.00004581,-0.00009392,-0.00000485,0.00021
 206,0.00046294,0.00023342,0.00047503,-0.00076597,0.00003185,-0.0000229
 6,0.00002537,-0.00005580,0.00191221,0.00010289,-0.00052646,-0.00003038
 ,0.00018626,-0.00009488,-0.00049250,-0.00044551,0.00037567,0.00011169,
 -0.00001332,-0.00004923,0.00000730,0.00002929,0.00000921,0.00000068,-0
 .00000262,0.00002693,0.00000675,0.00000245,-0.00001467,-0.00002693,-0.
 00005307,0.00000110,-0.00204735,-0.00014041,0.00186672,0.00052197,0.00
 066714,-0.00041331,-0.00327097,-0.00342217,-0.00886909,-0.14396083,-0.
 21252272,-0.58353661,-0.00189400,-0.01246366,-0.01545208,0.14405085,0.
 22269748,0.59913526,-0.00002591,0.00000451,0.00015684,0.00000384,-0.00
 000965,0.00001607,-0.00000266,-0.00001728,0.00002307,-0.00010133,-0.00
 002508,-0.00011490,0.00002713,-0.00002436,0.00000585,-0.00000314,-0.00
 000406,-0.00000147,0.00002049,0.00000025,0.00001064,-0.00001181,0.0000
 1061,-0.00000689,-0.00000037,0.00000201,0.00000506,0.00002476,0.000025
 67,0.00002409,-0.00000155,-0.00000326,-0.00000483,-0.00001425,0.000014
 34,-0.00001410,0.00018873,-0.00017377,-0.00005383,-0.00004172,0.000065
 05,0.00001975,-0.00002562,0.00014656,0.00004046,0.00032729,0.00017373,
 0.00010701,-0.00094703,-0.00084389,-0.00077740,-0.00025909,0.00024109,
 0.00015351,0.00283980,-0.00173960,-0.00256754,0.00052711,0.00062868,0.
 00101666,-0.00050111,0.00024382,-0.00035710,0.00006139,-0.00003229,-0.
 00000614,0.00001065,-0.00001644,-0.00000419,0.00000037,0.00000386,0.00
 000581,0.00000043,-0.00000086,0.00000839,-0.00001828,0.00002217,-0.000
 00981,-0.00371654,0.00320050,0.00342580,0.00044163,0.00009599,0.000147
 57,-0.02275436,-0.02111150,0.00029934,-0.34288240,-0.34866022,0.024084
 39,0.01226301,0.01407762,-0.00097829,-0.00408304,-0.00105419,0.0043756
 9,0.35864036,-0.00001302,-0.00000002,0.00011255,0.00000089,-0.00001300
 ,0.00000025,-0.00001687,0.00000505,0.00003741,-0.00006985,-0.00001334,
 -0.00007304,0.00000956,-0.00001707,0.00000798,-0.00000608,-0.00000198,
 -0.00000188,0.00001330,0.00000237,0.00000940,-0.00000921,0.00000784,-0
 .00000360,0.00000020,0.00000268,0.00000235,0.00001631,0.00001522,0.000
 01876,0.00000053,-0.00000175,-0.00000508,0.00000570,0.00000395,0.00000
 470,0.00018405,-0.00004673,-0.00005166,-0.00006821,-0.00001895,-0.0000
 1512,-0.00005021,0.00003042,0.00002182,0.00005530,0.00021116,0.0000083
 7,0.00077943,0.00024981,0.00015952,0.00014443,-0.00014474,-0.00002232,
 0.00087005,0.00087179,-0.00001087,-0.00039154,-0.00007023,0.00014534,-
 0.00014948,0.00023692,0.00012315,-0.00006062,-0.00002964,0.00007051,-0
 .00000062,-0.00000857,-0.00002788,-0.00000385,0.00000746,0.00001126,-0
 .00000008,-0.00000308,-0.00000122,0.00001212,0.00000605,-0.00002598,0.
 00247158,-0.00121152,-0.00164213,0.00007874,0.00001168,-0.00003483,0.0
 1711106,0.01273000,-0.00176077,-0.34644876,-0.33698931,0.02609519,-0.0
 2357462,-0.01602099,-0.00335808,-0.00564793,-0.00702818,0.00551549,0.3
 5474194,0.34722269,0.00000056,0.00001820,-0.00014129,-0.00000802,0.000
 00961,-0.00000083,0.00000045,0.00000297,-0.00001054,0.00009219,0.00002
 226,0.00009913,-0.00001884,0.00002305,0.00000781,-0.00000922,-0.000000
 96,0.00000229,-0.00002469,0.00000057,-0.00000421,0.00001373,-0.0000117
 9,0.00000813,0.00000189,0.00000027,-0.00000331,-0.00002185,-0.00002333
 ,-0.00001771,0.00000058,0.00000125,0.00000305,0.00001084,-0.00002443,-
 0.00000828,-0.00013749,0.00003645,0.00014474,0.00002955,-0.00001121,-0
 .00003023,0.00000929,-0.00005595,-0.00005030,-0.00018079,-0.00032409,-
 0.00016660,0.00018941,0.00036615,0.00086985,0.00007981,-0.00002127,-0.
 00016472,-0.00010091,0.00097636,0.00099101,-0.00020107,-0.00061048,-0.
 00004126,0.00030308,0.00015026,-0.00009540,-0.00006008,0.00003967,0.00
 000674,-0.00000363,0.00001474,0.00003270,0.00000337,-0.00000548,-0.000
 02797,-0.00000745,-0.00000146,-0.00000307,0.00000228,-0.00000658,0.000
 03077,0.00212800,-0.00192332,-0.00035714,0.00008922,0.00023103,-0.0002
 5300,0.01052452,0.01186712,-0.00260595,0.02514432,0.02716654,-0.001751
 92,0.02014592,0.01484759,-0.00068481,-0.02897957,-0.02745812,0.0074204
 8,-0.02901887,-0.02529899,-0.00318437,-0.00015034,-0.00032891,0.000391
 34,-0.00010913,0.00007031,0.00001488,0.00000626,-0.00018297,0.00000369
 ,-0.00037182,0.00050506,0.00078584,0.00437963,0.00205566,-0.00212328,0
 .00623179,0.00468667,0.00307989,-0.38596608,-0.07229649,-0.42564258,-0
 .00926443,-0.00701473,-0.01799534,-0.00117707,-0.00197284,0.00360691,0
 .00098504,0.00610803,-0.00274568,-0.00043473,-0.00035651,-0.00104819,0
 .00040938,0.00040536,-0.00010229,0.00003718,0.00019639,0.00035210,-0.0
 0003524,-0.00003853,-0.00005177,-0.00002583,-0.00008076,-0.00017246,-0
 .00002553,-0.00002353,0.00000806,0.00000824,0.00000057,-0.00000490,0.0
 0000100,-0.00000004,0.00000791,-0.00000953,-0.00000021,-0.00000759,-0.
 00000074,-0.00000070,0.00000692,0.00000421,0.00000694,-0.00000238,-0.0
 0000216,-0.00000654,0.00001372,-0.00003014,-0.00002280,-0.00000919,-0.
 00001567,0.00005282,0.00002058,-0.00000289,-0.00001056,-0.00000440,0.0
 0000401,-0.00000169,-0.00000205,0.00000182,0.00000078,-0.00000597,0.00
 000061,-0.00000408,0.00000089,-0.00000715,0.00000794,-0.00000082,0.000
 00277,-0.00000708,-0.00000118,0.00000251,-0.00000015,0.00000244,-0.000
 00016,-0.00000110,-0.00000389,0.00000150,0.00000196,0.00000154,0.38757
 958,-0.00024984,0.00019706,0.00053745,-0.00000334,-0.00011282,-0.00017
 362,-0.00011467,-0.00051056,-0.00014521,0.00034562,-0.00159739,-0.0001
 4495,0.00273114,-0.00367954,-0.00455000,-0.02409776,0.00041239,-0.0248
 2425,-0.07238913,0.00199660,-0.08841782,0.02208096,0.00870801,0.021251
 92,-0.00320460,0.00048016,0.00113416,0.00549070,-0.00258836,-0.0012765
 9,0.00095624,0.00061446,0.00078698,-0.00099206,0.00068640,-0.00090220,
 -0.00000045,-0.00007674,-0.00005918,0.00002551,0.00002313,0.00003606,-
 0.00001184,0.00008910,0.00008366,0.00003429,-0.00003250,0.00002090,-0.
 00001973,0.00001820,0.00001155,0.00000838,-0.00000992,0.00001173,0.000
 00229,0.00000136,-0.00001515,-0.00000415,0.00000250,0.00000511,-0.0000
 3592,0.00000086,0.00000334,0.00001589,-0.00000378,0.00000494,-0.000084
 56,-0.00004228,0.00005742,0.00001965,0.00006781,0.00001388,0.00001035,
 -0.00003041,-0.00001260,0.00003143,-0.00000143,0.00001159,0.00000226,0
 .00000957,-0.00000876,-0.00000320,-0.00000031,0.00000571,-0.00001902,0
 .00000984,0.00000812,0.00000224,0.00000068,0.00000091,-0.00000299,-0.0
 0000148,0.00000172,-0.00000069,-0.00000061,0.00000003,-0.00000019,0.00
 000180,-0.00000018,0.07064478,-0.00539869,0.00038121,0.00035733,-0.000
 78072,0.00019859,-0.00001760,-0.00003567,-0.00007297,-0.00024051,-0.00
 022504,0.00109565,0.00002947,0.00015385,-0.00232890,-0.00465177,0.0033
 6964,-0.01367538,0.00179024,-0.00549459,-0.42564375,-0.08842400,-0.389
 13990,-0.00058239,-0.00513010,0.00262617,0.00285156,0.00224540,-0.0026
 1124,-0.00318451,-0.00095108,0.00463049,-0.00023958,-0.00032214,0.0002
 3054,-0.00106427,0.00000805,0.00002651,-0.00009507,-0.00021553,0.00017
 550,-0.00005073,0.00003185,-0.00011208,0.00003859,0.00006921,-0.000065
 33,-0.00002707,0.00004451,-0.00002091,0.00002411,-0.00001035,-0.000009
 14,0.00000083,0.00000287,0.00000597,-0.00000729,-0.00000536,0.00001373
 ,0.00001555,0.00000121,-0.00001587,0.00003307,-0.00001203,0.00000289,-
 0.00002811,-0.00000098,-0.00000597,0.00003992,-0.00005541,-0.00003123,
 -0.00003284,-0.00002051,0.00001445,0.00001106,-0.00001158,-0.00000365,
 -0.00000152,-0.00002899,-0.00000829,-0.00000489,0.00000804,0.00000292,
 0.00000116,-0.00000198,0.00000306,0.00000294,-0.00000261,-0.00000304,0
 .00000436,-0.00000498,0.00000641,-0.00000075,-0.00000726,-0.00000294,0
 .00000333,-0.00000052,-0.00000134,0.00000371,0.00000504,-0.00000671,0.
 43874181,0.09318619,0.38976553,-0.00112185,-0.00003319,-0.00097748,0.0
 1291363,0.00675198,0.01839342,-0.81320642,-0.20620398,-0.68875928,0.00
 092296,0.00044428,0.00102278,0.00060258,0.00030872,-0.00039647,-0.0002
 3425,0.00000395,-0.00013042,-0.00026694,0.00048767,0.00006312,0.000475
 26,0.00011193,0.00049992,0.00001057,0.00000510,0.00000816,-0.00030337,
 -0.00049279,-0.00037565,0.00001050,0.00003721,-0.00000485,0.00019046,0
 .00476252,0.00050388,0.00107754,-0.00021232,0.00094569,-0.00067550,-0.
 00031493,-0.00037812,-0.00019295,0.00015961,-0.00020026,-0.00010737,0.
 00004547,-0.00025435,0.00001028,0.00009427,-0.00004579,0.00028821,-0.0
 0014160,0.00009975,-0.00002171,0.00003519,0.00004659,0.00000743,0.0000
 0621,0.00001697,0.00006657,0.00005419,0.00001192,-0.00000227,-0.000013
 93,0.00000129,-0.00077322,-0.00059217,-0.00074029,0.00003572,-0.000117
 27,-0.00004766,0.00026424,-0.00035975,0.00029615,0.00048296,0.00001731
 ,-0.00041514,-0.00001209,0.00005333,-0.00004641,-0.00002541,-0.0000302
 2,0.00014757,-0.00017670,0.00003438,-0.00004408,0.00001624,-0.00001174
 ,0.00000114,-0.00000477,-0.00000976,0.00000435,-0.00000219,-0.00001128
 ,-0.00000709,0.00001056,0.00001474,-0.00000086,0.00002982,0.00004921,0
 .00003935,0.79969542,-0.00022944,0.00043530,0.00010980,-0.04184880,-0.
 01659777,-0.02205379,-0.15522161,0.05631901,-0.14764437,-0.00009773,0.
 00013504,-0.00026745,-0.00188837,-0.00051390,-0.00031954,0.00003315,-0
 .00049565,-0.00006671,-0.00010925,0.00014943,-0.00013582,0.00005616,0.
 00008989,0.00015910,-0.00000861,-0.00000050,0.00002962,0.00010028,-0.0
 0002102,-0.00006875,0.00000863,-0.00000475,-0.00003172,0.00326398,-0.0
 0850542,-0.00769884,0.00008191,-0.00066589,0.00006063,-0.00012958,0.00
 030279,-0.00004901,0.00001228,0.00045081,-0.00001022,0.00012434,-0.000
 02417,-0.00012219,-0.00034384,0.00003952,-0.00018032,0.00021037,-0.000
 27801,0.00040109,0.00009743,0.00002278,-0.00002251,0.00001606,0.000005
 14,0.00000402,-0.00001197,0.00003173,0.00003137,0.00001910,-0.00000646
 ,0.00000852,0.00106179,0.00054461,-0.00081511,0.00003394,0.00023341,-0
 .00002392,-0.00063670,-0.00012351,-0.00028021,0.00037858,-0.00024084,0
 .00019733,0.00000378,0.00022380,0.00005516,-0.00002791,-0.00002245,0.0
 0005053,-0.00012402,0.00003847,0.00001418,0.00003685,-0.00002778,0.000
 01468,0.00001543,-0.00000464,0.00002171,-0.00000383,0.00000481,-0.0000
 2966,0.00002126,0.00000792,-0.00000511,0.00003177,-0.00002312,-0.00001
 683,0.19510584,-0.03146762,-0.00009102,0.00109450,-0.00109756,-0.01527
 990,0.00856270,-0.01311026,-0.65720299,-0.18191074,-0.35798784,0.00007
 077,-0.00025234,-0.00010111,-0.00064232,-0.00082274,0.00181372,-0.0001
 1671,0.00014830,0.00006887,0.00015820,0.00014987,-0.00007875,0.0000409
 5,-0.00003680,0.00004352,-0.00001193,0.00000601,0.00001067,-0.00005603
 ,-0.00000281,-0.00008649,-0.00001150,-0.00000259,0.00002698,0.00078211
 ,-0.00520461,-0.00062633,-0.00012194,-0.00028104,0.00188947,-0.0000853
 9,-0.00018699,-0.00051374,0.00010427,0.00010434,-0.00046461,-0.0003549
 4,0.00014196,0.00005712,0.00044504,-0.00023324,0.00004120,-0.00027140,
 0.00043176,-0.00013906,-0.00014743,-0.00012258,-0.00003285,-0.00000264
 ,-0.00003118,-0.00000367,0.00005549,-0.00013439,-0.00011157,-0.0000545
 3,-0.00000205,-0.00000376,0.00150179,0.00003033,-0.00000917,0.00014779
 ,0.00013142,0.00019835,0.00052315,0.00018906,-0.00011970,-0.00026703,-
 0.00033798,0.00003029,-0.00014495,-0.00005934,0.00009336,0.00016967,-0
 .00000136,-0.00017709,0.00022707,-0.00001353,-0.00001130,-0.00005383,-
 0.00004186,-0.00000297,0.00001167,0.00002244,0.00003275,0.00002184,0.0
 0001713,-0.00002493,-0.00001729,-0.00001544,0.00000184,0.00001864,0.00
 003305,0.00000477,0.67075798,0.17869304,0.37036314,-0.00078344,0.00085
 111,-0.00055812,-0.00066455,-0.00061606,-0.00014409,0.00014548,0.00028
 592,-0.00027618,0.00154093,-0.00006338,-0.00604028,-0.00937027,0.01762
 936,-0.00265645,-0.36554627,0.41344750,-0.11932713,0.00797296,-0.00617
 588,-0.00360260,0.00413175,0.00087426,-0.00303309,0.00024283,-0.000175
 45,-0.00007002,-0.00023016,-0.00102570,-0.00021464,-0.00042816,-0.0002
 0231,0.00042926,-0.00140119,0.00072327,0.00363531,-0.00035738,-0.00045
 421,0.00072117,-0.00006462,0.00001791,-0.00034663,0.00006989,0.0001741
 1,-0.00002702,-0.00006543,0.00008536,-0.00002028,0.00004429,-0.0000262
 9,-0.00001456,-0.00001395,0.00001359,-0.00000188,0.00001592,-0.0000226
 1,-0.00002223,0.00000257,-0.00000498,0.00000798,0.00001336,-0.00004543
 ,0.00003320,-0.00000590,-0.00000646,-0.00000069,0.00011135,-0.00002130
 ,0.00100797,0.00056522,0.00064371,0.00054080,-0.00006483,-0.00018435,-
 0.00020092,0.00035077,0.00005718,0.00003269,-0.00004844,-0.00004021,0.
 00001426,0.00000109,-0.00000207,-0.00001652,0.00004203,0.00004502,0.00
 002123,0.00000211,-0.00001070,-0.00000342,0.00001428,-0.00000005,-0.00
 000579,0.00000139,-0.00000044,-0.00000607,0.00000114,-0.00000096,0.000
 00278,-0.00205672,-0.00121681,0.00355323,0.00001607,-0.00003125,-0.000
 10265,0.36581585,-0.00020922,0.00036097,0.00036167,-0.00014374,-0.0002
 5872,-0.00000853,0.00002161,0.00039712,-0.00000913,0.00022264,0.001963
 74,-0.00378687,-0.00727815,0.00906580,-0.00470650,0.41213192,-0.405391
 31,0.10692707,0.02308840,-0.01363341,0.00846151,0.00065554,-0.00286545
 ,-0.00600910,0.00116016,-0.00079214,0.00030801,-0.00107465,0.00000409,
 -0.00035056,-0.00023932,-0.00017139,0.00029795,-0.00097479,-0.00053971
 ,0.00112500,-0.00005005,-0.00002470,-0.00022376,0.00000290,-0.00000083
 ,-0.00001716,-0.00002313,-0.00005214,0.00009988,0.00003120,0.00000351,
 0.00000975,-0.00002725,0.00000275,0.00001892,-0.00000240,-0.00000075,-
 0.00000817,-0.00000057,-0.00000057,-0.00003192,-0.00001328,-0.00001217
 ,0.00001948,-0.00002338,-0.00001062,0.00000760,0.00001911,-0.00001089,
 -0.00000038,0.00010400,-0.00081811,-0.00121118,-0.00022842,-0.00057327
 ,-0.00128640,0.00009353,-0.00013242,-0.00010442,-0.00025306,-0.0000826
 2,-0.00008145,0.00000433,-0.00001856,0.00000698,-0.00000145,0.00000202
 ,-0.00000411,0.00000580,0.00003458,0.00000112,-0.00000803,0.00000321,-
 0.00000681,0.00000084,0.00000878,0.00000711,-0.00000372,0.00000050,-0.
 00000021,-0.00000302,-0.00000571,0.00000869,-0.00242483,0.00079004,0.0
 0235274,-0.00003815,-0.00001094,-0.00006234,-0.42452138,0.41276934,-0.
 00044779,0.00106938,-0.00152880,0.00061820,0.00032772,0.00000023,0.000
 10281,-0.00000241,0.00035694,-0.00549638,-0.00394186,0.00098543,-0.017
 33956,0.01853888,0.00178215,-0.12011844,0.10640796,-0.00407007,0.01372
 882,-0.01728409,0.00996982,-0.00327160,-0.00592316,0.00185913,0.000640
 69,-0.00076821,0.00043563,-0.00010808,-0.00021403,-0.00104674,0.000479
 08,0.00027556,-0.00047373,0.00127535,0.00188000,-0.00155902,-0.0006293
 4,-0.00012061,0.00107578,-0.00000556,-0.00005993,-0.00033600,0.0001759
 8,0.00014779,-0.00025137,-0.00016225,0.00005135,0.00002273,0.00004775,
 -0.00005213,-0.00002628,-0.00001680,0.00002544,-0.00001325,0.00001172,
 -0.00000608,0.00008514,0.00001509,0.00002053,-0.00003071,0.00009815,0.
 00001938,0.00000343,-0.00003071,0.00002074,-0.00001781,-0.00032008,-0.
 00088889,-0.00008361,0.00078148,-0.00106687,-0.00146038,0.00023722,0.0
 0004031,-0.00001016,0.00011987,0.00039589,0.00019593,-0.00000568,-0.00
 003588,0.00003426,0.00000225,0.00000006,-0.00002145,0.00005401,-0.0000
 4647,-0.00002920,0.00000475,-0.00000623,0.00000413,0.00002406,-0.00001
 428,-0.00002490,0.00000966,-0.00000056,-0.00000023,0.00000296,-0.00000
 020,-0.00000892,0.00286680,0.00332409,-0.00245877,-0.00003581,-0.00000
 870,0.00002671,0.12669139,-0.10210450,-0.00338609\\0.03408734,0.004353
 40,0.01205987,-0.00370163,-0.00471486,-0.00194050,0.19657483,0.0397295
 0,0.13107073,-0.04095606,-0.00952601,-0.04830695,0.00515978,-0.0168614
 7,0.00167332,-0.10798592,0.09774925,-0.04043541,-0.09375885,-0.0211547
 6,-0.09544194,-0.01834987,-0.12299007,-0.08678451,0.00359524,0.1424524
 4,0.08553945,0.10831221,-0.09331462,0.04396040,-0.10955232,0.11538854,
 -0.03412597,-0.00819956,-0.00843560,-0.01020665,-0.03848511,-0.0529139
 2,0.04022770,-0.00530458,-0.00074428,-0.02152398,0.01904451,0.06014407
 ,-0.00280499,0.00785625,0.00902728,0.00366464,0.13069920,0.06851263,0.
 01510743,-0.14637420,-0.07448932,-0.01594198,-0.12786187,-0.06834743,-
 0.01724213,0.14673300,0.07687399,0.01927080,-0.01967808,-0.13598923,-0
 .08131539,0.00773766,0.14030025,0.08717346,-0.10054082,0.06346521,0.02
 568510,0.09167770,0.06521647,0.04548541,-0.00353041,-0.11334437,0.0528
 1244,0.01550458,-0.01568534,-0.12162133,0.01514827,0.12869244,0.080303
 69,-0.01125318,-0.14002629,-0.08803652,0.00381395,-0.00760684,-0.00489
 092,-0.10310686,0.05356122,0.05222439,0.04098667,-0.09530129,0.0697571
 0,-0.02493751,-0.04376361,-0.11574444,0.09004805,0.08471472,-0.0075569
 0,0.11678349,0.02187882,0.11728675,-0.18265229,-0.02869750,-0.12100594
 ,0.11246639,-0.11815343,0.03162374\\\@
 The archive entry for this job was punched.

 Writing a WFNX file to "XAJSAD_Complex_3_Ligand_0_NN_Cu_oriented.wfx"


 IF IT HAPPENS, IT MUST BE POSSIBLE.

 -- THE UNNAMED LAW FROM PAUL DICKSON'S 
    "THE OFFICIAL RULES"
 Job cpu time:       0 days  1 hours 15 minutes 40.7 seconds.
 Elapsed time:       0 days  1 hours 15 minutes 58.6 seconds.
 File lengths (MBytes):  RWF=    652 Int=      0 D2E=      0 Chk=     16 Scr=      8
 Normal termination of Gaussian 16 at Mon Mar  6 11:37:44 2023.
