 Entering Gaussian System, Link 0=g16
 Initial command:
 /ssoft/spack/external/gaussian/g16-C.01/avx2/g16/l1.exe "/scratch/lcmd/2316192/Gau-2932120.inp" -scrdir="/scratch/lcmd/2316192/"
 Entering Link 1 = /ssoft/spack/external/gaussian/g16-C.01/avx2/g16/l1.exe PID=   2932124.
  
 Copyright (c) 1988-2019, Gaussian, Inc.  All Rights Reserved.
  
 This is part of the Gaussian(R) 16 program.  It is based on
 the Gaussian(R) 09 system (copyright 2009, Gaussian, Inc.),
 the Gaussian(R) 03 system (copyright 2003, Gaussian, Inc.),
 the Gaussian(R) 98 system (copyright 1998, Gaussian, Inc.),
 the Gaussian(R) 94 system (copyright 1995, Gaussian, Inc.),
 the Gaussian 92(TM) system (copyright 1992, Gaussian, Inc.),
 the Gaussian 90(TM) system (copyright 1990, Gaussian, Inc.),
 the Gaussian 88(TM) system (copyright 1988, Gaussian, Inc.),
 the Gaussian 86(TM) system (copyright 1986, Carnegie Mellon
 University), and the Gaussian 82(TM) system (copyright 1983,
 Carnegie Mellon University). Gaussian is a federally registered
 trademark of Gaussian, Inc.
  
 This software contains proprietary and confidential information,
 including trade secrets, belonging to Gaussian, Inc.
  
 This software is provided under written license and may be
 used, copied, transmitted, or stored only in accord with that
 written license.
  
 The following legend is applicable only to US Government
 contracts under FAR:
  
                    RESTRICTED RIGHTS LEGEND
  
 Use, reproduction and disclosure by the US Government is
 subject to restrictions as set forth in subparagraphs (a)
 and (c) of the Commercial Computer Software - Restricted
 Rights clause in FAR 52.227-19.
  
 Gaussian, Inc.
 340 Quinnipiac St., Bldg. 40, Wallingford CT 06492
  
  
 ---------------------------------------------------------------
 Warning -- This program may not be used in any manner that
 competes with the business of Gaussian, Inc. or will provide
 assistance to any competitor of Gaussian, Inc.  The licensee
 of this program is prohibited from giving any competitor of
 Gaussian, Inc. access to this program.  By using this program,
 the user acknowledges that Gaussian, Inc. is engaged in the
 business of creating and licensing software in the field of
 computational chemistry and represents and warrants to the
 licensee that it is not a competitor of Gaussian, Inc. and that
 it will not use this program in any manner prohibited above.
 ---------------------------------------------------------------
  

 Cite this work as:
 Gaussian 16, Revision C.01,
 M. J. Frisch, G. W. Trucks, H. B. Schlegel, G. E. Scuseria, 
 M. A. Robb, J. R. Cheeseman, G. Scalmani, V. Barone, 
 G. A. Petersson, H. Nakatsuji, X. Li, M. Caricato, A. V. Marenich, 
 J. Bloino, B. G. Janesko, R. Gomperts, B. Mennucci, H. P. Hratchian, 
 J. V. Ortiz, A. F. Izmaylov, J. L. Sonnenberg, D. Williams-Young, 
 F. Ding, F. Lipparini, F. Egidi, J. Goings, B. Peng, A. Petrone, 
 T. Henderson, D. Ranasinghe, V. G. Zakrzewski, J. Gao, N. Rega, 
 G. Zheng, W. Liang, M. Hada, M. Ehara, K. Toyota, R. Fukuda, 
 J. Hasegawa, M. Ishida, T. Nakajima, Y. Honda, O. Kitao, H. Nakai, 
 T. Vreven, K. Throssell, J. A. Montgomery, Jr., J. E. Peralta, 
 F. Ogliaro, M. J. Bearpark, J. J. Heyd, E. N. Brothers, K. N. Kudin, 
 V. N. Staroverov, T. A. Keith, R. Kobayashi, J. Normand, 
 K. Raghavachari, A. P. Rendell, J. C. Burant, S. S. Iyengar, 
 J. Tomasi, M. Cossi, J. M. Millam, M. Klene, C. Adamo, R. Cammi, 
 J. W. Ochterski, R. L. Martin, K. Morokuma, O. Farkas, 
 J. B. Foresman, and D. J. Fox, Gaussian, Inc., Wallingford CT, 2019.
 
 ******************************************
 Gaussian 16:  ES64L-G16RevC.01  3-Jul-2019
                 4-Mar-2023 
 ******************************************
 %nprocshared=1
 Will use up to    1 processors via shared memory.
 %mem=8000MB
 %chk=XAZTOH_Complex_4_Ligand_1_NN_Cu_oriented.chk
 ----------------------------------------------------------------------
 #p pop=(regular,nbo,savenbos) freq=noraman def2svp empiricaldispersion
 =gd3bj output=wfx pbe1pbe
 ----------------------------------------------------------------------
 1/10=4,30=1,38=1/1,3;
 2/12=2,17=6,18=5,40=1/2;
 3/5=43,7=101,11=2,25=1,30=1,71=2,74=-13,124=41,140=1/1,2,3;
 4//1;
 5/5=2,38=5,98=1/2;
 8/6=4,10=90,11=11/1;
 11/6=1,8=1,9=11,15=111,16=1/1,2,10;
 10/6=1/2;
 6/28=1,40=1,73=1/1,7;
 7/8=1,10=1,25=1/1,2,3,16;
 1/10=4,30=1/3;
 99/6=200/99;
 Leave Link    1 at Sat Mar  4 11:40:43 2023, MaxMem=  1048576000 cpu:               0.0 elap:               0.2
 (Enter /ssoft/spack/external/gaussian/g16-C.01/avx2/g16/l101.exe)
 ----------------------------------------
 XAZTOH_Complex_4_Ligand_1_NN_Cu_oriented
 ----------------------------------------
 Symbolic Z-matrix:
 Charge =  0 Multiplicity = 1
 N                    -1.87042   0.63443   0. 
 O                    -3.5272    2.08033  -0.37603 
 N                     0.72279   1.82639   0. 
 C                    -1.4201    3.14083  -0.21962 
 C                    -3.06966  -0.23072  -0.10368 
 H                    -2.97885  -0.80239  -0.90591 
 C                    -2.21967   1.85051  -0.13772 
 C                     2.16289   2.13956   0.0861 
 H                     2.57534   1.63674   0.83267 
 C                     2.13384   3.66582   0.4199 
 H                     2.36863   3.82695   1.35726 
 H                     2.7509    4.16547  -0.15555 
 C                    -1.56093   3.72271  -1.59005 
 H                    -1.18957   3.10854  -2.24252 
 H                    -1.08398   4.56626  -1.63378 
 H                    -2.50029   3.87074  -1.7829 
 C                     2.90556   1.85297  -1.20559 
 O                     0.73976   4.03877   0.15123 
 C                     4.98299   1.36799  -2.34059 
 H                     5.91145   1.21788  -2.30408 
 C                     4.27886   1.60998  -1.1631 
 H                     4.72998   1.61033  -0.33936 
 C                     2.27667   1.86748  -2.42986 
 H                     1.36066   2.06539  -2.48106 
 C                     2.9932    1.58825  -3.60149 
 H                     2.54727   1.5673   -4.4284 
 C                     0.0481    2.89299   0.00332 
 C                     4.34277   1.34334  -3.55305 
 H                     4.82189   1.16159  -4.34211 
 C                    -4.18314   0.79694  -0.36261 
 C                    -1.99391   4.11549   0.81601 
 H                    -1.50267   4.95052   0.78358 
 H                    -1.91531   3.72794   1.70233 
 H                    -2.92935   4.28254   0.61818 
 C                    -2.91039  -2.00113   3.25685 
 H                    -2.37506  -2.00895   4.03064 
 C                    -3.36134  -1.13108   1.09834 
 C                    -2.5933   -1.11881   2.24585 
 H                    -1.87227  -0.52225   2.33671 
 C                    -3.95952  -2.86284   3.18493 
 H                    -4.15054  -3.46136   3.88428 
 C                    -4.75089  -2.82018   2.01399 
 H                    -5.50113  -3.38224   1.94446 
 C                    -4.44704  -1.98391   0.993 
 H                    -4.85984   0.76381   0.34741 
 H                    -4.97207  -1.98237   0.21288 
 H                    -4.62151   0.62445  -1.22178 
 
 ITRead=  0  0  0  0  0  0  0  0  0  0  0  0  0  0  0  0  0  0  0  0
 ITRead=  0  0  0  0  0  0  0  0  0  0  0  0  0  0  0  0  0  0  0  0
 ITRead=  0  0  0  0  0  0  0
 MicOpt= -1 -1 -1 -1 -1 -1 -1 -1 -1 -1 -1 -1 -1 -1 -1 -1 -1 -1 -1 -1
 MicOpt= -1 -1 -1 -1 -1 -1 -1 -1 -1 -1 -1 -1 -1 -1 -1 -1 -1 -1 -1 -1
 MicOpt= -1 -1 -1 -1 -1 -1 -1
 NAtoms=     47 NQM=       47 NQMF=       0 NMMI=      0 NMMIF=      0
                NMic=       0 NMicF=      0.
                    Isotopes and Nuclear Properties:
 (Nuclear quadrupole moments (NQMom) in fm**2, nuclear magnetic moments (NMagM)
  in nuclear magnetons)

  Atom         1           2           3           4           5           6           7           8           9          10
 IAtWgt=          14          16          14          12          12           1          12          12           1          12
 AtmWgt=  14.0030740  15.9949146  14.0030740  12.0000000  12.0000000   1.0078250  12.0000000  12.0000000   1.0078250  12.0000000
 NucSpn=           2           0           2           0           0           1           0           0           1           0
 AtZEff=  -0.0000000  -0.0000000  -0.0000000  -0.0000000  -0.0000000  -0.0000000  -0.0000000  -0.0000000  -0.0000000  -0.0000000
 NQMom=    2.0440000   0.0000000   2.0440000   0.0000000   0.0000000   0.0000000   0.0000000   0.0000000   0.0000000   0.0000000
 NMagM=    0.4037610   0.0000000   0.4037610   0.0000000   0.0000000   2.7928460   0.0000000   0.0000000   2.7928460   0.0000000
 AtZNuc=   7.0000000   8.0000000   7.0000000   6.0000000   6.0000000   1.0000000   6.0000000   6.0000000   1.0000000   6.0000000

  Atom        11          12          13          14          15          16          17          18          19          20
 IAtWgt=           1           1          12           1           1           1          12          16          12           1
 AtmWgt=   1.0078250   1.0078250  12.0000000   1.0078250   1.0078250   1.0078250  12.0000000  15.9949146  12.0000000   1.0078250
 NucSpn=           1           1           0           1           1           1           0           0           0           1
 AtZEff=  -0.0000000  -0.0000000  -0.0000000  -0.0000000  -0.0000000  -0.0000000  -0.0000000  -0.0000000  -0.0000000  -0.0000000
 NQMom=    0.0000000   0.0000000   0.0000000   0.0000000   0.0000000   0.0000000   0.0000000   0.0000000   0.0000000   0.0000000
 NMagM=    2.7928460   2.7928460   0.0000000   2.7928460   2.7928460   2.7928460   0.0000000   0.0000000   0.0000000   2.7928460
 AtZNuc=   1.0000000   1.0000000   6.0000000   1.0000000   1.0000000   1.0000000   6.0000000   8.0000000   6.0000000   1.0000000

  Atom        21          22          23          24          25          26          27          28          29          30
 IAtWgt=          12           1          12           1          12           1          12          12           1          12
 AtmWgt=  12.0000000   1.0078250  12.0000000   1.0078250  12.0000000   1.0078250  12.0000000  12.0000000   1.0078250  12.0000000
 NucSpn=           0           1           0           1           0           1           0           0           1           0
 AtZEff=  -0.0000000  -0.0000000  -0.0000000  -0.0000000  -0.0000000  -0.0000000  -0.0000000  -0.0000000  -0.0000000  -0.0000000
 NQMom=    0.0000000   0.0000000   0.0000000   0.0000000   0.0000000   0.0000000   0.0000000   0.0000000   0.0000000   0.0000000
 NMagM=    0.0000000   2.7928460   0.0000000   2.7928460   0.0000000   2.7928460   0.0000000   0.0000000   2.7928460   0.0000000
 AtZNuc=   6.0000000   1.0000000   6.0000000   1.0000000   6.0000000   1.0000000   6.0000000   6.0000000   1.0000000   6.0000000

  Atom        31          32          33          34          35          36          37          38          39          40
 IAtWgt=          12           1           1           1          12           1          12          12           1          12
 AtmWgt=  12.0000000   1.0078250   1.0078250   1.0078250  12.0000000   1.0078250  12.0000000  12.0000000   1.0078250  12.0000000
 NucSpn=           0           1           1           1           0           1           0           0           1           0
 AtZEff=  -0.0000000  -0.0000000  -0.0000000  -0.0000000  -0.0000000  -0.0000000  -0.0000000  -0.0000000  -0.0000000  -0.0000000
 NQMom=    0.0000000   0.0000000   0.0000000   0.0000000   0.0000000   0.0000000   0.0000000   0.0000000   0.0000000   0.0000000
 NMagM=    0.0000000   2.7928460   2.7928460   2.7928460   0.0000000   2.7928460   0.0000000   0.0000000   2.7928460   0.0000000
 AtZNuc=   6.0000000   1.0000000   1.0000000   1.0000000   6.0000000   1.0000000   6.0000000   6.0000000   1.0000000   6.0000000

  Atom        41          42          43          44          45          46          47
 IAtWgt=           1          12           1          12           1           1           1
 AtmWgt=   1.0078250  12.0000000   1.0078250  12.0000000   1.0078250   1.0078250   1.0078250
 NucSpn=           1           0           1           0           1           1           1
 AtZEff=  -0.0000000  -0.0000000  -0.0000000  -0.0000000  -0.0000000  -0.0000000  -0.0000000
 NQMom=    0.0000000   0.0000000   0.0000000   0.0000000   0.0000000   0.0000000   0.0000000
 NMagM=    2.7928460   0.0000000   2.7928460   0.0000000   2.7928460   2.7928460   2.7928460
 AtZNuc=   1.0000000   6.0000000   1.0000000   6.0000000   1.0000000   1.0000000   1.0000000
 Leave Link  101 at Sat Mar  4 11:40:43 2023, MaxMem=  1048576000 cpu:               0.1 elap:               0.1
 (Enter /ssoft/spack/external/gaussian/g16-C.01/avx2/g16/l103.exe)

 GradGradGradGradGradGradGradGradGradGradGradGradGradGradGradGradGradGrad
 Berny optimization.
 Initialization pass.
 Trust Radius=3.00D-01 FncErr=1.00D-07 GrdErr=1.00D-07 EigMax=2.50D+02 EigMin=1.00D-04
 Number of steps in this run=      2 maximum allowed number of steps=      2.
 GradGradGradGradGradGradGradGradGradGradGradGradGradGradGradGradGradGrad

 Leave Link  103 at Sat Mar  4 11:40:43 2023, MaxMem=  1048576000 cpu:               0.0 elap:               0.0
 (Enter /ssoft/spack/external/gaussian/g16-C.01/avx2/g16/l202.exe)
                          Input orientation:                          
 ---------------------------------------------------------------------
 Center     Atomic      Atomic             Coordinates (Angstroms)
 Number     Number       Type             X           Y           Z
 ---------------------------------------------------------------------
      1          7           0       -1.870419    0.634433    0.000000
      2          8           0       -3.527197    2.080328   -0.376029
      3          7           0        0.722786    1.826390    0.000000
      4          6           0       -1.420099    3.140830   -0.219622
      5          6           0       -3.069664   -0.230721   -0.103680
      6          1           0       -2.978852   -0.802387   -0.905908
      7          6           0       -2.219673    1.850511   -0.137717
      8          6           0        2.162888    2.139564    0.086100
      9          1           0        2.575338    1.636741    0.832670
     10          6           0        2.133843    3.665823    0.419904
     11          1           0        2.368630    3.826951    1.357256
     12          1           0        2.750904    4.165471   -0.155552
     13          6           0       -1.560932    3.722714   -1.590054
     14          1           0       -1.189571    3.108540   -2.242520
     15          1           0       -1.083978    4.566262   -1.633783
     16          1           0       -2.500294    3.870737   -1.782903
     17          6           0        2.905562    1.852974   -1.205588
     18          8           0        0.739756    4.038769    0.151229
     19          6           0        4.982989    1.367992   -2.340590
     20          1           0        5.911448    1.217877   -2.304082
     21          6           0        4.278859    1.609978   -1.163104
     22          1           0        4.729980    1.610331   -0.339357
     23          6           0        2.276670    1.867481   -2.429865
     24          1           0        1.360662    2.065394   -2.481064
     25          6           0        2.993197    1.588247   -3.601487
     26          1           0        2.547274    1.567299   -4.428397
     27          6           0        0.048101    2.892992    0.003316
     28          6           0        4.342773    1.343338   -3.553046
     29          1           0        4.821890    1.161592   -4.342113
     30          6           0       -4.183141    0.796941   -0.362612
     31          6           0       -1.993912    4.115494    0.816014
     32          1           0       -1.502666    4.950523    0.783579
     33          1           0       -1.915313    3.727939    1.702327
     34          1           0       -2.929353    4.282535    0.618183
     35          6           0       -2.910391   -2.001133    3.256846
     36          1           0       -2.375063   -2.008947    4.030635
     37          6           0       -3.361338   -1.131075    1.098340
     38          6           0       -2.593301   -1.118808    2.245852
     39          1           0       -1.872269   -0.522252    2.336714
     40          6           0       -3.959525   -2.862842    3.184930
     41          1           0       -4.150537   -3.461362    3.884282
     42          6           0       -4.750891   -2.820181    2.013987
     43          1           0       -5.501127   -3.382242    1.944457
     44          6           0       -4.447038   -1.983909    0.993003
     45          1           0       -4.859841    0.763814    0.347407
     46          1           0       -4.972072   -1.982373    0.212876
     47          1           0       -4.621509    0.624451   -1.221780
 ---------------------------------------------------------------------
                    Distance matrix (angstroms):
                    1          2          3          4          5
     1  N    0.000000
     2  O    2.230901   0.000000
     3  N    2.854028   4.274135   0.000000
     4  C    2.555983   2.364104   2.523479   0.000000
     5  C    1.482373   2.371594   4.315685   3.755245   0.000000
     6  H    2.028237   2.981861   4.629607   4.295306   0.989251
     7  C    1.272710   1.348787   2.945779   1.520181   2.248371
     8  C    4.305856   5.709127   1.476274   3.732800   5.747510
     9  H    4.632787   6.236878   2.039915   4.396945   6.019154
    10  C    5.039818   5.932510   2.356038   3.648988   6.521786
    11  H    5.477577   6.388720   2.924584   4.160742   6.940756
    12  H    5.817994   6.618987   3.099800   4.295494   7.294396
    13  C    3.487339   2.835046   3.367444   1.495495   4.485000
    14  H    3.407882   3.163148   3.214018   2.036248   4.388628
    15  H    4.329782   3.705554   3.666134   2.035850   5.412505
    16  H    3.748219   2.497877   4.212640   2.035542   4.468325
    17  C    5.074276   6.490011   2.493724   4.619746   6.423342
    18  O    4.292481   4.724445   2.217607   2.368291   5.727584
    19  C    7.279126   8.763001   4.882399   6.974310   8.509105
    20  H    8.136747   9.672085   5.709754   7.860936   9.359519
    21  C    6.333886   7.859721   3.747706   5.975934   7.649271
    22  H    6.680779   8.270623   4.027338   6.338789   8.017448
    23  C    4.962156   6.160228   2.884525   4.491402   6.196522
    24  H    4.317778   5.321894   2.572875   3.742101   5.527376
    25  C    6.126600   7.291176   4.264057   5.772755   7.231983
    26  H    6.324314   7.320115   4.796518   5.994151   7.313416
    27  C    2.963413   3.686066   1.262081   1.505569   4.414691
    28  C    7.192387   8.518979   5.095270   6.895897   8.325864
    29  H    7.994926   9.288764   6.008207   7.737877   9.065290
    30  C    2.346610   1.441362   5.025870   3.626109   1.537194
    31  C    3.577557   2.813153   3.645041   1.533549   4.570850
    32  H    4.402030   3.698842   3.914951   2.070801   5.485253
    33  H    3.531248   3.103603   3.670609   2.069739   4.501686
    34  H    3.848654   2.489095   4.444425   2.069602   4.572774
    35  C    4.316804   5.498777   6.201367   6.383305   3.801692
    36  H    4.846457   6.121133   6.368084   6.745135   4.553803
    37  C    2.558556   3.537568   5.160719   4.873870   1.529890
    38  C    2.939433   4.240388   4.971366   5.059594   2.556545
    39  H    2.607328   4.107455   4.208405   4.489709   2.733911
    40  C    5.170984   6.107558   7.352327   7.354165   4.305214
    41  H    6.087867   7.017772   8.172958   8.239312   5.244918
    42  C    4.928248   5.587897   7.457071   7.184486   3.743840
    43  H    5.752968   6.254657   8.345529   7.993028   4.476490
    44  C    3.805356   4.386158   6.498578   6.074189   2.484661
    45  H    3.012320   2.008110   5.693459   4.219425   2.096977
    46  H    4.063648   4.352012   6.854444   6.249062   2.605311
    47  H    3.010206   2.008082   5.612387   4.193508   2.095158
                    6          7          8          9         10
     6  H    0.000000
     7  C    2.864321   0.000000
     8  C    6.006383   4.397782   0.000000
     9  H    6.310389   4.896885   0.990108   0.000000
    10  C    6.918260   4.749674   1.562605   2.117185   0.000000
    11  H    7.426186   5.214766   2.122603   2.261623   0.979651
    12  H    7.620548   5.483247   2.123313   2.720641   0.980593
    13  C    4.791146   2.459342   4.379804   5.227772   4.206486
    14  H    4.503710   2.659689   4.195279   5.079127   4.294665
    15  H    5.739576   3.302017   4.403294   5.296799   3.922090
    16  H    4.778726   2.620438   5.313699   6.131394   5.135131
    17  C    6.462745   5.235302   1.517286   2.076127   2.554251
    18  O    6.195351   3.691908   2.374137   3.098945   1.467907
    19  C    8.376142   7.547438   3.799621   3.992317   4.584538
    20  H    9.223545   8.438513   4.540284   4.598293   5.261448
    21  C    7.652452   6.583327   2.513624   2.624084   3.366527
    22  H    8.097424   6.956725   2.655384   2.452923   3.397271
    23  C    6.088608   5.046913   2.533190   3.284293   3.372775
    24  H    5.434764   4.284419   2.690612   3.555280   3.402175
    25  C    6.974714   6.264223   3.819903   4.454066   4.607211
    26  H    6.968601   6.419808   4.566828   5.261600   5.299127
    27  C    4.862608   2.499891   2.246514   2.941584   2.262992
    28  C    8.075745   7.415348   4.316162   4.737554   5.104668
    29  H    8.747359   8.230138   5.256975   5.661373   6.014447
    30  C    2.074448   2.239597   6.502004   6.914550   6.981913
    31  C    5.302893   2.467938   4.660049   5.198321   4.171027
    32  H    6.174906   3.312545   4.671643   5.254872   3.873876
    33  H    5.334590   2.646343   4.665496   5.029449   4.247839
    34  H    5.308647   2.643817   5.550347   6.111289   5.104468
    35  C    4.332459   5.180281   7.275793   7.014554   8.099811
    36  H    5.117598   5.682845   7.304964   6.929970   8.097570
    37  C    2.066723   3.423609   6.499137   6.555570   7.325812
    38  C    3.190982   3.825946   6.156530   6.025360   6.969411
    39  H    3.437674   3.445796   5.332263   5.167650   6.104349
    40  C    4.684245   6.023518   8.491805   8.275494   9.348688
    41  H    5.602581   6.936909   9.255047   8.974429  10.113957
    42  C    3.967040   5.731690   8.724458   8.656401   9.592128
    43  H    4.598055   6.518060   9.627095   9.573690  10.502012
    44  C    2.675337   4.576293   7.843253   7.902440   8.692290
    45  H    2.749891   2.895987   7.160983   7.501957   7.572221
    46  H    2.572347   4.731767   8.241000   8.393182   9.079593
    47  H    2.198627   2.906412   7.073483   7.552489   7.588139
                   11         12         13         14         15
    11  H    0.000000
    12  H    1.596658   0.000000
    13  C    4.913141   4.565716   0.000000
    14  H    5.112269   4.582563   0.969965   0.000000
    15  H    4.627461   4.129422   0.970036   1.583245   0.000000
    16  H    5.793871   5.505472   0.970310   1.584357   1.584911
    17  C    3.279185   2.544433   4.857295   4.407016   4.843729
    18  O    2.037792   2.038353   2.902606   3.212112   2.605863
    19  C    5.153194   4.193147   6.995064   6.414017   6.894679
    20  H    5.724003   4.826337   7.913312   7.348664   7.784405
    21  C    3.862143   3.143302   6.224877   5.771876   6.141756
    22  H    3.656210   3.237169   6.752924   6.395916   6.649449
    23  C    4.265004   3.267745   4.344463   3.686482   4.383049
    24  H    4.341864   3.427988   3.475100   2.765636   3.598401
    25  C    5.476404   4.309902   5.416816   4.653345   5.418836
    26  H    6.213833   5.004914   5.438692   4.595377   5.476280
    27  C    2.844343   2.991586   2.411691   2.573339   2.600294
    28  C    5.846079   4.694832   6.660968   5.953171   6.597002
    29  H    6.753179   5.553338   7.407671   6.658570   7.335264
    30  C    7.420554   7.711735   4.116156   4.223625   5.042665
    31  C    4.405448   4.843523   2.476068   3.318969   2.651920
    32  H    4.071665   4.426188   2.673021   3.556432   2.483263
    33  H    4.298960   5.041501   3.311402   4.058593   3.538860
    34  H    5.368651   5.733907   2.657496   3.548060   2.925279
    35  C    8.089690   9.040007   7.620754   7.701494   8.389559
    36  H    7.981685   9.051140   8.068884   8.182087   8.774161
    37  C    7.581662   8.184446   5.833369   5.818270   6.716436
    38  C    7.061934   7.889923   6.262611   6.323482   7.046251
    39  H    6.153060   7.039878   5.791043   5.883717   6.502248
    40  C    9.388252  10.275498   8.480758   8.531545   9.310228
    41  H   10.099748  11.050734   9.396028   9.458786  10.212520
    42  C    9.762338  10.477747   8.122464   8.120997   9.017318
    43  H   10.688796  11.378666   8.859927   8.845934   9.772089
    44  C    8.963934   9.536479   6.896907   6.856584   7.817603
    45  H    7.915390   8.351507   4.836490   5.067183   5.713218
    46  H    9.431000   9.878061   6.887267   6.801006   7.836583
    47  H    8.109839   8.247918   4.370582   4.357845   5.312414
                   16         17         18         19         20
    16  H    0.000000
    17  C    5.798960   0.000000
    18  O    3.777172   3.362941   0.000000
    19  C    7.910390   2.416431   5.598860   0.000000
    20  H    8.835536   3.262727   6.382192   0.941224   0.000000
    21  C    7.173011   1.395276   4.489069   1.393137   2.030006
    22  H    7.711687   2.034142   4.696794   2.031668   2.325947
    23  C    5.220247   1.376433   3.706567   2.753475   3.694512
    24  H    4.318990   2.014615   3.347940   3.691525   4.632414
    25  C    6.220567   2.412071   5.016565   2.365935   3.215062
    26  H    6.146740   3.255223   5.508926   3.214244   3.994055
    27  C    3.262037   3.272334   1.346503   5.672093   6.519887
    28  C    7.506578   2.799261   5.828270   1.371326   2.009078
    29  H    8.216045   3.740068   6.718042   2.018576   2.311683
    30  C    3.781193   7.216338   5.916790   9.394490  10.288208
    31  C    2.659078   5.762874   2.814386   8.135728   8.979193
    32  H    2.957706   5.743176   2.501924   8.041063   8.856376
    33  H    3.536865   5.933996   3.090617   8.336732   9.143846
    34  H    2.473637   6.578384   3.706728   8.936109   9.802628
    35  C    7.748942   8.282075   7.710308  10.246353  10.913789
    36  H    8.269437   8.379587   7.831141  10.302289  10.918210
    37  C    5.836188   7.313458   6.666580   9.364794  10.152764
    38  C    6.413663   7.140128   6.488245   9.198902   9.924352
    39  H    6.055082   6.404474   5.692271   8.511449   9.227746
    40  C    8.494104   9.415147   8.883627  11.331367  12.009064
    41  H    9.412755  10.194973   9.700651  12.062047  12.705694
    42  C    8.015606   9.530232   8.981218  11.456507  12.191682
    43  H    8.689299  10.392435   9.860817  12.281818  13.017606
    44  C    6.765526   8.579988   7.992751  10.548625  11.332274
    45  H    4.445070   7.993719   6.489939  10.221137  11.102127
    46  H    6.659708   8.875756   8.299574  10.809642  11.620141
    47  H    3.918263   7.626685   6.502760   9.697988  10.605033
                   21         22         23         24         25
    21  C    0.000000
    22  H    0.939185   0.000000
    23  C    2.383223   3.233431   0.000000
    24  H    3.234238   4.018245   0.938542   0.000000
    25  C    2.756649   3.695726   1.401456   2.036710   0.000000
    26  H    3.696261   4.635332   2.038987   2.334150   0.939716
    27  C    4.572304   4.866480   3.455222   2.929143   4.834309
    28  C    2.405620   3.247924   2.409366   3.250153   1.372473
    29  H    3.256077   4.028879   3.260846   4.032426   2.018584
    30  C    8.538575   8.950188   6.866495   6.068819   7.913046
    31  C    7.038620   7.267837   5.816112   5.130965   7.125486
    32  H    6.955203   7.159871   5.840784   5.213493   7.123657
    33  H    7.145923   7.267232   6.173252   5.567480   7.536723
    34  H    7.891378   8.168411   6.498135   5.738055   7.755088
    35  C    9.179401   9.184260   8.614549   8.228131   9.735129
    36  H    9.184020   9.092725   8.854568   8.541552  10.000365
    37  C    8.426156   8.663239   7.295663   6.732520   8.358421
    38  C    8.142103   8.231766   7.382200   6.936620   8.528100
    39  H    7.391313   7.436328   6.756094   6.352853   7.961734
    40  C   10.333561  10.389291   9.632860   9.203009  10.686814
    41  H   11.056641  11.064573  10.467760  10.071542  11.513827
    42  C   10.547825  10.726350   9.545083   9.023603  10.532744
    43  H   11.411719  11.611079  10.353184   9.815606  11.296761
    44  C    9.680191   9.945421   8.470978   7.886404   9.445990
    45  H    9.301261   9.651575   7.736996   6.956221   8.828570
    46  H   10.018883  10.360612   8.622628   7.984062   9.525975
    47  H    8.954957   9.444627   7.112627   6.280803   8.035898
                   26         27         28         29         30
    26  H    0.000000
    27  C    5.257700   0.000000
    28  C    2.010028   5.787343   0.000000
    29  H    2.312124   6.683529   0.940857   0.000000
    30  C    7.900795   4.736111   9.119683   9.851902   0.000000
    31  C    7.390502   2.514917   8.180899   9.043615   4.146647
    32  H    7.417070   2.692049   8.123254   8.979350   5.074538
    33  H    7.884721   2.727411   8.512867   9.408044   4.242377
    34  H    7.926785   3.342772   8.883797   9.717334   3.831881
    35  C   10.078828   6.579558  10.496119  11.293147   4.748640
    36  H   10.419893   6.791173  10.671427  11.487008   5.517497
    37  C    8.528643   5.386694   9.333351  10.090593   2.554797
    38  C    8.842301   5.300992   9.370086  10.177749   3.605797
    39  H    8.346576   4.560314   8.763359   9.604886   3.790351
    40  C   10.951134   7.701516  11.490014  12.246048   5.101869
    41  H   11.800370   8.547998  12.269283  13.021126   6.014176
    42  C   10.677898   7.727449  11.446461  12.161113   4.365104
    43  H   11.396842   8.598868  12.225221  12.912477   4.952295
    44  C    9.535358   6.705961  10.440206  11.147675   3.104909
    45  H    8.849816   5.360941  10.011866  10.765023   0.981400
    46  H    9.522717   7.001088  10.583423  11.249627   2.945876
    47  H    7.909666   5.334079   9.290315   9.960059   0.979841
                   31         32         33         34         35
    31  C    0.000000
    32  H    0.969354   0.000000
    33  H    0.970529   1.584009   0.000000
    34  H    0.970613   1.583981   1.584683   0.000000
    35  C    6.649114   7.511608   6.019051   6.815232   0.000000
    36  H    6.927326   7.729079   6.208402   7.178775   0.940950
    37  C    5.429185   6.367069   5.105468   5.452004   2.370548
    38  C    5.459087   6.337547   4.924028   5.651261   1.378822
    39  H    4.882215   5.700886   4.297491   5.211215   2.027665
    40  C    7.627095   8.535298   7.057996   7.661975   1.359557
    41  H    8.454233   9.348015   7.838571   8.492741   2.015913
    42  C    7.559078   8.511681   7.142514   7.464238   2.367061
    43  H    8.354041   9.315058   7.966892   8.192792   3.215858
    44  C    6.576616   7.536546   6.287923   6.458497   2.736159
    45  H    4.434738   5.384180   4.392276   4.022624   4.462076
    46  H    6.813017   7.773514   6.646044   6.601973   3.676497
    47  H    4.821230   5.697679   5.050300   4.430625   5.466233
                   36         37         38         39         40
    36  H    0.000000
    37  C    3.215859   0.000000
    38  C    2.006346   1.380874   0.000000
    39  H    2.309205   2.030163   0.940224   0.000000
    40  C    1.988686   2.776815   2.406260   3.248763   0.000000
    41  H    2.298529   3.716792   3.255302   4.027882   0.940109
    42  C    3.220175   2.371149   2.757467   3.697444   1.413927
    43  H    4.001294   3.219063   3.697218   4.637027   2.045749
    44  C    3.677080   1.384617   2.398827   3.251374   2.411377
    45  H    5.237222   2.529826   3.505077   3.812728   4.691987
    46  H    4.617407   2.025640   3.246118   4.031304   3.260918
    47  H    6.290402   3.170624   4.379161   4.640703   5.658491
                   41         42         43         44         45
    41  H    0.000000
    42  C    2.066287   0.000000
    43  H    2.365011   0.940001   0.000000
    44  C    3.260410   1.354285   1.992914   0.000000
    45  H    5.555602   3.954034   4.489054   2.852575   0.000000
    46  H    4.042468   1.998711   2.288648   0.940352   2.751770
    47  H    6.556489   4.727834   5.181927   3.426258   1.593289
                   46         47
    46  H    0.000000
    47  H    2.996108   0.000000
 Stoichiometry    C21H22N2O2
 Framework group  C1[X(C21H22N2O2)]
 Deg. of freedom   135
 Full point group                 C1      NOp   1
 Largest Abelian subgroup         C1      NOp   1
 Largest concise Abelian subgroup C1      NOp   1
                         Standard orientation:                         
 ---------------------------------------------------------------------
 Center     Atomic      Atomic             Coordinates (Angstroms)
 Number     Number       Type             X           Y           Z
 ---------------------------------------------------------------------
      1          7           0       -1.323166    0.075326   -0.439118
      2          8           0       -1.943866    2.149543   -0.976964
      3          7           0        1.294924   -0.090161    0.685023
      4          6           0        0.158954    2.086314    0.101525
      5          6           0       -2.621116   -0.118236   -1.128531
      6          1           0       -2.461691   -0.614192   -1.969500
      7          6           0       -1.058164    1.319149   -0.389423
      8          6           0        2.572039   -0.494748    1.305241
      9          1           0        2.408841   -1.177939    2.003045
     10          6           0        3.039730    0.842691    1.964224
     11          1           0        2.926296    0.815818    2.936914
     12          1           0        3.979565    1.029720    1.756157
     13          6           0        0.825394    2.750944   -1.060642
     14          1           0        1.138474    2.076624   -1.683622
     15          1           0        1.579583    3.273320   -0.745537
     16          1           0        0.190688    3.333827   -1.506622
     17          6           0        3.578001   -1.014435    0.295229
     18          8           0        2.153490    1.841677    1.354833
     19          6           0        5.537301   -2.344476   -0.185682
     20          1           0        6.224277   -2.914289    0.113116
     21          6           0        4.590120   -1.874997    0.721660
     22          1           0        4.633806   -2.137819    1.622262
     23          6           0        3.553383   -0.630070   -1.026219
     24          1           0        2.902015   -0.023060   -1.323071
     25          6           0        4.493189   -1.138545   -1.933025
     26          1           0        4.446610   -0.896109   -2.839734
     27          6           0        1.175410    1.165680    0.722805
     28          6           0        5.482670   -1.990047   -1.509287
     29          1           0        6.115359   -2.325316   -2.119624
     30          6           0       -3.012941    1.325445   -1.482401
     31          6           0       -0.325219    3.149139    1.095383
     32          1           0        0.432744    3.656601    1.423438
     33          1           0       -0.771080    2.715256    1.840286
     34          1           0       -0.946948    3.747252    0.650633
     35          6           0       -4.548699   -1.963469    1.579310
     36          1           0       -4.419326   -2.269830    2.459533
     37          6           0       -3.706270   -0.850144   -0.336499
     38          6           0       -3.525893   -1.271338    0.966143
     39          1           0       -2.725606   -1.089442    1.424920
     40          6           0       -5.734516   -2.226359    0.968473
     41          1           0       -6.413923   -2.708002    1.404628
     42          6           0       -5.902296   -1.744364   -0.350131
     43          1           0       -6.720945   -1.883513   -0.790647
     44          6           0       -4.905230   -1.085977   -0.987684
     45          1           0       -3.864446    1.568978   -1.059581
     46          1           0       -5.026195   -0.789575   -1.871864
     47          1           0       -3.102472    1.432843   -2.452215
 ---------------------------------------------------------------------
 Rotational constants (GHZ):           0.3695170           0.1108875           0.0996836
 Leave Link  202 at Sat Mar  4 11:40:43 2023, MaxMem=  1048576000 cpu:               0.0 elap:               0.0
 (Enter /ssoft/spack/external/gaussian/g16-C.01/avx2/g16/l301.exe)
 Standard basis: def2SVP (5D, 7F)
 Ernie: Thresh=  0.10000D-02 Tol=  0.10000D-05 Strict=F.
 There are   485 symmetry adapted cartesian basis functions of A   symmetry.
 There are   460 symmetry adapted basis functions of A   symmetry.
   460 basis functions,   779 primitive gaussians,   485 cartesian basis functions
    89 alpha electrons       89 beta electrons
       nuclear repulsion energy      2116.4308198904 Hartrees.
 IExCor= 1009 DFT=T Ex+Corr=PBE1PBE ExCW=0 ScaHFX=  0.250000
 ScaDFX=  0.750000  0.750000  1.000000  1.000000 ScalE2=  1.000000  1.000000
 IRadAn=      5 IRanWt=     -1 IRanGd=            0 ICorTp=0 IEmpDi=141
 NAtoms=   47 NActive=   47 NUniq=   47 SFac= 1.00D+00 NAtFMM=   60 NAOKFM=F Big=F
 Integral buffers will be    131072 words long.
 Raffenetti 2 integral format.
 Two-electron integral symmetry is turned on.
 R6Disp:  Grimme-D3(BJ) Dispersion energy=       -0.0543095035 Hartrees.
 Nuclear repulsion after empirical dispersion term =     2116.3765103870 Hartrees.
 Leave Link  301 at Sat Mar  4 11:40:44 2023, MaxMem=  1048576000 cpu:               0.0 elap:               0.1
 (Enter /ssoft/spack/external/gaussian/g16-C.01/avx2/g16/l302.exe)
 NPDir=0 NMtPBC=     1 NCelOv=     1 NCel=       1 NClECP=     1 NCelD=      1
         NCelK=      1 NCelE2=     1 NClLst=     1 CellRange=     0.0.
 One-electron integrals computed using PRISM.
 One-electron integral symmetry used in STVInt
   1 Symmetry operations used in ECPInt.
 ECPInt:  NShTT=   23436 NPrTT=   84646 LenC2=   19921 LenP2D=   48892.
 LDataN:  DoStor=T MaxTD1= 4 Len=   56
 NBasis=   460 RedAO= T EigKep=  2.80D-04  NBF=   460
 NBsUse=   460 1.00D-06 EigRej= -1.00D+00 NBFU=   460
 Precomputing XC quadrature grid using
 IXCGrd= 4 IRadAn=           5 IRanWt=          -1 IRanGd=           0 AccXCQ= 0.00D+00.
 Generated NRdTot=       0 NPtTot=           0 NUsed=           0 NTot=          32
 NSgBfM=   472   472   472   472   472 MxSgAt=    47 MxSgA2=    47.
 Leave Link  302 at Sat Mar  4 11:40:46 2023, MaxMem=  1048576000 cpu:               2.0 elap:               2.0
 (Enter /ssoft/spack/external/gaussian/g16-C.01/avx2/g16/l303.exe)
 DipDrv:  MaxL=1.
 Leave Link  303 at Sat Mar  4 11:40:46 2023, MaxMem=  1048576000 cpu:               0.1 elap:               0.1
 (Enter /ssoft/spack/external/gaussian/g16-C.01/avx2/g16/l401.exe)
 ExpMin= 1.22D-01 ExpMax= 2.27D+03 ExpMxC= 3.41D+02 IAcc=3 IRadAn=         5 AccDes= 0.00D+00
 Harris functional with IExCor= 1009 and IRadAn=       5 diagonalized for initial guess.
 HarFok:  IExCor= 1009 AccDes= 0.00D+00 IRadAn=         5 IDoV= 1 UseB2=F ITyADJ=14
 ICtDFT=  3500011 ScaDFX=  1.000000  1.000000  1.000000  1.000000
 FoFCou: FMM=F IPFlag=           0 FMFlag=      100000 FMFlg1=           0
         NFxFlg=           0 DoJE=T BraDBF=F KetDBF=T FulRan=T
         wScrn=  0.000000 ICntrl=       500 IOpCl=  0 I1Cent=   200000004 NGrid=           0
         NMat0=    1 NMatS0=      1 NMatT0=    0 NMatD0=    1 NMtDS0=    0 NMtDT0=    0
 Petite list used in FoFCou.
 Harris En= -1071.53425609330    
 JPrj=0 DoOrth=F DoCkMO=F.
 Leave Link  401 at Sat Mar  4 11:41:00 2023, MaxMem=  1048576000 cpu:              14.3 elap:              14.4
 (Enter /ssoft/spack/external/gaussian/g16-C.01/avx2/g16/l502.exe)
 Integral symmetry usage will be decided dynamically.
 Closed shell SCF:
 Using DIIS extrapolation, IDIIS=  1040.
 NGot=  1048576000 LenX=  1048096350 LenY=  1047860640
 Requested convergence on RMS density matrix=1.00D-08 within 128 cycles.
 Requested convergence on MAX density matrix=1.00D-06.
 Requested convergence on             energy=1.00D-06.
 No special actions if energy rises.
 Fock matrices will be formed incrementally for  20 cycles.
 Integral accuracy reduced to 1.0D-05 until final iterations.

 Cycle   1  Pass 0  IDiag  1:
 FoFJK:  IHMeth= 1 ICntrl=       0 DoSepK=F KAlg= 0 I1Cent=           0 FoldK=F
 IRaf= 760000000 NMat=       1 IRICut=       1 DoRegI=T DoRafI=F ISym2E= 0 IDoP0=0 IntGTp=1.
 FoFCou: FMM=F IPFlag=           0 FMFlag=      100000 FMFlg1=           0
         NFxFlg=           0 DoJE=F BraDBF=F KetDBF=F FulRan=T
         wScrn=  0.000000 ICntrl=         0 IOpCl=  0 I1Cent=           0 NGrid=           0
         NMat0=    1 NMatS0=      1 NMatT0=    0 NMatD0=    1 NMtDS0=    0 NMtDT0=    0
 Symmetry not used in FoFCou.
 E= -1070.53857213677    
 DIIS: error= 3.58D-02 at cycle   1 NSaved=   1.
 NSaved= 1 IEnMin= 1 EnMin= -1070.53857213677     IErMin= 1 ErrMin= 3.58D-02
 ErrMax= 3.58D-02  0.00D+00 EMaxC= 1.00D-01 BMatC= 5.08D-01 BMatP= 5.08D-01
 IDIUse=3 WtCom= 6.42D-01 WtEn= 3.58D-01
 Coeff-Com:  0.100D+01
 Coeff-En:   0.100D+01
 Coeff:      0.100D+01
 Gap=     0.317 Goal=   None    Shift=    0.000
 GapD=    0.317 DampG=1.000 DampE=0.500 DampFc=0.5000 IDamp=-1.
 Damping current iteration by 5.00D-01
 RMSDP=4.32D-03 MaxDP=2.12D-01              OVMax= 2.00D-01

 Cycle   2  Pass 0  IDiag  1:
 RMSU=  2.04D-03    CP:  9.59D-01
 E= -1070.80686298533     Delta-E=       -0.268290848558 Rises=F Damp=T
 DIIS: error= 5.94D-03 at cycle   2 NSaved=   2.
 NSaved= 2 IEnMin= 2 EnMin= -1070.80686298533     IErMin= 2 ErrMin= 5.94D-03
 ErrMax= 5.94D-03  0.00D+00 EMaxC= 1.00D-01 BMatC= 3.61D-02 BMatP= 5.08D-01
 IDIUse=3 WtCom= 9.41D-01 WtEn= 5.94D-02
 Coeff-Com: -0.148D-01 0.101D+01
 Coeff-En:   0.000D+00 0.100D+01
 Coeff:     -0.139D-01 0.101D+01
 Gap=     0.291 Goal=   None    Shift=    0.000
 RMSDP=1.40D-03 MaxDP=4.74D-02 DE=-2.68D-01 OVMax= 1.69D-01

 Cycle   3  Pass 0  IDiag  1:
 RMSU=  1.29D-03    CP:  9.31D-01  1.13D+00
 E= -1071.04683809795     Delta-E=       -0.239975112627 Rises=F Damp=F
 DIIS: error= 8.21D-03 at cycle   3 NSaved=   3.
 NSaved= 3 IEnMin= 3 EnMin= -1071.04683809795     IErMin= 2 ErrMin= 5.94D-03
 ErrMax= 8.21D-03  0.00D+00 EMaxC= 1.00D-01 BMatC= 5.07D-02 BMatP= 3.61D-02
 IDIUse=3 WtCom= 9.94D-02 WtEn= 9.01D-01
 Coeff-Com: -0.635D-01 0.593D+00 0.470D+00
 Coeff-En:   0.000D+00 0.000D+00 0.100D+01
 Coeff:     -0.631D-02 0.590D-01 0.947D+00
 Gap=     0.249 Goal=   None    Shift=    0.000
 RMSDP=1.64D-03 MaxDP=1.17D-01 DE=-2.40D-01 OVMax= 1.79D-01

 Cycle   4  Pass 0  IDiag  1:
 RMSU=  1.01D-03    CP:  9.37D-01  1.45D+00  1.39D-01
 E= -1070.91701214512     Delta-E=        0.129825952832 Rises=F Damp=F
 DIIS: error= 1.70D-02 at cycle   4 NSaved=   4.
 NSaved= 4 IEnMin= 3 EnMin= -1071.04683809795     IErMin= 2 ErrMin= 5.94D-03
 ErrMax= 1.70D-02  0.00D+00 EMaxC= 1.00D-01 BMatC= 1.97D-01 BMatP= 3.61D-02
 IDIUse=2 WtCom= 0.00D+00 WtEn= 1.00D+00
 Coeff-En:   0.000D+00 0.000D+00 0.743D+00 0.257D+00
 Coeff:      0.000D+00 0.000D+00 0.743D+00 0.257D+00
 Gap=     0.234 Goal=   None    Shift=    0.000
 RMSDP=9.00D-04 MaxDP=7.06D-02 DE= 1.30D-01 OVMax= 9.07D-02

 Cycle   5  Pass 0  IDiag  1:
 RMSU=  1.75D-04    CP:  9.33D-01  1.27D+00  5.92D-01  4.63D-01
 E= -1071.08234876999     Delta-E=       -0.165336624863 Rises=F Damp=F
 DIIS: error= 3.97D-03 at cycle   5 NSaved=   5.
 NSaved= 5 IEnMin= 5 EnMin= -1071.08234876999     IErMin= 5 ErrMin= 3.97D-03
 ErrMax= 3.97D-03  0.00D+00 EMaxC= 1.00D-01 BMatC= 1.07D-02 BMatP= 3.61D-02
 IDIUse=3 WtCom= 9.60D-01 WtEn= 3.97D-02
 Coeff-Com:  0.589D-02 0.154D-02 0.305D+00-0.461D-02 0.692D+00
 Coeff-En:   0.000D+00 0.000D+00 0.217D+00 0.000D+00 0.783D+00
 Coeff:      0.565D-02 0.148D-02 0.302D+00-0.442D-02 0.695D+00
 Gap=     0.240 Goal=   None    Shift=    0.000
 RMSDP=2.60D-04 MaxDP=2.23D-02 DE=-1.65D-01 OVMax= 2.43D-02

 Cycle   6  Pass 0  IDiag  1:
 RMSU=  6.96D-05    CP:  9.32D-01  1.22D+00  7.25D-01  3.22D-01  7.45D-01
 E= -1071.09166332396     Delta-E=       -0.009314553979 Rises=F Damp=F
 DIIS: error= 5.69D-04 at cycle   6 NSaved=   6.
 NSaved= 6 IEnMin= 6 EnMin= -1071.09166332396     IErMin= 6 ErrMin= 5.69D-04
 ErrMax= 5.69D-04  0.00D+00 EMaxC= 1.00D-01 BMatC= 1.29D-04 BMatP= 1.07D-02
 IDIUse=3 WtCom= 9.94D-01 WtEn= 5.69D-03
 Coeff-Com:  0.294D-02-0.786D-02 0.122D+00-0.345D-01 0.434D+00 0.484D+00
 Coeff-En:   0.000D+00 0.000D+00 0.000D+00 0.000D+00 0.000D+00 0.100D+01
 Coeff:      0.293D-02-0.782D-02 0.121D+00-0.343D-01 0.431D+00 0.487D+00
 Gap=     0.240 Goal=   None    Shift=    0.000
 RMSDP=3.51D-05 MaxDP=1.44D-03 DE=-9.31D-03 OVMax= 3.29D-03

 Cycle   7  Pass 0  IDiag  1:
 RMSU=  1.77D-05    CP:  9.32D-01  1.22D+00  7.23D-01  3.26D-01  7.76D-01
                    CP:  5.85D-01
 E= -1071.09180086367     Delta-E=       -0.000137539710 Rises=F Damp=F
 DIIS: error= 9.26D-05 at cycle   7 NSaved=   7.
 NSaved= 7 IEnMin= 7 EnMin= -1071.09180086367     IErMin= 7 ErrMin= 9.26D-05
 ErrMax= 9.26D-05  0.00D+00 EMaxC= 1.00D-01 BMatC= 4.99D-06 BMatP= 1.29D-04
 IDIUse=1 WtCom= 1.00D+00 WtEn= 0.00D+00
 Coeff-Com:  0.101D-02-0.339D-02 0.442D-01-0.195D-01 0.185D+00 0.249D+00
 Coeff-Com:  0.544D+00
 Coeff:      0.101D-02-0.339D-02 0.442D-01-0.195D-01 0.185D+00 0.249D+00
 Coeff:      0.544D+00
 Gap=     0.240 Goal=   None    Shift=    0.000
 RMSDP=8.05D-06 MaxDP=6.44D-04 DE=-1.38D-04 OVMax= 4.71D-04

 Initial convergence to 1.0D-05 achieved.  Increase integral accuracy.
 Cycle   8  Pass 1  IDiag  1:
 E= -1071.09176866024     Delta-E=        0.000032203434 Rises=F Damp=F
 DIIS: error= 1.18D-04 at cycle   1 NSaved=   1.
 NSaved= 1 IEnMin= 1 EnMin= -1071.09176866024     IErMin= 1 ErrMin= 1.18D-04
 ErrMax= 1.18D-04  0.00D+00 EMaxC= 1.00D-01 BMatC= 3.90D-06 BMatP= 3.90D-06
 IDIUse=3 WtCom= 9.99D-01 WtEn= 1.18D-03
 Coeff-Com:  0.100D+01
 Coeff-En:   0.100D+01
 Coeff:      0.100D+01
 Gap=     0.240 Goal=   None    Shift=    0.000
 RMSDP=8.05D-06 MaxDP=6.44D-04 DE= 3.22D-05 OVMax= 3.82D-04

 Cycle   9  Pass 1  IDiag  1:
 RMSU=  1.13D-04    CP:  1.00D+00
 E= -1071.09177218354     Delta-E=       -0.000003523298 Rises=F Damp=F
 DIIS: error= 3.85D-05 at cycle   2 NSaved=   2.
 NSaved= 2 IEnMin= 2 EnMin= -1071.09177218354     IErMin= 2 ErrMin= 3.85D-05
 ErrMax= 3.85D-05  0.00D+00 EMaxC= 1.00D-01 BMatC= 8.50D-07 BMatP= 3.90D-06
 IDIUse=1 WtCom= 1.00D+00 WtEn= 0.00D+00
 Coeff-Com:  0.228D+00 0.772D+00
 Coeff:      0.228D+00 0.772D+00
 Gap=     0.240 Goal=   None    Shift=    0.000
 RMSDP=5.63D-06 MaxDP=4.67D-04 DE=-3.52D-06 OVMax= 4.08D-04

 Cycle  10  Pass 1  IDiag  1:
 RMSU=  5.45D-06    CP:  1.00D+00  1.01D+00
 E= -1071.09177171849     Delta-E=        0.000000465045 Rises=F Damp=F
 DIIS: error= 4.49D-05 at cycle   3 NSaved=   3.
 NSaved= 3 IEnMin= 2 EnMin= -1071.09177218354     IErMin= 2 ErrMin= 3.85D-05
 ErrMax= 4.49D-05  0.00D+00 EMaxC= 1.00D-01 BMatC= 1.32D-06 BMatP= 8.50D-07
 IDIUse=1 WtCom= 1.00D+00 WtEn= 0.00D+00
 Coeff-Com:  0.298D-02 0.555D+00 0.442D+00
 Coeff:      0.298D-02 0.555D+00 0.442D+00
 Gap=     0.240 Goal=   None    Shift=    0.000
 RMSDP=3.21D-06 MaxDP=2.28D-04 DE= 4.65D-07 OVMax= 2.75D-04

 Cycle  11  Pass 1  IDiag  1:
 RMSU=  8.86D-07    CP:  1.00D+00  1.02D+00  4.43D-01
 E= -1071.09177295760     Delta-E=       -0.000001239103 Rises=F Damp=F
 DIIS: error= 6.27D-06 at cycle   4 NSaved=   4.
 NSaved= 4 IEnMin= 4 EnMin= -1071.09177295760     IErMin= 4 ErrMin= 6.27D-06
 ErrMax= 6.27D-06  0.00D+00 EMaxC= 1.00D-01 BMatC= 4.13D-08 BMatP= 8.50D-07
 IDIUse=1 WtCom= 1.00D+00 WtEn= 0.00D+00
 Coeff-Com: -0.450D-02 0.336D+00 0.283D+00 0.386D+00
 Coeff:     -0.450D-02 0.336D+00 0.283D+00 0.386D+00
 Gap=     0.240 Goal=   None    Shift=    0.000
 RMSDP=5.16D-07 MaxDP=2.60D-05 DE=-1.24D-06 OVMax= 4.14D-05

 Cycle  12  Pass 1  IDiag  1:
 RMSU=  2.69D-07    CP:  1.00D+00  1.02D+00  4.62D-01  5.21D-01
 E= -1071.09177299131     Delta-E=       -0.000000033717 Rises=F Damp=F
 DIIS: error= 7.32D-07 at cycle   5 NSaved=   5.
 NSaved= 5 IEnMin= 5 EnMin= -1071.09177299131     IErMin= 5 ErrMin= 7.32D-07
 ErrMax= 7.32D-07  0.00D+00 EMaxC= 1.00D-01 BMatC= 5.53D-10 BMatP= 4.13D-08
 IDIUse=1 WtCom= 1.00D+00 WtEn= 0.00D+00
 Coeff-Com: -0.239D-02 0.152D+00 0.129D+00 0.200D+00 0.521D+00
 Coeff:     -0.239D-02 0.152D+00 0.129D+00 0.200D+00 0.521D+00
 Gap=     0.240 Goal=   None    Shift=    0.000
 RMSDP=8.30D-08 MaxDP=4.29D-06 DE=-3.37D-08 OVMax= 4.68D-06

 Cycle  13  Pass 1  IDiag  1:
 RMSU=  6.92D-08    CP:  1.00D+00  1.02D+00  4.61D-01  5.19D-01  8.41D-01
 E= -1071.09177299177     Delta-E=       -0.000000000452 Rises=F Damp=F
 DIIS: error= 2.03D-07 at cycle   6 NSaved=   6.
 NSaved= 6 IEnMin= 6 EnMin= -1071.09177299177     IErMin= 6 ErrMin= 2.03D-07
 ErrMax= 2.03D-07  0.00D+00 EMaxC= 1.00D-01 BMatC= 3.36D-11 BMatP= 5.53D-10
 IDIUse=1 WtCom= 1.00D+00 WtEn= 0.00D+00
 Coeff-Com: -0.946D-03 0.569D-01 0.482D-01 0.800D-01 0.263D+00 0.553D+00
 Coeff:     -0.946D-03 0.569D-01 0.482D-01 0.800D-01 0.263D+00 0.553D+00
 Gap=     0.240 Goal=   None    Shift=    0.000
 RMSDP=1.96D-08 MaxDP=1.00D-06 DE=-4.52D-10 OVMax= 1.80D-06

 Cycle  14  Pass 1  IDiag  1:
 RMSU=  1.65D-08    CP:  1.00D+00  1.02D+00  4.60D-01  5.25D-01  8.55D-01
                    CP:  8.91D-01
 E= -1071.09177299180     Delta-E=       -0.000000000038 Rises=F Damp=F
 DIIS: error= 8.11D-08 at cycle   7 NSaved=   7.
 NSaved= 7 IEnMin= 7 EnMin= -1071.09177299180     IErMin= 7 ErrMin= 8.11D-08
 ErrMax= 8.11D-08  0.00D+00 EMaxC= 1.00D-01 BMatC= 4.73D-12 BMatP= 3.36D-11
 IDIUse=1 WtCom= 1.00D+00 WtEn= 0.00D+00
 Coeff-Com: -0.128D-03 0.650D-02 0.554D-02 0.118D-01 0.568D-01 0.298D+00
 Coeff-Com:  0.621D+00
 Coeff:     -0.128D-03 0.650D-02 0.554D-02 0.118D-01 0.568D-01 0.298D+00
 Coeff:      0.621D+00
 Gap=     0.240 Goal=   None    Shift=    0.000
 RMSDP=6.96D-09 MaxDP=3.97D-07 DE=-3.82D-11 OVMax= 5.43D-07

 SCF Done:  E(RPBE1PBE) =  -1071.09177299     A.U. after   14 cycles
            NFock= 14  Conv=0.70D-08     -V/T= 2.0048
 KE= 1.065935853766D+03 PE=-6.724813459364D+03 EE= 2.471409322220D+03
 Leave Link  502 at Sat Mar  4 11:49:27 2023, MaxMem=  1048576000 cpu:             503.8 elap:             506.9
 (Enter /ssoft/spack/external/gaussian/g16-C.01/avx2/g16/l801.exe)
 DoSCS=F DFT=T ScalE2(SS,OS)=  1.000000  1.000000
 Range of M.O.s used for correlation:     1   460
 NBasis=   460 NAE=    89 NBE=    89 NFC=     0 NFV=     0
 NROrb=    460 NOA=    89 NOB=    89 NVA=   371 NVB=   371

 **** Warning!!: The largest alpha MO coefficient is  0.14086582D+02

 Leave Link  801 at Sat Mar  4 11:49:27 2023, MaxMem=  1048576000 cpu:               0.0 elap:               0.0
 (Enter /ssoft/spack/external/gaussian/g16-C.01/avx2/g16/l1101.exe)
 Using compressed storage, NAtomX=    47.
 Will process     48 centers per pass.
   1 Symmetry operations used in ECPInt.
 ECPInt:  NShTT=   23436 NPrTT=   84646 LenC2=   19921 LenP2D=   48892.
 LDataN:  DoStor=T MaxTD1= 5 Len=  102
 R6Disp: Adding Grimme-D3(BJ) dispersion energy 1st derivatives to the gradient.
 Leave Link 1101 at Sat Mar  4 11:49:28 2023, MaxMem=  1048576000 cpu:               0.9 elap:               1.0
 (Enter /ssoft/spack/external/gaussian/g16-C.01/avx2/g16/l1102.exe)
 Symmetrizing basis deriv contribution to polar:
 IMax=3 JMax=2 DiffMx= 0.00D+00
 Leave Link 1102 at Sat Mar  4 11:49:28 2023, MaxMem=  1048576000 cpu:               0.1 elap:               0.1
 (Enter /ssoft/spack/external/gaussian/g16-C.01/avx2/g16/l1110.exe)
 Forming Gx(P) for the SCF density, NAtomX=    47.
 Integral derivatives from FoFJK, PRISM(SPDF).
 Do as many integral derivatives as possible in FoFJK.
 G2DrvN: MDV=    1048571023.
 G2DrvN: will do    48 centers at a time, making    1 passes.
 Calling FoFCou, ICntrl=  3107 FMM=F I1Cent=   0 AccDes= 0.00D+00.
 FoFJK:  IHMeth= 1 ICntrl=    3107 DoSepK=F KAlg= 0 I1Cent=           0 FoldK=F
 IRaf=         0 NMat=       1 IRICut=       1 DoRegI=T DoRafI=F ISym2E= 0 IDoP0=0 IntGTp=1.
 FoFCou: FMM=F IPFlag=           0 FMFlag=      100000 FMFlg1=           0
         NFxFlg=           0 DoJE=F BraDBF=F KetDBF=F FulRan=T
         wScrn=  0.000000 ICntrl=      3107 IOpCl=  0 I1Cent=           0 NGrid=           0
         NMat0=    1 NMatS0=      1 NMatT0=    0 NMatD0=    1 NMtDS0=    0 NMtDT0=    0
 Symmetry not used in FoFCou.
 End of G2Drv F.D. properties file   721 does not exist.
 End of G2Drv F.D. properties file   722 does not exist.
 End of G2Drv F.D. properties file   788 does not exist.
 Leave Link 1110 at Sat Mar  4 12:13:23 2023, MaxMem=  1048576000 cpu:            1430.4 elap:            1435.2
 (Enter /ssoft/spack/external/gaussian/g16-C.01/avx2/g16/l1002.exe)
 Minotr:  Closed shell wavefunction.
          IDoAtm=11111111111111111111111111111111111111111111111
          Direct CPHF calculation.
          Differentiating once with respect to electric field.
                with respect to dipole field.
          Differentiating once with respect to nuclear coordinates.
          Requested convergence is 1.0D-08 RMS, and 1.0D-07 maximum.
          Secondary convergence is 1.0D-12 RMS, and 1.0D-12 maximum.
          NewPWx=T KeepS1=F KeepF1=F KeepIn=T MapXYZ=F SortEE=F KeepMc=T.
        14322 words used for storage of precomputed grid.
 Two-electron integrals replicated using symmetry.
          MDV=    1048576000 using IRadAn=       1.
          Solving linear equations simultaneously, MaxMat=     384.
 FoF2E skips out because all densities are zero.
 CalDSu exits because no D1Ps are significant.
 FoFJK:  IHMeth= 1 ICntrl=       0 DoSepK=F KAlg= 0 I1Cent=           0 FoldK=F
 IRaf= 730000000 NMat=     141 IRICut=     352 DoRegI=T DoRafI=T ISym2E= 2 IDoP0=3 IntGTp=3.
 FoFCou: FMM=F IPFlag=           0 FMFlag=      100000 FMFlg1=           0
         NFxFlg=           0 DoJE=F BraDBF=F KetDBF=F FulRan=T
         wScrn=  0.000000 ICntrl=         0 IOpCl=  0 I1Cent=           0 NGrid=           0
         NMat0=  141 NMatS0=    141 NMatT0=    0 NMatD0=  141 NMtDS0=    0 NMtDT0=    0
 Integrals replicated using symmetry in FoFCou.
 Raff kept on since  67.75% of shell-pairs survive, threshold=   0.20 IRatSp=68.
          There are   144 degrees of freedom in the 1st order CPHF.  IDoFFX=6 NUNeed=     3.
    141 vectors produced by pass  0 Test12= 3.30D-14 1.00D-09 XBig12= 1.82D+02 4.46D+00.
 AX will form   141 AO Fock derivatives at one time.
    141 vectors produced by pass  1 Test12= 3.30D-14 1.00D-09 XBig12= 4.77D+01 1.28D+00.
    141 vectors produced by pass  2 Test12= 3.30D-14 1.00D-09 XBig12= 4.31D-01 5.15D-02.
    141 vectors produced by pass  3 Test12= 3.30D-14 1.00D-09 XBig12= 2.23D-03 3.73D-03.
    141 vectors produced by pass  4 Test12= 3.30D-14 1.00D-09 XBig12= 5.96D-06 1.82D-04.
    133 vectors produced by pass  5 Test12= 3.30D-14 1.00D-09 XBig12= 8.30D-09 6.42D-06.
     26 vectors produced by pass  6 Test12= 3.30D-14 1.00D-09 XBig12= 9.08D-12 1.74D-07.
      3 vectors produced by pass  7 Test12= 3.30D-14 1.00D-09 XBig12= 9.99D-15 7.35D-09.
      1 vectors produced by pass  8 Test12= 3.30D-14 1.00D-09 XBig12= 7.01D-16 2.43D-09.
 InvSVY:  IOpt=1 It=  1 EMax= 5.33D-15
 Solved reduced A of dimension   868 with   144 vectors.
 FullF1:  Do perturbations      1 to       3.
 Isotropic polarizability for W=    0.000000      208.31 Bohr**3.
 End of Minotr F.D. properties file   721 does not exist.
 End of Minotr F.D. properties file   722 does not exist.
 End of Minotr F.D. properties file   788 does not exist.
 Leave Link 1002 at Sat Mar  4 13:09:58 2023, MaxMem=  1048576000 cpu:            3383.1 elap:            3394.8
 (Enter /ssoft/spack/external/gaussian/g16-C.01/avx2/g16/l601.exe)
 Copying SCF densities to generalized density rwf, IOpCl= 0 IROHF=0.

 **********************************************************************

            Population analysis using the SCF Density.

 **********************************************************************

 Orbital symmetries:
       Occupied  (A) (A) (A) (A) (A) (A) (A) (A) (A) (A) (A) (A)
                 (A) (A) (A) (A) (A) (A) (A) (A) (A) (A) (A) (A)
                 (A) (A) (A) (A) (A) (A) (A) (A) (A) (A) (A) (A)
                 (A) (A) (A) (A) (A) (A) (A) (A) (A) (A) (A) (A)
                 (A) (A) (A) (A) (A) (A) (A) (A) (A) (A) (A) (A)
                 (A) (A) (A) (A) (A) (A) (A) (A) (A) (A) (A) (A)
                 (A) (A) (A) (A) (A) (A) (A) (A) (A) (A) (A) (A)
                 (A) (A) (A) (A) (A)
       Virtual   (A) (A) (A) (A) (A) (A) (A) (A) (A) (A) (A) (A)
                 (A) (A) (A) (A) (A) (A) (A) (A) (A) (A) (A) (A)
                 (A) (A) (A) (A) (A) (A) (A) (A) (A) (A) (A) (A)
                 (A) (A) (A) (A) (A) (A) (A) (A) (A) (A) (A) (A)
                 (A) (A) (A) (A) (A) (A) (A) (A) (A) (A) (A) (A)
                 (A) (A) (A) (A) (A) (A) (A) (A) (A) (A) (A) (A)
                 (A) (A) (A) (A) (A) (A) (A) (A) (A) (A) (A) (A)
                 (A) (A) (A) (A) (A) (A) (A) (A) (A) (A) (A) (A)
                 (A) (A) (A) (A) (A) (A) (A) (A) (A) (A) (A) (A)
                 (A) (A) (A) (A) (A) (A) (A) (A) (A) (A) (A) (A)
                 (A) (A) (A) (A) (A) (A) (A) (A) (A) (A) (A) (A)
                 (A) (A) (A) (A) (A) (A) (A) (A) (A) (A) (A) (A)
                 (A) (A) (A) (A) (A) (A) (A) (A) (A) (A) (A) (A)
                 (A) (A) (A) (A) (A) (A) (A) (A) (A) (A) (A) (A)
                 (A) (A) (A) (A) (A) (A) (A) (A) (A) (A) (A) (A)
                 (A) (A) (A) (A) (A) (A) (A) (A) (A) (A) (A) (A)
                 (A) (A) (A) (A) (A) (A) (A) (A) (A) (A) (A) (A)
                 (A) (A) (A) (A) (A) (A) (A) (A) (A) (A) (A) (A)
                 (A) (A) (A) (A) (A) (A) (A) (A) (A) (A) (A) (A)
                 (A) (A) (A) (A) (A) (A) (A) (A) (A) (A) (A) (A)
                 (A) (A) (A) (A) (A) (A) (A) (A) (A) (A) (A) (A)
                 (A) (A) (A) (A) (A) (A) (A) (A) (A) (A) (A) (A)
                 (A) (A) (A) (A) (A) (A) (A) (A) (A) (A) (A) (A)
                 (A) (A) (A) (A) (A) (A) (A) (A) (A) (A) (A) (A)
                 (A) (A) (A) (A) (A) (A) (A) (A) (A) (A) (A) (A)
                 (A) (A) (A) (A) (A) (A) (A) (A) (A) (A) (A) (A)
                 (A) (A) (A) (A) (A) (A) (A) (A) (A) (A) (A) (A)
                 (A) (A) (A) (A) (A) (A) (A) (A) (A) (A) (A) (A)
                 (A) (A) (A) (A) (A) (A) (A) (A) (A) (A) (A) (A)
                 (A) (A) (A) (A) (A) (A) (A) (A) (A) (A) (A) (A)
                 (A) (A) (A) (A) (A) (A) (A) (A) (A) (A) (A)
 The electronic state is 1-A.
 Alpha  occ. eigenvalues --  -19.24320 -19.24219 -14.35963 -14.35610 -10.31568
 Alpha  occ. eigenvalues --  -10.31259 -10.26944 -10.26817 -10.26458 -10.25860
 Alpha  occ. eigenvalues --  -10.25537 -10.23645 -10.23558 -10.21830 -10.21643
 Alpha  occ. eigenvalues --  -10.21631 -10.21606 -10.21377 -10.21369 -10.21354
 Alpha  occ. eigenvalues --  -10.21244 -10.21053 -10.20968 -10.19460 -10.19351
 Alpha  occ. eigenvalues --   -1.11188  -1.10597  -0.91768  -0.91050  -0.88451
 Alpha  occ. eigenvalues --   -0.87853  -0.86839  -0.80986  -0.80150  -0.77679
 Alpha  occ. eigenvalues --   -0.77192  -0.76232  -0.75616  -0.74518  -0.67971
 Alpha  occ. eigenvalues --   -0.67269  -0.66801  -0.64434  -0.63923  -0.61488
 Alpha  occ. eigenvalues --   -0.61374  -0.61140  -0.56248  -0.56174  -0.54800
 Alpha  occ. eigenvalues --   -0.52963  -0.52590  -0.51874  -0.50771  -0.49490
 Alpha  occ. eigenvalues --   -0.48813  -0.48562  -0.48054  -0.47614  -0.46589
 Alpha  occ. eigenvalues --   -0.45646  -0.45251  -0.44811  -0.44481  -0.44372
 Alpha  occ. eigenvalues --   -0.44063  -0.43102  -0.42838  -0.40111  -0.39765
 Alpha  occ. eigenvalues --   -0.39070  -0.38380  -0.38323  -0.37887  -0.37198
 Alpha  occ. eigenvalues --   -0.36651  -0.36342  -0.35937  -0.35624  -0.35322
 Alpha  occ. eigenvalues --   -0.35203  -0.28355  -0.26770  -0.26437  -0.26119
 Alpha  occ. eigenvalues --   -0.26030  -0.25624  -0.25470  -0.24416
 Alpha virt. eigenvalues --   -0.00413   0.00192   0.00323   0.00395   0.03164
 Alpha virt. eigenvalues --    0.03626   0.07625   0.08996   0.09500   0.10524
 Alpha virt. eigenvalues --    0.10738   0.11596   0.12292   0.13065   0.13608
 Alpha virt. eigenvalues --    0.13888   0.13992   0.14405   0.14855   0.15735
 Alpha virt. eigenvalues --    0.16056   0.16158   0.16381   0.16830   0.17314
 Alpha virt. eigenvalues --    0.17515   0.18145   0.18754   0.19238   0.19792
 Alpha virt. eigenvalues --    0.20265   0.20646   0.21672   0.22000   0.22439
 Alpha virt. eigenvalues --    0.24148   0.26017   0.26542   0.27023   0.27692
 Alpha virt. eigenvalues --    0.28395   0.29624   0.30606   0.31399   0.31906
 Alpha virt. eigenvalues --    0.31981   0.33392   0.33685   0.34147   0.34988
 Alpha virt. eigenvalues --    0.36208   0.36503   0.37798   0.38032   0.39393
 Alpha virt. eigenvalues --    0.42348   0.43057   0.43397   0.43832   0.44188
 Alpha virt. eigenvalues --    0.44506   0.45547   0.46423   0.46899   0.47365
 Alpha virt. eigenvalues --    0.48331   0.49207   0.49677   0.49942   0.50359
 Alpha virt. eigenvalues --    0.50420   0.51231   0.51785   0.52171   0.52860
 Alpha virt. eigenvalues --    0.52946   0.53618   0.54440   0.55000   0.55252
 Alpha virt. eigenvalues --    0.56367   0.56716   0.57304   0.59166   0.59396
 Alpha virt. eigenvalues --    0.59770   0.60072   0.60936   0.61611   0.61774
 Alpha virt. eigenvalues --    0.62824   0.63455   0.64104   0.65132   0.65691
 Alpha virt. eigenvalues --    0.66070   0.66923   0.67307   0.68171   0.68589
 Alpha virt. eigenvalues --    0.69372   0.70321   0.70932   0.71400   0.71837
 Alpha virt. eigenvalues --    0.71949   0.72519   0.72798   0.73000   0.73516
 Alpha virt. eigenvalues --    0.74211   0.74475   0.74611   0.74657   0.74957
 Alpha virt. eigenvalues --    0.75008   0.75559   0.75859   0.76366   0.76490
 Alpha virt. eigenvalues --    0.76756   0.77146   0.77880   0.78111   0.78327
 Alpha virt. eigenvalues --    0.78414   0.78827   0.78947   0.79750   0.80122
 Alpha virt. eigenvalues --    0.80932   0.81401   0.81662   0.82198   0.83070
 Alpha virt. eigenvalues --    0.83888   0.85108   0.85501   0.86704   0.87795
 Alpha virt. eigenvalues --    0.88118   0.89922   0.90989   0.91722   0.93172
 Alpha virt. eigenvalues --    0.93810   0.95317   0.97593   0.98197   0.98755
 Alpha virt. eigenvalues --    1.00462   1.02669   1.03482   1.06716   1.08763
 Alpha virt. eigenvalues --    1.09624   1.09903   1.10660   1.12016   1.13446
 Alpha virt. eigenvalues --    1.14385   1.15872   1.16716   1.18744   1.20773
 Alpha virt. eigenvalues --    1.21773   1.21892   1.22946   1.24711   1.25127
 Alpha virt. eigenvalues --    1.26697   1.26798   1.27588   1.28393   1.29896
 Alpha virt. eigenvalues --    1.30321   1.31851   1.32951   1.33357   1.34293
 Alpha virt. eigenvalues --    1.35144   1.35521   1.36423   1.38356   1.38809
 Alpha virt. eigenvalues --    1.40455   1.42907   1.43922   1.45510   1.47223
 Alpha virt. eigenvalues --    1.48967   1.51425   1.52548   1.53911   1.55161
 Alpha virt. eigenvalues --    1.56726   1.59392   1.62742   1.63295   1.63801
 Alpha virt. eigenvalues --    1.64402   1.65191   1.65708   1.66370   1.67313
 Alpha virt. eigenvalues --    1.67920   1.68242   1.69683   1.71125   1.71594
 Alpha virt. eigenvalues --    1.72533   1.73322   1.76244   1.77121   1.77500
 Alpha virt. eigenvalues --    1.77731   1.78139   1.78815   1.79101   1.79718
 Alpha virt. eigenvalues --    1.80285   1.80851   1.81036   1.81649   1.82516
 Alpha virt. eigenvalues --    1.83526   1.84302   1.84721   1.85726   1.86024
 Alpha virt. eigenvalues --    1.86602   1.87216   1.87915   1.88354   1.89180
 Alpha virt. eigenvalues --    1.90125   1.90385   1.91496   1.91939   1.92285
 Alpha virt. eigenvalues --    1.93453   1.94266   1.94430   1.94815   1.96057
 Alpha virt. eigenvalues --    1.96368   1.98077   2.00648   2.02018   2.03450
 Alpha virt. eigenvalues --    2.03792   2.06208   2.06479   2.08266   2.08425
 Alpha virt. eigenvalues --    2.08792   2.09287   2.10852   2.12085   2.12340
 Alpha virt. eigenvalues --    2.12532   2.13362   2.13760   2.15819   2.16194
 Alpha virt. eigenvalues --    2.16630   2.17098   2.17665   2.18026   2.18514
 Alpha virt. eigenvalues --    2.19728   2.20614   2.20729   2.21559   2.22562
 Alpha virt. eigenvalues --    2.23612   2.25880   2.26446   2.26694   2.28930
 Alpha virt. eigenvalues --    2.30648   2.31109   2.32824   2.33214   2.34129
 Alpha virt. eigenvalues --    2.35380   2.36774   2.38939   2.40012   2.41440
 Alpha virt. eigenvalues --    2.41910   2.43068   2.44348   2.45444   2.46396
 Alpha virt. eigenvalues --    2.46930   2.47946   2.48367   2.48992   2.49867
 Alpha virt. eigenvalues --    2.50210   2.51476   2.52317   2.55160   2.55767
 Alpha virt. eigenvalues --    2.60690   2.62670   2.64321   2.64493   2.67456
 Alpha virt. eigenvalues --    2.68294   2.68465   2.69717   2.69931   2.72354
 Alpha virt. eigenvalues --    2.73847   2.74826   2.76682   2.77123   2.77900
 Alpha virt. eigenvalues --    2.80926   2.82978   2.84116   2.84859   2.85812
 Alpha virt. eigenvalues --    2.90725   2.91464   2.92005   2.94819   2.97698
 Alpha virt. eigenvalues --    2.99023   3.02807   3.05115   3.06394   3.06904
 Alpha virt. eigenvalues --    3.07831   3.08961   3.10495   3.11114   3.12930
 Alpha virt. eigenvalues --    3.14325   3.14906   3.15644   3.17764   3.18552
 Alpha virt. eigenvalues --    3.19687   3.19747   3.20595   3.20619   3.20849
 Alpha virt. eigenvalues --    3.21715   3.22611   3.23074   3.24156   3.25421
 Alpha virt. eigenvalues --    3.27484   3.29661   3.32984   3.34324   3.40636
 Alpha virt. eigenvalues --    3.44194   3.44836   3.45405   3.47872   3.48738
 Alpha virt. eigenvalues --    3.54151   3.56305   3.65201   3.66161   3.95113
 Alpha virt. eigenvalues --    3.96236
     Molecular Orbital Coefficients:
                          85        86        87        88        89
                           O         O         O         O         O
     Eigenvalues --    -0.26119  -0.26030  -0.25624  -0.25470  -0.24416
   1 1   N  1S         -0.02808  -0.01666   0.00862  -0.01126  -0.07227
   2        2S         -0.06005  -0.03413   0.01571  -0.02561  -0.15448
   3        3S         -0.06477  -0.04206   0.02760  -0.00377  -0.18168
   4        4PX         0.13075  -0.03383   0.07157  -0.04256   0.23257
   5        4PY        -0.09960  -0.04918   0.02060  -0.03742  -0.22992
   6        4PZ        -0.04813   0.20076  -0.22108   0.16256   0.06330
   7        5PX        -0.08962   0.03739  -0.05536   0.04072  -0.14441
   8        5PY         0.07271   0.03554  -0.01471   0.03190   0.16235
   9        5PZ         0.04105  -0.14138   0.15634  -0.11160  -0.03414
  10        6D 0       -0.00358   0.00038  -0.00235  -0.00044  -0.00638
  11        6D+1        0.00247   0.00194  -0.00154   0.00204   0.00688
  12        6D-1        0.00263  -0.01057   0.01127  -0.01102  -0.00238
  13        6D+2       -0.00139  -0.00063   0.00105   0.00034  -0.00172
  14        6D-2       -0.00688   0.00234  -0.00468   0.00118  -0.01214
  15 2   O  1S         -0.00313  -0.00334   0.00204   0.00089  -0.01341
  16        2S         -0.00768  -0.00691   0.00358  -0.00037  -0.02892
  17        3S         -0.02096  -0.02466   0.01348  -0.00440  -0.07950
  18        4PX         0.04119  -0.09804   0.12055  -0.06334  -0.00950
  19        4PY         0.04170   0.04635  -0.01354   0.08806   0.08563
  20        4PZ        -0.10350   0.14699  -0.19295   0.13287  -0.08353
  21        5PX         0.03313  -0.08365   0.10163  -0.05243  -0.01286
  22        5PY         0.03018   0.03593  -0.01044   0.06466   0.06356
  23        5PZ        -0.08360   0.11704  -0.15291   0.11036  -0.07160
  24        6D 0        0.00019   0.00092  -0.00079   0.00030   0.00119
  25        6D+1        0.00021   0.00019  -0.00017  -0.00105   0.00128
  26        6D-1        0.00150  -0.00272   0.00389  -0.00188   0.00044
  27        6D+2        0.00101   0.00114  -0.00060   0.00106   0.00262
  28        6D-2       -0.00140   0.00122  -0.00112   0.00168  -0.00179
  29 3   N  1S          0.01181   0.01769   0.00583   0.01715   0.07559
  30        2S          0.02812   0.04021   0.00957   0.03619   0.15877
  31        3S          0.00907   0.04229   0.04482   0.03527   0.20542
  32        4PX         0.04979  -0.02781  -0.10254   0.11112   0.24168
  33        4PY         0.04094   0.04445  -0.00297   0.05757   0.20814
  34        4PZ        -0.07142   0.09657   0.22821  -0.04276   0.17057
  35        5PX        -0.03224   0.02457   0.08183  -0.07653  -0.14258
  36        5PY        -0.03523  -0.02888   0.00503  -0.04367  -0.15388
  37        5PZ         0.05796  -0.06590  -0.15751   0.02899  -0.11097
  38        6D 0        0.00222  -0.00057  -0.00438   0.00328   0.00514
  39        6D+1       -0.00087  -0.00128  -0.00188  -0.00150  -0.00932
  40        6D-1        0.00221  -0.00732  -0.01227   0.00327  -0.00693
  41        6D+2       -0.00099   0.00003   0.00102  -0.00017  -0.00047
  42        6D-2       -0.00400   0.00066   0.00640  -0.00540  -0.01057
  43 4   C  1S         -0.00383  -0.00233   0.00408   0.00090   0.00199
  44        2S          0.00661   0.00581  -0.00801  -0.00565  -0.00588
  45        3S          0.05685   0.01539  -0.05810   0.02481  -0.00678
  46        4PX        -0.00254  -0.02787  -0.00490  -0.01626  -0.06029
  47        4PY        -0.01765  -0.00706   0.00811   0.00713   0.01036
  48        4PZ        -0.01842   0.02577   0.00261  -0.00064  -0.04285
  49        5PX        -0.02730  -0.00508  -0.04509   0.00674  -0.05348
  50        5PY        -0.01028  -0.03268   0.01525  -0.00058   0.01183
  51        5PZ         0.03142  -0.03225  -0.01851  -0.00765  -0.03140
  52        6D 0       -0.00020  -0.00049  -0.00435   0.00244  -0.00034
  53        6D+1       -0.00050   0.00202  -0.00307   0.00233  -0.00083
  54        6D-1       -0.00236   0.00490   0.00107   0.00142   0.00037
  55        6D+2        0.00077  -0.00079   0.00324  -0.00220   0.00097
  56        6D-2        0.00181  -0.00139  -0.00082   0.00046   0.00332
  57 5   C  1S         -0.00897  -0.00637   0.00328  -0.00462  -0.02393
  58        2S          0.01968   0.02004  -0.01141   0.01971   0.05600
  59        3S          0.03140   0.01806   0.01804   0.01907   0.07746
  60        4PX         0.05658  -0.00289   0.01124  -0.02617   0.12021
  61        4PY        -0.00288  -0.00706   0.03952   0.07172  -0.04529
  62        4PZ        -0.00653   0.07083  -0.06095   0.08151   0.03497
  63        5PX         0.00652   0.01723  -0.03421  -0.00618   0.03397
  64        5PY         0.01123   0.01981  -0.01210   0.03390   0.04247
  65        5PZ         0.00482   0.00167   0.01703   0.01235   0.01116
  66        6D 0        0.00216  -0.00637   0.00410  -0.01252   0.00319
  67        6D+1        0.00408  -0.00471   0.00828   0.00116   0.00127
  68        6D-1        0.00512  -0.00365   0.00220  -0.01017   0.01099
  69        6D+2       -0.00295   0.00593  -0.01076  -0.00417   0.00284
  70        6D-2        0.00416   0.00626  -0.00393   0.00775   0.01227
  71 6   H  1S          0.03654  -0.06155   0.04009  -0.12891   0.06154
  72        2S          0.01543  -0.04583   0.03338  -0.08660   0.02757
  73        3PX         0.00073   0.00071  -0.00067  -0.00040   0.00256
  74        3PY        -0.00005  -0.00198   0.00204  -0.00192  -0.00177
  75        3PZ         0.00087   0.00035  -0.00062  -0.00093   0.00262
  76 7   C  1S         -0.01347  -0.00954   0.00404   0.00224  -0.03423
  77        2S          0.03450   0.02530  -0.00971  -0.00514   0.08711
  78        3S         -0.01356  -0.01306  -0.02196  -0.03201   0.02295
  79        4PX        -0.02962   0.04625  -0.04117   0.05480  -0.03603
  80        4PY        -0.02108  -0.02173   0.02042  -0.02621  -0.04431
  81        4PZ         0.05265  -0.08558   0.11642  -0.08632   0.03731
  82        5PX        -0.04017   0.00527  -0.03399   0.03163  -0.06637
  83        5PY         0.01260   0.01211  -0.01420   0.01676   0.03536
  84        5PZ         0.02046  -0.07448   0.07121  -0.07198  -0.00035
  85        6D 0        0.00247  -0.00431   0.00541  -0.00430   0.00087
  86        6D+1       -0.00007  -0.00037   0.00055  -0.00089  -0.00073
  87        6D-1       -0.00516   0.01907  -0.01890   0.01524   0.00507
  88        6D+2        0.00179   0.00050  -0.00165  -0.00110   0.00407
  89        6D-2        0.01296  -0.00369   0.00788  -0.00277   0.02212
  90 8   C  1S          0.00530   0.00498  -0.00049   0.00695   0.02606
  91        2S         -0.01314  -0.01620  -0.00706  -0.01163  -0.05910
  92        3S         -0.03042  -0.01350   0.05085  -0.05620  -0.13080
  93        4PX         0.00751  -0.01874  -0.02590   0.04591   0.12138
  94        4PY        -0.05303  -0.05912  -0.00328   0.01804   0.02834
  95        4PZ        -0.02639   0.02175   0.07232  -0.01042   0.06367
  96        5PX        -0.01504  -0.00583   0.03841  -0.00773   0.03120
  97        5PY        -0.02153  -0.03034  -0.00633  -0.00679  -0.05173
  98        5PZ         0.01304   0.00153  -0.01091   0.00956   0.02378
  99        6D 0       -0.00176   0.00164   0.00499  -0.00121   0.00271
 100        6D+1       -0.00424   0.00040   0.00770  -0.00202   0.00319
 101        6D-1       -0.00276  -0.01110  -0.00866   0.00737   0.01034
 102        6D+2        0.00923   0.00555  -0.00549   0.00078  -0.00094
 103        6D-2        0.00017   0.00408   0.00488   0.00216   0.01516
 104 9   H  1S          0.00374   0.06603   0.07802  -0.04850  -0.04283
 105        2S         -0.00818   0.04253   0.05504  -0.02741  -0.01495
 106        3PX        -0.00048  -0.00031  -0.00023   0.00098   0.00276
 107        3PY        -0.00046   0.00056   0.00228  -0.00064   0.00122
 108        3PZ        -0.00073  -0.00034   0.00080   0.00060   0.00294
 109 10  C  1S          0.01406   0.01398  -0.00112  -0.00933  -0.02555
 110        2S         -0.03211  -0.03328   0.00418   0.02123   0.06149
 111        3S         -0.06164  -0.04705  -0.00349   0.05951   0.16570
 112        4PX        -0.01615   0.00290   0.02535  -0.02319  -0.04256
 113        4PY         0.05580   0.06456  -0.00202  -0.04080  -0.11553
 114        4PZ         0.05498   0.02649  -0.04858  -0.00492  -0.06309
 115        5PX         0.00876   0.00174  -0.00789  -0.00355  -0.01641
 116        5PY         0.02002   0.02693  -0.00455  -0.03469  -0.11860
 117        5PZ         0.02063   0.01386   0.00838  -0.02235  -0.05090
 118        6D 0        0.00517  -0.00095  -0.00987   0.00358  -0.00098
 119        6D+1        0.00035  -0.00109  -0.00162   0.00109   0.00096
 120        6D-1       -0.00302  -0.00048   0.00351  -0.00128  -0.00013
 121        6D+2       -0.00063   0.00166   0.00308  -0.00186  -0.00178
 122        6D-2       -0.00272  -0.00436  -0.00237   0.00038  -0.00390
 123 11  H  1S          0.04666   0.00525  -0.06895   0.01790  -0.02428
 124        2S          0.04108   0.01226  -0.05229   0.00909  -0.03106
 125        3PX        -0.00056  -0.00006   0.00030  -0.00068  -0.00211
 126        3PY         0.00181   0.00230   0.00051  -0.00142  -0.00317
 127        3PZ         0.00011   0.00023   0.00003  -0.00017  -0.00049
 128 12  H  1S         -0.03046   0.00493   0.05023  -0.02660  -0.02480
 129        2S          0.00118   0.01929   0.03802  -0.03263  -0.05142
 130        3PX         0.00138   0.00114  -0.00007  -0.00035  -0.00059
 131        3PY         0.00088   0.00069  -0.00109  -0.00053  -0.00317
 132        3PZ         0.00041  -0.00065  -0.00158   0.00001  -0.00223
 133 13  C  1S         -0.00206   0.00656   0.00242   0.00119  -0.00166
 134        2S          0.00073  -0.00883  -0.00611  -0.00075   0.00296
 135        3S          0.04608  -0.06785   0.00620  -0.03169   0.00661
 136        4PX         0.00021   0.01596   0.01266   0.00667   0.01368
 137        4PY        -0.01333   0.03501   0.00573   0.00137  -0.00828
 138        4PZ         0.01386  -0.02866   0.00380  -0.00459   0.01936
 139        5PX        -0.00467   0.02401   0.00058   0.01306   0.01146
 140        5PY        -0.03147   0.05383  -0.00153   0.00855  -0.01141
 141        5PZ         0.01703  -0.02377   0.00268  -0.00254   0.01458
 142        6D 0       -0.00029  -0.00090  -0.00003  -0.00042  -0.00130
 143        6D+1       -0.00029   0.00090   0.00049  -0.00049  -0.00146
 144        6D-1       -0.00043   0.00073  -0.00048   0.00129   0.00155
 145        6D+2        0.00009   0.00015  -0.00002   0.00052   0.00116
 146        6D-2        0.00087  -0.00015  -0.00104   0.00124   0.00248
 147 14  H  1S         -0.00284  -0.00178  -0.00327   0.00459  -0.00021
 148        2S         -0.02584   0.03017   0.00268   0.00882  -0.00523
 149        3PX         0.00022   0.00003   0.00182  -0.00071   0.00047
 150        3PY         0.00054  -0.00050  -0.00043  -0.00001  -0.00027
 151        3PZ        -0.00004  -0.00063   0.00093  -0.00058   0.00035
 152 15  H  1S          0.00141   0.01210   0.00721   0.00581   0.01772
 153        2S          0.00753  -0.00728  -0.01769   0.01093   0.00808
 154        3PX        -0.00013  -0.00006  -0.00038   0.00036  -0.00019
 155        3PY        -0.00047   0.00093   0.00072  -0.00040  -0.00051
 156        3PZ         0.00021  -0.00133  -0.00104   0.00031   0.00014
 157 16  H  1S         -0.00950   0.01325  -0.00394  -0.00498  -0.02304
 158        2S          0.01145  -0.00732   0.01891  -0.00577  -0.00284
 159        3PX        -0.00069   0.00128  -0.00119   0.00021  -0.00054
 160        3PY        -0.00039   0.00104   0.00000   0.00011   0.00007
 161        3PZ         0.00028  -0.00066  -0.00005  -0.00009   0.00034
 162 17  C  1S         -0.00609   0.00786   0.02011  -0.00713   0.00401
 163        2S          0.01285  -0.02368  -0.05259   0.01762  -0.01619
 164        3S          0.04307  -0.00822  -0.06193   0.02430   0.01911
 165        4PX         0.07607   0.16386   0.08982  -0.05957  -0.02572
 166        4PY         0.15752   0.18755   0.00237  -0.03758  -0.04670
 167        4PZ         0.06577   0.03319  -0.05016   0.00577  -0.02456
 168        5PX         0.03359   0.11805   0.09401  -0.05701  -0.03051
 169        5PY         0.12183   0.12985  -0.01410  -0.01546  -0.01106
 170        5PZ         0.04568   0.03233  -0.05724   0.01852  -0.01345
 171        6D 0        0.00346  -0.00301  -0.00123   0.00071   0.00229
 172        6D+1        0.00474  -0.00632  -0.00086  -0.00010   0.00039
 173        6D-1        0.00435  -0.00800  -0.00452   0.00218   0.00233
 174        6D+2        0.01267  -0.00060  -0.00218  -0.00217  -0.00491
 175        6D-2        0.00272   0.00328   0.00105  -0.00086   0.00005
 176 18  O  1S         -0.00084  -0.00260   0.00046   0.00345   0.01431
 177        2S         -0.00177  -0.00421   0.00142   0.00674   0.03078
 178        3S          0.00927  -0.00320   0.00527   0.02270   0.08654
 179        4PX         0.05925  -0.04190  -0.13751   0.03650  -0.06436
 180        4PY        -0.05046  -0.06834  -0.02069  -0.01452  -0.09678
 181        4PZ        -0.08303   0.05992   0.20108  -0.09151  -0.03054
 182        5PX         0.04875  -0.03406  -0.10886   0.02458  -0.05968
 183        5PY        -0.03839  -0.05268  -0.01943  -0.00899  -0.07228
 184        5PZ        -0.06439   0.05176   0.16541  -0.07727  -0.02702
 185        6D 0        0.00067   0.00028  -0.00044  -0.00052  -0.00182
[...]
 0.12812447,-0.05721902,0.01350366,0.00285560,-0.01959049,0.02436641,0.
 64755840,0.00015864,-0.00152252,0.00280934,0.00000850,-0.00000048,0.00
 051974,-0.00019160,0.00008009,-0.00003839,0.00026071,-0.00003481,-0.00
 038238,-0.01798610,-0.01526391,0.00427482,-0.00060513,0.00023453,-0.00
 071968,-0.00119308,0.00012952,0.00024858,0.00004528,-0.00002663,-0.000
 00216,-0.00001909,-0.00000416,-0.00000190,0.00003151,-0.00002749,0.000
 02263,-0.00001229,0.00000479,-0.00000251,-0.00000994,-0.00000293,-0.00
 000450,-0.00006265,-0.00003923,-0.00004263,0.00001491,0.00002228,-0.00
 000333,-0.00000429,-0.00002168,0.00002601,0.00000442,0.00003450,-0.000
 02309,-0.00000557,-0.00001124,-0.00003142,-0.00016761,-0.00000063,-0.0
 0002434,-0.00000996,0.00000616,-0.00000092,-0.00000292,-0.00000123,0.0
 0000263,-0.00000341,0.00000501,0.00001779,0.00000206,-0.00000505,-0.00
 000231,0.00000737,0.00000419,0.00000919,0.00000553,-0.00000243,-0.0000
 1139,-0.00000150,0.00000239,-0.00000458,0.00000207,-0.00000297,0.00000
 041,0.00030293,-0.00004816,0.00004878,-0.00000703,0.00000424,0.0000072
 8,-0.00000205,-0.00000171,0.00000125,-0.00170009,0.00046523,-0.0005067
 4,-0.00015096,-0.00017000,0.00007615,0.00003648,-0.00005331,-0.0000518
 0,-0.00000222,0.00001656,0.00000550,0.00000095,0.00003575,0.00001352,-
 0.02644060,-0.04279225,0.01710112,0.00005477,-0.00168779,-0.00003737,-
 0.12774901,-0.19177420,0.02029329,-0.02007496,0.02426271,-0.05135328,-
 0.00286878,0.00450907,0.00254290,0.04191410,0.02361804,0.03985813,-0.0
 0310411,0.00447556,0.00135129,-0.09164093,-0.23053990,0.15147971,-0.00
 166808,-0.00461237,0.02129021,0.26314831,0.40472451,-0.00018634,0.0049
 7431,-0.00455222,-0.00138328,0.00066360,-0.00075027,0.00029443,-0.0000
 7852,0.00007529,-0.00054549,0.00011094,0.00045384,0.02219002,0.0195509
 0,0.00204149,0.00075428,0.00027029,0.00223274,0.00270229,-0.00050173,0
 .00033117,-0.00008620,0.00003919,-0.00001144,0.00003484,0.00000294,-0.
 00000180,-0.00005517,0.00004735,-0.00004056,0.00002267,-0.00000388,0.0
 0000644,0.00001741,0.00000395,0.00000785,0.00012262,0.00010321,0.00007
 647,-0.00001956,-0.00004022,0.00001586,0.00000065,0.00004367,-0.000058
 11,-0.00000851,-0.00005418,0.00003072,0.00001412,0.00001712,0.00004278
 ,0.00028050,0.00005240,0.00004761,0.00001615,-0.00000730,0.00000048,0.
 00000400,-0.00000014,-0.00000421,0.00000173,-0.00000436,-0.00002818,-0
 .00000264,0.00000529,0.00000333,-0.00001060,-0.00000037,-0.00001156,-0
 .00000871,-0.00000396,0.00001870,0.00000448,0.00000203,0.00001205,-0.0
 0000413,0.00000016,0.00000142,-0.00049381,-0.00002935,-0.00009384,0.00
 001042,-0.00000287,-0.00000909,0.00000261,-0.00000010,-0.00000123,0.00
 198104,0.00108321,0.00076786,0.00027591,0.00031540,-0.00011902,-0.0000
 6234,0.00010364,0.00009152,0.00000069,-0.00004072,-0.00001847,-0.00000
 145,-0.00006155,-0.00002087,0.01845280,0.01795351,-0.01323885,0.000920
 89,0.00024147,0.00024549,-0.05969976,-0.02237447,-0.12441306,-0.021775
 12,-0.02637304,0.02274376,-0.00459504,0.00290943,-0.00392224,-0.024487
 37,0.01160200,-0.04554070,-0.00572602,0.00117815,-0.00178179,0.0716040
 9,0.20316007,-0.31858240,-0.00581029,-0.00385137,0.00722551,0.40010718
 ,-0.21776187,1.03786135,-0.00195059,-0.00033598,-0.00053814,-0.0103520
 5,-0.00566981,0.00736527,-0.00014239,0.00000757,-0.00001898,-0.0003230
 2,0.00023637,-0.00003539,-0.01275933,0.00349060,0.01713875,-0.00268165
 ,0.00192341,-0.00093800,-0.00036310,-0.00117239,0.00058579,0.00004922,
 -0.00002415,0.00000179,-0.00001331,0.00000014,0.00000118,0.00001777,-0
 .00003732,0.00001894,-0.00001356,0.00000292,-0.00000317,-0.00001149,-0
 .00000346,-0.00000599,0.00001952,-0.00002970,-0.00007162,-0.00000977,0
 .00001295,-0.00000912,-0.00002598,-0.00000237,0.00002373,0.00000207,0.
 00007304,-0.00006423,-0.00000325,-0.00000925,-0.00002275,-0.00018240,-
 0.00004054,-0.00004119,-0.00000669,0.00000318,-0.00000002,-0.00000176,
 0.00000006,0.00000200,-0.00000036,0.00000170,0.00001429,0.00000189,-0.
 00000221,-0.00000152,0.00000283,0.00000118,0.00000733,0.00000293,0.000
 00118,-0.00001130,-0.00000118,-0.00000105,-0.00000609,0.00000063,-0.00
 000019,0.00000040,0.00015240,-0.00011179,0.00001856,-0.00000537,0.0000
 0183,0.00000528,-0.00000137,-0.00000008,0.00000052,-0.30237488,-0.0106
 4762,0.32073565,0.00002351,0.00001210,0.00008060,0.00000775,-0.0000159
 9,-0.00004651,-0.00003073,-0.00000099,-0.00002431,-0.00000180,0.000032
 07,0.00003951,-0.00029339,-0.00007888,0.00012841,-0.00002970,0.0000332
 9,0.00003881,0.00180494,-0.00225867,0.00183309,-0.00002710,-0.00019386
 ,-0.00066754,-0.00003060,-0.00002138,0.00002506,0.00014942,-0.00000783
 ,0.00026371,0.00000390,0.00000413,-0.00000272,0.00007639,0.00026257,-0
 .00020483,0.00000514,-0.00002583,-0.00002501,0.00054588,-0.00010321,-0
 .00017638,0.31356407,0.00200458,0.00195765,-0.00068544,-0.03763525,-0.
 01119600,0.02381366,-0.00003055,0.00006138,-0.00000467,-0.00091852,0.0
 0027866,-0.00078112,0.01488541,-0.00154320,-0.01579418,0.00319242,-0.0
 0178352,0.00084333,0.00489502,-0.00667232,0.00455220,0.00001939,0.0000
 2526,0.00000433,-0.00001012,-0.00000118,0.00000056,0.00002361,-0.00003
 615,0.00001580,-0.00001454,0.00000786,-0.00000136,-0.00001642,0.000004
 94,-0.00000521,-0.00001463,0.00006221,-0.00013740,0.00000173,0.0000057
 8,0.00001900,-0.00007441,0.00001259,0.00001006,-0.00001520,0.00012585,
 -0.00010109,-0.00000465,-0.00000976,-0.00002291,-0.00024735,0.00002837
 ,-0.00004525,-0.00000337,0.00000189,-0.00000039,-0.00000109,0.00000039
 ,0.00000149,-0.00000158,0.00000100,0.00001438,0.00000268,-0.00000158,-
 0.00000104,-0.00000123,0.00000451,0.00000890,0.00000145,-0.00000574,-0
 .00001012,0.00000026,0.00000159,-0.00000332,-0.00000146,-0.00000156,0.
 00000243,0.00017344,-0.00047240,-0.00005278,-0.00000500,0.00000214,0.0
 0000636,-0.00000135,-0.00000026,0.00000027,-0.00595264,0.00108726,0.00
 242319,-0.00006772,0.00000070,0.00005233,0.00003408,-0.00004302,-0.000
 04087,-0.00002544,0.00000590,-0.00001119,0.00001028,0.00002139,0.00006
 299,0.00022753,0.00019864,-0.00011999,-0.00004962,0.00003484,0.0000270
 3,0.00117404,0.00106907,-0.00118449,0.00010048,-0.00033636,0.00043202,
 -0.00001975,-0.00003835,0.00000055,-0.00017997,-0.00008295,-0.00026372
 ,-0.00001774,-0.00000463,-0.00002180,-0.00019404,-0.00019023,0.0004217
 9,0.00004537,-0.00004797,-0.00001357,-0.00010051,0.00040211,-0.0000657
 2,0.01376147,0.01417820,-0.00155961,-0.00020304,-0.00072782,-0.0055694
 8,0.00079506,0.01052421,-0.00002735,0.00001620,0.00000363,-0.00023766,
 0.00011912,-0.00015724,-0.00861913,0.00133860,0.00797515,-0.00091165,0
 .00100033,0.00050714,-0.00220317,-0.00080779,-0.00067161,-0.00000089,-
 0.00001122,-0.00000026,-0.00000201,0.,0.00000070,-0.00000632,-0.000008
 70,0.00000114,-0.00000248,-0.00000069,0.00000058,-0.00000226,-0.000000
 50,-0.00000235,0.00002414,0.00002171,-0.00001633,-0.00003003,-0.000002
 12,0.00000062,-0.00000155,0.00000084,0.00000846,0.00000579,-0.00002335
 ,-0.00000643,0.00000126,0.00000039,-0.00000402,-0.00003697,0.00000260,
 -0.00000882,0.00000121,0.00000028,0.00000009,0.00000019,-0.00000040,0.
 00000040,0.00000096,0.00000070,0.00000175,-0.00000008,-0.00000071,0.00
 000029,-0.00000236,0.00000223,0.00000134,-0.00000195,-0.00000300,-0.00
 000238,0.00000088,0.00000088,-0.00000052,-0.00000232,-0.00000100,0.000
 00166,0.00000428,-0.00009056,0.00000340,-0.00000021,0.00000092,0.00000
 086,-0.00000005,-0.00000057,-0.00000020,0.32148231,0.00709153,-0.36047
 109,0.00001537,0.00006064,0.00000108,0.00001704,-0.00000603,-0.0000015
 0,-0.00001596,-0.00001011,-0.00000976,0.00003362,-0.00004354,0.0000125
 2,0.00016606,-0.00001253,-0.00010328,-0.00000234,-0.00004064,0.0000232
 9,-0.00064553,0.00122293,0.00137227,-0.00028655,-0.00037536,0.00023819
 ,-0.00008155,0.00006556,-0.00000152,-0.00006142,-0.00003288,0.00004438
 ,-0.00001090,0.00000108,-0.00000946,-0.00001642,-0.00011703,-0.0000761
 9,-0.00002377,0.00000291,0.00003961,0.00010854,0.00023731,0.00034367,-
 0.32873977,-0.00970311,0.36246475,-0.00005402,0.00044763,0.00020411,0.
 00006180,0.00004924,0.00007524,0.00003915,-0.00000466,0.00002430,-0.00
 002925,-0.00000974,-0.00002810,-0.00013068,0.00262281,-0.00030747,-0.0
 0020552,-0.00018941,0.00111716,0.00014045,0.00002990,0.00003309,-0.000
 00943,0.00000596,-0.00000604,0.00000516,-0.00000044,-0.00000093,-0.000
 00739,0.00000648,-0.00000622,0.00000386,0.00000053,0.00000181,0.000002
 65,-0.00000048,0.00000083,0.00002603,0.00003513,0.00001149,-0.00000637
 ,-0.00000607,0.00000414,0.00000028,0.00000738,-0.00001146,-0.00000138,
 -0.00001325,0.00000367,0.00000393,0.00000145,0.00000074,0.00004291,0.0
 0001797,0.00000923,0.00000252,-0.00000019,-0.00000007,0.00000045,-0.00
 000067,-0.00000028,0.00000021,0.00000042,-0.00000175,0.,-0.00000019,0.
 00000050,-0.00000197,0.00000251,0.00000074,-0.00000141,-0.00000363,0.0
 0000028,0.00000154,0.00000222,0.00000163,-0.00000203,-0.00000196,0.000
 00181,-0.00006593,-0.00000696,-0.00001482,0.00000057,0.00000143,0.0000
 0054,-0.00000024,-0.00000103,-0.00000014,-0.00009284,-0.00043896,-0.00
 031144,0.00001872,0.00001784,-0.00001509,-0.00000255,0.00000898,0.0000
 0937,0.00000103,-0.00000208,0.00000239,0.00000035,-0.00000830,-0.00000
 447,-0.00086251,-0.00059142,0.00129192,-0.00058977,0.00068144,0.000382
 13,-0.00774593,0.00196037,-0.02321372,-0.00106300,-0.00680271,-0.00166
 545,-0.00035507,0.00022937,-0.00132807,0.00386853,-0.00487836,0.000305
 86,0.00059777,-0.00010180,0.00042774,0.01153254,-0.00367302,0.01136323
 ,-0.00192340,0.00403525,0.00126264,-0.24150488,-0.01015259,-0.39458608
 ,-0.00006656,-0.00002929,-0.00003128,0.23831680,0.00042140,0.00013011,
 -0.00001882,0.00047150,0.00027004,-0.00009572,0.00009246,-0.00003235,0
 .00001227,-0.00000713,-0.00002831,0.00001821,0.00161151,-0.00110752,-0
 .00149344,-0.00039633,-0.00008943,-0.00028500,-0.00031436,0.00007154,-
 0.00005808,-0.00002530,0.00001112,-0.00000039,0.00001006,0.00000193,0.
 00000056,-0.00001820,0.00001478,-0.00001071,0.00000633,-0.00000260,0.0
 0000122,0.00000497,0.00000164,0.00000227,0.00003339,0.00003343,0.00001
 592,-0.00000725,-0.00000874,0.00000138,0.00000176,0.00001001,-0.000011
 51,-0.00000301,-0.00002397,0.00001588,0.00000296,0.00000582,0.00001583
 ,0.00008550,-0.00000044,0.00001305,0.00000533,-0.00000328,0.00000044,0
 .00000154,0.00000072,-0.00000124,0.00000150,-0.00000246,-0.00000923,-0
 .00000105,0.00000255,0.00000116,-0.00000358,-0.00000195,-0.00000467,-0
 .00000265,0.00000103,0.00000574,0.00000074,-0.00000116,0.00000275,-0.0
 0000133,0.00000176,-0.00000005,-0.00013445,0.00003392,-0.00002270,0.00
 000363,-0.00000234,-0.00000367,0.00000125,0.00000103,-0.00000067,0.000
 02389,-0.00053041,0.00079632,0.00003562,0.00003648,-0.00001923,-0.0000
 0301,0.00001378,0.00000957,-0.00000660,-0.00000758,-0.00000268,0.00000
 047,-0.00002610,-0.00000477,0.00004380,-0.00087873,0.00001717,0.000744
 35,-0.00077422,-0.00052093,-0.01425121,0.00459785,-0.01978634,-0.00666
 632,0.00100226,0.00250299,-0.00051020,0.00026418,-0.00101906,-0.005224
 29,0.00178916,0.00556956,0.00067586,0.00026051,0.00087067,0.01296038,0
 .00595918,0.02326678,0.00328612,-0.00282765,-0.00352458,-0.00977450,0.
 02559657,0.00706862,0.00009040,-0.00044356,-0.00013808,0.01666156,-0.0
 3293385,-0.00003598,-0.00041918,-0.00006242,0.00041200,-0.00000028,-0.
 00006431,-0.00000354,-0.00001029,0.00000182,0.00003573,-0.00000765,0.0
 0003229,0.00139282,-0.00023774,-0.00012905,-0.00007021,-0.00034995,-0.
 00010112,-0.00032355,0.00029461,-0.00010935,0.00000630,0.00000095,-0.0
 0000074,0.00000056,0.00000074,0.00000021,0.00000180,-0.00000147,0.0000
 0111,-0.00000053,0.00000093,-0.00000060,-0.00000049,-0.00000041,0.0000
 0024,-0.00001169,-0.00001630,-0.00000620,0.00000174,0.00000270,-0.0000
 0364,0.00000125,-0.00000348,0.00000565,0.00000041,0.00000157,0.0000022
 0,0.00000009,-0.00000159,-0.00000131,-0.00000971,-0.00001729,-0.000002
 69,-0.00000068,-0.00000027,0.00000003,-0.00000014,0.00000043,-0.000000
 02,-0.00000026,-0.00000058,0.00000125,0.00000058,0.00000050,-0.0000002
 5,-0.00000028,-0.00000087,0.00000066,0.00000052,0.00000157,-0.00000085
 ,-0.00000029,-0.00000097,-0.00000051,0.00000060,0.00000081,-0.00000040
 ,0.00001193,0.00003009,0.00000294,-0.00000050,-0.00000048,0.00000033,-
 0.00000002,0.00000049,0.00000007,-0.00015793,0.00013551,0.00050403,-0.
 00001179,-0.00000619,0.00000404,0.00000244,-0.00000451,-0.00000425,-0.
 00000259,0.00000341,0.00000040,-0.00000042,-0.00000142,0.00000229,0.00
 116773,0.00026499,0.00012856,0.00035335,-0.00046239,-0.00030281,0.0037
 6596,0.00287295,0.00504940,-0.00110615,0.00214808,0.00281648,0.0000983
 6,0.00014838,0.00021588,0.00005354,0.00576909,-0.00076541,-0.00093505,
 -0.00016165,-0.00069721,-0.01796875,-0.00285233,-0.01318147,0.00205758
 ,-0.00272704,0.00040525,-0.39375952,0.00899476,-0.56121894,0.00005889,
 -0.00018616,-0.00013009,0.40491478,-0.01328209,0.56753178,-0.00274845,
 0.00047288,-0.00020554,-0.00932584,-0.00687966,-0.01318528,-0.00012714
 ,0.00000532,0.00002737,-0.00040661,0.00024748,-0.00009998,-0.00848157,
 -0.00036277,-0.02204538,0.00256941,-0.00134041,0.00034755,-0.00033164,
 -0.00197787,-0.00024378,0.00004041,-0.00001775,-0.00000482,-0.00000652
 ,0.00000051,0.00000067,0.00000351,-0.00002719,0.00000661,-0.00000838,0
 .00000466,0.00000062,-0.00000852,-0.00000487,-0.00000539,0.00007642,0.
 00004405,-0.00006443,-0.00006000,-0.00000191,0.00001234,0.00000216,0.0
 0000486,0.00005918,0.00001775,-0.00002682,-0.00004265,0.00000466,-0.00
 001138,-0.00003193,-0.00013495,-0.00001347,-0.00001315,-0.00000018,0.0
 0000146,-0.00000010,-0.00000062,-0.00000006,0.00000198,0.00000061,0.00
 000174,0.00001819,0.00000371,-0.00000193,-0.00000063,-0.00000883,0.000
 00758,0.00001280,-0.00000224,-0.00000644,-0.00001707,0.00000302,0.0000
 0153,-0.00000385,-0.00000606,-0.00000234,0.00000586,0.00007033,-0.0001
 2629,0.00007860,-0.00000536,0.00000365,0.00000834,-0.00000134,-0.00000
 088,-0.00000010,-0.12747304,-0.04868912,-0.24744357,0.00000264,-0.0000
 0342,0.00009893,-0.00001716,-0.00000445,-0.00003364,-0.00000824,0.0000
 1423,0.00000541,-0.00001609,0.00006642,0.00002090,-0.00002329,-0.00023
 596,-0.00011531,-0.00000552,0.00004725,-0.00002736,-0.00261804,0.00112
 869,0.00006477,0.00022703,0.00031964,-0.00056202,-0.00008469,0.0000205
 2,0.00010253,0.00006958,0.00007721,0.00000553,-0.00000353,0.00001588,0
 .00001260,0.00011123,0.00002326,-0.00009418,0.00000746,0.00001419,-0.0
 0001674,-0.00006348,-0.00005878,-0.00009152,0.01527312,0.00508018,0.02
 727137,0.00005487,0.00007249,0.00006109,0.13343941,0.00191997,0.001933
 75,0.00110845,-0.02934012,-0.01567638,-0.03018006,-0.00006212,0.000074
 70,-0.00003255,-0.00097764,0.00047605,0.00038633,0.01189596,0.00220516
 ,0.02153891,-0.00094341,0.00165565,0.00048648,0.00722420,-0.00764232,-
 0.00122303,0.00002767,0.00002407,-0.00001521,-0.00001932,-0.00000391,0
 .00000093,0.00003093,-0.00003257,0.00001063,-0.00001671,0.00000773,-0.
 00000160,-0.00001567,0.00000284,-0.00000538,-0.00007938,-0.00008267,-0
 .00005955,-0.00000589,0.00001917,-0.00000075,0.00000272,-0.00002494,0.
 00007374,0.00000900,0.00001366,-0.00006056,-0.00000299,-0.00001006,-0.
 00002287,-0.00024605,0.00002702,-0.00003252,-0.00000578,0.00000265,0.0
 0000005,-0.00000163,0.00000058,0.00000188,-0.00000113,0.00000066,0.000
 01518,0.00000256,-0.00000212,-0.00000161,-0.00000050,0.00000177,0.0000
 0908,0.00000216,0.00000061,-0.00001165,-0.00000050,-0.00000154,-0.0000
 0492,0.00000025,0.00000086,0.00000081,0.00020627,-0.00042418,0.0001911
 7,-0.00000581,0.00000128,0.00000596,-0.00000120,0.00000046,0.00000045,
 -0.04486018,-0.01459843,-0.08979424,-0.00006874,0.00004994,0.00012864,
 -0.00006685,0.00000094,-0.00004084,0.00003360,0.00001456,-0.00000387,-
 0.00004999,0.00015263,0.00002533,0.00001753,0.00035569,-0.00001008,0.0
 0002316,-0.00005552,0.00001754,0.00301921,-0.00100538,-0.00023734,-0.0
 0025254,-0.00025277,0.00075200,0.00005889,-0.00007161,-0.00005480,-0.0
 0018668,-0.00013407,-0.00001865,0.00001853,-0.00003402,-0.00003833,-0.
 00012246,0.00007092,0.00022713,-0.00000193,-0.00000382,0.00000580,-0.0
 0020918,0.00001329,-0.00024715,0.00084240,0.00333054,-0.00034886,0.000
 09133,-0.00038475,0.00008002,0.05211807,0.03000390,0.00097632,0.000115
 12,-0.00062793,0.00431421,0.00166846,0.01315029,-0.00000873,-0.0000229
 5,0.00000951,0.00029434,-0.00016162,-0.00008096,0.00260935,-0.00206433
 ,0.00105760,0.00047445,0.00026676,0.00189459,0.00150043,0.00127630,0.0
 0017040,0.00001384,0.00000244,-0.00000115,0.00000119,0.00000071,-0.000
 00026,0.00000927,0.00000009,0.00000427,0.00000121,0.00000181,-0.000000
 86,0.,-0.00000150,0.00000088,-0.00000249,-0.00008357,0.00000581,0.0000
 0591,0.00000728,-0.00000011,-0.00002404,0.00000875,-0.00000056,-0.0000
 4153,0.00005877,-0.00002807,0.00000032,-0.00000336,-0.00000409,0.00000
 507,-0.00001838,0.00000350,-0.00000172,0.00000012,-0.00000005,-0.00000
 043,0.00000045,0.00000012,-0.00000066,-0.00000035,0.00000323,0.0000011
 1,0.00000028,-0.00000054,0.00000009,-0.00000065,0.00000234,0.00000119,
 0.00000184,-0.00000281,-0.00000059,-0.00000109,-0.00000128,0.00000106,
 0.00000081,-0.00000051,0.00001904,0.00010661,-0.00002510,-0.00000132,-
 0.00000021,0.00000134,-0.00000039,0.00000051,0.00000018,-0.24878667,-0
 .09584452,-0.52417426,-0.00001621,-0.00003421,-0.00000643,0.00000415,-
 0.00000513,0.00000182,0.00001613,0.00000782,0.00001045,0.00000064,0.00
 002323,-0.00000408,0.00013561,-0.00000734,0.00004725,0.00000941,-0.000
 01204,-0.00001108,-0.00069679,0.00079141,0.00051397,-0.00000717,0.0000
 6142,0.00020053,0.00002235,0.00000349,0.00003469,-0.00000764,0.0000453
 0,-0.00007066,0.00000845,0.00000163,0.00001713,0.00009084,-0.00000818,
 0.00008929,0.00000434,0.00001434,-0.00001934,-0.00039763,-0.00022575,-
 0.00025855,-0.01673296,-0.00345580,-0.02117033,0.00008150,0.00010528,0
 .00007673,0.25612518,0.09737994,0.52919309\\-0.00310788,0.00516024,-0.
 00952492,0.01732257,0.00510183,0.00049339,-0.00539967,0.02139546,0.005
 49325,-0.00226496,0.02454106,-0.02353946,-0.00069332,-0.07433304,-0.08
 558545,-0.01452222,0.06051060,0.08023730,0.00096998,0.01594736,0.01051
 990,0.06052515,-0.06573182,0.07494657,-0.04046808,0.05261503,-0.073260
 32,0.10124838,0.07904879,0.04921533,-0.01775964,-0.02037250,-0.1098723
 5,-0.06193569,-0.06061838,0.06832022,-0.00700521,0.03967578,-0.0867594
 0,-0.04675188,0.07749330,0.08517658,-0.06127628,-0.10701412,0.00517531
 ,0.11886942,-0.01870073,0.02487553,-0.00442864,0.00115723,-0.01571297,
 -0.02671468,-0.01558197,-0.00835864,0.14465441,-0.02641249,-0.01327206
 ,-0.16167091,0.02686859,-0.00804759,0.07631763,0.00118778,0.14429617,-
 0.08077109,0.00085556,-0.14653339,-0.15202752,0.03495111,0.00896098,0.
 16395185,-0.03179885,0.00882255,-0.05752155,-0.00885147,-0.14535449,0.
 08057392,0.00218384,0.14543270,-0.01543912,-0.00187651,-0.00593195,0.0
 7751244,-0.02806967,-0.12087984,-0.08369828,0.03171351,0.13745685,-0.1
 1159449,-0.02257424,-0.01896617,-0.04669458,0.07580459,0.07584370,-0.0
 6426800,-0.10596036,0.00458005,-0.00946729,0.04780771,-0.11338919,0.11
 762884,-0.01902173,0.02592830,0.06819255,-0.00608619,0.10611353,-0.094
 52479,0.00020285,-0.13557496,-0.01564579,-0.02185975,0.02064041,0.1207
 6972,0.09370512,0.02417723,-0.12723675,-0.10352781,-0.01294703,-0.0067
 9820,-0.09389198,0.14163584,0.03495230,0.10464496,-0.12201852,-0.12108
 165,-0.07006052,-0.04734453,0.13179955,0.10070800,0.01233538,-0.088970
 88,-0.00976875,-0.11419553,0.07432720,-0.00352021,-0.08149588,0.092341
 06,0.00017342,0.13702380,0.04778205,0.01217937,0.10086380\\\@
 The archive entry for this job was punched.

 Writing a WFNX file to "XAZTOH_Complex_4_Ligand_1_NN_Cu_oriented.wfx"


 THERE IS NO SUBJECT, HOWEVER COMPLEX,
 WHICH, IF STUDIED WITH PATIENCE AND INTELLIGIENCE
 WILL NOT BECOME
 MORE COMPLEX
                        QUOTED BY D. GORDON ROHMAN
 Job cpu time:       0 days  1 hours 59 minutes 14.3 seconds.
 Elapsed time:       0 days  1 hours 59 minutes 38.0 seconds.
 File lengths (MBytes):  RWF=   1284 Int=      0 D2E=      0 Chk=     20 Scr=      8
 Normal termination of Gaussian 16 at Sat Mar  4 13:40:21 2023.
