 Entering Gaussian System, Link 0=g16
 Initial command:
 /ssoft/spack/external/gaussian/g16-C.01/avx2/g16/l1.exe "/scratch/lcmd/2387861/Gau-1722652.inp" -scrdir="/scratch/lcmd/2387861/"
 Entering Link 1 = /ssoft/spack/external/gaussian/g16-C.01/avx2/g16/l1.exe PID=   1722658.
  
 Copyright (c) 1988-2019, Gaussian, Inc.  All Rights Reserved.
  
 This is part of the Gaussian(R) 16 program.  It is based on
 the Gaussian(R) 09 system (copyright 2009, Gaussian, Inc.),
 the Gaussian(R) 03 system (copyright 2003, Gaussian, Inc.),
 the Gaussian(R) 98 system (copyright 1998, Gaussian, Inc.),
 the Gaussian(R) 94 system (copyright 1995, Gaussian, Inc.),
 the Gaussian 92(TM) system (copyright 1992, Gaussian, Inc.),
 the Gaussian 90(TM) system (copyright 1990, Gaussian, Inc.),
 the Gaussian 88(TM) system (copyright 1988, Gaussian, Inc.),
 the Gaussian 86(TM) system (copyright 1986, Carnegie Mellon
 University), and the Gaussian 82(TM) system (copyright 1983,
 Carnegie Mellon University). Gaussian is a federally registered
 trademark of Gaussian, Inc.
  
 This software contains proprietary and confidential information,
 including trade secrets, belonging to Gaussian, Inc.
  
 This software is provided under written license and may be
 used, copied, transmitted, or stored only in accord with that
 written license.
  
 The following legend is applicable only to US Government
 contracts under FAR:
  
                    RESTRICTED RIGHTS LEGEND
  
 Use, reproduction and disclosure by the US Government is
 subject to restrictions as set forth in subparagraphs (a)
 and (c) of the Commercial Computer Software - Restricted
 Rights clause in FAR 52.227-19.
  
 Gaussian, Inc.
 340 Quinnipiac St., Bldg. 40, Wallingford CT 06492
  
  
 ---------------------------------------------------------------
 Warning -- This program may not be used in any manner that
 competes with the business of Gaussian, Inc. or will provide
 assistance to any competitor of Gaussian, Inc.  The licensee
 of this program is prohibited from giving any competitor of
 Gaussian, Inc. access to this program.  By using this program,
 the user acknowledges that Gaussian, Inc. is engaged in the
 business of creating and licensing software in the field of
 computational chemistry and represents and warrants to the
 licensee that it is not a competitor of Gaussian, Inc. and that
 it will not use this program in any manner prohibited above.
 ---------------------------------------------------------------
  

 Cite this work as:
 Gaussian 16, Revision C.01,
 M. J. Frisch, G. W. Trucks, H. B. Schlegel, G. E. Scuseria, 
 M. A. Robb, J. R. Cheeseman, G. Scalmani, V. Barone, 
 G. A. Petersson, H. Nakatsuji, X. Li, M. Caricato, A. V. Marenich, 
 J. Bloino, B. G. Janesko, R. Gomperts, B. Mennucci, H. P. Hratchian, 
 J. V. Ortiz, A. F. Izmaylov, J. L. Sonnenberg, D. Williams-Young, 
 F. Ding, F. Lipparini, F. Egidi, J. Goings, B. Peng, A. Petrone, 
 T. Henderson, D. Ranasinghe, V. G. Zakrzewski, J. Gao, N. Rega, 
 G. Zheng, W. Liang, M. Hada, M. Ehara, K. Toyota, R. Fukuda, 
 J. Hasegawa, M. Ishida, T. Nakajima, Y. Honda, O. Kitao, H. Nakai, 
 T. Vreven, K. Throssell, J. A. Montgomery, Jr., J. E. Peralta, 
 F. Ogliaro, M. J. Bearpark, J. J. Heyd, E. N. Brothers, K. N. Kudin, 
 V. N. Staroverov, T. A. Keith, R. Kobayashi, J. Normand, 
 K. Raghavachari, A. P. Rendell, J. C. Burant, S. S. Iyengar, 
 J. Tomasi, M. Cossi, J. M. Millam, M. Klene, C. Adamo, R. Cammi, 
 J. W. Ochterski, R. L. Martin, K. Morokuma, O. Farkas, 
 J. B. Foresman, and D. J. Fox, Gaussian, Inc., Wallingford CT, 2019.
 
 ******************************************
 Gaussian 16:  ES64L-G16RevC.01  3-Jul-2019
                 6-Mar-2023 
 ******************************************
 %nprocshared=1
 Will use up to    1 processors via shared memory.
 %mem=8000MB
 %chk=XECJAT_Complex_0_Ligand_1_SS_Cu_oriented.chk
 ----------------------------------------------------------------------
 #p pop=(regular,nbo,savenbos) freq=noraman def2svp empiricaldispersion
 =gd3bj output=wfx pbe1pbe
 ----------------------------------------------------------------------
 1/10=4,30=1,38=1/1,3;
 2/12=2,17=6,18=5,40=1/2;
 3/5=43,7=101,11=2,25=1,30=1,71=2,74=-13,124=41,140=1/1,2,3;
 4//1;
 5/5=2,38=5,98=1/2;
 8/6=4,10=90,11=11/1;
 11/6=1,8=1,9=11,15=111,16=1/1,2,10;
 10/6=1/2;
 6/28=1,40=1,73=1/1,7;
 7/8=1,10=1,25=1/1,2,3,16;
 1/10=4,30=1/3;
 99/6=200/99;
 Leave Link    1 at Mon Mar  6 10:21:46 2023, MaxMem=  1048576000 cpu:               0.0 elap:               0.2
 (Enter /ssoft/spack/external/gaussian/g16-C.01/avx2/g16/l101.exe)
 ----------------------------------------
 XECJAT_Complex_0_Ligand_1_SS_Cu_oriented
 ----------------------------------------
 Symbolic Z-matrix:
 Charge = -1 Multiplicity = 1
 C                     2.75602  -0.03804   0.09903 
 C                     4.88086   0.99085   0.61583 
 H                     4.80296   1.20423   1.57916 
 H                     4.58188   1.7758    0.09252 
 C                     6.31259   0.63749   0.26667 
 H                     6.92036   1.28963   0.69538 
 H                     6.52214  -0.25908   0.63359 
 C                     6.56647   0.631    -1.21763 
 H                     5.84159   0.13903  -1.702 
 C                     6.24518   2.32119  -2.91478 
 H                     6.65074   1.63984  -3.48921 
 H                     6.58709   3.20567  -3.16684 
 H                     5.27057   2.30534  -3.02364 
 C                     7.90546   0.05688  -1.53796 
 H                     8.08483   0.1597   -2.4954 
 H                     7.91629  -0.89646  -1.30441 
 H                     8.59386   0.52602  -1.02261 
 O                     4.07926  -0.1712    0.2867 
 O                     6.56652   2.06093  -1.58536 
 S                     1.96913   1.45196   0. 
 S                     1.8758   -1.48146   0. 
 
 ITRead=  0  0  0  0  0  0  0  0  0  0  0  0  0  0  0  0  0  0  0  0
 ITRead=  0
 MicOpt= -1 -1 -1 -1 -1 -1 -1 -1 -1 -1 -1 -1 -1 -1 -1 -1 -1 -1 -1 -1
 MicOpt= -1
 NAtoms=     21 NQM=       21 NQMF=       0 NMMI=      0 NMMIF=      0
                NMic=       0 NMicF=      0.
                    Isotopes and Nuclear Properties:
 (Nuclear quadrupole moments (NQMom) in fm**2, nuclear magnetic moments (NMagM)
  in nuclear magnetons)

  Atom         1           2           3           4           5           6           7           8           9          10
 IAtWgt=          12          12           1           1          12           1           1          12           1          12
 AtmWgt=  12.0000000  12.0000000   1.0078250   1.0078250  12.0000000   1.0078250   1.0078250  12.0000000   1.0078250  12.0000000
 NucSpn=           0           0           1           1           0           1           1           0           1           0
 AtZEff=  -0.0000000  -0.0000000  -0.0000000  -0.0000000  -0.0000000  -0.0000000  -0.0000000  -0.0000000  -0.0000000  -0.0000000
 NQMom=    0.0000000   0.0000000   0.0000000   0.0000000   0.0000000   0.0000000   0.0000000   0.0000000   0.0000000   0.0000000
 NMagM=    0.0000000   0.0000000   2.7928460   2.7928460   0.0000000   2.7928460   2.7928460   0.0000000   2.7928460   0.0000000
 AtZNuc=   6.0000000   6.0000000   1.0000000   1.0000000   6.0000000   1.0000000   1.0000000   6.0000000   1.0000000   6.0000000

  Atom        11          12          13          14          15          16          17          18          19          20
 IAtWgt=           1           1           1          12           1           1           1          16          16          32
 AtmWgt=   1.0078250   1.0078250   1.0078250  12.0000000   1.0078250   1.0078250   1.0078250  15.9949146  15.9949146  31.9720718
 NucSpn=           1           1           1           0           1           1           1           0           0           0
 AtZEff=  -0.0000000  -0.0000000  -0.0000000  -0.0000000  -0.0000000  -0.0000000  -0.0000000  -0.0000000  -0.0000000  -0.0000000
 NQMom=    0.0000000   0.0000000   0.0000000   0.0000000   0.0000000   0.0000000   0.0000000   0.0000000   0.0000000   0.0000000
 NMagM=    2.7928460   2.7928460   2.7928460   0.0000000   2.7928460   2.7928460   2.7928460   0.0000000   0.0000000   0.0000000
 AtZNuc=   1.0000000   1.0000000   1.0000000   6.0000000   1.0000000   1.0000000   1.0000000   8.0000000   8.0000000  16.0000000

  Atom        21
 IAtWgt=          32
 AtmWgt=  31.9720718
 NucSpn=           0
 AtZEff=  -0.0000000
 NQMom=    0.0000000
 NMagM=    0.0000000
 AtZNuc=  16.0000000
 Leave Link  101 at Mon Mar  6 10:21:46 2023, MaxMem=  1048576000 cpu:               0.1 elap:               0.1
 (Enter /ssoft/spack/external/gaussian/g16-C.01/avx2/g16/l103.exe)

 GradGradGradGradGradGradGradGradGradGradGradGradGradGradGradGradGradGrad
 Berny optimization.
 Initialization pass.
 Trust Radius=3.00D-01 FncErr=1.00D-07 GrdErr=1.00D-07 EigMax=2.50D+02 EigMin=1.00D-04
 Number of steps in this run=      2 maximum allowed number of steps=      2.
 GradGradGradGradGradGradGradGradGradGradGradGradGradGradGradGradGradGrad

 Leave Link  103 at Mon Mar  6 10:21:46 2023, MaxMem=  1048576000 cpu:               0.0 elap:               0.0
 (Enter /ssoft/spack/external/gaussian/g16-C.01/avx2/g16/l202.exe)
                          Input orientation:                          
 ---------------------------------------------------------------------
 Center     Atomic      Atomic             Coordinates (Angstroms)
 Number     Number       Type             X           Y           Z
 ---------------------------------------------------------------------
      1          6           0        2.756023   -0.038044    0.099027
      2          6           0        4.880861    0.990847    0.615830
      3          1           0        4.802964    1.204234    1.579165
      4          1           0        4.581878    1.775795    0.092515
      5          6           0        6.312589    0.637488    0.266667
      6          1           0        6.920365    1.289626    0.695382
      7          1           0        6.522141   -0.259079    0.633586
      8          6           0        6.566473    0.630995   -1.217633
      9          1           0        5.841586    0.139025   -1.701999
     10          6           0        6.245179    2.321189   -2.914781
     11          1           0        6.650735    1.639844   -3.489209
     12          1           0        6.587086    3.205669   -3.166840
     13          1           0        5.270575    2.305340   -3.023640
     14          6           0        7.905462    0.056875   -1.537963
     15          1           0        8.084828    0.159705   -2.495404
     16          1           0        7.916293   -0.896458   -1.304410
     17          1           0        8.593858    0.526020   -1.022606
     18          8           0        4.079262   -0.171197    0.286703
     19          8           0        6.566518    2.060934   -1.585365
     20         16           0        1.969131    1.451959    0.000000
     21         16           0        1.875801   -1.481456    0.000000
 ---------------------------------------------------------------------
                    Distance matrix (angstroms):
                    1          2          3          4          5
     1  C    0.000000
     2  C    2.416742   0.000000
     3  H    2.814966   0.989755   0.000000
     4  H    2.573675   0.989643   1.608008   0.000000
     5  C    3.624032   1.515461   2.079139   2.078805   0.000000
     6  H    4.411359   2.062807   2.296029   2.463398   0.989178
     7  H    3.810283   2.063112   2.447647   2.863231   0.991148
     8  C    4.086653   2.516419   3.355688   2.639256   1.505870
     9  H    3.577114   2.649703   3.602699   2.736085   2.084695
    10  C    5.179115   4.012030   4.850064   3.479634   3.600139
    11  H    5.555135   4.517189   5.412248   4.138526   3.902007
    12  H    5.988707   4.703747   5.451000   4.085192   4.296495
    13  H    4.643864   3.889154   4.755724   3.234988   3.833229
    14  C    5.404208   3.828751   4.545152   4.081587   2.476094
    15  H    5.930121   4.542684   5.335146   4.645399   3.316345
    16  H    5.416170   4.057473   4.735053   4.495627   2.719033
    17  H    5.971311   4.084958   4.647587   4.347576   2.622754
    18  O    1.343099   1.449562   2.021388   2.020176   2.375315
    19  O    4.665057   2.971832   3.722675   2.614457   2.349617
    20  S    1.687932   3.011651   3.253573   2.634364   4.427200
    21  S    1.693527   3.939786   4.274924   4.235693   4.924035
                    6          7          8          9         10
     6  H    0.000000
     7  H    1.600278   0.000000
     8  C    2.053938   2.054558   0.000000
     9  H    2.869684   2.465076   1.001053   0.000000
    10  C    3.814875   4.396066   2.416670   2.528945   0.000000
    11  H    4.207868   4.540912   2.486952   2.470080   0.979119
    12  H    4.324240   5.143144   3.229362   3.479344   0.981193
    13  H    4.193401   4.638746   2.782884   2.601097   0.980793
    14  C    2.734578   2.594037   1.491682   2.072014   3.127184
    15  H    3.579638   3.522491   2.039660   2.379507   2.869180
    16  H    3.125701   2.470980   2.040259   2.352597   3.967261
    17  H    2.516974   2.766110   2.039448   2.861179   3.509879
    18  O    3.220697   2.468949   3.015420   2.675249   4.599205
    19  O    2.433502   3.210634   1.476466   2.057392   1.392242
    20  S    5.002462   4.904996   4.826195   4.429052   5.247484
    21  S    5.797420   4.846041   5.286538   4.609795   6.484406
                   11         12         13         14         15
    11  H    0.000000
    12  H    1.599932   0.000000
    13  H    1.601400   1.601344   0.000000
    14  C    2.808468   3.782361   3.769013   0.000000
    15  H    2.288030   3.460051   3.578100   0.979510   0.000000
    16  H    3.578800   4.697114   4.495229   0.981585   1.600734
    17  H    3.331736   3.975600   4.267825   0.979581   1.600760
    18  O    4.914250   5.442368   4.302422   4.245141   4.888166
    19  O    1.951674   1.952410   1.951369   2.410657   2.597712
    20  S    5.841857   5.867698   4.557432   6.289007   6.730431
    21  S    6.687084   7.361672   5.916647   6.410039   6.890026
                   16         17         18         19         20
    16  H    0.000000
    17  H    1.600610   0.000000
    18  O    4.216687   4.752050   0.000000
    19  O    3.262973   2.604374   3.830599   0.000000
    20  S    6.525740   6.766838   2.677590   4.901040   0.000000
    21  S    6.207355   7.085759   2.579577   6.088081   2.934899
                   21
    21  S    0.000000
 Stoichiometry    C6H11O2S2(1-)
 Framework group  C1[X(C6H11O2S2)]
 Deg. of freedom    57
 Full point group                 C1      NOp   1
 Largest Abelian subgroup         C1      NOp   1
 Largest concise Abelian subgroup C1      NOp   1
                         Standard orientation:                         
 ---------------------------------------------------------------------
 Center     Atomic      Atomic             Coordinates (Angstroms)
 Number     Number       Type             X           Y           Z
 ---------------------------------------------------------------------
      1          6           0       -1.941497   -0.084203   -0.014267
      2          6           0        0.093729   -0.125154    1.288352
      3          1           0       -0.232560   -0.205807    2.219291
      4          1           0        0.202613    0.834636    1.073083
      5          6           0        1.411230   -0.855929    1.124708
      6          1           0        1.998000   -0.640295    1.891309
      7          1           0        1.242110   -1.832458    1.137475
      8          6           0        2.121708   -0.498424   -0.153985
      9          1           0        1.489662   -0.513248   -0.930133
     10          6           0        2.833871    1.624786   -1.062332
     11          1           0        3.205812    1.054427   -1.765911
     12          1           0        3.462708    2.351847   -0.865641
     13          1           0        1.980879    2.004070   -1.363172
     14          6           0        3.286606   -1.397448   -0.398698
     15          1           0        3.787704   -1.078748   -1.177653
     16          1           0        2.965319   -2.309369   -0.568059
     17          1           0        3.869376   -1.398714    0.388676
     18          8           0       -0.837738   -0.747079    0.368130
     19          8           0        2.624051    0.868748    0.087763
     20         16           0       -2.224163    1.543347    0.332569
     21         16           0       -3.094338   -0.994688   -0.856887
 ---------------------------------------------------------------------
 Rotational constants (GHZ):           1.5818528           0.4578389           0.4125383
 Leave Link  202 at Mon Mar  6 10:21:46 2023, MaxMem=  1048576000 cpu:               0.0 elap:               0.0
 (Enter /ssoft/spack/external/gaussian/g16-C.01/avx2/g16/l301.exe)
 Standard basis: def2SVP (5D, 7F)
 Ernie: Thresh=  0.10000D-02 Tol=  0.10000D-05 Strict=F.
 There are   213 symmetry adapted cartesian basis functions of A   symmetry.
 There are   203 symmetry adapted basis functions of A   symmetry.
   203 basis functions,   351 primitive gaussians,   213 cartesian basis functions
    48 alpha electrons       48 beta electrons
       nuclear repulsion energy       712.7368584509 Hartrees.
 IExCor= 1009 DFT=T Ex+Corr=PBE1PBE ExCW=0 ScaHFX=  0.250000
 ScaDFX=  0.750000  0.750000  1.000000  1.000000 ScalE2=  1.000000  1.000000
 IRadAn=      5 IRanWt=     -1 IRanGd=            0 ICorTp=0 IEmpDi=141
 NAtoms=   21 NActive=   21 NUniq=   21 SFac= 1.00D+00 NAtFMM=   60 NAOKFM=F Big=F
 Integral buffers will be    131072 words long.
 Raffenetti 2 integral format.
 Two-electron integral symmetry is turned on.
 R6Disp:  Grimme-D3(BJ) Dispersion energy=       -0.0188688486 Hartrees.
 Nuclear repulsion after empirical dispersion term =      712.7179896023 Hartrees.
 Leave Link  301 at Mon Mar  6 10:21:46 2023, MaxMem=  1048576000 cpu:               0.1 elap:               0.1
 (Enter /ssoft/spack/external/gaussian/g16-C.01/avx2/g16/l302.exe)
 NPDir=0 NMtPBC=     1 NCelOv=     1 NCel=       1 NClECP=     1 NCelD=      1
         NCelK=      1 NCelE2=     1 NClLst=     1 CellRange=     0.0.
 One-electron integrals computed using PRISM.
 One-electron integral symmetry used in STVInt
   1 Symmetry operations used in ECPInt.
 ECPInt:  NShTT=    4753 NPrTT=   17761 LenC2=    4568 LenP2D=   12796.
 LDataN:  DoStor=T MaxTD1= 4 Len=   56
 NBasis=   203 RedAO= T EigKep=  1.35D-03  NBF=   203
 NBsUse=   203 1.00D-06 EigRej= -1.00D+00 NBFU=   203
 Precomputing XC quadrature grid using
 IXCGrd= 4 IRadAn=           5 IRanWt=          -1 IRanGd=           0 AccXCQ= 0.00D+00.
 Generated NRdTot=       0 NPtTot=           0 NUsed=           0 NTot=          32
 NSgBfM=   212   212   212   212   212 MxSgAt=    21 MxSgA2=    21.
 Leave Link  302 at Mon Mar  6 10:21:46 2023, MaxMem=  1048576000 cpu:               0.4 elap:               0.4
 (Enter /ssoft/spack/external/gaussian/g16-C.01/avx2/g16/l303.exe)
 DipDrv:  MaxL=1.
 Leave Link  303 at Mon Mar  6 10:21:46 2023, MaxMem=  1048576000 cpu:               0.0 elap:               0.0
 (Enter /ssoft/spack/external/gaussian/g16-C.01/avx2/g16/l401.exe)
 ExpMin= 1.22D-01 ExpMax= 9.18D+03 ExpMxC= 1.38D+03 IAcc=3 IRadAn=         5 AccDes= 0.00D+00
 Harris functional with IExCor= 1009 and IRadAn=       5 diagonalized for initial guess.
 HarFok:  IExCor= 1009 AccDes= 0.00D+00 IRadAn=         5 IDoV= 1 UseB2=F ITyADJ=14
 ICtDFT=  3500011 ScaDFX=  1.000000  1.000000  1.000000  1.000000
 FoFCou: FMM=F IPFlag=           0 FMFlag=      100000 FMFlg1=           0
         NFxFlg=           0 DoJE=T BraDBF=F KetDBF=T FulRan=T
         wScrn=  0.000000 ICntrl=       500 IOpCl=  0 I1Cent=   200000004 NGrid=           0
         NMat0=    1 NMatS0=      1 NMatT0=    0 NMatD0=    1 NMtDS0=    0 NMtDT0=    0
 Petite list used in FoFCou.
 Harris En= -1180.94308270526    
 JPrj=0 DoOrth=F DoCkMO=F.
 Leave Link  401 at Mon Mar  6 10:21:50 2023, MaxMem=  1048576000 cpu:               3.1 elap:               3.2
 (Enter /ssoft/spack/external/gaussian/g16-C.01/avx2/g16/l502.exe)
 Keep R1 ints in memory in canonical form, NReq=219281555.
 FoFCou: FMM=F IPFlag=           0 FMFlag=           0 FMFlg1=           0
         NFxFlg=           0 DoJE=F BraDBF=F KetDBF=F FulRan=T
         wScrn=  0.000000 ICntrl=       600 IOpCl=  0 I1Cent=           0 NGrid=           0
         NMat0=    1 NMatS0=  20706 NMatT0=    0 NMatD0=    1 NMtDS0=    0 NMtDT0=    0
 Symmetry not used in FoFCou.
 Two-electron integral symmetry not used.
 Closed shell SCF:
 Using DIIS extrapolation, IDIIS=  1040.
 NGot=  1048576000 LenX=   834101535 LenY=   834055725
 Requested convergence on RMS density matrix=1.00D-08 within 128 cycles.
 Requested convergence on MAX density matrix=1.00D-06.
 Requested convergence on             energy=1.00D-06.
 No special actions if energy rises.
 Integral accuracy reduced to 1.0D-05 until final iterations.

 Cycle   1  Pass 0  IDiag  1:
 E= -1180.53151405200    
 DIIS: error= 2.94D-02 at cycle   1 NSaved=   1.
 NSaved= 1 IEnMin= 1 EnMin= -1180.53151405200     IErMin= 1 ErrMin= 2.94D-02
 ErrMax= 2.94D-02  0.00D+00 EMaxC= 1.00D-01 BMatC= 2.26D-01 BMatP= 2.26D-01
 IDIUse=3 WtCom= 7.06D-01 WtEn= 2.94D-01
 Coeff-Com:  0.100D+01
 Coeff-En:   0.100D+01
 Coeff:      0.100D+01
 Gap=     0.177 Goal=   None    Shift=    0.000
 GapD=    0.177 DampG=1.000 DampE=0.500 DampFc=0.5000 IDamp=-1.
 Damping current iteration by 5.00D-01
 RMSDP=5.36D-03 MaxDP=1.63D-01              OVMax= 1.36D-01

 Cycle   2  Pass 0  IDiag  1:
 E= -1180.65378772041     Delta-E=       -0.122273668410 Rises=F Damp=T
 DIIS: error= 6.37D-03 at cycle   2 NSaved=   2.
 NSaved= 2 IEnMin= 2 EnMin= -1180.65378772041     IErMin= 2 ErrMin= 6.37D-03
 ErrMax= 6.37D-03  0.00D+00 EMaxC= 1.00D-01 BMatC= 1.06D-02 BMatP= 2.26D-01
 IDIUse=3 WtCom= 9.36D-01 WtEn= 6.37D-02
 Coeff-Com: -0.764D-01 0.108D+01
 Coeff-En:   0.000D+00 0.100D+01
 Coeff:     -0.716D-01 0.107D+01
 Gap=     0.160 Goal=   None    Shift=    0.000
 RMSDP=1.40D-03 MaxDP=3.25D-02 DE=-1.22D-01 OVMax= 7.50D-02

 Cycle   3  Pass 0  IDiag  1:
 E= -1180.76552194590     Delta-E=       -0.111734225489 Rises=F Damp=F
 DIIS: error= 3.42D-03 at cycle   3 NSaved=   3.
 NSaved= 3 IEnMin= 3 EnMin= -1180.76552194590     IErMin= 3 ErrMin= 3.42D-03
 ErrMax= 3.42D-03  0.00D+00 EMaxC= 1.00D-01 BMatC= 4.57D-03 BMatP= 1.06D-02
 IDIUse=3 WtCom= 9.66D-01 WtEn= 3.42D-02
 Coeff-Com: -0.584D-01 0.421D+00 0.638D+00
 Coeff-En:   0.000D+00 0.000D+00 0.100D+01
 Coeff:     -0.564D-01 0.406D+00 0.650D+00
 Gap=     0.174 Goal=   None    Shift=    0.000
 RMSDP=7.21D-04 MaxDP=2.18D-02 DE=-1.12D-01 OVMax= 5.10D-02

 Cycle   4  Pass 0  IDiag  1:
 E= -1180.76736806938     Delta-E=       -0.001846123482 Rises=F Damp=F
 DIIS: error= 2.93D-03 at cycle   4 NSaved=   4.
 NSaved= 4 IEnMin= 4 EnMin= -1180.76736806938     IErMin= 4 ErrMin= 2.93D-03
 ErrMax= 2.93D-03  0.00D+00 EMaxC= 1.00D-01 BMatC= 2.89D-03 BMatP= 4.57D-03
 IDIUse=3 WtCom= 9.71D-01 WtEn= 2.93D-02
 Coeff-Com: -0.247D-01 0.119D+00 0.439D+00 0.467D+00
 Coeff-En:   0.000D+00 0.000D+00 0.394D+00 0.606D+00
 Coeff:     -0.239D-01 0.115D+00 0.438D+00 0.471D+00
 Gap=     0.174 Goal=   None    Shift=    0.000
 RMSDP=3.07D-04 MaxDP=8.84D-03 DE=-1.85D-03 OVMax= 2.40D-02

 Cycle   5  Pass 0  IDiag  1:
 E= -1180.77004691928     Delta-E=       -0.002678849893 Rises=F Damp=F
 DIIS: error= 4.06D-04 at cycle   5 NSaved=   5.
 NSaved= 5 IEnMin= 5 EnMin= -1180.77004691928     IErMin= 5 ErrMin= 4.06D-04
 ErrMax= 4.06D-04  0.00D+00 EMaxC= 1.00D-01 BMatC= 7.10D-05 BMatP= 2.89D-03
 IDIUse=3 WtCom= 9.96D-01 WtEn= 4.06D-03
 Coeff-Com: -0.602D-02 0.244D-01 0.153D+00 0.213D+00 0.616D+00
 Coeff-En:   0.000D+00 0.000D+00 0.000D+00 0.000D+00 0.100D+01
 Coeff:     -0.600D-02 0.243D-01 0.152D+00 0.212D+00 0.618D+00
 Gap=     0.170 Goal=   None    Shift=    0.000
 RMSDP=6.57D-05 MaxDP=1.98D-03 DE=-2.68D-03 OVMax= 2.26D-03

 Cycle   6  Pass 0  IDiag  1:
 E= -1180.77010786664     Delta-E=       -0.000060947366 Rises=F Damp=F
 DIIS: error= 1.47D-04 at cycle   6 NSaved=   6.
 NSaved= 6 IEnMin= 6 EnMin= -1180.77010786664     IErMin= 6 ErrMin= 1.47D-04
 ErrMax= 1.47D-04  0.00D+00 EMaxC= 1.00D-01 BMatC= 9.09D-06 BMatP= 7.10D-05
 IDIUse=3 WtCom= 9.99D-01 WtEn= 1.47D-03
 Coeff-Com: -0.146D-02 0.435D-02 0.527D-01 0.822D-01 0.340D+00 0.522D+00
 Coeff-En:   0.000D+00 0.000D+00 0.000D+00 0.000D+00 0.355D-01 0.965D+00
 Coeff:     -0.146D-02 0.434D-02 0.526D-01 0.821D-01 0.340D+00 0.523D+00
 Gap=     0.170 Goal=   None    Shift=    0.000
 RMSDP=1.68D-05 MaxDP=5.96D-04 DE=-6.09D-05 OVMax= 7.26D-04

 Cycle   7  Pass 0  IDiag  1:
 E= -1180.77011576807     Delta-E=       -0.000007901425 Rises=F Damp=F
 DIIS: error= 4.02D-05 at cycle   7 NSaved=   7.
 NSaved= 7 IEnMin= 7 EnMin= -1180.77011576807     IErMin= 7 ErrMin= 4.02D-05
 ErrMax= 4.02D-05  0.00D+00 EMaxC= 1.00D-01 BMatC= 4.21D-07 BMatP= 9.09D-06
 IDIUse=1 WtCom= 1.00D+00 WtEn= 0.00D+00
 Coeff-Com: -0.158D-03-0.586D-04 0.121D-01 0.211D-01 0.110D+00 0.239D+00
 Coeff-Com:  0.619D+00
 Coeff:     -0.158D-03-0.586D-04 0.121D-01 0.211D-01 0.110D+00 0.239D+00
 Coeff:      0.619D+00
 Gap=     0.170 Goal=   None    Shift=    0.000
 RMSDP=4.57D-06 MaxDP=1.73D-04 DE=-7.90D-06 OVMax= 1.58D-04

 Initial convergence to 1.0D-05 achieved.  Increase integral accuracy.
 Cycle   8  Pass 1  IDiag  1:
 E= -1180.77011690174     Delta-E=       -0.000001133677 Rises=F Damp=F
 DIIS: error= 8.18D-06 at cycle   1 NSaved=   1.
 NSaved= 1 IEnMin= 1 EnMin= -1180.77011690174     IErMin= 1 ErrMin= 8.18D-06
 ErrMax= 8.18D-06  0.00D+00 EMaxC= 1.00D-01 BMatC= 4.58D-08 BMatP= 4.58D-08
 IDIUse=1 WtCom= 1.00D+00 WtEn= 0.00D+00
 Coeff-Com:  0.100D+01
 Coeff:      0.100D+01
 Gap=     0.170 Goal=   None    Shift=    0.000
 RMSDP=4.57D-06 MaxDP=1.73D-04 DE=-1.13D-06 OVMax= 9.83D-05

 Cycle   9  Pass 1  IDiag  1:
 E= -1180.77011687409     Delta-E=        0.000000027653 Rises=F Damp=F
 DIIS: error= 1.62D-05 at cycle   2 NSaved=   2.
 NSaved= 2 IEnMin= 1 EnMin= -1180.77011690174     IErMin= 1 ErrMin= 8.18D-06
 ErrMax= 1.62D-05  0.00D+00 EMaxC= 1.00D-01 BMatC= 7.77D-08 BMatP= 4.58D-08
 IDIUse=1 WtCom= 1.00D+00 WtEn= 0.00D+00
 Coeff-Com:  0.569D+00 0.431D+00
 Coeff:      0.569D+00 0.431D+00
 Gap=     0.170 Goal=   None    Shift=    0.000
 RMSDP=1.62D-06 MaxDP=6.19D-05 DE= 2.77D-08 OVMax= 7.44D-05

 Cycle  10  Pass 1  IDiag  1:
 E= -1180.77011694687     Delta-E=       -0.000000072778 Rises=F Damp=F
 DIIS: error= 3.21D-06 at cycle   3 NSaved=   3.
 NSaved= 3 IEnMin= 3 EnMin= -1180.77011694687     IErMin= 3 ErrMin= 3.21D-06
 ErrMax= 3.21D-06  0.00D+00 EMaxC= 1.00D-01 BMatC= 2.29D-09 BMatP= 4.58D-08
 IDIUse=1 WtCom= 1.00D+00 WtEn= 0.00D+00
 Coeff-Com:  0.197D+00 0.200D+00 0.602D+00
 Coeff:      0.197D+00 0.200D+00 0.602D+00
 Gap=     0.170 Goal=   None    Shift=    0.000
 RMSDP=3.70D-07 MaxDP=1.57D-05 DE=-7.28D-08 OVMax= 2.27D-05

 Cycle  11  Pass 1  IDiag  1:
 E= -1180.77011694867     Delta-E=       -0.000000001802 Rises=F Damp=F
 DIIS: error= 1.28D-06 at cycle   4 NSaved=   4.
 NSaved= 4 IEnMin= 4 EnMin= -1180.77011694867     IErMin= 4 ErrMin= 1.28D-06
 ErrMax= 1.28D-06  0.00D+00 EMaxC= 1.00D-01 BMatC= 6.27D-10 BMatP= 2.29D-09
 IDIUse=1 WtCom= 1.00D+00 WtEn= 0.00D+00
 Coeff-Com: -0.344D-02 0.328D-01 0.369D+00 0.602D+00
 Coeff:     -0.344D-02 0.328D-01 0.369D+00 0.602D+00
 Gap=     0.170 Goal=   None    Shift=    0.000
 RMSDP=1.52D-07 MaxDP=4.39D-06 DE=-1.80D-09 OVMax= 1.07D-05

 Cycle  12  Pass 1  IDiag  1:
 E= -1180.77011694923     Delta-E=       -0.000000000561 Rises=F Damp=F
 DIIS: error= 5.26D-07 at cycle   5 NSaved=   5.
 NSaved= 5 IEnMin= 5 EnMin= -1180.77011694923     IErMin= 5 ErrMin= 5.26D-07
 ErrMax= 5.26D-07  0.00D+00 EMaxC= 1.00D-01 BMatC= 6.43D-11 BMatP= 6.27D-10
 IDIUse=1 WtCom= 1.00D+00 WtEn= 0.00D+00
 Coeff-Com: -0.139D-01 0.737D-02 0.181D+00 0.359D+00 0.467D+00
 Coeff:     -0.139D-01 0.737D-02 0.181D+00 0.359D+00 0.467D+00
 Gap=     0.170 Goal=   None    Shift=    0.000
 RMSDP=5.26D-08 MaxDP=1.56D-06 DE=-5.61D-10 OVMax= 3.07D-06

 Cycle  13  Pass 1  IDiag  1:
 E= -1180.77011694929     Delta-E=       -0.000000000056 Rises=F Damp=F
 DIIS: error= 8.64D-08 at cycle   6 NSaved=   6.
 NSaved= 6 IEnMin= 6 EnMin= -1180.77011694929     IErMin= 6 ErrMin= 8.64D-08
 ErrMax= 8.64D-08  0.00D+00 EMaxC= 1.00D-01 BMatC= 1.98D-12 BMatP= 6.43D-11
 IDIUse=1 WtCom= 1.00D+00 WtEn= 0.00D+00
 Coeff-Com: -0.588D-02 0.926D-03 0.494D-01 0.109D+00 0.212D+00 0.635D+00
 Coeff:     -0.588D-02 0.926D-03 0.494D-01 0.109D+00 0.212D+00 0.635D+00
 Gap=     0.170 Goal=   None    Shift=    0.000
 RMSDP=9.27D-09 MaxDP=1.97D-07 DE=-5.64D-11 OVMax= 3.94D-07

 SCF Done:  E(RPBE1PBE) =  -1180.77011695     A.U. after   13 cycles
            NFock= 13  Conv=0.93D-08     -V/T= 2.0026
 KE= 1.177763016230D+03 PE=-4.233458818669D+03 EE= 1.162207695887D+03
 Leave Link  502 at Mon Mar  6 10:22:41 2023, MaxMem=  1048576000 cpu:              50.8 elap:              51.3
 (Enter /ssoft/spack/external/gaussian/g16-C.01/avx2/g16/l801.exe)
 DoSCS=F DFT=T ScalE2(SS,OS)=  1.000000  1.000000
 Range of M.O.s used for correlation:     1   203
 NBasis=   203 NAE=    48 NBE=    48 NFC=     0 NFV=     0
 NROrb=    203 NOA=    48 NOB=    48 NVA=   155 NVB=   155
 Leave Link  801 at Mon Mar  6 10:22:41 2023, MaxMem=  1048576000 cpu:               0.0 elap:               0.0
 (Enter /ssoft/spack/external/gaussian/g16-C.01/avx2/g16/l1101.exe)
 Using compressed storage, NAtomX=    21.
 Will process     22 centers per pass.
   1 Symmetry operations used in ECPInt.
 ECPInt:  NShTT=    4753 NPrTT=   17761 LenC2=    4568 LenP2D=   12796.
 LDataN:  DoStor=T MaxTD1= 5 Len=  102
 R6Disp: Adding Grimme-D3(BJ) dispersion energy 1st derivatives to the gradient.
 Leave Link 1101 at Mon Mar  6 10:22:41 2023, MaxMem=  1048576000 cpu:               0.2 elap:               0.2
 (Enter /ssoft/spack/external/gaussian/g16-C.01/avx2/g16/l1102.exe)
 Symmetrizing basis deriv contribution to polar:
 IMax=3 JMax=2 DiffMx= 0.00D+00
 Leave Link 1102 at Mon Mar  6 10:22:41 2023, MaxMem=  1048576000 cpu:               0.0 elap:               0.0
 (Enter /ssoft/spack/external/gaussian/g16-C.01/avx2/g16/l1110.exe)
 Forming Gx(P) for the SCF density, NAtomX=    21.
 Integral derivatives from FoFJK, PRISM(SPDF).
 Do as many integral derivatives as possible in FoFJK.
 G2DrvN: MDV=    1048573701.
 G2DrvN: will do    22 centers at a time, making    1 passes.
 Calling FoFCou, ICntrl=  3107 FMM=F I1Cent=   0 AccDes= 0.00D+00.
 FoFJK:  IHMeth= 1 ICntrl=    3107 DoSepK=F KAlg= 0 I1Cent=           0 FoldK=F
 IRaf=         0 NMat=       1 IRICut=       1 DoRegI=T DoRafI=F ISym2E= 0 IDoP0=0 IntGTp=1.
 FoFCou: FMM=F IPFlag=           0 FMFlag=      100000 FMFlg1=           0
         NFxFlg=           0 DoJE=F BraDBF=F KetDBF=F FulRan=T
         wScrn=  0.000000 ICntrl=      3107 IOpCl=  0 I1Cent=           0 NGrid=           0
         NMat0=    1 NMatS0=      1 NMatT0=    0 NMatD0=    1 NMtDS0=    0 NMtDT0=    0
 Symmetry not used in FoFCou.
 End of G2Drv F.D. properties file   721 does not exist.
 End of G2Drv F.D. properties file   722 does not exist.
 End of G2Drv F.D. properties file   788 does not exist.
 Leave Link 1110 at Mon Mar  6 10:25:37 2023, MaxMem=  1048576000 cpu:             174.6 elap:             175.5
 (Enter /ssoft/spack/external/gaussian/g16-C.01/avx2/g16/l1002.exe)
 Minotr:  Closed shell wavefunction.
          IDoAtm=111111111111111111111
          Direct CPHF calculation.
          Differentiating once with respect to electric field.
                with respect to dipole field.
          Differentiating once with respect to nuclear coordinates.
          Requested convergence is 1.0D-08 RMS, and 1.0D-07 maximum.
          Secondary convergence is 1.0D-12 RMS, and 1.0D-12 maximum.
          NewPWx=T KeepS1=F KeepF1=F KeepIn=T MapXYZ=F SortEE=F KeepMc=T.
         6259 words used for storage of precomputed grid.
 Keep R1 ints in memory in canonical form, NReq=219290391.
 FoFCou: FMM=F IPFlag=           0 FMFlag=           0 FMFlg1=           0
         NFxFlg=           0 DoJE=F BraDBF=F KetDBF=F FulRan=T
         wScrn=  0.000000 ICntrl=       600 IOpCl=  0 I1Cent=           0 NGrid=           0
         NMat0=    1 NMatS0=  20706 NMatT0=    0 NMatD0=    1 NMtDS0=    0 NMtDT0=    0
 Symmetry not used in FoFCou.
 Two-electron integral symmetry not used.
          MDV=    1048576000 using IRadAn=       1.
          Solving linear equations simultaneously, MaxMat=       0.
          There are    66 degrees of freedom in the 1st order CPHF.  IDoFFX=6 NUNeed=     3.
     63 vectors produced by pass  0 Test12= 1.13D-14 1.52D-09 XBig12= 1.16D+02 6.89D+00.
 AX will form    63 AO Fock derivatives at one time.
     63 vectors produced by pass  1 Test12= 1.13D-14 1.52D-09 XBig12= 2.50D+01 8.70D-01.
     63 vectors produced by pass  2 Test12= 1.13D-14 1.52D-09 XBig12= 4.88D-01 7.94D-02.
     63 vectors produced by pass  3 Test12= 1.13D-14 1.52D-09 XBig12= 1.97D-03 8.81D-03.
     63 vectors produced by pass  4 Test12= 1.13D-14 1.52D-09 XBig12= 4.63D-06 3.57D-04.
     50 vectors produced by pass  5 Test12= 1.13D-14 1.52D-09 XBig12= 6.78D-09 1.16D-05.
      8 vectors produced by pass  6 Test12= 1.13D-14 1.52D-09 XBig12= 6.28D-12 2.91D-07.
      3 vectors produced by pass  7 Test12= 1.13D-14 1.52D-09 XBig12= 6.65D-15 1.19D-08.
 InvSVY:  IOpt=1 It=  1 EMax= 8.88D-15
 Solved reduced A of dimension   376 with    66 vectors.
 FullF1:  Do perturbations      1 to       3.
 Isotropic polarizability for W=    0.000000       99.65 Bohr**3.
 End of Minotr F.D. properties file   721 does not exist.
 End of Minotr F.D. properties file   722 does not exist.
 End of Minotr F.D. properties file   788 does not exist.
 Leave Link 1002 at Mon Mar  6 10:28:22 2023, MaxMem=  1048576000 cpu:             164.7 elap:             165.8
 (Enter /ssoft/spack/external/gaussian/g16-C.01/avx2/g16/l601.exe)
 Copying SCF densities to generalized density rwf, IOpCl= 0 IROHF=0.

 **********************************************************************

            Population analysis using the SCF Density.

 **********************************************************************

 Orbital symmetries:
       Occupied  (A) (A) (A) (A) (A) (A) (A) (A) (A) (A) (A) (A)
                 (A) (A) (A) (A) (A) (A) (A) (A) (A) (A) (A) (A)
                 (A) (A) (A) (A) (A) (A) (A) (A) (A) (A) (A) (A)
                 (A) (A) (A) (A) (A) (A) (A) (A) (A) (A) (A) (A)
       Virtual   (A) (A) (A) (A) (A) (A) (A) (A) (A) (A) (A) (A)
                 (A) (A) (A) (A) (A) (A) (A) (A) (A) (A) (A) (A)
                 (A) (A) (A) (A) (A) (A) (A) (A) (A) (A) (A) (A)
                 (A) (A) (A) (A) (A) (A) (A) (A) (A) (A) (A) (A)
                 (A) (A) (A) (A) (A) (A) (A) (A) (A) (A) (A) (A)
                 (A) (A) (A) (A) (A) (A) (A) (A) (A) (A) (A) (A)
                 (A) (A) (A) (A) (A) (A) (A) (A) (A) (A) (A) (A)
                 (A) (A) (A) (A) (A) (A) (A) (A) (A) (A) (A) (A)
                 (A) (A) (A) (A) (A) (A) (A) (A) (A) (A) (A) (A)
                 (A) (A) (A) (A) (A) (A) (A) (A) (A) (A) (A) (A)
                 (A) (A) (A) (A) (A) (A) (A) (A) (A) (A) (A) (A)
                 (A) (A) (A) (A) (A) (A) (A) (A) (A) (A) (A) (A)
                 (A) (A) (A) (A) (A) (A) (A) (A) (A) (A) (A)
 The electronic state is 1-A.
 Alpha  occ. eigenvalues --  -88.75491 -88.74308 -19.09487 -19.08537 -10.16151
 Alpha  occ. eigenvalues --  -10.15602 -10.13911 -10.12082 -10.09697 -10.09188
 Alpha  occ. eigenvalues --   -7.75682  -7.74525  -5.69932  -5.69417  -5.69062
 Alpha  occ. eigenvalues --   -5.68793  -5.68278  -5.67869  -0.93581  -0.92599
 Alpha  occ. eigenvalues --   -0.72998  -0.66745  -0.62495  -0.59547  -0.54935
 Alpha  occ. eigenvalues --   -0.51160  -0.48323  -0.43526  -0.41090  -0.40091
 Alpha  occ. eigenvalues --   -0.38529  -0.36461  -0.35056  -0.33401  -0.31585
 Alpha  occ. eigenvalues --   -0.29758  -0.28210  -0.26359  -0.25436  -0.22677
 Alpha  occ. eigenvalues --   -0.21432  -0.21310  -0.16135  -0.14535  -0.09401
 Alpha  occ. eigenvalues --   -0.05496  -0.02366  -0.00040
 Alpha virt. eigenvalues --    0.16966   0.17280   0.20011   0.21962   0.22320
 Alpha virt. eigenvalues --    0.24382   0.24938   0.25958   0.27421   0.27871
 Alpha virt. eigenvalues --    0.28391   0.29790   0.29938   0.31111   0.33836
 Alpha virt. eigenvalues --    0.34410   0.35612   0.36393   0.37499   0.39006
 Alpha virt. eigenvalues --    0.44860   0.52924   0.53683   0.55963   0.56894
 Alpha virt. eigenvalues --    0.57153   0.59815   0.61779   0.62195   0.64909
 Alpha virt. eigenvalues --    0.66478   0.69068   0.70714   0.71720   0.73303
 Alpha virt. eigenvalues --    0.74065   0.74664   0.76943   0.77844   0.80904
 Alpha virt. eigenvalues --    0.81084   0.82104   0.83424   0.84308   0.84601
 Alpha virt. eigenvalues --    0.85473   0.86008   0.86179   0.86987   0.88239
 Alpha virt. eigenvalues --    0.88999   0.89523   0.90278   0.90804   0.91299
 Alpha virt. eigenvalues --    0.91712   0.92881   0.93218   0.94461   0.95152
 Alpha virt. eigenvalues --    0.95814   0.97952   1.00097   1.00821   1.02702
 Alpha virt. eigenvalues --    1.06014   1.09273   1.10428   1.12951   1.19186
 Alpha virt. eigenvalues --    1.20384   1.22191   1.25076   1.27222   1.28296
 Alpha virt. eigenvalues --    1.32351   1.33762   1.36982   1.40084   1.42866
 Alpha virt. eigenvalues --    1.44330   1.48685   1.50768   1.55226   1.57992
 Alpha virt. eigenvalues --    1.63813   1.67362   1.69300   1.71486   1.72569
 Alpha virt. eigenvalues --    1.74739   1.76837   1.83047   1.86128   1.87742
 Alpha virt. eigenvalues --    1.91411   1.92922   1.95406   1.96068   1.96961
 Alpha virt. eigenvalues --    1.98360   2.00097   2.00352   2.01083   2.05232
 Alpha virt. eigenvalues --    2.05941   2.10005   2.10587   2.13224   2.15603
 Alpha virt. eigenvalues --    2.17806   2.18393   2.19655   2.23746   2.25735
 Alpha virt. eigenvalues --    2.28307   2.29805   2.34802   2.36313   2.38035
 Alpha virt. eigenvalues --    2.40252   2.43572   2.45294   2.52861   2.57775
 Alpha virt. eigenvalues --    2.62933   2.64320   2.68439   2.70218   2.71382
 Alpha virt. eigenvalues --    2.80527   2.83081   2.86670   2.91977   3.02990
 Alpha virt. eigenvalues --    3.05358   3.06773   3.11487   3.14850   3.15168
 Alpha virt. eigenvalues --    3.16347   3.19715   3.23079   3.23692   3.27502
 Alpha virt. eigenvalues --    3.29645   3.33131   3.34013   3.35941   3.40010
 Alpha virt. eigenvalues --    3.42350   3.50969   3.55676   3.65178   3.66328
     Molecular Orbital Coefficients:
                          44        45        46        47        48
                           O         O         O         O         O
     Eigenvalues --    -0.14535  -0.09401  -0.05496  -0.02366  -0.00040
   1 1   C  1S          0.01282   0.00251  -0.02295  -0.00027   0.00158
   2        2S         -0.03355  -0.00610   0.05702  -0.00200  -0.00180
   3        3S          0.01006   0.00186   0.07594   0.00617  -0.00229
   4        4PX         0.04439  -0.10920  -0.01138  -0.01290  -0.01631
   5        4PY         0.30212  -0.07366  -0.01645  -0.00806  -0.04757
   6        4PZ         0.16738   0.18389  -0.00473   0.02016  -0.02212
   7        5PX         0.06014  -0.08059   0.06673   0.00177  -0.02989
   8        5PY         0.10835  -0.04855  -0.05386   0.00474  -0.01772
   9        5PZ         0.10310   0.14247   0.02278   0.02883  -0.02114
  10        6D 0       -0.00471  -0.00971   0.00371  -0.01965   0.00435
  11        6D+1       -0.01145  -0.01451  -0.00646  -0.00434   0.00994
  12        6D-1       -0.00045   0.01399   0.02027  -0.01765  -0.00030
  13        6D+2       -0.01595   0.01800  -0.01950  -0.00117   0.01589
  14        6D-2       -0.01197  -0.00104   0.02675   0.01411   0.01058
  15 2   C  1S          0.02437   0.00212   0.00557   0.00026   0.01967
  16        2S         -0.06736  -0.00304  -0.00245  -0.00512  -0.04009
  17        3S         -0.01471  -0.02768  -0.12204   0.05851  -0.22086
  18        4PX         0.07867  -0.01849  -0.03522  -0.00899   0.02619
  19        4PY         0.10314  -0.01571  -0.07324  -0.00995  -0.03081
  20        4PZ         0.08182   0.04611  -0.02488   0.01884   0.02576
  21        5PX         0.05404   0.02328  -0.06587   0.06081  -0.05342
  22        5PY         0.02721   0.05033  -0.04721  -0.05023  -0.03005
  23        5PZ         0.05220  -0.01352  -0.02527  -0.01802   0.01668
  24        6D 0       -0.00282   0.01719   0.00064   0.00345  -0.00185
  25        6D+1       -0.00851  -0.00023  -0.00003   0.00043  -0.00153
  26        6D-1       -0.00146   0.00177   0.00220  -0.00027  -0.00068
  27        6D+2       -0.00921   0.00015  -0.00150  -0.00014  -0.00019
  28        6D-2       -0.00047  -0.00703  -0.00214  -0.00026  -0.00336
  29 3   H  1S          0.00996   0.08733  -0.00387   0.02859  -0.00506
  30        2S          0.00770   0.10840   0.03558   0.00293   0.04033
  31        3PX         0.00128   0.00070  -0.00180   0.00010   0.00133
  32        3PY         0.00451  -0.00021  -0.00155   0.00004  -0.00009
  33        3PZ         0.00085   0.00015   0.00008   0.00041   0.00106
  34 4   H  1S          0.06978  -0.06156  -0.03577  -0.00829  -0.01919
  35        2S          0.02538  -0.08345   0.07178   0.03557   0.13745
  36        3PX         0.00117  -0.00180  -0.00498  -0.00263  -0.00290
  37        3PY        -0.00003   0.00044   0.00448   0.00023   0.00359
  38        3PZ         0.00358   0.00214  -0.00269  -0.00040  -0.00057
  39 5   C  1S          0.00513   0.00695   0.00021   0.00262  -0.00519
  40        2S         -0.01534  -0.01715  -0.00042   0.00294   0.00765
  41        3S         -0.04884  -0.02925   0.04472  -0.15354   0.12714
  42        4PX         0.01638   0.02255   0.00408   0.01046  -0.02178
  43        4PY        -0.00784  -0.01385   0.01917  -0.00452   0.01713
  44        4PZ        -0.01550  -0.00083   0.00836  -0.00278   0.00082
  45        5PX         0.00886  -0.01714  -0.03305   0.03688  -0.05849
  46        5PY         0.01330  -0.04970   0.01164  -0.03842   0.02717
  47        5PZ        -0.04654   0.01141   0.00334   0.02152   0.00390
  48        6D 0        0.00042   0.00166   0.00104   0.00077   0.00048
  49        6D+1       -0.00125   0.00003   0.00191  -0.00033  -0.00142
  50        6D-1        0.00114   0.00070  -0.00026  -0.00004   0.00036
  51        6D+2       -0.00377   0.00186   0.00462  -0.00007   0.00092
  52        6D-2        0.00020   0.00097   0.00177   0.00089   0.00059
  53 6   H  1S         -0.01031   0.00612   0.02270   0.00106  -0.00351
  54        2S          0.01043   0.02436   0.02018   0.01244  -0.01321
  55        3PX         0.00008   0.00093   0.00093   0.00016  -0.00060
  56        3PY        -0.00058   0.00067   0.00043   0.00094   0.00074
  57        3PZ         0.00042  -0.00028  -0.00021  -0.00006  -0.00022
  58 7   H  1S          0.01095  -0.00863  -0.02951  -0.00181  -0.01123
  59        2S          0.06145  -0.04112  -0.02443   0.00241  -0.02879
  60        3PX        -0.00078   0.00151  -0.00122  -0.00026  -0.00084
  61        3PY         0.00038  -0.00058   0.00033  -0.00056   0.00005
  62        3PZ        -0.00048  -0.00072   0.00019  -0.00075  -0.00014
  63 8   C  1S          0.00070   0.00154   0.00026  -0.00075  -0.00156
  64        2S         -0.00044  -0.00509  -0.00031  -0.00088   0.00464
  65        3S         -0.04481   0.01751  -0.00616   0.07641  -0.00197
  66        4PX        -0.00826   0.00780   0.00494  -0.00240  -0.00044
  67        4PY         0.00521  -0.00161   0.00048  -0.00062  -0.00052
  68        4PZ         0.01001   0.01678   0.00615   0.00760   0.00462
  69        5PX         0.01129  -0.00875   0.02078  -0.00848   0.00770
  70        5PY        -0.01333  -0.01158  -0.00090  -0.01661  -0.00607
  71        5PZ         0.00461   0.04153   0.02082   0.01951  -0.00402
  72        6D 0        0.00000  -0.00014   0.00036   0.00017  -0.00019
  73        6D+1        0.00016  -0.00030  -0.00002  -0.00024  -0.00037
  74        6D-1       -0.00093  -0.00025   0.00064  -0.00019   0.00058
  75        6D+2        0.00050  -0.00073   0.00017   0.00015   0.00029
  76        6D-2        0.00252  -0.00005  -0.00081  -0.00006  -0.00029
  77 9   H  1S          0.00126  -0.01149  -0.00191  -0.00186  -0.00284
  78        2S          0.03459   0.03680   0.03242  -0.00675  -0.00706
  79        3PX        -0.00065  -0.00264  -0.00087  -0.00065  -0.00046
  80        3PY         0.00015  -0.00009  -0.00006   0.00053   0.00010
  81        3PZ         0.00113   0.00145   0.00057   0.00031   0.00018
  82 10  C  1S         -0.00080  -0.00091  -0.00007   0.00060   0.00030
  83        2S         -0.00026   0.00010   0.00244   0.00267   0.00191
  84        3S          0.01674   0.03012  -0.02208  -0.04526  -0.02952
  85        4PX        -0.01182   0.00069   0.00302   0.00339   0.00245
  86        4PY         0.00417  -0.00005  -0.00288  -0.00186  -0.00241
  87        4PZ         0.00468  -0.00100   0.00216   0.00155   0.00132
  88        5PX        -0.00040  -0.01044   0.00740   0.01761   0.01016
  89        5PY        -0.00166   0.00954  -0.00243  -0.01076  -0.00446
  90        5PZ        -0.00014  -0.00737   0.00415   0.00935   0.00543
  91        6D 0       -0.00103  -0.00008   0.00021   0.00020   0.00008
  92        6D+1        0.00270  -0.00107  -0.00066  -0.00034  -0.00024
  93        6D-1       -0.00156   0.00030   0.00037   0.00005   0.00017
  94        6D+2       -0.00047   0.00028   0.00004  -0.00018   0.00000
  95        6D-2       -0.00145   0.00077   0.00045   0.00031   0.00003
  96 11  H  1S         -0.01436   0.00323   0.00288   0.00084   0.00149
  97        2S         -0.01885   0.00117   0.00344   0.00409   0.00273
  98        3PX        -0.00040   0.00023   0.00006  -0.00011   0.00003
  99        3PY        -0.00039  -0.00005  -0.00008   0.00004  -0.00010
 100        3PZ         0.00003   0.00036  -0.00012  -0.00031  -0.00010
 101 12  H  1S         -0.00390   0.00197   0.00084   0.00104  -0.00040
 102        2S         -0.00476  -0.00169   0.00152   0.00346   0.00201
 103        3PX        -0.00063   0.00028   0.00014  -0.00007   0.00006
 104        3PY         0.00033  -0.00029   0.00004   0.00036   0.00008
 105        3PZ         0.00029  -0.00001   0.00003  -0.00013   0.00001
 106 13  H  1S          0.01679  -0.00418  -0.00365  -0.00163  -0.00077
 107        2S          0.00571  -0.04063   0.01826   0.05040   0.03054
 108        3PX         0.00006  -0.00055   0.00009   0.00068   0.00015
 109        3PY         0.00029   0.00015  -0.00033  -0.00038  -0.00025
 110        3PZ        -0.00000  -0.00018   0.00031   0.00040   0.00035
 111 14  C  1S          0.00366  -0.00057  -0.00122   0.00051  -0.00142
 112        2S         -0.00750   0.00312   0.00420   0.00147   0.00255
 113        3S         -0.02046  -0.00697  -0.01163  -0.03225   0.00479
 114        4PX         0.01259  -0.00162  -0.00484   0.00125  -0.00226
 115        4PY        -0.01034   0.00324   0.00044  -0.00107   0.00031
 116        4PZ        -0.00593  -0.00378  -0.00046  -0.00132   0.00180
 117        5PX         0.02061   0.00518  -0.00100   0.01413   0.00096
 118        5PY         0.00188   0.00469  -0.00564  -0.00488  -0.00152
 119        5PZ        -0.00411   0.00092  -0.00504  -0.00560   0.00468
 120        6D 0        0.00003   0.00035   0.00002   0.00024  -0.00025
 121        6D+1       -0.00046  -0.00076   0.00003  -0.00030   0.00017
 122        6D-1        0.00008   0.00015   0.00021   0.00003   0.00024
 123        6D+2       -0.00045   0.00008  -0.00014  -0.00012  -0.00011
 124        6D-2        0.00068   0.00003  -0.00002   0.00030  -0.00009
 125 15  H  1S          0.00311   0.00625  -0.00045   0.00224  -0.00179
 126        2S          0.00173   0.00606  -0.00131   0.00303  -0.00224
 127        3PX         0.00012  -0.00048  -0.00019  -0.00014  -0.00013
 128        3PY        -0.00033  -0.00006   0.00013   0.00017  -0.00001
 129        3PZ        -0.00023  -0.00016  -0.00005  -0.00015   0.00012
 130 16  H  1S          0.00601  -0.00087   0.00250   0.00072   0.00159
 131        2S          0.01056   0.00548  -0.00315   0.00415  -0.00201
 132        3PX         0.00013  -0.00020  -0.00007  -0.00013   0.00002
 133        3PY        -0.00054   0.00017   0.00013  -0.00015   0.00017
 134        3PZ        -0.00013  -0.00025  -0.00015   0.00004  -0.00020
 135 17  H  1S         -0.00274  -0.00524  -0.00145  -0.00097   0.00035
 136        2S         -0.00236  -0.00943   0.00393  -0.00101  -0.00465
 137        3PX         0.00016   0.00001  -0.00024  -0.00007  -0.00003
 138        3PY        -0.00034  -0.00008   0.00014  -0.00001   0.00012
 139        3PZ         0.00012   0.00030   0.00017   0.00033  -0.00030
 140 18  O  1S          0.04280   0.00370  -0.03493  -0.00042   0.01170
 141        2S          0.08621   0.00551  -0.07498  -0.00063   0.02555
 142        3S          0.12342   0.03095  -0.16561  -0.01000   0.04446
 143        4PX        -0.00975   0.17775   0.11547   0.02151  -0.01645
 144        4PY        -0.28599   0.13773  -0.06557   0.01493  -0.03940
 145        4PZ        -0.08775  -0.28646   0.00310  -0.02806  -0.01983
 146        5PX         0.00723   0.15562   0.09621   0.01184  -0.00550
 147        5PY        -0.22119   0.11298  -0.06308   0.01261  -0.01717
 148        5PZ        -0.05994  -0.23156  -0.00419  -0.02154  -0.01239
 149        6D 0        0.00089  -0.00544   0.00035  -0.00167   0.00013
 150        6D+1       -0.00606  -0.00035   0.00297  -0.00038  -0.00096
 151        6D-1       -0.00473  -0.00317   0.00004  -0.00149  -0.00236
 152        6D+2        0.00134  -0.00108   0.00161  -0.00026   0.00103
 153        6D-2       -0.00281   0.00364   0.00241   0.00134  -0.00262
 154 19  O  1S         -0.00237   0.00201  -0.00076  -0.00038  -0.00098
 155        2S         -0.00656   0.00433  -0.00035  -0.00065  -0.00138
 156        3S          0.00408   0.00862  -0.00960  -0.00295  -0.00416
 157        4PX         0.04997  -0.02606  -0.00829  -0.00044   0.00102
 158        4PY        -0.02646   0.00182   0.00466  -0.00054   0.00043
 159        4PZ        -0.01524  -0.00207  -0.00070  -0.00158  -0.00118
 160        5PX         0.03614  -0.01858  -0.00514  -0.00174   0.00342
 161        5PY        -0.02425   0.00039   0.00606  -0.00138  -0.00001
 162        5PZ        -0.01303  -0.00400  -0.00385  -0.00069  -0.00349
 163        6D 0        0.00034   0.00006   0.00010  -0.00009  -0.00002
 164        6D+1       -0.00123   0.00064   0.00022  -0.00002  -0.00018
 165        6D-1        0.00057  -0.00031  -0.00031  -0.00001  -0.00004
 166        6D+2       -0.00022  -0.00031  -0.00008   0.00008   0.00001
 167        6D-2       -0.00022   0.00017   0.00002   0.00005  -0.00003
 168 20  S  1S          0.01312  -0.00064  -0.00015   0.00005   0.00418
 169        2S          0.08414  -0.00406  -0.00118   0.00039   0.02800
 170        3S         -0.09814   0.00225   0.00922  -0.00122  -0.06611
 171        4S         -0.19176   0.01490   0.00081  -0.00702   0.02497
 172        5PX         0.03875  -0.07843   0.16067   0.07634   0.13863
 173        5PY        -0.13937  -0.02640  -0.01338   0.04545   0.04580
 174        5PZ        -0.00626   0.12056   0.09324  -0.14598   0.08381
 175        6PX         0.06739  -0.13352   0.27440   0.12981   0.23902
 176        6PY        -0.24046  -0.04412  -0.02428   0.07767   0.08324
 177        6PZ        -0.01091   0.20463   0.15855  -0.24860   0.14567
 178        7PX         0.06537  -0.18789   0.41615   0.20920   0.38437
 179        7PY        -0.26629  -0.06772  -0.03678   0.12935   0.10388
 180        7PZ        -0.01307   0.29298   0.24243  -0.40460   0.22655
 181        8D 0       -0.01703  -0.00986  -0.00471  -0.00167   0.00095
 182        8D+1       -0.00104   0.00738  -0.00334  -0.00671   0.00722
 183        8D-1        0.00386  -0.02613  -0.00987   0.00871  -0.00111
 184        8D+2       -0.02463  -0.00956  -0.00014   0.00632   0.01069
 185        8D-2       -0.01347   0.01598  -0.01716  -0.00152   0.00354
 186 21  S  1S         -0.01241   0.00031  -0.00077  -0.00013  -0.00296
 187        2S         -0.07924   0.00194  -0.00543  -0.00089  -0.02000
 188        3S          0.08379   0.00026   0.02253   0.00181   0.05281
 189        4S          0.21550  -0.01425  -0.02356   0.00908  -0.04588
 190        5PX        -0.10542  -0.04803   0.11226  -0.08067  -0.09615
 191        5PY        -0.05882  -0.01540  -0.10065  -0.04965   0.17999
 192        5PZ        -0.05393   0.10210   0.03388   0.16779   0.00415
 193        6PX        -0.18345  -0.08107   0.19271  -0.13682  -0.16202
 194        6PY        -0.10055  -0.02617  -0.16903  -0.08438   0.31080
 195        6PZ        -0.09397   0.17388   0.05917   0.28518   0.00902
 196        7PX        -0.18314  -0.11844   0.27981  -0.21629  -0.28575
 197        7PY        -0.10668  -0.03603  -0.26692  -0.13179   0.47958
 198        7PZ        -0.08968   0.23661   0.08004   0.45970  -0.00296
 199        8D 0        0.00633   0.02102   0.00320   0.01313   0.00236
 200        8D+1       -0.01940   0.00895   0.00991   0.00927   0.00094
 201        8D-1       -0.00852   0.01491  -0.00281   0.00295   0.00366
 202        8D+2       -0.01466  -0.00398   0.01838  -0.00453  -0.00080
 203        8D-2       -0.02017  -0.01084   0.00330  -0.00532   0.00865
                          49        50        51        52        53
                           V         V         V         V         V
     Eigenvalues --     0.16966   0.17280   0.20011   0.21962   0.22320
   1 1   C  1S         -0.00227   0.00519  -0.00810  -0.00198   0.00491
   2        2S          0.01217  -0.00438   0.02736  -0.03201  -0.02597
   3        3S         -0.03406  -0.05477   0.01722   0.17572   0.04401
   4        4PX         0.22704  -0.06413   0.03164   0.02502  -0.02055
   5        4PY         0.12340  -0.02370   0.01376  -0.00478  -0.00336
   6        4PZ        -0.43852   0.09440  -0.03238  -0.01782   0.03778
   7        5PX         0.22033  -0.07549   0.02771   0.09243  -0.00002
   8        5PY         0.12560  -0.02930   0.03165  -0.01260  -0.00665
   9        5PZ        -0.48734   0.10942  -0.01366  -0.00455   0.03392
  10        6D 0       -0.00168  -0.00033   0.00089   0.00180   0.00042
  11        6D+1       -0.00127   0.00096   0.00157  -0.00102  -0.00021
  12        6D-1       -0.00100   0.00095  -0.00091  -0.00321   0.00050
  13        6D+2       -0.00168  -0.00098   0.00057   0.00258   0.00269
  14        6D-2       -0.00038   0.00023   0.00219  -0.00079   0.00085
  15 2   C  1S         -0.01272   0.00615   0.00974   0.05919   0.00040
  16        2S          0.01946  -0.01968  -0.02418  -0.09978  -0.01971
  17        3S          0.20260  -0.04340  -0.04096  -1.15038   0.14584
  18        4PX        -0.03604  -0.02583   0.03210  -0.01240  -0.02543
  19        4PY        -0.00475   0.04393   0.00791  -0.03401  -0.00082
  20        4PZ        -0.00724   0.00916  -0.03647  -0.08921   0.04326
  21        5PX        -0.11985  -0.07463   0.15947   0.17423  -0.12870
  22        5PY        -0.05512   0.13122   0.01667  -0.22911  -0.10267
  23        5PZ         0.06934   0.01325  -0.10556  -0.36266   0.03535
  24        6D 0       -0.01417   0.00240  -0.00061   0.00250  -0.00022
  25        6D+1        0.00075   0.00173  -0.00038  -0.00626   0.00059
  26        6D-1       -0.00257   0.00064   0.00210  -0.00312  -0.00376
  27        6D+2       -0.00134  -0.00093   0.00091   0.00052   0.00392
  28        6D-2        0.00501  -0.00327   0.00305   0.00358   0.00241
  29 3   H  1S         -0.05612   0.00289  -0.00540   0.02197   0.01358
  30        2S         -0.26345  -0.01279   0.30358   1.06977  -0.21555
  31        3PX        -0.00091   0.00048   0.00110  -0.00408  -0.00169
  32        3PY         0.00013   0.00139  -0.00044  -0.00169   0.00027
  33        3PZ        -0.00426   0.00050   0.00056   0.00369  -0.00077
  34 4   H  1S          0.03976   0.00493  -0.01271   0.00080  -0.00814
  35        2S          0.02870  -0.12397  -0.08741   0.56161   0.02943
  36        3PX         0.00077  -0.00250   0.00120   0.00217   0.00294
  37        3PY         0.00011  -0.00027   0.00123   0.00438   0.00101
  38        3PZ         0.00006   0.00177   0.00277  -0.00392  -0.00114
  39 5   C  1S         -0.01484  -0.02096   0.05274   0.03718  -0.01557
  40        2S          0.02642   0.00955  -0.04952  -0.01469   0.00052
  41        3S          0.29269   0.58596  -1.60692  -1.41487   0.74503
  42        4PX         0.00340   0.00514  -0.05274  -0.03268   0.07809
  43        4PY        -0.00184  -0.05078   0.06924   0.04204   0.07359
  44        4PZ         0.01860   0.04420  -0.07956  -0.07817   0.08936
  45        5PX         0.06980  -0.05411  -0.15742  -0.18697   0.40063
  46        5PY         0.03145  -0.12922   0.21677   0.12453   0.39133
  47        5PZ         0.06764   0.13139  -0.23101  -0.10860   0.25462
  48        6D 0       -0.00015   0.00704   0.00047   0.00079  -0.00887
  49        6D+1       -0.00184   0.00115   0.00418   0.00406  -0.00428
  50        6D-1       -0.00137  -0.00020   0.00134  -0.00875  -0.00814
  51        6D+2       -0.00036  -0.00188  -0.00340  -0.00578  -0.00400
  52        6D-2        0.00074   0.00129   0.00202   0.00840   0.00725
  53 6   H  1S         -0.00249   0.02940   0.00607  -0.00170  -0.05319
  54        2S         -0.23427  -0.21124   0.94200   0.84189  -1.15605
  55        3PX        -0.00121  -0.00528   0.00482   0.00055  -0.00198
  56        3PY        -0.00064  -0.00027   0.00242   0.00235   0.00114
  57        3PZ        -0.00087  -0.00022   0.00453   0.00262  -0.00454
  58 7   H  1S          0.00930   0.00166  -0.00027   0.03213   0.06822
  59        2S         -0.06774  -0.40571   0.84246   0.72178   0.51314
  60        3PX        -0.00232  -0.00125  -0.00079  -0.00420  -0.00326
  61        3PY         0.00226   0.00476  -0.00673  -0.00344  -0.00240
  62        3PZ         0.00141   0.00213  -0.00193   0.00267   0.00222
  63 8   C  1S         -0.01284  -0.01901  -0.00196   0.00933  -0.01369
  64        2S          0.02972   0.03632  -0.01429   0.00564   0.07580
  65        3S          0.11271   0.21722   0.47606  -0.48037  -0.68146
  66        4PX        -0.01999  -0.06372  -0.01557  -0.01196   0.11074
  67        4PY         0.00162  -0.04217  -0.02464   0.10408   0.20454
  68        4PZ        -0.01916  -0.05638  -0.02129   0.06800   0.07183
  69        5PX        -0.02801  -0.24763  -0.02461  -0.27676   0.25774
  70        5PY         0.03590  -0.03831  -0.24278   0.30007   0.29711
  71        5PZ        -0.09179  -0.12777   0.00115   0.32340   0.06961
  72        6D 0        0.00142  -0.00352  -0.00365  -0.00307   0.01101
  73        6D+1        0.00058   0.00031  -0.00271  -0.00508   0.00613
  74        6D-1        0.00032   0.00278   0.00909   0.00001  -0.00014
  75        6D+2       -0.00005  -0.00084   0.00223   0.01101   0.01538
  76        6D-2       -0.00064   0.00090   0.00258  -0.00809  -0.01036
  77 9   H  1S          0.01498   0.01347  -0.02945  -0.01726   0.06214
  78        2S         -0.18605  -0.43550  -0.24128   0.21114   0.70510
  79        3PX         0.00147  -0.00125  -0.00208  -0.00633  -0.00105
  80        3PY         0.00030  -0.00270  -0.00649   0.01048   0.01069
  81        3PZ        -0.00043   0.00684   0.00328  -0.00066  -0.00306
  82 10  C  1S         -0.01384  -0.05943  -0.08070   0.01648  -0.05228
  83        2S          0.01624   0.07193   0.10561  -0.02858   0.07964
  84        3S          0.37127   1.59256   2.08858  -0.68581   1.16534
  85        4PX         0.01036   0.05983   0.02049   0.05127   0.05802
  86        4PY         0.00138   0.01258   0.03802  -0.15776   0.02472
  87        4PZ        -0.02401  -0.13219  -0.04349   0.03187   0.11572
  88        5PX         0.01432   0.16090   0.11142   0.11484   0.17116
  89        5PY         0.01660   0.06622   0.11639  -0.57354   0.10545
  90        5PZ        -0.06951  -0.36303  -0.13810   0.14378   0.37676
  91        6D 0        0.00196   0.00628   0.00005  -0.00224   0.00214
  92        6D+1        0.00042  -0.00133  -0.00273   0.00411   0.00385
  93        6D-1       -0.00127  -0.00792  -0.00263   0.00528   0.01419
  94        6D+2       -0.00020  -0.00150  -0.00102   0.00539   0.00512
  95        6D-2       -0.00052   0.00189   0.00067  -0.00154  -0.00554
  96 11  H  1S          0.00270   0.00432   0.00466   0.00447   0.04071
  97        2S         -0.19821  -0.96671  -0.91519  -0.24787  -0.10332
  98        3PX        -0.00092  -0.00463  -0.00126  -0.00065  -0.00143
  99        3PY         0.00223   0.01110   0.00319   0.00108  -0.00659
 100        3PZ         0.00102   0.00489   0.00560   0.00233   0.00207
 101 12  H  1S         -0.00281  -0.00328   0.00497   0.00410   0.00649
 102        2S         -0.15669  -0.71476  -1.02069   0.68802  -1.06956
 103        3PX        -0.00061  -0.00251  -0.00459   0.00433  -0.00126
 104        3PY        -0.00123  -0.00340  -0.00335  -0.00159  -0.00461
 105        3PZ        -0.00052  -0.00543  -0.00301   0.00376   0.00827
 106 13  H  1S         -0.00199  -0.01064   0.00677   0.00789   0.00570
 107        2S         -0.14211  -0.50316  -0.77765   0.80167  -0.13630
 108        3PX         0.00114   0.00782   0.00679  -0.00671  -0.00340
 109        3PY        -0.00002  -0.00109  -0.00073  -0.00257  -0.00507
 110        3PZ        -0.00055  -0.00213   0.00270   0.00103   0.00322
 111 14  C  1S         -0.01800  -0.07989   0.04431  -0.06239  -0.00223
 112        2S          0.01760   0.08309  -0.02578   0.05633   0.00571
 113        3S          0.49103   2.13054  -1.62769   2.03701   0.17049
 114        4PX         0.02460   0.08648  -0.02161   0.02458   0.08465
 115        4PY        -0.01731  -0.03787   0.11825   0.03864   0.09243
 116        4PZ        -0.01226  -0.06512  -0.09151  -0.04479   0.09958
 117        5PX         0.06972   0.28878   0.01278  -0.00206   0.30397
 118        5PY        -0.06435  -0.09006   0.32944   0.32248   0.36887
 119        5PZ        -0.02918  -0.14959  -0.31717  -0.10229   0.36358
 120        6D 0       -0.00101  -0.00321   0.00043  -0.00095  -0.00229
 121        6D+1        0.00006  -0.00022   0.00208  -0.00111  -0.00109
 122        6D-1        0.00015   0.00122   0.00093   0.00259   0.00365
 123        6D+2        0.00104   0.00660   0.00255  -0.00938  -0.01527
 124        6D-2       -0.00183  -0.00530   0.00288   0.00440   0.00058
 125 15  H  1S         -0.00223   0.00567   0.01001   0.00448  -0.02460
 126        2S         -0.24229  -1.09044   0.01756  -1.07474  -0.10568
 127        3PX        -0.00031  -0.00250   0.00116  -0.00480  -0.00256
 128        3PY        -0.00166  -0.00854  -0.00008   0.00105   0.00408
 129        3PZ         0.00239   0.01032   0.00035   0.00559  -0.00029
 130 16  H  1S         -0.00153  -0.01104  -0.01521   0.05878   0.05926
 131        2S         -0.23189  -0.84896   0.92717  -0.30303   0.93346
 132        3PX         0.00210   0.00474  -0.00712   0.00166   0.00205
 133        3PY         0.00163   0.00887  -0.00422   0.00101  -0.00609
 134        3PZ        -0.00004  -0.00095  -0.00093   0.00109   0.00067
 135 17  H  1S          0.00296   0.00520   0.00434  -0.02832  -0.02828
 136        2S         -0.18562  -0.77652   0.99246  -0.65649  -0.94820
 137        3PX        -0.00031  -0.00115   0.00281  -0.00537  -0.00370
 138        3PY        -0.00035  -0.00163   0.00247   0.00174   0.00181
 139        3PZ        -0.00247  -0.00826   0.00610  -0.00281  -0.00147
 140 18  O  1S         -0.00359   0.01036  -0.00509  -0.01697  -0.00314
 141        2S         -0.00312   0.01850  -0.01484  -0.03727   0.00155
 142        3S         -0.04696   0.07616   0.00666  -0.10720  -0.10186
 143        4PX        -0.10948   0.03593  -0.00526  -0.01542   0.01487
 144        4PY        -0.07587   0.00580   0.01980   0.01235   0.01279
 145        4PZ         0.15943  -0.05125   0.02945   0.03394  -0.01051
 146        5PX        -0.13351   0.04724  -0.00777  -0.00515   0.00593
 147        5PY        -0.08174   0.00842   0.01147   0.00744  -0.00193
 148        5PZ         0.16263  -0.05648   0.03896   0.06506  -0.03517
 149        6D 0        0.01012  -0.00240  -0.00110   0.00018   0.00161
 150        6D+1        0.00973  -0.00167   0.00011  -0.00293  -0.00252
 151        6D-1       -0.00443   0.00191  -0.00089  -0.00250   0.00025
 152        6D+2       -0.00646   0.00101  -0.00066  -0.00055  -0.00220
 153        6D-2       -0.00165   0.00154  -0.00190  -0.00047   0.00024
 154 19  O  1S          0.00215   0.02985  -0.00826  -0.04711  -0.06255
 155        2S          0.00932   0.07091  -0.00808  -0.09591  -0.10866
 156        3S         -0.02432   0.12426  -0.12101  -0.33701  -0.56770
 157        4PX         0.01681   0.01416  -0.04408   0.03833   0.03911
 158        4PY         0.01141  -0.00309  -0.02139   0.02505   0.09151
 159        4PZ         0.01152   0.00630   0.00179   0.03262   0.13215
 160        5PX         0.01722   0.00916  -0.07252   0.04017   0.01461
 161        5PY         0.01514  -0.01998  -0.07748   0.03664   0.05558
 162        5PZ         0.02107   0.01287   0.04343   0.08318   0.19418
 163        6D 0       -0.00017   0.00132   0.00226  -0.00113  -0.00853
 164        6D+1       -0.00059  -0.00119  -0.00009  -0.00226  -0.00433
 165        6D-1       -0.00003   0.00057  -0.00287   0.00018  -0.00492
 166        6D+2       -0.00008   0.00027   0.00012   0.00448  -0.00497
 167        6D-2        0.00089   0.00217  -0.00085   0.00038   0.00276
 168 20  S  1S         -0.00032  -0.00103  -0.00039   0.00448   0.00047
 169        2S         -0.00224  -0.00705  -0.00282   0.03076   0.00312
 170        3S          0.00542   0.01673   0.01288  -0.07402  -0.00363
 171        4S          0.01338   0.00571  -0.02916  -0.01229  -0.01847
 172        5PX        -0.04902   0.01804   0.00326  -0.02462   0.00081
 173        5PY        -0.03098   0.00578   0.00616  -0.00051   0.00363
 174        5PZ         0.09297  -0.02607   0.00410   0.00037  -0.00287
 175        6PX        -0.08100   0.03130   0.00782  -0.04441   0.00181
 176        6PY        -0.05151   0.00959   0.01106   0.00021   0.00586
 177        6PZ         0.15377  -0.04470   0.00471   0.00154  -0.00327
 178        7PX        -0.19433   0.06783  -0.00187  -0.09754  -0.00305
 179        7PY        -0.13295   0.01771   0.02778   0.01117   0.02355
 180        7PZ         0.37517  -0.09700   0.02897  -0.00304  -0.01971
 181        8D 0        0.02043  -0.00418   0.00198   0.00339  -0.00233
 182        8D+1       -0.01593   0.00633  -0.00189  -0.00300   0.00066
 183        8D-1        0.05433  -0.01268   0.00584   0.00155  -0.00572
 184        8D+2        0.02399  -0.00619  -0.00206   0.00914  -0.00118
 185        8D-2       -0.02716   0.00586  -0.00519   0.00131   0.00231
 186 21  S  1S          0.00056  -0.00070  -0.00025   0.00142   0.00009
 187        2S          0.00378  -0.00476  -0.00174   0.00965   0.00074
 188        3S         -0.00795   0.01024   0.00335  -0.02025  -0.00492
 189        4S         -0.00588   0.00423   0.01354  -0.00923   0.00456
 190        5PX        -0.05365   0.01582  -0.00291  -0.00476   0.00284
 191        5PY        -0.02862   0.00652  -0.00031  -0.00384   0.00379
 192        5PZ         0.09414  -0.02063   0.00608   0.00037  -0.00268
 193        6PX        -0.08881   0.02669  -0.00485  -0.00705   0.00369
 194        6PY        -0.04729   0.01077  -0.00007  -0.00728   0.00660
 195        6PZ         0.15451  -0.03384   0.01005  -0.00042  -0.00390
 196        7PX        -0.21264   0.06323  -0.00494  -0.03560   0.01370
 197        7PY        -0.11706   0.02720   0.00008  -0.00843   0.01313
 198        7PZ         0.38036  -0.08326   0.02867   0.00481  -0.01583
 199        8D 0       -0.04982   0.01096  -0.00383  -0.00159   0.00492
 200        8D+1       -0.02343   0.00576  -0.00133  -0.00285  -0.00044
 201        8D-1       -0.02272   0.00555  -0.00226  -0.00203   0.00139
 202        8D+2        0.01233  -0.00349   0.00161  -0.00058  -0.00156
 203        8D-2        0.02583  -0.00594   0.00374   0.00137  -0.00390
     Density Matrix:
                           1         2         3         4         5
   1 1   C  1S          2.09186
   2        2S         -0.20873   0.64730
   3        3S         -0.12806   0.21299   0.11183
   4        4PX         0.02455  -0.05198  -0.07741   0.35847
   5        4PY        -0.01148   0.02257   0.04203   0.02130   0.43085
   6        4PZ         0.00949  -0.02055  -0.02615   0.03638   0.05000
   7        5PX         0.02506  -0.03520  -0.02264   0.13709   0.06244
   8        5PY        -0.03044   0.03800   0.01445   0.05506   0.16190
   9        5PZ         0.00445  -0.00874  -0.00625  -0.01461   0.02387
  10        6D 0        0.00308  -0.01131  -0.00212  -0.00464  -0.00095
  11        6D+1       -0.00345   0.01300   0.00026   0.00455  -0.00947
  12        6D-1       -0.00369   0.00903   0.00643  -0.00922   0.00352
  13        6D+2        0.00226  -0.00366  -0.00654   0.00865  -0.01516
  14        6D-2       -0.00095  -0.00169   0.00538  -0.01733  -0.00181
  15 2   C  1S         -0.00461   0.01040   0.01243   0.01656   0.00197
  16        2S          0.00678  -0.02111  -0.00650  -0.03611  -0.01386
  17        3S          0.01129   0.00425   0.00062  -0.02129   0.02937
  18        4PX        -0.01548   0.03988   0.01656   0.04554  -0.01285
  19        4PY         0.00494  -0.02094  -0.03221  -0.00156  -0.00716
  20        4PZ        -0.00921   0.01937   0.01356   0.05202   0.00252
  21        5PX        -0.00664   0.00624   0.00371   0.01658   0.02529
  22        5PY         0.00375  -0.00811  -0.01923   0.00471  -0.00714
  23        5PZ        -0.00608  -0.00183  -0.00103   0.02214   0.01568
  24        6D 0        0.00040  -0.00148   0.00018   0.00094   0.00149
  25        6D+1        0.00128  -0.00164  -0.00216   0.00004   0.00149
  26        6D-1        0.00187  -0.00477  -0.00016  -0.00651   0.00273
  27        6D+2       -0.00094   0.00420  -0.00032   0.00607  -0.00213
  28        6D-2        0.00243  -0.00639  -0.00186  -0.00721   0.00173
  29 3   H  1S          0.00047  -0.00387   0.00655   0.01467   0.00415
  30        2S          0.00213  -0.00265   0.00523  -0.00056  -0.00800
  31        3PX         0.00037   0.00056   0.00000   0.00199  -0.00061
  32        3PY         0.00032  -0.00144  -0.00092  -0.00117   0.00033
  33        3PZ        -0.00062   0.00123   0.00025   0.00159  -0.00004
  34 4   H  1S          0.00961  -0.03120  -0.02536  -0.03292  -0.00534
  35        2S          0.00640  -0.02241  -0.00115  -0.01742  -0.01752
  36        3PX        -0.00016   0.00109   0.00012   0.00117  -0.00015
  37        3PY        -0.00100   0.00176   0.00162   0.00206   0.00081
  38        3PZ         0.00053  -0.00082  -0.00051   0.00005  -0.00009
  39 5   C  1S          0.00388  -0.00953  -0.00057  -0.01000   0.00560
  40        2S         -0.00680   0.02604   0.00373   0.02757  -0.01211
  41        3S         -0.02114   0.02454  -0.00612   0.02129  -0.06781
  42        4PX         0.01496  -0.04319  -0.02023  -0.03744   0.01976
  43        4PY        -0.00409   0.00891   0.01067   0.00647   0.00013
  44        4PZ         0.00140  -0.00640  -0.00018  -0.00537   0.00342
  45        5PX         0.01465  -0.02559  -0.01137  -0.02832   0.01701
  46        5PY         0.00053   0.00408   0.00357   0.00486  -0.00274
  47        5PZ         0.00492   0.00734  -0.00091   0.02069  -0.00991
  48        6D 0        0.00040  -0.00047  -0.00004   0.00013   0.00065
  49        6D+1        0.00077  -0.00162  -0.00038  -0.00307   0.00073
  50        6D-1        0.00009  -0.00028   0.00008   0.00019   0.00041
  51        6D+2        0.00002   0.00019   0.00120  -0.00118   0.00049
  52        6D-2        0.00029  -0.00049   0.00014  -0.00061   0.00098
  53 6   H  1S          0.00477  -0.01819  -0.00556  -0.02153   0.01033
  54        2S          0.00279  -0.01450   0.00222  -0.02749   0.01665
  55        3PX         0.00030  -0.00084  -0.00010  -0.00123   0.00044
  56        3PY        -0.00006   0.00070   0.00058   0.00094   0.00005
  57        3PZ         0.00008   0.00024   0.00034   0.00003   0.00006
  58 7   H  1S         -0.00024   0.00659  -0.00778   0.01075  -0.00724
  59        2S          0.00701  -0.01183  -0.00436  -0.00680   0.02402
  60        3PX        -0.00029  -0.00042  -0.00094   0.00032  -0.00066
  61        3PY        -0.00047   0.00089   0.00019   0.00063  -0.00004
  62        3PZ        -0.00043  -0.00034  -0.00008  -0.00069  -0.00006
  63 8   C  1S          0.00008   0.00028  -0.00039  -0.00129   0.00031
  64        2S         -0.00020   0.00140  -0.00345   0.00429  -0.00101
  65        3S          0.00206   0.00728   0.00013   0.02753   0.00263
  66        4PX        -0.00011   0.00097   0.00105  -0.00263   0.00151
  67        4PY         0.00049  -0.00082  -0.00272  -0.00137   0.00001
  68        4PZ         0.00011   0.00056  -0.00114   0.00370   0.00271
  69        5PX        -0.00179  -0.00154   0.00390  -0.00622   0.00678
  70        5PY        -0.00563   0.00144  -0.00244  -0.00378  -0.00470
  71        5PZ         0.00121   0.00118   0.00431   0.00646   0.01028
  72        6D 0        0.00016  -0.00094  -0.00027  -0.00077   0.00037
  73        6D+1        0.00012  -0.00109  -0.00030  -0.00129   0.00027
  74        6D-1       -0.00023   0.00035   0.00066   0.00021  -0.00001
  75        6D+2       -0.00001   0.00045   0.00027   0.00021  -0.00024
  76        6D-2        0.00010   0.00004  -0.00070   0.00019  -0.00008
  77 9   H  1S          0.00085  -0.00437  -0.00144  -0.00416   0.00034
  78        2S          0.00422  -0.00970   0.00517  -0.01317   0.01815
  79        3PX         0.00003   0.00037  -0.00011   0.00024  -0.00048
  80        3PY         0.00028   0.00001  -0.00011   0.00024  -0.00003
  81        3PZ         0.00030  -0.00022   0.00005  -0.00002   0.00053
  82 10  C  1S          0.00000  -0.00017   0.00118   0.00003  -0.00016
  83        2S         -0.00021  -0.00035  -0.00085   0.00032  -0.00001
  84        3S          0.00088  -0.00045  -0.00157  -0.00743   0.00471
  85        4PX         0.00002  -0.00007   0.00126   0.00046   0.00055
  86        4PY        -0.00001   0.00076  -0.00097   0.00027  -0.00049
  87        4PZ         0.00015  -0.00013  -0.00267  -0.00033   0.00062
  88        5PX         0.00018  -0.00054  -0.00023   0.00288  -0.00013
  89        5PY        -0.00059  -0.00007   0.00057  -0.00268  -0.00040
  90        5PZ         0.00010   0.00013   0.00023   0.00149   0.00089
  91        6D 0       -0.00003   0.00005   0.00042   0.00014   0.00000
  92        6D+1       -0.00000   0.00003  -0.00047  -0.00007  -0.00007
  93        6D-1        0.00003  -0.00007   0.00044  -0.00002   0.00001
  94        6D+2       -0.00001  -0.00001   0.00027  -0.00006  -0.00002
  95        6D-2        0.00006  -0.00007   0.00005  -0.00002   0.00010
  96 11  H  1S         -0.00014  -0.00043   0.00398   0.00020   0.00035
  97        2S         -0.00054   0.00061   0.00458   0.00063  -0.00101
  98        3PX        -0.00003   0.00002   0.00003  -0.00003   0.00003
  99        3PY        -0.00007   0.00007   0.00010   0.00008   0.00001
 100        3PZ         0.00006  -0.00002  -0.00006  -0.00009   0.00001
 101 12  H  1S          0.00012   0.00022  -0.00126   0.00019   0.00044
 102        2S          0.00015   0.00013  -0.00067   0.00028  -0.00073
 103        3PX        -0.00004  -0.00004   0.00014  -0.00009   0.00002
 104        3PY         0.00004  -0.00000  -0.00005   0.00009  -0.00001
 105        3PZ        -0.00001  -0.00004  -0.00010  -0.00008  -0.00003
 106 13  H  1S         -0.00000   0.00013  -0.00209  -0.00031  -0.00101
 107        2S         -0.00014   0.00080  -0.00106   0.00964  -0.00285
 108        3PX         0.00003   0.00009  -0.00003   0.00033  -0.00003
 109        3PY         0.00004   0.00004  -0.00011  -0.00002  -0.00000
 110        3PZ         0.00003  -0.00002  -0.00008   0.00004  -0.00002
 111 14  C  1S          0.00053  -0.00155  -0.00246  -0.00124   0.00029
 112        2S         -0.00086   0.00249   0.00407   0.00154   0.00077
 113        3S         -0.00540   0.00929   0.00025   0.00622  -0.01265
 114        4PX         0.00101  -0.00288  -0.00255  -0.00081   0.00018
 115        4PY        -0.00078   0.00223   0.00218   0.00161  -0.00025
 116        4PZ        -0.00086   0.00239   0.00050   0.00173  -0.00116
 117        5PX         0.00325  -0.00463  -0.00105  -0.00179   0.00637
 118        5PY        -0.00008   0.00192   0.00024  -0.00005  -0.00239
 119        5PZ        -0.00046   0.00198  -0.00158   0.00304  -0.00459
 120        6D 0        0.00007  -0.00022   0.00001  -0.00018   0.00016
 121        6D+1       -0.00006   0.00023   0.00015   0.00018  -0.00016
 122        6D-1       -0.00000   0.00008  -0.00003   0.00004  -0.00005
 123        6D+2       -0.00010  -0.00010   0.00007  -0.00002   0.00005
 124        6D-2        0.00006  -0.00010  -0.00001  -0.00003   0.00011
 125 15  H  1S          0.00080  -0.00188   0.00043  -0.00040   0.00112
 126        2S          0.00094  -0.00247  -0.00192  -0.00026   0.00003
 127        3PX        -0.00014  -0.00009  -0.00012  -0.00012  -0.00005
 128        3PY         0.00001   0.00008   0.00006   0.00008   0.00011
 129        3PZ        -0.00009   0.00017   0.00006   0.00024  -0.00014
 130 16  H  1S          0.00013  -0.00001   0.00016  -0.00064   0.00052
 131        2S          0.00101  -0.00068  -0.00164  -0.00138  -0.00019
 132        3PX         0.00007  -0.00001  -0.00011   0.00005  -0.00018
 133        3PY        -0.00014   0.00015   0.00017   0.00011  -0.00011
 134        3PZ        -0.00001   0.00007   0.00006   0.00000   0.00006
 135 17  H  1S         -0.00063   0.00124   0.00100   0.00113  -0.00083
 136        2S         -0.00040  -0.00069   0.00081  -0.00301  -0.00021
 137        3PX         0.00002  -0.00001  -0.00012   0.00018  -0.00005
 138        3PY        -0.00007   0.00007   0.00005   0.00004  -0.00005
 139        3PZ         0.00012  -0.00022  -0.00001  -0.00032   0.00029
 140 18  O  1S         -0.01204   0.01075  -0.03743   0.05389  -0.02824
 141        2S         -0.01540   0.01584  -0.05185   0.11136  -0.05822
 142        3S         -0.00257  -0.06465  -0.06139   0.03855   0.00120
 143        4PX         0.07947  -0.16690   0.00960  -0.19702   0.15421
 144        4PY        -0.05693   0.12247  -0.02428   0.18735  -0.06683
 145        4PZ         0.02413  -0.04865  -0.01098  -0.11533   0.01733
 146        5PX         0.04619  -0.07159   0.01411  -0.10690   0.08089
 147        5PY        -0.03884   0.06468  -0.02064   0.10453  -0.06466
 148        5PZ         0.01061  -0.01436  -0.00577  -0.05444   0.00176
 149        6D 0        0.00411  -0.00564  -0.00028  -0.00430   0.00168
 150        6D+1       -0.00276   0.00215   0.00069   0.00080  -0.00284
 151        6D-1        0.00179  -0.00265  -0.00138  -0.00435  -0.00111
 152        6D+2       -0.00185   0.00144   0.00148  -0.00596  -0.00686
 153        6D-2        0.00735  -0.01068  -0.00139  -0.01017   0.00105
 154 19  O  1S         -0.00022   0.00074   0.00022   0.00060  -0.00003
 155        2S         -0.00088   0.00103   0.00392   0.00130  -0.00032
 156        3S          0.00231  -0.00035   0.00356  -0.00059  -0.00125
 157        4PX        -0.00007   0.00082  -0.00822  -0.00020  -0.00277
 158        4PY        -0.00035  -0.00012   0.00838   0.00010   0.00014
 159        4PZ        -0.00046   0.00046   0.00879   0.00067  -0.00058
 160        5PX        -0.00039   0.00061  -0.00652  -0.00035  -0.00381
 161        5PY        -0.00134   0.00050   0.00632   0.00057   0.00006
[...]
 ,0.00019862,0.02235817,0.98772853,0.00286706,-0.00043496,0.00038207,0.
 00084309,0.00101959,0.00009910,-0.00027857,-0.00036489,0.00024603,0.00
 103193,-0.00046225,-0.00047163,-0.00078228,0.00195854,-0.00079034,0.00
 013971,0.00056384,0.00018314,0.00027012,-0.00041635,0.00024240,-0.0009
 6226,0.01413725,-0.02105356,0.00025351,-0.00537739,0.00239537,-0.10113
 209,0.07770887,0.53537276,-0.00010769,0.00023790,0.00000255,0.00000797
 ,0.00005435,-0.00000140,-0.00000080,-0.00000791,0.00000031,-0.00001352
 ,0.00004284,-0.00007075,-0.00017905,-0.00035185,-0.00001391,0.00004869
 ,0.00002665,-0.00006818,-0.00000580,0.00002705,0.00004464,0.00150394,0
 .00121316,-0.00007092,-0.00033098,-0.00022604,0.00031270,-0.12490605,0
 .19152015,0.15415666,0.11896106,-0.00019177,-0.00006830,-0.00002088,-0
 .00010501,-0.00002928,-0.00002565,0.00003621,0.00000598,-0.00001146,-0
 .00001307,0.00000173,0.00002585,-0.00010990,-0.00003176,0.00000287,-0.
 00002222,-0.00013086,-0.00000612,0.00001704,-0.00000794,-0.00007443,-0
 .00128957,0.00029713,0.00269022,-0.00023360,0.00019426,0.00036621,0.19
 006206,-0.32783544,-0.25860552,-0.19848840,0.33049467,-0.00039666,-0.0
 0001739,-0.00005506,-0.00016769,-0.00013591,0.00010932,0.00000205,0.00
 006323,-0.00003282,-0.00038999,0.00006131,0.00012497,0.00005792,0.0000
 9839,0.00014237,0.00011856,-0.00005215,0.00033088,0.00004538,0.0001896
 4,-0.00010097,0.00057407,-0.00563753,0.00272177,0.00039187,0.00099245,
 -0.00026388,0.15502081,-0.25405019,-0.20556295,-0.15688170,0.26588938,
 0.23866855,0.00006070,0.00002043,-0.00003580,-0.00011306,-0.00000678,-
 0.00004571,0.00002067,-0.00001980,0.00001905,0.00001226,-0.00004703,-0
 .00001508,-0.00001527,0.00064579,-0.00011079,-0.00000586,-0.00002889,0
 .00001126,0.00003340,-0.00001919,-0.00021551,-0.00007946,0.00114718,-0
 .00265882,-0.00006270,0.00020329,-0.00004427,-0.09141392,-0.20928644,0
 .05500895,0.00737702,0.01857448,-0.00516500,0.08651256,0.00032253,-0.0
 0002241,0.00003486,0.00017313,0.00007420,-0.00006101,-0.00004479,-0.00
 002112,0.00002070,0.00005027,-0.00003268,-0.00003362,0.00028828,-0.000
 42739,-0.00000875,-0.00002666,0.00003308,0.00003566,-0.00002683,0.0000
 3629,0.00020028,-0.00054097,0.00235542,0.00063603,0.00019111,0.0002207
 5,-0.00022942,-0.20637813,-0.53058756,0.13484120,-0.01290567,-0.018070
 15,0.00925739,0.21283563,0.54468302,-0.00042782,0.00010103,-0.00007006
 ,-0.00037559,-0.00003236,0.00004082,0.00007906,0.00002432,-0.00002741,
 -0.00002548,0.00003331,0.00005117,-0.00018302,0.00226272,-0.00028762,-
 0.00008323,-0.00015062,0.00012905,0.00007065,-0.00004297,-0.00076352,0
 .00187541,-0.00301683,-0.00487014,0.00017981,0.00040486,-0.00019195,0.
 05471420,0.13038013,-0.03712122,-0.01149203,-0.02197055,0.00790901,-0.
 05182928,-0.14803154,0.05326011,-0.00017227,-0.00010868,-0.00007568,-0
 .00017483,-0.00013885,-0.00007199,0.00004021,0.00003061,-0.00001973,-0
 .00008765,0.00009898,0.00002539,0.00018633,0.00028740,0.00010359,-0.00
 000581,-0.00006578,0.00015136,0.00001102,0.00001677,-0.00008436,0.0004
 5371,-0.00157274,0.00087506,-0.00025942,0.00081074,-0.00049597,-0.6405
 2715,-0.01357353,-0.05138203,-0.01070485,-0.00485993,-0.00321413,-0.00
 842152,0.00451564,-0.00084079,0.65835568,-0.00009833,0.00001809,0.0000
 3315,0.00003666,0.00006569,0.00003788,-0.00000586,0.00001144,-0.000015
 83,0.00003159,0.00007249,0.00000383,-0.00015729,0.00002374,0.00001941,
 -0.00002974,-0.00001392,-0.00010036,-0.00001043,-0.00000016,-0.0000380
 3,0.00194826,0.00224687,-0.00026534,-0.00038525,-0.00031243,-0.0002605
 2,-0.01438309,-0.01435030,-0.00355519,0.03110769,0.00287625,0.00342141
 ,-0.03882429,0.00302396,-0.00371811,0.01197377,0.00408517,-0.00048396,
 0.00064249,-0.00008391,-0.00042648,0.00019979,-0.00001335,0.00008923,-
 0.00003813,0.00002059,-0.00012265,-0.00004793,-0.00019035,-0.00001294,
 -0.00014313,-0.00005527,0.00006633,-0.00002420,0.00018191,0.00010151,0
 .00002037,-0.00003657,-0.00225897,-0.00554099,0.00165078,0.00052841,0.
 00070902,0.00058709,-0.05022626,-0.00239660,-0.00314515,0.02453667,0.0
 0250536,0.00444661,0.00906393,-0.00115908,0.00173818,0.06721489,-0.002
 02587,0.02453311,0.00062206,0.00005521,0.00001843,0.00107068,-0.000293
 80,0.00071576,-0.00029061,0.00000916,-0.00004521,0.00024755,-0.0001847
 2,-0.00019297,-0.01083999,0.00270599,0.00735007,0.00105477,0.00007151,
 -0.00152093,0.00001814,0.00033979,-0.00053047,-0.23050079,0.04444039,0
 .02937837,-0.02343652,0.01507929,0.01084728,-0.00060013,-0.00019926,-0
 .00038641,-0.00002866,0.00046925,-0.00020503,0.00022258,-0.00019465,0.
 00004197,0.00000384,-0.00003496,0.00032066,0.59658860,0.00073164,-0.00
 011680,0.00005091,-0.00021832,0.00049851,0.00077722,-0.00037041,-0.000
 01071,0.00015929,-0.00021525,-0.00016156,0.00011308,0.00117007,0.00160
 652,-0.00438498,0.00088696,-0.00017674,0.00074126,0.00000525,0.0002377
 6,0.00051540,0.04340510,-0.08907235,-0.01454349,-0.01335805,0.00982038
 ,0.00351496,0.00179037,-0.00044907,-0.00615413,-0.00097226,0.00108368,
 0.00069242,-0.00006795,0.00007263,0.00017177,0.00021457,-0.00038562,0.
 00110539,0.16535497,0.89347865,-0.00095876,-0.00004517,-0.00023347,-0.
 00151145,-0.00163914,-0.00832615,0.00238455,-0.00030795,-0.00028647,-0
 .00032234,0.00012555,-0.00000797,0.03918846,-0.01419526,-0.01206726,0.
 00017336,0.00000212,0.00167574,0.00046183,-0.00104500,0.00214261,0.029
 46959,-0.01616815,-0.09651753,-0.01615017,0.00848888,0.00570857,-0.000
 87446,0.00063999,0.00273857,-0.00035926,-0.00003542,-0.00013891,-0.000
 04511,0.00014822,0.00003483,0.00007487,-0.00034574,-0.00052102,0.08902
 808,-0.03684054,0.95493024,0.00047979,0.00001744,0.00008337,0.00066967
 ,0.00060391,0.00234750,-0.00076517,0.00005660,0.00009631,0.00006606,-0
 .00006393,-0.00002545,-0.00621726,0.00312306,0.00000845,-0.00009120,0.
 00026172,0.00015282,-0.00000894,-0.00008339,-0.00059847,-0.00673085,-0
 .00427019,0.03855661,0.00162239,-0.00090239,-0.00058668,-0.00029439,0.
 00062886,0.00014026,-0.00031799,0.00047090,-0.00064663,0.00013235,-0.0
 0023375,-0.00028491,-0.00001643,-0.00005067,-0.00001141,-0.02048313,-0
 .01477642,0.11134865,0.02524843,-0.00009145,0.00009047,-0.00001963,-0.
 00005622,0.00030188,-0.00101250,0.00028599,-0.00004100,-0.00006107,-0.
 00007094,0.00002452,0.00002708,0.00347904,-0.00080644,0.00003813,-0.00
 019077,0.00014803,0.00048065,-0.00008413,0.00028210,-0.00019422,0.0039
 8670,-0.00106934,-0.01683264,-0.00069742,0.00027632,0.00086763,0.00078
 290,-0.00059085,0.00019340,0.00048615,-0.00017874,0.00044551,-0.000008
 32,0.00003488,0.00005076,-0.00009451,0.00008558,0.00001602,-0.01605250
 ,-0.01056930,0.06737336,0.01157916,0.00736175,-0.00047721,-0.00001232,
 -0.00007242,-0.00082061,-0.00006607,-0.00046623,0.00026103,-0.00003589
 ,-0.00000158,0.00006899,0.00002491,-0.00001782,0.00228890,-0.00027477,
 0.00103564,-0.00019120,0.00015893,0.00025081,-0.00028682,-0.00010390,0
 .00030103,-0.00076169,0.00083142,-0.00467470,0.00023042,-0.00028201,0.
 00079888,-0.00052857,0.00022216,0.00018173,0.00006688,0.00014263,0.000
 21533,0.00013796,-0.00013569,0.00005946,0.00000372,0.00005540,0.000193
 78,0.10844660,0.06906242,-0.62361376,-0.11725495,-0.07073992,0.6435486
 6,-0.00033991,0.00011976,-0.00003860,-0.00019067,-0.00016808,-0.000272
 13,0.00014397,-0.00001317,-0.00002533,0.00013580,0.00003099,-0.0000702
 9,0.00121450,-0.00038789,-0.00048026,0.00001373,-0.00008053,-0.0000883
 3,-0.00005295,0.00002950,0.00062537,0.00315991,0.03240995,-0.00932341,
 0.00112686,-0.00113736,-0.00088344,0.00003623,0.00004141,0.00210445,0.
 00020606,-0.00044158,-0.00028837,-0.00007675,0.00006409,-0.00018398,-0
 .00005374,0.00006410,-0.00035577,-0.00264059,0.00271834,-0.00228983,-0
 .00194222,-0.00801778,0.00057740,0.00336555,0.00008975,-0.00008741,0.0
 0001762,0.00016166,0.00023894,-0.00009160,-0.00001009,0.00001645,-0.00
 000630,-0.00017604,0.00001617,0.00008114,-0.00089732,0.00034759,0.0009
 0318,0.00000647,0.00011319,0.00016474,0.00007080,0.00054001,-0.0005892
 5,-0.00464338,-0.01070931,0.00354163,-0.00000261,0.00078761,0.00003984
 ,0.00002801,0.00016092,-0.00138474,-0.00019741,0.00020534,0.00012177,0
 .00001953,-0.00006399,0.00005116,0.00007524,-0.00001374,0.00033131,0.0
 0072181,-0.60790458,0.14877162,0.00081177,0.00117120,-0.00472221,-0.00
 508809,0.62886511,0.00023764,0.00005703,0.00003816,-0.00000016,0.00031
 655,0.00003029,-0.00005602,-0.00003043,0.00002084,-0.00007442,-0.00004
 427,0.00007623,-0.00046032,-0.00025956,-0.00010495,0.00015783,-0.00006
 866,0.00011232,0.00058777,-0.00009776,-0.00047749,-0.00091268,-0.00928
 683,-0.00035787,-0.00032205,0.00029753,0.00044304,0.00031243,-0.000034
 38,0.00001643,0.00038576,-0.00014930,0.00028422,0.00005636,-0.00005125
 ,0.00001182,-0.00000425,-0.00004196,0.00029112,-0.00217036,0.14884133,
 -0.04153735,-0.00251068,0.03958151,-0.00426859,0.00052148,-0.15435306,
 0.03913361,0.00017482,0.00002838,-0.00001593,-0.00011151,0.00006137,-0
 .00033063,0.00002792,-0.00005235,0.00003430,0.00007322,-0.00003754,-0.
 00005194,0.00262630,-0.00086296,-0.00205450,-0.00006223,0.00043701,0.0
 0115005,-0.00010812,-0.00009263,0.00025190,-0.02818089,-0.01834184,-0.
 01863705,-0.00500142,0.00421312,0.00198459,0.00019543,0.00010994,-0.00
 014417,-0.00006184,-0.00011758,0.00009574,-0.00000467,0.00001865,-0.00
 001285,0.00012142,-0.00017150,0.00025820,-0.31337378,-0.22191726,-0.24
 173202,0.00660689,0.00652412,0.00808152,0.00205647,0.00540659,0.003130
 08,0.33106037,-0.00001961,0.00000139,-0.00001453,0.00008556,-0.0000636
 7,0.00031646,-0.00007261,0.00002563,-0.00000035,0.00007768,0.00002274,
 -0.00004416,-0.00008115,0.00037635,0.00061558,-0.00021635,0.00008241,-
 0.00025883,-0.00029702,-0.00015336,0.00006689,0.01538621,0.00637536,0.
 00904007,0.00306525,-0.00081907,-0.00100082,0.00014468,-0.00029009,0.0
 0083607,0.00005446,-0.00003408,-0.00016915,0.00001671,0.00002062,-0.00
 003306,-0.00011738,-0.00005849,-0.00016847,-0.22137623,-0.15484444,-0.
 16480797,0.00567892,0.00200974,0.00540839,-0.02751367,-0.01230012,-0.0
 2297172,0.22633871,0.15699232,0.00012492,-0.00001724,0.00001044,0.0001
 1259,0.00016585,-0.00001105,-0.00005569,0.00000885,-0.00001004,-0.0000
 7671,-0.00000325,-0.00000118,0.00097513,0.00096462,0.00098114,0.000082
 01,-0.00044295,0.00022692,0.00000254,0.00027778,-0.00003057,0.00979101
 ,0.00578217,0.00541877,0.00194750,-0.00140048,0.00038079,-0.00017076,-
 0.00002531,-0.00069350,-0.00015536,0.00002297,0.00015367,-0.00012897,0
 .00009779,0.00004295,0.00001831,0.00012506,0.00002322,-0.23989364,-0.1
 6626928,-0.18797956,-0.02888465,-0.02011215,-0.01407745,0.01013748,0.0
 0694416,0.00553990,0.24672980,0.17330185,0.19042426,-0.29156890,0.0465
 6748,-0.03439863,-0.08768305,-0.02908981,-0.01627979,-0.00830292,-0.01
 071729,-0.00655848,-0.00220608,-0.00275067,0.00270040,-0.03804328,-0.0
 4305475,-0.01223988,-0.01004361,0.00176676,0.00406333,0.00614000,-0.00
 155641,-0.00065055,0.00277473,0.00142871,-0.00457111,0.00039840,-0.000
 33966,-0.00088551,-0.00110710,0.00058793,-0.00289856,0.00008739,0.0001
 9395,0.00043830,-0.00002093,-0.00033435,0.00046359,0.00024495,0.000057
 17,0.00054863,-0.00040819,-0.00034232,0.00067042,-0.00033507,0.0001416
 7,0.00055016,0.00026194,-0.00005137,-0.00023226,0.00008486,0.00002727,
 -0.00016363,0.50737282,0.01489639,-0.10224643,-0.00269034,-0.00792562,
 -0.15603629,-0.01630355,-0.01258390,-0.01618119,-0.00542520,-0.0257867
 6,-0.03229151,-0.01460607,-0.00508802,0.00131103,0.00167325,0.00210763
 ,0.00007320,-0.00015979,0.00082012,0.00117630,0.00032781,0.00018958,-0
 .00078999,-0.00065788,0.00007252,0.00019920,0.00063980,-0.00001127,0.0
 0018593,-0.00025090,-0.00005608,0.00002439,0.00012483,0.00003459,-0.00
 000158,-0.00003547,0.00004847,-0.00009975,-0.00009784,0.00015331,0.000
 19120,0.00025861,-0.00005981,-0.00001304,0.00004115,-0.00013619,0.0000
 5556,-0.00001993,0.00009175,0.00000517,-0.00000985,0.04009308,0.313305
 88,-0.04174862,0.00171124,-0.04519579,-0.00915452,-0.01992513,-0.07712
 108,-0.02545664,-0.03225330,0.00188912,0.01063629,0.00939644,0.0087132
 6,-0.00106325,0.00246120,0.00274012,0.00032017,-0.00022702,0.00078571,
 0.00045009,-0.00057296,-0.00040408,-0.00033436,0.00011217,-0.00185218,
 0.00013494,0.00055390,0.00124774,-0.00024362,-0.00007017,0.00002314,-0
 .00003214,-0.00001376,0.00001540,0.00006198,0.00001228,0.00002649,0.00
 007657,-0.00003321,0.00001610,0.00042437,0.00031347,0.00102032,-0.0002
 5728,0.00004343,0.00009151,-0.00003837,-0.00003706,-0.00008872,0.00032
 638,-0.00005509,-0.00013282,0.07963175,0.03745152,0.08461598,0.0010250
 0,0.00077619,0.00001014,-0.00143705,0.00049699,0.00030841,0.00050047,-
 0.00064653,0.00041024,0.00088666,-0.00113717,-0.00017537,0.00147561,-0
 .00192257,-0.00003322,-0.00000491,0.00102953,0.00040356,0.00083467,0.0
 0026360,-0.00023690,-0.06955327,0.00113793,-0.01229760,0.00610113,-0.0
 2281047,0.00912112,-0.07703143,0.00084453,-0.05751656,0.00847920,-0.00
 407198,0.01041554,0.00589185,0.00240258,0.00811712,0.00080268,0.008811
 97,-0.04867034,0.00307720,0.03625203,-0.00920396,0.00263309,-0.0019470
 2,-0.00065645,-0.00661151,0.00373537,0.00148508,0.00388875,-0.00116847
 ,-0.00028890,-0.00080013,-0.00069650,0.00047374,0.12050097,0.00273312,
 -0.00117891,0.00039796,0.00262378,-0.00077193,-0.00112842,-0.00036378,
 0.00029988,-0.00015817,-0.00077270,0.00015850,0.00008689,-0.00050008,-
 0.01709158,0.01384278,0.00005963,0.00097857,-0.00174446,-0.00080314,0.
 00100733,0.00166063,-0.01290741,-0.14069048,-0.02620611,0.00429020,-0.
 03335702,0.01321396,0.01209026,-0.10288447,0.04548308,-0.01126460,0.01
 108926,-0.02134879,0.01477347,-0.00133140,0.04365254,0.00231209,0.0029
 0745,0.00683814,0.00905634,-0.04340997,0.00930001,-0.00271139,0.001542
 49,0.00035300,0.00766316,-0.00155558,-0.00159768,-0.00168537,0.0026595
 6,0.00061146,-0.00302980,0.00079771,0.00039225,-0.02042392,0.31942181,
 -0.00375566,0.00036217,-0.00058891,-0.00226397,-0.00018583,0.00182042,
 -0.00023139,0.00032352,-0.00020120,-0.00038792,0.00086776,-0.00040670,
 -0.00089448,0.04763583,-0.02132421,-0.00005332,0.00057057,0.00412626,0
 .00241086,0.00024173,-0.00890979,-0.00888763,0.01603486,-0.08769483,0.
 00289199,-0.01016256,0.00471074,-0.06410546,0.00420319,-0.27230472,-0.
 01038829,0.00926899,-0.04904880,-0.00416261,0.00443884,-0.02006546,-0.
 01228487,0.00688003,-0.03012704,-0.00167736,0.00219242,0.00261300,-0.0
 0153457,-0.00017326,0.00043475,0.00035330,0.00026276,0.00089865,0.0008
 5870,-0.00008915,-0.00023969,0.00415130,0.00060437,0.00024040,0.097965
 80,-0.08320596,0.47521359,-0.08390111,0.07026096,-0.00484685,-0.003920
 85,0.00668393,0.00145812,0.00005430,-0.00112037,-0.00017129,-0.0039114
 4,0.00106469,-0.00152537,-0.00031596,0.00247713,-0.00075984,-0.0000553
 5,-0.00020153,0.00004973,-0.00076302,0.00015715,0.00043273,0.00039894,
 0.00043724,-0.00093974,0.00012173,-0.00006244,-0.00026288,-0.00013309,
 0.00012519,-0.00071426,0.00000113,0.00005717,0.00009796,-0.00003770,-0
 .00009412,0.00011281,0.00012980,0.00009550,-0.00015973,-0.00015568,-0.
 00017565,0.00035965,-0.00014250,0.00002537,0.00014048,0.00010105,-0.00
 004663,-0.00007185,-0.00000705,-0.00000082,-0.00005930,-0.03266390,0.0
 3078928,-0.00687151,-0.00034325,-0.00066811,0.00112603,0.11260384,0.07
 986304,-0.19923604,0.01017871,-0.00645693,-0.00472030,-0.00116996,0.00
 130429,0.00086733,0.00095186,0.00166845,0.00140463,-0.00014733,0.00017
 524,0.00150248,-0.00000194,0.00056118,0.00000489,-0.00015336,-0.000790
 78,0.00011914,-0.00005412,-0.00005325,-0.00114181,0.00052844,-0.000111
 64,-0.00005617,0.00033396,0.00057411,-0.00008898,0.00058043,-0.0001711
 3,0.00003091,-0.00003879,0.00003077,0.00005137,-0.00011909,0.00004079,
 -0.00013348,-0.00046401,0.00002535,0.00016219,-0.00001481,0.00003568,-
 0.00004725,-0.00004083,-0.00012652,0.00007364,-0.00000434,0.00003977,-
 0.00000937,0.00001267,0.03029544,-0.00727475,0.00356049,-0.00034514,0.
 00112141,-0.00060877,-0.10568632,0.26394252,-0.00614903,0.00801095,-0.
 04393626,-0.00010238,0.00134146,-0.00043637,0.00084359,-0.00094900,0.0
 0072030,-0.00078392,-0.00015415,-0.00148802,-0.00022942,0.00084634,0.0
 0032846,0.00007062,-0.00003446,-0.00002891,-0.00014912,-0.00002514,0.0
 0009190,-0.00044238,0.00048777,-0.00052116,0.00002031,0.00011860,-0.00
 005997,-0.00061346,0.00010897,-0.00056488,0.00007775,-0.00001288,0.000
 04625,0.00007432,-0.00001091,0.00006589,-0.00013498,-0.00012484,0.0005
 3405,0.00003913,-0.00006299,0.00023379,-0.00008574,0.00003508,0.000048
 50,0.00003965,-0.00004313,-0.00001861,0.00004616,0.00001042,-0.0000203
 7,-0.00602718,0.00377937,0.01438203,0.00036282,-0.00045622,0.00054036,
 0.01303581,-0.01355247,0.01402363,-0.08369397,-0.07574343,-0.00505650,
 0.00103537,0.00244324,0.00025888,-0.00125348,-0.00098725,-0.00060044,-
 0.00084655,-0.00070881,-0.00023214,-0.00050495,-0.00137676,-0.00041396
 ,-0.00070503,0.00008660,0.00023185,0.00025922,0.00016018,0.00012415,0.
 00035220,0.00044341,-0.00077753,0.00014914,0.00002376,-0.00023848,-0.0
 0011181,0.00012288,-0.00061851,-0.00001522,0.00006359,0.00009698,-0.00
 001156,-0.00008199,0.00008434,0.00007402,0.00002470,0.00000005,-0.0001
 4734,-0.00011545,0.00028789,-0.00011352,0.00001995,0.00012343,0.000086
 25,-0.00001407,-0.00005936,-0.00000495,-0.00001213,-0.00004367,-0.0441
 8193,-0.03695257,-0.00733597,-0.00031572,-0.00047174,0.00086954,0.0129
 4009,-0.00087241,0.00010746,0.11700974,-0.08252008,-0.18852706,-0.0111
 9765,0.00297185,0.00366641,0.00054193,-0.00064796,-0.00071788,-0.00008
 637,0.00120149,-0.00015496,-0.00032438,-0.00032718,-0.00029479,-0.0001
 7653,-0.00030906,-0.00001051,0.00011344,-0.00010969,0.00019684,0.00003
 348,0.00031951,-0.00037783,-0.00049241,0.00013830,-0.00013679,-0.00020
 515,0.00022523,0.00007583,-0.00031595,-0.00012907,0.00008294,0.0000921
 8,0.00000682,-0.00004794,0.00001801,0.00010633,-0.00004885,-0.00026163
 ,-0.00014626,-0.00005037,0.00033679,-0.00011608,-0.00001301,0.00011322
 ,-0.00003042,0.00004298,-0.00008284,0.00000961,0.00000138,-0.00003472,
 -0.02989304,-0.00239104,-0.00282070,-0.00058096,0.00028736,0.00053849,
 -0.00411764,-0.05657237,0.00068725,0.11394829,0.24498966,-0.00363339,-
 0.00883192,-0.04549576,-0.00046964,-0.00016858,0.00425220,0.00056173,0
 .00087147,-0.00031687,-0.00049125,-0.00024693,-0.00006672,-0.00016900,
 -0.00056088,-0.00014361,-0.00019947,0.00005598,0.00003816,0.00010536,0
 .00001773,-0.00004538,-0.00012786,-0.00014306,-0.00036435,0.00001744,-
 0.00011791,-0.00002852,-0.00005656,0.00003884,-0.00017278,-0.00004997,
 0.00001148,0.00003501,0.00002313,-0.00000197,0.00002760,0.00006501,-0.
 00005116,-0.00004390,0.00001166,0.00000406,0.00013177,-0.00005256,-0.0
 0000716,0.00003247,-0.00002102,-0.00000357,-0.00004302,0.00003167,0.00
 001760,-0.00000583,-0.00831230,-0.00464390,0.00898735,0.00000574,0.000
 01313,0.00031317,-0.00043070,0.00022324,0.01605938,0.01319199,0.013523
 54,0.01684963\\0.03260442,0.00840989,0.00083627,-0.03241524,0.10857226
 ,0.05301844,0.01186571,-0.01820277,-0.09920109,0.03290027,-0.07795953,
 0.05337705,0.08681800,-0.01543777,0.07070489,-0.06337298,-0.06858381,-
 0.04056124,-0.01915394,0.09053175,-0.03752756,-0.05753208,-0.08201511,
 -0.04248897,0.06733231,0.04013346,0.04243734,-0.01898685,0.02603951,-0
 .10179030,-0.04722095,0.07753942,0.07365420,-0.03975981,-0.10027332,0.
 02600008,0.11351612,0.00157861,0.01680678,0.08717571,-0.03383394,-0.01
 798013,-0.02305622,-0.00998980,0.10986278,-0.00245377,0.10725737,-0.02
 481053,-0.07880521,-0.05396282,-0.05834251,-0.02061288,-0.01528063,-0.
 00661742,-0.00536063,0.02256369,-0.01738866,-0.01218632,-0.01282621,-0
 .00071951,-0.01129565,0.00573977,0.00073007\\\@
 The archive entry for this job was punched.

 Writing a WFNX file to "XECJAT_Complex_0_Ligand_1_SS_Cu_oriented.wfx"


 EDUCATION WITHOUT COMMON SENSE IS A LOAD OF BOOKS ON THE BACK OF AN ASS.
 Job cpu time:       0 days  0 hours 11 minutes 53.2 seconds.
 Elapsed time:       0 days  0 hours 11 minutes 56.8 seconds.
 File lengths (MBytes):  RWF=    380 Int=      0 D2E=      0 Chk=      8 Scr=      8
 Normal termination of Gaussian 16 at Mon Mar  6 10:33:43 2023.
