 Entering Gaussian System, Link 0=g16
 Initial command:
 /ssoft/spack/external/gaussian/g16-C.01/avx2/g16/l1.exe "/scratch/lcmd/2387862/Gau-1722585.inp" -scrdir="/scratch/lcmd/2387862/"
 Entering Link 1 = /ssoft/spack/external/gaussian/g16-C.01/avx2/g16/l1.exe PID=   1722592.
  
 Copyright (c) 1988-2019, Gaussian, Inc.  All Rights Reserved.
  
 This is part of the Gaussian(R) 16 program.  It is based on
 the Gaussian(R) 09 system (copyright 2009, Gaussian, Inc.),
 the Gaussian(R) 03 system (copyright 2003, Gaussian, Inc.),
 the Gaussian(R) 98 system (copyright 1998, Gaussian, Inc.),
 the Gaussian(R) 94 system (copyright 1995, Gaussian, Inc.),
 the Gaussian 92(TM) system (copyright 1992, Gaussian, Inc.),
 the Gaussian 90(TM) system (copyright 1990, Gaussian, Inc.),
 the Gaussian 88(TM) system (copyright 1988, Gaussian, Inc.),
 the Gaussian 86(TM) system (copyright 1986, Carnegie Mellon
 University), and the Gaussian 82(TM) system (copyright 1983,
 Carnegie Mellon University). Gaussian is a federally registered
 trademark of Gaussian, Inc.
  
 This software contains proprietary and confidential information,
 including trade secrets, belonging to Gaussian, Inc.
  
 This software is provided under written license and may be
 used, copied, transmitted, or stored only in accord with that
 written license.
  
 The following legend is applicable only to US Government
 contracts under FAR:
  
                    RESTRICTED RIGHTS LEGEND
  
 Use, reproduction and disclosure by the US Government is
 subject to restrictions as set forth in subparagraphs (a)
 and (c) of the Commercial Computer Software - Restricted
 Rights clause in FAR 52.227-19.
  
 Gaussian, Inc.
 340 Quinnipiac St., Bldg. 40, Wallingford CT 06492
  
  
 ---------------------------------------------------------------
 Warning -- This program may not be used in any manner that
 competes with the business of Gaussian, Inc. or will provide
 assistance to any competitor of Gaussian, Inc.  The licensee
 of this program is prohibited from giving any competitor of
 Gaussian, Inc. access to this program.  By using this program,
 the user acknowledges that Gaussian, Inc. is engaged in the
 business of creating and licensing software in the field of
 computational chemistry and represents and warrants to the
 licensee that it is not a competitor of Gaussian, Inc. and that
 it will not use this program in any manner prohibited above.
 ---------------------------------------------------------------
  

 Cite this work as:
 Gaussian 16, Revision C.01,
 M. J. Frisch, G. W. Trucks, H. B. Schlegel, G. E. Scuseria, 
 M. A. Robb, J. R. Cheeseman, G. Scalmani, V. Barone, 
 G. A. Petersson, H. Nakatsuji, X. Li, M. Caricato, A. V. Marenich, 
 J. Bloino, B. G. Janesko, R. Gomperts, B. Mennucci, H. P. Hratchian, 
 J. V. Ortiz, A. F. Izmaylov, J. L. Sonnenberg, D. Williams-Young, 
 F. Ding, F. Lipparini, F. Egidi, J. Goings, B. Peng, A. Petrone, 
 T. Henderson, D. Ranasinghe, V. G. Zakrzewski, J. Gao, N. Rega, 
 G. Zheng, W. Liang, M. Hada, M. Ehara, K. Toyota, R. Fukuda, 
 J. Hasegawa, M. Ishida, T. Nakajima, Y. Honda, O. Kitao, H. Nakai, 
 T. Vreven, K. Throssell, J. A. Montgomery, Jr., J. E. Peralta, 
 F. Ogliaro, M. J. Bearpark, J. J. Heyd, E. N. Brothers, K. N. Kudin, 
 V. N. Staroverov, T. A. Keith, R. Kobayashi, J. Normand, 
 K. Raghavachari, A. P. Rendell, J. C. Burant, S. S. Iyengar, 
 J. Tomasi, M. Cossi, J. M. Millam, M. Klene, C. Adamo, R. Cammi, 
 J. W. Ochterski, R. L. Martin, K. Morokuma, O. Farkas, 
 J. B. Foresman, and D. J. Fox, Gaussian, Inc., Wallingford CT, 2019.
 
 ******************************************
 Gaussian 16:  ES64L-G16RevC.01  3-Jul-2019
                 6-Mar-2023 
 ******************************************
 %nprocshared=1
 Will use up to    1 processors via shared memory.
 %mem=8000MB
 %chk=XERQIV_Complex_0_Ligand_2_NN_Cu_oriented.chk
 ----------------------------------------------------------------------
 #p pop=(regular,nbo,savenbos) freq=noraman def2svp empiricaldispersion
 =gd3bj output=wfx pbe1pbe
 ----------------------------------------------------------------------
 1/10=4,30=1,38=1/1,3;
 2/12=2,17=6,18=5,40=1/2;
 3/5=43,7=101,11=2,25=1,30=1,71=2,74=-13,124=41,140=1/1,2,3;
 4//1;
 5/5=2,38=5,98=1/2;
 8/6=4,10=90,11=11/1;
 11/6=1,8=1,9=11,15=111,16=1/1,2,10;
 10/6=1/2;
 6/28=1,40=1,73=1/1,7;
 7/8=1,10=1,25=1/1,2,3,16;
 1/10=4,30=1/3;
 99/6=200/99;
 Leave Link    1 at Mon Mar  6 10:21:46 2023, MaxMem=  1048576000 cpu:               0.0 elap:               0.2
 (Enter /ssoft/spack/external/gaussian/g16-C.01/avx2/g16/l101.exe)
 ----------------------------------------
 XERQIV_Complex_0_Ligand_2_NN_Cu_oriented
 ----------------------------------------
 Symbolic Z-matrix:
 Charge = -1 Multiplicity = 1
 S                     2.69217  -3.03355  -0.28657 
 S                    -0.43973  -4.29838  -0.3131 
 O                     3.53854  -2.93633   0.86559 
 O                     2.39078  -4.35154  -0.79614 
 N                     1.38038  -2.17504   0. 
 N                    -0.86244  -1.7533    0. 
 C                     3.45253  -2.11666  -1.57491 
 C                     0.13961  -2.63778  -0.1087 
 C                    -2.07779  -3.67826  -0.15929 
 C                    -2.09     -2.33241  -0.01499 
 C                    -3.32719  -1.64019   0.13983 
 H                    -3.3808   -0.71965   0.24685 
 C                    -4.46932  -2.46284   0.11739 
 C                    -4.39802  -3.79582  -0.07681 
 C                    -3.20519  -4.45157  -0.21568 
 H                    -5.22524  -1.95739   0.18326 
 H                    -5.18893  -4.22631  -0.03856 
 H                    -3.17674  -5.37963  -0.35197 
 C                     5.16819   0.34024  -4.6911 
 H                     4.83115   0.04463  -5.54111 
 H                     4.91331   1.25486  -4.54752 
 H                     6.12494   0.26944  -4.68407 
 C                     4.5816   -0.534    -3.58089 
 C                     3.66104  -1.47823  -3.88009 
 C                     3.10015  -2.2716   -2.88579 
 C                     4.32154  -1.14594  -1.24629 
 C                     4.86886  -0.36928  -2.26228 
 H                     3.42025  -1.62376  -4.76568 
 H                     5.25443   0.27561  -2.05198 
 H                     2.47539  -2.91665  -3.11995 
 H                     4.55196  -0.99465  -0.35708 
 
 ITRead=  0  0  0  0  0  0  0  0  0  0  0  0  0  0  0  0  0  0  0  0
 ITRead=  0  0  0  0  0  0  0  0  0  0  0
 MicOpt= -1 -1 -1 -1 -1 -1 -1 -1 -1 -1 -1 -1 -1 -1 -1 -1 -1 -1 -1 -1
 MicOpt= -1 -1 -1 -1 -1 -1 -1 -1 -1 -1 -1
 NAtoms=     31 NQM=       31 NQMF=       0 NMMI=      0 NMMIF=      0
                NMic=       0 NMicF=      0.
                    Isotopes and Nuclear Properties:
 (Nuclear quadrupole moments (NQMom) in fm**2, nuclear magnetic moments (NMagM)
  in nuclear magnetons)

  Atom         1           2           3           4           5           6           7           8           9          10
 IAtWgt=          32          32          16          16          14          14          12          12          12          12
 AtmWgt=  31.9720718  31.9720718  15.9949146  15.9949146  14.0030740  14.0030740  12.0000000  12.0000000  12.0000000  12.0000000
 NucSpn=           0           0           0           0           2           2           0           0           0           0
 AtZEff=  -0.0000000  -0.0000000  -0.0000000  -0.0000000  -0.0000000  -0.0000000  -0.0000000  -0.0000000  -0.0000000  -0.0000000
 NQMom=    0.0000000   0.0000000   0.0000000   0.0000000   2.0440000   2.0440000   0.0000000   0.0000000   0.0000000   0.0000000
 NMagM=    0.0000000   0.0000000   0.0000000   0.0000000   0.4037610   0.4037610   0.0000000   0.0000000   0.0000000   0.0000000
 AtZNuc=  16.0000000  16.0000000   8.0000000   8.0000000   7.0000000   7.0000000   6.0000000   6.0000000   6.0000000   6.0000000

  Atom        11          12          13          14          15          16          17          18          19          20
 IAtWgt=          12           1          12          12          12           1           1           1          12           1
 AtmWgt=  12.0000000   1.0078250  12.0000000  12.0000000  12.0000000   1.0078250   1.0078250   1.0078250  12.0000000   1.0078250
 NucSpn=           0           1           0           0           0           1           1           1           0           1
 AtZEff=  -0.0000000  -0.0000000  -0.0000000  -0.0000000  -0.0000000  -0.0000000  -0.0000000  -0.0000000  -0.0000000  -0.0000000
 NQMom=    0.0000000   0.0000000   0.0000000   0.0000000   0.0000000   0.0000000   0.0000000   0.0000000   0.0000000   0.0000000
 NMagM=    0.0000000   2.7928460   0.0000000   0.0000000   0.0000000   2.7928460   2.7928460   2.7928460   0.0000000   2.7928460
 AtZNuc=   6.0000000   1.0000000   6.0000000   6.0000000   6.0000000   1.0000000   1.0000000   1.0000000   6.0000000   1.0000000

  Atom        21          22          23          24          25          26          27          28          29          30
 IAtWgt=           1           1          12          12          12          12          12           1           1           1
 AtmWgt=   1.0078250   1.0078250  12.0000000  12.0000000  12.0000000  12.0000000  12.0000000   1.0078250   1.0078250   1.0078250
 NucSpn=           1           1           0           0           0           0           0           1           1           1
 AtZEff=  -0.0000000  -0.0000000  -0.0000000  -0.0000000  -0.0000000  -0.0000000  -0.0000000  -0.0000000  -0.0000000  -0.0000000
 NQMom=    0.0000000   0.0000000   0.0000000   0.0000000   0.0000000   0.0000000   0.0000000   0.0000000   0.0000000   0.0000000
 NMagM=    2.7928460   2.7928460   0.0000000   0.0000000   0.0000000   0.0000000   0.0000000   2.7928460   2.7928460   2.7928460
 AtZNuc=   1.0000000   1.0000000   6.0000000   6.0000000   6.0000000   6.0000000   6.0000000   1.0000000   1.0000000   1.0000000

  Atom        31
 IAtWgt=           1
 AtmWgt=   1.0078250
 NucSpn=           1
 AtZEff=  -0.0000000
 NQMom=    0.0000000
 NMagM=    2.7928460
 AtZNuc=   1.0000000
 Leave Link  101 at Mon Mar  6 10:21:46 2023, MaxMem=  1048576000 cpu:               0.1 elap:               0.1
 (Enter /ssoft/spack/external/gaussian/g16-C.01/avx2/g16/l103.exe)

 GradGradGradGradGradGradGradGradGradGradGradGradGradGradGradGradGradGrad
 Berny optimization.
 Initialization pass.
 Trust Radius=3.00D-01 FncErr=1.00D-07 GrdErr=1.00D-07 EigMax=2.50D+02 EigMin=1.00D-04
 Number of steps in this run=      2 maximum allowed number of steps=      2.
 GradGradGradGradGradGradGradGradGradGradGradGradGradGradGradGradGradGrad

 Leave Link  103 at Mon Mar  6 10:21:46 2023, MaxMem=  1048576000 cpu:               0.0 elap:               0.0
 (Enter /ssoft/spack/external/gaussian/g16-C.01/avx2/g16/l202.exe)
                          Input orientation:                          
 ---------------------------------------------------------------------
 Center     Atomic      Atomic             Coordinates (Angstroms)
 Number     Number       Type             X           Y           Z
 ---------------------------------------------------------------------
      1         16           0        2.692175   -3.033545   -0.286568
      2         16           0       -0.439732   -4.298385   -0.313103
      3          8           0        3.538543   -2.936330    0.865593
      4          8           0        2.390783   -4.351543   -0.796140
      5          7           0        1.380384   -2.175045    0.000000
      6          7           0       -0.862445   -1.753299    0.000000
      7          6           0        3.452534   -2.116664   -1.574914
      8          6           0        0.139613   -2.637775   -0.108696
      9          6           0       -2.077787   -3.678258   -0.159286
     10          6           0       -2.089999   -2.332408   -0.014993
     11          6           0       -3.327192   -1.640193    0.139833
     12          1           0       -3.380800   -0.719646    0.246852
     13          6           0       -4.469317   -2.462838    0.117389
     14          6           0       -4.398016   -3.795822   -0.076809
     15          6           0       -3.205185   -4.451566   -0.215677
     16          1           0       -5.225245   -1.957392    0.183262
     17          1           0       -5.188934   -4.226311   -0.038562
     18          1           0       -3.176737   -5.379630   -0.351967
     19          6           0        5.168190    0.340239   -4.691097
     20          1           0        4.831149    0.044628   -5.541109
     21          1           0        4.913312    1.254857   -4.547523
     22          1           0        6.124938    0.269442   -4.684066
     23          6           0        4.581604   -0.534005   -3.580889
     24          6           0        3.661037   -1.478232   -3.880088
     25          6           0        3.100147   -2.271604   -2.885788
     26          6           0        4.321542   -1.145941   -1.246287
     27          6           0        4.868860   -0.369276   -2.262275
     28          1           0        3.420250   -1.623760   -4.765680
     29          1           0        5.254430    0.275609   -2.051980
     30          1           0        2.475391   -2.916654   -3.119949
     31          1           0        4.551962   -0.994647   -0.357082
 ---------------------------------------------------------------------
                    Distance matrix (angstroms):
                    1          2          3          4          5
     1  S    0.000000
     2  S    3.377775   0.000000
     3  O    1.432922   4.367058   0.000000
     4  O    1.444859   2.871928   2.466077   0.000000
     5  N    1.593718   2.814148   2.446723   2.528218   0.000000
     6  N    3.788994   2.598881   4.638697   4.238892   2.282138
     7  C    1.754608   4.637004   2.575912   2.593932   2.603376
     8  C    2.589179   1.770606   3.548395   2.911589   1.328702
     9  C    4.815018   1.758250   5.757083   4.563663   3.774119
    10  C    4.840923   2.584050   5.728930   4.976395   3.473982
    11  C    6.193225   3.950767   7.024601   6.397086   4.739926
    12  H    6.520713   4.665919   7.292040   6.898528   4.984777
    13  C    7.195544   4.448832   8.056664   7.173752   5.857953
    14  C    7.134134   3.997050   8.038396   6.849384   6.001894
    15  C    6.065861   2.771405   6.995924   5.626883   5.124111
    16  H    8.004023   5.350491   8.844652   8.043325   6.611754
    17  H    7.974714   4.757676   8.868506   7.618512   6.882232
    18  H    6.320800   2.943093   7.248941   5.679043   5.582168
    19  C    6.075602   8.493082   6.653454   6.700559   6.533032
    20  H    6.454499   8.600930   7.183507   6.913496   6.894825
    21  H    6.440465   8.799085   6.982684   7.201927   6.702669
    22  H    6.483176   9.114014   6.911232   7.100238   7.101181
    23  C    4.546448   7.075507   5.160460   5.208466   5.075784
    24  C    4.033742   6.123149   4.966140   4.402294   4.554340
    25  C    2.739149   4.822582   3.834959   3.032486   3.360756
    26  C    2.671881   5.786058   2.877259   3.769131   3.355994
    27  C    3.967330   6.886096   4.259469   4.914150   4.533007
    28  H    4.751845   6.471362   5.783431   4.925226   5.213125
    29  H    4.542283   7.507902   4.666160   5.584635   5.022406
    30  H    2.844064   4.276156   4.124951   2.732426   3.388673
    31  H    2.760596   5.986120   2.508403   4.016493   3.402904
                    6          7          8          9         10
     6  N    0.000000
     7  C    4.607758   0.000000
     8  C    1.340982   3.660163   0.000000
     9  C    2.282082   5.918364   2.449904   0.000000
    10  C    1.357381   5.761907   2.252376   1.353618   0.000000
    11  C    2.471300   7.009427   3.616030   2.409189   1.426106
    12  H    2.733402   7.208672   4.024791   3.258248   2.082242
    13  C    3.677873   8.107986   4.617786   2.696889   2.386564
    14  C    4.083878   8.166702   4.683179   2.324668   2.733559
    15  C    3.579888   7.185020   3.806436   1.368288   2.403070
    16  H    4.371414   8.855529   5.415704   3.603499   3.163812
    17  H    4.983551   9.026957   5.560735   3.161355   3.631917
    18  H    4.316261   7.489311   4.309887   2.034572   3.252709
    19  C    7.921985   4.323245   7.426543   9.444036   9.038268
    20  H    8.145762   4.722549   7.662696   9.516160   9.170090
    21  H    7.942817   4.726250   7.592363   9.616014   9.080676
    22  H    8.651906   4.743635   8.075273  10.165760   9.800768
    23  C    6.629261   2.793483   6.017745   8.120418   7.775612
    24  C    5.965956   2.401020   5.288513   7.184608   6.981618
    25  C    4.929356   1.366226   4.075670   6.018596   5.931507
    26  C    5.366175   1.343680   4.583472   6.967469   6.635635
    27  C    6.315162   2.351981   5.670077   7.976706   7.571650
    28  H    6.408585   3.228775   5.786044   7.461115   7.309860
    29  H    6.763376   3.032721   6.198832   8.542644   8.055539
    30  H    4.714725   1.995476   3.821162   5.484250   5.552016
    31  H    5.478947   1.987657   4.714912   7.155031   6.783972
                   11         12         13         14         15
    11  C    0.000000
    12  H    0.928296   0.000000
    13  C    1.407727   2.059211   0.000000
    14  C    2.416678   3.256124   1.348942   0.000000
    15  C    2.836387   3.764572   2.379916   1.368258   0.000000
    16  H    1.924864   2.222169   0.911725   2.032676   3.234300
    17  H    3.191537   3.955693   1.911022   0.901296   2.004337
    18  H    3.774639   4.702732   3.224707   2.018832   0.938450
    19  C    9.971535   9.929346  11.129254  11.397848  10.635045
    20  H   10.083167  10.075749  11.171600  11.392327  10.637606
    21  H    9.912545   9.781462  11.118291  11.497716  10.827657
    22  H   10.782369  10.754130  11.948119  12.185473  11.371263
    23  C    8.810022   8.836625   9.965782  10.176030   9.343769
    24  C    8.063582   8.197229   9.113283   9.207850   8.331485
    25  C    7.131883   7.363742   8.145700   8.150832   7.186024
    26  C    7.789015   7.857307   8.992943   9.188049   8.284983
    27  C    8.634850   8.629912   9.861407  10.118917   9.275984
    28  H    8.342200   8.496893   9.316312   9.371694   8.520294
    29  H    9.061931   8.991238  10.332304  10.660561   9.863229
    30  H    6.776836   7.103322   7.675629   7.568181   6.561989
    31  H    7.921157   7.960470   9.152278   9.382283   8.493740
                   16         17         18         19         20
    16  H    0.000000
    17  H    2.280026   0.000000
    18  H    4.024248   2.340365   0.000000
    19  C   11.707346  12.238033  11.008304   0.000000
    20  H   11.743405  12.203319  10.976156   0.960991   0.000000
    21  H   11.639983  12.346227  11.272445   0.960262   1.567999
    22  H   12.548956  13.030587  11.713251   0.959390   1.568105
    23  C   10.600431  11.029261   9.700406   1.530015   2.059017
    24  C    9.782965  10.031513   8.626917   2.497215   2.539145
    25  C    8.878623   8.979779   7.448446   3.789151   3.925816
    26  C    9.687270  10.069579   8.657258   3.846070   4.485827
    27  C   10.506841  10.999129   9.668741   2.547976   3.305070
    28  H    9.967342  10.160559   8.781097   2.630237   2.318500
    29  H   10.945601  11.549242  10.293510   2.641317   3.522293
    30  H    8.433930   8.363733   6.758293   4.508550   4.492305
    31  H    9.839340  10.267919   8.885994   4.576608   5.294542
                   21         22         23         24         25
    21  H    0.000000
    22  H    1.567712   0.000000
    23  C    2.060204   2.060196   0.000000
    24  C    3.079520   3.125948   1.352231   0.000000
    25  C    4.299403   4.340516   2.386866   1.390205   0.000000
    26  C    4.124582   4.132054   2.427439   2.735615   2.333857
    27  C    2.803951   2.801921   1.359556   2.303462   2.671323
    28  H    3.250118   3.302455   1.984953   0.929209   2.013992
    29  H    2.702411   2.772309   1.856269   2.992798   3.438672
    30  H    5.038148   5.090861   3.213350   2.013114   0.928031
    31  H    4.769763   4.774408   3.256686   3.665948   3.183197
                   26         27         28         29         30
    26  C    0.000000
    27  C    1.391042   0.000000
    28  H    3.664255   3.152656   0.000000
    29  H    1.881548   0.780234   3.786290   0.000000
    30  H    3.170852   3.599088   2.296251   4.365107   0.000000
    31  H    0.930951   2.030093   4.594812   2.231522   3.954705
                   31
    31  H    0.000000
 Stoichiometry    C14H11N2O2S2(1-)
 Framework group  C1[X(C14H11N2O2S2)]
 Deg. of freedom    87
 Full point group                 C1      NOp   1
 Largest Abelian subgroup         C1      NOp   1
 Largest concise Abelian subgroup C1      NOp   1
                         Standard orientation:                         
 ---------------------------------------------------------------------
 Center     Atomic      Atomic             Coordinates (Angstroms)
 Number     Number       Type             X           Y           Z
 ---------------------------------------------------------------------
      1         16           0       -1.123876   -1.516099   -0.202061
      2         16           0        2.032005   -0.987401    0.879725
      3          8           0       -1.524982   -2.535126   -1.126162
      4          8           0       -0.671759   -1.928728    1.106734
      5          7           0       -0.072391   -0.574839   -0.942566
      6          7           0        1.839437    0.658333   -1.122440
      7          6           0       -2.489897   -0.436200    0.013474
      8          6           0        1.134497   -0.278904   -0.472148
      9          6           0        3.396860    0.020697    0.418908
     10          6           0        3.097102    0.814027   -0.636106
     11          6           0        4.081207    1.697337   -1.170035
     12          1           0        3.919834    2.254086   -1.895104
     13          6           0        5.324292    1.662256   -0.510335
     14          6           0        5.550435    0.883316    0.567512
     15          6           0        4.602018    0.032771    1.066719
     16          1           0        5.893852    2.273784   -0.874859
     17          1           0        6.392244    0.916210    0.887842
     18          1           0        4.778230   -0.499821    1.819037
     19          6           0       -5.746405    2.384655    0.371766
     20          1           0       -5.650080    2.867583    1.196997
     21          1           0       -5.712183    3.000621   -0.364113
     22          1           0       -6.588725    1.925424    0.366194
     23          6           0       -4.608746    1.369841    0.242040
     24          6           0       -3.626572    1.333966    1.170790
     25          6           0       -2.572824    0.433492    1.063870
     26          6           0       -3.422678   -0.379425   -0.952017
     27          6           0       -4.467032    0.529512   -0.817279
     28          1           0       -3.669224    1.896005    1.909520
     29          1           0       -4.916343    0.654141   -1.442861
     30          1           0       -1.915623    0.425844    1.719057
     31          1           0       -3.370988   -0.935536   -1.696825
 ---------------------------------------------------------------------
 Rotational constants (GHZ):           0.6848652           0.1430722           0.1316597
 Leave Link  202 at Mon Mar  6 10:21:46 2023, MaxMem=  1048576000 cpu:               0.0 elap:               0.0
 (Enter /ssoft/spack/external/gaussian/g16-C.01/avx2/g16/l301.exe)
 Standard basis: def2SVP (5D, 7F)
 Ernie: Thresh=  0.10000D-02 Tol=  0.10000D-05 Strict=F.
 There are   363 symmetry adapted cartesian basis functions of A   symmetry.
 There are   343 symmetry adapted basis functions of A   symmetry.
   343 basis functions,   601 primitive gaussians,   363 cartesian basis functions
    79 alpha electrons       79 beta electrons
       nuclear repulsion energy      1761.7075893167 Hartrees.
 IExCor= 1009 DFT=T Ex+Corr=PBE1PBE ExCW=0 ScaHFX=  0.250000
 ScaDFX=  0.750000  0.750000  1.000000  1.000000 ScalE2=  1.000000  1.000000
 IRadAn=      5 IRanWt=     -1 IRanGd=            0 ICorTp=0 IEmpDi=141
 NAtoms=   31 NActive=   31 NUniq=   31 SFac= 1.00D+00 NAtFMM=   60 NAOKFM=F Big=F
 Integral buffers will be    131072 words long.
 Raffenetti 2 integral format.
 Two-electron integral symmetry is turned on.
 R6Disp:  Grimme-D3(BJ) Dispersion energy=       -0.0405209299 Hartrees.
 Nuclear repulsion after empirical dispersion term =     1761.6670683868 Hartrees.
 Leave Link  301 at Mon Mar  6 10:21:46 2023, MaxMem=  1048576000 cpu:               0.1 elap:               0.1
 (Enter /ssoft/spack/external/gaussian/g16-C.01/avx2/g16/l302.exe)
 NPDir=0 NMtPBC=     1 NCelOv=     1 NCel=       1 NClECP=     1 NCelD=      1
         NCelK=      1 NCelE2=     1 NClLst=     1 CellRange=     0.0.
 One-electron integrals computed using PRISM.
 One-electron integral symmetry used in STVInt
   1 Symmetry operations used in ECPInt.
 ECPInt:  NShTT=   12403 NPrTT=   47591 LenC2=   10519 LenP2D=   27428.
 LDataN:  DoStor=T MaxTD1= 4 Len=   56
 NBasis=   343 RedAO= T EigKep=  2.41D-04  NBF=   343
 NBsUse=   343 1.00D-06 EigRej= -1.00D+00 NBFU=   343
 Precomputing XC quadrature grid using
 IXCGrd= 4 IRadAn=           5 IRanWt=          -1 IRanGd=           0 AccXCQ= 0.00D+00.
 Generated NRdTot=       0 NPtTot=           0 NUsed=           0 NTot=          32
 NSgBfM=   356   356   356   356   356 MxSgAt=    31 MxSgA2=    31.
 Leave Link  302 at Mon Mar  6 10:21:47 2023, MaxMem=  1048576000 cpu:               0.8 elap:               0.8
 (Enter /ssoft/spack/external/gaussian/g16-C.01/avx2/g16/l303.exe)
 DipDrv:  MaxL=1.
 Leave Link  303 at Mon Mar  6 10:21:47 2023, MaxMem=  1048576000 cpu:               0.0 elap:               0.0
 (Enter /ssoft/spack/external/gaussian/g16-C.01/avx2/g16/l401.exe)
 ExpMin= 1.22D-01 ExpMax= 9.18D+03 ExpMxC= 1.38D+03 IAcc=3 IRadAn=         5 AccDes= 0.00D+00
 Harris functional with IExCor= 1009 and IRadAn=       5 diagonalized for initial guess.
 HarFok:  IExCor= 1009 AccDes= 0.00D+00 IRadAn=         5 IDoV= 1 UseB2=F ITyADJ=14
 ICtDFT=  3500011 ScaDFX=  1.000000  1.000000  1.000000  1.000000
 FoFCou: FMM=F IPFlag=           0 FMFlag=      100000 FMFlg1=           0
         NFxFlg=           0 DoJE=T BraDBF=F KetDBF=T FulRan=T
         wScrn=  0.000000 ICntrl=       500 IOpCl=  0 I1Cent=   200000004 NGrid=           0
         NMat0=    1 NMatS0=      1 NMatT0=    0 NMatD0=    1 NMtDS0=    0 NMtDT0=    0
 Petite list used in FoFCou.
 Harris En= -1594.54295552609    
 JPrj=0 DoOrth=F DoCkMO=F.
 Leave Link  401 at Mon Mar  6 10:21:54 2023, MaxMem=  1048576000 cpu:               6.8 elap:               6.9
 (Enter /ssoft/spack/external/gaussian/g16-C.01/avx2/g16/l502.exe)
 Integral symmetry usage will be decided dynamically.
 Closed shell SCF:
 Using DIIS extrapolation, IDIIS=  1040.
 NGot=  1048576000 LenX=  1048305766 LenY=  1048173556
 Requested convergence on RMS density matrix=1.00D-08 within 128 cycles.
 Requested convergence on MAX density matrix=1.00D-06.
 Requested convergence on             energy=1.00D-06.
 No special actions if energy rises.
 Fock matrices will be formed incrementally for  20 cycles.
 Integral accuracy reduced to 1.0D-05 until final iterations.

 Cycle   1  Pass 0  IDiag  1:
 FoFJK:  IHMeth= 1 ICntrl=       0 DoSepK=F KAlg= 0 I1Cent=           0 FoldK=F
 IRaf= 770000000 NMat=       1 IRICut=       1 DoRegI=T DoRafI=F ISym2E= 0 IDoP0=0 IntGTp=1.
 FoFCou: FMM=F IPFlag=           0 FMFlag=      100000 FMFlg1=           0
         NFxFlg=           0 DoJE=F BraDBF=F KetDBF=F FulRan=T
         wScrn=  0.000000 ICntrl=         0 IOpCl=  0 I1Cent=           0 NGrid=           0
         NMat0=    1 NMatS0=      1 NMatT0=    0 NMatD0=    1 NMtDS0=    0 NMtDT0=    0
 Symmetry not used in FoFCou.
 E= -1593.38499499841    
 DIIS: error= 3.30D-02 at cycle   1 NSaved=   1.
 NSaved= 1 IEnMin= 1 EnMin= -1593.38499499841     IErMin= 1 ErrMin= 3.30D-02
 ErrMax= 3.30D-02  0.00D+00 EMaxC= 1.00D-01 BMatC= 7.45D-01 BMatP= 7.45D-01
 IDIUse=3 WtCom= 6.70D-01 WtEn= 3.30D-01
 Coeff-Com:  0.100D+01
 Coeff-En:   0.100D+01
 Coeff:      0.100D+01
 Gap=     0.315 Goal=   None    Shift=    0.000
 GapD=    0.315 DampG=1.000 DampE=0.500 DampFc=0.5000 IDamp=-1.
 Damping current iteration by 5.00D-01
 RMSDP=7.70D-03 MaxDP=4.29D-01              OVMax= 3.95D-01

 Cycle   2  Pass 0  IDiag  1:
 RMSU=  3.81D-03    CP:  9.75D-01
 E= -1593.59730199991     Delta-E=       -0.212307001496 Rises=F Damp=T
 DIIS: error= 1.13D-02 at cycle   2 NSaved=   2.
 NSaved= 2 IEnMin= 2 EnMin= -1593.59730199991     IErMin= 2 ErrMin= 1.13D-02
 ErrMax= 1.13D-02  0.00D+00 EMaxC= 1.00D-01 BMatC= 9.04D-02 BMatP= 7.45D-01
 IDIUse=3 WtCom= 8.87D-01 WtEn= 1.13D-01
 Coeff-Com:  0.182D+00 0.818D+00
 Coeff-En:   0.316D+00 0.684D+00
 Coeff:      0.197D+00 0.803D+00
 Gap=     0.214 Goal=   None    Shift=    0.000
 RMSDP=2.94D-03 MaxDP=1.04D-01 DE=-2.12D-01 OVMax= 3.08D-01

 Cycle   3  Pass 0  IDiag  1:
 RMSU=  2.60D-03    CP:  9.47D-01  6.81D-01
 E= -1594.02309045113     Delta-E=       -0.425788451226 Rises=F Damp=F
 DIIS: error= 7.82D-03 at cycle   3 NSaved=   3.
 NSaved= 3 IEnMin= 3 EnMin= -1594.02309045113     IErMin= 3 ErrMin= 7.82D-03
 ErrMax= 7.82D-03  0.00D+00 EMaxC= 1.00D-01 BMatC= 8.10D-02 BMatP= 9.04D-02
 IDIUse=3 WtCom= 9.22D-01 WtEn= 7.82D-02
 Coeff-Com:  0.494D-01 0.483D+00 0.467D+00
 Coeff-En:   0.000D+00 0.000D+00 0.100D+01
 Coeff:      0.455D-01 0.446D+00 0.509D+00
 Gap=     0.180 Goal=   None    Shift=    0.000
 RMSDP=1.39D-03 MaxDP=4.76D-02 DE=-4.26D-01 OVMax= 1.36D-01

 Cycle   4  Pass 0  IDiag  1:
 RMSU=  9.37D-04    CP:  9.52D-01  8.06D-01  6.51D-01
 E= -1594.09390208242     Delta-E=       -0.070811631284 Rises=F Damp=F
 DIIS: error= 3.51D-03 at cycle   4 NSaved=   4.
 NSaved= 4 IEnMin= 4 EnMin= -1594.09390208242     IErMin= 4 ErrMin= 3.51D-03
 ErrMax= 3.51D-03  0.00D+00 EMaxC= 1.00D-01 BMatC= 1.19D-02 BMatP= 8.10D-02
 IDIUse=3 WtCom= 9.65D-01 WtEn= 3.51D-02
 Coeff-Com:  0.197D-02 0.156D+00 0.295D+00 0.547D+00
 Coeff-En:   0.000D+00 0.000D+00 0.109D+00 0.891D+00
 Coeff:      0.191D-02 0.150D+00 0.289D+00 0.559D+00
 Gap=     0.150 Goal=   None    Shift=    0.000
 RMSDP=4.61D-04 MaxDP=1.92D-02 DE=-7.08D-02 OVMax= 4.57D-02

 Cycle   5  Pass 0  IDiag  1:
 RMSU=  3.06D-04    CP:  9.52D-01  7.95D-01  7.17D-01  6.85D-01
 E= -1594.10410459214     Delta-E=       -0.010202509721 Rises=F Damp=F
 DIIS: error= 1.12D-03 at cycle   5 NSaved=   5.
 NSaved= 5 IEnMin= 5 EnMin= -1594.10410459214     IErMin= 5 ErrMin= 1.12D-03
 ErrMax= 1.12D-03  0.00D+00 EMaxC= 1.00D-01 BMatC= 1.23D-03 BMatP= 1.19D-02
 IDIUse=3 WtCom= 9.89D-01 WtEn= 1.12D-02
 Coeff-Com: -0.478D-02 0.273D-01 0.834D-01 0.303D+00 0.592D+00
 Coeff-En:   0.000D+00 0.000D+00 0.000D+00 0.811D-01 0.919D+00
 Coeff:     -0.472D-02 0.270D-01 0.824D-01 0.300D+00 0.595D+00
 Gap=     0.153 Goal=   None    Shift=    0.000
 RMSDP=1.51D-04 MaxDP=6.19D-03 DE=-1.02D-02 OVMax= 1.16D-02

 Cycle   6  Pass 0  IDiag  1:
 RMSU=  9.72D-05    CP:  9.51D-01  7.97D-01  7.16D-01  7.53D-01  6.96D-01
 E= -1594.10523680805     Delta-E=       -0.001132215916 Rises=F Damp=F
 DIIS: error= 3.20D-04 at cycle   6 NSaved=   6.
 NSaved= 6 IEnMin= 6 EnMin= -1594.10523680805     IErMin= 6 ErrMin= 3.20D-04
 ErrMax= 3.20D-04  0.00D+00 EMaxC= 1.00D-01 BMatC= 1.08D-04 BMatP= 1.23D-03
 IDIUse=3 WtCom= 9.97D-01 WtEn= 3.20D-03
 Coeff-Com: -0.282D-02 0.306D-02 0.200D-01 0.118D+00 0.325D+00 0.537D+00
 Coeff-En:   0.000D+00 0.000D+00 0.000D+00 0.000D+00 0.000D+00 0.100D+01
 Coeff:     -0.281D-02 0.305D-02 0.199D-01 0.118D+00 0.324D+00 0.538D+00
 Gap=     0.152 Goal=   None    Shift=    0.000
 RMSDP=4.50D-05 MaxDP=1.46D-03 DE=-1.13D-03 OVMax= 2.67D-03

 Cycle   7  Pass 0  IDiag  1:
 RMSU=  2.99D-05    CP:  9.51D-01  7.97D-01  7.17D-01  7.55D-01  7.33D-01
                    CP:  6.77D-01
 E= -1594.10532852161     Delta-E=       -0.000091713560 Rises=F Damp=F
 DIIS: error= 1.02D-04 at cycle   7 NSaved=   7.
 NSaved= 7 IEnMin= 7 EnMin= -1594.10532852161     IErMin= 7 ErrMin= 1.02D-04
 ErrMax= 1.02D-04  0.00D+00 EMaxC= 1.00D-01 BMatC= 1.21D-05 BMatP= 1.08D-04
 IDIUse=3 WtCom= 9.99D-01 WtEn= 1.02D-03
 Coeff-Com: -0.113D-02-0.914D-03 0.207D-02 0.335D-01 0.119D+00 0.302D+00
 Coeff-Com:  0.546D+00
 Coeff-En:   0.000D+00 0.000D+00 0.000D+00 0.000D+00 0.000D+00 0.247D-01
 Coeff-En:   0.975D+00
 Coeff:     -0.112D-02-0.913D-03 0.207D-02 0.335D-01 0.119D+00 0.302D+00
 Coeff:      0.546D+00
 Gap=     0.152 Goal=   None    Shift=    0.000
 RMSDP=1.54D-05 MaxDP=5.25D-04 DE=-9.17D-05 OVMax= 7.00D-04

 Cycle   8  Pass 0  IDiag  1:
 RMSU=  1.07D-05    CP:  9.51D-01  7.97D-01  7.17D-01  7.56D-01  7.33D-01
                    CP:  6.98D-01  6.47D-01
 E= -1594.10533919203     Delta-E=       -0.000010670414 Rises=F Damp=F
 DIIS: error= 3.67D-05 at cycle   8 NSaved=   8.
 NSaved= 8 IEnMin= 8 EnMin= -1594.10533919203     IErMin= 8 ErrMin= 3.67D-05
 ErrMax= 3.67D-05  0.00D+00 EMaxC= 1.00D-01 BMatC= 1.11D-06 BMatP= 1.21D-05
 IDIUse=1 WtCom= 1.00D+00 WtEn= 0.00D+00
 Coeff-Com: -0.347D-03-0.839D-03-0.860D-03 0.701D-02 0.328D-01 0.105D+00
 Coeff-Com:  0.290D+00 0.567D+00
 Coeff:     -0.347D-03-0.839D-03-0.860D-03 0.701D-02 0.328D-01 0.105D+00
 Coeff:      0.290D+00 0.567D+00
 Gap=     0.152 Goal=   None    Shift=    0.000
 RMSDP=5.13D-06 MaxDP=1.91D-04 DE=-1.07D-05 OVMax= 3.76D-04

 Initial convergence to 1.0D-05 achieved.  Increase integral accuracy.
 Cycle   9  Pass 1  IDiag  1:
 E= -1594.10538659358     Delta-E=       -0.000047401550 Rises=F Damp=F
 DIIS: error= 9.54D-05 at cycle   1 NSaved=   1.
 NSaved= 1 IEnMin= 1 EnMin= -1594.10538659358     IErMin= 1 ErrMin= 9.54D-05
 ErrMax= 9.54D-05  0.00D+00 EMaxC= 1.00D-01 BMatC= 1.64D-06 BMatP= 1.64D-06
 IDIUse=1 WtCom= 1.00D+00 WtEn= 0.00D+00
 Coeff-Com:  0.100D+01
 Coeff:      0.100D+01
 Gap=     0.152 Goal=   None    Shift=    0.000
 RMSDP=5.13D-06 MaxDP=1.91D-04 DE=-4.74D-05 OVMax= 3.19D-04

 Cycle  10  Pass 1  IDiag  1:
 RMSU=  9.83D-05    CP:  1.00D+00
 E= -1594.10538814379     Delta-E=       -0.000001550211 Rises=F Damp=F
 DIIS: error= 2.46D-05 at cycle   2 NSaved=   2.
 NSaved= 2 IEnMin= 2 EnMin= -1594.10538814379     IErMin= 2 ErrMin= 2.46D-05
 ErrMax= 2.46D-05  0.00D+00 EMaxC= 1.00D-01 BMatC= 4.49D-07 BMatP= 1.64D-06
 IDIUse=1 WtCom= 1.00D+00 WtEn= 0.00D+00
 Coeff-Com:  0.265D+00 0.735D+00
 Coeff:      0.265D+00 0.735D+00
 Gap=     0.152 Goal=   None    Shift=    0.000
 RMSDP=5.41D-06 MaxDP=1.76D-04 DE=-1.55D-06 OVMax= 3.37D-04

 Cycle  11  Pass 1  IDiag  1:
 RMSU=  5.31D-06    CP:  1.00D+00  1.01D+00
 E= -1594.10538799189     Delta-E=        0.000000151901 Rises=F Damp=F
 DIIS: error= 2.95D-05 at cycle   3 NSaved=   3.
 NSaved= 3 IEnMin= 2 EnMin= -1594.10538814379     IErMin= 2 ErrMin= 2.46D-05
 ErrMax= 2.95D-05  0.00D+00 EMaxC= 1.00D-01 BMatC= 6.06D-07 BMatP= 4.49D-07
 IDIUse=1 WtCom= 1.00D+00 WtEn= 0.00D+00
 Coeff-Com: -0.172D-03 0.538D+00 0.462D+00
 Coeff:     -0.172D-03 0.538D+00 0.462D+00
 Gap=     0.152 Goal=   None    Shift=    0.000
 RMSDP=3.07D-06 MaxDP=1.02D-04 DE= 1.52D-07 OVMax= 2.08D-04

 Cycle  12  Pass 1  IDiag  1:
 RMSU=  7.17D-07    CP:  1.00D+00  1.02D+00  4.48D-01
 E= -1594.10538857425     Delta-E=       -0.000000582361 Rises=F Damp=F
 DIIS: error= 4.03D-06 at cycle   4 NSaved=   4.
 NSaved= 4 IEnMin= 4 EnMin= -1594.10538857425     IErMin= 4 ErrMin= 4.03D-06
 ErrMax= 4.03D-06  0.00D+00 EMaxC= 1.00D-01 BMatC= 1.10D-08 BMatP= 4.49D-07
 IDIUse=1 WtCom= 1.00D+00 WtEn= 0.00D+00
 Coeff-Com: -0.522D-02 0.312D+00 0.280D+00 0.414D+00
 Coeff:     -0.522D-02 0.312D+00 0.280D+00 0.414D+00
 Gap=     0.152 Goal=   None    Shift=    0.000
 RMSDP=3.80D-07 MaxDP=1.41D-05 DE=-5.82D-07 OVMax= 3.18D-05

 Cycle  13  Pass 1  IDiag  1:
 RMSU=  2.35D-07    CP:  1.00D+00  1.02D+00  4.69D-01  6.15D-01
 E= -1594.10538858418     Delta-E=       -0.000000009934 Rises=F Damp=F
 DIIS: error= 5.07D-07 at cycle   5 NSaved=   5.
 NSaved= 5 IEnMin= 5 EnMin= -1594.10538858418     IErMin= 5 ErrMin= 5.07D-07
 ErrMax= 5.07D-07  0.00D+00 EMaxC= 1.00D-01 BMatC= 2.04D-10 BMatP= 1.10D-08
 IDIUse=1 WtCom= 1.00D+00 WtEn= 0.00D+00
 Coeff-Com: -0.278D-02 0.148D+00 0.134D+00 0.217D+00 0.504D+00
 Coeff:     -0.278D-02 0.148D+00 0.134D+00 0.217D+00 0.504D+00
 Gap=     0.152 Goal=   None    Shift=    0.000
 RMSDP=6.36D-08 MaxDP=1.81D-06 DE=-9.93D-09 OVMax= 3.12D-06

 Cycle  14  Pass 1  IDiag  1:
 RMSU=  5.78D-08    CP:  1.00D+00  1.02D+00  4.69D-01  6.34D-01  9.10D-01
 E= -1594.10538858436     Delta-E=       -0.000000000176 Rises=F Damp=F
 DIIS: error= 1.32D-07 at cycle   6 NSaved=   6.
 NSaved= 6 IEnMin= 6 EnMin= -1594.10538858436     IErMin= 6 ErrMin= 1.32D-07
 ErrMax= 1.32D-07  0.00D+00 EMaxC= 1.00D-01 BMatC= 1.81D-11 BMatP= 2.04D-10
 IDIUse=1 WtCom= 1.00D+00 WtEn= 0.00D+00
 Coeff-Com: -0.508D-03 0.221D-01 0.205D-01 0.384D-01 0.234D+00 0.686D+00
 Coeff:     -0.508D-03 0.221D-01 0.205D-01 0.384D-01 0.234D+00 0.686D+00
 Gap=     0.152 Goal=   None    Shift=    0.000
 RMSDP=2.50D-08 MaxDP=7.51D-07 DE=-1.76D-10 OVMax= 2.30D-06

 Cycle  15  Pass 1  IDiag  1:
 RMSU=  2.13D-08    CP:  1.00D+00  1.02D+00  4.69D-01  6.38D-01  9.48D-01
                    CP:  8.63D-01
 E= -1594.10538858438     Delta-E=       -0.000000000021 Rises=F Damp=F
 DIIS: error= 7.01D-08 at cycle   7 NSaved=   7.
 NSaved= 7 IEnMin= 7 EnMin= -1594.10538858438     IErMin= 7 ErrMin= 7.01D-08
 ErrMax= 7.01D-08  0.00D+00 EMaxC= 1.00D-01 BMatC= 5.96D-12 BMatP= 1.81D-11
 IDIUse=1 WtCom= 1.00D+00 WtEn= 0.00D+00
 Coeff-Com:  0.166D-03-0.119D-01-0.106D-01-0.141D-01 0.511D-01 0.424D+00
 Coeff-Com:  0.561D+00
 Coeff:      0.166D-03-0.119D-01-0.106D-01-0.141D-01 0.511D-01 0.424D+00
 Coeff:      0.561D+00
 Gap=     0.152 Goal=   None    Shift=    0.000
 RMSDP=1.15D-08 MaxDP=3.85D-07 DE=-2.14D-11 OVMax= 9.64D-07

 Cycle  16  Pass 1  IDiag  1:
 RMSU=  9.29D-09    CP:  1.00D+00  1.02D+00  4.69D-01  6.41D-01  9.53D-01
                    CP:  9.09D-01  7.48D-01
 E= -1594.10538858439     Delta-E=       -0.000000000006 Rises=F Damp=F
 DIIS: error= 3.12D-08 at cycle   8 NSaved=   8.
 NSaved= 8 IEnMin= 8 EnMin= -1594.10538858439     IErMin= 8 ErrMin= 3.12D-08
 ErrMax= 3.12D-08  0.00D+00 EMaxC= 1.00D-01 BMatC= 6.81D-13 BMatP= 5.96D-12
 IDIUse=1 WtCom= 1.00D+00 WtEn= 0.00D+00
 Coeff-Com:  0.153D-03-0.921D-02-0.826D-02-0.121D-01 0.228D-02 0.169D+00
 Coeff-Com:  0.326D+00 0.532D+00
 Coeff:      0.153D-03-0.921D-02-0.826D-02-0.121D-01 0.228D-02 0.169D+00
 Coeff:      0.326D+00 0.532D+00
 Gap=     0.152 Goal=   None    Shift=    0.000
 RMSDP=4.17D-09 MaxDP=1.53D-07 DE=-6.37D-12 OVMax= 3.94D-07

 SCF Done:  E(RPBE1PBE) =  -1594.10538858     A.U. after   16 cycles
            NFock= 16  Conv=0.42D-08     -V/T= 2.0027
 KE= 1.589744706026D+03 PE=-7.296406843487D+03 EE= 2.350889680489D+03
 Leave Link  502 at Mon Mar  6 10:25:44 2023, MaxMem=  1048576000 cpu:             228.2 elap:             230.3
 (Enter /ssoft/spack/external/gaussian/g16-C.01/avx2/g16/l801.exe)
 DoSCS=F DFT=T ScalE2(SS,OS)=  1.000000  1.000000
 Range of M.O.s used for correlation:     1   343
 NBasis=   343 NAE=    79 NBE=    79 NFC=     0 NFV=     0
 NROrb=    343 NOA=    79 NOB=    79 NVA=   264 NVB=   264

 **** Warning!!: The largest alpha MO coefficient is  0.14915792D+02

 Leave Link  801 at Mon Mar  6 10:25:44 2023, MaxMem=  1048576000 cpu:               0.0 elap:               0.0
 (Enter /ssoft/spack/external/gaussian/g16-C.01/avx2/g16/l1101.exe)
 Using compressed storage, NAtomX=    31.
 Will process     32 centers per pass.
   1 Symmetry operations used in ECPInt.
 ECPInt:  NShTT=   12403 NPrTT=   47591 LenC2=   10519 LenP2D=   27428.
 LDataN:  DoStor=T MaxTD1= 5 Len=  102
 R6Disp: Adding Grimme-D3(BJ) dispersion energy 1st derivatives to the gradient.
 Leave Link 1101 at Mon Mar  6 10:25:45 2023, MaxMem=  1048576000 cpu:               0.5 elap:               0.5
 (Enter /ssoft/spack/external/gaussian/g16-C.01/avx2/g16/l1102.exe)
 Symmetrizing basis deriv contribution to polar:
 IMax=3 JMax=2 DiffMx= 0.00D+00
 Leave Link 1102 at Mon Mar  6 10:25:45 2023, MaxMem=  1048576000 cpu:               0.1 elap:               0.1
 (Enter /ssoft/spack/external/gaussian/g16-C.01/avx2/g16/l1110.exe)
 Forming Gx(P) for the SCF density, NAtomX=    31.
 Integral derivatives from FoFJK, PRISM(SPDF).
 Do as many integral derivatives as possible in FoFJK.
 G2DrvN: MDV=    1048572671.
 G2DrvN: will do    32 centers at a time, making    1 passes.
 Calling FoFCou, ICntrl=  3107 FMM=F I1Cent=   0 AccDes= 0.00D+00.
 FoFJK:  IHMeth= 1 ICntrl=    3107 DoSepK=F KAlg= 0 I1Cent=           0 FoldK=F
 IRaf=         0 NMat=       1 IRICut=       1 DoRegI=T DoRafI=F ISym2E= 0 IDoP0=0 IntGTp=1.
 FoFCou: FMM=F IPFlag=           0 FMFlag=      100000 FMFlg1=           0
         NFxFlg=           0 DoJE=F BraDBF=F KetDBF=F FulRan=T
         wScrn=  0.000000 ICntrl=      3107 IOpCl=  0 I1Cent=           0 NGrid=           0
         NMat0=    1 NMatS0=      1 NMatT0=    0 NMatD0=    1 NMtDS0=    0 NMtDT0=    0
 Symmetry not used in FoFCou.
 End of G2Drv F.D. properties file   721 does not exist.
 End of G2Drv F.D. properties file   722 does not exist.
 End of G2Drv F.D. properties file   788 does not exist.
 Leave Link 1110 at Mon Mar  6 10:33:51 2023, MaxMem=  1048576000 cpu:             484.2 elap:             486.5
 (Enter /ssoft/spack/external/gaussian/g16-C.01/avx2/g16/l1002.exe)
 Minotr:  Closed shell wavefunction.
          IDoAtm=1111111111111111111111111111111
          Direct CPHF calculation.
          Differentiating once with respect to electric field.
                with respect to dipole field.
          Differentiating once with respect to nuclear coordinates.
          Requested convergence is 1.0D-08 RMS, and 1.0D-07 maximum.
          Secondary convergence is 1.0D-12 RMS, and 1.0D-12 maximum.
          NewPWx=T KeepS1=F KeepF1=F KeepIn=T MapXYZ=F SortEE=F KeepMc=T.
         9435 words used for storage of precomputed grid.
 Two-electron integrals replicated using symmetry.
          MDV=    1048576000 using IRadAn=       1.
          Solving linear equations simultaneously, MaxMat=     384.
 FoF2E skips out because all densities are zero.
 CalDSu exits because no D1Ps are significant.
 FoFJK:  IHMeth= 1 ICntrl=       0 DoSepK=F KAlg= 0 I1Cent=           0 FoldK=F
 IRaf= 740000000 NMat=      93 IRICut=     232 DoRegI=T DoRafI=T ISym2E= 2 IDoP0=3 IntGTp=3.
 FoFCou: FMM=F IPFlag=           0 FMFlag=      100000 FMFlg1=           0
         NFxFlg=           0 DoJE=F BraDBF=F KetDBF=F FulRan=T
         wScrn=  0.000000 ICntrl=         0 IOpCl=  0 I1Cent=           0 NGrid=           0
         NMat0=   93 NMatS0=     93 NMatT0=    0 NMatD0=   93 NMtDS0=    0 NMtDT0=    0
 Integrals replicated using symmetry in FoFCou.
 Raff kept on since  68.55% of shell-pairs survive, threshold=   0.20 IRatSp=69.
          There are    96 degrees of freedom in the 1st order CPHF.  IDoFFX=6 NUNeed=     3.
     93 vectors produced by pass  0 Test12= 2.17D-14 1.04D-09 XBig12= 3.79D+02 9.25D+00.
 AX will form    93 AO Fock derivatives at one time.
     93 vectors produced by pass  1 Test12= 2.17D-14 1.04D-09 XBig12= 5.01D+01 1.18D+00.
     93 vectors produced by pass  2 Test12= 2.17D-14 1.04D-09 XBig12= 5.59D-01 7.67D-02.
     93 vectors produced by pass  3 Test12= 2.17D-14 1.04D-09 XBig12= 3.60D-03 6.80D-03.
     93 vectors produced by pass  4 Test12= 2.17D-14 1.04D-09 XBig12= 1.18D-05 4.28D-04.
     93 vectors produced by pass  5 Test12= 2.17D-14 1.04D-09 XBig12= 2.28D-08 1.59D-05.
     43 vectors produced by pass  6 Test12= 2.17D-14 1.04D-09 XBig12= 3.42D-11 4.66D-07.
      3 vectors produced by pass  7 Test12= 2.17D-14 1.04D-09 XBig12= 3.88D-14 2.34D-08.
      2 vectors produced by pass  8 Test12= 2.17D-14 1.04D-09 XBig12= 3.79D-16 1.96D-09.
 InvSVY:  IOpt=1 It=  1 EMax= 1.42D-14
 Solved reduced A of dimension   606 with    96 vectors.
 FullF1:  Do perturbations      1 to       3.
 Isotropic polarizability for W=    0.000000      204.69 Bohr**3.
 End of Minotr F.D. properties file   721 does not exist.
 End of Minotr F.D. properties file   722 does not exist.
 End of Minotr F.D. properties file   788 does not exist.
 Leave Link 1002 at Mon Mar  6 10:51:24 2023, MaxMem=  1048576000 cpu:            1048.1 elap:            1053.3
 (Enter /ssoft/spack/external/gaussian/g16-C.01/avx2/g16/l601.exe)
 Copying SCF densities to generalized density rwf, IOpCl= 0 IROHF=0.

 **********************************************************************

            Population analysis using the SCF Density.

 **********************************************************************

 Orbital symmetries:
       Occupied  (A) (A) (A) (A) (A) (A) (A) (A) (A) (A) (A) (A)
                 (A) (A) (A) (A) (A) (A) (A) (A) (A) (A) (A) (A)
                 (A) (A) (A) (A) (A) (A) (A) (A) (A) (A) (A) (A)
                 (A) (A) (A) (A) (A) (A) (A) (A) (A) (A) (A) (A)
                 (A) (A) (A) (A) (A) (A) (A) (A) (A) (A) (A) (A)
                 (A) (A) (A) (A) (A) (A) (A) (A) (A) (A) (A) (A)
                 (A) (A) (A) (A) (A) (A) (A)
       Virtual   (A) (A) (A) (A) (A) (A) (A) (A) (A) (A) (A) (A)
                 (A) (A) (A) (A) (A) (A) (A) (A) (A) (A) (A) (A)
                 (A) (A) (A) (A) (A) (A) (A) (A) (A) (A) (A) (A)
                 (A) (A) (A) (A) (A) (A) (A) (A) (A) (A) (A) (A)
                 (A) (A) (A) (A) (A) (A) (A) (A) (A) (A) (A) (A)
                 (A) (A) (A) (A) (A) (A) (A) (A) (A) (A) (A) (A)
                 (A) (A) (A) (A) (A) (A) (A) (A) (A) (A) (A) (A)
                 (A) (A) (A) (A) (A) (A) (A) (A) (A) (A) (A) (A)
                 (A) (A) (A) (A) (A) (A) (A) (A) (A) (A) (A) (A)
                 (A) (A) (A) (A) (A) (A) (A) (A) (A) (A) (A) (A)
                 (A) (A) (A) (A) (A) (A) (A) (A) (A) (A) (A) (A)
                 (A) (A) (A) (A) (A) (A) (A) (A) (A) (A) (A) (A)
                 (A) (A) (A) (A) (A) (A) (A) (A) (A) (A) (A) (A)
                 (A) (A) (A) (A) (A) (A) (A) (A) (A) (A) (A) (A)
                 (A) (A) (A) (A) (A) (A) (A) (A) (A) (A) (A) (A)
                 (A) (A) (A) (A) (A) (A) (A) (A) (A) (A) (A) (A)
                 (A) (A) (A) (A) (A) (A) (A) (A) (A) (A) (A) (A)
                 (A) (A) (A) (A) (A) (A) (A) (A) (A) (A) (A) (A)
                 (A) (A) (A) (A) (A) (A) (A) (A) (A) (A) (A) (A)
                 (A) (A) (A) (A) (A) (A) (A) (A) (A) (A) (A) (A)
                 (A) (A) (A) (A) (A) (A) (A) (A) (A) (A) (A) (A)
                 (A) (A) (A) (A) (A) (A) (A) (A) (A) (A) (A) (A)
 The electronic state is 1-A.
 Alpha  occ. eigenvalues --  -89.07372 -88.88471 -19.04282 -19.03813 -14.21657
 Alpha  occ. eigenvalues --  -14.21214 -10.18109 -10.14500 -10.13209 -10.12342
 Alpha  occ. eigenvalues --  -10.12203 -10.12046 -10.11957 -10.11954 -10.11921
 Alpha  occ. eigenvalues --  -10.10830 -10.10212 -10.09293 -10.09196 -10.08611
 Alpha  occ. eigenvalues --   -8.04212  -7.88606  -5.98424  -5.98331  -5.98254
 Alpha  occ. eigenvalues --   -5.82755  -5.82416  -5.81964  -0.99731  -0.87229
 Alpha  occ. eigenvalues --   -0.84254  -0.80494  -0.77448  -0.74041  -0.72561
 Alpha  occ. eigenvalues --   -0.69147  -0.68162  -0.65773  -0.63365  -0.61998
 Alpha  occ. eigenvalues --   -0.56846  -0.56101  -0.52917  -0.51279  -0.49640
 Alpha  occ. eigenvalues --   -0.47455  -0.42311  -0.41383  -0.40656  -0.39537
 Alpha  occ. eigenvalues --   -0.38746  -0.38584  -0.37815  -0.36043  -0.35620
 Alpha  occ. eigenvalues --   -0.35001  -0.34401  -0.32265  -0.31531  -0.30567
 Alpha  occ. eigenvalues --   -0.29799  -0.29392  -0.28433  -0.27533  -0.25786
 Alpha  occ. eigenvalues --   -0.24575  -0.23286  -0.21726  -0.19838  -0.18534
 Alpha  occ. eigenvalues --   -0.17909  -0.17542  -0.17482  -0.16856  -0.15184
 Alpha  occ. eigenvalues --   -0.12563  -0.12170  -0.11132  -0.06640
 Alpha virt. eigenvalues --    0.08582   0.09289   0.11418   0.13881   0.16530
 Alpha virt. eigenvalues --    0.17471   0.19333   0.20600   0.21555   0.22336
 Alpha virt. eigenvalues --    0.23007   0.23792   0.25306   0.26338   0.26730
 Alpha virt. eigenvalues --    0.27078   0.27829   0.28028   0.28621   0.28833
 Alpha virt. eigenvalues --    0.30478   0.30957   0.31428   0.33523   0.33911
 Alpha virt. eigenvalues --    0.37384   0.38770   0.40861   0.41218   0.41689
 Alpha virt. eigenvalues --    0.42939   0.43078   0.44122   0.44762   0.46431
 Alpha virt. eigenvalues --    0.47219   0.48796   0.51329   0.51944   0.52819
 Alpha virt. eigenvalues --    0.53609   0.54142   0.54653   0.55313   0.57062
 Alpha virt. eigenvalues --    0.57416   0.58608   0.59219   0.60490   0.60669
 Alpha virt. eigenvalues --    0.61667   0.63479   0.63816   0.64241   0.64703
 Alpha virt. eigenvalues --    0.65753   0.66631   0.67209   0.68244   0.68651
 Alpha virt. eigenvalues --    0.69212   0.69685   0.70362   0.72190   0.73112
 Alpha virt. eigenvalues --    0.73647   0.74261   0.75518   0.76064   0.76812
 Alpha virt. eigenvalues --    0.77553   0.79246   0.80276   0.80606   0.80810
 Alpha virt. eigenvalues --    0.82780   0.83593   0.83954   0.84443   0.84885
 Alpha virt. eigenvalues --    0.85515   0.85767   0.86118   0.86326   0.86506
 Alpha virt. eigenvalues --    0.87159   0.88344   0.88723   0.89338   0.89546
 Alpha virt. eigenvalues --    0.90055   0.90427   0.91215   0.92318   0.92723
 Alpha virt. eigenvalues --    0.92842   0.93594   0.95946   0.96678   0.97416
 Alpha virt. eigenvalues --    0.97927   0.99051   1.01381   1.02376   1.03029
 Alpha virt. eigenvalues --    1.03600   1.04597   1.07745   1.08651   1.09449
 Alpha virt. eigenvalues --    1.11335   1.13033   1.14835   1.14967   1.17111
 Alpha virt. eigenvalues --    1.18441   1.19864   1.22491   1.23198   1.23933
 Alpha virt. eigenvalues --    1.26183   1.27648   1.29933   1.30016   1.30636
 Alpha virt. eigenvalues --    1.31250   1.32032   1.33367   1.33779   1.35848
 Alpha virt. eigenvalues --    1.36966   1.38087   1.38265   1.39685   1.41066
 Alpha virt. eigenvalues --    1.41960   1.42333   1.43278   1.44706   1.45146
 Alpha virt. eigenvalues --    1.45511   1.46497   1.47841   1.53010   1.54604
 Alpha virt. eigenvalues --    1.57130   1.58048   1.61021   1.63689   1.64285
 Alpha virt. eigenvalues --    1.65110   1.66306   1.69991   1.70895   1.71970
 Alpha virt. eigenvalues --    1.73203   1.75456   1.78713   1.80292   1.83748
 Alpha virt. eigenvalues --    1.86966   1.87030   1.89072   1.89737   1.89782
 Alpha virt. eigenvalues --    1.92773   1.93107   1.93287   1.93909   1.94134
 Alpha virt. eigenvalues --    1.96428   1.99278   2.00949   2.02235   2.03871
 Alpha virt. eigenvalues --    2.04445   2.05239   2.06394   2.07418   2.07784
 Alpha virt. eigenvalues --    2.10007   2.10285   2.12117   2.15857   2.18111
 Alpha virt. eigenvalues --    2.21612   2.21885   2.22658   2.23655   2.26741
 Alpha virt. eigenvalues --    2.28158   2.28882   2.29364   2.30914   2.32866
 Alpha virt. eigenvalues --    2.33919   2.35023   2.35581   2.35766   2.37252
 Alpha virt. eigenvalues --    2.39506   2.39920   2.42607   2.43029   2.46812
 Alpha virt. eigenvalues --    2.49019   2.51293   2.51564   2.53982   2.56288
 Alpha virt. eigenvalues --    2.57678   2.57951   2.60733   2.61360   2.62831
 Alpha virt. eigenvalues --    2.65722   2.67541   2.70129   2.72280   2.73712
 Alpha virt. eigenvalues --    2.74381   2.77241   2.79535   2.80282   2.80997
 Alpha virt. eigenvalues --    2.82670   2.83123   2.83855   2.85544   2.86084
 Alpha virt. eigenvalues --    2.88091   2.90777   2.91375   2.92335   2.96626
 Alpha virt. eigenvalues --    2.98746   3.00547   3.02444   3.03153   3.08036
 Alpha virt. eigenvalues --    3.12379   3.12779   3.17318   3.22942   3.23934
 Alpha virt. eigenvalues --    3.24866   3.27558   3.29352   3.32572   3.34691
 Alpha virt. eigenvalues --    3.37598   3.42178   3.42706   3.47362   3.51166
 Alpha virt. eigenvalues --    3.52660   3.53639   3.64032   3.66361   3.67171
 Alpha virt. eigenvalues --    3.70848   3.87688   4.10071   4.41517
     Molecular Orbital Coefficients:
                          75        76        77        78        79
                           O         O         O         O         O
     Eigenvalues --    -0.15184  -0.12563  -0.12170  -0.11132  -0.06640
   1 1   S  1S         -0.00009   0.00523   0.00359  -0.00156   0.00036
   2        2S         -0.00067   0.03488   0.02397  -0.01039   0.00226
   3        3S          0.00385  -0.05840  -0.04048   0.01674  -0.00080
   4        4S         -0.01122  -0.06093  -0.04904   0.02412  -0.02129
   5        5PX         0.00274  -0.02670  -0.01553   0.00430  -0.00639
   6        5PY         0.00060  -0.02155  -0.01234   0.00180  -0.01309
   7        5PZ         0.00451   0.01917   0.00911  -0.00245   0.00248
   8        6PX         0.00786  -0.05627  -0.03261   0.01033  -0.01353
   9        6PY         0.00232  -0.04649  -0.02593   0.00523  -0.01856
  10        6PZ         0.00262   0.04326   0.02040  -0.00597   0.00823
  11        7PX        -0.00341  -0.02424  -0.00816  -0.00403  -0.00300
  12        7PY        -0.00660  -0.00934  -0.01455  -0.00819  -0.11323
  13        7PZ         0.07459  -0.03018  -0.00735   0.01054  -0.05255
  14        8D 0       -0.02513   0.01248   0.01067  -0.00687   0.00054
  15        8D+1       -0.00913   0.03686   0.01873  -0.01588  -0.03333
  16        8D-1        0.02859   0.02214   0.00414  -0.01435  -0.00339
  17        8D+2        0.00491  -0.02046  -0.01737   0.01661   0.05801
  18        8D-2        0.05188  -0.04168  -0.01674   0.00047  -0.02037
  19 2   S  1S          0.00083   0.00079  -0.00013  -0.00017   0.00120
  20        2S          0.00557   0.00543  -0.00167  -0.00112   0.00810
  21        3S         -0.01378  -0.01322   0.01311   0.00235  -0.01817
  22        4S          0.00821  -0.01425   0.05468  -0.00016  -0.00204
  23        5PX         0.01473  -0.02181  -0.05380  -0.05601  -0.00799
  24        5PY        -0.01217   0.01693   0.05696   0.12834   0.02483
  25        5PZ        -0.00376   0.01979  -0.09174   0.10999   0.02543
  26        6PX         0.02775  -0.03916  -0.09532  -0.09917  -0.01232
  27        6PY        -0.02239   0.02926   0.10332   0.22761   0.04403
  28        6PZ        -0.00664   0.03473  -0.16641   0.19536   0.04601
  29        7PX         0.02532  -0.06628  -0.15392  -0.14174  -0.03154
  30        7PY        -0.02560   0.03372   0.16339   0.33557   0.07253
  31        7PZ        -0.00918   0.06331  -0.25778   0.28518   0.07243
  32        8D 0        0.00717   0.00127   0.00152  -0.01102  -0.01176
  33        8D+1        0.00328  -0.00307   0.00079   0.00026  -0.01147
  34        8D-1        0.00558  -0.00606  -0.00938  -0.00239  -0.00746
  35        8D+2       -0.00584  -0.00309   0.00191  -0.00150   0.00916
  36        8D-2        0.01373  -0.00564   0.00328  -0.00543  -0.01200
  37 3   O  1S         -0.00100  -0.00021  -0.00101  -0.00184  -0.00820
  38        2S         -0.00337   0.00142  -0.00214  -0.00597  -0.01627
  39        3S          0.01378  -0.01198  -0.00253   0.00062  -0.06329
  40        4PX        -0.14116   0.09330   0.03331  -0.04259  -0.08041
  41        4PY        -0.12303  -0.04134  -0.05493  -0.01357  -0.07848
  42        4PZ         0.25518   0.06953   0.07732  -0.01992   0.02642
  43        5PX        -0.10882   0.07451   0.02683  -0.03128  -0.06920
  44        5PY        -0.08945  -0.03986  -0.04409  -0.00641  -0.06880
  45        5PZ         0.19092   0.05087   0.05846  -0.01361   0.00826
  46        6D 0        0.01158   0.00367   0.00402  -0.00022   0.00301
  47        6D+1       -0.00262   0.00266   0.00114  -0.00112  -0.00276
  48        6D-1        0.00355  -0.00007   0.00011  -0.00013  -0.00052
  49        6D+2        0.00365   0.00316   0.00239  -0.00033   0.00220
  50        6D-2       -0.00589   0.00083  -0.00030  -0.00073  -0.00265
  51 4   O  1S          0.00059  -0.00010   0.00032  -0.00319  -0.00226
  52        2S          0.00090  -0.00065   0.00139  -0.00651  -0.00658
  53        3S         -0.01352   0.02411   0.00769  -0.01631   0.00792
  54        4PX         0.00726   0.21099   0.11563  -0.03549   0.03166
  55        4PY         0.21678   0.15211   0.11254  -0.05392   0.06218
  56        4PZ         0.12594  -0.09812  -0.05038   0.00793   0.01876
  57        5PX         0.00739   0.16622   0.08957  -0.02635   0.02480
  58        5PY         0.16707   0.12137   0.08995  -0.04028   0.06539
  59        5PZ         0.09647  -0.08331  -0.04222   0.01089   0.01448
  60        6D 0       -0.00591   0.00383   0.00135  -0.00011  -0.00076
  61        6D+1       -0.00084  -0.00598  -0.00368   0.00147  -0.00115
  62        6D-1       -0.00807  -0.00568  -0.00404   0.00215  -0.00207
  63        6D+2       -0.00352  -0.00478  -0.00313   0.00125  -0.00011
  64        6D-2       -0.00280   0.00023  -0.00002   0.00105  -0.00066
  65 5   N  1S          0.01111   0.06546   0.03273  -0.01118   0.01267
  66        2S          0.02620   0.13823   0.07117  -0.02325   0.02808
  67        3S          0.04301   0.16898  -0.01987  -0.01957   0.04859
  68        4PX        -0.03305   0.03302   0.09675  -0.03959  -0.11104
  69        4PY         0.17616  -0.19946  -0.11126   0.11016   0.25412
  70        4PZ         0.08137   0.27274   0.22671  -0.01438   0.18832
  71        5PX         0.02824  -0.04285  -0.12964   0.04142   0.11062
  72        5PY        -0.12975   0.14282   0.06968  -0.08660  -0.22602
  73        5PZ        -0.04904  -0.20096  -0.18624   0.00593  -0.16314
  74        6D 0       -0.00685  -0.00910  -0.00590  -0.00026  -0.01075
  75        6D+1       -0.00283  -0.00475  -0.00413   0.00159   0.00609
  76        6D-1       -0.00785   0.01233   0.00588  -0.00434  -0.00513
  77        6D+2       -0.00028   0.00387   0.00100  -0.00125  -0.00784
  78        6D-2       -0.00535   0.00209   0.00014  -0.00139  -0.00209
  79 6   N  1S         -0.00009  -0.08023   0.06143   0.01431   0.00111
  80        2S         -0.00050  -0.16637   0.12519   0.02954   0.00055
  81        3S          0.00892  -0.22324   0.09954   0.04378   0.01896
  82        4PX         0.02925  -0.18101   0.10410  -0.02267   0.10961
  83        4PY         0.00666   0.14136  -0.22013   0.09027  -0.21210
  84        4PZ        -0.04550  -0.21376   0.31220   0.13686  -0.20395
  85        5PX        -0.01736   0.13997  -0.07214   0.01396  -0.09704
  86        5PY        -0.00274  -0.09535   0.17206  -0.07384   0.16931
  87        5PZ         0.03529   0.14460  -0.23700  -0.10237   0.17049
  88        6D 0        0.00209   0.00308  -0.00530  -0.00653   0.01251
  89        6D+1        0.00498   0.00932  -0.00628  -0.00194  -0.00381
  90        6D-1        0.00128  -0.00922   0.01224  -0.00027   0.00130
  91        6D+2       -0.00733   0.00135   0.00120  -0.00174   0.00632
  92        6D-2        0.00530  -0.00397   0.00275  -0.00300   0.00365
  93 7   C  1S          0.00795  -0.00903  -0.00119  -0.00266  -0.01581
  94        2S         -0.02118   0.01765  -0.00326   0.00965   0.04490
  95        3S         -0.01958   0.02269   0.02731  -0.01181   0.01097
  96        4PX         0.02727   0.01237  -0.00887   0.01980   0.06304
  97        4PY         0.11337  -0.06982  -0.03332   0.01118  -0.01923
  98        4PZ        -0.06634   0.02586   0.02033  -0.00945  -0.01185
  99        5PX        -0.00184   0.04918   0.02103  -0.00205   0.09829
 100        5PY         0.04692  -0.03345  -0.02117  -0.00136  -0.06579
 101        5PZ        -0.09640   0.03116   0.00704  -0.01476   0.03471
 102        6D 0       -0.00098  -0.00032   0.00011  -0.00008  -0.00062
 103        6D+1        0.00418  -0.00189  -0.00151   0.00057   0.00193
 104        6D-1       -0.00114   0.00008   0.00017  -0.00022  -0.00080
 105        6D+2       -0.00330   0.00154   0.00137  -0.00184  -0.00689
 106        6D-2        0.00008   0.00005   0.00045  -0.00071  -0.00393
 107 8   C  1S          0.00777  -0.00359   0.04517   0.00053   0.00504
 108        2S         -0.02154   0.01419  -0.10691  -0.00293  -0.01909
 109        3S         -0.02046   0.03120   0.05439  -0.01407  -0.01619
 110        4PX         0.10707   0.08174   0.00953  -0.00895  -0.02877
 111        4PY        -0.09889   0.06063  -0.08750  -0.02157   0.08143
 112        4PZ        -0.11779  -0.02451   0.09126  -0.00638   0.06535
 113        5PX         0.04767   0.03791  -0.10895   0.00161  -0.03943
 114        5PY        -0.07981   0.03516   0.01299  -0.01049   0.05180
 115        5PZ        -0.07234  -0.01357  -0.09644   0.01069   0.07224
 116        6D 0       -0.00086   0.00192   0.02070   0.01590  -0.00135
 117        6D+1        0.00145   0.01186   0.01667  -0.00561   0.01556
 118        6D-1        0.00385   0.00867  -0.01190   0.00347   0.01088
 119        6D+2       -0.00789   0.01318  -0.00847   0.00324  -0.02207
 120        6D-2        0.00892  -0.00299  -0.02322   0.00925   0.01653
 121 9   C  1S          0.00377   0.02619  -0.03422  -0.00466  -0.00242
 122        2S         -0.00988  -0.06797   0.08747   0.01249   0.00586
 123        3S         -0.00655  -0.17356   0.12213   0.02916   0.00048
 124        4PX        -0.04428   0.07027  -0.04426   0.02438   0.06205
 125        4PY         0.07534  -0.06013   0.02754  -0.06824  -0.14993
 126        4PZ         0.07832   0.05722  -0.05858  -0.08000  -0.12072
 127        5PX        -0.03167  -0.06357   0.04703   0.03252   0.06420
 128        5PY         0.05669  -0.05921   0.03004  -0.02841  -0.13269
 129        5PZ         0.05197  -0.00137  -0.01432  -0.03187  -0.09327
 130        6D 0       -0.00863  -0.00048  -0.00382   0.00080   0.00447
 131        6D+1       -0.00104   0.00356  -0.00052  -0.01140  -0.00291
 132        6D-1       -0.00288   0.00117   0.00370  -0.00535  -0.00035
 133        6D+2       -0.00234   0.00559   0.00359   0.01099   0.00365
 134        6D-2       -0.00401  -0.00489   0.00246  -0.00923  -0.00002
 135 10  C  1S          0.00055  -0.02625   0.03203   0.00501   0.00120
 136        2S         -0.00244   0.06667  -0.08493  -0.01231  -0.00254
 137        3S         -0.01433   0.00165  -0.00888   0.00679   0.01264
 138        4PX        -0.04719  -0.10818   0.06501   0.04237   0.03930
 139        4PY         0.15560   0.02293  -0.01192  -0.05695  -0.07622
 140        4PZ         0.12312  -0.09324   0.05454  -0.02708  -0.06857
 141        5PX        -0.03987   0.00942  -0.05587   0.01947   0.00362
 142        5PY         0.09125  -0.02278  -0.00994  -0.04081  -0.03466
 143        5PZ         0.08616   0.02634  -0.01231  -0.04421  -0.01631
 144        6D 0        0.00151  -0.01002   0.01087  -0.00263  -0.01091
 145        6D+1       -0.00221  -0.00504   0.01128   0.00918  -0.01277
 146        6D-1        0.00065   0.00461  -0.00509   0.00169  -0.00852
 147        6D+2        0.00062   0.00303  -0.00533  -0.01007   0.00983
 148        6D-2        0.00343   0.01230  -0.01507   0.00333  -0.01616
 149 11  C  1S         -0.00235  -0.01104   0.01421   0.00150  -0.00186
 150        2S          0.00544   0.02485  -0.03187  -0.00327   0.00512
 151        3S          0.02621   0.09910  -0.07737  -0.02731   0.00213
 152        4PX        -0.04433  -0.03523   0.04769  -0.05749   0.05281
 153        4PY         0.04578   0.01446   0.03700   0.15137  -0.13818
 154        4PZ         0.05015   0.05024  -0.00398   0.12469  -0.11474
 155        5PX        -0.02851  -0.03545   0.00230  -0.04335   0.04802
 156        5PY         0.03149   0.02529  -0.00593   0.11630  -0.13091
 157        5PZ         0.04095   0.01453   0.01891   0.09504  -0.11164
 158        6D 0        0.00107  -0.00188   0.00159   0.00396  -0.00244
 159        6D+1       -0.00608   0.00156   0.00072   0.00514   0.00306
 160        6D-1       -0.00217   0.00441  -0.00203   0.00254   0.00060
 161        6D+2        0.00584   0.00266  -0.00099  -0.00495  -0.00418
 162        6D-2       -0.00438   0.00281  -0.00086   0.00640   0.00183
 163 12  H  1S         -0.00091  -0.02206   0.00696   0.00381   0.00010
 164        2S         -0.00357  -0.07268   0.06987   0.01234  -0.00268
 165        3PX        -0.00127   0.00005   0.00001  -0.00269   0.00226
 166        3PY         0.00203   0.00124   0.00086   0.00614  -0.00524
 167        3PZ         0.00186   0.00209  -0.00037   0.00516  -0.00449
 168 13  C  1S         -0.00051   0.00105  -0.00496   0.00196   0.00172
 169        2S          0.00087   0.00069   0.00939  -0.00550  -0.00482
 170        3S         -0.01243  -0.00346   0.02829   0.00553   0.00888
 171        4PX         0.04784  -0.02393  -0.02231  -0.06899  -0.01712
 172        4PY        -0.07304   0.04179  -0.00780   0.14882   0.04356
 173        4PZ        -0.06225   0.01988   0.00451   0.13162   0.03609
 174        5PX         0.03478  -0.00928  -0.02712  -0.06488  -0.02256
 175        5PY        -0.04832   0.03070   0.00879   0.12059   0.02059
 176        5PZ        -0.04443   0.02532  -0.01733   0.11261   0.02884
 177        6D 0       -0.00804  -0.00194   0.00061  -0.00658   0.01173
 178        6D+1       -0.00143  -0.00087   0.00175  -0.00243   0.00261
 179        6D-1       -0.00303  -0.00014  -0.00043  -0.00310   0.00524
 180        6D+2       -0.00173   0.00044   0.00020   0.00039   0.00071
 181        6D-2       -0.00354  -0.00125  -0.00209  -0.00589   0.00878
 182 14  C  1S          0.00190  -0.00030   0.00451   0.00048  -0.00295
 183        2S         -0.00400   0.00145  -0.01190  -0.00150   0.00670
 184        3S          0.00535  -0.00885  -0.02495  -0.00758  -0.00756
 185        4PX         0.04575   0.00937   0.01590   0.01580  -0.06270
 186        4PY        -0.13691  -0.01189   0.01184  -0.03873   0.15064
 187        4PZ        -0.10946   0.00034  -0.01378  -0.03662   0.12803
 188        5PX         0.03009   0.00912   0.01084   0.01961  -0.04181
 189        5PY        -0.09745  -0.01636   0.02071  -0.04049   0.14000
 190        5PZ        -0.08158   0.00631  -0.02628  -0.03259   0.12016
 191        6D 0        0.00263  -0.00397   0.00051  -0.01118  -0.00163
 192        6D+1       -0.00032   0.00237   0.00097   0.00719   0.00105
 193        6D-1        0.00097   0.00119  -0.00044  -0.00111  -0.00029
 194        6D+2       -0.00060  -0.00070  -0.00054  -0.01092  -0.00164
 195        6D-2        0.00202   0.00055  -0.00091   0.00018   0.00034
 196 15  C  1S         -0.00066  -0.01449   0.00350   0.00240   0.00149
 197        2S          0.00145   0.03693  -0.01322  -0.00617  -0.00349
 198        3S         -0.00150   0.14750  -0.03964  -0.02893   0.00032
 199        4PX         0.03248  -0.03411   0.01309   0.09209   0.00007
 200        4PY        -0.04554  -0.03742  -0.02527  -0.18118   0.00324
 201        4PZ        -0.04381  -0.07053   0.02543  -0.14141   0.00327
 202        5PX         0.01833  -0.06315   0.05964   0.07672   0.00972
 203        5PY        -0.03724  -0.03140   0.00233  -0.13655   0.00261
 204        5PZ        -0.02866  -0.06694   0.02303  -0.10636  -0.00749
 205        6D 0        0.00023  -0.00107   0.00228   0.00449   0.00140
 206        6D+1       -0.00618  -0.00060   0.00151  -0.00019   0.00829
 207        6D-1       -0.00250   0.00213  -0.00128   0.00074   0.00471
 208        6D+2        0.00618   0.00175  -0.00105   0.00085  -0.00850
 209        6D-2       -0.00480   0.00244  -0.00261   0.00153   0.00920
 210 16  H  1S          0.00912   0.00262  -0.01801   0.00166   0.00169
 211        2S          0.00679   0.00321  -0.02291   0.00264   0.00873
 212        3PX         0.00171  -0.00121  -0.00053  -0.00321  -0.00061
 213        3PY        -0.00298   0.00160  -0.00004   0.00640   0.00163
 214        3PZ        -0.00240   0.00096   0.00011   0.00568   0.00179
 215 17  H  1S         -0.00542   0.01176   0.00412  -0.00162  -0.00419
 216        2S         -0.00304   0.00716   0.01160  -0.00366  -0.00892
 217        3PX         0.00192   0.00022  -0.00001   0.00029  -0.00269
 218        3PY        -0.00554  -0.00024   0.00000  -0.00141   0.00684
 219        3PZ        -0.00463  -0.00017  -0.00025  -0.00106   0.00603
 220 18  H  1S         -0.00253  -0.02917   0.03513   0.00594  -0.00202
 221        2S         -0.00237  -0.03245   0.00243   0.00923   0.00230
 222        3PX         0.00115   0.00021   0.00108   0.00335  -0.00038
 223        3PY        -0.00201  -0.00188   0.00037  -0.00729   0.00054
 224        3PZ        -0.00169  -0.00154  -0.00044  -0.00580   0.00056
 225 19  C  1S          0.00165  -0.00125  -0.00042  -0.00007  -0.00082
 226        2S         -0.00469   0.00410   0.00188  -0.00002   0.00145
 227        3S         -0.01059   0.00568   0.00274  -0.00272   0.00644
 228        4PX         0.01027  -0.00165  -0.00262   0.00299   0.00769
 229        4PY         0.02459  -0.01004  -0.00587   0.00318   0.00511
 230        4PZ        -0.01364   0.00541   0.00373  -0.00267  -0.00522
 231        5PX         0.00314   0.00080  -0.00024   0.00027   0.00493
 232        5PY         0.00986  -0.00340  -0.00167   0.00060   0.00060
 233        5PZ        -0.00984   0.00450   0.00280  -0.00244   0.00046
 234        6D 0        0.00129  -0.00047  -0.00031   0.00021   0.00038
 235        6D+1        0.00152  -0.00077  -0.00052   0.00033   0.00084
 236        6D-1       -0.00227   0.00113   0.00083  -0.00056  -0.00138
 237        6D+2       -0.00483   0.00185   0.00133  -0.00103  -0.00253
 238        6D-2       -0.00162   0.00059   0.00046  -0.00034  -0.00088
 239 20  H  1S         -0.00005   0.00047   0.00041  -0.00034  -0.00112
 240        2S          0.00676  -0.00203  -0.00110   0.00179  -0.00366
 241        3PX         0.00044  -0.00012  -0.00011   0.00013   0.00032
 242        3PY         0.00101  -0.00042  -0.00023   0.00014   0.00027
 243        3PZ        -0.00058   0.00020   0.00019  -0.00014  -0.00037
 244 21  H  1S          0.03139  -0.01246  -0.00864   0.00610   0.01374
 245        2S          0.02138  -0.01060  -0.00710   0.00481   0.01281
 246        3PX        -0.00042   0.00028   0.00016  -0.00005  -0.00022
 247        3PY         0.00081  -0.00045  -0.00030   0.00019   0.00041
 248        3PZ         0.00065  -0.00030  -0.00020   0.00013   0.00023
 249 22  H  1S         -0.02873   0.01086   0.00797  -0.00581  -0.01325
 250        2S         -0.01738   0.00711   0.00587  -0.00487  -0.01331
 251        3PX         0.00026  -0.00003  -0.00007   0.00012   0.00042
 252        3PY        -0.00032  -0.00003   0.00001  -0.00010  -0.00032
 253        3PZ        -0.00073   0.00021   0.00014  -0.00010  -0.00035
 254 23  C  1S          0.00010  -0.00038  -0.00004  -0.00007  -0.00070
 255        2S          0.00007   0.00041  -0.00054   0.00077   0.00176
 256        3S         -0.03449   0.04260   0.01978   0.00145   0.01316
 257        4PX        -0.05898   0.02291   0.01686  -0.01311  -0.03207
 258        4PY        -0.08029   0.03211   0.02259  -0.01653  -0.03988
 259        4PZ         0.05974  -0.02646  -0.01869   0.01249   0.02858
 260        5PX        -0.04752   0.03340   0.02339  -0.01187  -0.03128
 261        5PY        -0.04163   0.01543   0.01248  -0.01021  -0.04381
 262        5PZ         0.07632  -0.02541  -0.01627   0.01568   0.02157
 263        6D 0        0.00002  -0.00076  -0.00043  -0.00005  -0.00060
 264        6D+1        0.00272  -0.00098  -0.00046   0.00018  -0.00011
 265        6D-1       -0.00047   0.00023   0.00027  -0.00016  -0.00000
 266        6D+2       -0.00252   0.00089   0.00059  -0.00037  -0.00053
 267        6D-2        0.00067  -0.00043  -0.00002  -0.00013  -0.00027
 268 24  C  1S         -0.00025  -0.00249  -0.00080   0.00007  -0.00184
 269        2S         -0.00035   0.00510   0.00149  -0.00029   0.00130
 270        3S          0.05663  -0.00691  -0.01051   0.00034   0.00740
 271        4PX        -0.02535   0.01996   0.01065  -0.00313   0.00744
 272        4PY        -0.02180   0.00252   0.00670  -0.00479  -0.00710
 273        4PZ         0.01737  -0.00945  -0.00694   0.00375   0.00137
 274        5PX         0.02199   0.01574   0.00632   0.00428   0.01002
 275        5PY        -0.03853   0.00369   0.00695  -0.00251  -0.00372
 276        5PZ         0.01016   0.00489  -0.00032   0.00800  -0.00973
 277        6D 0       -0.00273   0.00094   0.00075  -0.00052  -0.00153
 278        6D+1       -0.00202   0.00105   0.00057  -0.00044  -0.00106
 279        6D-1        0.00386  -0.00188  -0.00109   0.00078   0.00177
 280        6D+2        0.00503  -0.00206  -0.00162   0.00127   0.00368
 281        6D-2        0.00278  -0.00131  -0.00091   0.00073   0.00166
 282 25  C  1S         -0.00003   0.00335   0.00130  -0.00082  -0.00001
 283        2S          0.00505  -0.00736  -0.00296   0.00511   0.00686
 284        3S         -0.03733  -0.02948  -0.00519  -0.01069  -0.02949
 285        4PX         0.04783  -0.02975  -0.01852   0.01225   0.02823
 286        4PY         0.05950  -0.01747  -0.01675   0.01380   0.04236
 287        4PZ        -0.05813   0.02834   0.01583  -0.01329  -0.03023
 288        5PX         0.06312  -0.02824  -0.01857   0.00065  -0.00102
 289        5PY        -0.01093  -0.00915  -0.00951   0.00530   0.04344
 290        5PZ        -0.06666   0.01424   0.01058  -0.02516  -0.03046
 291        6D 0        0.00477  -0.00311  -0.00170   0.00068   0.00037
 292        6D+1       -0.00151  -0.00042   0.00043  -0.00097  -0.00149
 293        6D-1       -0.00064   0.00045   0.00030  -0.00013  -0.00053
 294        6D+2        0.00332  -0.00197  -0.00131   0.00020  -0.00096
 295        6D-2       -0.00092  -0.00022   0.00035  -0.00056  -0.00176
 296 26  C  1S         -0.00461   0.00277   0.00133   0.00137   0.00516
 297        2S          0.00854  -0.01153  -0.00824  -0.00142  -0.00915
 298        3S         -0.00837   0.09800   0.05404  -0.03272   0.05139
 299        4PX         0.05653  -0.03523  -0.02219   0.00851   0.01687
 300        4PY         0.03223  -0.02346  -0.02065   0.01776   0.04685
 301        4PZ        -0.02308   0.00578   0.00763  -0.01108  -0.03571
 302        5PX        -0.01287  -0.02591  -0.02509   0.01080   0.03843
 303        5PY         0.02973   0.00507   0.00444   0.00642   0.05345
 304        5PZ        -0.03963   0.02551   0.01425  -0.01073   0.01318
 305        6D 0       -0.00183   0.00013   0.00085  -0.00104  -0.00308
 306        6D+1        0.00024  -0.00043  -0.00036   0.00007   0.00049
 307        6D-1        0.00421  -0.00262  -0.00131   0.00053  -0.00025
 308        6D+2        0.00313  -0.00017  -0.00033   0.00045   0.00115
 309        6D-2        0.00444  -0.00255  -0.00107   0.00029  -0.00113
 310 27  C  1S          0.00218  -0.00166  -0.00018  -0.00097  -0.00379
 311        2S         -0.00680   0.00643   0.00182   0.00218   0.00809
 312        3S          0.01114  -0.06788  -0.04888   0.02665  -0.00191
 313        4PX        -0.05833   0.02012   0.00792  -0.00158   0.00585
 314        4PY        -0.03554   0.00370   0.00438  -0.00722  -0.01858
 315        4PZ         0.02224  -0.00357  -0.00185   0.00270   0.00532
 316        5PX        -0.04478  -0.01394  -0.01487   0.00427   0.00036
 317        5PY         0.00552   0.00775   0.00985  -0.00612  -0.01535
 318        5PZ         0.04228  -0.01730  -0.00575   0.00161  -0.01518
 319        6D 0        0.00344  -0.00150  -0.00109   0.00078   0.00196
 320        6D+1       -0.00216   0.00051   0.00071  -0.00090  -0.00320
 321        6D-1       -0.00081   0.00050   0.00018   0.00011   0.00071
 322        6D+2        0.00531  -0.00301  -0.00211   0.00136   0.00316
 323        6D-2       -0.00087   0.00064   0.00034  -0.00014   0.00024
 324 28  H  1S          0.00316  -0.00488  -0.00102  -0.00007  -0.00158
 325        2S         -0.00024  -0.00844  -0.00213  -0.00367   0.00129
 326        3PX        -0.00185   0.00070   0.00048  -0.00032  -0.00004
 327        3PY        -0.00071   0.00044   0.00040  -0.00020  -0.00045
 328        3PZ         0.00055  -0.00044  -0.00029   0.00012   0.00006
 329 29  H  1S          0.00830  -0.00715  -0.00270  -0.00124  -0.00639
 330        2S          0.01276  -0.00728  -0.00178  -0.00465  -0.01476
 331        3PX        -0.00237   0.00133   0.00074  -0.00029   0.00021
 332        3PY        -0.00252   0.00027   0.00016  -0.00032  -0.00092
 333        3PZ         0.00076  -0.00037  -0.00029   0.00010   0.00046
 334 30  H  1S          0.00072  -0.00841  -0.00359   0.00056  -0.00481
 335        2S          0.03443   0.00969   0.00506   0.02372   0.01213
 336        3PX         0.00227  -0.00099  -0.00032  -0.00000   0.00159
 337        3PY         0.00154  -0.00078  -0.00091   0.00083   0.00135
 338        3PZ        -0.00157   0.00091   0.00053  -0.00074  -0.00090
 339 31  H  1S          0.00750  -0.00400  -0.00047  -0.00230  -0.00855
 340        2S         -0.01593  -0.01799  -0.00612   0.00693   0.01148
 341        3PX         0.00170  -0.00184  -0.00120   0.00050   0.00060
 342        3PY         0.00136   0.00030  -0.00002   0.00028   0.00133
 343        3PZ        -0.00042   0.00063   0.00074  -0.00050  -0.00163
                          80        81        82        83        84
                           V         V         V         V         V
     Eigenvalues --     0.08582   0.09289   0.11418   0.13881   0.16530
   1 1   S  1S          0.00100   0.00121   0.00029  -0.00179   0.00342
   2        2S          0.00688   0.00820   0.00201  -0.01219   0.02373
   3        3S         -0.01316  -0.01426  -0.00580   0.02661  -0.05795
   4        4S         -0.03913  -0.03399   0.00762   0.01745  -0.00896
   5        5PX        -0.00346  -0.00328   0.00092  -0.00217   0.01116
   6        5PY        -0.01903  -0.02277  -0.00576   0.01781  -0.00804
   7        5PZ         0.01067   0.00359  -0.00601   0.00842  -0.00142
   8        6PX        -0.00692  -0.00508   0.00144  -0.00165   0.02628
   9        6PY        -0.03515  -0.04170  -0.01088   0.03174  -0.01958
  10        6PZ         0.01923   0.00662  -0.00982   0.01301  -0.00323
  11        7PX        -0.00321  -0.02135   0.00053  -0.03130   0.01981
  12        7PY        -0.09914  -0.12293  -0.03049   0.11854  -0.00339
  13        7PZ         0.08477  -0.00579  -0.05150   0.10009  -0.01169
  14        8D 0       -0.00443  -0.00329   0.00596  -0.00910   0.00184
  15        8D+1       -0.03876  -0.03238  -0.00263   0.01420   0.00215
  16        8D-1        0.01125  -0.00529  -0.00663   0.00475   0.00147
  17        8D+2        0.04370   0.05369   0.00790  -0.03079   0.00005
  18        8D-2        0.01590   0.01379  -0.02083   0.02398   0.00236
  19 2   S  1S          0.00013   0.00067   0.00051  -0.00111  -0.00012
  20        2S          0.00091   0.00450   0.00345  -0.00747  -0.00085
  21        3S         -0.00482  -0.00719  -0.00544   0.01322   0.00298
  22        4S          0.01794  -0.03056  -0.00944   0.02173  -0.00634
  23        5PX         0.00052   0.00380  -0.00056  -0.03271   0.00518
  24        5PY        -0.00975  -0.01358   0.01025   0.05941   0.00203
  25        5PZ        -0.01403  -0.01372   0.01354   0.04531   0.00259
  26        6PX         0.00252   0.00935  -0.00042  -0.05853   0.00783
  27        6PY        -0.01686  -0.02311   0.01592   0.10460   0.00380
  28        6PZ        -0.02506  -0.02450   0.02258   0.07955   0.00420
  29        7PX        -0.01787  -0.01026  -0.00153  -0.13260   0.03671
  30        7PY        -0.03627  -0.06198   0.05777   0.24445   0.00662
  31        7PZ        -0.05724  -0.04290   0.06843   0.18239   0.01777
  32        8D 0       -0.00801  -0.01252  -0.00065   0.03875   0.00262
  33        8D+1       -0.00552  -0.00565  -0.01950  -0.02690   0.00334
  34        8D-1       -0.00336  -0.00472  -0.00993   0.00209  -0.00133
  35        8D+2       -0.00033   0.00195   0.02487   0.02978   0.00017
  36        8D-2       -0.00112  -0.00267  -0.02252  -0.00120  -0.00487
  37 3   O  1S         -0.00631  -0.00513  -0.00424   0.00824   0.00274
[...]
 704,-0.00092772,0.00005502,0.00011346,0.00013263,-0.00021621,0.0000342
 7,0.00007339,-0.00066844,-0.00052156,-0.00040208,-0.00000606,0.0444879
 3,0.04149843,0.06095737,0.03339896,0.06423294,-0.25777025,0.18341986,0
 .08971709,0.73424031,-0.00891050,-0.01410403,0.00657471,-0.00000204,-0
 .00017198,0.00003210,-0.00075134,0.00010542,-0.00103071,0.00044896,-0.
 00169038,-0.00129094,-0.00109797,0.00053127,-0.00012783,0.00002301,0.0
 0006229,-0.00004445,-0.24197666,-0.20459515,-0.04848667,0.00051604,-0.
 00036448,0.00030965,-0.00013050,0.00000753,-0.00002630,-0.00002548,-0.
 00001569,0.00009408,0.00005654,-0.00000128,-0.00001612,0.00000198,-0.0
 0000034,0.00000930,-0.00004446,-0.00008342,-0.00001691,-0.00010156,0.0
 0004864,0.00000916,0.00009012,0.00003593,-0.00003898,-0.00000680,0.000
 00292,-0.00000117,-0.00000443,0.00000103,0.00001522,0.00000496,-0.0000
 0361,-0.00000502,0.00323599,-0.00312175,-0.00408696,0.00061599,0.00025
 198,-0.00072754,-0.00073846,-0.00117181,0.00078257,-0.00008227,0.00024
 628,-0.00057948,0.03602685,0.02408770,0.03488788,-0.03282700,-0.027666
 28,0.01173018,-0.00130262,-0.00420407,-0.05734781,0.39962723,-0.013266
 31,-0.01316670,0.00943246,0.00005627,-0.00014932,0.00010721,-0.0022170
 8,-0.00147008,-0.00091405,-0.00007187,-0.00263561,-0.00070601,-0.00080
 750,0.00129879,-0.00268701,-0.00013011,-0.00007366,0.00006456,-0.20258
 443,-0.28426648,-0.05010959,0.00062088,0.00011514,0.00073447,-0.000401
 78,-0.00005964,-0.00001677,0.00009699,0.00006569,-0.00005017,0.0000798
 7,-0.00001790,-0.00002751,0.00000599,-0.00000151,-0.00000114,-0.000073
 83,-0.00018632,-0.00000953,-0.00024675,0.00010053,0.00000526,0.0002371
 6,0.00007998,-0.00000940,-0.00001571,0.00000541,0.00000141,-0.00000671
 ,0.00000270,0.00001510,0.00000235,-0.00001050,-0.00000493,-0.00347522,
 0.00387244,-0.00341703,0.00002476,0.00062358,-0.00062752,0.00005300,-0
 .00002810,-0.00085932,-0.00103445,-0.00105450,0.00066795,0.03189010,0.
 03662625,0.04838941,-0.02950579,-0.04469643,0.01450971,-0.01023158,0.0
 1133563,-0.06460150,0.37539946,0.48618955,0.01116521,0.01568592,0.0130
 6326,-0.00019719,0.00057231,0.00004423,0.00032101,-0.00011619,-0.00243
 344,0.00355025,0.00792022,-0.00284021,0.00445452,-0.00075654,-0.001867
 62,0.00149432,-0.00047569,-0.00005005,-0.08781641,-0.09703325,-0.14488
 215,-0.00288577,-0.00061923,-0.00079190,0.00015660,0.00025546,0.000064
 43,-0.00053829,-0.00041051,0.00004399,0.00009899,-0.00007742,-0.000003
 12,0.00000176,-0.00000387,0.00000566,0.00007791,0.00010333,-0.00000489
 ,0.00031287,-0.00006234,0.00000545,-0.00026548,-0.00010379,0.00001595,
 0.00002244,-0.00001065,0.00000030,0.00002063,-0.00000562,-0.00003063,-
 0.00002105,0.00001544,0.00000853,-0.00264228,-0.00335101,-0.00233280,0
 .00052229,0.00082645,-0.00071361,0.00005254,0.00031130,0.00044785,0.00
 042799,0.00010427,0.00039410,-0.00236717,0.00797804,-0.05045073,0.0128
 8840,0.01484657,-0.00682628,-0.02965102,-0.03333674,0.00345252,0.22450
 382,0.10618021,1.24817148,0.00268199,-0.00471409,-0.00699913,0.0001631
 9,0.00003377,-0.00000042,0.00110081,0.00083039,0.00175448,-0.00179237,
 -0.00177231,0.00210773,0.00105098,0.00058051,0.00037673,-0.00008725,0.
 00003602,0.00006878,-0.01566919,-0.02879760,0.00818943,0.00008015,0.00
 000923,-0.00056564,0.00024183,-0.00001062,0.00001507,-0.00002806,0.000
 02277,0.00000929,-0.00000845,0.00002055,0.00001271,-0.00000514,0.00000
 576,-0.00000578,-0.00001577,0.00005270,0.00001657,0.00003331,-0.000039
 76,-0.00000853,-0.00006634,0.00000916,0.00002494,-0.00000282,0.0000034
 7,-0.00000480,-0.00001019,0.00000127,-0.00000418,0.00000997,-0.0000024
 1,-0.00000275,0.00834156,0.00135869,0.01563490,-0.00046878,-0.00293747
 ,0.00260425,0.00074781,-0.00040595,0.00007372,0.00144778,0.00097271,-0
 .00128161,-0.11248234,-0.03238079,-0.09557642,-0.00217898,-0.01210001,
 -0.02959008,-0.00732601,-0.00094777,0.00539766,-0.13808148,-0.08051687
 ,0.08861148,0.51608489,-0.00410114,0.00057469,-0.00693139,0.00009858,-
 0.00005452,-0.00001382,0.00128323,0.00097667,0.00069669,-0.00024511,-0
 .00122854,0.00120406,-0.00194070,-0.00004800,0.00181248,-0.00071699,0.
 00024566,0.00002860,-0.03632617,-0.03075223,0.00849700,0.00113019,0.00
 042222,0.00036449,-0.00008962,-0.00014866,-0.00000204,0.00027548,0.000
 23514,-0.00011044,-0.00005040,0.00002745,0.00000419,-0.00000282,0.0000
 0005,-0.00000877,-0.00003299,-0.00005417,0.00001284,-0.00014237,0.0000
 3832,-0.00000386,0.00013582,0.00004200,0.00002285,-0.00001007,0.000003
 84,0.00000042,-0.00000669,0.00000281,0.00000611,0.00000740,-0.00000395
 ,-0.00000541,0.00429148,0.00666076,0.02347858,-0.00280194,-0.00252516,
 0.00364307,0.00090481,0.00177431,-0.00093945,0.00022698,0.00109526,0.0
 0027967,-0.04877755,-0.12363466,-0.08145722,-0.00615624,0.01183185,-0.
 03644804,0.00115129,-0.00997222,0.01512808,-0.08187850,-0.19519189,0.1
 3032313,1.11777074,1.59009056,-0.00241861,-0.00050717,0.00281655,-0.00
 008237,-0.00000603,0.00013672,0.00037584,0.00054277,0.00031676,0.00049
 389,-0.00135411,-0.00049638,-0.00007176,0.00028220,-0.00168754,0.00035
 356,-0.00012335,0.00005020,0.03979054,0.04356563,0.05881774,-0.0005823
 6,-0.00034251,0.00019314,-0.00006265,0.00006373,-0.00004782,-0.0001562
 4,-0.00012001,0.00002835,0.00006237,-0.00002317,-0.00000809,-0.0000004
 1,0.00000080,-0.00000336,-0.00001357,-0.00002668,-0.00000626,0.0000120
 3,0.00001300,0.00001081,-0.00001410,0.00000643,-0.00003030,-0.00000012
 ,-0.00000123,-0.00000206,0.00000171,-0.00000059,0.00000822,-0.00000165
 ,0.00000142,-0.00000564,-0.00532656,0.00144270,-0.02497723,0.00208919,
 0.00308555,-0.00243783,-0.00114920,-0.00181682,0.00049880,-0.00193809,
 -0.00200811,0.00132420,-0.04579392,-0.00895168,-0.42225946,-0.05855927
 ,-0.06866752,0.00044589,0.00449965,0.01816233,-0.06791527,0.02669025,0
 .05315028,-0.26174372,0.32544509,0.44791988,0.62435039,0.00117759,0.00
 025936,0.00009316,0.00000893,-0.00003698,-0.00001927,-0.00022472,-0.00
 014794,0.00058080,-0.00019476,-0.00017588,-0.00012180,-0.00040089,0.00
 000498,-0.00003266,-0.00013002,0.00005316,-0.00002358,0.00398194,-0.00
 557184,0.00221494,0.00026022,0.00004716,0.00006842,-0.00001553,-0.0000
 2078,-0.00000321,0.00002975,0.00002892,0.00000016,-0.00000851,0.000006
 96,-0.00000666,-0.00000109,0.00000023,0.00000448,-0.00000594,-0.000006
 76,-0.00000458,-0.00002082,0.00000535,-0.00000301,0.00001484,0.0000068
 1,-0.00000283,-0.00000135,-0.00000058,0.00000266,-0.00000034,0.0000005
 4,0.00000312,0.00000099,-0.00000152,0.00000262,-0.00255286,0.00418445,
 -0.00065498,0.00013702,-0.00044081,0.00077155,0.00067218,0.00050568,-0
 .00016151,-0.00017257,-0.00056206,0.00031708,0.00018108,-0.00457307,-0
 .02550050,-0.02639158,-0.04865129,-0.22270409,0.01000790,0.00015923,0.
 01760386,-0.00122610,-0.00034406,0.00082358,0.00085717,-0.00860598,-0.
 00146595,0.01783625,0.00075547,0.00101284,0.00027823,-0.00000911,-0.00
 003400,-0.00001045,0.00014018,-0.00028870,0.00048627,-0.00011441,-0.00
 027977,-0.00015576,-0.00031875,-0.00004985,-0.00002214,-0.00006334,-0.
 00001351,0.00001036,-0.00642591,0.00171252,0.00402233,0.00007887,0.000
 07992,0.00001860,-0.00001872,-0.00001539,-0.00000873,0.00002677,0.0000
 1672,0.00000249,-0.00000992,0.00000040,0.00000267,0.00000128,-0.000000
 13,-0.00000189,0.00000274,0.00000043,0.00000050,-0.00001095,-0.0000012
 6,-0.00000131,0.00000757,0.00000212,-0.00000058,0.00000005,0.00000046,
 -0.00000040,-0.00000110,0.00000034,0.00000128,-0.00000033,-0.00000122,
 0.00000125,0.00389611,-0.00135454,-0.00179369,-0.00035241,-0.00002990,
 0.00073283,-0.00050564,-0.00032028,0.00032490,0.00033406,0.00065177,-0
 .00009986,-0.00861399,0.00201151,-0.02533697,-0.04883848,0.01156014,-0
 .13274437,0.00401454,0.00817424,0.02455528,-0.00005074,-0.00118553,0.0
 0023692,-0.00738567,-0.00033409,-0.00105773,0.05866667,-0.01859405,-0.
 00142763,-0.00079382,0.00035992,-0.00000058,0.00007318,0.00002788,0.00
 009775,0.00023679,-0.00060290,0.00025715,0.00032598,0.00005900,0.00074
 937,0.00002576,-0.00003168,0.00025680,-0.00007171,0.00001128,0.0016365
 7,0.00331953,-0.00140457,-0.00049452,-0.00010181,-0.00008528,0.0000371
 0,0.00006192,0.00000410,-0.00009325,-0.00007314,-0.00000410,0.00001670
 ,-0.00001157,0.00000494,-0.00000036,-0.00000021,-0.00000397,0.00001465
 ,0.00002030,0.00000340,0.00005743,-0.00001246,0.00000354,-0.00004532,-
 0.00001876,0.00000169,0.00000387,-0.00000122,-0.00000177,0.00000333,-0
 .00000118,-0.00000509,-0.00000311,0.00000287,-0.00000141,0.00155750,0.
 00081658,0.00115933,-0.00036982,-0.00046139,0.00058918,-0.00005643,0.0
 0001556,0.00003112,0.00012154,0.00014808,0.00002594,0.00409746,0.00455
 386,-0.00100976,-0.22752182,-0.13368735,-0.79459100,-0.00881879,-0.007
 29587,-0.01471710,0.00071750,0.00028033,0.00066270,-0.00155027,-0.0006
 2828,0.00168828,0.23035889,0.13379848,0.80656582,0.00021740,-0.0003364
 0,-0.00019516,0.00002614,0.00001177,0.00001076,0.00006756,0.00008834,-
 0.00000158,-0.00028529,-0.00029964,0.00012916,-0.00009418,0.00008701,-
 0.00017286,0.00003098,0.00002371,-0.00000190,0.00703778,-0.00662260,0.
 00143012,-0.00005947,-0.00003664,0.00006071,-0.00000870,0.00002114,-0.
 00000516,-0.00004077,-0.00001674,-0.00000352,0.00001300,-0.00000193,-0
 .00000442,-0.00000302,-0.00000011,0.00000152,-0.00000439,-0.00000690,-
 0.00000234,0.00000214,0.00000607,0.00000131,0.00000038,0.00000328,-0.0
 0000259,-0.00000002,-0.00000137,0.00000105,0.00000117,0.00000044,0.000
 00084,-0.00000048,0.00000007,0.00000042,-0.00358449,0.00318012,0.00097
 263,-0.00048085,0.00017981,0.00007074,0.00055216,0.00108006,-0.0005680
 9,-0.00068787,-0.00043136,0.00071369,0.00675518,-0.00847474,0.00055703
 ,0.00764249,-0.00456216,-0.00217926,-0.00079885,0.00082760,0.00073559,
 0.00174758,-0.01411023,-0.00654007,-0.26595412,-0.93604694,-0.30390781
 ,0.00012823,-0.00021824,-0.00010741,0.25425202,-0.00007226,0.00017035,
 -0.00120448,-0.00000131,-0.00005066,-0.00001651,0.00014095,0.00005048,
 0.00028461,-0.00006541,-0.00026018,0.00008654,-0.00037094,-0.00002853,
 0.00027896,-0.00017193,0.00003453,0.00000298,-0.00479646,0.00226787,0.
 00286019,0.00031865,0.00008420,0.00003802,-0.00001766,-0.00004211,0.00
 000074,0.00007673,0.00005364,-0.00000751,-0.00001655,0.00000754,0.0000
 0248,0.00000136,0.00000024,-0.00000139,-0.00000554,-0.00000890,0.00000
 227,-0.00003483,0.00000429,-0.00000134,0.00002880,0.00000933,0.0000031
 4,-0.00000227,0.00000176,-0.00000057,-0.00000266,0.00000052,0.00000151
 ,0.00000215,-0.00000150,-0.00000092,0.00211994,-0.00129062,0.00004577,
 0.00018295,-0.00018442,-0.00004455,-0.00006564,-0.00050246,0.00011601,
 0.00040682,0.00052277,-0.00058511,0.00259094,0.00973844,0.01237687,-0.
 00308239,0.00377573,0.00130155,0.00111504,0.00016233,0.00037535,-0.008
 61203,-0.00408983,-0.01154245,-0.95353135,-1.26044246,-0.50566008,0.00
 025297,0.00028805,0.00016980,0.95895308,1.25136057,0.00051138,0.000458
 42,0.00187137,-0.00002996,0.00004428,0.00000914,-0.00036468,-0.0002305
 7,-0.00046957,0.00034962,0.00076388,-0.00037209,0.00053533,-0.00004987
 ,-0.00037837,0.00020034,-0.00006931,-0.00000784,0.00389737,0.00461277,
 -0.00418965,-0.00035038,-0.00009329,-0.00007238,0.00001888,0.00003434,
 0.00000296,-0.00006199,-0.00005580,0.00001956,0.00001252,-0.00000861,-
 0.00000172,0.00000148,-0.00000048,0.00000248,0.00000936,0.00001258,-0.
 00000299,0.00003673,-0.00000846,0.00000070,-0.00003197,-0.00001261,-0.
 00000480,0.00000262,-0.00000089,0.00000030,0.00000224,-0.00000110,-0.0
 0000168,-0.00000226,0.00000163,0.00000096,0.00086502,0.00049567,0.0038
 3943,-0.00016919,-0.00020102,0.00064493,-0.00003137,0.00046570,-0.0006
 3279,0.00031441,0.00014148,-0.00057852,-0.02645587,-0.03750244,-0.0073
 3436,-0.00277877,-0.00131582,-0.00792707,0.00045795,0.00080342,-0.0022
 2281,0.02488088,0.03455158,0.01163294,-0.30645466,-0.50094233,0.105055
 71,-0.00180568,-0.00122908,-0.00015365,0.30779712,0.50198081,-0.100455
 65,-0.00192994,0.00021363,0.00073718,0.00002553,-0.00018273,-0.0000598
 4,0.00028428,0.00006549,-0.00035122,0.00004015,0.00103891,0.00084930,-
 0.00107356,0.00014613,-0.00030389,-0.00009500,0.00000746,-0.00000049,0
 .00234886,-0.00557853,0.00077351,0.00019419,0.00022089,0.00042813,-0.0
 0016454,0.00002717,-0.00004651,0.00000383,0.00000181,-0.00000395,0.000
 00449,0.00000354,-0.00000588,0.00000190,-0.00000219,0.00000409,0.00000
 189,-0.00004237,-0.00000968,-0.00004381,0.00003295,0.00000736,0.000064
 55,0.00000152,-0.00000679,-0.00000018,-0.00000155,0.00000290,0.0000040
 7,0.00000020,0.00000223,-0.00000238,-0.00000090,0.00000098,-0.00036788
 ,-0.00020913,-0.00024721,0.00000047,0.00005797,-0.00002835,0.00000455,
 -0.00003922,0.00008404,-0.00004852,-0.00011414,0.00004829,0.00534651,-
 0.00452659,0.00182051,-0.00011973,-0.00868330,-0.00642653,-0.37844833,
 -0.43757022,-0.15771636,0.00490070,-0.00304691,-0.00223113,0.00053580,
 0.00110911,0.00029181,-0.00324172,0.00429078,0.00041859,-0.00100864,0.
 00051584,0.00003668,0.37290044,0.00143109,0.00023912,0.00107030,-0.000
 03333,0.00003925,0.00001297,-0.00014959,-0.00017584,0.00000451,-0.0005
 2922,-0.00140339,-0.00053478,0.00091596,-0.00044564,0.00016761,0.00017
 841,-0.00012975,0.00003133,-0.00014645,0.00483654,0.00312774,-0.000136
 84,0.00010351,-0.00033128,-0.00000631,0.00000475,-0.00002029,0.0000207
 6,-0.00003219,0.00002397,-0.00001023,-0.00001570,0.00001207,0.00000428
 ,-0.00000132,-0.00000429,0.00002195,0.00002399,0.00000076,0.00003327,-
 0.00001773,0.00000018,-0.00002414,-0.00001418,0.00000302,0.00000260,-0
 .00000021,-0.00000226,0.00000180,-0.00000116,-0.00000338,-0.00000440,0
 .00000132,0.00000067,-0.00026081,-0.00038596,-0.00022206,0.00005874,0.
 00002043,-0.00004528,-0.00011083,-0.00006714,0.00006060,-0.00002202,-0
 .00004642,0.00010618,-0.00527759,0.00296657,0.00291766,-0.01295753,-0.
 00385589,-0.00804350,-0.43758437,-0.40608031,-0.16024712,-0.00401078,0
 .00400619,0.00110131,0.00077316,-0.00017686,0.00042955,0.00434905,-0.0
 0238881,-0.00062914,0.00083279,-0.00050967,-0.00001330,0.45251394,0.40
 317636,-0.00161936,-0.00466487,-0.00126281,0.00007879,0.00000752,-0.00
 003725,0.00049656,0.00067649,0.00094283,0.00074143,0.00149138,0.001765
 98,-0.00019239,0.00028833,0.00033822,-0.00034583,0.00012154,-0.0000021
 9,-0.02452716,-0.02445455,-0.00354186,0.00078724,-0.00001553,-0.000317
 78,0.00007882,-0.00013008,0.00003616,0.00013377,0.00013121,0.00002335,
 -0.00001904,0.00002331,-0.00000705,-0.00000243,0.00000303,0.00000408,-
 0.00003919,-0.00001160,0.00000125,-0.00008172,0.00000241,-0.00001498,0
 .00003474,0.00004135,0.00000293,-0.00000753,0.00000342,0.00000117,-0.0
 0001164,0.00000314,0.00000747,0.00000861,-0.00000758,0.00000557,0.0008
 2611,0.00089445,0.00033386,-0.00006237,-0.00008540,0.00004598,0.000103
 47,0.00011673,-0.00014193,0.00007869,0.00016112,-0.00014050,0.00142854
 ,0.00395148,-0.00359982,0.02170106,0.02305573,0.01106779,-0.15787953,-
 0.15923928,-0.03494667,-0.00247744,-0.00028505,-0.00708420,0.00028205,
 0.00043694,-0.00138962,-0.00039062,-0.00197109,0.00148336,0.00017466,-
 0.00007828,-0.00002318,0.16179414,0.16100239,0.03635973,-0.00364970,0.
 00115006,-0.00304710,0.00003290,0.00007363,0.00001224,0.00076932,0.001
 11653,0.00069910,0.00101369,0.00077568,0.00031942,-0.00036396,-0.00013
 810,0.00041112,0.00004339,0.00000536,-0.00000491,0.00034041,-0.0055578
 8,-0.02296832,-0.00018084,0.00014034,0.00033396,-0.00008547,0.00003765
 ,0.00001148,-0.00000052,-0.00000325,-0.00005247,0.00000602,-0.00000941
 ,-0.00000102,-0.00000041,-0.00000228,-0.00000279,0.00000751,-0.0000226
 9,-0.00000061,-0.00000795,0.00001812,0.00000468,0.00003395,-0.00000771
 ,-0.00000667,0.00000132,-0.00000154,0.00000125,0.00000562,-0.00000092,
 0.00000012,-0.00000506,0.00000140,-0.00000144,0.00026735,0.00014319,0.
 00066379,-0.00018103,-0.00005142,0.00017499,0.00004362,0.00003831,-0.0
 0003570,-0.00002402,0.00000809,-0.00000141,0.00371758,-0.00651587,0.00
 052786,-0.00015594,0.00063861,0.00030100,0.00138784,-0.00738208,-0.000
 43884,-0.01998630,-0.04637965,-0.21435074,0.01080004,-0.00045292,0.021
 43870,-0.00070528,0.00072262,0.00008710,-0.00546306,0.00414304,-0.0013
 9315,-0.00011797,0.00012664,-0.00109246,0.01245695,-0.00179545,-0.0014
 0933,-0.00504110,0.00001757,0.00012762,0.00003065,0.00223380,0.0008968
 5,0.00205603,0.00020182,0.00021510,0.00091073,0.00188066,-0.00024749,0
 .00005560,0.00056843,-0.00017045,-0.00000737,-0.00570569,0.00248342,-0
 .02501461,-0.00099165,-0.00025721,-0.00017135,0.00010827,0.00012754,0.
 00001008,-0.00021377,-0.00016819,0.00000417,0.00003584,-0.00001723,0.0
 0000031,0.00000012,0.00000084,-0.00000030,0.00002805,0.00005089,0.0000
 0088,0.00012276,-0.00003546,0.00000171,-0.00011323,-0.00003556,-0.0000
 0604,0.00000840,-0.00000273,-0.00000026,0.00000502,-0.00000226,-0.0000
 0610,-0.00000566,0.00000373,0.00000047,0.00024694,0.00046727,0.0009700
 6,-0.00005624,-0.00025533,0.00021494,0.00003010,-0.00001457,-0.0000512
 6,-0.00001098,0.00003841,-0.00002673,-0.00581563,0.00172680,0.00431119
 ,-0.00060147,-0.00195146,0.00044480,-0.00782132,-0.00053300,-0.0013317
 4,-0.04903411,0.00396206,-0.13855559,0.00306177,0.01054584,0.02200052,
 0.00060805,-0.00062042,-0.00006112,0.00587073,-0.00112130,-0.00263158,
 -0.00024957,0.00033012,-0.00146866,0.05738642,-0.01413450,0.00235268,0
 .00071078,0.00073093,0.00000741,-0.00001086,-0.00000041,0.00027648,0.0
 0053169,-0.00144443,-0.00051125,-0.00014072,-0.00009075,-0.00020876,0.
 00012682,-0.00030797,-0.00007411,0.00002603,-0.00000176,0.00102013,0.0
 0349135,0.00152141,0.00008672,0.00000532,-0.00009139,0.00003553,-0.000
 01107,-0.00000362,-0.00000426,0.00001101,0.00000916,-0.00000431,0.0000
 0430,-0.00000214,-0.00000154,0.00000086,0.00000184,-0.00000504,0.00000
 875,-0.00000038,0.00000070,-0.00000529,-0.00000330,-0.00000947,0.00000
 496,0.00000220,-0.00000090,0.00000015,0.00000060,-0.00000202,0.0000004
 7,0.00000135,0.00000226,-0.00000081,0.00000136,-0.00023876,-0.00026722
 ,-0.00050476,0.00009867,0.00010939,-0.00013343,-0.00001054,-0.00000856
 ,0.00001367,0.00000398,-0.00000224,-0.00000652,0.00138266,0.00291137,-
 0.00031345,0.00026322,0.00020639,0.00087099,-0.00058521,-0.00013417,0.
 00082784,-0.21493297,-0.14376340,-0.79595805,-0.00858059,-0.00636806,-
 0.01273119,0.00005560,-0.00003835,-0.00006919,0.00103483,-0.00078439,0
 .00174866,0.00013808,0.00002384,0.00009011,0.21841081,0.14336167,0.805
 84264\\0.03633959,-0.01229594,-0.00283078,0.00108667,0.00627180,0.0006
 2459,-0.03494508,-0.00308298,-0.02821907,0.00345500,0.03516587,0.01827
 876,0.00156032,0.00536863,0.00617047,-0.00944459,0.00192276,-0.0008779
 3,0.01569181,0.01753128,-0.00291182,0.01087982,-0.04493873,-0.00458482
 ,-0.01882382,0.06310722,0.01142232,-0.00694037,-0.06776462,-0.01104631
 ,-0.01809653,0.21453023,0.02554010,0.00731727,-0.18174161,-0.02106212,
 -0.19325376,0.03290978,0.01431655,-0.16055180,-0.07844669,0.00332887,0
 .00578610,-0.14664180,-0.02011443,0.19001673,-0.10181841,-0.01823247,0
 .20151927,0.12163131,-0.00356490,-0.00676225,0.16543276,0.02263162,0.0
 5647674,0.08445714,-0.11012335,0.04750680,0.04151280,0.11996512,0.0354
 9704,-0.13231627,-0.02019632,-0.13900184,0.00882700,-0.00049527,-0.012
 07708,-0.02228072,0.02574652,-0.02313041,0.00812864,-0.15509739,-0.106
 69769,-0.11134976,-0.01982064,0.01101408,-0.00051905,0.16182682,0.2703
 3227,0.43043833,0.11668659,0.05055770,0.02985688,0.17418027,-0.2966947
 4,-0.46269985,-0.15570775,0.12486240,0.12956451,0.04595395,-0.04347964
 ,-0.03076052,-0.17178717\\\@
 The archive entry for this job was punched.

 Writing a WFNX file to "XERQIV_Complex_0_Ligand_2_NN_Cu_oriented.wfx"


 KNOWING HOW CONTENTED, FREE, AND JOYFUL IS LIFE IN
 THE REALMS OF SCIENCE, ONE FERVENTLY WISHES THAT
 MANY WOULD ENTER HER PORTALS.
   --  DMITRI IVANOVICH MENDELEEV
 "FIRST PRINCIPLES OF CHEMISTRY", LONGMANS, GREEN,
 AND CO.  LONDON, 1891
 Job cpu time:       0 days  0 hours 42 minutes 10.4 seconds.
 Elapsed time:       0 days  0 hours 42 minutes 22.7 seconds.
 File lengths (MBytes):  RWF=    576 Int=      0 D2E=      0 Chk=     16 Scr=      8
 Normal termination of Gaussian 16 at Mon Mar  6 11:04:08 2023.
