 Entering Gaussian System, Link 0=g16
 Initial command:
 /ssoft/spack/external/gaussian/g16-C.01/avx2/g16/l1.exe "/scratch/lcmd/2387863/Gau-1722650.inp" -scrdir="/scratch/lcmd/2387863/"
 Entering Link 1 = /ssoft/spack/external/gaussian/g16-C.01/avx2/g16/l1.exe PID=   1722657.
  
 Copyright (c) 1988-2019, Gaussian, Inc.  All Rights Reserved.
  
 This is part of the Gaussian(R) 16 program.  It is based on
 the Gaussian(R) 09 system (copyright 2009, Gaussian, Inc.),
 the Gaussian(R) 03 system (copyright 2003, Gaussian, Inc.),
 the Gaussian(R) 98 system (copyright 1998, Gaussian, Inc.),
 the Gaussian(R) 94 system (copyright 1995, Gaussian, Inc.),
 the Gaussian 92(TM) system (copyright 1992, Gaussian, Inc.),
 the Gaussian 90(TM) system (copyright 1990, Gaussian, Inc.),
 the Gaussian 88(TM) system (copyright 1988, Gaussian, Inc.),
 the Gaussian 86(TM) system (copyright 1986, Carnegie Mellon
 University), and the Gaussian 82(TM) system (copyright 1983,
 Carnegie Mellon University). Gaussian is a federally registered
 trademark of Gaussian, Inc.
  
 This software contains proprietary and confidential information,
 including trade secrets, belonging to Gaussian, Inc.
  
 This software is provided under written license and may be
 used, copied, transmitted, or stored only in accord with that
 written license.
  
 The following legend is applicable only to US Government
 contracts under FAR:
  
                    RESTRICTED RIGHTS LEGEND
  
 Use, reproduction and disclosure by the US Government is
 subject to restrictions as set forth in subparagraphs (a)
 and (c) of the Commercial Computer Software - Restricted
 Rights clause in FAR 52.227-19.
  
 Gaussian, Inc.
 340 Quinnipiac St., Bldg. 40, Wallingford CT 06492
  
  
 ---------------------------------------------------------------
 Warning -- This program may not be used in any manner that
 competes with the business of Gaussian, Inc. or will provide
 assistance to any competitor of Gaussian, Inc.  The licensee
 of this program is prohibited from giving any competitor of
 Gaussian, Inc. access to this program.  By using this program,
 the user acknowledges that Gaussian, Inc. is engaged in the
 business of creating and licensing software in the field of
 computational chemistry and represents and warrants to the
 licensee that it is not a competitor of Gaussian, Inc. and that
 it will not use this program in any manner prohibited above.
 ---------------------------------------------------------------
  

 Cite this work as:
 Gaussian 16, Revision C.01,
 M. J. Frisch, G. W. Trucks, H. B. Schlegel, G. E. Scuseria, 
 M. A. Robb, J. R. Cheeseman, G. Scalmani, V. Barone, 
 G. A. Petersson, H. Nakatsuji, X. Li, M. Caricato, A. V. Marenich, 
 J. Bloino, B. G. Janesko, R. Gomperts, B. Mennucci, H. P. Hratchian, 
 J. V. Ortiz, A. F. Izmaylov, J. L. Sonnenberg, D. Williams-Young, 
 F. Ding, F. Lipparini, F. Egidi, J. Goings, B. Peng, A. Petrone, 
 T. Henderson, D. Ranasinghe, V. G. Zakrzewski, J. Gao, N. Rega, 
 G. Zheng, W. Liang, M. Hada, M. Ehara, K. Toyota, R. Fukuda, 
 J. Hasegawa, M. Ishida, T. Nakajima, Y. Honda, O. Kitao, H. Nakai, 
 T. Vreven, K. Throssell, J. A. Montgomery, Jr., J. E. Peralta, 
 F. Ogliaro, M. J. Bearpark, J. J. Heyd, E. N. Brothers, K. N. Kudin, 
 V. N. Staroverov, T. A. Keith, R. Kobayashi, J. Normand, 
 K. Raghavachari, A. P. Rendell, J. C. Burant, S. S. Iyengar, 
 J. Tomasi, M. Cossi, J. M. Millam, M. Klene, C. Adamo, R. Cammi, 
 J. W. Ochterski, R. L. Martin, K. Morokuma, O. Farkas, 
 J. B. Foresman, and D. J. Fox, Gaussian, Inc., Wallingford CT, 2019.
 
 ******************************************
 Gaussian 16:  ES64L-G16RevC.01  3-Jul-2019
                 6-Mar-2023 
 ******************************************
 %nprocshared=1
 Will use up to    1 processors via shared memory.
 %mem=8000MB
 %chk=XEZQAU_Complex_1_Ligand_0_NN_Cu_oriented.chk
 ----------------------------------------------------------------------
 #p pop=(regular,nbo,savenbos) freq=noraman def2svp empiricaldispersion
 =gd3bj output=wfx pbe1pbe
 ----------------------------------------------------------------------
 1/10=4,30=1,38=1/1,3;
 2/12=2,17=6,18=5,40=1/2;
 3/5=43,7=101,11=2,25=1,30=1,71=2,74=-13,124=41,140=1/1,2,3;
 4//1;
 5/5=2,38=5,98=1/2;
 8/6=4,10=90,11=11/1;
 11/6=1,8=1,9=11,15=111,16=1/1,2,10;
 10/6=1/2;
 6/28=1,40=1,73=1/1,7;
 7/8=1,10=1,25=1/1,2,3,16;
 1/10=4,30=1/3;
 99/6=200/99;
 Leave Link    1 at Mon Mar  6 10:21:46 2023, MaxMem=  1048576000 cpu:               0.0 elap:               0.1
 (Enter /ssoft/spack/external/gaussian/g16-C.01/avx2/g16/l101.exe)
 ----------------------------------------
 XEZQAU_Complex_1_Ligand_0_NN_Cu_oriented
 ----------------------------------------
 Symbolic Z-matrix:
 Charge = -1 Multiplicity = 1
 N                    -0.31067  -1.97425   0. 
 N                    -1.98968   0.06816   0. 
 C                     0.55055  -2.92126  -0.39452 
 C                     0.1993   -4.25013  -0.45891 
 C                    -1.07154  -4.61399  -0.06596 
 C                    -1.96226  -3.65107   0.3565 
 C                    -1.55926  -2.32129   0.34581 
 C                    -2.4634   -1.1634    0.674 
 H                     0.79066  -4.85278  -0.77943 
 H                    -1.32202  -5.44435  -0.06918 
 H                    -2.88681  -3.84042   0.64715 
 H                    -3.35042  -1.3644    0.49953 
 H                    -2.45562  -0.94229   1.64486 
 S                    -2.6769    0.36311  -1.41412 
 O                    -2.17211   1.62769  -1.88595 
 O                    -4.11043   0.21151  -1.32828 
 C                    -2.09016  -0.88525  -2.53142 
 C                    -2.76717  -2.09259  -2.63865 
 C                    -2.17389  -3.14324  -3.32121 
 C                    -0.91856  -3.01915  -3.90389 
 C                    -0.27938  -1.78692  -3.8264 
 C                    -0.84646  -0.72789  -3.14282 
 C                    -0.2651   -4.19923  -4.57142 
 H                    -3.61336  -2.23084  -2.21296 
 H                    -2.63     -4.0182   -3.36339 
 H                     0.61446  -1.69254  -4.2511 
 H                    -0.35537   0.08625  -3.09557 
 H                    -0.78007  -4.57347  -5.09019 
 H                    -0.00085  -4.77639  -3.88 
 H                     0.44794  -3.99764  -4.92274 
 H                     1.41701  -2.59705  -0.60915 
 
 ITRead=  0  0  0  0  0  0  0  0  0  0  0  0  0  0  0  0  0  0  0  0
 ITRead=  0  0  0  0  0  0  0  0  0  0  0
 MicOpt= -1 -1 -1 -1 -1 -1 -1 -1 -1 -1 -1 -1 -1 -1 -1 -1 -1 -1 -1 -1
 MicOpt= -1 -1 -1 -1 -1 -1 -1 -1 -1 -1 -1
 NAtoms=     31 NQM=       31 NQMF=       0 NMMI=      0 NMMIF=      0
                NMic=       0 NMicF=      0.
                    Isotopes and Nuclear Properties:
 (Nuclear quadrupole moments (NQMom) in fm**2, nuclear magnetic moments (NMagM)
  in nuclear magnetons)

  Atom         1           2           3           4           5           6           7           8           9          10
 IAtWgt=          14          14          12          12          12          12          12          12           1           1
 AtmWgt=  14.0030740  14.0030740  12.0000000  12.0000000  12.0000000  12.0000000  12.0000000  12.0000000   1.0078250   1.0078250
 NucSpn=           2           2           0           0           0           0           0           0           1           1
 AtZEff=  -0.0000000  -0.0000000  -0.0000000  -0.0000000  -0.0000000  -0.0000000  -0.0000000  -0.0000000  -0.0000000  -0.0000000
 NQMom=    2.0440000   2.0440000   0.0000000   0.0000000   0.0000000   0.0000000   0.0000000   0.0000000   0.0000000   0.0000000
 NMagM=    0.4037610   0.4037610   0.0000000   0.0000000   0.0000000   0.0000000   0.0000000   0.0000000   2.7928460   2.7928460
 AtZNuc=   7.0000000   7.0000000   6.0000000   6.0000000   6.0000000   6.0000000   6.0000000   6.0000000   1.0000000   1.0000000

  Atom        11          12          13          14          15          16          17          18          19          20
 IAtWgt=           1           1           1          32          16          16          12          12          12          12
 AtmWgt=   1.0078250   1.0078250   1.0078250  31.9720718  15.9949146  15.9949146  12.0000000  12.0000000  12.0000000  12.0000000
 NucSpn=           1           1           1           0           0           0           0           0           0           0
 AtZEff=  -0.0000000  -0.0000000  -0.0000000  -0.0000000  -0.0000000  -0.0000000  -0.0000000  -0.0000000  -0.0000000  -0.0000000
 NQMom=    0.0000000   0.0000000   0.0000000   0.0000000   0.0000000   0.0000000   0.0000000   0.0000000   0.0000000   0.0000000
 NMagM=    2.7928460   2.7928460   2.7928460   0.0000000   0.0000000   0.0000000   0.0000000   0.0000000   0.0000000   0.0000000
 AtZNuc=   1.0000000   1.0000000   1.0000000  16.0000000   8.0000000   8.0000000   6.0000000   6.0000000   6.0000000   6.0000000

  Atom        21          22          23          24          25          26          27          28          29          30
 IAtWgt=          12          12          12           1           1           1           1           1           1           1
 AtmWgt=  12.0000000  12.0000000  12.0000000   1.0078250   1.0078250   1.0078250   1.0078250   1.0078250   1.0078250   1.0078250
 NucSpn=           0           0           0           1           1           1           1           1           1           1
 AtZEff=  -0.0000000  -0.0000000  -0.0000000  -0.0000000  -0.0000000  -0.0000000  -0.0000000  -0.0000000  -0.0000000  -0.0000000
 NQMom=    0.0000000   0.0000000   0.0000000   0.0000000   0.0000000   0.0000000   0.0000000   0.0000000   0.0000000   0.0000000
 NMagM=    0.0000000   0.0000000   0.0000000   2.7928460   2.7928460   2.7928460   2.7928460   2.7928460   2.7928460   2.7928460
 AtZNuc=   6.0000000   6.0000000   6.0000000   1.0000000   1.0000000   1.0000000   1.0000000   1.0000000   1.0000000   1.0000000

  Atom        31
 IAtWgt=           1
 AtmWgt=   1.0078250
 NucSpn=           1
 AtZEff=  -0.0000000
 NQMom=    0.0000000
 NMagM=    2.7928460
 AtZNuc=   1.0000000
 Leave Link  101 at Mon Mar  6 10:21:46 2023, MaxMem=  1048576000 cpu:               0.1 elap:               0.1
 (Enter /ssoft/spack/external/gaussian/g16-C.01/avx2/g16/l103.exe)

 GradGradGradGradGradGradGradGradGradGradGradGradGradGradGradGradGradGrad
 Berny optimization.
 Initialization pass.
 Trust Radius=3.00D-01 FncErr=1.00D-07 GrdErr=1.00D-07 EigMax=2.50D+02 EigMin=1.00D-04
 Number of steps in this run=      2 maximum allowed number of steps=      2.
 GradGradGradGradGradGradGradGradGradGradGradGradGradGradGradGradGradGrad

 Leave Link  103 at Mon Mar  6 10:21:46 2023, MaxMem=  1048576000 cpu:               0.0 elap:               0.0
 (Enter /ssoft/spack/external/gaussian/g16-C.01/avx2/g16/l202.exe)
                          Input orientation:                          
 ---------------------------------------------------------------------
 Center     Atomic      Atomic             Coordinates (Angstroms)
 Number     Number       Type             X           Y           Z
 ---------------------------------------------------------------------
      1          7           0       -0.310667   -1.974247    0.000000
      2          7           0       -1.989680    0.068163    0.000000
      3          6           0        0.550552   -2.921257   -0.394521
      4          6           0        0.199295   -4.250133   -0.458910
      5          6           0       -1.071538   -4.613991   -0.065962
      6          6           0       -1.962262   -3.651075    0.356498
      7          6           0       -1.559255   -2.321294    0.345807
      8          6           0       -2.463402   -1.163400    0.673998
      9          1           0        0.790660   -4.852785   -0.779430
     10          1           0       -1.322017   -5.444351   -0.069179
     11          1           0       -2.886810   -3.840419    0.647154
     12          1           0       -3.350424   -1.364400    0.499529
     13          1           0       -2.455619   -0.942293    1.644856
     14         16           0       -2.676900    0.363105   -1.414116
     15          8           0       -2.172107    1.627689   -1.885949
     16          8           0       -4.110430    0.211511   -1.328280
     17          6           0       -2.090156   -0.885252   -2.531423
     18          6           0       -2.767173   -2.092592   -2.638651
     19          6           0       -2.173887   -3.143239   -3.321213
     20          6           0       -0.918560   -3.019146   -3.903888
     21          6           0       -0.279375   -1.786924   -3.826403
     22          6           0       -0.846464   -0.727894   -3.142817
     23          6           0       -0.265103   -4.199228   -4.571415
     24          1           0       -3.613360   -2.230837   -2.212959
     25          1           0       -2.629998   -4.018201   -3.363391
     26          1           0        0.614463   -1.692538   -4.251102
     27          1           0       -0.355371    0.086255   -3.095569
     28          1           0       -0.780069   -4.573467   -5.090189
     29          1           0       -0.000851   -4.776387   -3.880005
     30          1           0        0.447937   -3.997644   -4.922744
     31          1           0        1.417006   -2.597051   -0.609152
 ---------------------------------------------------------------------
                    Distance matrix (angstroms):
                    1          2          3          4          5
     1  N    0.000000
     2  N    2.643960   0.000000
     3  C    1.339467   3.942722   0.000000
     4  C    2.377039   4.863115   1.376023   0.000000
     5  C    2.748003   4.771781   2.367377   1.379064   0.000000
     6  C    2.380464   3.736385   2.722297   2.386649   1.378067
     7  C    1.341267   2.452417   2.315022   2.731390   2.379891
     8  C    2.397084   1.481699   3.649070   4.230999   3.793600
     9  H    3.179058   5.705570   1.984088   0.903125   2.008442
    10  H    3.615140   5.553230   3.158855   1.972926   0.867322
    11  H    3.246217   4.062101   3.707480   3.303829   2.098132
    12  H    3.140313   2.037986   4.294268   4.674030   4.009107
    13  H    2.893320   1.985868   4.136716   4.734575   4.280647
    14  S    3.614139   1.599683   4.716254   5.519681   5.400573
    15  O    4.471656   2.454018   5.507280   6.496828   6.594101
    16  O    4.580400   2.506483   5.693056   6.263848   5.840700
    17  C    3.280334   2.706880   3.960429   4.567200   4.584710
    18  C    3.607063   3.497975   4.090244   4.266870   3.981376
    19  C    3.983540   4.623580   4.004669   3.879431   3.738308
    20  C    4.086770   5.091082   3.805723   3.825284   4.158918
    21  C    3.831114   4.583433   3.708545   4.199587   4.770822
    22  C    3.423123   3.437724   3.783600   4.550070   4.961798
    23  C    5.084334   6.487113   4.443529   4.138955   4.595810
    24  H    3.983818   3.580352   4.595819   4.657314   4.092661
    25  H    4.568309   5.331114   4.487023   4.061367   3.695510
    26  H    4.359712   5.287107   4.048092   4.592861   5.375210
    27  H    3.718900   3.500549   4.142642   5.105280   5.637705
    28  H    5.734659   6.994134   5.152635   4.744728   5.032837
    29  H    4.796083   6.517634   3.986747   3.467115   3.964803
    30  H    5.376153   6.834191   4.655528   4.477877   5.126111
    31  H    1.934891   4.368060   0.949694   2.058658   3.248993
                    6          7          8          9         10
     6  C    0.000000
     7  C    1.389549   0.000000
     8  C    2.557435   1.505293   0.000000
     9  H    3.211389   3.632727   5.129613   0.000000
    10  H    1.951142   3.159427   4.492394   2.306038   0.000000
    11  H    0.987482   2.039842   2.710429   4.072323   2.352511
    12  H    2.678867   2.036556   0.926093   5.563554   4.591716
    13  H    3.039862   2.095862   0.995749   5.630935   4.948888
    14  S    4.445157   3.398890   2.595384   6.295420   6.113191
    15  O    5.739160   4.577203   3.798468   7.211028   7.350990
    16  O    4.729975   3.965622   2.934655   7.068876   6.430346
    17  C    4.000777   3.259221   3.239043   5.206716   5.238135
    18  C    3.470975   3.227747   3.453883   4.871708   4.463737
    19  C    3.718635   3.807939   4.468254   4.262834   4.073883
    20  C    4.431652   4.354009   5.175651   4.005734   4.555149
    21  C    4.878917   4.396701   5.041068   4.452923   5.346083
    22  C    4.694166   3.900960   4.168000   5.027972   5.649634
    23  C    5.240720   5.420382   6.446947   3.990104   4.789313
    24  H    3.368280   3.282500   3.285778   5.322124   4.491404
    25  H    3.797134   4.217124   4.947540   4.367412   3.820542
    26  H    5.630751   5.123666   5.831796   4.697948   5.942603
    27  H    5.335401   4.369061   4.496117   5.574227   6.378169
    28  H    5.649318   5.935442   6.905651   4.596505   5.124713
    29  H    4.802231   5.129678   6.313222   3.200920   4.088281
    30  H    5.813740   5.881887   6.916093   4.244500   5.364959
    31  H    3.669183   3.137853   4.331212   2.347262   3.987598
                   11         12         13         14         15
    11  H    0.000000
    12  H    2.523371   0.000000
    13  H    3.095233   1.513481   0.000000
    14  S    4.686418   2.664572   3.333218   0.000000
    15  O    6.068576   4.003940   4.376274   1.441046   0.000000
    16  O    4.670944   2.530215   3.592938   1.444077   2.464478
    17  C    4.412598   3.317307   4.192627   1.775117   2.595809
    18  C    3.723671   3.273929   4.446199   2.745557   3.842024
    19  C    4.091731   4.375680   5.439245   4.022996   4.982142
    20  C    5.025980   5.295491   6.120819   4.553059   5.218863
    21  C    5.570303   5.321988   5.948455   4.023665   4.359745
    22  C    5.311752   4.465606   5.055409   2.743935   2.980908
    23  C    5.851116   6.577988   7.351735   6.049809   6.693381
    24  H    3.361380   2.859621   4.228882   2.871174   4.131872
    25  H    4.022689   4.741710   5.879979   4.795594   5.853937
    26  H    6.392591   6.196490   6.689588   4.806998   4.937897
    27  H    5.986228   4.898925   5.285885   2.879831   2.672027
    28  H    6.155715   6.939004   7.832862   6.440592   7.117532
    29  H    5.449767   6.483950   7.158928   6.297319   7.050022
    30  H    6.493768   7.124785   7.803792   6.410242   6.908772
    31  H    4.652645   5.047474   4.776610   5.115717   5.688618
                   16         17         18         19         20
    16  O    0.000000
    17  C    2.594600   0.000000
    18  C    2.971582   1.388351   0.000000
    19  C    4.356183   2.393593   1.386268   0.000000
    20  C    5.221009   2.794602   2.424190   1.389516   0.000000
    21  C    4.991126   2.401856   2.773685   2.384111   1.390300
    22  C    3.850779   1.394752   2.409503   2.761842   2.415423
    23  C    6.690223   4.298235   3.799190   2.514274   1.505055
    24  H    2.644767   2.057223   0.957266   2.032926   3.277593
    25  H    4.921770   3.286179   2.062047   0.987611   2.054086
    26  H    5.873066   3.305143   3.767692   3.277823   2.056845
    27  H    4.152044   2.066777   3.282215   3.713159   3.257926
    28  H    6.938248   4.676168   4.014146   2.667875   1.960205
    29  H    6.948314   4.617879   4.049229   2.775159   1.982589
    30  H    7.170485   4.674111   4.379867   3.188866   1.965411
    31  H    6.241612   4.350352   4.677681   4.533003   4.060582
                   21         22         23         24         25
    21  C    0.000000
    22  C    1.382182   0.000000
    23  C    2.524769   3.798557   0.000000
    24  H    3.730377   3.283167   4.543975   0.000000
    25  H    3.273898   3.749103   2.661733   2.342043   0.000000
    26  H    0.994095   2.071990   2.675768   4.724223   4.089410
    27  H    2.012137   0.951968   4.533391   4.094192   4.700236
    28  H    3.100431   4.311044   0.821201   4.668395   2.590829
    29  H    3.002889   4.201049   0.938611   4.723250   2.784628
    30  H    2.572592   3.941431   0.820057   5.192174   3.450462
    31  H    3.726221   3.877694   4.593038   5.292532   5.097426
                   26         27         28         29         30
    26  H    0.000000
    27  H    2.332367   0.000000
    28  H    3.308858   5.086442   0.000000
    29  H    3.166458   4.938250   1.453583   0.000000
    30  H    2.406730   4.545559   1.366604   1.376647   0.000000
    31  H    3.837449   4.064938   5.367779   4.178314   4.637654
                   31
    31  H    0.000000
 Stoichiometry    C13H13N2O2S(1-)
 Framework group  C1[X(C13H13N2O2S)]
 Deg. of freedom    87
 Full point group                 C1      NOp   1
 Largest Abelian subgroup         C1      NOp   1
 Largest concise Abelian subgroup C1      NOp   1
                         Standard orientation:                         
 ---------------------------------------------------------------------
 Center     Atomic      Atomic             Coordinates (Angstroms)
 Number     Number       Type             X           Y           Z
 ---------------------------------------------------------------------
      1          7           0        0.433287    1.577713   -1.203320
      2          7           0       -2.100383    1.076664   -0.637640
      3          6           0        1.731650    1.427582   -1.496382
      4          6           0        2.724298    1.684000   -0.578592
      5          6           0        2.362472    2.146875    0.669064
      6          6           0        1.030720    2.320136    0.978076
      7          6           0        0.077517    1.990893    0.022121
      8          6           0       -1.407617    2.025561    0.265189
      9          1           0        3.585634    1.521270   -0.795973
     10          1           0        2.960364    2.342869    1.266022
     11          1           0        0.701703    2.643338    1.851236
     12          1           0       -1.608763    1.900383    1.160465
     13          1           0       -1.803635    2.914414    0.053942
     14         16           0       -2.367209   -0.370199   -0.009646
     15          8           0       -3.117589   -1.130722   -0.976677
     16          8           0       -2.920557   -0.257374    1.319427
     17          6           0       -0.781188   -1.150393    0.154281
     18          6           0       -0.034835   -0.966475    1.310417
     19          6           0        1.290473   -1.372446    1.332500
     20          6           0        1.892072   -1.961665    0.227217
     21          6           0        1.113214   -2.180637   -0.903431
     22          6           0       -0.207364   -1.775567   -0.952614
     23          6           0        3.353251   -2.321519    0.252788
     24          1           0       -0.400563   -0.524171    2.076555
     25          1           0        1.839701   -1.204509    2.135944
     26          1           0        1.538515   -2.611160   -1.692097
     27          1           0       -0.689210   -1.923738   -1.760149
     28          1           0        3.547906   -2.737196    0.933738
     29          1           0        3.822393   -1.509988    0.204683
     30          1           0        3.586731   -2.707595   -0.431994
     31          1           0        1.901432    1.145333   -2.387128
 ---------------------------------------------------------------------
 Rotational constants (GHZ):           0.5774350           0.3967652           0.2925096
 Leave Link  202 at Mon Mar  6 10:21:46 2023, MaxMem=  1048576000 cpu:               0.0 elap:               0.0
 (Enter /ssoft/spack/external/gaussian/g16-C.01/avx2/g16/l301.exe)
 Standard basis: def2SVP (5D, 7F)
 Ernie: Thresh=  0.10000D-02 Tol=  0.10000D-05 Strict=F.
 There are   339 symmetry adapted cartesian basis functions of A   symmetry.
 There are   321 symmetry adapted basis functions of A   symmetry.
   321 basis functions,   553 primitive gaussians,   339 cartesian basis functions
    69 alpha electrons       69 beta electrons
       nuclear repulsion energy      1522.5471676159 Hartrees.
 IExCor= 1009 DFT=T Ex+Corr=PBE1PBE ExCW=0 ScaHFX=  0.250000
 ScaDFX=  0.750000  0.750000  1.000000  1.000000 ScalE2=  1.000000  1.000000
 IRadAn=      5 IRanWt=     -1 IRanGd=            0 ICorTp=0 IEmpDi=141
 NAtoms=   31 NActive=   31 NUniq=   31 SFac= 1.00D+00 NAtFMM=   60 NAOKFM=F Big=F
 Integral buffers will be    131072 words long.
 Raffenetti 2 integral format.
 Two-electron integral symmetry is turned on.
 R6Disp:  Grimme-D3(BJ) Dispersion energy=       -0.0432160682 Hartrees.
 Nuclear repulsion after empirical dispersion term =     1522.5039515477 Hartrees.
 Leave Link  301 at Mon Mar  6 10:21:46 2023, MaxMem=  1048576000 cpu:               0.1 elap:               0.1
 (Enter /ssoft/spack/external/gaussian/g16-C.01/avx2/g16/l302.exe)
 NPDir=0 NMtPBC=     1 NCelOv=     1 NCel=       1 NClECP=     1 NCelD=      1
         NCelK=      1 NCelE2=     1 NClLst=     1 CellRange=     0.0.
 One-electron integrals computed using PRISM.
 One-electron integral symmetry used in STVInt
   1 Symmetry operations used in ECPInt.
 ECPInt:  NShTT=   11175 NPrTT=   41611 LenC2=   10742 LenP2D=   28947.
 LDataN:  DoStor=T MaxTD1= 4 Len=   56
 NBasis=   321 RedAO= T EigKep=  2.42D-04  NBF=   321
 NBsUse=   321 1.00D-06 EigRej= -1.00D+00 NBFU=   321
 Precomputing XC quadrature grid using
 IXCGrd= 4 IRadAn=           5 IRanWt=          -1 IRanGd=           0 AccXCQ= 0.00D+00.
 Generated NRdTot=       0 NPtTot=           0 NUsed=           0 NTot=          32
 NSgBfM=   338   338   338   338   338 MxSgAt=    31 MxSgA2=    31.
 Leave Link  302 at Mon Mar  6 10:21:47 2023, MaxMem=  1048576000 cpu:               0.8 elap:               0.8
 (Enter /ssoft/spack/external/gaussian/g16-C.01/avx2/g16/l303.exe)
 DipDrv:  MaxL=1.
 Leave Link  303 at Mon Mar  6 10:21:47 2023, MaxMem=  1048576000 cpu:               0.0 elap:               0.0
 (Enter /ssoft/spack/external/gaussian/g16-C.01/avx2/g16/l401.exe)
 ExpMin= 1.22D-01 ExpMax= 9.18D+03 ExpMxC= 1.38D+03 IAcc=3 IRadAn=         5 AccDes= 0.00D+00
 Harris functional with IExCor= 1009 and IRadAn=       5 diagonalized for initial guess.
 HarFok:  IExCor= 1009 AccDes= 0.00D+00 IRadAn=         5 IDoV= 1 UseB2=F ITyADJ=14
 ICtDFT=  3500011 ScaDFX=  1.000000  1.000000  1.000000  1.000000
 FoFCou: FMM=F IPFlag=           0 FMFlag=      100000 FMFlg1=           0
         NFxFlg=           0 DoJE=T BraDBF=F KetDBF=T FulRan=T
         wScrn=  0.000000 ICntrl=       500 IOpCl=  0 I1Cent=   200000004 NGrid=           0
         NMat0=    1 NMatS0=      1 NMatT0=    0 NMatD0=    1 NMtDS0=    0 NMtDT0=    0
 Petite list used in FoFCou.
 Harris En= -1159.77911613353    
 JPrj=0 DoOrth=F DoCkMO=F.
 Leave Link  401 at Mon Mar  6 10:21:55 2023, MaxMem=  1048576000 cpu:               8.6 elap:               8.6
 (Enter /ssoft/spack/external/gaussian/g16-C.01/avx2/g16/l502.exe)
 Integral symmetry usage will be decided dynamically.
 Closed shell SCF:
 Using DIIS extrapolation, IDIIS=  1040.
 NGot=  1048576000 LenX=  1048339780 LenY=  1048224418
 Requested convergence on RMS density matrix=1.00D-08 within 128 cycles.
 Requested convergence on MAX density matrix=1.00D-06.
 Requested convergence on             energy=1.00D-06.
 No special actions if energy rises.
 Fock matrices will be formed incrementally for  20 cycles.
 Integral accuracy reduced to 1.0D-05 until final iterations.

 Cycle   1  Pass 0  IDiag  1:
 FoFJK:  IHMeth= 1 ICntrl=       0 DoSepK=F KAlg= 0 I1Cent=           0 FoldK=F
 IRaf= 920000000 NMat=       1 IRICut=       1 DoRegI=T DoRafI=F ISym2E= 0 IDoP0=0 IntGTp=1.
 FoFCou: FMM=F IPFlag=           0 FMFlag=      100000 FMFlg1=           0
         NFxFlg=           0 DoJE=F BraDBF=F KetDBF=F FulRan=T
         wScrn=  0.000000 ICntrl=         0 IOpCl=  0 I1Cent=           0 NGrid=           0
         NMat0=    1 NMatS0=      1 NMatT0=    0 NMatD0=    1 NMtDS0=    0 NMtDT0=    0
 Symmetry not used in FoFCou.
 E= -1158.63270288820    
 DIIS: error= 3.04D-02 at cycle   1 NSaved=   1.
 NSaved= 1 IEnMin= 1 EnMin= -1158.63270288820     IErMin= 1 ErrMin= 3.04D-02
 ErrMax= 3.04D-02  0.00D+00 EMaxC= 1.00D-01 BMatC= 6.59D-01 BMatP= 6.59D-01
 IDIUse=3 WtCom= 6.96D-01 WtEn= 3.04D-01
 Coeff-Com:  0.100D+01
 Coeff-En:   0.100D+01
 Coeff:      0.100D+01
 Gap=     0.099 Goal=   None    Shift=    0.000
 GapD=    0.099 DampG=0.500 DampE=0.500 DampFc=0.2500 IDamp=-1.
 Damping current iteration by 2.50D-01
 RMSDP=6.86D-03 MaxDP=3.99D-01              OVMax= 2.27D-01

 Cycle   2  Pass 0  IDiag  1:
 RMSU=  1.70D-03    CP:  9.90D-01
 E= -1158.85003215171     Delta-E=       -0.217329263507 Rises=F Damp=T
 DIIS: error= 1.68D-02 at cycle   2 NSaved=   2.
 NSaved= 2 IEnMin= 2 EnMin= -1158.85003215171     IErMin= 2 ErrMin= 1.68D-02
 ErrMax= 1.68D-02  0.00D+00 EMaxC= 1.00D-01 BMatC= 1.61D-01 BMatP= 6.59D-01
 IDIUse=3 WtCom= 8.32D-01 WtEn= 1.68D-01
 Coeff-Com: -0.797D+00 0.180D+01
 Coeff-En:   0.000D+00 0.100D+01
 Coeff:     -0.663D+00 0.166D+01
 Gap=     0.140 Goal=   None    Shift=    0.000
 RMSDP=2.73D-03 MaxDP=8.11D-02 DE=-2.17D-01 OVMax= 1.67D-01

 Cycle   3  Pass 0  IDiag  1:
 RMSU=  2.09D-03    CP:  9.51D-01  1.90D+00
 E= -1159.21421802914     Delta-E=       -0.364185877433 Rises=F Damp=F
 DIIS: error= 7.17D-03 at cycle   3 NSaved=   3.
 NSaved= 3 IEnMin= 3 EnMin= -1159.21421802914     IErMin= 3 ErrMin= 7.17D-03
 ErrMax= 7.17D-03  0.00D+00 EMaxC= 1.00D-01 BMatC= 3.37D-02 BMatP= 1.61D-01
 IDIUse=3 WtCom= 9.28D-01 WtEn= 7.17D-02
 Coeff-Com: -0.407D+00 0.881D+00 0.527D+00
 Coeff-En:   0.000D+00 0.000D+00 0.100D+01
 Coeff:     -0.378D+00 0.818D+00 0.561D+00
 Gap=     0.123 Goal=   None    Shift=    0.000
 RMSDP=1.10D-03 MaxDP=4.24D-02 DE=-3.64D-01 OVMax= 4.67D-02

 Cycle   4  Pass 0  IDiag  1:
 RMSU=  7.59D-04    CP:  9.60D-01  1.95D+00  6.29D-01
 E= -1159.24297636356     Delta-E=       -0.028758334414 Rises=F Damp=F
 DIIS: error= 4.34D-03 at cycle   4 NSaved=   4.
 NSaved= 4 IEnMin= 4 EnMin= -1159.24297636356     IErMin= 4 ErrMin= 4.34D-03
 ErrMax= 4.34D-03  0.00D+00 EMaxC= 1.00D-01 BMatC= 4.92D-03 BMatP= 3.37D-02
 IDIUse=3 WtCom= 9.57D-01 WtEn= 4.34D-02
 Coeff-Com: -0.122D+00 0.261D+00 0.296D+00 0.565D+00
 Coeff-En:   0.000D+00 0.000D+00 0.927D-01 0.907D+00
 Coeff:     -0.116D+00 0.250D+00 0.287D+00 0.580D+00
 Gap=     0.127 Goal=   None    Shift=    0.000
 RMSDP=4.03D-04 MaxDP=1.78D-02 DE=-2.88D-02 OVMax= 2.93D-02

 Cycle   5  Pass 0  IDiag  1:
 RMSU=  2.28D-04    CP:  9.57D-01  1.92D+00  7.29D-01  6.70D-01
 E= -1159.24708720198     Delta-E=       -0.004110838425 Rises=F Damp=F
 DIIS: error= 1.85D-03 at cycle   5 NSaved=   5.
 NSaved= 5 IEnMin= 5 EnMin= -1159.24708720198     IErMin= 5 ErrMin= 1.85D-03
 ErrMax= 1.85D-03  0.00D+00 EMaxC= 1.00D-01 BMatC= 8.57D-04 BMatP= 4.92D-03
 IDIUse=3 WtCom= 9.81D-01 WtEn= 1.85D-02
 Coeff-Com: -0.277D-01 0.557D-01 0.102D+00 0.349D+00 0.521D+00
 Coeff-En:   0.000D+00 0.000D+00 0.000D+00 0.163D+00 0.837D+00
 Coeff:     -0.272D-01 0.547D-01 0.100D+00 0.345D+00 0.527D+00
 Gap=     0.128 Goal=   None    Shift=    0.000
 RMSDP=1.34D-04 MaxDP=4.77D-03 DE=-4.11D-03 OVMax= 1.13D-02

 Cycle   6  Pass 0  IDiag  1:
 RMSU=  8.85D-05    CP:  9.57D-01  1.93D+00  7.16D-01  7.31D-01  6.28D-01
 E= -1159.24796853579     Delta-E=       -0.000881333810 Rises=F Damp=F
 DIIS: error= 3.56D-04 at cycle   6 NSaved=   6.
 NSaved= 6 IEnMin= 6 EnMin= -1159.24796853579     IErMin= 6 ErrMin= 3.56D-04
 ErrMax= 3.56D-04  0.00D+00 EMaxC= 1.00D-01 BMatC= 4.90D-05 BMatP= 8.57D-04
 IDIUse=3 WtCom= 9.96D-01 WtEn= 3.56D-03
 Coeff-Com: -0.600D-02 0.102D-01 0.265D-01 0.126D+00 0.275D+00 0.568D+00
 Coeff-En:   0.000D+00 0.000D+00 0.000D+00 0.000D+00 0.000D+00 0.100D+01
 Coeff:     -0.598D-02 0.102D-01 0.265D-01 0.126D+00 0.274D+00 0.570D+00
 Gap=     0.127 Goal=   None    Shift=    0.000
 RMSDP=3.93D-05 MaxDP=1.12D-03 DE=-8.81D-04 OVMax= 1.95D-03

 Cycle   7  Pass 0  IDiag  1:
 RMSU=  1.86D-05    CP:  9.57D-01  1.93D+00  7.18D-01  7.36D-01  6.61D-01
                    CP:  6.28D-01
 E= -1159.24801662201     Delta-E=       -0.000048086217 Rises=F Damp=F
 DIIS: error= 9.01D-05 at cycle   7 NSaved=   7.
 NSaved= 7 IEnMin= 7 EnMin= -1159.24801662201     IErMin= 7 ErrMin= 9.01D-05
 ErrMax= 9.01D-05  0.00D+00 EMaxC= 1.00D-01 BMatC= 4.48D-06 BMatP= 4.90D-05
 IDIUse=1 WtCom= 1.00D+00 WtEn= 0.00D+00
 Coeff-Com: -0.115D-02 0.106D-02 0.595D-02 0.419D-01 0.112D+00 0.313D+00
 Coeff-Com:  0.527D+00
 Coeff:     -0.115D-02 0.106D-02 0.595D-02 0.419D-01 0.112D+00 0.313D+00
 Coeff:      0.527D+00
 Gap=     0.127 Goal=   None    Shift=    0.000
 RMSDP=1.08D-05 MaxDP=3.48D-04 DE=-4.81D-05 OVMax= 7.82D-04

 Cycle   8  Pass 0  IDiag  1:
 RMSU=  7.08D-06    CP:  9.57D-01  1.93D+00  7.18D-01  7.37D-01  6.63D-01
                    CP:  6.61D-01  5.99D-01
 E= -1159.24802127264     Delta-E=       -0.000004650636 Rises=F Damp=F
 DIIS: error= 2.62D-05 at cycle   8 NSaved=   8.
 NSaved= 8 IEnMin= 8 EnMin= -1159.24802127264     IErMin= 8 ErrMin= 2.62D-05
 ErrMax= 2.62D-05  0.00D+00 EMaxC= 1.00D-01 BMatC= 5.70D-07 BMatP= 4.48D-06
 IDIUse=1 WtCom= 1.00D+00 WtEn= 0.00D+00
 Coeff-Com: -0.164D-03-0.329D-03 0.844D-03 0.133D-01 0.419D-01 0.137D+00
 Coeff-Com:  0.319D+00 0.488D+00
 Coeff:     -0.164D-03-0.329D-03 0.844D-03 0.133D-01 0.419D-01 0.137D+00
 Coeff:      0.319D+00 0.488D+00
 Gap=     0.127 Goal=   None    Shift=    0.000
 RMSDP=4.01D-06 MaxDP=1.14D-04 DE=-4.65D-06 OVMax= 2.28D-04

 Initial convergence to 1.0D-05 achieved.  Increase integral accuracy.
 Cycle   9  Pass 1  IDiag  1:
 E= -1159.24805207287     Delta-E=       -0.000030800229 Rises=F Damp=F
 DIIS: error= 9.65D-05 at cycle   1 NSaved=   1.
 NSaved= 1 IEnMin= 1 EnMin= -1159.24805207287     IErMin= 1 ErrMin= 9.65D-05
 ErrMax= 9.65D-05  0.00D+00 EMaxC= 1.00D-01 BMatC= 7.42D-07 BMatP= 7.42D-07
 IDIUse=1 WtCom= 1.00D+00 WtEn= 0.00D+00
 Coeff-Com:  0.100D+01
 Coeff:      0.100D+01
 Gap=     0.127 Goal=   None    Shift=    0.000
 RMSDP=4.01D-06 MaxDP=1.14D-04 DE=-3.08D-05 OVMax= 2.26D-04

 Cycle  10  Pass 1  IDiag  1:
 RMSU=  5.43D-05    CP:  1.00D+00
 E= -1159.24805257744     Delta-E=       -0.000000504565 Rises=F Damp=F
 DIIS: error= 1.32D-05 at cycle   2 NSaved=   2.
 NSaved= 2 IEnMin= 2 EnMin= -1159.24805257744     IErMin= 2 ErrMin= 1.32D-05
 ErrMax= 1.32D-05  0.00D+00 EMaxC= 1.00D-01 BMatC= 1.59D-07 BMatP= 7.42D-07
 IDIUse=1 WtCom= 1.00D+00 WtEn= 0.00D+00
 Coeff-Com:  0.222D+00 0.778D+00
 Coeff:      0.222D+00 0.778D+00
 Gap=     0.127 Goal=   None    Shift=    0.000
 RMSDP=4.05D-06 MaxDP=1.36D-04 DE=-5.05D-07 OVMax= 2.67D-04

 Cycle  11  Pass 1  IDiag  1:
 RMSU=  3.99D-06    CP:  1.00D+00  1.01D+00
 E= -1159.24805245035     Delta-E=        0.000000127091 Rises=F Damp=F
 DIIS: error= 1.75D-05 at cycle   3 NSaved=   3.
 NSaved= 3 IEnMin= 2 EnMin= -1159.24805257744     IErMin= 2 ErrMin= 1.32D-05
 ErrMax= 1.75D-05  0.00D+00 EMaxC= 1.00D-01 BMatC= 2.96D-07 BMatP= 1.59D-07
 IDIUse=1 WtCom= 1.00D+00 WtEn= 0.00D+00
 Coeff-Com: -0.183D-02 0.578D+00 0.423D+00
 Coeff:     -0.183D-02 0.578D+00 0.423D+00
 Gap=     0.127 Goal=   None    Shift=    0.000
 RMSDP=2.40D-06 MaxDP=8.67D-05 DE= 1.27D-07 OVMax= 1.79D-04

 Cycle  12  Pass 1  IDiag  1:
 RMSU=  5.16D-07    CP:  1.00D+00  1.02D+00  4.21D-01
 E= -1159.24805271686     Delta-E=       -0.000000266516 Rises=F Damp=F
 DIIS: error= 1.95D-06 at cycle   4 NSaved=   4.
 NSaved= 4 IEnMin= 4 EnMin= -1159.24805271686     IErMin= 4 ErrMin= 1.95D-06
 ErrMax= 1.95D-06  0.00D+00 EMaxC= 1.00D-01 BMatC= 3.32D-09 BMatP= 1.59D-07
 IDIUse=1 WtCom= 1.00D+00 WtEn= 0.00D+00
 Coeff-Com: -0.467D-02 0.328D+00 0.251D+00 0.426D+00
 Coeff:     -0.467D-02 0.328D+00 0.251D+00 0.426D+00
 Gap=     0.127 Goal=   None    Shift=    0.000
 RMSDP=2.77D-07 MaxDP=9.27D-06 DE=-2.67D-07 OVMax= 1.63D-05

 Cycle  13  Pass 1  IDiag  1:
 RMSU=  1.81D-07    CP:  1.00D+00  1.02D+00  4.39D-01  6.26D-01
 E= -1159.24805272024     Delta-E=       -0.000000003382 Rises=F Damp=F
 DIIS: error= 3.78D-07 at cycle   5 NSaved=   5.
 NSaved= 5 IEnMin= 5 EnMin= -1159.24805272024     IErMin= 5 ErrMin= 3.78D-07
 ErrMax= 3.78D-07  0.00D+00 EMaxC= 1.00D-01 BMatC= 7.37D-11 BMatP= 3.32D-09
 IDIUse=1 WtCom= 1.00D+00 WtEn= 0.00D+00
 Coeff-Com: -0.225D-02 0.141D+00 0.109D+00 0.212D+00 0.540D+00
 Coeff:     -0.225D-02 0.141D+00 0.109D+00 0.212D+00 0.540D+00
 Gap=     0.127 Goal=   None    Shift=    0.000
 RMSDP=4.56D-08 MaxDP=2.16D-06 DE=-3.38D-09 OVMax= 2.98D-06

 Cycle  14  Pass 1  IDiag  1:
 RMSU=  4.11D-08    CP:  1.00D+00  1.02D+00  4.38D-01  6.51D-01  9.25D-01
 E= -1159.24805272030     Delta-E=       -0.000000000054 Rises=F Damp=F
 DIIS: error= 1.51D-07 at cycle   6 NSaved=   6.
 NSaved= 6 IEnMin= 6 EnMin= -1159.24805272030     IErMin= 6 ErrMin= 1.51D-07
 ErrMax= 1.51D-07  0.00D+00 EMaxC= 1.00D-01 BMatC= 9.66D-12 BMatP= 7.37D-11
 IDIUse=1 WtCom= 1.00D+00 WtEn= 0.00D+00
 Coeff-Com: -0.387D-03 0.180D-01 0.145D-01 0.366D-01 0.277D+00 0.654D+00
 Coeff:     -0.387D-03 0.180D-01 0.145D-01 0.366D-01 0.277D+00 0.654D+00
 Gap=     0.127 Goal=   None    Shift=    0.000
 RMSDP=1.82D-08 MaxDP=5.82D-07 DE=-5.37D-11 OVMax= 1.26D-06

 Cycle  15  Pass 1  IDiag  1:
 RMSU=  1.45D-08    CP:  1.00D+00  1.02D+00  4.39D-01  6.59D-01  9.65D-01
                    CP:  8.35D-01
 E= -1159.24805272028     Delta-E=        0.000000000017 Rises=F Damp=F
 DIIS: error= 4.25D-08 at cycle   7 NSaved=   7.
 NSaved= 7 IEnMin= 6 EnMin= -1159.24805272030     IErMin= 7 ErrMin= 4.25D-08
 ErrMax= 4.25D-08  0.00D+00 EMaxC= 1.00D-01 BMatC= 1.74D-12 BMatP= 9.66D-12
 IDIUse=1 WtCom= 1.00D+00 WtEn= 0.00D+00
 Coeff-Com:  0.691D-04-0.793D-02-0.566D-02-0.680D-02 0.938D-01 0.375D+00
 Coeff-Com:  0.552D+00
 Coeff:      0.691D-04-0.793D-02-0.566D-02-0.680D-02 0.938D-01 0.375D+00
 Coeff:      0.552D+00
 Gap=     0.127 Goal=   None    Shift=    0.000
 RMSDP=7.71D-09 MaxDP=2.41D-07 DE= 1.73D-11 OVMax= 4.02D-07

 SCF Done:  E(RPBE1PBE) =  -1159.24805272     A.U. after   15 cycles
            NFock= 15  Conv=0.77D-08     -V/T= 2.0031
 KE= 1.155690819228D+03 PE=-5.785617765733D+03 EE= 1.948174942236D+03
 Leave Link  502 at Mon Mar  6 10:26:37 2023, MaxMem=  1048576000 cpu:             279.3 elap:             281.4
 (Enter /ssoft/spack/external/gaussian/g16-C.01/avx2/g16/l801.exe)
 DoSCS=F DFT=T ScalE2(SS,OS)=  1.000000  1.000000
 Range of M.O.s used for correlation:     1   321
 NBasis=   321 NAE=    69 NBE=    69 NFC=     0 NFV=     0
 NROrb=    321 NOA=    69 NOB=    69 NVA=   252 NVB=   252

 **** Warning!!: The largest alpha MO coefficient is  0.12160267D+02

 Leave Link  801 at Mon Mar  6 10:26:37 2023, MaxMem=  1048576000 cpu:               0.1 elap:               0.0
 (Enter /ssoft/spack/external/gaussian/g16-C.01/avx2/g16/l1101.exe)
 Using compressed storage, NAtomX=    31.
 Will process     32 centers per pass.
   1 Symmetry operations used in ECPInt.
 ECPInt:  NShTT=   11175 NPrTT=   41611 LenC2=   10742 LenP2D=   28947.
 LDataN:  DoStor=T MaxTD1= 5 Len=  102
 R6Disp: Adding Grimme-D3(BJ) dispersion energy 1st derivatives to the gradient.
 Leave Link 1101 at Mon Mar  6 10:26:37 2023, MaxMem=  1048576000 cpu:               0.4 elap:               0.5
 (Enter /ssoft/spack/external/gaussian/g16-C.01/avx2/g16/l1102.exe)
 Symmetrizing basis deriv contribution to polar:
 IMax=3 JMax=2 DiffMx= 0.00D+00
 Leave Link 1102 at Mon Mar  6 10:26:38 2023, MaxMem=  1048576000 cpu:               0.0 elap:               0.1
 (Enter /ssoft/spack/external/gaussian/g16-C.01/avx2/g16/l1110.exe)
 Forming Gx(P) for the SCF density, NAtomX=    31.
 Integral derivatives from FoFJK, PRISM(SPDF).
 Do as many integral derivatives as possible in FoFJK.
 G2DrvN: MDV=    1048572671.
 G2DrvN: will do    32 centers at a time, making    1 passes.
 Calling FoFCou, ICntrl=  3107 FMM=F I1Cent=   0 AccDes= 0.00D+00.
 FoFJK:  IHMeth= 1 ICntrl=    3107 DoSepK=F KAlg= 0 I1Cent=           0 FoldK=F
 IRaf=         0 NMat=       1 IRICut=       1 DoRegI=T DoRafI=F ISym2E= 0 IDoP0=0 IntGTp=1.
 FoFCou: FMM=F IPFlag=           0 FMFlag=      100000 FMFlg1=           0
         NFxFlg=           0 DoJE=F BraDBF=F KetDBF=F FulRan=T
         wScrn=  0.000000 ICntrl=      3107 IOpCl=  0 I1Cent=           0 NGrid=           0
         NMat0=    1 NMatS0=      1 NMatT0=    0 NMatD0=    1 NMtDS0=    0 NMtDT0=    0
 Symmetry not used in FoFCou.
 End of G2Drv F.D. properties file   721 does not exist.
 End of G2Drv F.D. properties file   722 does not exist.
 End of G2Drv F.D. properties file   788 does not exist.
 Leave Link 1110 at Mon Mar  6 10:38:17 2023, MaxMem=  1048576000 cpu:             696.2 elap:             699.4
 (Enter /ssoft/spack/external/gaussian/g16-C.01/avx2/g16/l1002.exe)
 Minotr:  Closed shell wavefunction.
          IDoAtm=1111111111111111111111111111111
          Direct CPHF calculation.
          Differentiating once with respect to electric field.
                with respect to dipole field.
          Differentiating once with respect to nuclear coordinates.
          Requested convergence is 1.0D-08 RMS, and 1.0D-07 maximum.
          Secondary convergence is 1.0D-12 RMS, and 1.0D-12 maximum.
          NewPWx=T KeepS1=F KeepF1=F KeepIn=T MapXYZ=F SortEE=F KeepMc=T.
         9309 words used for storage of precomputed grid.
 Two-electron integrals replicated using symmetry.
          MDV=    1048576000 using IRadAn=       1.
          Solving linear equations simultaneously, MaxMat=     384.
 FoF2E skips out because all densities are zero.
 CalDSu exits because no D1Ps are significant.
 FoFJK:  IHMeth= 1 ICntrl=       0 DoSepK=F KAlg= 0 I1Cent=           0 FoldK=F
 IRaf= 900000000 NMat=      93 IRICut=     232 DoRegI=T DoRafI=T ISym2E= 2 IDoP0=3 IntGTp=3.
 FoFCou: FMM=F IPFlag=           0 FMFlag=      100000 FMFlg1=           0
         NFxFlg=           0 DoJE=F BraDBF=F KetDBF=F FulRan=T
         wScrn=  0.000000 ICntrl=         0 IOpCl=  0 I1Cent=           0 NGrid=           0
         NMat0=   93 NMatS0=     93 NMatT0=    0 NMatD0=   93 NMtDS0=    0 NMtDT0=    0
 Integrals replicated using symmetry in FoFCou.
 Raff kept on since  86.68% of shell-pairs survive, threshold=   0.20 IRatSp=87.
          There are    96 degrees of freedom in the 1st order CPHF.  IDoFFX=6 NUNeed=     3.
     93 vectors produced by pass  0 Test12= 1.81D-14 1.04D-09 XBig12= 2.35D+02 4.71D+00.
 AX will form    93 AO Fock derivatives at one time.
     93 vectors produced by pass  1 Test12= 1.81D-14 1.04D-09 XBig12= 5.02D+01 1.30D+00.
     93 vectors produced by pass  2 Test12= 1.81D-14 1.04D-09 XBig12= 4.62D-01 7.37D-02.
     93 vectors produced by pass  3 Test12= 1.81D-14 1.04D-09 XBig12= 2.10D-03 4.11D-03.
     93 vectors produced by pass  4 Test12= 1.81D-14 1.04D-09 XBig12= 6.24D-06 2.49D-04.
     90 vectors produced by pass  5 Test12= 1.81D-14 1.04D-09 XBig12= 9.94D-09 1.14D-05.
     33 vectors produced by pass  6 Test12= 1.81D-14 1.04D-09 XBig12= 1.38D-11 4.65D-07.
      3 vectors produced by pass  7 Test12= 1.81D-14 1.04D-09 XBig12= 1.47D-14 1.36D-08.
      2 vectors produced by pass  8 Test12= 1.81D-14 1.04D-09 XBig12= 2.45D-16 1.28D-09.
 InvSVY:  IOpt=1 It=  1 EMax= 8.88D-15
 Solved reduced A of dimension   593 with    96 vectors.
 FullF1:  Do perturbations      1 to       3.
 Isotropic polarizability for W=    0.000000      151.76 Bohr**3.
 End of Minotr F.D. properties file   721 does not exist.
 End of Minotr F.D. properties file   722 does not exist.
 End of Minotr F.D. properties file   788 does not exist.
 Leave Link 1002 at Mon Mar  6 10:57:32 2023, MaxMem=  1048576000 cpu:            1151.4 elap:            1155.6
 (Enter /ssoft/spack/external/gaussian/g16-C.01/avx2/g16/l601.exe)
 Copying SCF densities to generalized density rwf, IOpCl= 0 IROHF=0.

 **********************************************************************

            Population analysis using the SCF Density.

 **********************************************************************

 Orbital symmetries:
       Occupied  (A) (A) (A) (A) (A) (A) (A) (A) (A) (A) (A) (A)
                 (A) (A) (A) (A) (A) (A) (A) (A) (A) (A) (A) (A)
                 (A) (A) (A) (A) (A) (A) (A) (A) (A) (A) (A) (A)
                 (A) (A) (A) (A) (A) (A) (A) (A) (A) (A) (A) (A)
                 (A) (A) (A) (A) (A) (A) (A) (A) (A) (A) (A) (A)
                 (A) (A) (A) (A) (A) (A) (A) (A) (A)
       Virtual   (A) (A) (A) (A) (A) (A) (A) (A) (A) (A) (A) (A)
                 (A) (A) (A) (A) (A) (A) (A) (A) (A) (A) (A) (A)
                 (A) (A) (A) (A) (A) (A) (A) (A) (A) (A) (A) (A)
                 (A) (A) (A) (A) (A) (A) (A) (A) (A) (A) (A) (A)
                 (A) (A) (A) (A) (A) (A) (A) (A) (A) (A) (A) (A)
                 (A) (A) (A) (A) (A) (A) (A) (A) (A) (A) (A) (A)
                 (A) (A) (A) (A) (A) (A) (A) (A) (A) (A) (A) (A)
                 (A) (A) (A) (A) (A) (A) (A) (A) (A) (A) (A) (A)
                 (A) (A) (A) (A) (A) (A) (A) (A) (A) (A) (A) (A)
                 (A) (A) (A) (A) (A) (A) (A) (A) (A) (A) (A) (A)
                 (A) (A) (A) (A) (A) (A) (A) (A) (A) (A) (A) (A)
                 (A) (A) (A) (A) (A) (A) (A) (A) (A) (A) (A) (A)
                 (A) (A) (A) (A) (A) (A) (A) (A) (A) (A) (A) (A)
                 (A) (A) (A) (A) (A) (A) (A) (A) (A) (A) (A) (A)
                 (A) (A) (A) (A) (A) (A) (A) (A) (A) (A) (A) (A)
                 (A) (A) (A) (A) (A) (A) (A) (A) (A) (A) (A) (A)
                 (A) (A) (A) (A) (A) (A) (A) (A) (A) (A) (A) (A)
                 (A) (A) (A) (A) (A) (A) (A) (A) (A) (A) (A) (A)
                 (A) (A) (A) (A) (A) (A) (A) (A) (A) (A) (A) (A)
                 (A) (A) (A) (A) (A) (A) (A) (A) (A) (A) (A) (A)
                 (A) (A) (A) (A) (A) (A) (A) (A) (A) (A) (A) (A)
 The electronic state is 1-A.
 Alpha  occ. eigenvalues --  -89.01554 -18.98960 -18.98790 -14.24962 -14.14986
 Alpha  occ. eigenvalues --  -10.13915 -10.13338 -10.12035 -10.11763 -10.11181
 Alpha  occ. eigenvalues --  -10.10809 -10.10282 -10.10195 -10.10158 -10.09627
 Alpha  occ. eigenvalues --  -10.09402 -10.07528 -10.06904  -7.98337  -5.92565
 Alpha  occ. eigenvalues --   -5.92471  -5.92355  -0.94009  -0.83749  -0.81784
 Alpha  occ. eigenvalues --   -0.76524  -0.72228  -0.71243  -0.70723  -0.66686
 Alpha  occ. eigenvalues --   -0.65095  -0.62499  -0.57834  -0.54859  -0.52390
 Alpha  occ. eigenvalues --   -0.51777  -0.50095  -0.45306  -0.44378  -0.40312
 Alpha  occ. eigenvalues --   -0.39610  -0.38946  -0.37806  -0.36770  -0.35467
 Alpha  occ. eigenvalues --   -0.33994  -0.33142  -0.32964  -0.32816  -0.32203
 Alpha  occ. eigenvalues --   -0.30835  -0.29603  -0.27952  -0.26483  -0.26109
 Alpha  occ. eigenvalues --   -0.25271  -0.24617  -0.23868  -0.18347  -0.16703
 Alpha  occ. eigenvalues --   -0.16117  -0.15010  -0.14217  -0.13366  -0.13196
 Alpha  occ. eigenvalues --   -0.12110  -0.11174  -0.06791  -0.03420
 Alpha virt. eigenvalues --    0.09297   0.10817   0.12239   0.12492   0.17279
 Alpha virt. eigenvalues --    0.20429   0.21235   0.22256   0.23767   0.24265
 Alpha virt. eigenvalues --    0.25520   0.25696   0.26937   0.28015   0.28494
 Alpha virt. eigenvalues --    0.29548   0.30093   0.31538   0.32498   0.32928
 Alpha virt. eigenvalues --    0.34409   0.34784   0.35733   0.36936   0.38128
 Alpha virt. eigenvalues --    0.39845   0.41324   0.41689   0.42233   0.43653
 Alpha virt. eigenvalues --    0.44687   0.44737   0.45942   0.47480   0.48237
 Alpha virt. eigenvalues --    0.49865   0.51396   0.52301   0.54782   0.55571
 Alpha virt. eigenvalues --    0.57033   0.57446   0.58184   0.59502   0.60555
 Alpha virt. eigenvalues --    0.60808   0.61178   0.62820   0.63573   0.64695
 Alpha virt. eigenvalues --    0.65625   0.66475   0.67359   0.69366   0.70215
 Alpha virt. eigenvalues --    0.71680   0.72417   0.72501   0.73406   0.76113
 Alpha virt. eigenvalues --    0.78054   0.78809   0.80085   0.81104   0.82095
 Alpha virt. eigenvalues --    0.82154   0.82631   0.83269   0.83531   0.84179
 Alpha virt. eigenvalues --    0.84669   0.85257   0.86287   0.86981   0.87228
 Alpha virt. eigenvalues --    0.87974   0.88888   0.89109   0.89950   0.90249
 Alpha virt. eigenvalues --    0.90726   0.91332   0.91901   0.93222   0.93765
 Alpha virt. eigenvalues --    0.94809   0.95128   0.96037   0.96705   0.97207
 Alpha virt. eigenvalues --    0.98479   0.99773   1.01418   1.03292   1.03810
 Alpha virt. eigenvalues --    1.05015   1.06770   1.07457   1.08923   1.12061
 Alpha virt. eigenvalues --    1.14678   1.15183   1.15391   1.16388   1.19175
 Alpha virt. eigenvalues --    1.19260   1.21644   1.24035   1.24940   1.26169
 Alpha virt. eigenvalues --    1.26694   1.29007   1.31114   1.32480   1.33336
 Alpha virt. eigenvalues --    1.34641   1.35356   1.36906   1.38163   1.38470
 Alpha virt. eigenvalues --    1.38983   1.39975   1.41447   1.42985   1.43180
 Alpha virt. eigenvalues --    1.44674   1.46634   1.46863   1.47559   1.49576
 Alpha virt. eigenvalues --    1.49855   1.54406   1.56105   1.56867   1.60811
 Alpha virt. eigenvalues --    1.63725   1.66536   1.67847   1.69782   1.71971
 Alpha virt. eigenvalues --    1.74465   1.76805   1.79300   1.79806   1.82064
 Alpha virt. eigenvalues --    1.84328   1.85899   1.86944   1.89195   1.90128
 Alpha virt. eigenvalues --    1.90782   1.92144   1.92828   1.93399   1.94639
 Alpha virt. eigenvalues --    1.97133   1.98351   2.00138   2.01179   2.01534
 Alpha virt. eigenvalues --    2.02527   2.04288   2.06171   2.07142   2.08711
 Alpha virt. eigenvalues --    2.09211   2.11403   2.12558   2.13563   2.14951
 Alpha virt. eigenvalues --    2.17038   2.18300   2.19705   2.21274   2.22606
 Alpha virt. eigenvalues --    2.23264   2.23992   2.29372   2.30549   2.31208
 Alpha virt. eigenvalues --    2.31833   2.33114   2.34064   2.34992   2.35461
 Alpha virt. eigenvalues --    2.37540   2.39036   2.41671   2.41876   2.45082
 Alpha virt. eigenvalues --    2.45824   2.46929   2.49033   2.50491   2.53183
 Alpha virt. eigenvalues --    2.55790   2.56095   2.57617   2.58113   2.58571
 Alpha virt. eigenvalues --    2.59421   2.61666   2.67377   2.67937   2.73052
 Alpha virt. eigenvalues --    2.73365   2.76546   2.77152   2.79276   2.81154
 Alpha virt. eigenvalues --    2.82488   2.83197   2.84149   2.85417   2.87500
 Alpha virt. eigenvalues --    2.89230   2.89505   2.91036   2.92423   2.93766
 Alpha virt. eigenvalues --    2.95111   2.97641   3.00465   3.01445   3.02823
 Alpha virt. eigenvalues --    3.05549   3.11229   3.12730   3.14252   3.17449
 Alpha virt. eigenvalues --    3.18061   3.20275   3.20621   3.23722   3.25777
 Alpha virt. eigenvalues --    3.34516   3.35984   3.38487   3.41345   3.42333
 Alpha virt. eigenvalues --    3.47520   3.51204   3.56174   3.56395   3.60047
 Alpha virt. eigenvalues --    3.64286   3.68804   3.69557   3.87535   4.00994
 Alpha virt. eigenvalues --    4.05499   4.14670
     Molecular Orbital Coefficients:
                          65        66        67        68        69
                           O         O         O         O         O
     Eigenvalues --    -0.13196  -0.12110  -0.11174  -0.06791  -0.03420
   1 1   N  1S          0.08449  -0.04318  -0.00388  -0.01855   0.01736
   2        2S          0.17714  -0.09287  -0.00643  -0.04778   0.03987
   3        3S          0.19198  -0.08982  -0.01651   0.04323   0.06891
   4        4PX         0.30010  -0.14728  -0.01436  -0.06771   0.04611
   5        4PY         0.09986  -0.09580   0.01434  -0.02692   0.02407
   6        4PZ         0.27712  -0.13054  -0.02559  -0.06694   0.04778
   7        5PX        -0.22209   0.10277   0.00963   0.01646  -0.01676
   8        5PY        -0.06556   0.06464  -0.01792   0.03356   0.00145
   9        5PZ        -0.19913   0.09148   0.01684   0.08310  -0.00422
  10        6D 0       -0.00304  -0.00060   0.00075   0.00031   0.00128
  11        6D+1       -0.01002   0.00578   0.00019   0.00165  -0.00493
  12        6D-1       -0.00623   0.00574  -0.00109   0.00209  -0.00042
  13        6D+2       -0.01011   0.00342   0.00041   0.00237  -0.00312
  14        6D-2       -0.00367   0.00269   0.00032  -0.00023  -0.00521
  15 2   N  1S          0.01901   0.01834   0.01769   0.09004  -0.01842
  16        2S          0.03251   0.03502   0.04012   0.18170  -0.03249
  17        3S          0.10115   0.08167   0.09405   0.24070  -0.07477
  18        4PX         0.01780  -0.04857   0.03323   0.22011   0.41447
  19        4PY        -0.00250   0.02334   0.15094  -0.16254  -0.10513
  20        4PZ         0.07271   0.04682  -0.02636   0.33811  -0.28315
  21        5PX         0.00718   0.03520  -0.01721  -0.19860  -0.35977
  22        5PY         0.00871  -0.02781  -0.11959   0.11204   0.06956
  23        5PZ        -0.04939  -0.01630   0.03862  -0.26420   0.21297
  24        6D 0       -0.00178  -0.00163  -0.00081  -0.01077   0.01469
  25        6D+1       -0.00509   0.00252  -0.00240  -0.01251  -0.01375
  26        6D-1        0.00143   0.00134  -0.00861   0.01020  -0.00068
  27        6D+2       -0.00004  -0.00080  -0.00368   0.00372   0.00158
  28        6D-2       -0.00140  -0.00111  -0.00198   0.00518   0.01062
  29 3   C  1S          0.02895  -0.01472  -0.00098  -0.00765   0.00356
  30        2S         -0.06946   0.03664   0.00245   0.02113  -0.01235
  31        3S         -0.03234   0.02801  -0.00123   0.04829  -0.01829
  32        4PX         0.14215  -0.06312  -0.00528  -0.03468   0.01129
  33        4PY         0.00055  -0.02776   0.02094  -0.00996  -0.02949
  34        4PZ         0.04461  -0.01402  -0.00914  -0.00213   0.01307
  35        5PX        -0.04466   0.02898   0.00016   0.00239  -0.03623
  36        5PY        -0.00916  -0.00546   0.01256   0.00059  -0.04044
  37        5PZ        -0.01279   0.01815  -0.00487   0.02888  -0.01558
  38        6D 0       -0.00940   0.00624   0.00011   0.00215  -0.00299
  39        6D+1        0.02170  -0.00987  -0.00196  -0.00476   0.00495
  40        6D-1       -0.00475   0.00166   0.00090   0.00112  -0.00116
  41        6D+2        0.00566  -0.00296  -0.00032  -0.00065   0.00206
  42        6D-2        0.00885  -0.00890   0.00175  -0.00217   0.00337
  43 4   C  1S         -0.02404   0.01190   0.00029   0.00456  -0.00800
  44        2S          0.06412  -0.02854  -0.00027  -0.01117   0.02087
  45        3S          0.07362  -0.06313  -0.00748  -0.06142   0.05590
  46        4PX        -0.09848   0.04021   0.00739   0.01935  -0.01537
  47        4PY        -0.00592  -0.06799   0.03425  -0.00587   0.01449
  48        4PZ        -0.09375   0.07048  -0.00618   0.02174  -0.01363
  49        5PX        -0.01110   0.00872   0.00230   0.02016  -0.01287
  50        5PY        -0.02978  -0.04053   0.03112   0.00098   0.00687
  51        5PZ        -0.13480   0.08940  -0.00806   0.03241  -0.04134
  52        6D 0        0.00323  -0.00117   0.00038  -0.00149  -0.00060
  53        6D+1        0.00175  -0.00095  -0.00022  -0.00095  -0.00070
  54        6D-1        0.00121  -0.00036  -0.00085   0.00014   0.00174
  55        6D+2       -0.00406   0.00232   0.00071   0.00093  -0.00120
  56        6D-2        0.00126   0.00017  -0.00069  -0.00025   0.00072
  57 5   C  1S         -0.00315   0.00091  -0.00169  -0.00452  -0.00667
  58        2S          0.00719  -0.00137   0.00605   0.00767   0.01438
  59        3S          0.14525  -0.05309  -0.00453   0.03971   0.04305
  60        4PX         0.01780  -0.00755  -0.00881  -0.02393  -0.02033
  61        4PY         0.01652  -0.03093  -0.00815   0.00736   0.02308
  62        4PZ         0.01441   0.00078   0.00171  -0.00179  -0.00824
  63        5PX        -0.01906   0.00376   0.00161  -0.03325  -0.01349
  64        5PY        -0.00236  -0.01279  -0.00947   0.01017   0.02180
  65        5PZ        -0.03187   0.02220  -0.00141  -0.00034  -0.01991
  66        6D 0        0.00084  -0.00218   0.00117   0.00000   0.00138
  67        6D+1        0.00727  -0.00187  -0.00170  -0.00268  -0.00230
  68        6D-1       -0.00067   0.00317  -0.00138   0.00076  -0.00037
  69        6D+2        0.00083  -0.00164   0.00059  -0.00060  -0.00061
  70        6D-2        0.00351  -0.00482   0.00171  -0.00161   0.00072
  71 6   C  1S         -0.02124   0.01269   0.00448   0.01593   0.00579
  72        2S          0.05934  -0.03654  -0.00904  -0.04417  -0.01367
  73        3S          0.02718  -0.02890  -0.04234  -0.13685  -0.06064
  74        4PX        -0.08396   0.04528   0.01493   0.05023   0.02034
  75        4PY        -0.04250   0.07402  -0.03551   0.01878  -0.01385
  76        4PZ        -0.09423   0.02495   0.02582   0.02683   0.02481
  77        5PX        -0.10267   0.03843   0.02678   0.04093   0.04205
  78        5PY        -0.01547   0.04732  -0.02159   0.01209  -0.02116
  79        5PZ        -0.02257  -0.00897   0.03654   0.01821   0.03770
  80        6D 0       -0.00366   0.00310  -0.00111  -0.00094  -0.00379
  81        6D+1        0.00251  -0.00036  -0.00046  -0.00077  -0.00005
  82        6D-1       -0.00184  -0.00067   0.00040  -0.00060  -0.00136
  83        6D+2        0.00130  -0.00049  -0.00001   0.00137   0.00191
  84        6D-2        0.00153  -0.00312  -0.00021   0.00020   0.00157
  85 7   C  1S          0.02741  -0.00489  -0.00396  -0.01625  -0.03260
  86        2S         -0.07322   0.01398   0.00905   0.03865   0.08171
  87        3S          0.04571  -0.05813   0.01780   0.02041   0.22672
  88        4PX         0.05015  -0.00227  -0.01893  -0.06759  -0.12213
  89        4PY         0.03489   0.04610  -0.01743   0.00241  -0.00004
  90        4PZ         0.12744  -0.08871  -0.00386  -0.02154   0.02194
  91        5PX        -0.05799   0.05422   0.03470  -0.02759  -0.15957
  92        5PY        -0.00944   0.04281   0.00046   0.04533   0.04738
  93        5PZ         0.00876  -0.02596   0.01178   0.11888   0.10789
  94        6D 0        0.00918  -0.00373  -0.00045  -0.00054   0.00107
  95        6D+1        0.01964  -0.01283  -0.00109  -0.01079   0.00147
  96        6D-1        0.00312  -0.00225   0.00026  -0.00197  -0.00265
  97        6D+2       -0.00774   0.00288  -0.00117   0.00185  -0.00116
  98        6D-2        0.00583   0.00086  -0.00597  -0.00245  -0.00220
  99 8   C  1S          0.02872  -0.01205   0.01750   0.02492   0.00009
 100        2S         -0.06789   0.02081  -0.04806  -0.05466   0.01544
 101        3S         -0.18587   0.12748  -0.01230  -0.07342  -0.08821
 102        4PX        -0.07576   0.03418   0.04073   0.10817   0.01776
 103        4PY         0.03538  -0.02733   0.10690   0.02101  -0.03489
 104        4PZ         0.07188   0.03334   0.00728   0.10796  -0.04007
 105        5PX        -0.08710   0.05756   0.05275   0.00674  -0.13786
 106        5PY         0.03353  -0.00869   0.04061   0.01544  -0.02725
 107        5PZ         0.03684   0.02984  -0.00051  -0.05675  -0.01993
 108        6D 0        0.00614   0.00447  -0.00800   0.01526  -0.01737
 109        6D+1        0.00161  -0.00260  -0.00235   0.00335   0.00620
 110        6D-1       -0.00033   0.00122  -0.00350  -0.00148  -0.00757
 111        6D+2       -0.00044   0.00024  -0.00427   0.01683   0.01705
 112        6D-2       -0.00108   0.00080  -0.00186   0.00029   0.01209
 113 9   H  1S         -0.05413   0.02614   0.00359   0.01409  -0.00662
 114        2S         -0.08511   0.04163   0.00558   0.02287  -0.02168
 115        3PX        -0.00217   0.00088   0.00039   0.00028  -0.00031
 116        3PY        -0.00016  -0.00317   0.00140  -0.00043   0.00074
 117        3PZ        -0.00270   0.00231  -0.00025   0.00063  -0.00028
 118 10  H  1S          0.04025  -0.01733  -0.00564  -0.01398  -0.00926
 119        2S          0.02960  -0.01519  -0.00526  -0.01455  -0.01508
 120        3PX         0.00068  -0.00023  -0.00026  -0.00067  -0.00093
 121        3PY         0.00073  -0.00154  -0.00023   0.00020   0.00115
 122        3PZ         0.00051   0.00013   0.00040  -0.00022  -0.00014
 123 11  H  1S         -0.05943   0.02627   0.00156  -0.00359  -0.01451
 124        2S         -0.06161   0.04585  -0.00234   0.02938  -0.02721
 125        3PX        -0.00348   0.00196  -0.00043   0.00115   0.00073
 126        3PY        -0.00077   0.00234  -0.00151   0.00057  -0.00062
 127        3PZ        -0.00105  -0.00032   0.00079   0.00123   0.00045
 128 12  H  1S          0.04765   0.03745  -0.03988   0.08278  -0.07394
 129        2S          0.05166  -0.04051   0.00867   0.17454  -0.08934
 130        3PX        -0.00047   0.00244  -0.00086   0.00583   0.00314
 131        3PY         0.00133   0.00205   0.00119  -0.00081  -0.00267
 132        3PZ         0.00005  -0.00111   0.00104   0.00389  -0.00012
 133 13  H  1S          0.00594  -0.03517   0.06902  -0.11778  -0.04854
 134        2S          0.02070  -0.02913   0.05292  -0.08551  -0.05132
 135        3PX        -0.00139   0.00019   0.00255   0.00042   0.00059
 136        3PY        -0.00011  -0.00033   0.00116   0.00212   0.00094
 137        3PZ         0.00179   0.00077   0.00190   0.00156  -0.00354
 138 14  S  1S          0.00156   0.00169  -0.00111   0.00794  -0.00184
 139        2S          0.01029   0.01101  -0.00750   0.05285  -0.01235
 140        3S         -0.01599  -0.00707   0.02303  -0.09066   0.02244
 141        4S         -0.02802  -0.06099  -0.03690  -0.07444   0.00115
 142        5PX        -0.00694  -0.01063  -0.00782  -0.01421  -0.01242
 143        5PY        -0.01103  -0.01014   0.02012  -0.05641   0.00971
 144        5PZ         0.00600   0.00259  -0.00254   0.02426   0.00162
 145        6PX        -0.01565  -0.02557  -0.02079  -0.02091  -0.01584
 146        6PY        -0.01983  -0.01295   0.04909  -0.11529   0.01919
 147        6PZ         0.01464   0.01199  -0.01571   0.05267  -0.00374
 148        7PX        -0.00017   0.02913   0.03495  -0.09930  -0.11841
 149        7PY        -0.02807  -0.08903  -0.02994  -0.07587   0.02766
 150        7PZ        -0.02096  -0.07975   0.11641  -0.01982   0.11191
 151        8D 0        0.01154   0.06045  -0.02135   0.00640  -0.03731
 152        8D+1       -0.05640  -0.08543   0.02425   0.02018   0.04326
 153        8D-1        0.02860  -0.00135   0.00426   0.01268  -0.01570
 154        8D+2       -0.03105  -0.02077  -0.08509   0.01385  -0.05579
 155        8D-2       -0.01115   0.01494   0.08858  -0.07490  -0.07085
 156 15  O  1S         -0.00234  -0.00112  -0.00099  -0.00518  -0.00255
 157        2S         -0.00683  -0.00389  -0.00520  -0.00836  -0.00828
 158        3S         -0.00157  -0.01022   0.03888  -0.04877   0.01209
 159        4PX         0.19370   0.28976   0.02413  -0.04926   0.07978
 160        4PY        -0.18204  -0.12496  -0.28820  -0.04954  -0.02010
 161        4PZ        -0.03498  -0.17345   0.33070   0.06404  -0.09660
 162        5PX         0.15015   0.21918   0.02695  -0.04288   0.08282
 163        5PY        -0.13836  -0.09321  -0.21400  -0.04149  -0.01047
 164        5PZ        -0.02260  -0.12865   0.25367   0.03414  -0.08371
 165        6D 0       -0.00085  -0.00700   0.01405   0.00473  -0.00462
 166        6D+1        0.00532   0.00457   0.00725   0.00097   0.00161
 167        6D-1       -0.00576  -0.00647  -0.00305  -0.00168  -0.00152
 168        6D+2        0.00897   0.01004   0.00532   0.00014   0.00110
 169        6D-2        0.00015   0.00501  -0.00664  -0.00442   0.00067
 170 16  O  1S         -0.00165   0.00077  -0.00104  -0.00208  -0.00917
 171        2S         -0.00081   0.00300  -0.00425  -0.00348  -0.01810
 172        3S         -0.00291   0.03544  -0.01405  -0.00135  -0.08102
 173        4PX        -0.07528  -0.07944   0.26232   0.07394  -0.02093
 174        4PY         0.07153  -0.17831  -0.01120   0.22936  -0.16631
 175        4PZ        -0.12347  -0.18951   0.17421  -0.02735   0.11113
 176        5PX        -0.05940  -0.05859   0.20103   0.06832  -0.01755
 177        5PY         0.05971  -0.12929  -0.00735   0.19152  -0.13024
 178        5PZ        -0.09037  -0.14683   0.13215  -0.02214   0.10900
 179        6D 0        0.00497   0.00628  -0.00859   0.00019  -0.00363
 180        6D+1        0.00193   0.00205  -0.00858  -0.00271   0.00179
 181        6D-1       -0.00214   0.00747  -0.00040  -0.00648   0.00456
 182        6D+2       -0.00220  -0.00341   0.00439   0.00214  -0.00227
 183        6D-2        0.00152  -0.00264   0.00060   0.00204  -0.00407
 184 17  C  1S          0.00993   0.02331   0.03810  -0.02897  -0.01674
 185        2S         -0.03025  -0.05990  -0.10633   0.07722   0.05242
 186        3S         -0.06612  -0.06066  -0.03506   0.03013  -0.04015
 187        4PX         0.04908   0.17935   0.20826  -0.10336  -0.04765
 188        4PY         0.01368   0.10505   0.00210   0.08356   0.04778
 189        4PZ         0.02579  -0.02586  -0.02497  -0.01866  -0.01951
 190        5PX         0.00358   0.14886   0.16134  -0.14346  -0.13297
 191        5PY         0.01700   0.08468  -0.04751   0.07369  -0.01161
 192        5PZ         0.01854   0.04368  -0.11330  -0.00693  -0.07512
 193        6D 0       -0.00055   0.00364   0.00358  -0.00198  -0.00119
 194        6D+1        0.00439   0.00316  -0.00362  -0.00180  -0.00389
 195        6D-1        0.00040   0.00002   0.00239   0.00134   0.00358
 196        6D+2        0.00054   0.00244  -0.00105   0.00753   0.00676
 197        6D-2        0.00386   0.00569   0.00406   0.00303   0.00491
 198 18  C  1S         -0.01037  -0.01732  -0.00310   0.00625   0.00527
 199        2S          0.02614   0.03760   0.00785  -0.01132  -0.01385
 200        3S          0.09358   0.02273  -0.04379   0.00549   0.10568
 201        4PX        -0.02253  -0.03445  -0.02055   0.04438   0.03902
 202        4PY         0.04298   0.08307   0.02466   0.05220   0.07175
 203        4PZ        -0.03711  -0.06027  -0.04582  -0.01355  -0.01977
 204        5PX         0.05138   0.04848  -0.08543   0.02406   0.00002
 205        5PY         0.01999   0.06249   0.03946   0.04093   0.05572
 206        5PZ        -0.01199   0.02143  -0.05751  -0.04554  -0.10184
 207        6D 0        0.00218   0.00816   0.00639  -0.00195  -0.00050
 208        6D+1       -0.00053  -0.00170  -0.00184   0.00210   0.00123
 209        6D-1        0.00034  -0.00204   0.00043  -0.00365  -0.00252
 210        6D+2       -0.00101  -0.00478  -0.00430   0.00260   0.00216
 211        6D-2        0.00124  -0.00388  -0.00236  -0.00214  -0.00156
 212 19  C  1S          0.00612   0.01127   0.00691  -0.00669  -0.00401
 213        2S         -0.01357  -0.02828  -0.01694   0.01353   0.00943
 214        3S         -0.09201  -0.01741   0.06890   0.01080  -0.01141
 215        4PX         0.02869   0.02784   0.02103  -0.03479  -0.02016
 216        4PY         0.01080  -0.07321  -0.05973  -0.01172  -0.01414
 217        4PZ        -0.00008   0.03264   0.02455   0.00831   0.00702
 218        5PX         0.05166   0.04933  -0.03554  -0.03270  -0.02074
 219        5PY        -0.00729  -0.08067  -0.03241  -0.00203   0.00469
 220        5PZ        -0.00396  -0.02487   0.00913   0.02114   0.03593
 221        6D 0       -0.00034  -0.00198  -0.00073  -0.00193  -0.00205
 222        6D+1        0.00249   0.00541   0.00432   0.00075   0.00146
 223        6D-1        0.00030   0.00264   0.00137   0.00142   0.00180
 224        6D+2       -0.00166  -0.00394  -0.00155  -0.00326  -0.00443
 225        6D-2       -0.00107  -0.00376  -0.00132  -0.00365  -0.00446
 226 20  C  1S          0.00110   0.00322   0.00285  -0.00030   0.00043
 227        2S         -0.00356  -0.00861  -0.00671  -0.00009  -0.00166
 228        3S          0.02387  -0.05300  -0.08586   0.04741   0.02009
 229        4PX        -0.00806  -0.03690  -0.02239  -0.01538  -0.01976
 230        4PY        -0.02994  -0.12829  -0.06997  -0.06947  -0.08081
 231        4PZ         0.01187   0.05200   0.02150   0.02403   0.03210
 232        5PX        -0.01913  -0.00623   0.01674  -0.03289  -0.02450
 233        5PY        -0.01974  -0.11943  -0.05303  -0.05513  -0.07256
 234        5PZ        -0.00502  -0.00486   0.05422   0.02003   0.04809
 235        6D 0       -0.00108   0.00113   0.00278  -0.00099   0.00003
 236        6D+1        0.00091  -0.00016  -0.00119  -0.00032  -0.00071
 237        6D-1        0.00190   0.00035  -0.00024  -0.00072  -0.00074
 238        6D+2       -0.00031   0.00064  -0.00002   0.00116   0.00052
 239        6D-2        0.00139   0.00386   0.00178   0.00037   0.00018
 240 21  C  1S         -0.00243   0.00126   0.01148  -0.00667  -0.00235
 241        2S          0.00660  -0.00271  -0.02881   0.01644   0.00048
 242        3S          0.00475   0.11618   0.01182  -0.02549   0.04609
 243        4PX        -0.01837  -0.00352   0.05151  -0.03155  -0.00990
 244        4PY        -0.04337  -0.06068  -0.02207  -0.00275   0.00460
 245        4PZ         0.02025   0.02235   0.00018   0.00469  -0.00286
 246        5PX        -0.02299  -0.07995   0.06410  -0.01640  -0.01885
 247        5PY        -0.04398  -0.02207   0.00721  -0.01149   0.02613
 248        5PZ        -0.00851   0.00766   0.05797  -0.02042   0.00380
 249        6D 0        0.00052   0.00299   0.00208   0.00124   0.00162
 250        6D+1       -0.00011  -0.00005  -0.00135   0.00259   0.00167
 251        6D-1       -0.00097  -0.00365  -0.00110  -0.00345  -0.00336
 252        6D+2        0.00026  -0.00201  -0.00174  -0.00172  -0.00182
 253        6D-2       -0.00010  -0.00705  -0.00524  -0.00341  -0.00531
 254 22  C  1S          0.01037   0.00194  -0.01413   0.00635  -0.00012
 255        2S         -0.03652   0.00100   0.03030  -0.01153   0.00820
 256        3S          0.02184  -0.11990  -0.06072   0.04241  -0.06842
 257        4PX         0.01491   0.02596  -0.03122   0.04322   0.02896
 258        4PY        -0.02200   0.08919   0.09160   0.04541   0.07123
 259        4PZ         0.00227  -0.01488   0.00304  -0.04018  -0.02550
 260        5PX        -0.02297  -0.09156   0.02847   0.04194   0.03014
 261        5PY         0.03233   0.10307   0.00704   0.04676   0.05457
 262        5PZ         0.04421   0.01732  -0.07912   0.00886  -0.01535
 263        6D 0       -0.00014   0.00011   0.00490  -0.00490  -0.00209
 264        6D+1        0.00189   0.00547   0.00506  -0.00154  -0.00071
 265        6D-1        0.00019   0.00450   0.00333   0.00082   0.00147
 266        6D+2       -0.00138  -0.00507  -0.00456   0.00113   0.00064
 267        6D-2       -0.00150  -0.00177   0.00403  -0.00263   0.00063
 268 23  C  1S          0.00038   0.00350   0.00337  -0.00168  -0.00070
 269        2S          0.00034  -0.00615  -0.00775   0.00407   0.00019
 270        3S          0.00233  -0.03756  -0.01810   0.01573   0.01565
 271        4PX         0.00435   0.01554   0.01676  -0.00455   0.00060
 272        4PY         0.00828   0.02926   0.01847   0.01562   0.01748
 273        4PZ        -0.00430  -0.01214  -0.00358  -0.00531  -0.00523
 274        5PX         0.00278   0.00403   0.01094  -0.00614  -0.00111
 275        5PY         0.00161   0.00765   0.00729   0.00386   0.00684
 276        5PZ         0.00266   0.00386  -0.00354  -0.00033  -0.00605
 277        6D 0       -0.00059  -0.00204  -0.00098  -0.00149  -0.00164
 278        6D+1       -0.00082  -0.00297  -0.00074  -0.00121  -0.00151
 279        6D-1        0.00077   0.00196   0.00045   0.00053   0.00067
 280        6D+2        0.00027   0.00140   0.00075   0.00101   0.00123
 281        6D-2        0.00152   0.00639   0.00388   0.00359   0.00441
 282 24  H  1S          0.01155   0.02755   0.00987  -0.01824  -0.00938
 283        2S         -0.02159  -0.02683   0.06458  -0.00525   0.01167
 284        3PX        -0.00019   0.00004  -0.00246   0.00090   0.00190
 285        3PY         0.00159   0.00189   0.00117   0.00283   0.00215
 286        3PZ        -0.00139  -0.00261  -0.00120   0.00016  -0.00022
 287 25  H  1S          0.01310   0.02190   0.02071  -0.01080  -0.00762
 288        2S          0.01599   0.03299   0.01966  -0.01513  -0.01842
 289        3PX         0.00021  -0.00048   0.00098  -0.00093  -0.00069
 290        3PY         0.00086  -0.00256  -0.00269  -0.00083  -0.00100
 291        3PZ        -0.00022   0.00126   0.00047   0.00015  -0.00003
 292 26  H  1S         -0.00312   0.00933   0.02535  -0.01427  -0.00245
 293        2S         -0.01483   0.00315   0.03563  -0.01908  -0.00049
 294        3PX        -0.00038   0.00101   0.00042  -0.00104  -0.00018
 295        3PY        -0.00166  -0.00264  -0.00078  -0.00030  -0.00020
 296        3PZ         0.00077   0.00146  -0.00005   0.00029   0.00039
 297 27  H  1S         -0.01052   0.00287   0.02848  -0.01320  -0.00558
 298        2S          0.04979   0.06779  -0.00688  -0.00732   0.01127
 299        3PX        -0.00098  -0.00061  -0.00139   0.00175  -0.00015
 300        3PY        -0.00138   0.00341   0.00335   0.00177   0.00265
 301        3PZ         0.00035  -0.00127   0.00076  -0.00166  -0.00154
 302 28  H  1S         -0.00836  -0.02837  -0.01423  -0.01417  -0.01593
 303        2S         -0.00994  -0.01652   0.00021  -0.01590  -0.01376
 304        3PX        -0.00001  -0.00004   0.00041  -0.00065  -0.00054
 305        3PY         0.00033   0.00111   0.00078   0.00067   0.00094
 306        3PZ         0.00019   0.00061   0.00047   0.00001   0.00001
 307 29  H  1S          0.01037   0.03970   0.02405   0.01964   0.02346
 308        2S          0.00537   0.04918   0.01935   0.01858   0.01508
 309        3PX         0.00024   0.00154   0.00146   0.00060   0.00120
 310        3PY        -0.00015  -0.00044  -0.00070  -0.00024  -0.00048
 311        3PZ        -0.00003  -0.00047  -0.00013  -0.00037  -0.00019
 312 30  H  1S          0.00003  -0.00492  -0.00490  -0.00419  -0.00494
 313        2S          0.00293   0.01190  -0.00204  -0.00880  -0.01004
 314        3PX         0.00014   0.00105   0.00051  -0.00001   0.00003
 315        3PY         0.00034   0.00125   0.00079   0.00085   0.00107
 316        3PZ        -0.00030  -0.00094  -0.00062  -0.00021  -0.00004
 317 31  H  1S         -0.09098   0.05030   0.00499   0.02032  -0.01854
 318        2S         -0.05524   0.03152   0.00360   0.01990  -0.02863
 319        3PX         0.00444  -0.00209  -0.00002  -0.00112   0.00067
 320        3PY        -0.00003  -0.00123   0.00092  -0.00053  -0.00103
 321        3PZ         0.00116  -0.00047  -0.00035  -0.00030   0.00144
                          70        71        72        73        74
                           V         V         V         V         V
     Eigenvalues --     0.09297   0.10817   0.12239   0.12492   0.17279
   1 1   N  1S         -0.00065  -0.00319  -0.00259   0.00246   0.00318
   2        2S         -0.00315  -0.00884  -0.00371   0.00644   0.00811
   3        3S          0.00904   0.00904  -0.07715  -0.00819  -0.01271
   4        4PX        -0.01150  -0.01638   0.00458   0.01160  -0.02009
   5        4PY        -0.30992  -0.00184  -0.05532   0.10309  -0.02129
   6        4PZ         0.10242  -0.01586   0.01732  -0.02251  -0.00983
   7        5PX         0.00625   0.01551  -0.00502   0.00466   0.00849
   8        5PY         0.33911  -0.00721   0.05008  -0.12062   0.02295
   9        5PZ        -0.11636   0.01404  -0.04057   0.01456   0.03170
  10        6D 0       -0.00306  -0.00943   0.00404   0.00101   0.00111
  11        6D+1       -0.00012   0.00623  -0.00124   0.00020  -0.00199
  12        6D-1        0.00433   0.01415  -0.00554  -0.00206  -0.00012
  13        6D+2       -0.00166  -0.00516   0.00228   0.00096   0.00056
  14        6D-2        0.00147  -0.01521   0.00854  -0.00053   0.00014
  15 2   N  1S         -0.00250   0.01150  -0.00317   0.00668   0.00282
  16        2S          0.00606   0.02732  -0.00722   0.01453   0.00815
  17        3S         -0.11284   0.04910   0.03237   0.06139  -0.01349
  18        4PX        -0.02127  -0.09766  -0.06689  -0.05915  -0.02027
  19        4PY         0.02377   0.02112   0.08584   0.04329   0.02592
  20        4PZ         0.03053  -0.02492  -0.01199   0.00340   0.00371
  21        5PX        -0.00757   0.08636   0.07322   0.05379   0.01082
  22        5PY        -0.02234  -0.03655  -0.07912  -0.04312  -0.03760
  23        5PZ        -0.05337   0.02771   0.02207   0.00654  -0.00341
  24        6D 0       -0.00209   0.00246  -0.00093  -0.00012  -0.00007
  25        6D+1        0.00066   0.00285   0.00239   0.00240   0.00048
  26        6D-1       -0.00122  -0.00065  -0.00106  -0.00134  -0.00011
  27        6D+2       -0.00209  -0.00068  -0.00007   0.00039  -0.00043
  28        6D-2       -0.00048  -0.00033   0.00093   0.00016  -0.00010
  29 3   C  1S          0.00047  -0.00260   0.00335   0.00342  -0.01923
  30        2S          0.00113   0.01361  -0.01098  -0.01336   0.07054
  31        3S         -0.00634  -0.06221   0.00638  -0.03721   0.15355
  32        4PX        -0.00830  -0.01792   0.00990   0.00357   0.01685
  33        4PY        -0.20574  -0.27791   0.10743   0.07453  -0.02136
  34        4PZ         0.06508   0.08968  -0.02584  -0.01322  -0.03720
  35        5PX        -0.00387  -0.01653  -0.01819   0.02007  -0.04473
  36        5PY        -0.21981  -0.38402   0.16978   0.08286  -0.01737
  37        5PZ         0.07754   0.10617   0.00050   0.01453  -0.17197
  38        6D 0        0.00058  -0.00585   0.00370  -0.00094   0.00003
  39        6D+1        0.00822  -0.00496   0.00309  -0.00189   0.00157
  40        6D-1        0.00008   0.00938  -0.00407  -0.00039  -0.00196
  41        6D+2       -0.00255  -0.00188  -0.00018   0.00035   0.00432
  42        6D-2       -0.02498   0.01212  -0.01040   0.00802  -0.00301
  43 4   C  1S         -0.00019   0.00018   0.00512  -0.00053  -0.04264
  44        2S          0.00546  -0.00227  -0.00826   0.00709   0.11260
  45        3S         -0.05982   0.04855  -0.16888  -0.02666   0.94806
  46        4PX        -0.01049   0.02526  -0.02249  -0.00069   0.08879
  47        4PY        -0.11377   0.26087  -0.15264   0.02702  -0.06991
  48        4PZ         0.04333  -0.09288   0.04854  -0.00844   0.00673
  49        5PX        -0.00203   0.00848  -0.01279  -0.01920   0.34573
  50        5PY        -0.19510   0.39941  -0.24109   0.06776  -0.12638
  51        5PZ         0.05081  -0.13705   0.05674  -0.00295  -0.08186
  52        6D 0       -0.01513  -0.00508  -0.00148   0.00608   0.00485
  53        6D+1       -0.00041  -0.00346   0.00223  -0.00012   0.00037
  54        6D-1        0.02245   0.00904  -0.00037  -0.00802   0.00394
  55        6D+2       -0.00813  -0.00151  -0.00160   0.00401   0.00495
  56        6D-2        0.00486   0.01206  -0.00554  -0.00230   0.00147
  57 5   C  1S         -0.00030   0.00007   0.00958  -0.00128  -0.02682
  58        2S          0.00274  -0.00162  -0.03781   0.01238   0.08755
  59        3S          0.04804  -0.01405   0.00640  -0.10797   0.51954
  60        4PX         0.01969  -0.00515   0.01099  -0.00098   0.05071
  61        4PY         0.31590  -0.02835   0.10074  -0.12407  -0.01029
  62        4PZ        -0.11909   0.00844  -0.04191   0.04312   0.04440
  63        5PX         0.02201   0.00027   0.00215   0.04917   0.12583
  64        5PY         0.46959  -0.04439   0.10181  -0.16534   0.10747
  65        5PZ        -0.19783   0.03347  -0.11283   0.09518   0.24001
  66        6D 0       -0.00226   0.01022  -0.00676   0.00036  -0.00065
  67        6D+1       -0.00308  -0.00784   0.00433   0.00285  -0.00367
  68        6D-1        0.00410  -0.01568   0.00753  -0.00030   0.00582
  69        6D+2        0.00012   0.00772  -0.00550  -0.00014   0.00139
  70        6D-2        0.01059   0.01698  -0.00610  -0.00550  -0.00228
  71 6   C  1S          0.00031   0.00218   0.00122   0.00366  -0.01585
  72        2S         -0.00014  -0.00861  -0.01017  -0.02003   0.03525
  73        3S         -0.06040   0.01449   0.09480   0.17828   0.13472
  74        4PX        -0.00887  -0.00475  -0.01064   0.00801   0.00131
  75        4PY        -0.20148  -0.21922   0.07237   0.09929   0.02472
  76        4PZ         0.07327   0.07393  -0.03405  -0.04434   0.02714
  77        5PX        -0.00868  -0.02572  -0.01248   0.00833  -0.07885
  78        5PY        -0.30241  -0.33723   0.09062   0.10443   0.04950
[...]
 01671881,0.00476563,-0.00327211,-0.02766251,-0.00164885,0.00844963,0.0
 1332743,0.00544288,0.00541079,-0.00169331,0.00470616,0.00015280,0.0001
 1604,-0.00103589,-0.00203153,0.00133257,-0.00217517,-0.00282605,0.0024
 7095,-0.00374089,-0.00207823,0.03276362,-0.00925189,0.00008399,-0.0000
 0962,0.00001487,0.00015865,0.00012403,0.00043357,-0.00008260,-0.000004
 70,0.00001714,0.00001759,-0.00000099,-0.00000287,-0.00001671,0.0000030
 7,0.00000712,0.00005749,-0.00003586,0.00000133,-0.00004705,0.00004521,
 -0.00001679,0.00002713,0.00011650,-0.00011168,-0.00000142,-0.00001535,
 -0.00000031,-0.00000479,0.00000258,-0.00001348,0.00000065,0.00000742,-
 0.00000569,-0.00001420,-0.00002259,-0.00001661,-0.00000027,-0.00001520
 ,0.00002305,-0.00008976,-0.00128114,-0.00079658,0.00009287,0.00040650,
 0.00004469,-0.00037016,0.00024282,0.00019785,0.00215237,0.00144291,0.0
 0388584,0.00044272,0.00026878,-0.00055134,0.00172156,-0.00405186,0.001
 59707,-0.00936827,0.00288536,0.00838415,-0.49187135,-0.05484830,0.2341
 6678,-0.00516514,-0.00594118,0.00371188,0.00001561,0.00214389,-0.00205
 892,-0.00031724,0.00020525,-0.00045415,-0.00058527,0.00002026,0.000441
 97,0.50289376,-0.00001864,0.00000932,-0.00002135,-0.00027982,-0.000083
 03,-0.00034138,-0.00002150,0.00000304,-0.00003805,-0.00000373,0.000007
 16,-0.00002754,-0.00004100,0.00001133,0.00002197,0.00003039,-0.0000327
 5,-0.00000843,0.00001305,-0.00001026,-0.00000990,0.00001222,-0.0000546
 9,0.00007017,0.00000551,-0.00002139,0.00002046,-0.00000447,0.00000598,
 -0.00000192,0.00000528,-0.00000553,-0.00000871,0.00000786,-0.00000197,
 0.00001565,-0.00000054,-0.00000001,-0.00000589,0.00078036,0.00156160,0
 .00073166,-0.00024710,-0.00041726,0.00005937,0.00052525,-0.00040164,-0
 .00039135,0.00126894,-0.00298320,-0.00532684,0.00034920,-0.00142162,-0
 .00031896,-0.00374129,-0.00476705,-0.00202874,-0.02848565,0.00060982,0
 .01282001,-0.05305044,-0.02587039,0.01840213,0.02527972,0.00761592,-0.
 01259157,0.00031832,0.00145597,0.00234229,0.00019940,-0.00009006,0.000
 31848,-0.00156199,0.00005817,0.00063736,0.05818557,0.02415278,-0.00013
 399,-0.00004421,0.00006077,-0.00010035,-0.00003760,-0.00025662,0.00022
 842,0.00005159,0.00003587,-0.00009234,0.00003198,0.00008744,0.00004793
 ,-0.00001466,-0.00002544,-0.00009819,0.00007381,0.00006856,0.00011096,
 -0.00014175,-0.00005040,-0.00003615,-0.00009593,0.00002241,0.00001094,
 0.00003322,-0.00001224,-0.00001288,-0.00000060,0.00001086,-0.00001013,
 -0.00001142,-0.00000307,-0.00000242,0.00002626,-0.00000128,0.00000111,
 0.00005018,-0.00003417,0.00037826,0.00086221,0.00093562,-0.00015967,-0
 .00026947,-0.00002795,0.00029869,-0.00024009,-0.00047824,0.00361266,-0
 .00492982,0.00443838,-0.00074082,-0.00006179,-0.00052829,0.00205434,-0
 .00201603,0.00571333,-0.00263498,-0.00376879,0.00539940,0.23398320,0.0
 1971913,-0.11140752,0.01532853,0.00316040,-0.00052859,-0.00297270,0.00
 097206,-0.00350885,-0.00049389,0.00037373,-0.00095080,-0.00004576,-0.0
 0010536,0.00031822,-0.24604183,-0.01624549,0.10417368,-0.00013017,-0.0
 0002751,0.00004795,-0.00021758,0.00037203,-0.00097116,0.00007276,0.000
 05343,-0.00000449,-0.00004458,0.00002612,0.00001506,-0.00000717,0.0000
 2364,0.00003416,-0.00005211,0.00004254,0.00003524,0.00011135,-0.000062
 46,-0.00010906,-0.00002915,-0.00011894,0.00017802,0.00000701,0.0000081
 9,0.00000477,-0.00000581,0.00000595,0.00001175,-0.00000157,-0.00000865
 ,-0.00002832,0.00005098,0.00005593,-0.00004098,-0.00000123,0.00004142,
 -0.00003392,-0.00228505,-0.00470822,-0.00026447,0.00214128,0.00194681,
 -0.00145430,0.00062771,0.00083420,-0.00001901,-0.00796731,-0.02392068,
 -0.00285008,-0.00309399,-0.00082529,0.00591446,-0.00065934,0.00085559,
 0.00020515,0.00084304,0.00186293,0.00478311,0.01292710,0.01893088,0.00
 487919,-0.19798870,-0.35313304,-0.01363952,0.00033478,0.00076561,0.000
 07292,-0.00034963,-0.00135103,-0.00035636,-0.00024104,0.00014530,-0.00
 055943,-0.00052754,0.00013092,-0.00295990,0.19658165,0.00011972,0.0000
 8046,-0.00022476,0.00021567,-0.00028678,0.00052289,-0.00002174,-0.0001
 2282,-0.00001987,0.00006393,-0.00001163,0.00000420,-0.00000743,0.00002
 038,-0.00003028,0.00006506,-0.00002755,-0.00000303,-0.00020240,0.00011
 018,0.00008004,0.00003089,0.00010698,-0.00002682,-0.00000685,0.0000019
 1,-0.00000319,0.00000628,-0.00000347,-0.00001073,0.00000877,0.00001756
 ,0.00001242,-0.00002238,-0.00002979,0.00000069,-0.00000593,-0.00005296
 ,0.00002866,0.00140015,0.00079651,-0.00106166,-0.00037011,-0.00138511,
 0.00008405,-0.00022773,-0.00024601,0.00024986,0.00363795,0.00531416,-0
 .00054550,-0.00051049,0.00134341,-0.00247944,0.00067571,0.00067534,0.0
 0025443,0.00182299,-0.00084252,-0.00464971,-0.01580715,-0.01521207,-0.
 00041198,-0.34971362,-0.56648429,-0.03955552,-0.00056238,-0.00071109,-
 0.00002793,0.00018068,0.00029809,0.00004569,0.00017499,-0.00017263,0.0
 0035989,0.00101610,0.00094650,0.00219872,0.35790322,0.57609983,-0.0000
 2063,-0.00010852,0.00021117,-0.00016690,-0.00105505,-0.00058942,-0.000
 06680,0.00013251,0.00004709,-0.00002706,-0.00003672,-0.00000868,0.0000
 2470,-0.00003744,0.00001718,-0.00008988,0.00001176,-0.00006417,0.00015
 746,0.00004788,0.00003395,-0.00021576,-0.00010237,0.00024923,-0.000002
 47,-0.00000802,-0.00000412,0.00000400,0.00000033,0.00001429,-0.0000117
 7,-0.00001196,0.00000195,-0.00001360,0.00001138,0.00000612,-0.00000459
 ,0.00005031,-0.00000185,-0.00058236,0.00337058,-0.00297865,-0.00072696
 ,-0.00036302,0.00017173,-0.00064833,-0.00031056,0.00081639,0.00679718,
 0.01302893,0.00642229,0.00604793,-0.00116445,0.00381078,0.00051242,-0.
 00017192,-0.00124407,0.00458356,-0.00487374,0.00480842,-0.00866137,-0.
 01777853,0.00626364,-0.01079628,-0.03880418,0.01774779,-0.00046845,-0.
 00072568,0.00001352,0.00027675,0.00084597,0.00022347,-0.00050557,0.000
 29355,-0.00096201,-0.00262406,0.00261901,-0.00402269,0.00712206,0.0452
 1293,-0.03095564,0.00003034,-0.00001240,-0.00000273,-0.00001518,0.0000
 5064,0.00014395,-0.00002696,0.00002333,0.00000394,0.00000668,-0.000002
 35,-0.00002496,-0.00001949,-0.00001621,-0.00001846,0.00001145,-0.00001
 665,-0.00000911,-0.00002769,0.00003148,-0.00000302,0.00003266,0.000049
 46,-0.00005864,0.00001031,-0.00002305,0.00003095,0.00000350,-0.0000062
 1,0.00000703,0.00000055,0.00000023,0.00001128,-0.00001065,-0.00001055,
 0.00000738,0.00000203,-0.00000872,0.00000524,0.00014009,-0.00008746,-0
 .00008564,-0.00002484,0.00002870,0.00002866,-0.00010683,-0.00002524,0.
 00001792,0.00013858,0.00029324,0.00004286,0.00031217,0.00001147,-0.000
 52492,0.00059449,-0.00025184,-0.00092635,0.01644398,0.01649753,0.02186
 888,-0.00167902,0.00169948,0.00045781,-0.00039430,0.00074504,-0.000303
 46,-0.51670270,-0.49980341,-0.68672656,-0.00001628,-0.00006631,-0.0000
 7311,-0.00041815,-0.00050534,0.00021137,0.00019711,-0.00000347,0.00024
 970,-0.00009094,0.00013422,0.00004686,0.51841339,-0.00001564,-0.000008
 27,-0.00000852,-0.00000464,-0.00004720,-0.00005691,0.00001233,-0.00001
 048,-0.00000667,-0.00000832,-0.00004685,0.00001577,0.00005440,0.000017
 71,-0.00000484,-0.00003615,0.00004036,0.00001947,-0.00001363,-0.000019
 66,-0.00000644,-0.00001809,-0.00002164,0.00002777,-0.00001979,0.000048
 17,-0.00005913,0.00000002,-0.00000559,0.00001861,-0.00000565,0.0000064
 9,0.00000057,0.00000276,0.00000974,-0.00000329,0.00000114,0.00001143,-
 0.00000416,-0.00013246,0.00010694,-0.00016128,0.00005345,-0.00000624,0
 .00001944,0.00004923,-0.00001745,0.00002629,0.00013043,0.00041941,-0.0
 0006505,0.00035613,-0.00117053,0.00079491,-0.00204850,0.00277877,0.002
 72654,-0.02132634,-0.01794941,-0.01936954,0.00278561,-0.00279988,-0.00
 254616,-0.00005139,-0.00131826,0.00110230,-0.51223943,-0.17041336,-0.5
 0230569,-0.00002495,0.00009170,0.00001397,-0.00011322,0.00071441,-0.00
 079607,-0.00019299,0.00037332,-0.00059456,0.00013125,-0.00018478,-0.00
 015609,0.50353371,0.17588571,-0.00003992,0.00003887,-0.00001206,0.0000
 2324,-0.00010040,-0.00019619,0.00002866,-0.00002319,0.00001443,0.00000
 075,0.00005319,0.00003489,-0.00002136,0.00000760,0.00003525,0.00000544
 ,0.00000176,-0.00000594,0.00007014,-0.00001997,0.00003150,-0.00004044,
 -0.00008312,0.00010790,-0.00000147,-0.00002713,0.00002674,0.00000234,0
 .00001340,-0.00002855,0.00000439,-0.00001005,-0.00001290,0.00001239,0.
 00001624,-0.00000704,-0.00000494,0.00000840,-0.00001157,-0.00014794,0.
 00020932,0.00001945,-0.00000489,-0.00005514,-0.00000239,0.00012197,-0.
 00000086,-0.00002657,0.00023421,0.00011372,-0.00005412,-0.00002362,-0.
 00042789,0.00034587,-0.00062867,0.00055108,0.00166054,-0.00820833,-0.0
 0190611,-0.00681780,0.00059732,0.00019606,-0.00042453,0.00010016,0.000
 04528,0.00032683,-0.69986423,-0.50163762,-0.51918891,-0.00001852,0.000
 03116,0.00002295,0.00046385,0.00025380,-0.00061638,-0.00001135,-0.0000
 9610,0.00002255,0.00002943,-0.00004463,0.00000808,0.70092315,0.5081372
 7,0.51369254,0.00011466,-0.00009078,-0.00000441,-0.00006066,0.00009274
 ,0.00016877,0.00002363,0.00020281,-0.00000268,-0.00003578,-0.00015766,
 -0.00009153,-0.00000274,-0.00005696,-0.00002512,-0.00009385,0.00003778
 ,-0.00004002,-0.00014363,-0.00000312,0.00004734,0.00003446,0.00009547,
 -0.00003688,0.00004752,0.00006467,-0.00001797,-0.00000156,-0.00004473,
 0.00009217,-0.00000199,0.00001493,0.00001503,-0.00001471,-0.00002255,0
 .00000815,-0.00000199,-0.00002687,0.00001415,0.00024717,-0.00024320,-0
 .00003072,-0.00000005,0.00007111,0.00000724,-0.00017389,-0.00001523,0.
 00000989,0.00033667,0.00043585,-0.00037774,0.00052719,-0.00052912,0.00
 037760,0.00066415,0.00019806,0.00068816,-0.00542837,0.01312786,-0.0102
 6557,-0.00046670,-0.00126800,-0.00044645,-0.00068298,0.00026438,0.0007
 9351,-0.04391973,0.13429833,-0.17926431,-0.00001048,-0.00000487,0.0000
 1530,-0.00066991,-0.00008949,-0.00018640,-0.00001979,-0.00003965,0.000
 02090,0.00001677,0.00000642,0.00010188,-0.00385575,0.02766381,-0.01839
 073,0.03808906,-0.00010906,0.00000480,-0.00000490,-0.00007266,-0.00000
 859,-0.00028648,0.00002652,-0.00018163,0.00000871,-0.00008553,0.000000
 03,0.00023618,0.00031048,0.00003505,-0.00002442,-0.00011578,0.00024002
 ,0.00007259,0.00003893,-0.00021106,-0.00005329,-0.00004663,-0.00014229
 ,0.00009975,-0.00008721,0.00013198,-0.00014669,0.00000462,-0.00000018,
 -0.00000734,-0.00002155,0.00000207,-0.00000267,0.00000837,0.00004378,-
 0.00000538,0.00000117,0.00005152,-0.00002459,-0.00002701,0.00025939,0.
 00047360,-0.00003864,-0.00014088,-0.00008438,0.00013201,-0.00003915,-0
 .00013718,0.00054240,0.00037642,0.00029668,-0.00070007,-0.00100787,-0.
 00132200,-0.00250232,0.00219046,0.00081269,0.00795417,-0.02408259,0.01
 829509,0.00166665,-0.00102971,-0.00144369,-0.00085749,0.00008886,-0.00
 156500,0.13127143,-0.28515211,0.38907995,0.00001839,0.00003592,0.00004
 525,0.00051466,0.00003054,0.00070490,0.00041701,-0.00026919,0.00081637
 ,0.00008198,-0.00011931,-0.00007871,-0.00680913,0.01945019,-0.02404591
 ,-0.14191994,0.29768010,-0.00014597,0.00007249,0.00000518,0.00000627,-
 0.00005387,-0.00025027,-0.00001583,-0.00034456,0.00015949,-0.00007352,
 0.00015187,0.00037200,0.00037290,0.00007374,0.00000233,-0.00005891,0.0
 0011734,-0.00005693,0.00015745,-0.00010443,0.00004866,-0.00004570,-0.0
 0012410,0.00021551,-0.00015577,0.00011018,-0.00019931,-0.00000183,-0.0
 0000172,-0.00000815,-0.00002202,0.00000759,0.00000028,0.00000934,0.000
 03523,-0.00002116,-0.00001759,0.00002205,-0.00001367,-0.00009895,0.000
 12644,0.00009677,-0.00003116,-0.00002182,-0.00001945,0.00007877,0.0000
 3341,-0.00002482,-0.00009598,-0.00042736,0.00004756,-0.00069842,0.0003
 7667,-0.00017011,0.00038273,0.00009772,0.00018798,0.00796317,-0.019144
 39,0.01576672,0.00010619,-0.00041238,-0.00093330,-0.00010850,0.0000432
 5,-0.00096839,-0.16694074,0.37043021,-0.43132638,0.00000743,0.00005435
 ,0.00002112,0.00009251,0.00017700,0.00011599,0.00010422,-0.00015927,0.
 00034378,0.00003359,-0.00006116,-0.00002935,0.00371420,0.02499415,-0.0
 1525431,0.17063728,-0.38971574,0.44728925,0.00001132,-0.00000905,0.000
 01186,-0.00001241,0.00004577,0.00003730,0.00000747,0.00002225,-0.00000
 388,-0.00002048,-0.00002822,0.00000589,0.00001912,0.00000346,0.0000031
 7,-0.00001056,0.00001502,0.00000631,-0.00001690,-0.00002057,-0.0000054
 6,0.00000388,0.00000913,-0.00000944,0.00001433,0.00002095,-0.00000767,
 -0.00000569,-0.00000353,0.00000844,-0.00000194,0.00000304,-0.00000321,
 0.00000101,-0.00000235,-0.00000405,0.00000085,-0.00000175,0.00000544,0
 .00007136,-0.00015688,0.00000504,0.00000794,0.00008896,-0.00001733,-0.
 00002089,0.00004128,-0.00000347,0.00007029,-0.00005083,-0.00004438,-0.
 00036428,-0.00033448,0.00028691,0.00044748,0.00179083,0.00136921,-0.00
 905846,-0.00685584,0.00163146,0.00143416,-0.00246180,-0.00192090,-0.00
 024031,0.00010378,-0.00021807,-1.14124199,-0.39486762,0.65110185,-0.00
 006418,0.00016137,0.00001399,0.00019999,0.00006839,-0.00029212,0.00060
 430,0.00036242,0.00032890,0.00001331,-0.00004135,-0.00003256,-0.012955
 73,0.00148542,0.02478644,0.01551517,0.01044614,-0.01514348,1.14560089,
 -0.00001635,0.00000578,0.00002180,0.00000347,-0.00000392,0.00000778,0.
 00000558,-0.00003382,0.00002034,-0.00000158,0.00004739,0.00002647,0.00
 000368,-0.00000530,-0.00000175,0.00001763,-0.00000733,0.00000592,0.000
 02439,0.00000028,-0.00000669,0.00000272,-0.00000302,-0.00000410,-0.000
 03142,-0.00001225,-0.00001047,0.00000084,0.00000974,-0.00002752,-0.000
 00089,-0.00000416,-0.00000213,-0.00000271,-0.00000018,0.00000094,-0.00
 000301,0.00000167,0.00000090,0.00005126,0.00000759,-0.00009291,-0.0000
 4603,-0.00003918,0.00003806,-0.00007753,-0.00003980,0.00002704,-0.0002
 2520,-0.00001385,0.00009933,0.00146991,0.00076154,-0.00039549,0.002454
 14,-0.00640947,-0.00350535,0.03835482,0.01058292,-0.02117877,-0.000471
 21,0.00383390,0.00171221,0.00056141,0.00022297,0.00003166,-0.38362143,
 0.07558514,0.18168717,0.00012438,-0.00038549,-0.00018180,-0.00006542,-
 0.00007566,0.00001125,-0.00111813,-0.00041681,0.00021471,-0.00008572,0
 .00012031,0.00012828,-0.01545922,-0.00591737,0.01879553,-0.03202415,-0
 .00819258,0.01363948,0.39017998,-0.06963356,-0.00004295,-0.00000349,0.
 00001937,-0.00000501,-0.00001858,-0.00012086,0.00008518,0.00004466,0.0
 0001728,-0.00003525,-0.00006700,0.00005988,0.00006638,-0.00001007,-0.0
 0001676,-0.00008555,0.00008710,0.00001638,0.00001467,-0.00007320,0.000
 00022,-0.00002435,-0.00004879,0.00004266,0.00001689,0.00006176,-0.0000
 3770,-0.00000270,-0.00001044,0.00002230,-0.00000697,0.00000039,0.00000
 447,0.00000425,0.00001669,0.00000097,-0.00000253,0.00001417,-0.0000100
 6,-0.00003018,0.00010123,0.00008719,-0.00002664,-0.00004552,-0.0000187
 8,0.00000260,-0.00002402,-0.00002678,-0.00030981,-0.00018735,0.0001375
 2,0.00073736,0.00041714,0.00066115,0.00129665,-0.00290141,-0.00010086,
 0.00955386,0.00764927,-0.00961705,-0.00071936,0.00206989,0.00127153,0.
 00036982,-0.00006068,-0.00028023,0.65459465,0.18817068,-0.14586203,-0.
 00001282,-0.00008622,-0.00016503,-0.00029328,0.00008866,-0.00034730,-0
 .00033982,-0.00046349,0.00031150,-0.00004776,0.00007282,0.00000111,-0.
 03902451,-0.01174510,0.02631005,0.03619090,0.00805147,-0.01537112,-0.6
 6188699,-0.19105603,0.14304444,-0.02347506,0.00290179,0.00676336,-0.00
 029352,0.00035525,-0.00048025,-0.64352264,-0.25801940,0.16641388,0.002
 92794,0.00453999,0.00288619,0.00197766,-0.00089592,0.00174788,0.000102
 80,0.00056962,-0.00032115,0.00096741,0.00108557,0.00374536,-0.00037848
 ,-0.00077622,0.00021611,-0.00048801,-0.00035199,-0.00147116,-0.0000673
 9,0.00015068,-0.00001581,-0.00032023,-0.00014434,-0.00065165,-0.000114
 75,0.00018374,0.00007136,-0.00007015,0.00006927,0.00001242,0.00022328,
 -0.00009711,0.00084952,0.00001842,0.00010034,-0.00018974,-0.00009465,-
 0.00000534,-0.00020640,-0.00009245,0.00012573,0.00001058,0.00006203,-0
 .00006017,-0.00005398,-0.00001204,0.00002255,0.00001560,-0.00002624,-0
 .00014200,0.00004598,0.00016418,-0.00003131,0.00014608,0.00003615,0.00
 004132,0.00007288,0.00005101,-0.00000247,0.00001323,0.00000377,0.00001
 315,0.00000475,0.00001235,0.00000218,0.00000099,0.00001578,0.00002492,
 -0.00011853,-0.00003482,0.00003683,-0.00000938,0.00000721,-0.00000848,
 0.00000251,-0.00003186,-0.00004190,-0.00001170,-0.00000908,-0.00000421
 ,-0.00003673,0.66246137,0.03652585,0.00747155,-0.00964975,-0.00012908,
 -0.00009570,0.00017958,-0.26161713,-0.08966450,0.06211444,-0.03096861,
 -0.00329648,0.00760072,-0.00089630,-0.00658176,-0.00184260,0.00083047,
 -0.00054391,-0.00030255,0.00533681,-0.00155470,-0.00354678,0.00053768,
 0.00074301,-0.00018354,0.00146932,0.00171572,0.00063334,-0.00165347,0.
 00004184,0.00073393,0.00011423,0.00016744,0.00035333,0.00011852,-0.000
 21701,-0.00009211,0.00005980,-0.00001872,-0.00001757,0.00000431,0.0000
 9273,-0.00020971,-0.00005472,-0.00006566,0.00004775,-0.00003598,-0.000
 01672,0.00003695,0.00005194,-0.00000562,-0.00002135,-0.00000086,-0.000
 04221,-0.00003189,-0.00004212,-0.00002445,0.00000773,-0.00004891,0.000
 05719,0.00001804,-0.00000518,-0.00004272,-0.00000981,-0.00000040,0.000
 03889,0.00005619,0.00005447,0.00000038,0.00001608,-0.00000019,-0.00001
 210,-0.00000391,0.00000617,0.00000457,0.00001420,0.00000465,0.00003592
 ,-0.00000682,0.00002358,-0.00003882,0.00003354,0.00000904,-0.00001735,
 0.00000548,-0.00003790,-0.00004399,0.00000765,-0.00001394,0.00001451,-
 0.00004452,0.25035794,0.09189868,0.01084575,0.00149282,-0.00662743,-0.
 00065024,0.00058046,-0.00007981,0.16524737,0.05763498,-0.01388473,-0.0
 0036961,-0.00124060,0.01107747,0.00119318,-0.00193858,0.00777721,0.000
 16139,-0.00058438,-0.00125090,0.00522597,-0.00171376,0.01151856,0.0002
 3632,0.00020639,0.00004513,-0.00154369,0.00146889,-0.00455801,-0.00038
 430,0.00004748,0.00002409,-0.00082794,0.00023421,-0.00232537,0.0000020
 3,-0.00025191,-0.00009701,-0.00003555,0.00008059,0.00002391,0.00028594
 ,0.00007501,0.00087967,-0.00001401,-0.00000155,-0.00012290,-0.00009959
 ,-0.00010507,-0.00019011,-0.00009982,0.00005176,-0.00001737,0.00007264
 ,0.00001959,-0.00002762,0.00000864,-0.00001377,-0.00000028,-0.00001154
 ,-0.00012284,0.00005485,0.00013294,-0.00002282,0.00011555,0.00007025,-
 0.00000675,0.00013660,0.00004009,-0.00000155,0.00003136,-0.00001644,0.
 00001053,0.00000110,0.00000323,-0.00000012,-0.00001258,0.00001394,0.00
 002642,-0.00010620,-0.00002811,0.00002892,-0.00000754,0.00001027,-0.00
 000756,-0.00000029,-0.00000774,-0.00004487,-0.00002590,-0.00000918,-0.
 00000586,-0.00003345,-0.17945221,-0.05589605,-0.00231801\\-0.00585800,
 0.00950593,-0.00065225,0.00969575,0.01046435,0.01026843,0.15130487,0.0
 2689295,-0.04400022,0.13667918,-0.14053157,-0.07044371,-0.07743307,-0.
 27528643,-0.00601591,-0.08260938,-0.02788414,0.02488130,-0.01950378,-0
 .01292728,0.00051624,-0.17984852,-0.05141833,0.06327406,-0.15003628,0.
 15694093,0.07905548,0.08664921,0.29576376,0.00430763,0.09181658,0.0256
 8540,-0.02778595,0.18617041,0.04575813,0.04420576,-0.00993911,-0.01525
 831,-0.09591435,-0.03300339,0.01280944,-0.06110895,-0.01321222,-0.0298
 4588,0.02169834,0.05153686,0.01142406,0.01285033,-0.00178606,-0.004318
 69,0.00297052,-0.11955792,-0.01476496,0.06018192,-0.04467276,-0.076317
 06,-0.00355383,0.00045794,0.00118399,0.00685410,0.07471844,0.01319949,
 -0.03510888,0.07040214,0.12006862,0.00922274,0.13772284,-0.18423542,-0
 .33898424,0.12350565,0.01435878,-0.06130828,0.04788496,0.08782084,0.00
 413888,-0.08269061,-0.01177481,0.03879712,-0.06910961,-0.12874777,-0.0
 1232756,0.26806184,0.19520454,0.26870623,-0.03849519,0.10993936,-0.124
 68181,-0.36822289,-0.11594282,0.19276164,-0.14062789,-0.04776709,0.037
 19519\\\@
 The archive entry for this job was punched.

 Writing a WFNX file to "XEZQAU_Complex_1_Ligand_0_NN_Cu_oriented.wfx"


 TRUTH, IN SCIENCE, CAN BE DEFINED AS THE WORKING HYPOTHESIS 
 BEST FITTED TO OPEN THE WAY TO THE NEXT BETTER ONE.

                              -- KONRAD LORENZ
 Job cpu time:       0 days  0 hours 52 minutes 47.7 seconds.
 Elapsed time:       0 days  0 hours 53 minutes  0.8 seconds.
 File lengths (MBytes):  RWF=    540 Int=      0 D2E=      0 Chk=     12 Scr=      8
 Normal termination of Gaussian 16 at Mon Mar  6 11:14:46 2023.
