 Entering Gaussian System, Link 0=g16
 Initial command:
 /ssoft/spack/external/gaussian/g16-C.01/avx2/g16/l1.exe "/scratch/lcmd/2387866/Gau-1723090.inp" -scrdir="/scratch/lcmd/2387866/"
 Entering Link 1 = /ssoft/spack/external/gaussian/g16-C.01/avx2/g16/l1.exe PID=   1723095.
  
 Copyright (c) 1988-2019, Gaussian, Inc.  All Rights Reserved.
  
 This is part of the Gaussian(R) 16 program.  It is based on
 the Gaussian(R) 09 system (copyright 2009, Gaussian, Inc.),
 the Gaussian(R) 03 system (copyright 2003, Gaussian, Inc.),
 the Gaussian(R) 98 system (copyright 1998, Gaussian, Inc.),
 the Gaussian(R) 94 system (copyright 1995, Gaussian, Inc.),
 the Gaussian 92(TM) system (copyright 1992, Gaussian, Inc.),
 the Gaussian 90(TM) system (copyright 1990, Gaussian, Inc.),
 the Gaussian 88(TM) system (copyright 1988, Gaussian, Inc.),
 the Gaussian 86(TM) system (copyright 1986, Carnegie Mellon
 University), and the Gaussian 82(TM) system (copyright 1983,
 Carnegie Mellon University). Gaussian is a federally registered
 trademark of Gaussian, Inc.
  
 This software contains proprietary and confidential information,
 including trade secrets, belonging to Gaussian, Inc.
  
 This software is provided under written license and may be
 used, copied, transmitted, or stored only in accord with that
 written license.
  
 The following legend is applicable only to US Government
 contracts under FAR:
  
                    RESTRICTED RIGHTS LEGEND
  
 Use, reproduction and disclosure by the US Government is
 subject to restrictions as set forth in subparagraphs (a)
 and (c) of the Commercial Computer Software - Restricted
 Rights clause in FAR 52.227-19.
  
 Gaussian, Inc.
 340 Quinnipiac St., Bldg. 40, Wallingford CT 06492
  
  
 ---------------------------------------------------------------
 Warning -- This program may not be used in any manner that
 competes with the business of Gaussian, Inc. or will provide
 assistance to any competitor of Gaussian, Inc.  The licensee
 of this program is prohibited from giving any competitor of
 Gaussian, Inc. access to this program.  By using this program,
 the user acknowledges that Gaussian, Inc. is engaged in the
 business of creating and licensing software in the field of
 computational chemistry and represents and warrants to the
 licensee that it is not a competitor of Gaussian, Inc. and that
 it will not use this program in any manner prohibited above.
 ---------------------------------------------------------------
  

 Cite this work as:
 Gaussian 16, Revision C.01,
 M. J. Frisch, G. W. Trucks, H. B. Schlegel, G. E. Scuseria, 
 M. A. Robb, J. R. Cheeseman, G. Scalmani, V. Barone, 
 G. A. Petersson, H. Nakatsuji, X. Li, M. Caricato, A. V. Marenich, 
 J. Bloino, B. G. Janesko, R. Gomperts, B. Mennucci, H. P. Hratchian, 
 J. V. Ortiz, A. F. Izmaylov, J. L. Sonnenberg, D. Williams-Young, 
 F. Ding, F. Lipparini, F. Egidi, J. Goings, B. Peng, A. Petrone, 
 T. Henderson, D. Ranasinghe, V. G. Zakrzewski, J. Gao, N. Rega, 
 G. Zheng, W. Liang, M. Hada, M. Ehara, K. Toyota, R. Fukuda, 
 J. Hasegawa, M. Ishida, T. Nakajima, Y. Honda, O. Kitao, H. Nakai, 
 T. Vreven, K. Throssell, J. A. Montgomery, Jr., J. E. Peralta, 
 F. Ogliaro, M. J. Bearpark, J. J. Heyd, E. N. Brothers, K. N. Kudin, 
 V. N. Staroverov, T. A. Keith, R. Kobayashi, J. Normand, 
 K. Raghavachari, A. P. Rendell, J. C. Burant, S. S. Iyengar, 
 J. Tomasi, M. Cossi, J. M. Millam, M. Klene, C. Adamo, R. Cammi, 
 J. W. Ochterski, R. L. Martin, K. Morokuma, O. Farkas, 
 J. B. Foresman, and D. J. Fox, Gaussian, Inc., Wallingford CT, 2019.
 
 ******************************************
 Gaussian 16:  ES64L-G16RevC.01  3-Jul-2019
                 6-Mar-2023 
 ******************************************
 %nprocshared=1
 Will use up to    1 processors via shared memory.
 %mem=8000MB
 %chk=XIKFIH_Complex_2_Ligand_0_ON_Cu_oriented.chk
 ----------------------------------------------------------------------
 #p pop=(regular,nbo,savenbos) freq=noraman def2svp empiricaldispersion
 =gd3bj output=wfx pbe1pbe
 ----------------------------------------------------------------------
 1/10=4,30=1,38=1/1,3;
 2/12=2,17=6,18=5,40=1/2;
 3/5=43,7=101,11=2,25=1,30=1,71=2,74=-13,124=41,140=1/1,2,3;
 4//1;
 5/5=2,38=5,98=1/2;
 8/6=4,10=90,11=11/1;
 11/6=1,8=1,9=11,15=111,16=1/1,2,10;
 10/6=1/2;
 6/28=1,40=1,73=1/1,7;
 7/8=1,10=1,25=1/1,2,3,16;
 1/10=4,30=1/3;
 99/6=200/99;
 Leave Link    1 at Mon Mar  6 10:21:49 2023, MaxMem=  1048576000 cpu:               0.0 elap:               0.1
 (Enter /ssoft/spack/external/gaussian/g16-C.01/avx2/g16/l101.exe)
 ----------------------------------------
 XIKFIH_Complex_2_Ligand_0_ON_Cu_oriented
 ----------------------------------------
 Symbolic Z-matrix:
 Charge = -1 Multiplicity = 1
 N                     1.65408   1.13365   0. 
 O                     0.92276  -1.64231   0. 
 C                     2.17632  -1.82433  -0.26497 
 C                     2.71342  -3.12279  -0.44078 
 H                     2.16042  -3.86414  -0.34704 
 C                     4.03745  -3.30332  -0.74879 
 H                     4.35842  -4.17075  -0.85038 
 C                     3.09632  -0.7744   -0.41239 
 C                     4.91385  -2.2438   -0.91457 
 H                     5.80603  -2.38784  -1.13863 
 C                     4.42384  -0.97735  -0.73591 
 C                     2.81388   0.61931  -0.24688 
 C                     4.11376   1.36814  -0.3924 
 H                     4.02074   2.08473  -1.03907 
 H                     4.38055   1.75145   0.45867 
 C                     5.15425   0.35252  -0.87086 
 H                     5.91463   0.35984  -0.25097 
 C                     5.65069   0.61422  -2.23586 
 H                     4.93883   0.47859  -2.86601 
 H                     5.96257   1.52059  -2.29432 
 H                     6.37202   0.01437  -2.43385 
 C                     1.56405   2.56935   0.13689 
 C                     1.32971   3.3232   -1.01819 
 C                     1.23316   4.69744  -0.86218 
 H                     1.08669   5.22797  -1.61327 
 C                     1.34433   5.29875   0.35982 
 H                     1.28061   6.22298   0.43495 
 C                     1.55159   4.52763   1.48138 
 H                     1.62026   4.93889   2.31268 
 C                     1.65972   3.14839   1.38679 
 C                     1.13515   2.68582  -2.37138 
 C                     2.1431    3.13698  -3.40171 
 H                     2.04334   4.07887  -3.55766 
 H                     3.03078   2.9591   -3.08043 
 H                     1.99821   2.65983  -4.22183 
 C                     1.84749   2.32866   2.66153 
 H                     1.88861   1.38532   2.39837 
 C                     3.14305   2.65665   3.37497 
 H                     3.1153    3.56538   3.68549 
 H                     3.25413   2.06526   4.12278 
 H                     3.87894   2.54819   2.76831 
 C                     0.67993   2.48268   3.60497 
 H                    -0.14014   2.38172   3.11827 
 H                     0.73152   1.81039   4.28966 
 C                    -0.28064   2.87274  -2.89201 
 H                    -0.41193   3.79076  -3.13623 
 H                    -0.4141    2.31379  -3.66116 
 H                    -0.90744   2.6295   -2.20801 
 H                     1.26689   1.72226  -2.25084 
 H                     0.70875   3.35218   4.00944 
 
 ITRead=  0  0  0  0  0  0  0  0  0  0  0  0  0  0  0  0  0  0  0  0
 ITRead=  0  0  0  0  0  0  0  0  0  0  0  0  0  0  0  0  0  0  0  0
 ITRead=  0  0  0  0  0  0  0  0  0  0
 MicOpt= -1 -1 -1 -1 -1 -1 -1 -1 -1 -1 -1 -1 -1 -1 -1 -1 -1 -1 -1 -1
 MicOpt= -1 -1 -1 -1 -1 -1 -1 -1 -1 -1 -1 -1 -1 -1 -1 -1 -1 -1 -1 -1
 MicOpt= -1 -1 -1 -1 -1 -1 -1 -1 -1 -1
 NAtoms=     50 NQM=       50 NQMF=       0 NMMI=      0 NMMIF=      0
                NMic=       0 NMicF=      0.
                    Isotopes and Nuclear Properties:
 (Nuclear quadrupole moments (NQMom) in fm**2, nuclear magnetic moments (NMagM)
  in nuclear magnetons)

  Atom         1           2           3           4           5           6           7           8           9          10
 IAtWgt=          14          16          12          12           1          12           1          12          12           1
 AtmWgt=  14.0030740  15.9949146  12.0000000  12.0000000   1.0078250  12.0000000   1.0078250  12.0000000  12.0000000   1.0078250
 NucSpn=           2           0           0           0           1           0           1           0           0           1
 AtZEff=  -0.0000000  -0.0000000  -0.0000000  -0.0000000  -0.0000000  -0.0000000  -0.0000000  -0.0000000  -0.0000000  -0.0000000
 NQMom=    2.0440000   0.0000000   0.0000000   0.0000000   0.0000000   0.0000000   0.0000000   0.0000000   0.0000000   0.0000000
 NMagM=    0.4037610   0.0000000   0.0000000   0.0000000   2.7928460   0.0000000   2.7928460   0.0000000   0.0000000   2.7928460
 AtZNuc=   7.0000000   8.0000000   6.0000000   6.0000000   1.0000000   6.0000000   1.0000000   6.0000000   6.0000000   1.0000000

  Atom        11          12          13          14          15          16          17          18          19          20
 IAtWgt=          12          12          12           1           1          12           1          12           1           1
 AtmWgt=  12.0000000  12.0000000  12.0000000   1.0078250   1.0078250  12.0000000   1.0078250  12.0000000   1.0078250   1.0078250
 NucSpn=           0           0           0           1           1           0           1           0           1           1
 AtZEff=  -0.0000000  -0.0000000  -0.0000000  -0.0000000  -0.0000000  -0.0000000  -0.0000000  -0.0000000  -0.0000000  -0.0000000
 NQMom=    0.0000000   0.0000000   0.0000000   0.0000000   0.0000000   0.0000000   0.0000000   0.0000000   0.0000000   0.0000000
 NMagM=    0.0000000   0.0000000   0.0000000   2.7928460   2.7928460   0.0000000   2.7928460   0.0000000   2.7928460   2.7928460
 AtZNuc=   6.0000000   6.0000000   6.0000000   1.0000000   1.0000000   6.0000000   1.0000000   6.0000000   1.0000000   1.0000000

  Atom        21          22          23          24          25          26          27          28          29          30
 IAtWgt=           1          12          12          12           1          12           1          12           1          12
 AtmWgt=   1.0078250  12.0000000  12.0000000  12.0000000   1.0078250  12.0000000   1.0078250  12.0000000   1.0078250  12.0000000
 NucSpn=           1           0           0           0           1           0           1           0           1           0
 AtZEff=  -0.0000000  -0.0000000  -0.0000000  -0.0000000  -0.0000000  -0.0000000  -0.0000000  -0.0000000  -0.0000000  -0.0000000
 NQMom=    0.0000000   0.0000000   0.0000000   0.0000000   0.0000000   0.0000000   0.0000000   0.0000000   0.0000000   0.0000000
 NMagM=    2.7928460   0.0000000   0.0000000   0.0000000   2.7928460   0.0000000   2.7928460   0.0000000   2.7928460   0.0000000
 AtZNuc=   1.0000000   6.0000000   6.0000000   6.0000000   1.0000000   6.0000000   1.0000000   6.0000000   1.0000000   6.0000000

  Atom        31          32          33          34          35          36          37          38          39          40
 IAtWgt=          12          12           1           1           1          12           1          12           1           1
 AtmWgt=  12.0000000  12.0000000   1.0078250   1.0078250   1.0078250  12.0000000   1.0078250  12.0000000   1.0078250   1.0078250
 NucSpn=           0           0           1           1           1           0           1           0           1           1
 AtZEff=  -0.0000000  -0.0000000  -0.0000000  -0.0000000  -0.0000000  -0.0000000  -0.0000000  -0.0000000  -0.0000000  -0.0000000
 NQMom=    0.0000000   0.0000000   0.0000000   0.0000000   0.0000000   0.0000000   0.0000000   0.0000000   0.0000000   0.0000000
 NMagM=    0.0000000   0.0000000   2.7928460   2.7928460   2.7928460   0.0000000   2.7928460   0.0000000   2.7928460   2.7928460
 AtZNuc=   6.0000000   6.0000000   1.0000000   1.0000000   1.0000000   6.0000000   1.0000000   6.0000000   1.0000000   1.0000000

  Atom        41          42          43          44          45          46          47          48          49          50
 IAtWgt=           1          12           1           1          12           1           1           1           1           1
 AtmWgt=   1.0078250  12.0000000   1.0078250   1.0078250  12.0000000   1.0078250   1.0078250   1.0078250   1.0078250   1.0078250
 NucSpn=           1           0           1           1           0           1           1           1           1           1
 AtZEff=  -0.0000000  -0.0000000  -0.0000000  -0.0000000  -0.0000000  -0.0000000  -0.0000000  -0.0000000  -0.0000000  -0.0000000
 NQMom=    0.0000000   0.0000000   0.0000000   0.0000000   0.0000000   0.0000000   0.0000000   0.0000000   0.0000000   0.0000000
 NMagM=    2.7928460   0.0000000   2.7928460   2.7928460   0.0000000   2.7928460   2.7928460   2.7928460   2.7928460   2.7928460
 AtZNuc=   1.0000000   6.0000000   1.0000000   1.0000000   6.0000000   1.0000000   1.0000000   1.0000000   1.0000000   1.0000000
 Leave Link  101 at Mon Mar  6 10:21:49 2023, MaxMem=  1048576000 cpu:               0.1 elap:               0.1
 (Enter /ssoft/spack/external/gaussian/g16-C.01/avx2/g16/l103.exe)

 GradGradGradGradGradGradGradGradGradGradGradGradGradGradGradGradGradGrad
 Berny optimization.
 Initialization pass.
 Trust Radius=3.00D-01 FncErr=1.00D-07 GrdErr=1.00D-07 EigMax=2.50D+02 EigMin=1.00D-04
 Number of steps in this run=      2 maximum allowed number of steps=      2.
 GradGradGradGradGradGradGradGradGradGradGradGradGradGradGradGradGradGrad

 Leave Link  103 at Mon Mar  6 10:21:49 2023, MaxMem=  1048576000 cpu:               0.0 elap:               0.0
 (Enter /ssoft/spack/external/gaussian/g16-C.01/avx2/g16/l202.exe)
                          Input orientation:                          
 ---------------------------------------------------------------------
 Center     Atomic      Atomic             Coordinates (Angstroms)
 Number     Number       Type             X           Y           Z
 ---------------------------------------------------------------------
      1          7           0        1.654076    1.133647    0.000000
      2          8           0        0.922762   -1.642309    0.000000
      3          6           0        2.176315   -1.824334   -0.264975
      4          6           0        2.713423   -3.122786   -0.440780
      5          1           0        2.160422   -3.864137   -0.347037
      6          6           0        4.037453   -3.303321   -0.748789
      7          1           0        4.358421   -4.170753   -0.850381
      8          6           0        3.096315   -0.774400   -0.412389
      9          6           0        4.913855   -2.243797   -0.914570
     10          1           0        5.806031   -2.387835   -1.138628
     11          6           0        4.423839   -0.977347   -0.735906
     12          6           0        2.813880    0.619313   -0.246875
     13          6           0        4.113763    1.368140   -0.392395
     14          1           0        4.020743    2.084732   -1.039071
     15          1           0        4.380547    1.751448    0.458674
     16          6           0        5.154254    0.352522   -0.870857
     17          1           0        5.914631    0.359841   -0.250968
     18          6           0        5.650689    0.614224   -2.235858
     19          1           0        4.938831    0.478595   -2.866005
     20          1           0        5.962573    1.520593   -2.294317
     21          1           0        6.372020    0.014374   -2.433850
     22          6           0        1.564051    2.569354    0.136894
     23          6           0        1.329705    3.323204   -1.018193
     24          6           0        1.233162    4.697442   -0.862177
     25          1           0        1.086688    5.227970   -1.613271
     26          6           0        1.344326    5.298746    0.359821
     27          1           0        1.280615    6.222983    0.434949
     28          6           0        1.551587    4.527626    1.481376
     29          1           0        1.620259    4.938887    2.312681
     30          6           0        1.659722    3.148393    1.386785
     31          6           0        1.135145    2.685820   -2.371377
     32          6           0        2.143105    3.136981   -3.401712
     33          1           0        2.043342    4.078870   -3.557657
     34          1           0        3.030781    2.959100   -3.080431
     35          1           0        1.998212    2.659829   -4.221832
     36          6           0        1.847491    2.328662    2.661527
     37          1           0        1.888609    1.385321    2.398374
     38          6           0        3.143053    2.656646    3.374967
     39          1           0        3.115298    3.565376    3.685490
     40          1           0        3.254125    2.065262    4.122780
     41          1           0        3.878945    2.548188    2.768311
     42          6           0        0.679928    2.482680    3.604971
     43          1           0       -0.140142    2.381725    3.118270
     44          1           0        0.731520    1.810391    4.289655
     45          6           0       -0.280644    2.872737   -2.892014
     46          1           0       -0.411932    3.790757   -3.136232
     47          1           0       -0.414105    2.313791   -3.661160
     48          1           0       -0.907442    2.629498   -2.208013
     49          1           0        1.266891    1.722259   -2.250841
     50          1           0        0.708754    3.352182    4.009445
 ---------------------------------------------------------------------
                    Distance matrix (angstroms):
                    1          2          3          4          5
     1  N    0.000000
     2  O    2.870671   0.000000
     3  C    3.015393   1.294118   0.000000
     4  C    4.408369   2.364861   1.416110   0.000000
     5  H    5.035341   2.566857   2.041514   0.929623   0.000000
     6  C    5.091940   3.608455   2.425966   1.371320   1.999791
     7  H    6.014423   4.349705   3.257295   1.992994   2.275647
     8  C    2.427089   2.376482   1.403743   2.379564   3.229031
     9  C    4.782230   4.138484   2.844653   2.416402   3.244840
    10  H    5.562017   5.069379   3.775664   3.254438   4.012050
    11  C    3.559416   3.638856   2.447555   2.759624   3.688879
    12  C    1.292529   2.958413   2.525515   3.748465   4.531927
    13  C    2.501803   4.404460   3.736554   4.704435   5.585188
    14  H    2.754151   4.956611   4.391121   5.402340   6.271263
    15  H    2.832968   4.866647   4.262456   5.229386   6.092038
    16  C    3.690501   4.758495   3.738171   4.268535   5.197849
    17  H    4.337520   5.384268   4.329645   4.734179   5.652018
    18  C    4.608880   5.695990   4.679981   5.080854   5.983755
    19  H    4.408253   5.370385   4.438506   4.878944   5.737950
    20  H    4.896607   6.377110   5.444494   5.962678   6.873395
    21  H    5.425439   6.193758   5.068413   5.215307   6.093865
    22  C    1.445026   4.262405   4.454308   5.835685   6.479170
    23  C    2.436411   5.085139   5.270791   6.618072   7.266252
    24  C    3.690685   6.405633   6.616627   7.970239   8.627039
    25  H    4.437122   7.059054   7.262244   8.588138   9.242437
    26  C    4.192072   6.963148   7.198670   8.569573   9.226271
    27  H    5.121523   7.885433   8.127207   9.495432  10.155567
    28  C    3.704602   6.376362   6.617207   7.973289   8.610195
    29  H    4.453032   7.010502   7.259109   8.588779   9.211900
    30  C    2.445896   5.041538   5.265282   6.616492   7.241023
    31  C    2.881312   4.939760   5.085514   6.321239   6.931888
    32  C    3.977957   5.991869   5.869828   6.948170   7.638520
    33  H    4.634954   6.829679   6.760715   7.875772   8.568147
    34  H    3.836229   5.925012   5.615884   6.637606   7.401725
    35  H    4.502391   6.122813   5.982989   6.945970   7.589629
    36  C    2.923901   4.869030   5.091160   6.331858   6.892034
    37  H    2.422920   3.981407   4.180680   5.391117   5.930259
    38  C    3.990863   5.899247   5.853456   6.938757   7.572285
    39  H    4.650947   6.746112   6.748099   7.868870   8.507098
    40  H    4.519445   6.014869   5.961797   6.930677   7.505546
    41  H    3.822893   5.827763   5.587371   6.619414   7.333254
    42  C    3.970475   5.483641   5.980470   7.205862   7.621831
    43  H    3.807956   5.200598   5.873947   7.149078   7.504115
    44  H    4.439621   5.509887   6.003609   7.116263   7.465986
    45  C    3.889901   5.495232   5.916119   7.135775   7.604024
    46  H    4.600497   6.413701   6.817066   8.051731   8.543653
    47  H    4.367402   5.553560   5.947136   7.050436   7.468493
    48  H    3.697873   5.145221   5.755135   7.023001   7.419050
    49  H    2.358530   4.062638   4.165218   5.370590   5.969145
    50  H    4.678801   6.408306   6.871734   8.108540   8.553452
                    6          7          8          9         10
     6  C    0.000000
     7  H    0.930473   0.000000
     8  C    2.719254   3.649652   0.000000
     9  C    1.384974   2.006436   2.390557   0.000000
    10  H    2.029275   2.314618   3.236225   0.931089   0.000000
    11  C    2.357883   3.196126   1.381365   1.369647   2.015469
    12  C    4.139577   5.068980   1.431643   3.612909   4.334874
    13  C    4.685658   5.563178   2.371936   3.736162   4.186644
    14  H    5.395892   6.267433   3.069517   4.421460   4.816744
    15  H    5.208298   6.065194   2.964442   4.258192   4.660155
    16  C    3.824570   4.592798   2.390661   2.607792   2.829501
    17  H    4.146128   4.827771   3.042279   2.867203   2.889543
    18  C    4.490107   5.146408   3.431930   3.233731   3.200063
    19  H    4.426959   5.100593   3.314376   3.349648   3.457208
    20  H    5.418937   6.086844   4.126024   4.144169   4.078717
    21  H    4.392804   4.906857   3.929212   3.087684   2.787212
    22  C    6.433541   7.362897   3.718903   5.957616   6.647938
    23  C    7.163471   8.084595   4.503140   6.621811   7.257270
    24  C    8.478745   9.402780   5.797819   7.856911   8.437340
    25  H    9.068476   9.981093   6.442760   8.423935   8.972066
    26  C    9.081712  10.011032   6.367800   8.441301   9.013084
    27  H    9.987585  10.915801   7.278607   9.311713   9.854021
    28  C    8.513336   9.432773   5.838151   7.930799   8.531607
    29  H    9.118630  10.024372   6.499723   8.535448   9.116638
    30  C    7.199923   8.115281   4.548531   6.705321   7.363383
    31  C    6.850254   7.727582   4.433615   6.379816   7.005628
    32  C    7.218313   8.051081   5.014336   6.543371   7.004440
    33  H    8.146347   8.985835   5.878409   7.429797   7.863067
    34  H    6.757800   7.587527   4.589310   5.941975   6.329481
    35  H    7.195810   7.974592   5.245151   6.594278   7.034525
    36  C    6.938690   7.802606   4.542854   6.564940   7.235784
    37  H    6.041980   6.893790   3.744775   5.770460   6.487934
    38  C    7.302501   8.120595   5.110610   6.749090   7.273980
    39  H    8.227526   9.053572   5.968805   7.625080   8.121138
    40  H    7.291603   8.052309   5.353163   6.833564   7.350151
    41  H    6.829002   7.646502   4.665721   6.131702   6.583476
    42  C    7.981604   8.811904   5.708475   7.790506   8.514727
    43  H    8.045259   8.883818   5.735969   7.949978   8.730800
    44  H    7.903491   8.680350   5.863670   7.811039   8.534754
    45  C    7.834735   8.677554   5.554638   7.554603   8.233808
    46  H    8.707631   9.558610   6.369284   8.349589   8.990466
    47  H    7.736292   8.528000   5.693372   7.530107   8.195032
    48  H    7.860003   8.707232   5.553454   7.701266   8.449138
    49  H    5.932000   6.800474   3.600001   5.551177   6.223639
    50  H    8.832709   9.671222   6.502442   8.558259   9.242981
                   11         12         13         14         15
    11  C    0.000000
    12  C    2.319578   0.000000
    13  C    2.390703   1.507188   0.000000
    14  H    3.103341   2.057073   0.969714   0.000000
    15  H    2.979131   2.057663   0.970782   1.576000   0.000000
    16  C    1.523244   2.436777   1.530695   2.076943   2.079247
    17  H    2.060509   3.111591   2.068766   2.680142   2.189423
    18  C    2.507612   3.464616   2.515728   2.500283   3.188580
    19  H    2.631028   3.375657   2.755136   2.600048   3.603516
    20  H    3.322055   3.862459   2.656811   2.380041   3.183560
    21  H    2.768020   4.220091   3.331658   3.429328   3.917918
    22  C    4.638885   2.347767   2.867768   2.766422   2.950452
    23  C    5.305478   3.179424   3.459028   2.962421   3.736200
    24  C    6.511498   4.416832   4.427506   3.824678   4.508832
    25  H    7.100162   5.107832   5.054899   4.338010   5.218109
    26  C    7.076253   4.942142   4.866751   4.410215   4.670303
    27  H    7.943268   5.849522   5.681613   5.177467   5.441026
    28  C    6.593246   4.455911   4.478628   4.291517   4.093421
    29  H    7.221895   5.160890   5.126912   5.014257   4.606116
    30  C    5.400730   3.224464   3.515266   3.548320   3.196206
    31  C    5.187395   3.406187   3.811143   3.234660   4.406231
    32  C    5.407030   4.091649   4.008526   3.196065   4.672091
    33  H    6.260542   4.850108   4.653341   3.772265   5.197147
    34  H    4.788844   3.681126   3.305986   2.431398   3.975620
    35  H    5.591457   4.541949   4.561645   3.814621   5.329898
    36  C    5.395351   3.509214   3.922376   4.298483   3.406188
    37  H    4.672612   2.905209   3.569313   4.105022   3.179032
    38  C    5.634323   4.168552   4.098237   4.536647   3.294775
    39  H    6.472816   4.922767   4.738557   5.033251   3.911973
    40  H    5.850858   4.623686   4.648846   5.218505   3.846165
    41  H    5.000584   3.734470   3.381969   3.838106   2.494158
    42  C    6.695661   4.781486   5.386312   5.734679   4.912074
    43  H    6.853318   4.812125   5.607837   5.889368   5.282740
    44  H    6.830884   5.131764   5.792819   6.268140   5.291058
    45  C    6.450125   4.653038   5.274725   4.749346   5.849026
    46  H    7.202851   5.367709   5.820621   5.192034   6.328506
    47  H    6.541743   4.994845   5.663979   5.157101   6.346491
    48  H    6.602953   4.662096   5.486346   5.094134   5.987071
    49  H    4.421450   2.761439   3.418172   3.030425   4.127612
    50  H    7.420582   5.478722   5.908190   6.169540   5.352793
                   16         17         18         19         20
    16  C    0.000000
    17  H    0.981065   0.000000
    18  C    1.475860   2.018456   0.000000
    19  H    2.010701   2.793690   0.960324   0.000000
    20  H    2.010971   2.350513   0.960308   1.568641   0.000000
    21  H    2.010035   2.256883   0.958821   1.567255   1.567103
    22  C    4.338141   4.894888   5.114010   4.977732   5.133973
    23  C    4.844981   5.512867   5.243299   4.952980   5.132384
    24  C    5.852638   6.411280   6.170431   5.962046   5.874583
    25  H    6.392672   6.990248   6.519537   6.242188   6.163012
    26  C    6.363588   6.756739   6.872194   6.823509   6.530474
    27  H    7.153497   7.504733   7.595323   7.568146   7.175102
    28  C    5.995307   6.277547   6.777550   6.838699   6.538723
    29  H    6.607479   6.780972   7.458974   7.597758   7.194780
    30  C    5.012544   5.344390   5.955953   5.997216   5.891924
    31  C    4.883552   5.722743   4.969911   4.425441   4.966664
    32  C    4.819280   5.644830   4.475117   3.894880   4.292712
    33  H    5.548184   6.304938   5.173382   4.671641   4.847802
    34  H    4.023134   4.804019   3.616029   3.136805   3.358971
    35  H    5.149106   6.032912   4.633485   3.904265   4.552947
    36  C    5.226620   5.375920   6.433351   6.597935   6.492092
    37  H    4.734869   4.927421   6.018633   6.151398   6.215852
    38  C    5.232680   5.109243   6.476194   6.849705   6.432813
    39  H    5.936335   5.797190   7.085186   7.468305   6.931536
    40  H    5.610738   5.395964   6.948476   7.361988   6.986522
    41  H    4.437443   4.248402   5.649867   6.095252   5.570247
    42  C    6.677590   6.839358   7.893978   8.001759   7.977063
    43  H    6.932635   7.218037   8.082356   8.076474   8.202486
    44  H    6.951032   7.041732   8.259018   8.407058   8.414070
    45  C    6.322553   7.188268   6.380606   5.742431   6.415862
    46  H    6.923569   7.753794   6.903362   6.298738   6.818854
    47  H    6.529853   7.449846   6.457688   5.714380   6.569584
    48  H    6.611865   7.451311   6.860844   6.264044   6.959470
    49  H    4.346508   5.239958   4.521687   3.925337   4.700211
    50  H    7.251054   7.362498   8.421577   8.568715   8.408016
                   21         22         23         24         25
    21  H    0.000000
    22  C    6.021064   0.000000
    23  C    6.194948   1.399083   0.000000
    24  C    7.128053   2.374108   1.386431   0.000000
    25  H    7.469247   3.218569   2.010300   0.931159   0.000000
    26  C    7.810690   2.747282   2.408713   1.366456   1.991099
    27  H    8.526384   3.676708   3.243878   2.003013   2.285358
    28  C    7.676914   2.375420   2.783471   2.371176   3.206783
    29  H    8.328242   3.217437   3.713431   3.207470   3.972576
    30  C    6.828255   1.380822   2.433802   2.763935   3.695043
    31  C    5.879233   2.547341   1.508383   2.516727   2.653224
    32  C    5.345200   3.630322   2.525364   3.116452   2.947333
    33  H    6.043222   4.019710   2.743936   2.881777   2.452805
    34  H    4.500373   3.557299   2.697973   3.342741   3.328637
    35  H    5.415303   4.381229   3.339202   4.003056   3.772375
    36  C    7.196538   2.551871   3.846760   4.290106   5.220987
    37  H    6.732819   2.573240   3.967454   4.693713   5.612692
    38  C    7.151935   3.603608   4.799207   5.076014   5.976860
    39  H    7.788592   3.998871   5.037025   5.050276   5.912389
    40  H    7.544323   4.358642   5.631645   5.988528   6.899477
    41  H    6.300643   3.504788   4.629999   4.979950   5.846040
    42  C    8.657933   3.580049   4.743663   5.016637   5.910340
    43  H    8.879112   3.439198   4.489673   4.805462   5.656298
    44  H    8.958038   4.302855   5.551548   5.926895   6.830119
    45  C    7.255211   3.559385   2.511444   3.121121   3.008638
    46  H    7.795923   4.013687   2.781725   2.949532   2.575045
    47  H    7.269463   4.289944   3.323411   4.028596   3.865057
    48  H    7.738245   3.407415   2.627114   3.266474   3.329014
    49  H    5.386344   2.550912   2.021483   3.283480   3.567769
    50  H    9.204868   4.042401   5.065922   5.081085   5.939389
                   26         27         28         29         30
    26  C    0.000000
    27  H    0.929472   0.000000
    28  C    1.376761   2.010640   0.000000
    29  H    2.004819   2.300030   0.930010   0.000000
    30  C    2.403778   3.240805   1.386696   2.016113   0.000000
    31  C    3.785575   4.517538   4.290615   5.220349   3.822687
    32  C    4.411395   4.998726   5.111589   6.014526   4.812847
    33  H    4.162133   4.595636   5.082820   5.948067   5.045836
    34  H    4.489254   5.106262   5.045629   5.915639   4.676714
    35  H    5.327569   5.907336   6.017867   6.930860   5.640023
    36  C    3.791099   4.521586   2.513117   2.643219   1.527149
    37  H    4.445991   5.256202   3.290676   3.564714   2.045513
    38  C    4.393998   4.983085   3.101453   2.942104   2.528824
    39  H    4.147408   4.582026   2.868664   2.450772   2.752566
    40  H    5.316260   5.897583   3.992354   3.768780   3.346784
    41  H    4.448673   5.069518   3.315263   3.320347   2.682128
    42  C    4.347718   4.939609   3.074288   2.930390   2.514661
    43  H    4.280385   4.896328   3.185319   3.207345   2.612534
    44  H    5.290345   5.884831   3.992781   3.806017   3.328433
    45  C    4.370409   4.972963   5.022178   5.913650   4.706286
    46  H    4.192953   4.640449   5.071557   5.927787   5.016181
    47  H    5.307572   5.910326   5.933859   6.834949   5.520785
    48  H    4.334641   4.968498   4.822998   5.670910   4.447714
    49  H    4.428635   5.241199   4.677668   5.594399   3.926894
    50  H    4.184832   4.620124   2.912587   2.495492   2.797180
                   31         32         33         34         35
    31  C    0.000000
    32  C    1.510338   0.000000
    33  H    2.042712   0.959910   0.000000
    34  H    2.042272   0.960641   1.567375   0.000000
    35  H    2.041995   0.959825   1.567433   1.567979   0.000000
    36  C    5.095598   6.124022   6.463733   5.896416   6.892969
    37  H    5.000952   6.064163   6.538613   5.813660   6.742663
    38  C    6.087119   6.866877   7.161939   6.463455   7.682580
    39  H    6.432749   7.166388   7.340024   6.793556   8.037017
    40  H    6.859245   7.681207   8.031795   7.261893   8.459514
    41  H    5.827844   6.436537   6.762418   5.924189   7.239594
    42  C    5.997101   7.187670   7.463911   7.102682   7.939024
    43  H    5.644028   6.949374   7.226058   6.986559   7.650294
    44  H    6.730426   7.931554   8.273282   7.805403   8.647050
    45  C    1.520020   2.490818   2.701619   3.317905   2.647060
    46  H    2.049228   2.650682   2.507783   3.542180   2.875121
    47  H    2.049907   2.698939   3.027418   3.552591   2.500673
    48  H    2.049883   3.314859   3.553779   4.047141   3.535422
    49  H    0.979967   2.023287   2.804329   2.308528   2.301884
    50  H    6.429676   7.551750   7.718176   7.470788   8.360381
                   36         37         38         39         40
    36  C    0.000000
    37  H    0.980220   0.000000
    38  C    1.514943   2.035592   0.000000
    39  H    2.045800   2.813196   0.960720   0.000000
    40  H    2.045302   2.302289   0.959842   1.568706   0.000000
    41  H    2.046070   2.334641   0.959860   1.568134   1.567866
    42  C    1.508977   2.030020   2.479950   2.666410   2.658732
    43  H    2.040126   2.372109   3.304671   3.510080   3.553905
    44  H    2.040783   2.257540   2.714460   3.021156   2.540934
    45  C    5.972169   5.908153   7.144470   7.434765   7.896452
    46  H    6.391927   6.458364   7.504655   7.682971   8.313277
    47  H    6.715013   6.548472   7.891641   8.245994   8.608566
    48  H    5.602908   5.530341   6.897602   7.196644   7.597102
    49  H    4.983592   4.702686   6.003564   6.484884   6.685043
    50  H    2.039902   2.802883   2.610009   2.437592   2.854457
                   41         42         43         44         45
    41  H    0.000000
    42  C    3.307265   0.000000
    43  H    4.037728   0.958950   0.000000
    44  H    3.572830   0.960951   1.567916   0.000000
    45  C    7.031842   6.579184   6.031944   7.330037   0.000000
    46  H    7.404001   6.953204   6.417012   7.770015   0.958978
    47  H    7.734553   7.349972   6.785303   8.048685   0.960113
    48  H    6.905064   6.027610   5.386969   6.751061   0.959114
    49  H    5.718118   5.934080   5.589454   6.562963   2.032134
    50  H    3.498133   0.959408   1.567356   1.567213   6.988485
                   46         47         48         49         50
    46  H    0.000000
    47  H    1.567476   0.000000
    48  H    1.567049   1.566744   0.000000
    49  H    2.807320   2.272588   2.356404   0.000000
    50  H    7.246308   7.821588   6.464607   6.493023   0.000000
 Stoichiometry    C22H26NO(1-)
 Framework group  C1[X(C22H26NO)]
 Deg. of freedom   144
 Full point group                 C1      NOp   1
 Largest Abelian subgroup         C1      NOp   1
 Largest concise Abelian subgroup C1      NOp   1
                         Standard orientation:                         
 ---------------------------------------------------------------------
 Center     Atomic      Atomic             Coordinates (Angstroms)
 Number     Number       Type             X           Y           Z
 ---------------------------------------------------------------------
      1          7           0        0.219896   -0.225482    0.790889
      2          8           0       -1.936706   -0.823078    2.588859
      3          6           0       -2.672161   -0.632362    1.541256
      4          6           0       -4.081522   -0.759694    1.594719
      5          1           0       -4.489810   -1.002870    2.393697
      6          6           0       -4.853851   -0.528229    0.485463
      7          1           0       -5.776389   -0.627925    0.554485
      8          6           0       -2.153597   -0.276670    0.286239
      9          6           0       -4.312616   -0.151557   -0.732460
     10          1           0       -4.856339    0.015562   -1.469592
     11          6           0       -2.950484   -0.035115   -0.815938
     12          6           0       -0.767356   -0.123815   -0.037138
     13          6           0       -0.672272    0.155170   -1.515225
     14          1           0       -0.134859    0.946118   -1.676265
     15          1           0       -0.264263   -0.595748   -1.975734
     16          6           0       -2.102895    0.374445   -2.013487
     17          1           0       -2.280705   -0.244964   -2.753219
     18          6           0       -2.363199    1.752342   -2.473711
     19          1           0       -2.321279    2.352332   -1.725061
     20          1           0       -1.701575    2.002861   -3.123085
     21          1           0       -3.234561    1.797030   -2.871291
     22          6           0        1.557734   -0.039645    0.277319
     23          6           0        2.079797    1.258339    0.266350
     24          6           0        3.369895    1.412086   -0.217591
     25          1           0        3.742655    2.264886   -0.246557
     26          6           0        4.113323    0.351092   -0.652113
     27          1           0        4.974207    0.483523   -0.976547
     28          6           0        3.580120   -0.917424   -0.607032
     29          1           0        4.090690   -1.638561   -0.897202
     30          6           0        2.293707   -1.132419   -0.136030
     31          6           0        1.311342    2.441090    0.800948
     32          6           0        1.077591    3.523375   -0.226252
     33          1           0        1.920478    3.885797   -0.508421
     34          1           0        0.620325    3.151395   -0.984783
     35          1           0        0.542530    4.220709    0.159364
     36          6           0        1.757689   -2.560613   -0.064417
     37          1           0        0.849724   -2.513444    0.301923
     38          6           0        1.662218   -3.212059   -1.428806
     39          1           0        2.543947   -3.313357   -1.796604
     40          1           0        1.249502   -4.074338   -1.342559
     41          1           0        1.134278   -2.660618   -2.010634
     42          6           0        2.575309   -3.420922    0.867450
     43          1           0        2.722846   -2.950765    1.690111
     44          1           0        2.102264   -4.238231    1.045386
     45          6           0        1.953184    3.020990    2.050834
     46          1           0        2.769420    3.464892    1.813456
     47          1           0        1.351646    3.650293    2.455736
     48          1           0        2.140691    2.314013    2.671256
     49          1           0        0.428588    2.107704    1.065399
     50          1           0        3.418623   -3.623732    0.457384
 ---------------------------------------------------------------------
 Rotational constants (GHZ):           0.3329594           0.1839353           0.1571454
 Leave Link  202 at Mon Mar  6 10:21:49 2023, MaxMem=  1048576000 cpu:               0.0 elap:               0.0
 (Enter /ssoft/spack/external/gaussian/g16-C.01/avx2/g16/l301.exe)
 Standard basis: def2SVP (5D, 7F)
 Ernie: Thresh=  0.10000D-02 Tol=  0.10000D-05 Strict=F.
 There are   490 symmetry adapted cartesian basis functions of A   symmetry.
 There are   466 symmetry adapted basis functions of A   symmetry.
   466 basis functions,   782 primitive gaussians,   490 cartesian basis functions
    87 alpha electrons       87 beta electrons
       nuclear repulsion energy      2106.8008290501 Hartrees.
 IExCor= 1009 DFT=T Ex+Corr=PBE1PBE ExCW=0 ScaHFX=  0.250000
 ScaDFX=  0.750000  0.750000  1.000000  1.000000 ScalE2=  1.000000  1.000000
 IRadAn=      5 IRanWt=     -1 IRanGd=            0 ICorTp=0 IEmpDi=141
 NAtoms=   50 NActive=   50 NUniq=   50 SFac= 1.00D+00 NAtFMM=   60 NAOKFM=F Big=F
 Integral buffers will be    131072 words long.
 Raffenetti 2 integral format.
 Two-electron integral symmetry is turned on.
 R6Disp:  Grimme-D3(BJ) Dispersion energy=       -0.0618959464 Hartrees.
 Nuclear repulsion after empirical dispersion term =     2106.7389331038 Hartrees.
 Leave Link  301 at Mon Mar  6 10:21:49 2023, MaxMem=  1048576000 cpu:               0.1 elap:               0.1
 (Enter /ssoft/spack/external/gaussian/g16-C.01/avx2/g16/l302.exe)
 NPDir=0 NMtPBC=     1 NCelOv=     1 NCel=       1 NClECP=     1 NCelD=      1
         NCelK=      1 NCelE2=     1 NClLst=     1 CellRange=     0.0.
 One-electron integrals computed using PRISM.
 One-electron integral symmetry used in STVInt
   1 Symmetry operations used in ECPInt.
 ECPInt:  NShTT=   24753 NPrTT=   87961 LenC2=   22569 LenP2D=   55354.
 LDataN:  DoStor=T MaxTD1= 4 Len=   56
 NBasis=   466 RedAO= T EigKep=  1.75D-04  NBF=   466
 NBsUse=   466 1.00D-06 EigRej= -1.00D+00 NBFU=   466
 Precomputing XC quadrature grid using
 IXCGrd= 4 IRadAn=           5 IRanWt=          -1 IRanGd=           0 AccXCQ= 0.00D+00.
 Generated NRdTot=       0 NPtTot=           0 NUsed=           0 NTot=          32
 NSgBfM=   488   488   488   488   488 MxSgAt=    50 MxSgA2=    50.
 Leave Link  302 at Mon Mar  6 10:21:51 2023, MaxMem=  1048576000 cpu:               2.3 elap:               2.3
 (Enter /ssoft/spack/external/gaussian/g16-C.01/avx2/g16/l303.exe)
 DipDrv:  MaxL=1.
 Leave Link  303 at Mon Mar  6 10:21:51 2023, MaxMem=  1048576000 cpu:               0.1 elap:               0.1
 (Enter /ssoft/spack/external/gaussian/g16-C.01/avx2/g16/l401.exe)
 ExpMin= 1.22D-01 ExpMax= 2.27D+03 ExpMxC= 3.41D+02 IAcc=3 IRadAn=         5 AccDes= 0.00D+00
 Harris functional with IExCor= 1009 and IRadAn=       5 diagonalized for initial guess.
 HarFok:  IExCor= 1009 AccDes= 0.00D+00 IRadAn=         5 IDoV= 1 UseB2=F ITyADJ=14
 ICtDFT=  3500011 ScaDFX=  1.000000  1.000000  1.000000  1.000000
 FoFCou: FMM=F IPFlag=           0 FMFlag=      100000 FMFlg1=           0
         NFxFlg=           0 DoJE=T BraDBF=F KetDBF=T FulRan=T
         wScrn=  0.000000 ICntrl=       500 IOpCl=  0 I1Cent=   200000004 NGrid=           0
         NMat0=    1 NMatS0=      1 NMatT0=    0 NMatD0=    1 NMtDS0=    0 NMtDT0=    0
 Petite list used in FoFCou.
 Harris En= -982.594270004493    
 JPrj=0 DoOrth=F DoCkMO=F.
 Leave Link  401 at Mon Mar  6 10:22:11 2023, MaxMem=  1048576000 cpu:              19.0 elap:              19.1
 (Enter /ssoft/spack/external/gaussian/g16-C.01/avx2/g16/l502.exe)
 Integral symmetry usage will be decided dynamically.
 Closed shell SCF:
 Using DIIS extrapolation, IDIIS=  1040.
 NGot=  1048576000 LenX=  1048086366 LenY=  1047845776
 Requested convergence on RMS density matrix=1.00D-08 within 128 cycles.
 Requested convergence on MAX density matrix=1.00D-06.
 Requested convergence on             energy=1.00D-06.
 No special actions if energy rises.
 Fock matrices will be formed incrementally for  20 cycles.
 Integral accuracy reduced to 1.0D-05 until final iterations.

 Cycle   1  Pass 0  IDiag  1:
 FoFJK:  IHMeth= 1 ICntrl=       0 DoSepK=F KAlg= 0 I1Cent=           0 FoldK=F
 IRaf= 840000000 NMat=       1 IRICut=       1 DoRegI=T DoRafI=F ISym2E= 0 IDoP0=0 IntGTp=1.
 FoFCou: FMM=F IPFlag=           0 FMFlag=      100000 FMFlg1=           0
         NFxFlg=           0 DoJE=F BraDBF=F KetDBF=F FulRan=T
         wScrn=  0.000000 ICntrl=         0 IOpCl=  0 I1Cent=           0 NGrid=           0
         NMat0=    1 NMatS0=      1 NMatT0=    0 NMatD0=    1 NMtDS0=    0 NMtDT0=    0
 Symmetry not used in FoFCou.
 E= -980.940212677062    
 DIIS: error= 2.83D-02 at cycle   1 NSaved=   1.
 NSaved= 1 IEnMin= 1 EnMin= -980.940212677062     IErMin= 1 ErrMin= 2.83D-02
 ErrMax= 2.83D-02  0.00D+00 EMaxC= 1.00D-01 BMatC= 7.62D-01 BMatP= 7.62D-01
 IDIUse=3 WtCom= 7.17D-01 WtEn= 2.83D-01
 Coeff-Com:  0.100D+01
 Coeff-En:   0.100D+01
 Coeff:      0.100D+01
 Gap=     0.114 Goal=   None    Shift=    0.000
 GapD=    0.114 DampG=1.000 DampE=0.500 DampFc=0.5000 IDamp=-1.
 Damping current iteration by 5.00D-01
 RMSDP=6.64D-03 MaxDP=2.40D-01              OVMax= 4.42D-01

 Cycle   2  Pass 0  IDiag  1:
 RMSU=  3.25D-03    CP:  9.60D-01
 E= -981.320602854883     Delta-E=       -0.380390177821 Rises=F Damp=T
 DIIS: error= 1.31D-02 at cycle   2 NSaved=   2.
 NSaved= 2 IEnMin= 2 EnMin= -981.320602854883     IErMin= 2 ErrMin= 1.31D-02
 ErrMax= 1.31D-02  0.00D+00 EMaxC= 1.00D-01 BMatC= 5.25D-02 BMatP= 7.62D-01
 IDIUse=3 WtCom= 8.69D-01 WtEn= 1.31D-01
 Coeff-Com:  0.278D-01 0.972D+00
 Coeff-En:   0.870D-02 0.991D+00
 Coeff:      0.253D-01 0.975D+00
 Gap=     0.243 Goal=   None    Shift=    0.000
 RMSDP=2.61D-03 MaxDP=1.71D-01 DE=-3.80D-01 OVMax= 3.51D-01

 Cycle   3  Pass 0  IDiag  1:
 RMSU=  2.32D-03    CP:  9.15D-01  7.14D-01
 E= -981.659203399962     Delta-E=       -0.338600545078 Rises=F Damp=F
 DIIS: error= 3.09D-02 at cycle   3 NSaved=   3.
 NSaved= 3 IEnMin= 3 EnMin= -981.659203399962     IErMin= 2 ErrMin= 1.31D-02
 ErrMax= 3.09D-02  0.00D+00 EMaxC= 1.00D-01 BMatC= 1.21D-01 BMatP= 5.25D-02
 IDIUse=2 WtCom= 0.00D+00 WtEn= 1.00D+00
 Coeff-En:   0.000D+00 0.000D+00 0.100D+01
 Coeff:      0.000D+00 0.000D+00 0.100D+01
 Gap=     0.142 Goal=   None    Shift=    0.000
 RMSDP=5.09D-03 MaxDP=3.39D-01 DE=-3.39D-01 OVMax= 8.38D-01

 Cycle   4  Pass 0  IDiag  1:
 RMSU=  4.82D-03    CP:  9.22D-01  8.01D-01  3.10D-01
 E= -979.076858339835     Delta-E=        2.582345060126 Rises=F Damp=F
 DIIS: error= 1.21D-01 at cycle   4 NSaved=   4.
 NSaved= 4 IEnMin= 3 EnMin= -981.659203399962     IErMin= 2 ErrMin= 1.31D-02
 ErrMax= 1.21D-01  0.00D+00 EMaxC= 1.00D-01 BMatC= 1.82D+00 BMatP= 5.25D-02
 IDIUse=2 WtCom= 0.00D+00 WtEn= 1.00D+00
 Coeff-En:   0.000D+00 0.000D+00 0.926D+00 0.739D-01
 Coeff:      0.000D+00 0.000D+00 0.926D+00 0.739D-01
 Gap=     0.023 Goal=   None    Shift=    0.000
 RMSDP=4.80D-03 MaxDP=2.39D-01 DE= 2.58D+00 OVMax= 9.96D-01

 Cycle   5  Pass 0  IDiag  1:
 RMSU=  1.44D-03    CP:  9.31D-01  1.17D+00  2.08D-01  8.50D-02
 E= -981.579084787216     Delta-E=       -2.502226447381 Rises=F Damp=F
 DIIS: error= 3.58D-02 at cycle   5 NSaved=   5.
 NSaved= 5 IEnMin= 3 EnMin= -981.659203399962     IErMin= 2 ErrMin= 1.31D-02
 ErrMax= 3.58D-02  0.00D+00 EMaxC= 1.00D-01 BMatC= 2.07D-01 BMatP= 5.25D-02
 IDIUse=2 WtCom= 0.00D+00 WtEn= 1.00D+00
 Coeff-En:   0.000D+00 0.000D+00 0.598D+00 0.000D+00 0.402D+00
 Coeff:      0.000D+00 0.000D+00 0.598D+00 0.000D+00 0.402D+00
 Gap=     0.145 Goal=   None    Shift=    0.000
 RMSDP=1.49D-03 MaxDP=1.05D-01 DE=-2.50D+00 OVMax= 1.95D-01

 Cycle   6  Pass 0  IDiag  1:
 RMSU=  3.42D-04    CP:  9.24D-01  9.21D-01  6.21D-01  4.14D-02  5.22D-01
 E= -981.767908947658     Delta-E=       -0.188824160442 Rises=F Damp=F
 DIIS: error= 4.81D-03 at cycle   6 NSaved=   6.
 NSaved= 6 IEnMin= 6 EnMin= -981.767908947658     IErMin= 6 ErrMin= 4.81D-03
 ErrMax= 4.81D-03  0.00D+00 EMaxC= 1.00D-01 BMatC= 4.01D-03 BMatP= 5.25D-02
 IDIUse=3 WtCom= 9.52D-01 WtEn= 4.81D-02
 Coeff-Com: -0.147D-02 0.269D-01 0.257D+00-0.489D-02 0.143D+00 0.580D+00
 Coeff-En:   0.000D+00 0.000D+00 0.000D+00 0.000D+00 0.000D+00 0.100D+01
 Coeff:     -0.140D-02 0.256D-01 0.244D+00-0.466D-02 0.136D+00 0.600D+00
 Gap=     0.145 Goal=   None    Shift=    0.000
 RMSDP=3.36D-04 MaxDP=2.03D-02 DE=-1.89D-01 OVMax= 4.27D-02

 Cycle   7  Pass 0  IDiag  1:
 RMSU=  2.05D-04    CP:  9.21D-01  8.75D-01  6.80D-01  3.98D-02  4.78D-01
                    CP:  5.34D-01
 E= -981.770358657527     Delta-E=       -0.002449709869 Rises=F Damp=F
 DIIS: error= 1.66D-03 at cycle   7 NSaved=   7.
 NSaved= 7 IEnMin= 7 EnMin= -981.770358657527     IErMin= 7 ErrMin= 1.66D-03
 ErrMax= 1.66D-03  0.00D+00 EMaxC= 1.00D-01 BMatC= 1.47D-03 BMatP= 4.01D-03
 IDIUse=3 WtCom= 9.83D-01 WtEn= 1.66D-02
 Coeff-Com: -0.482D-02 0.491D-02 0.409D-01-0.183D-03-0.104D-01 0.440D+00
 Coeff-Com:  0.529D+00
 Coeff-En:   0.000D+00 0.000D+00 0.000D+00 0.000D+00 0.000D+00 0.304D+00
 Coeff-En:   0.696D+00
 Coeff:     -0.474D-02 0.483D-02 0.402D-01-0.180D-03-0.102D-01 0.438D+00
 Coeff:      0.532D+00
 Gap=     0.144 Goal=   None    Shift=    0.000
 RMSDP=1.47D-04 MaxDP=8.92D-03 DE=-2.45D-03 OVMax= 1.53D-02

 Cycle   8  Pass 0  IDiag  1:
 RMSU=  6.05D-05    CP:  9.22D-01  8.92D-01  6.75D-01  3.68D-02  4.79D-01
                    CP:  7.34D-01  5.12D-01
 E= -981.771839485937     Delta-E=       -0.001480828410 Rises=F Damp=F
 DIIS: error= 3.98D-04 at cycle   8 NSaved=   8.
 NSaved= 8 IEnMin= 8 EnMin= -981.771839485937     IErMin= 8 ErrMin= 3.98D-04
 ErrMax= 3.98D-04  0.00D+00 EMaxC= 1.00D-01 BMatC= 1.08D-04 BMatP= 1.47D-03
 IDIUse=3 WtCom= 9.96D-01 WtEn= 3.98D-03
 Coeff-Com: -0.305D-02 0.318D-02 0.901D-02 0.340D-03-0.168D-01 0.235D+00
 Coeff-Com:  0.335D+00 0.438D+00
 Coeff-En:   0.000D+00 0.000D+00 0.000D+00 0.000D+00 0.000D+00 0.000D+00
 Coeff-En:   0.000D+00 0.100D+01
 Coeff:     -0.304D-02 0.317D-02 0.898D-02 0.339D-03-0.167D-01 0.234D+00
 Coeff:      0.333D+00 0.440D+00
 Gap=     0.143 Goal=   None    Shift=    0.000
 RMSDP=3.54D-05 MaxDP=2.13D-03 DE=-1.48D-03 OVMax= 3.12D-03

 Cycle   9  Pass 0  IDiag  1:
 RMSU=  1.55D-05    CP:  9.22D-01  8.91D-01  6.74D-01  3.82D-02  4.79D-01
                    CP:  7.52D-01  5.83D-01  5.64D-01
 E= -981.771940732878     Delta-E=       -0.000101246942 Rises=F Damp=F
 DIIS: error= 7.06D-05 at cycle   9 NSaved=   9.
 NSaved= 9 IEnMin= 9 EnMin= -981.771940732878     IErMin= 9 ErrMin= 7.06D-05
 ErrMax= 7.06D-05  0.00D+00 EMaxC= 1.00D-01 BMatC= 3.43D-06 BMatP= 1.08D-04
 IDIUse=1 WtCom= 1.00D+00 WtEn= 0.00D+00
 Coeff-Com: -0.133D-02 0.216D-02 0.925D-03 0.815D-04-0.751D-02 0.792D-01
 Coeff-Com:  0.119D+00 0.218D+00 0.590D+00
 Coeff:     -0.133D-02 0.216D-02 0.925D-03 0.815D-04-0.751D-02 0.792D-01
 Coeff:      0.119D+00 0.218D+00 0.590D+00
 Gap=     0.143 Goal=   None    Shift=    0.000
 RMSDP=7.12D-06 MaxDP=4.04D-04 DE=-1.01D-04 OVMax= 9.27D-04

 Initial convergence to 1.0D-05 achieved.  Increase integral accuracy.
 Cycle  10  Pass 1  IDiag  1:
 E= -981.771952428766     Delta-E=       -0.000011695888 Rises=F Damp=F
 DIIS: error= 1.39D-04 at cycle   1 NSaved=   1.
 NSaved= 1 IEnMin= 1 EnMin= -981.771952428766     IErMin= 1 ErrMin= 1.39D-04
 ErrMax= 1.39D-04  0.00D+00 EMaxC= 1.00D-01 BMatC= 5.75D-06 BMatP= 5.75D-06
 IDIUse=3 WtCom= 9.99D-01 WtEn= 1.39D-03
 Coeff-Com:  0.100D+01
 Coeff-En:   0.100D+01
 Coeff:      0.100D+01
 Gap=     0.143 Goal=   None    Shift=    0.000
 RMSDP=7.12D-06 MaxDP=4.04D-04 DE=-1.17D-05 OVMax= 7.19D-04

 Cycle  11  Pass 1  IDiag  1:
 RMSU=  1.62D-04    CP:  1.00D+00
 E= -981.771956456451     Delta-E=       -0.000004027685 Rises=F Damp=F
 DIIS: error= 5.15D-05 at cycle   2 NSaved=   2.
 NSaved= 2 IEnMin= 2 EnMin= -981.771956456451     IErMin= 2 ErrMin= 5.15D-05
 ErrMax= 5.15D-05  0.00D+00 EMaxC= 1.00D-01 BMatC= 1.78D-06 BMatP= 5.75D-06
 IDIUse=1 WtCom= 1.00D+00 WtEn= 0.00D+00
 Coeff-Com:  0.292D+00 0.708D+00
 Coeff:      0.292D+00 0.708D+00
 Gap=     0.143 Goal=   None    Shift=    0.000
 RMSDP=7.66D-06 MaxDP=4.57D-04 DE=-4.03D-06 OVMax= 9.68D-04

 Cycle  12  Pass 1  IDiag  1:
 RMSU=  7.54D-06    CP:  1.00D+00  1.01D+00
 E= -981.771956584977     Delta-E=       -0.000000128527 Rises=F Damp=F
 DIIS: error= 4.96D-05 at cycle   3 NSaved=   3.
 NSaved= 3 IEnMin= 3 EnMin= -981.771956584977     IErMin= 3 ErrMin= 4.96D-05
 ErrMax= 4.96D-05  0.00D+00 EMaxC= 1.00D-01 BMatC= 1.64D-06 BMatP= 1.78D-06
 IDIUse=1 WtCom= 1.00D+00 WtEn= 0.00D+00
 Coeff-Com:  0.213D-02 0.490D+00 0.508D+00
 Coeff:      0.213D-02 0.490D+00 0.508D+00
 Gap=     0.143 Goal=   None    Shift=    0.000
 RMSDP=4.28D-06 MaxDP=1.91D-04 DE=-1.29D-07 OVMax= 5.72D-04

 Cycle  13  Pass 1  IDiag  1:
 RMSU=  1.49D-06    CP:  1.00D+00  1.01D+00  4.80D-01
 E= -981.771958308253     Delta-E=       -0.000001723276 Rises=F Damp=F
 DIIS: error= 1.55D-05 at cycle   4 NSaved=   4.
 NSaved= 4 IEnMin= 4 EnMin= -981.771958308253     IErMin= 4 ErrMin= 1.55D-05
 ErrMax= 1.55D-05  0.00D+00 EMaxC= 1.00D-01 BMatC= 4.47D-08 BMatP= 1.64D-06
 IDIUse=1 WtCom= 1.00D+00 WtEn= 0.00D+00
 Coeff-Com: -0.436D-02 0.290D+00 0.315D+00 0.399D+00
 Coeff:     -0.436D-02 0.290D+00 0.315D+00 0.399D+00
 Gap=     0.143 Goal=   None    Shift=    0.000
 RMSDP=8.77D-07 MaxDP=4.68D-05 DE=-1.72D-06 OVMax= 1.26D-04

 Cycle  14  Pass 1  IDiag  1:
 RMSU=  4.05D-07    CP:  1.00D+00  1.01D+00  5.15D-01  5.16D-01
 E= -981.771958352400     Delta-E=       -0.000000044147 Rises=F Damp=F
 DIIS: error= 2.97D-06 at cycle   5 NSaved=   5.
 NSaved= 5 IEnMin= 5 EnMin= -981.771958352400     IErMin= 5 ErrMin= 2.97D-06
 ErrMax= 2.97D-06  0.00D+00 EMaxC= 1.00D-01 BMatC= 1.36D-09 BMatP= 4.47D-08
 IDIUse=1 WtCom= 1.00D+00 WtEn= 0.00D+00
 Coeff-Com: -0.293D-02 0.171D+00 0.186D+00 0.248D+00 0.398D+00
 Coeff:     -0.293D-02 0.171D+00 0.186D+00 0.248D+00 0.398D+00
 Gap=     0.143 Goal=   None    Shift=    0.000
 RMSDP=1.40D-07 MaxDP=1.09D-05 DE=-4.41D-08 OVMax= 1.13D-05

 Cycle  15  Pass 1  IDiag  1:
 RMSU=  1.14D-07    CP:  1.00D+00  1.01D+00  5.14D-01  5.57D-01  8.81D-01
 E= -981.771958353521     Delta-E=       -0.000000001120 Rises=F Damp=F
 DIIS: error= 3.59D-07 at cycle   6 NSaved=   6.
 NSaved= 6 IEnMin= 6 EnMin= -981.771958353521     IErMin= 6 ErrMin= 3.59D-07
 ErrMax= 3.59D-07  0.00D+00 EMaxC= 1.00D-01 BMatC= 4.20D-11 BMatP= 1.36D-09
 IDIUse=1 WtCom= 1.00D+00 WtEn= 0.00D+00
 Coeff-Com: -0.819D-04-0.117D-02-0.271D-02-0.207D-02 0.112D+00 0.894D+00
 Coeff:     -0.819D-04-0.117D-02-0.271D-02-0.207D-02 0.112D+00 0.894D+00
 Gap=     0.143 Goal=   None    Shift=    0.000
 RMSDP=4.46D-08 MaxDP=1.66D-06 DE=-1.12D-09 OVMax= 6.93D-06

 Cycle  16  Pass 1  IDiag  1:
 RMSU=  3.66D-08    CP:  1.00D+00  1.01D+00  5.14D-01  5.59D-01  9.39D-01
                    CP:  9.27D-01
 E= -981.771958353587     Delta-E=       -0.000000000066 Rises=F Damp=F
 DIIS: error= 2.46D-07 at cycle   7 NSaved=   7.
 NSaved= 7 IEnMin= 7 EnMin= -981.771958353587     IErMin= 7 ErrMin= 2.46D-07
 ErrMax= 2.46D-07  0.00D+00 EMaxC= 1.00D-01 BMatC= 2.03D-11 BMatP= 4.20D-11
 IDIUse=1 WtCom= 1.00D+00 WtEn= 0.00D+00
 Coeff-Com:  0.287D-03-0.200D-01-0.228D-01-0.299D-01 0.755D-02 0.522D+00
 Coeff-Com:  0.543D+00
 Coeff:      0.287D-03-0.200D-01-0.228D-01-0.299D-01 0.755D-02 0.522D+00
 Coeff:      0.543D+00
 Gap=     0.143 Goal=   None    Shift=    0.000
 RMSDP=1.87D-08 MaxDP=1.52D-06 DE=-6.64D-11 OVMax= 1.94D-06

 Cycle  17  Pass 1  IDiag  1:
 RMSU=  1.47D-08    CP:  1.00D+00  1.01D+00  5.14D-01  5.63D-01  9.46D-01
                    CP:  9.96D-01  8.58D-01
 E= -981.771958353586     Delta-E=        0.000000000001 Rises=F Damp=F
 DIIS: error= 4.45D-08 at cycle   8 NSaved=   8.
 NSaved= 8 IEnMin= 7 EnMin= -981.771958353587     IErMin= 8 ErrMin= 4.45D-08
 ErrMax= 4.45D-08  0.00D+00 EMaxC= 1.00D-01 BMatC= 1.72D-12 BMatP= 2.03D-11
 IDIUse=1 WtCom= 1.00D+00 WtEn= 0.00D+00
 Coeff-Com:  0.166D-03-0.110D-01-0.125D-01-0.165D-01-0.520D-02 0.237D+00
 Coeff-Com:  0.302D+00 0.506D+00
 Coeff:      0.166D-03-0.110D-01-0.125D-01-0.165D-01-0.520D-02 0.237D+00
 Coeff:      0.302D+00 0.506D+00
 Gap=     0.143 Goal=   None    Shift=    0.000
 RMSDP=6.08D-09 MaxDP=3.52D-07 DE= 9.09D-13 OVMax= 7.29D-07

 SCF Done:  E(RPBE1PBE) =  -981.771958354     A.U. after   17 cycles
            NFock= 17  Conv=0.61D-08     -V/T= 2.0035
 KE= 9.783181691118D+02 PE=-6.517043671410D+03 EE= 2.450214610841D+03
 Leave Link  502 at Mon Mar  6 10:35:20 2023, MaxMem=  1048576000 cpu:             784.4 elap:             789.6
 (Enter /ssoft/spack/external/gaussian/g16-C.01/avx2/g16/l801.exe)
 DoSCS=F DFT=T ScalE2(SS,OS)=  1.000000  1.000000
 Range of M.O.s used for correlation:     1   466
 NBasis=   466 NAE=    87 NBE=    87 NFC=     0 NFV=     0
 NROrb=    466 NOA=    87 NOB=    87 NVA=   379 NVB=   379

 **** Warning!!: The largest alpha MO coefficient is  0.13547929D+02

 Leave Link  801 at Mon Mar  6 10:35:20 2023, MaxMem=  1048576000 cpu:               0.0 elap:               0.0
 (Enter /ssoft/spack/external/gaussian/g16-C.01/avx2/g16/l1101.exe)
 Using compressed storage, NAtomX=    50.
 Will process     51 centers per pass.
   1 Symmetry operations used in ECPInt.
 ECPInt:  NShTT=   24753 NPrTT=   87961 LenC2=   22569 LenP2D=   55354.
 LDataN:  DoStor=T MaxTD1= 5 Len=  102
 R6Disp: Adding Grimme-D3(BJ) dispersion energy 1st derivatives to the gradient.
 Leave Link 1101 at Mon Mar  6 10:35:21 2023, MaxMem=  1048576000 cpu:               1.0 elap:               1.0
 (Enter /ssoft/spack/external/gaussian/g16-C.01/avx2/g16/l1102.exe)
 Symmetrizing basis deriv contribution to polar:
 IMax=3 JMax=2 DiffMx= 0.00D+00
 Leave Link 1102 at Mon Mar  6 10:35:21 2023, MaxMem=  1048576000 cpu:               0.1 elap:               0.1
 (Enter /ssoft/spack/external/gaussian/g16-C.01/avx2/g16/l1110.exe)
 Forming Gx(P) for the SCF density, NAtomX=    50.
 Integral derivatives from FoFJK, PRISM(SPDF).
 Do as many integral derivatives as possible in FoFJK.
 G2DrvN: MDV=    1048570714.
 G2DrvN: will do    51 centers at a time, making    1 passes.
 Calling FoFCou, ICntrl=  3107 FMM=F I1Cent=   0 AccDes= 0.00D+00.
 FoFJK:  IHMeth= 1 ICntrl=    3107 DoSepK=F KAlg= 0 I1Cent=           0 FoldK=F
 IRaf=         0 NMat=       1 IRICut=       1 DoRegI=T DoRafI=F ISym2E= 0 IDoP0=0 IntGTp=1.
 FoFCou: FMM=F IPFlag=           0 FMFlag=      100000 FMFlg1=           0
         NFxFlg=           0 DoJE=F BraDBF=F KetDBF=F FulRan=T
         wScrn=  0.000000 ICntrl=      3107 IOpCl=  0 I1Cent=           0 NGrid=           0
         NMat0=    1 NMatS0=      1 NMatT0=    0 NMatD0=    1 NMtDS0=    0 NMtDT0=    0
 Symmetry not used in FoFCou.
 End of G2Drv F.D. properties file   721 does not exist.
 End of G2Drv F.D. properties file   722 does not exist.
 End of G2Drv F.D. properties file   788 does not exist.
 Leave Link 1110 at Mon Mar  6 11:07:21 2023, MaxMem=  1048576000 cpu:            1913.5 elap:            1919.8
 (Enter /ssoft/spack/external/gaussian/g16-C.01/avx2/g16/l1002.exe)
 Minotr:  Closed shell wavefunction.
          IDoAtm=11111111111111111111111111111111111111111111111111
          Direct CPHF calculation.
          Differentiating once with respect to electric field.
                with respect to dipole field.
          Differentiating once with respect to nuclear coordinates.
          Requested convergence is 1.0D-08 RMS, and 1.0D-07 maximum.
          Secondary convergence is 1.0D-12 RMS, and 1.0D-12 maximum.
          NewPWx=T KeepS1=F KeepF1=F KeepIn=T MapXYZ=F SortEE=F KeepMc=T.
        15097 words used for storage of precomputed grid.
 Two-electron integrals replicated using symmetry.
          MDV=    1048576000 using IRadAn=       1.
          Solving linear equations simultaneously, MaxMat=     384.
 FoF2E skips out because all densities are zero.
 CalDSu exits because no D1Ps are significant.
 FoFJK:  IHMeth= 1 ICntrl=       0 DoSepK=F KAlg= 0 I1Cent=           0 FoldK=F
 IRaf= 810000000 NMat=     150 IRICut=     375 DoRegI=T DoRafI=T ISym2E= 2 IDoP0=3 IntGTp=3.
 FoFCou: FMM=F IPFlag=           0 FMFlag=      100000 FMFlg1=           0
         NFxFlg=           0 DoJE=F BraDBF=F KetDBF=F FulRan=T
         wScrn=  0.000000 ICntrl=         0 IOpCl=  0 I1Cent=           0 NGrid=           0
         NMat0=  150 NMatS0=    150 NMatT0=    0 NMatD0=  150 NMtDS0=    0 NMtDT0=    0
 Integrals replicated using symmetry in FoFCou.
 Raff kept on since  76.77% of shell-pairs survive, threshold=   0.20 IRatSp=77.
          There are   153 degrees of freedom in the 1st order CPHF.  IDoFFX=6 NUNeed=     3.
    150 vectors produced by pass  0 Test12= 3.30D-14 1.00D-09 XBig12= 3.27D+02 7.73D+00.
 AX will form   150 AO Fock derivatives at one time.
    150 vectors produced by pass  1 Test12= 3.30D-14 1.00D-09 XBig12= 5.79D+01 1.37D+00.
    150 vectors produced by pass  2 Test12= 3.30D-14 1.00D-09 XBig12= 5.03D-01 8.83D-02.
    150 vectors produced by pass  3 Test12= 3.30D-14 1.00D-09 XBig12= 1.84D-03 6.00D-03.
    150 vectors produced by pass  4 Test12= 3.30D-14 1.00D-09 XBig12= 4.39D-06 3.18D-04.
    122 vectors produced by pass  5 Test12= 3.30D-14 1.00D-09 XBig12= 5.75D-09 1.01D-05.
     23 vectors produced by pass  6 Test12= 3.30D-14 1.00D-09 XBig12= 5.91D-12 1.71D-07.
      3 vectors produced by pass  7 Test12= 3.30D-14 1.00D-09 XBig12= 6.34D-15 5.49D-09.
      1 vectors produced by pass  8 Test12= 3.30D-14 1.00D-09 XBig12= 4.69D-15 7.12D-09.
 InvSVY:  IOpt=1 It=  1 EMax= 8.88D-15
 Solved reduced A of dimension   899 with   153 vectors.
 FullF1:  Do perturbations      1 to       3.
 Isotropic polarizability for W=    0.000000      234.54 Bohr**3.
 End of Minotr F.D. properties file   721 does not exist.
 End of Minotr F.D. properties file   722 does not exist.
 End of Minotr F.D. properties file   788 does not exist.
 Leave Link 1002 at Mon Mar  6 12:15:50 2023, MaxMem=  1048576000 cpu:            4095.6 elap:            4109.3
 (Enter /ssoft/spack/external/gaussian/g16-C.01/avx2/g16/l601.exe)
 Copying SCF densities to generalized density rwf, IOpCl= 0 IROHF=0.

 **********************************************************************

            Population analysis using the SCF Density.

 **********************************************************************

 Orbital symmetries:
       Occupied  (A) (A) (A) (A) (A) (A) (A) (A) (A) (A) (A) (A)
                 (A) (A) (A) (A) (A) (A) (A) (A) (A) (A) (A) (A)
                 (A) (A) (A) (A) (A) (A) (A) (A) (A) (A) (A) (A)
                 (A) (A) (A) (A) (A) (A) (A) (A) (A) (A) (A) (A)
                 (A) (A) (A) (A) (A) (A) (A) (A) (A) (A) (A) (A)
                 (A) (A) (A) (A) (A) (A) (A) (A) (A) (A) (A) (A)
                 (A) (A) (A) (A) (A) (A) (A) (A) (A) (A) (A) (A)
                 (A) (A) (A)
       Virtual   (A) (A) (A) (A) (A) (A) (A) (A) (A) (A) (A) (A)
                 (A) (A) (A) (A) (A) (A) (A) (A) (A) (A) (A) (A)
                 (A) (A) (A) (A) (A) (A) (A) (A) (A) (A) (A) (A)
                 (A) (A) (A) (A) (A) (A) (A) (A) (A) (A) (A) (A)
                 (A) (A) (A) (A) (A) (A) (A) (A) (A) (A) (A) (A)
                 (A) (A) (A) (A) (A) (A) (A) (A) (A) (A) (A) (A)
                 (A) (A) (A) (A) (A) (A) (A) (A) (A) (A) (A) (A)
                 (A) (A) (A) (A) (A) (A) (A) (A) (A) (A) (A) (A)
                 (A) (A) (A) (A) (A) (A) (A) (A) (A) (A) (A) (A)
                 (A) (A) (A) (A) (A) (A) (A) (A) (A) (A) (A) (A)
                 (A) (A) (A) (A) (A) (A) (A) (A) (A) (A) (A) (A)
                 (A) (A) (A) (A) (A) (A) (A) (A) (A) (A) (A) (A)
                 (A) (A) (A) (A) (A) (A) (A) (A) (A) (A) (A) (A)
                 (A) (A) (A) (A) (A) (A) (A) (A) (A) (A) (A) (A)
                 (A) (A) (A) (A) (A) (A) (A) (A) (A) (A) (A) (A)
                 (A) (A) (A) (A) (A) (A) (A) (A) (A) (A) (A) (A)
                 (A) (A) (A) (A) (A) (A) (A) (A) (A) (A) (A) (A)
                 (A) (A) (A) (A) (A) (A) (A) (A) (A) (A) (A) (A)
                 (A) (A) (A) (A) (A) (A) (A) (A) (A) (A) (A) (A)
                 (A) (A) (A) (A) (A) (A) (A) (A) (A) (A) (A) (A)
                 (A) (A) (A) (A) (A) (A) (A) (A) (A) (A) (A) (A)
                 (A) (A) (A) (A) (A) (A) (A) (A) (A) (A) (A) (A)
                 (A) (A) (A) (A) (A) (A) (A) (A) (A) (A) (A) (A)
                 (A) (A) (A) (A) (A) (A) (A) (A) (A) (A) (A) (A)
                 (A) (A) (A) (A) (A) (A) (A) (A) (A) (A) (A) (A)
                 (A) (A) (A) (A) (A) (A) (A) (A) (A) (A) (A) (A)
                 (A) (A) (A) (A) (A) (A) (A) (A) (A) (A) (A) (A)
                 (A) (A) (A) (A) (A) (A) (A) (A) (A) (A) (A) (A)
                 (A) (A) (A) (A) (A) (A) (A) (A) (A) (A) (A) (A)
                 (A) (A) (A) (A) (A) (A) (A) (A) (A) (A) (A) (A)
                 (A) (A) (A) (A) (A) (A) (A) (A) (A) (A) (A) (A)
                 (A) (A) (A) (A) (A) (A) (A)
 The electronic state is 1-A.
 Alpha  occ. eigenvalues --  -18.95724 -14.22440 -10.13561 -10.12962 -10.11416
 Alpha  occ. eigenvalues --  -10.11337 -10.10699 -10.10622 -10.10108 -10.10067
 Alpha  occ. eigenvalues --  -10.09978 -10.09872 -10.09844 -10.08505 -10.08105
 Alpha  occ. eigenvalues --  -10.08089 -10.07898 -10.07738 -10.07709 -10.07332
 Alpha  occ. eigenvalues --  -10.06707 -10.05067 -10.05007 -10.03922  -0.81346
 Alpha  occ. eigenvalues --   -0.79542  -0.76701  -0.74199  -0.74155  -0.72068
 Alpha  occ. eigenvalues --   -0.69632  -0.66124  -0.64870  -0.63532  -0.63512
 Alpha  occ. eigenvalues --   -0.62989  -0.60661  -0.58682  -0.55670  -0.53767
 Alpha  occ. eigenvalues --   -0.52357  -0.50894  -0.48950  -0.46288  -0.45124
 Alpha  occ. eigenvalues --   -0.44553  -0.41059  -0.40634  -0.39105  -0.38501
 Alpha  occ. eigenvalues --   -0.37641  -0.36970  -0.36227  -0.35868  -0.35006
 Alpha  occ. eigenvalues --   -0.34908  -0.34622  -0.34310  -0.33303  -0.32828
 Alpha  occ. eigenvalues --   -0.32769  -0.31555  -0.30342  -0.30084  -0.29100
 Alpha  occ. eigenvalues --   -0.27921  -0.27009  -0.26486  -0.26151  -0.25973
 Alpha  occ. eigenvalues --   -0.25092  -0.24877  -0.24114  -0.24020  -0.23629
 Alpha  occ. eigenvalues --   -0.23026  -0.22260  -0.21493  -0.19353  -0.17640
 Alpha  occ. eigenvalues --   -0.16263  -0.15666  -0.14077  -0.10195  -0.09579
 Alpha  occ. eigenvalues --   -0.04321  -0.03209
 Alpha virt. eigenvalues --    0.11086   0.12086   0.12871   0.16843   0.17870
 Alpha virt. eigenvalues --    0.18060   0.19198   0.20649   0.20981   0.21628
 Alpha virt. eigenvalues --    0.22269   0.22683   0.23621   0.23804   0.24151
 Alpha virt. eigenvalues --    0.24594   0.25512   0.26445   0.26893   0.27118
 Alpha virt. eigenvalues --    0.28020   0.28552   0.28728   0.29531   0.29815
 Alpha virt. eigenvalues --    0.30038   0.30390   0.31177   0.31260   0.31693
 Alpha virt. eigenvalues --    0.32195   0.32665   0.33395   0.33785   0.35197
 Alpha virt. eigenvalues --    0.35966   0.37672   0.37873   0.38498   0.38941
 Alpha virt. eigenvalues --    0.39925   0.40532   0.41512   0.42212   0.42822
 Alpha virt. eigenvalues --    0.44149   0.44406   0.45282   0.46604   0.47033
 Alpha virt. eigenvalues --    0.47477   0.48504   0.49264   0.50512   0.50876
 Alpha virt. eigenvalues --    0.51693   0.52146   0.53539   0.54236   0.54423
 Alpha virt. eigenvalues --    0.56200   0.56646   0.57340   0.58065   0.58265
 Alpha virt. eigenvalues --    0.59067   0.59466   0.60699   0.60890   0.61022
 Alpha virt. eigenvalues --    0.61572   0.62139   0.63865   0.64460   0.64668
 Alpha virt. eigenvalues --    0.64795   0.65882   0.67133   0.67777   0.68407
 Alpha virt. eigenvalues --    0.68968   0.70559   0.71187   0.71758   0.72033
 Alpha virt. eigenvalues --    0.73343   0.73365   0.75245   0.76110   0.76192
 Alpha virt. eigenvalues --    0.77116   0.77615   0.78476   0.78887   0.79655
 Alpha virt. eigenvalues --    0.79954   0.80194   0.80586   0.81246   0.81957
 Alpha virt. eigenvalues --    0.82069   0.82655   0.83114   0.83293   0.83677
 Alpha virt. eigenvalues --    0.84061   0.84463   0.84963   0.85586   0.86035
 Alpha virt. eigenvalues --    0.86485   0.86617   0.87009   0.87380   0.87510
 Alpha virt. eigenvalues --    0.88114   0.88387   0.88565   0.89602   0.89762
 Alpha virt. eigenvalues --    0.89885   0.90715   0.90816   0.91128   0.91411
 Alpha virt. eigenvalues --    0.92203   0.92627   0.92803   0.93416   0.94040
 Alpha virt. eigenvalues --    0.94483   0.94759   0.95108   0.95173   0.95672
 Alpha virt. eigenvalues --    0.95823   0.96117   0.96498   0.97727   0.97803
 Alpha virt. eigenvalues --    0.98663   0.98897   1.00116   1.01350   1.02907
 Alpha virt. eigenvalues --    1.03450   1.04517   1.05803   1.07248   1.08737
 Alpha virt. eigenvalues --    1.08945   1.11949   1.12446   1.14545   1.16405
 Alpha virt. eigenvalues --    1.17086   1.17239   1.18690   1.20441   1.21738
 Alpha virt. eigenvalues --    1.21965   1.22563   1.24785   1.25207   1.25650
 Alpha virt. eigenvalues --    1.28998   1.29240   1.29789   1.31861   1.33455
 Alpha virt. eigenvalues --    1.34699   1.36918   1.37546   1.38824   1.39520
 Alpha virt. eigenvalues --    1.40032   1.40639   1.41386   1.42262   1.42758
 Alpha virt. eigenvalues --    1.44665   1.45053   1.46074   1.47288   1.48750
 Alpha virt. eigenvalues --    1.49828   1.50491   1.51950   1.52713   1.53729
 Alpha virt. eigenvalues --    1.55636   1.55778   1.56318   1.58442   1.60049
 Alpha virt. eigenvalues --    1.60825   1.63790   1.64686   1.67354   1.69935
 Alpha virt. eigenvalues --    1.71281   1.71965   1.72975   1.75455   1.75624
 Alpha virt. eigenvalues --    1.75979   1.76254   1.77184   1.79490   1.80454
 Alpha virt. eigenvalues --    1.82706   1.83174   1.83889   1.84223   1.84956
 Alpha virt. eigenvalues --    1.85350   1.85811   1.86480   1.87444   1.90213
 Alpha virt. eigenvalues --    1.91330   1.91659   1.92400   1.92883   1.93285
 Alpha virt. eigenvalues --    1.93900   1.94980   1.96241   1.96622   1.98471
 Alpha virt. eigenvalues --    1.98981   2.01233   2.01732   2.02278   2.02689
 Alpha virt. eigenvalues --    2.03215   2.03576   2.03732   2.04041   2.04296
 Alpha virt. eigenvalues --    2.04689   2.05527   2.05885   2.06246   2.06468
 Alpha virt. eigenvalues --    2.06676   2.07466   2.07742   2.08182   2.09164
 Alpha virt. eigenvalues --    2.09509   2.10111   2.11341   2.13738   2.14718
 Alpha virt. eigenvalues --    2.15424   2.16812   2.17420   2.19041   2.19221
 Alpha virt. eigenvalues --    2.20116   2.21533   2.21765   2.23194   2.24072
 Alpha virt. eigenvalues --    2.25121   2.25251   2.25515   2.26827   2.27290
 Alpha virt. eigenvalues --    2.29037   2.30149   2.31226   2.32095   2.34040
 Alpha virt. eigenvalues --    2.34848   2.35982   2.36140   2.36717   2.37110
 Alpha virt. eigenvalues --    2.37591   2.38971   2.39426   2.41689   2.42315
 Alpha virt. eigenvalues --    2.43556   2.44687   2.45599   2.46929   2.47876
 Alpha virt. eigenvalues --    2.49649   2.50130   2.50544   2.51490   2.52689
 Alpha virt. eigenvalues --    2.54179   2.55757   2.56484   2.56849   2.58086
 Alpha virt. eigenvalues --    2.58718   2.59549   2.60564   2.61311   2.62514
 Alpha virt. eigenvalues --    2.64090   2.65742   2.69564   2.70782   2.71078
 Alpha virt. eigenvalues --    2.71600   2.71878   2.72452   2.75148   2.76227
 Alpha virt. eigenvalues --    2.76733   2.77729   2.78385   2.78947   2.79739
 Alpha virt. eigenvalues --    2.83144   2.85257   2.85977   2.88757   2.90014
 Alpha virt. eigenvalues --    2.90496   2.91853   2.92533   2.92875   2.93129
 Alpha virt. eigenvalues --    2.94411   2.95299   2.95699   2.98205   2.99516
 Alpha virt. eigenvalues --    3.00189   3.02991   3.05682   3.08349   3.09897
 Alpha virt. eigenvalues --    3.11208   3.18975   3.19575   3.20569   3.26783
 Alpha virt. eigenvalues --    3.26927   3.28562   3.29538   3.30265   3.30499
 Alpha virt. eigenvalues --    3.31476   3.31898   3.32273   3.33264   3.34859
 Alpha virt. eigenvalues --    3.36635   3.36711   3.36947   3.38158   3.39332
 Alpha virt. eigenvalues --    3.40466   3.42371   3.42534   3.43036   3.45938
 Alpha virt. eigenvalues --    3.46284   3.47130   3.48106   3.48988   3.50742
 Alpha virt. eigenvalues --    3.52403   3.55298   3.56533   3.58032   3.59763
 Alpha virt. eigenvalues --    3.75058   3.79305   4.00087   4.06042
     Molecular Orbital Coefficients:
                          83        84        85        86        87
                           O         O         O         O         O
     Eigenvalues --    -0.14077  -0.10195  -0.09579  -0.04321  -0.03209
   1 1   N  1S         -0.00314  -0.00554  -0.07255  -0.03388   0.00052
   2        2S         -0.00639  -0.01123  -0.14985  -0.07580   0.00111
   3        3S         -0.00936  -0.01669  -0.19747  -0.12654  -0.00758
   4        4PX        -0.00485  -0.02088  -0.05955  -0.02914   0.01094
   5        4PY        -0.00670   0.25770  -0.08916  -0.02687  -0.16265
   6        4PZ         0.01612   0.07026   0.36851   0.14435  -0.02862
   7        5PX         0.00209   0.01228   0.03065  -0.00070  -0.00556
   8        5PY         0.00383  -0.19165   0.06511   0.00919   0.13891
   9        5PZ        -0.01050  -0.05072  -0.27474  -0.07235   0.02737
  10        6D 0        0.00028   0.00440   0.01019   0.00489  -0.00139
  11        6D+1       -0.00063  -0.00010   0.00040  -0.00481   0.00061
  12        6D-1       -0.00125   0.01065  -0.00517  -0.00266  -0.00430
  13        6D+2        0.00005   0.00229   0.00506   0.00226  -0.00119
  14        6D-2       -0.00051   0.00232   0.00067   0.00120   0.00194
  15 2   O  1S          0.00069   0.00025   0.00887   0.00557   0.00059
  16        2S          0.00137   0.00051   0.01893   0.00805   0.00107
  17        3S          0.00219   0.00087   0.02736   0.05583   0.00508
  18        4PX        -0.00173  -0.00601  -0.11933   0.48112  -0.02378
  19        4PY         0.00105   0.02951  -0.03238   0.10629   0.37547
  20        4PZ         0.00573   0.01004   0.11029  -0.29229   0.08156
  21        5PX        -0.00151  -0.00504  -0.09439   0.34475  -0.02047
  22        5PY         0.00052   0.01967  -0.02361   0.08047   0.29919
  23        5PZ         0.00375   0.00715   0.07801  -0.23026   0.06462
  24        6D 0       -0.00019  -0.00075  -0.00341   0.01113  -0.00306
  25        6D+1       -0.00001   0.00007   0.00177  -0.00431  -0.00068
  26        6D-1       -0.00003  -0.00135   0.00122  -0.00312  -0.00773
  27        6D+2       -0.00000  -0.00018   0.00135  -0.00784  -0.00108
  28        6D-2       -0.00005  -0.00062  -0.00034  -0.00019  -0.00594
  29 3   C  1S          0.00041   0.00092   0.00593   0.00090   0.00039
  30        2S         -0.00082  -0.00279  -0.01117  -0.00387  -0.00125
  31        3S         -0.00215   0.00353  -0.08289   0.23465   0.00412
  32        4PX        -0.00204  -0.00346   0.01200  -0.08984   0.00436
  33        4PY         0.00149   0.02504   0.00505  -0.02006  -0.06121
  34        4PZ        -0.00049   0.00863  -0.01415   0.05055  -0.01241
  35        5PX        -0.00336   0.00080  -0.06207   0.08027  -0.00334
  36        5PY         0.00166   0.01173  -0.01384   0.06211   0.04900
  37        5PZ         0.00163  -0.00105   0.04220  -0.22714   0.00190
  38        6D 0        0.00001  -0.00301   0.00849  -0.03542   0.01124
  39        6D+1       -0.00025   0.00356  -0.00670   0.01309   0.00336
  40        6D-1       -0.00005  -0.00635  -0.00172   0.01064   0.02655
  41        6D+2       -0.00016  -0.00385  -0.00587   0.02339   0.00369
  42        6D-2        0.00039   0.01260  -0.00018   0.00006   0.02054
  43 4   C  1S         -0.00004  -0.00022   0.00866  -0.04644  -0.00014
  44        2S         -0.00001   0.00042  -0.02339   0.11216  -0.00105
  45        3S         -0.00229   0.00027  -0.07922   0.26691   0.00576
  46        4PX         0.00159   0.01991  -0.03508   0.16885   0.02095
  47        4PY        -0.00409  -0.23772   0.01632   0.01581  -0.23812
  48        4PZ        -0.00139  -0.06314  -0.00407   0.01999  -0.06104
  49        5PX         0.00083   0.01638  -0.01084   0.07099   0.02169
  50        5PY        -0.00312  -0.16901   0.01337   0.00116  -0.23504
  51        5PZ        -0.00108  -0.04187  -0.00300   0.03900  -0.05900
  52        6D 0        0.00006   0.00377   0.00062  -0.00317   0.00147
  53        6D+1        0.00007   0.00149   0.00056   0.00026  -0.00080
  54        6D-1        0.00023   0.00759  -0.00071   0.00131   0.00310
  55        6D+2        0.00006   0.00086  -0.00006  -0.00042   0.00121
  56        6D-2        0.00018   0.00766  -0.00056  -0.00035  -0.00241
  57 5   H  1S         -0.00072  -0.00058  -0.00137  -0.01215   0.00039
  58        2S          0.00058  -0.00063   0.03299  -0.14064  -0.00320
  59        3PX         0.00006   0.00080  -0.00016   0.00199   0.00069
  60        3PY        -0.00014  -0.00969   0.00068   0.00062  -0.00884
  61        3PZ        -0.00001  -0.00259   0.00023  -0.00074  -0.00246
  62 6   C  1S         -0.00014  -0.00025  -0.00765   0.01459   0.00011
  63        2S          0.00024   0.00104   0.01768  -0.03492  -0.00095
  64        3S          0.00264   0.00517   0.05842  -0.06553  -0.01011
  65        4PX         0.00022   0.02273   0.02025  -0.05034  -0.00043
  66        4PY        -0.00662  -0.25164   0.01619   0.00928  -0.00342
  67        4PZ        -0.00179  -0.06794   0.00495  -0.03061  -0.00254
  68        5PX         0.00117   0.01765   0.01274  -0.00747   0.00159
  69        5PY        -0.00422  -0.19618   0.01094   0.01821  -0.01865
  70        5PZ        -0.00154  -0.05198   0.00766  -0.05012  -0.00134
  71        6D 0       -0.00009  -0.00418   0.00192  -0.00564  -0.00928
  72        6D+1       -0.00009  -0.00020  -0.00037   0.00194   0.00086
  73        6D-1       -0.00000  -0.00860   0.00029   0.00233  -0.01821
  74        6D+2        0.00007  -0.00188  -0.00111   0.00429  -0.00486
  75        6D-2       -0.00011  -0.00363   0.00008   0.00022  -0.00274
  76 7   H  1S          0.00071  -0.00041  -0.01476   0.04298   0.00081
  77        2S          0.00049  -0.00102  -0.02197   0.06939   0.00282
  78        3PX         0.00002   0.00092   0.00026  -0.00125  -0.00000
  79        3PY        -0.00027  -0.01040   0.00062   0.00046   0.00030
  80        3PZ        -0.00006  -0.00280   0.00032  -0.00127   0.00000
  81 8   C  1S         -0.00120  -0.00072  -0.03025   0.03451   0.00093
  82        2S          0.00285   0.00278   0.07318  -0.08650  -0.00364
  83        3S          0.01092  -0.00894   0.24317  -0.28993   0.03067
  84        4PX         0.00734  -0.01044   0.07641   0.06911   0.01464
  85        4PY         0.00394   0.23836  -0.02702   0.04300  -0.22918
  86        4PZ         0.00328   0.06038   0.04347  -0.14680  -0.06388
  87        5PX         0.01004  -0.00600   0.11443   0.23864   0.02419
  88        5PY        -0.00036   0.18074  -0.02699   0.08232  -0.24086
  89        5PZ         0.00216   0.04397   0.06363  -0.25659  -0.08364
  90        6D 0       -0.00026  -0.00484  -0.00212  -0.00157  -0.00066
  91        6D+1       -0.00011  -0.00126   0.00042   0.00263   0.00006
  92        6D-1        0.00005  -0.00905   0.00139   0.00020  -0.00108
  93        6D+2        0.00014  -0.00143   0.00066   0.00329  -0.00006
  94        6D-2        0.00013  -0.00763   0.00043   0.00021  -0.00119
  95 9   C  1S         -0.00055  -0.00053  -0.00176   0.00109   0.00026
  96        2S          0.00127   0.00031   0.00355  -0.00659  -0.00014
  97        3S         -0.00155  -0.00356  -0.03254  -0.08725   0.01225
  98        4PX         0.00316  -0.00080   0.00127   0.02200  -0.02040
  99        4PY        -0.00313   0.02628  -0.00823  -0.00025   0.26863
 100        4PZ        -0.00075   0.00794   0.00930  -0.01370   0.07558
 101        5PX         0.00081  -0.00324  -0.01270  -0.00785  -0.01994
 102        5PY        -0.00229   0.02284  -0.00153   0.00014   0.25875
 103        5PZ        -0.00244   0.00339  -0.01242  -0.01981   0.08437
 104        6D 0       -0.00016  -0.00406   0.00099  -0.00212  -0.00068
 105        6D+1       -0.00016   0.00476  -0.00289  -0.00092   0.00094
 106        6D-1       -0.00021  -0.00787   0.00010   0.00077  -0.00135
 107        6D+2       -0.00011  -0.00460  -0.00078   0.00155  -0.00063
 108        6D-2        0.00021   0.01431  -0.00044   0.00010   0.00234
 109 10  H  1S         -0.00149  -0.00007  -0.01231  -0.00565   0.00020
[...]
 ,0.00004731,0.00004056,-0.00000262,0.00000705,0.00000081,0.00000168,-0
 .00000063,-0.00000054,0.00000521,-0.00000244,0.00000221,-0.00000268,0.
 00000062,-0.00000182,0.00000149,-0.00000355,0.00000220,0.00000075,0.00
 000303,-0.00000732,0.00001765,-0.00001645,-0.00000400,0.00000034,0.000
 00355,0.00000478,0.00000012,-0.00000630,-0.05712230,-0.24497183,-0.343
 69559,-0.00654552,-0.01621102,-0.03489985,0.05712044,0.24768205,-0.000
 15948,0.00057653,0.00021528,0.00021759,0.00001149,0.00007065,-0.000197
 03,0.00001285,0.00002154,0.00007326,-0.00005401,-0.00000684,0.00000155
 ,0.00000595,-0.00000822,-0.00012045,-0.00003179,0.00003333,-0.00000479
 ,0.00000360,-0.00000207,-0.00008008,0.00021813,0.00005633,0.00001506,0
 .00014081,0.00001286,-0.00000391,0.00000487,-0.00000395,0.00010785,-0.
 00005186,-0.00001696,0.00025411,-0.00037276,-0.00008201,-0.00004510,0.
 00000375,-0.00000267,0.00001266,-0.00000813,-0.00002705,0.00000919,-0.
 00000770,0.00001694,0.00001604,-0.00001185,-0.00001916,-0.00000653,0.0
 0000587,0.00000537,-0.00001495,0.00001020,-0.00000316,0.00000230,-0.00
 000427,0.00000108,0.00000616,-0.00000005,-0.00000192,-0.00000470,0.000
 00272,0.00000731,-0.00013503,-0.00112090,-0.00013712,-0.00231479,0.000
 74397,0.00019623,-0.00030939,0.00037317,0.00004187,-0.00006078,-0.0000
 6412,0.00000924,0.00013597,0.00008580,-0.00020803,0.00001870,-0.000022
 97,-0.00003153,-0.00002445,-0.00027128,-0.00009543,-0.00001639,-0.0000
 0653,0.00000611,0.00016113,0.00022156,0.00017497,0.00033875,-0.0048026
 0,-0.00868289,0.00104996,0.00025475,0.00070881,0.00002258,0.00007389,-
 0.00001251,-0.00001701,0.00024774,0.00004794,-0.00012747,-0.00017997,0
 .00038227,0.00000083,-0.00006018,0.00002523,-0.00000358,0.00000946,-0.
 00001464,0.00000772,0.00002654,-0.00003910,0.00000458,-0.00000308,0.00
 001498,-0.00001191,0.00000471,-0.00001742,0.00000653,-0.00000747,0.000
 01006,-0.00000910,0.00003101,-0.00003606,-0.00000730,-0.00001394,0.000
 01518,0.00000433,0.00000729,-0.00002080,-0.07251083,-0.34539627,-0.462
 56634,0.00235888,0.01219551,0.01226159,0.08058118,0.35587356,0.4745274
 6,0.00042218,-0.00021421,0.00001806,0.00007479,-0.00007846,0.00001460,
 -0.00008048,0.00002670,0.00002784,0.00001146,0.00000111,-0.00001324,-0
 .00000297,-0.00000081,0.00000266,0.00003709,-0.00000124,-0.00000993,0.
 00000552,-0.00000296,0.00000064,0.00013768,-0.00010700,-0.00003011,0.0
 0004284,-0.00007585,-0.00002220,0.00000730,-0.00000766,0.00000187,-0.0
 0013571,0.00001752,0.00002226,-0.00035507,0.00027222,0.00010951,0.0001
 0087,-0.00003829,-0.00003647,0.00004800,0.00003768,0.00003214,-0.00001
 746,0.00001724,-0.00001950,-0.00000157,0.00001187,0.00000843,0.0000098
 5,0.00000732,-0.00001110,0.00000721,0.00001883,0.00001196,-0.00001361,
 -0.00004525,-0.00000655,0.00003512,0.00001503,0.00001265,-0.00000707,0
 .00000469,-0.00002253,-0.00003772,0.00016309,-0.00020930,0.00157575,0.
 00014650,0.00190985,0.00034961,-0.00041690,-0.00027720,0.00001465,0.00
 006868,0.00001222,-0.00006259,-0.00009219,0.00016216,-0.00001003,0.000
 00882,-0.00000421,-0.00002131,0.00016119,0.00006746,0.00001968,0.00000
 865,-0.00000381,-0.00012579,-0.00004718,-0.00020827,-0.02197377,-0.009
 75752,0.02341631,-0.00694118,0.00174234,-0.00347123,0.00035900,0.00008
 684,-0.00033606,-0.00146795,-0.00081960,0.00160119,0.00046299,0.000199
 50,-0.00029527,-0.00000705,0.00002273,-0.00003332,-0.00000232,-0.00000
 596,0.00000702,-0.00000507,-0.00001115,0.00002371,-0.00000183,0.000003
 40,-0.00000663,0.00000645,-0.00000359,0.00001000,-0.00000277,0.0000021
 5,-0.00000637,0.00000181,-0.00001565,0.00001730,0.00001005,0.00000428,
 -0.00001471,-0.00000133,-0.00000634,0.00001100,-0.29748938,-0.12455414
 ,0.35009824,0.00535033,0.00465626,-0.00904249,0.00532183,0.00193114,-0
 .00962677,0.31292114,-0.00028297,-0.00028284,-0.00024996,-0.00019729,0
 .00005574,-0.00006253,0.00017277,-0.00002764,-0.00003765,-0.00004618,0
 .00003600,0.00001380,0.00000272,-0.00000223,0.00000233,0.00003263,0.00
 001554,-0.00001033,-0.00000202,0.00000271,0.00000098,-0.00004174,-0.00
 003863,-0.00000962,-0.00003548,-0.00000924,0.00000851,-0.00000302,0.00
 000061,0.00000212,0.00003408,-0.00000611,-0.00001326,0.00006301,-0.000
 02179,-0.00002739,-0.00001809,-0.00000120,0.00003454,0.00000059,0.0000
 0316,0.00002034,-0.00000206,0.00000475,-0.00000756,-0.00000747,-0.0000
 0559,0.00000761,-0.00000492,-0.00000379,-0.00000049,-0.00000408,-0.000
 00492,0.00000107,0.00000328,0.00000490,-0.00000330,-0.00000494,-0.0000
 0457,0.00000085,0.00000140,0.00000168,0.00000106,-0.00002383,0.0005773
 8,-0.00008875,-0.00029601,0.00026771,0.00026041,0.00019279,-0.00022159
 ,0.00024981,-0.00019686,0.00000359,0.00007331,0.00014147,-0.00005417,-
 0.00026930,-0.00002672,-0.00000156,0.00000729,-0.00000065,-0.00008054,
 0.00003817,-0.00001995,-0.00000403,0.00000294,0.00003720,0.00002251,0.
 00000487,0.00439990,0.00021552,-0.00523847,0.00097722,0.00035423,0.000
 19545,0.00038478,0.00028236,-0.00014151,0.00022006,0.00060030,0.000042
 50,-0.00014628,-0.00010679,0.00037840,-0.00000768,0.00002309,-0.000006
 51,0.00000618,-0.00000772,0.00001740,0.00000023,-0.00001856,0.00001444
 ,-0.00000453,-0.00000171,-0.00000794,0.00000508,0.00000008,0.00000829,
 0.00000012,0.00000547,-0.00000251,0.00000390,-0.00002588,0.00001526,0.
 00000264,0.00001782,-0.00000405,0.00000153,-0.00000089,0.00001181,-0.1
 2275072,-0.04216102,0.13548500,-0.02925898,-0.00499091,0.02873438,0.01
 999077,0.00763730,-0.01874796,0.12650674,0.03774355,0.00025300,-0.0002
 5393,-0.00003039,-0.00011325,-0.00003108,-0.00002301,0.00010015,0.0000
 0156,-0.00001527,-0.00004123,0.00003447,0.00000543,-0.00000242,-0.0000
 0378,0.00000383,0.00008390,0.00002175,-0.00002115,0.00000461,-0.000003
 50,0.00000024,0.00008280,-0.00015536,-0.00002094,0.00000219,-0.0001070
 1,-0.00000807,0.00000376,-0.00000450,0.00000050,-0.00010902,0.00004316
 ,0.00001972,-0.00023230,0.00030497,0.00008154,0.00006308,-0.00001202,-
 0.00002015,-0.00000770,-0.00000745,0.00001369,-0.00000895,0.00000522,-
 0.00000850,-0.00000608,0.00001348,0.00000763,0.00000693,-0.00000182,-0
 .00000261,0.00000762,-0.00000414,-0.00000069,-0.00000499,-0.00000775,-
 0.00000065,0.00000617,0.00000366,0.00000508,0.00000188,-0.00000034,-0.
 00000833,-0.00000480,0.00035231,0.00024420,-0.00088425,-0.00068036,0.0
 0102548,0.00025719,-0.00000218,0.00007228,-0.00004929,0.00000978,0.000
 01494,0.00006825,-0.00003262,0.00004294,-0.00000826,0.00001534,0.00001
 058,-0.00002220,0.00013817,0.00005502,-0.00000452,0.00000507,0.0000036
 9,0.00005204,-0.00014844,-0.00016111,-0.01429749,-0.00545703,0.0110638
 9,-0.00355478,0.00039087,-0.00046468,0.00003482,-0.00000219,-0.0002632
 9,-0.00068929,-0.00010115,0.00082305,-0.00014101,0.00020568,0.00010594
 ,-0.00002244,0.00003662,-0.00001351,0.00000033,-0.00000328,0.00000500,
 -0.00000379,-0.00001538,0.00002244,-0.00000249,0.00000380,-0.00000659,
 0.00000791,-0.00000339,0.00001116,-0.00000370,0.00000294,-0.00000684,0
 .00000438,-0.00002051,0.00002331,0.00000826,0.00000657,-0.00001421,-0.
 00000118,-0.00000419,0.00001455,0.34692728,0.13579717,-0.37350079,0.00
 440361,-0.00340384,-0.00502166,0.02148888,0.01312810,-0.01711071,-0.35
 455665,-0.13998972,0.38261718,-0.00043687,-0.00010996,-0.00095357,-0.0
 0053787,0.00024570,-0.00017597,0.00061359,-0.00005561,-0.00014055,-0.0
 0016438,0.00010769,0.00007444,-0.00000315,-0.00000972,-0.00000735,0.00
 018195,0.00006742,-0.00003348,0.00000202,-0.00000537,0.00000091,-0.000
 06139,-0.00007323,0.00005636,-0.00004873,-0.00018621,-0.00001050,0.000
 00281,-0.00000608,-0.00000074,-0.00014383,0.00012533,0.00003178,-0.000
 30118,0.00048099,-0.00079989,-0.00020909,0.00008901,0.00011439,-0.0001
 9967,-0.00014966,-0.00005439,0.00008444,-0.00004636,0.00003396,-0.0000
 3376,0.00001189,0.00004262,0.00002591,-0.00002600,0.00001129,-0.000028
 23,-0.00004794,-0.00005258,-0.00001199,0.00002437,0.00004436,-0.000001
 13,0.00001023,0.00001100,0.00003300,0.00000184,0.00002144,0.00045198,0
 .00047508,-0.00011546,-0.00056723,-0.00641647,0.00062741,0.00104798,-0
 .00011736,-0.00130384,-0.00029923,0.00002586,0.00010125,0.00031488,-0.
 00026855,0.00004826,-0.00009000,-0.00004116,-0.00006455,0.00002414,0.0
 0007254,-0.00001048,-0.00002568,0.00001307,-0.00000031,0.00000766,-0.0
 0009939,0.00003967,-0.01316851,0.08608293,-0.01028935,0.00031263,-0.03
 045508,0.00709148,-0.00378583,-0.00173990,0.00470109,0.00112370,-0.000
 20236,-0.00120934,0.00141533,0.00086189,-0.00099524,0.00001291,0.00000
 060,0.00001772,0.00000087,0.00000936,-0.00001385,0.00000123,0.00001175
 ,-0.00000440,0.00000150,0.00000338,0.00000756,-0.00000121,-0.00000057,
 -0.00000241,-0.00000541,-0.00000686,-0.00000083,0.00000226,0.00000058,
 0.00000044,-0.00000398,0.00000135,0.00000260,-0.00000052,0.00000087,-0
 .00000029,-0.01094769,0.03776756,-0.00781874,-0.00743079,0.00039981,-0
 .00256079,0.00254509,-0.00044577,0.00040526,0.00142758,0.00020597,0.00
 090114,0.02887870,0.00111775,0.00014596,0.00295916,-0.00024838,0.00017
 811,-0.00016936,0.00036723,-0.00010754,-0.00001245,-0.00008291,0.00003
 508,0.00001670,0.00000384,-0.00000504,0.00000201,0.00005692,0.00001620
 ,-0.00000020,-0.00000437,0.,-0.00000140,-0.00027077,0.00012485,-0.0002
 1037,-0.00005278,-0.00002536,0.00000557,-0.00000144,0.00000270,0.00000
 482,0.00007813,0.00000612,-0.00004702,0.00065268,-0.00004711,0.0018674
 4,-0.00018164,-0.00008575,-0.00015086,-0.00019231,-0.00006132,-0.00010
 253,-0.00000502,-0.00002240,0.00002607,-0.00000575,0.00003191,0.000016
 07,0.00000504,-0.00002442,-0.00000019,0.00000978,-0.00003866,-0.000018
 43,-0.00001820,0.00002983,0.00002734,-0.00001749,-0.00000426,0.0000018
 2,0.00001630,-0.00000039,0.00000421,0.00029034,-0.00114107,0.00159232,
 0.00144683,-0.01426169,-0.00043478,-0.00060754,0.00003125,-0.00249708,
 -0.00001280,0.00022724,0.00014768,0.00011931,-0.00055729,0.00032795,0.
 00004155,-0.00005596,-0.00019217,-0.00006812,0.00007436,-0.00006721,-0
 .00000116,0.00001657,-0.00002211,0.00004340,-0.00031658,-0.00005131,0.
 08558308,-0.63305685,0.07470457,0.00082926,-0.00669561,0.00072849,-0.0
 0116331,0.00114057,0.00093583,-0.00001971,0.00038632,-0.00039772,0.000
 26291,0.00079763,-0.00000013,0.00003459,0.00000830,0.00011514,0.000001
 04,0.00004640,-0.00003479,0.00000294,0.00001572,-0.00000396,0.00000409
 ,0.00000134,0.00001189,-0.00000266,0.00000310,-0.00000578,-0.00000023,
 -0.00000787,0.00000043,-0.00000196,0.00003184,-0.00001205,-0.00000515,
 -0.00000580,0.00000317,0.00000479,0.00000281,-0.00000923,-0.00130555,0
 .00087588,-0.00074504,-0.00027112,0.00147252,-0.00018013,0.00001026,0.
 00090329,0.00009775,0.00015416,0.00021049,-0.00006854,-0.08659002,0.64
 970449,0.00120672,0.00130050,-0.00077079,-0.00024357,-0.00010667,0.000
 18042,0.00021771,0.00002693,-0.00014285,-0.00013931,0.00017154,0.00001
 058,-0.00001528,-0.00000831,0.00002011,0.00038813,0.00009579,-0.000122
 29,0.00002469,-0.00001193,0.00000133,0.00062106,-0.00103414,0.00004561
 ,0.00008524,-0.00054748,-0.00002979,0.00001611,-0.00002446,-0.00000818
 ,-0.00067224,0.00024981,0.00013198,-0.00311639,0.00228899,-0.00101497,
 0.00005532,0.00009973,-0.00008388,0.00003103,0.00000380,0.00000008,0.0
 0005527,-0.00006727,0.00001671,0.00005313,0.00003355,-0.00000950,0.000
 04002,0.00000958,-0.00001677,0.00005680,0.00001980,0.00003979,-0.00000
 429,-0.00002460,-0.00001160,0.00000551,0.00001717,-0.00001018,-0.00000
 832,-0.00001267,-0.00003009,-0.00033938,-0.00177028,0.00067194,0.00483
 323,-0.03788265,0.00084443,-0.00084963,-0.00152488,-0.00694237,0.00011
 621,0.00024705,0.00027759,0.00007888,-0.00146547,0.00047494,-0.0001075
 4,-0.00022855,-0.00049313,-0.00002278,-0.00008527,-0.00006445,0.000017
 24,0.00006162,-0.00003378,-0.00002004,-0.00001265,0.00055254,-0.010640
 57,0.07703885,-0.01114303,-0.00039946,0.02824855,-0.00692472,0.0042883
 8,0.00133817,-0.00341398,-0.00079260,-0.00086208,0.00136243,-0.0012482
 7,0.00000916,0.00088055,0.00001392,-0.00000910,0.00009676,-0.00000442,
 0.00004210,-0.00006814,0.00000329,0.00003436,-0.00002966,0.00000779,0.
 00000922,0.00002719,-0.00000602,0.00000041,-0.00001432,-0.00000272,-0.
 00001969,0.00000064,-0.00000654,0.00004615,-0.00002031,-0.00000713,-0.
 00001910,0.00000472,0.00000246,0.00000293,-0.00001570,-0.00422870,0.01
 252452,-0.00320012,-0.00273031,0.00014680,-0.00010373,0.00049296,0.000
 52120,0.00027048,0.00067041,-0.00070303,0.00043380,0.01223009,-0.07817
 496,0.02834735,-0.00006579,-0.00008454,0.00027358,0.00010091,-0.000018
 86,-0.00003200,-0.00009618,0.00000313,0.00001296,0.00003504,-0.0000320
 2,-0.00000961,0.00000042,0.00000216,0.00000040,-0.00005184,-0.00001459
 ,0.00001164,-0.00000152,0.00000043,0.00000087,-0.00002827,0.00006503,0
 .00001705,-0.00000002,0.00005847,-0.00000073,-0.00000174,0.00000337,0.
 00000059,0.00006675,-0.00002479,-0.00001371,0.00023364,-0.00011469,-0.
 00005020,0.00002991,-0.00000387,-0.00002580,-0.00000146,0.00000182,0.0
 0000864,0.00002984,0.00002161,-0.00002690,0.00000212,-0.00000307,0.000
 00641,-0.00000517,0.00000164,-0.00000024,-0.00000513,0.00000108,-0.000
 00189,0.00000059,0.00000012,-0.00000155,-0.00000038,-0.00000205,0.0000
 0246,-0.00000009,0.00000089,0.00000223,0.00013641,0.00034509,0.0002511
 9,-0.00004021,0.00014786,-0.00006903,0.00003131,-0.00007780,-0.0002055
 9,-0.00001433,-0.00001420,-0.00001362,0.00000843,-0.00023943,0.0001028
 3,-0.00000796,0.00000523,0.00001336,-0.00008804,0.00020716,-0.00003339
 ,0.00000238,-0.00035446,0.00023232,0.00059491,-0.00009091,-0.00167640,
 -0.00003496,-0.00000109,0.00001698,0.00000242,-0.00000070,0.00000547,0
 .00000029,-0.00000103,0.00000360,0.00000103,0.00000329,-0.00000088,-0.
 00000168,-0.00000199,0.00000132,-0.00370934,0.03153201,0.01548575,-0.0
 0514964,-0.00025689,0.00439884,0.00296145,0.00145232,-0.00039843,-0.00
 030233,-0.00083660,-0.00022616,-0.00016158,0.00010118,-0.00005307,0.00
 055913,-0.00022370,0.00004367,0.01266281,-0.02333490,-0.01574417,0.002
 84265,-0.03565924,-0.01292085,-0.00232666,0.00264322,0.00150349,-0.000
 00474,-0.00000488,-0.00000595,0.00000597,0.00000105,-0.00000075,-0.000
 00273,-0.00000090,-0.00000033,0.00000323,-0.00000456,0.00000191,-0.000
 00482,-0.00000581,-0.00000609,-0.00820503,0.00017733,-0.00009177,-0.00
 020803,0.00003482,-0.00003933,-0.00006746,-0.00005578,0.00002583,0.000
 02286,0.00000556,-0.00000542,-0.00000289,-0.00000302,-0.00000048,0.000
 00361,0.00002517,0.00000170,-0.00000874,0.00000383,-0.00000538,-0.0000
 0077,0.00007337,-0.00005454,-0.00002528,0.00002529,-0.00005829,-0.0000
 0855,0.00000600,-0.00000300,-0.00000044,-0.00009189,0.00003085,0.00001
 542,-0.00022760,0.00014669,0.00007944,0.00002654,0.00000944,0.00002233
 ,0.00000074,-0.00000046,-0.00000117,0.00000243,-0.00000364,0.00000220,
 -0.00000623,0.00000440,0.00000187,0.00000853,-0.00000089,0.00000086,0.
 00000923,-0.00000062,-0.00000020,-0.00000366,-0.00000049,0.00000271,-0
 .00000047,0.00000605,-0.00000175,0.00000192,-0.00000457,-0.00000308,0.
 00004715,0.00009131,0.00001026,-0.00004211,-0.00006507,0.00004044,0.00
 003931,0.00009216,-0.00003361,0.00000730,0.00000530,-0.00000178,-0.000
 04313,0.00011575,0.00001318,-0.00004374,0.00003228,-0.00004896,-0.0004
 7361,-0.00009558,-0.00000900,-0.00012745,-0.00017691,0.00046254,0.0005
 9831,0.00045464,0.00053143,-0.00000819,0.00001363,0.00000651,-0.000005
 25,-0.00000349,-0.00000751,-0.00000077,0.00000413,0.00000281,-0.000001
 69,-0.00000193,0.00000484,0.00000166,-0.00000296,-0.00000502,-0.001278
 91,-0.00121865,0.00063460,0.00034705,0.00145246,-0.00023640,-0.0009218
 0,0.00127120,0.00078894,0.00082514,0.00011398,0.00008624,0.00012115,-0
 .00022685,-0.00011260,-0.00012696,0.00023411,0.00010595,-0.02639555,-0
 .59913153,-0.27656242,0.00412575,0.00028829,0.00336461,-0.00146983,-0.
 01919422,-0.01769542,-0.00000068,0.00000385,-0.00001037,0.00000029,0.0
 0000495,-0.00000003,-0.00000281,-0.00000334,-0.00000378,0.00000529,-0.
 00000261,0.00000477,0.00000259,0.00000011,0.00000698,0.02480938,0.6159
 8892,0.00004878,0.00040081,-0.00027775,-0.00000643,0.00000009,-0.00003
 237,0.00000679,0.00000618,0.00000980,-0.00000492,0.00000629,0.00000295
 ,-0.00000058,-0.00000086,0.00000147,0.00001771,0.00000417,-0.00000681,
 0.00000171,-0.00000102,-0.00000020,0.00000800,-0.00001008,-0.00001579,
 0.00000556,-0.00002599,-0.00000509,0.00000197,-0.00000158,0.00000252,-
 0.00004441,0.00002078,0.00000373,-0.00013718,0.00005493,0.00005836,-0.
 00002918,-0.00000356,0.00004872,0.00000341,-0.00000480,-0.00002310,-0.
 00002451,-0.00002322,0.00002235,0.00000352,0.00000372,-0.00000368,-0.0
 0000276,0.00000125,0.00000068,0.00000233,0.00000027,0.00000027,-0.0000
 0189,-0.00000358,-0.00000077,0.00000411,0.00000300,-0.00000039,-0.0000
 0002,0.00000008,-0.00000224,-0.00020938,-0.00050703,-0.00054264,0.0000
 4315,-0.00033771,0.00017224,0.00000838,0.00027353,0.00033160,0.0000461
 7,0.00003258,0.00003668,-0.00032954,0.00047913,-0.00039604,0.00002654,
 -0.00001224,-0.00002763,-0.00011843,-0.00033454,0.00002607,0.00068219,
 0.00071718,-0.00024306,-0.00085807,-0.00108754,0.00203901,0.00003676,-
 0.00001714,-0.00003415,0.00001030,0.00002440,0.00002025,0.00000258,0.0
 0000212,-0.00001355,-0.00000069,-0.00000640,-0.00000553,-0.00000349,-0
 .00000025,0.00001324,0.00078917,-0.02310656,-0.01148465,0.00409825,0.0
 0047012,-0.00228069,-0.00227906,0.00106466,0.00128763,0.00067182,0.000
 33770,0.00069240,-0.00000951,0.00016838,-0.00000352,-0.00041772,0.0002
 0308,-0.00030531,-0.01734480,-0.27982448,-0.11810738,0.00467847,-0.018
 30365,-0.00780959,0.00150534,0.03045916,0.01601838,-0.00000390,0.00003
 365,0.00004167,-0.00000540,0.00000186,-0.00001172,0.00001228,0.0000010
 1,0.00001349,-0.00000556,-0.00001112,-0.00000393,0.00000238,0.00001336
 ,0.00002636,0.00911978,0.28883986,0.12076767\\-0.00346633,-0.03448263,
 -0.00548077,-0.04870956,0.00962383,0.00920591,0.09137115,0.00149061,-0
 .01643809,-0.11537447,-0.12393661,0.01977404,0.11220981,0.14235055,-0.
 01955180,0.06890278,-0.14632913,-0.02015575,-0.06303301,0.17087759,0.0
 2065592,0.00066895,-0.02252436,-0.00135876,0.13946988,-0.03434067,-0.0
 3591093,-0.17252160,0.02891868,0.04296195,-0.00999736,-0.01294599,0.00
 258812,0.01281762,-0.00102013,-0.00419928,0.01592654,0.12794869,0.0302
 4719,0.01359593,-0.09507307,0.08099041,-0.03125289,-0.05006198,-0.1093
 2410,0.09230959,0.01574026,0.03399869,-0.08754155,-0.00044138,-0.07106
 400,0.03829326,0.01849088,-0.09936337,0.10123430,0.01864964,0.09240917
 ,-0.04659763,-0.13033965,0.01083144,-0.10458047,0.08741368,0.03231493,
 -0.00800279,0.06617534,0.02121899,0.00287024,-0.00921555,0.00179074,-0
 .02337880,0.09952300,-0.11541540,0.02879360,-0.10270505,0.14652738,-0.
 01337944,0.15959954,0.00307774,0.01264180,-0.18182176,-0.01461255,0.01
 247874,0.07655547,0.14651555,-0.01341921,-0.08007736,-0.16352725,-0.00
 148153,-0.00590651,-0.02762573,0.01366619,-0.08881885,0.00517533,0.082
 15645,0.03398873,-0.09023088,0.01221939,-0.13674064,0.02446187,-0.1273
 7997,0.02465468,-0.04417637,0.02049883,0.06866465,0.11875624,0.0018954
 0,-0.09423592,-0.01009195,-0.00341567,0.10621642,0.03363900,0.10894499
 ,0.02464057,0.06384509,0.00145016,-0.13042696,-0.04524167,-0.01660199,
 0.08506603,-0.10851031,-0.10714592,0.01524534,0.08581951,-0.09604665,0
 .01157756,0.07987575,0.11994662,0.01532310,0.06899432,-0.00708524,0.09
 541140,-0.09837954,-0.12133916,0.01379285,-0.04733774,0.02171870,-0.13
 452037,0.03576194,0.01930870,0.08013885,0.11112894,0.09157921,0.035555
 41,-0.09827110,-0.01387475,0.10914475,-0.01663849,-0.00134284,-0.12681
 352,-0.05966034\\\@
 The archive entry for this job was punched.

 Writing a WFNX file to "XIKFIH_Complex_2_Ligand_0_ON_Cu_oriented.wfx"


 ALMOST ANYTHING IS EASIER TO GET INTO THAN OUT OF.

                         -- AGNES ALLEN'S LAW FROM
                PAUL DICKSON'S "THE OFFICIAL RULES"
 Job cpu time:       0 days  2 hours 34 minutes 19.5 seconds.
 Elapsed time:       0 days  2 hours 34 minutes 52.3 seconds.
 File lengths (MBytes):  RWF=   1340 Int=      0 D2E=      0 Chk=     20 Scr=      8
 Normal termination of Gaussian 16 at Mon Mar  6 12:56:41 2023.
