 Entering Gaussian System, Link 0=g16
 Initial command:
 /ssoft/spack/external/gaussian/g16-C.01/avx2/g16/l1.exe "/scratch/lcmd/2316203/Gau-4008311.inp" -scrdir="/scratch/lcmd/2316203/"
 Entering Link 1 = /ssoft/spack/external/gaussian/g16-C.01/avx2/g16/l1.exe PID=   4008312.
  
 Copyright (c) 1988-2019, Gaussian, Inc.  All Rights Reserved.
  
 This is part of the Gaussian(R) 16 program.  It is based on
 the Gaussian(R) 09 system (copyright 2009, Gaussian, Inc.),
 the Gaussian(R) 03 system (copyright 2003, Gaussian, Inc.),
 the Gaussian(R) 98 system (copyright 1998, Gaussian, Inc.),
 the Gaussian(R) 94 system (copyright 1995, Gaussian, Inc.),
 the Gaussian 92(TM) system (copyright 1992, Gaussian, Inc.),
 the Gaussian 90(TM) system (copyright 1990, Gaussian, Inc.),
 the Gaussian 88(TM) system (copyright 1988, Gaussian, Inc.),
 the Gaussian 86(TM) system (copyright 1986, Carnegie Mellon
 University), and the Gaussian 82(TM) system (copyright 1983,
 Carnegie Mellon University). Gaussian is a federally registered
 trademark of Gaussian, Inc.
  
 This software contains proprietary and confidential information,
 including trade secrets, belonging to Gaussian, Inc.
  
 This software is provided under written license and may be
 used, copied, transmitted, or stored only in accord with that
 written license.
  
 The following legend is applicable only to US Government
 contracts under FAR:
  
                    RESTRICTED RIGHTS LEGEND
  
 Use, reproduction and disclosure by the US Government is
 subject to restrictions as set forth in subparagraphs (a)
 and (c) of the Commercial Computer Software - Restricted
 Rights clause in FAR 52.227-19.
  
 Gaussian, Inc.
 340 Quinnipiac St., Bldg. 40, Wallingford CT 06492
  
  
 ---------------------------------------------------------------
 Warning -- This program may not be used in any manner that
 competes with the business of Gaussian, Inc. or will provide
 assistance to any competitor of Gaussian, Inc.  The licensee
 of this program is prohibited from giving any competitor of
 Gaussian, Inc. access to this program.  By using this program,
 the user acknowledges that Gaussian, Inc. is engaged in the
 business of creating and licensing software in the field of
 computational chemistry and represents and warrants to the
 licensee that it is not a competitor of Gaussian, Inc. and that
 it will not use this program in any manner prohibited above.
 ---------------------------------------------------------------
  

 Cite this work as:
 Gaussian 16, Revision C.01,
 M. J. Frisch, G. W. Trucks, H. B. Schlegel, G. E. Scuseria, 
 M. A. Robb, J. R. Cheeseman, G. Scalmani, V. Barone, 
 G. A. Petersson, H. Nakatsuji, X. Li, M. Caricato, A. V. Marenich, 
 J. Bloino, B. G. Janesko, R. Gomperts, B. Mennucci, H. P. Hratchian, 
 J. V. Ortiz, A. F. Izmaylov, J. L. Sonnenberg, D. Williams-Young, 
 F. Ding, F. Lipparini, F. Egidi, J. Goings, B. Peng, A. Petrone, 
 T. Henderson, D. Ranasinghe, V. G. Zakrzewski, J. Gao, N. Rega, 
 G. Zheng, W. Liang, M. Hada, M. Ehara, K. Toyota, R. Fukuda, 
 J. Hasegawa, M. Ishida, T. Nakajima, Y. Honda, O. Kitao, H. Nakai, 
 T. Vreven, K. Throssell, J. A. Montgomery, Jr., J. E. Peralta, 
 F. Ogliaro, M. J. Bearpark, J. J. Heyd, E. N. Brothers, K. N. Kudin, 
 V. N. Staroverov, T. A. Keith, R. Kobayashi, J. Normand, 
 K. Raghavachari, A. P. Rendell, J. C. Burant, S. S. Iyengar, 
 J. Tomasi, M. Cossi, J. M. Millam, M. Klene, C. Adamo, R. Cammi, 
 J. W. Ochterski, R. L. Martin, K. Morokuma, O. Farkas, 
 J. B. Foresman, and D. J. Fox, Gaussian, Inc., Wallingford CT, 2019.
 
 ******************************************
 Gaussian 16:  ES64L-G16RevC.01  3-Jul-2019
                 4-Mar-2023 
 ******************************************
 %nprocshared=1
 Will use up to    1 processors via shared memory.
 %mem=8000MB
 %chk=XIVNIA_Complex_1_Ligand_0_NN_Cu_oriented.chk
 ----------------------------------------------------------------------
 #p pop=(regular,nbo,savenbos) freq=noraman def2svp empiricaldispersion
 =gd3bj output=wfx pbe1pbe
 ----------------------------------------------------------------------
 1/10=4,30=1,38=1/1,3;
 2/12=2,17=6,18=5,40=1/2;
 3/5=43,7=101,11=2,25=1,30=1,71=2,74=-13,124=41,140=1/1,2,3;
 4//1;
 5/5=2,38=5,98=1/2;
 8/6=4,10=90,11=11/1;
 11/6=1,8=1,9=11,15=111,16=1/1,2,10;
 10/6=1/2;
 6/28=1,40=1,73=1/1,7;
 7/8=1,10=1,25=1/1,2,3,16;
 1/10=4,30=1/3;
 99/6=200/99;
 Leave Link    1 at Sat Mar  4 11:41:16 2023, MaxMem=  1048576000 cpu:               0.0 elap:               0.1
 (Enter /ssoft/spack/external/gaussian/g16-C.01/avx2/g16/l101.exe)
 ----------------------------------------
 XIVNIA_Complex_1_Ligand_0_NN_Cu_oriented
 ----------------------------------------
 Symbolic Z-matrix:
 Charge =  0 Multiplicity = 1
 N                    -0.68279   1.93522   0. 
 N                     1.96204   0.88176   0. 
 C                     0.47085   2.83724   0.31622 
 H                     0.58057   2.82401   1.30975 
 C                     2.93415   3.20401   0.19793 
 H                     3.77407   2.88234  -0.21577 
 H                     3.02846   3.12669   1.18067 
 C                     1.77336   2.33082  -0.2692 
 H                     1.70737   2.43625  -1.26133 
 C                     2.84308   0.24074  -0.97813 
 H                     3.72683   0.66252  -0.94735 
 H                     2.46259   0.34219  -1.87549 
 H                     2.92786  -0.71273  -0.76552 
 C                     2.48756   0.6065    1.36366 
 H                     3.38967   0.97733   1.44687 
 H                     2.51613  -0.36111   1.5134 
 H                     1.90062   1.02266   2.02924 
 C                     0.26272   4.30223  -0.08022 
 H                     0.18943   4.36751  -1.06496 
 H                    -0.58653   4.62819   0.31104 
 C                    -1.20919   2.16048  -1.37009 
 H                    -1.55493   3.07409  -1.44058 
 H                    -1.93223   1.52359  -1.55073 
 H                    -0.48981   2.03181  -2.0216 
 C                     2.713     4.67345  -0.17822 
 H                     2.70288   4.76459  -1.16338 
 C                    -1.77896   2.13912   0.96535 
 H                    -2.07079   3.0744    0.93541 
 H                    -1.46484   1.92494   1.86833 
 H                    -2.5316    1.55539   0.73451 
 C                     1.39815   5.17879   0.39377 
 H                     1.43929   5.16687   1.38342 
 H                     1.24487   6.11158   0.10162 
 H                     3.45881   5.22069   0.17363 
 
 ITRead=  0  0  0  0  0  0  0  0  0  0  0  0  0  0  0  0  0  0  0  0
 ITRead=  0  0  0  0  0  0  0  0  0  0  0  0  0  0
 MicOpt= -1 -1 -1 -1 -1 -1 -1 -1 -1 -1 -1 -1 -1 -1 -1 -1 -1 -1 -1 -1
 MicOpt= -1 -1 -1 -1 -1 -1 -1 -1 -1 -1 -1 -1 -1 -1
 NAtoms=     34 NQM=       34 NQMF=       0 NMMI=      0 NMMIF=      0
                NMic=       0 NMicF=      0.
                    Isotopes and Nuclear Properties:
 (Nuclear quadrupole moments (NQMom) in fm**2, nuclear magnetic moments (NMagM)
  in nuclear magnetons)

  Atom         1           2           3           4           5           6           7           8           9          10
 IAtWgt=          14          14          12           1          12           1           1          12           1          12
 AtmWgt=  14.0030740  14.0030740  12.0000000   1.0078250  12.0000000   1.0078250   1.0078250  12.0000000   1.0078250  12.0000000
 NucSpn=           2           2           0           1           0           1           1           0           1           0
 AtZEff=  -0.0000000  -0.0000000  -0.0000000  -0.0000000  -0.0000000  -0.0000000  -0.0000000  -0.0000000  -0.0000000  -0.0000000
 NQMom=    2.0440000   2.0440000   0.0000000   0.0000000   0.0000000   0.0000000   0.0000000   0.0000000   0.0000000   0.0000000
 NMagM=    0.4037610   0.4037610   0.0000000   2.7928460   0.0000000   2.7928460   2.7928460   0.0000000   2.7928460   0.0000000
 AtZNuc=   7.0000000   7.0000000   6.0000000   1.0000000   6.0000000   1.0000000   1.0000000   6.0000000   1.0000000   6.0000000

  Atom        11          12          13          14          15          16          17          18          19          20
 IAtWgt=           1           1           1          12           1           1           1          12           1           1
 AtmWgt=   1.0078250   1.0078250   1.0078250  12.0000000   1.0078250   1.0078250   1.0078250  12.0000000   1.0078250   1.0078250
 NucSpn=           1           1           1           0           1           1           1           0           1           1
 AtZEff=  -0.0000000  -0.0000000  -0.0000000  -0.0000000  -0.0000000  -0.0000000  -0.0000000  -0.0000000  -0.0000000  -0.0000000
 NQMom=    0.0000000   0.0000000   0.0000000   0.0000000   0.0000000   0.0000000   0.0000000   0.0000000   0.0000000   0.0000000
 NMagM=    2.7928460   2.7928460   2.7928460   0.0000000   2.7928460   2.7928460   2.7928460   0.0000000   2.7928460   2.7928460
 AtZNuc=   1.0000000   1.0000000   1.0000000   6.0000000   1.0000000   1.0000000   1.0000000   6.0000000   1.0000000   1.0000000

  Atom        21          22          23          24          25          26          27          28          29          30
 IAtWgt=          12           1           1           1          12           1          12           1           1           1
 AtmWgt=  12.0000000   1.0078250   1.0078250   1.0078250  12.0000000   1.0078250  12.0000000   1.0078250   1.0078250   1.0078250
 NucSpn=           0           1           1           1           0           1           0           1           1           1
 AtZEff=  -0.0000000  -0.0000000  -0.0000000  -0.0000000  -0.0000000  -0.0000000  -0.0000000  -0.0000000  -0.0000000  -0.0000000
 NQMom=    0.0000000   0.0000000   0.0000000   0.0000000   0.0000000   0.0000000   0.0000000   0.0000000   0.0000000   0.0000000
 NMagM=    0.0000000   2.7928460   2.7928460   2.7928460   0.0000000   2.7928460   0.0000000   2.7928460   2.7928460   2.7928460
 AtZNuc=   6.0000000   1.0000000   1.0000000   1.0000000   6.0000000   1.0000000   6.0000000   1.0000000   1.0000000   1.0000000

  Atom        31          32          33          34
 IAtWgt=          12           1           1           1
 AtmWgt=  12.0000000   1.0078250   1.0078250   1.0078250
 NucSpn=           0           1           1           1
 AtZEff=  -0.0000000  -0.0000000  -0.0000000  -0.0000000
 NQMom=    0.0000000   0.0000000   0.0000000   0.0000000
 NMagM=    0.0000000   2.7928460   2.7928460   2.7928460
 AtZNuc=   6.0000000   1.0000000   1.0000000   1.0000000
 Leave Link  101 at Sat Mar  4 11:41:16 2023, MaxMem=  1048576000 cpu:               0.1 elap:               0.1
 (Enter /ssoft/spack/external/gaussian/g16-C.01/avx2/g16/l103.exe)

 GradGradGradGradGradGradGradGradGradGradGradGradGradGradGradGradGradGrad
 Berny optimization.
 Initialization pass.
 Trust Radius=3.00D-01 FncErr=1.00D-07 GrdErr=1.00D-07 EigMax=2.50D+02 EigMin=1.00D-04
 Number of steps in this run=      2 maximum allowed number of steps=      2.
 GradGradGradGradGradGradGradGradGradGradGradGradGradGradGradGradGradGrad

 Leave Link  103 at Sat Mar  4 11:41:16 2023, MaxMem=  1048576000 cpu:               0.0 elap:               0.0
 (Enter /ssoft/spack/external/gaussian/g16-C.01/avx2/g16/l202.exe)
                          Input orientation:                          
 ---------------------------------------------------------------------
 Center     Atomic      Atomic             Coordinates (Angstroms)
 Number     Number       Type             X           Y           Z
 ---------------------------------------------------------------------
      1          7           0       -0.682794    1.935224    0.000000
      2          7           0        1.962038    0.881756    0.000000
      3          6           0        0.470849    2.837244    0.316218
      4          1           0        0.580574    2.824012    1.309753
      5          6           0        2.934149    3.204005    0.197928
      6          1           0        3.774067    2.882342   -0.215773
      7          1           0        3.028459    3.126689    1.180669
      8          6           0        1.773359    2.330819   -0.269200
      9          1           0        1.707371    2.436250   -1.261334
     10          6           0        2.843081    0.240741   -0.978127
     11          1           0        3.726835    0.662515   -0.947345
     12          1           0        2.462590    0.342186   -1.875491
     13          1           0        2.927862   -0.712726   -0.765524
     14          6           0        2.487555    0.606499    1.363660
     15          1           0        3.389668    0.977328    1.446867
     16          1           0        2.516129   -0.361112    1.513405
     17          1           0        1.900624    1.022661    2.029240
     18          6           0        0.262715    4.302231   -0.080225
     19          1           0        0.189428    4.367515   -1.064959
     20          1           0       -0.586533    4.628194    0.311039
     21          6           0       -1.209194    2.160484   -1.370087
     22          1           0       -1.554925    3.074087   -1.440580
     23          1           0       -1.932228    1.523588   -1.550731
     24          1           0       -0.489815    2.031811   -2.021599
     25          6           0        2.712999    4.673454   -0.178218
     26          1           0        2.702876    4.764587   -1.163384
     27          6           0       -1.778956    2.139117    0.965349
     28          1           0       -2.070795    3.074398    0.935410
     29          1           0       -1.464842    1.924937    1.868326
     30          1           0       -2.531599    1.555387    0.734507
     31          6           0        1.398149    5.178790    0.393775
     32          1           0        1.439287    5.166874    1.383417
     33          1           0        1.244868    6.111582    0.101618
     34          1           0        3.458805    5.220689    0.173632
 ---------------------------------------------------------------------
                    Distance matrix (angstroms):
                    1          2          3          4          5
     1  N    0.000000
     2  N    2.846916   0.000000
     3  C    1.498175   2.479430   0.000000
     4  H    2.025215   2.719605   0.999663   0.000000
     5  C    3.838133   2.525275   2.493262   2.630564   0.000000
     6  H    4.561492   2.707831   3.346088   3.539638   0.989989
     7  H    4.072711   2.751537   2.715221   2.469903   0.990279
     8  C    2.502330   1.485884   1.515161   2.039379   1.525810
     9  H    2.748615   2.017986   2.044127   2.833817   2.055207
    10  C    4.032345   1.464196   3.747618   4.126333   3.189409
    11  H    4.686372   2.014953   4.114302   4.434582   2.898133
    12  H    3.993580   2.014734   3.872459   4.455022   3.565311
    13  H    4.542522   2.015246   4.450772   4.724940   4.033493
    14  C    3.698134   1.487113   3.184410   2.925209   2.881912
    15  H    4.426730   2.034868   3.641039   3.364529   2.593346
    16  H    4.218609   2.035223   3.980692   3.732675   3.822994
    17  H    3.409492   2.035053   2.876006   2.346286   3.029875
    18  C    2.550127   3.820181   1.531885   2.053826   2.901728
    19  H    2.794808   4.052998   2.080523   2.859135   3.237612
    20  H    2.712582   4.541779   2.079804   2.369523   3.799514
    21  C    1.484917   3.683612   2.474707   3.290149   4.551362
    22  H    2.032952   4.387553   2.691876   3.491021   4.780521
    23  H    2.033543   4.240522   3.314509   4.023388   5.437209
    24  H    2.033084   3.379507   2.652731   3.587648   4.245452
    25  C    4.365900   3.869454   2.939961   3.190883   1.532864
    26  H    4.563060   4.120519   3.299366   3.792941   2.083764
    27  C    1.474802   4.062990   2.443435   2.480943   4.892472
    28  H    2.024662   4.684700   2.626708   2.689346   5.060646
    29  H    2.025425   4.040096   2.643529   2.303056   4.876205
    30  H    2.025304   4.602831   3.291325   3.409683   5.734132
    31  C    3.873772   4.351727   2.519670   2.655640   2.509467
    32  H    4.106170   4.533138   2.739336   2.496361   2.737307
    33  H    4.600889   5.279748   3.371416   3.564968   3.364067
    34  H    5.289355   4.593125   3.824791   3.913955   2.083955
                    6          7          8          9         10
     6  H    0.000000
     7  H    1.601777   0.000000
     8  C    2.076021   2.076247   0.000000
     9  H    2.358692   2.861006   0.999900   0.000000
    10  C    2.902753   3.608803   2.452612   2.488032   0.000000
    11  H    2.337746   3.329913   2.656913   2.706096   0.979725
    12  H    3.305606   4.172982   2.647616   2.309253   0.979963
    13  H    3.734007   4.305682   3.292777   3.413426   0.980555
    14  C    3.054371   2.584070   2.479836   3.293519   2.396694
    15  H    2.557580   2.195697   2.718323   3.506128   2.592665
    16  H    3.884901   3.540896   3.312986   4.022250   2.583961
    17  H    3.465297   2.533578   2.647696   3.586566   3.247134
    18  C    3.789994   3.259002   2.490827   2.638927   4.894917
    19  H    3.971963   3.826564   2.700037   2.464244   4.907105
    20  H    4.726560   4.009856   3.344204   3.541041   5.716113
    21  C    5.165889   5.039604   3.183801   2.931591   4.501109
    22  H    5.471296   5.280259   3.605837   3.328896   5.252064
    23  H    6.015824   5.885482   4.003164   3.763428   4.977665
    24  H    4.707982   4.881754   2.877892   2.359915   3.924915
    25  C    2.082152   2.082924   2.525696   2.681326   4.506186
    26  H    2.363951   2.878072   2.754413   2.534122   4.529807
    27  C    5.725688   4.912525   3.765608   4.147395   5.361358
    28  H    5.960245   5.105417   4.096525   4.416725   5.986436
    29  H    5.718940   4.701791   3.901244   4.485438   5.431115
    30  H    6.513469   5.795024   4.487916   4.767407   5.792115
    31  C    3.360091   2.736464   2.948094   3.218156   5.324873
    32  H    3.636990   2.594018   3.299387   3.810890   5.640417
    33  H    4.114070   3.640760   3.835489   3.947102   6.179555
    34  H    2.391421   2.363082   3.374637   3.588837   5.148354
                   11         12         13         14         15
    11  H    0.000000
    12  H    1.600744   0.000000
    13  H    1.600846   1.600420   0.000000
    14  C    2.622918   3.250013   2.543157   0.000000
    15  H    2.438246   3.507270   2.822095   0.978900   0.000000
    16  H    2.927270   3.461518   2.342365   0.979546   1.599662
    17  H    3.510671   4.003220   3.446374   0.980141   1.599521
    18  C    5.098975   4.872821   5.720353   4.548972   4.812985
    19  H    5.123876   4.693347   5.779060   5.032377   5.295675
    20  H    5.992936   5.696309   6.483471   5.170306   5.516258
    21  C    5.175616   4.128394   5.073073   4.853267   5.521288
    22  H    5.827174   4.877793   5.906864   5.504036   6.097767
    23  H    5.755911   4.562412   5.407230   5.373008   6.132420
    24  H    4.561702   3.404831   4.559685   4.728237   5.309668
    25  C    4.207974   4.658683   5.422364   4.355265   4.093914
    26  H    4.233457   4.485807   5.496351   4.870524   4.650637
    27  C    6.012694   5.412028   5.769148   4.550900   5.319426
    28  H    6.555491   5.993140   6.497850   5.201200   5.871622
    29  H    6.039472   5.652078   5.761101   4.196953   4.964057
    30  H    6.541700   5.764189   6.099192   5.146663   5.991913
    31  C    5.255294   5.447508   6.196286   4.799305   4.767330
    32  H    5.563683   5.911450   6.434555   4.679346   4.621721
    33  H    6.078882   6.219143   7.082061   5.782989   5.724546
    34  H    4.701636   5.384343   6.030699   4.863151   4.430804
                   16         17         18         19         20
    16  H    0.000000
    17  H    1.599925   0.000000
    18  C    5.418883   4.229440   0.000000
    19  H    5.866976   4.867268   0.989613   0.000000
    20  H    5.997113   4.705107   0.990233   1.601075   0.000000
    21  C    5.343313   4.745633   2.901265   2.630633   3.050162
    22  H    6.090985   5.309314   2.581225   2.203818   2.534010
    23  H    5.720918   5.268574   3.834191   3.581246   3.862081
    24  H    5.220922   4.810600   3.080591   2.613817   3.491670
    25  C    5.314809   4.342938   2.480182   2.692270   3.335916
    26  H    5.785573   4.983820   2.709500   2.546522   3.607317
    27  C    4.999926   3.989692   3.152888   3.600339   2.836459
    28  H    5.759919   4.601983   2.825660   3.283631   2.237667
    29  H    4.604358   3.488030   3.526022   4.160163   3.241014
    30  H    5.455200   4.648089   4.002141   4.306986   3.661251
    31  C    5.761420   4.494511   1.510709   2.060844   2.061301
    32  H    5.633392   4.219528   2.067408   2.862807   2.354594
    33  H    6.745740   5.481136   2.066747   2.348750   2.366078
    34  H    5.817227   4.847127   3.335116   3.598728   4.090805
                   21         22         23         24         25
    21  C    0.000000
    22  H    0.979372   0.000000
    23  H    0.980330   1.599543   0.000000
    24  H    0.979045   1.599494   1.600176   0.000000
    25  C    4.808239   4.729346   5.777853   4.542504   0.000000
    26  H    4.704079   4.589498   5.669065   4.289273   0.989424
    27  C    2.404027   2.590917   2.594808   3.255035   5.282828
    28  H    2.625436   2.431348   2.933447   3.511465   5.165446
    29  H    3.257017   3.503930   3.474116   4.011685   5.403429
    30  H    2.558166   2.826897   2.362746   3.462944   6.169378
    31  C    4.361148   4.063900   5.313475   4.393394   1.520320
    32  H    4.861544   4.617361   5.766270   5.014397   2.074732
    33  H    4.878474   4.409489   5.820128   4.915456   2.074109
    34  H    5.791212   5.687801   6.760564   5.529880   0.989693
                   26         27         28         29         30
    26  H    0.000000
    27  C    5.613502   0.000000
    28  H    5.481752   0.980213   0.000000
    29  H    5.884280   0.979750   1.599616   0.000000
    30  H    6.426561   0.980052   1.600031   1.600027   0.000000
    31  C    2.073312   4.433994   4.093336   4.578054   5.356125
    32  H    2.871356   4.438376   4.110941   4.379413   5.406650
    33  H    2.353808   5.066559   4.573108   5.290727   5.951569
    34  H    1.602208   6.128380   5.980246   6.162489   7.045138
                   31         32         33         34
    31  C    0.000000
    32  H    0.990568   0.000000
    33  H    0.989420   1.604145   0.000000
    34  H    2.072805   2.354767   2.387549   0.000000
 Stoichiometry    C10H22N2
 Framework group  C1[X(C10H22N2)]
 Deg. of freedom    96
 Full point group                 C1      NOp   1
 Largest Abelian subgroup         C1      NOp   1
 Largest concise Abelian subgroup C1      NOp   1
                         Standard orientation:                         
 ---------------------------------------------------------------------
 Center     Atomic      Atomic             Coordinates (Angstroms)
 Number     Number       Type             X           Y           Z
 ---------------------------------------------------------------------
      1          7           0       -1.391012   -1.248839    0.028218
      2          7           0        1.454289   -1.159668   -0.007021
      3          6           0       -0.690001    0.048484    0.292917
      4          1           0       -0.572879    0.113616    1.283557
      5          6           0        1.420450    1.362837    0.106292
      6          1           0        2.314202    1.389013   -0.318678
      7          1           0        1.548906    1.362729    1.088204
      8          6           0        0.699665    0.084001   -0.309812
      9          1           0        0.585841    0.120851   -1.302528
     10          6           0        2.506870   -1.428796   -0.988608
     11          1           0        3.148988   -0.688835   -0.990051
     12          1           0        2.107389   -1.517810   -1.879012
     13          1           0        2.967715   -2.261618   -0.752987
     14          6           0        2.061405   -1.156389    1.350515
     15          1           0        2.741290   -0.454028    1.402372
     16          1           0        2.475657   -2.026705    1.525031
     17          1           0        1.364696   -0.986590    2.018678
     18          6           0       -1.470259    1.294697   -0.136993
     19          1           0       -1.574660    1.292094   -1.121080
     20          1           0       -2.374536    1.267986    0.265664
     21          6           0       -1.979045   -1.298504   -1.334400
     22          1           0       -2.661591   -0.601476   -1.420728
     23          1           0       -2.389623   -2.176581   -1.480876
     24          1           0       -1.275549   -1.151549   -1.999252
     25          6           0        0.626707    2.608634   -0.303142
     26          1           0        0.569885    2.654891   -1.289849
     27          6           0       -2.466406   -1.466515    1.013705
     28          1           0       -3.107743   -0.726763    0.966049
     29          1           0       -2.082698   -1.507095    1.914278
     30          1           0       -2.925925   -2.309367    0.816365
     31          6           0       -0.773989    2.566746    0.286494
     32          1           0       -0.720314    2.605604    1.274843
     33          1           0       -1.290276    3.350623   -0.026452
     34          1           0        1.095900    3.419395    0.016258
 ---------------------------------------------------------------------
 Rotational constants (GHZ):           0.9889408           0.8686314           0.5768926
 Leave Link  202 at Sat Mar  4 11:41:16 2023, MaxMem=  1048576000 cpu:               0.0 elap:               0.0
 (Enter /ssoft/spack/external/gaussian/g16-C.01/avx2/g16/l301.exe)
 Standard basis: def2SVP (5D, 7F)
 Ernie: Thresh=  0.10000D-02 Tol=  0.10000D-05 Strict=F.
 There are   290 symmetry adapted cartesian basis functions of A   symmetry.
 There are   278 symmetry adapted basis functions of A   symmetry.
   278 basis functions,   454 primitive gaussians,   290 cartesian basis functions
    48 alpha electrons       48 beta electrons
       nuclear repulsion energy       829.3172554561 Hartrees.
 IExCor= 1009 DFT=T Ex+Corr=PBE1PBE ExCW=0 ScaHFX=  0.250000
 ScaDFX=  0.750000  0.750000  1.000000  1.000000 ScalE2=  1.000000  1.000000
 IRadAn=      5 IRanWt=     -1 IRanGd=            0 ICorTp=0 IEmpDi=141
 NAtoms=   34 NActive=   34 NUniq=   34 SFac= 1.00D+00 NAtFMM=   60 NAOKFM=F Big=F
 Integral buffers will be    131072 words long.
 Raffenetti 2 integral format.
 Two-electron integral symmetry is turned on.
 R6Disp:  Grimme-D3(BJ) Dispersion energy=       -0.0335034044 Hartrees.
 Nuclear repulsion after empirical dispersion term =      829.2837520517 Hartrees.
 Leave Link  301 at Sat Mar  4 11:41:16 2023, MaxMem=  1048576000 cpu:               0.1 elap:               0.0
 (Enter /ssoft/spack/external/gaussian/g16-C.01/avx2/g16/l302.exe)
 NPDir=0 NMtPBC=     1 NCelOv=     1 NCel=       1 NClECP=     1 NCelD=      1
         NCelK=      1 NCelE2=     1 NClLst=     1 CellRange=     0.0.
 One-electron integrals computed using PRISM.
 One-electron integral symmetry used in STVInt
   1 Symmetry operations used in ECPInt.
 ECPInt:  NShTT=    9591 NPrTT=   32607 LenC2=    9489 LenP2D=   25250.
 LDataN:  DoStor=T MaxTD1= 4 Len=   56
 NBasis=   278 RedAO= T EigKep=  8.88D-04  NBF=   278
 NBsUse=   278 1.00D-06 EigRej= -1.00D+00 NBFU=   278
 Precomputing XC quadrature grid using
 IXCGrd= 4 IRadAn=           5 IRanWt=          -1 IRanGd=           0 AccXCQ= 0.00D+00.
 Generated NRdTot=       0 NPtTot=           0 NUsed=           0 NTot=          32
 NSgBfM=   290   290   290   290   290 MxSgAt=    34 MxSgA2=    34.
 Leave Link  302 at Sat Mar  4 11:41:17 2023, MaxMem=  1048576000 cpu:               1.0 elap:               1.0
 (Enter /ssoft/spack/external/gaussian/g16-C.01/avx2/g16/l303.exe)
 DipDrv:  MaxL=1.
 Leave Link  303 at Sat Mar  4 11:41:17 2023, MaxMem=  1048576000 cpu:               0.1 elap:               0.0
 (Enter /ssoft/spack/external/gaussian/g16-C.01/avx2/g16/l401.exe)
 ExpMin= 1.22D-01 ExpMax= 1.71D+03 ExpMxC= 2.58D+02 IAcc=3 IRadAn=         5 AccDes= 0.00D+00
 Harris functional with IExCor= 1009 and IRadAn=       5 diagonalized for initial guess.
 HarFok:  IExCor= 1009 AccDes= 0.00D+00 IRadAn=         5 IDoV= 1 UseB2=F ITyADJ=14
 ICtDFT=  3500011 ScaDFX=  1.000000  1.000000  1.000000  1.000000
 FoFCou: FMM=F IPFlag=           0 FMFlag=      100000 FMFlg1=           0
         NFxFlg=           0 DoJE=T BraDBF=F KetDBF=T FulRan=T
         wScrn=  0.000000 ICntrl=       500 IOpCl=  0 I1Cent=   200000004 NGrid=           0
         NMat0=    1 NMatS0=      1 NMatT0=    0 NMatD0=    1 NMtDS0=    0 NMtDT0=    0
 Petite list used in FoFCou.
 Harris En= -502.962116509170    
 JPrj=0 DoOrth=F DoCkMO=F.
 Leave Link  401 at Sat Mar  4 11:41:25 2023, MaxMem=  1048576000 cpu:               7.5 elap:               7.5
 (Enter /ssoft/spack/external/gaussian/g16-C.01/avx2/g16/l502.exe)
 Keep R1 ints in memory in canonical form, NReq=764326176.
 FoFCou: FMM=F IPFlag=           0 FMFlag=           0 FMFlg1=           0
         NFxFlg=           0 DoJE=F BraDBF=F KetDBF=F FulRan=T
         wScrn=  0.000000 ICntrl=       600 IOpCl=  0 I1Cent=           0 NGrid=           0
         NMat0=    1 NMatS0=  38781 NMatT0=    0 NMatD0=    1 NMtDS0=    0 NMtDT0=    0
 Symmetry not used in FoFCou.
 Two-electron integral symmetry not used.
 Closed shell SCF:
 Using DIIS extrapolation, IDIIS=  1040.
 NGot=  1048576000 LenX=   296399531 LenY=   296314990
 Requested convergence on RMS density matrix=1.00D-08 within 128 cycles.
 Requested convergence on MAX density matrix=1.00D-06.
 Requested convergence on             energy=1.00D-06.
 No special actions if energy rises.
 Integral accuracy reduced to 1.0D-05 until final iterations.

 Cycle   1  Pass 0  IDiag  1:
 E= -502.177889590040    
 DIIS: error= 3.33D-02 at cycle   1 NSaved=   1.
 NSaved= 1 IEnMin= 1 EnMin= -502.177889590040     IErMin= 1 ErrMin= 3.33D-02
 ErrMax= 3.33D-02  0.00D+00 EMaxC= 1.00D-01 BMatC= 3.96D-01 BMatP= 3.96D-01
 IDIUse=3 WtCom= 6.67D-01 WtEn= 3.33D-01
 Coeff-Com:  0.100D+01
 Coeff-En:   0.100D+01
 Coeff:      0.100D+01
 Gap=     0.315 Goal=   None    Shift=    0.000
 GapD=    0.315 DampG=1.000 DampE=0.500 DampFc=0.5000 IDamp=-1.
 Damping current iteration by 5.00D-01
 RMSDP=5.49D-03 MaxDP=1.39D-01              OVMax= 1.59D-01

 Cycle   2  Pass 0  IDiag  1:
 E= -502.397022550875     Delta-E=       -0.219132960836 Rises=F Damp=T
 DIIS: error= 6.62D-03 at cycle   2 NSaved=   2.
 NSaved= 2 IEnMin= 2 EnMin= -502.397022550875     IErMin= 2 ErrMin= 6.62D-03
 ErrMax= 6.62D-03  0.00D+00 EMaxC= 1.00D-01 BMatC= 1.50D-02 BMatP= 3.96D-01
 IDIUse=3 WtCom= 9.34D-01 WtEn= 6.62D-02
 Coeff-Com: -0.394D-01 0.104D+01
 Coeff-En:   0.000D+00 0.100D+01
 Coeff:     -0.368D-01 0.104D+01
 Gap=     0.260 Goal=   None    Shift=    0.000
 RMSDP=1.43D-03 MaxDP=3.66D-02 DE=-2.19D-01 OVMax= 7.66D-02

 Cycle   3  Pass 0  IDiag  1:
 E= -502.608366206401     Delta-E=       -0.211343655526 Rises=F Damp=F
 DIIS: error= 3.38D-03 at cycle   3 NSaved=   3.
 NSaved= 3 IEnMin= 3 EnMin= -502.608366206401     IErMin= 3 ErrMin= 3.38D-03
 ErrMax= 3.38D-03  0.00D+00 EMaxC= 1.00D-01 BMatC= 4.35D-03 BMatP= 1.50D-02
 IDIUse=3 WtCom= 9.66D-01 WtEn= 3.38D-02
 Coeff-Com: -0.351D-01 0.348D+00 0.687D+00
 Coeff-En:   0.000D+00 0.000D+00 0.100D+01
 Coeff:     -0.339D-01 0.336D+00 0.698D+00
 Gap=     0.270 Goal=   None    Shift=    0.000
 RMSDP=4.98D-04 MaxDP=2.06D-02 DE=-2.11D-01 OVMax= 1.36D-02

 Cycle   4  Pass 0  IDiag  1:
 E= -502.611286714769     Delta-E=       -0.002920508368 Rises=F Damp=F
 DIIS: error= 1.29D-03 at cycle   4 NSaved=   4.
 NSaved= 4 IEnMin= 4 EnMin= -502.611286714769     IErMin= 4 ErrMin= 1.29D-03
 ErrMax= 1.29D-03  0.00D+00 EMaxC= 1.00D-01 BMatC= 9.76D-04 BMatP= 4.35D-03
 IDIUse=3 WtCom= 9.87D-01 WtEn= 1.29D-02
 Coeff-Com: -0.115D-01 0.833D-01 0.347D+00 0.582D+00
 Coeff-En:   0.000D+00 0.000D+00 0.147D+00 0.853D+00
 Coeff:     -0.114D-01 0.822D-01 0.344D+00 0.585D+00
 Gap=     0.262 Goal=   None    Shift=    0.000
 RMSDP=1.85D-04 MaxDP=5.54D-03 DE=-2.92D-03 OVMax= 6.55D-03

 Cycle   5  Pass 0  IDiag  1:
 E= -502.612118189525     Delta-E=       -0.000831474756 Rises=F Damp=F
 DIIS: error= 4.27D-04 at cycle   5 NSaved=   5.
 NSaved= 5 IEnMin= 5 EnMin= -502.612118189525     IErMin= 5 ErrMin= 4.27D-04
 ErrMax= 4.27D-04  0.00D+00 EMaxC= 1.00D-01 BMatC= 7.43D-05 BMatP= 9.76D-04
 IDIUse=3 WtCom= 9.96D-01 WtEn= 4.27D-03
 Coeff-Com: -0.187D-02 0.746D-02 0.938D-01 0.278D+00 0.623D+00
 Coeff-En:   0.000D+00 0.000D+00 0.000D+00 0.000D+00 0.100D+01
 Coeff:     -0.186D-02 0.743D-02 0.934D-01 0.277D+00 0.624D+00
 Gap=     0.264 Goal=   None    Shift=    0.000
 RMSDP=4.54D-05 MaxDP=1.52D-03 DE=-8.31D-04 OVMax= 1.71D-03

 Cycle   6  Pass 0  IDiag  1:
 E= -502.612179899212     Delta-E=       -0.000061709687 Rises=F Damp=F
 DIIS: error= 8.21D-05 at cycle   6 NSaved=   6.
 NSaved= 6 IEnMin= 6 EnMin= -502.612179899212     IErMin= 6 ErrMin= 8.21D-05
 ErrMax= 8.21D-05  0.00D+00 EMaxC= 1.00D-01 BMatC= 3.97D-06 BMatP= 7.43D-05
 IDIUse=1 WtCom= 1.00D+00 WtEn= 0.00D+00
 Coeff-Com: -0.252D-03-0.737D-03 0.295D-01 0.111D+00 0.308D+00 0.553D+00
 Coeff:     -0.252D-03-0.737D-03 0.295D-01 0.111D+00 0.308D+00 0.553D+00
 Gap=     0.263 Goal=   None    Shift=    0.000
 RMSDP=8.08D-06 MaxDP=2.90D-04 DE=-6.17D-05 OVMax= 2.66D-04

 Initial convergence to 1.0D-05 achieved.  Increase integral accuracy.
 Cycle   7  Pass 1  IDiag  1:
 E= -502.612183063091     Delta-E=       -0.000003163879 Rises=F Damp=F
 DIIS: error= 1.06D-05 at cycle   1 NSaved=   1.
 NSaved= 1 IEnMin= 1 EnMin= -502.612183063091     IErMin= 1 ErrMin= 1.06D-05
 ErrMax= 1.06D-05  0.00D+00 EMaxC= 1.00D-01 BMatC= 1.11D-07 BMatP= 1.11D-07
 IDIUse=1 WtCom= 1.00D+00 WtEn= 0.00D+00
 Coeff-Com:  0.100D+01
 Coeff:      0.100D+01
 Gap=     0.263 Goal=   None    Shift=    0.000
 RMSDP=8.08D-06 MaxDP=2.90D-04 DE=-3.16D-06 OVMax= 1.19D-04

 Cycle   8  Pass 1  IDiag  1:
 E= -502.612183062435     Delta-E=        0.000000000656 Rises=F Damp=F
 DIIS: error= 1.22D-05 at cycle   2 NSaved=   2.
 NSaved= 2 IEnMin= 1 EnMin= -502.612183063091     IErMin= 1 ErrMin= 1.06D-05
 ErrMax= 1.22D-05  0.00D+00 EMaxC= 1.00D-01 BMatC= 1.26D-07 BMatP= 1.11D-07
 IDIUse=1 WtCom= 1.00D+00 WtEn= 0.00D+00
 Coeff-Com:  0.517D+00 0.483D+00
 Coeff:      0.517D+00 0.483D+00
 Gap=     0.263 Goal=   None    Shift=    0.000
 RMSDP=1.92D-06 MaxDP=4.40D-05 DE= 6.56D-10 OVMax= 5.67D-05

 Cycle   9  Pass 1  IDiag  1:
 E= -502.612183178563     Delta-E=       -0.000000116128 Rises=F Damp=F
 DIIS: error= 2.03D-06 at cycle   3 NSaved=   3.
 NSaved= 3 IEnMin= 3 EnMin= -502.612183178563     IErMin= 3 ErrMin= 2.03D-06
 ErrMax= 2.03D-06  0.00D+00 EMaxC= 1.00D-01 BMatC= 3.02D-09 BMatP= 1.11D-07
 IDIUse=1 WtCom= 1.00D+00 WtEn= 0.00D+00
 Coeff-Com:  0.111D+00 0.170D+00 0.719D+00
 Coeff:      0.111D+00 0.170D+00 0.719D+00
 Gap=     0.263 Goal=   None    Shift=    0.000
 RMSDP=3.55D-07 MaxDP=9.22D-06 DE=-1.16D-07 OVMax= 1.19D-05

 Cycle  10  Pass 1  IDiag  1:
 E= -502.612183181011     Delta-E=       -0.000000002448 Rises=F Damp=F
 DIIS: error= 8.64D-07 at cycle   4 NSaved=   4.
 NSaved= 4 IEnMin= 4 EnMin= -502.612183181011     IErMin= 4 ErrMin= 8.64D-07
 ErrMax= 8.64D-07  0.00D+00 EMaxC= 1.00D-01 BMatC= 4.08D-10 BMatP= 3.02D-09
 IDIUse=1 WtCom= 1.00D+00 WtEn= 0.00D+00
 Coeff-Com:  0.713D-03 0.277D-01 0.309D+00 0.662D+00
 Coeff:      0.713D-03 0.277D-01 0.309D+00 0.662D+00
 Gap=     0.263 Goal=   None    Shift=    0.000
 RMSDP=1.34D-07 MaxDP=3.56D-06 DE=-2.45D-09 OVMax= 4.73D-06

 Cycle  11  Pass 1  IDiag  1:
 E= -502.612183181336     Delta-E=       -0.000000000325 Rises=F Damp=F
 DIIS: error= 3.84D-07 at cycle   5 NSaved=   5.
 NSaved= 5 IEnMin= 5 EnMin= -502.612183181336     IErMin= 5 ErrMin= 3.84D-07
 ErrMax= 3.84D-07  0.00D+00 EMaxC= 1.00D-01 BMatC= 6.53D-11 BMatP= 4.08D-10
 IDIUse=1 WtCom= 1.00D+00 WtEn= 0.00D+00
 Coeff-Com: -0.876D-02 0.997D-03 0.109D+00 0.363D+00 0.536D+00
 Coeff:     -0.876D-02 0.997D-03 0.109D+00 0.363D+00 0.536D+00
 Gap=     0.263 Goal=   None    Shift=    0.000
 RMSDP=4.51D-08 MaxDP=1.78D-06 DE=-3.25D-10 OVMax= 1.35D-06

 Cycle  12  Pass 1  IDiag  1:
 E= -502.612183181384     Delta-E=       -0.000000000049 Rises=F Damp=F
 DIIS: error= 3.68D-08 at cycle   6 NSaved=   6.
 NSaved= 6 IEnMin= 6 EnMin= -502.612183181384     IErMin= 6 ErrMin= 3.68D-08
 ErrMax= 3.68D-08  0.00D+00 EMaxC= 1.00D-01 BMatC= 9.87D-13 BMatP= 6.53D-11
 IDIUse=1 WtCom= 1.00D+00 WtEn= 0.00D+00
 Coeff-Com: -0.333D-02-0.631D-03 0.297D-01 0.110D+00 0.194D+00 0.670D+00
 Coeff:     -0.333D-02-0.631D-03 0.297D-01 0.110D+00 0.194D+00 0.670D+00
 Gap=     0.263 Goal=   None    Shift=    0.000
 RMSDP=5.74D-09 MaxDP=2.28D-07 DE=-4.87D-11 OVMax= 1.82D-07

 SCF Done:  E(RPBE1PBE) =  -502.612183181     A.U. after   12 cycles
            NFock= 12  Conv=0.57D-08     -V/T= 2.0036
 KE= 5.007943361699D+02 PE=-2.824978168935D+03 EE= 9.922878975317D+02
 Leave Link  502 at Sat Mar  4 11:43:28 2023, MaxMem=  1048576000 cpu:             122.9 elap:             123.4
 (Enter /ssoft/spack/external/gaussian/g16-C.01/avx2/g16/l801.exe)
 DoSCS=F DFT=T ScalE2(SS,OS)=  1.000000  1.000000
 Range of M.O.s used for correlation:     1   278
 NBasis=   278 NAE=    48 NBE=    48 NFC=     0 NFV=     0
 NROrb=    278 NOA=    48 NOB=    48 NVA=   230 NVB=   230
 Leave Link  801 at Sat Mar  4 11:43:28 2023, MaxMem=  1048576000 cpu:               0.0 elap:               0.0
 (Enter /ssoft/spack/external/gaussian/g16-C.01/avx2/g16/l1101.exe)
 Using compressed storage, NAtomX=    34.
 Will process     35 centers per pass.
   1 Symmetry operations used in ECPInt.
 ECPInt:  NShTT=    9591 NPrTT=   32607 LenC2=    9489 LenP2D=   25250.
 LDataN:  DoStor=T MaxTD1= 5 Len=  102
 R6Disp: Adding Grimme-D3(BJ) dispersion energy 1st derivatives to the gradient.
 Leave Link 1101 at Sat Mar  4 11:43:29 2023, MaxMem=  1048576000 cpu:               0.3 elap:               0.4
 (Enter /ssoft/spack/external/gaussian/g16-C.01/avx2/g16/l1102.exe)
 Symmetrizing basis deriv contribution to polar:
 IMax=3 JMax=2 DiffMx= 0.00D+00
 Leave Link 1102 at Sat Mar  4 11:43:29 2023, MaxMem=  1048576000 cpu:               0.0 elap:               0.0
 (Enter /ssoft/spack/external/gaussian/g16-C.01/avx2/g16/l1110.exe)
 Forming Gx(P) for the SCF density, NAtomX=    34.
 Integral derivatives from FoFJK, PRISM(SPDF).
 Do as many integral derivatives as possible in FoFJK.
 G2DrvN: MDV=    1048572362.
 G2DrvN: will do    35 centers at a time, making    1 passes.
 Calling FoFCou, ICntrl=  3107 FMM=F I1Cent=   0 AccDes= 0.00D+00.
 FoFJK:  IHMeth= 1 ICntrl=    3107 DoSepK=F KAlg= 0 I1Cent=           0 FoldK=F
 IRaf=         0 NMat=       1 IRICut=       1 DoRegI=T DoRafI=F ISym2E= 0 IDoP0=0 IntGTp=1.
 FoFCou: FMM=F IPFlag=           0 FMFlag=      100000 FMFlg1=           0
         NFxFlg=           0 DoJE=F BraDBF=F KetDBF=F FulRan=T
         wScrn=  0.000000 ICntrl=      3107 IOpCl=  0 I1Cent=           0 NGrid=           0
         NMat0=    1 NMatS0=      1 NMatT0=    0 NMatD0=    1 NMtDS0=    0 NMtDT0=    0
 Symmetry not used in FoFCou.
 End of G2Drv F.D. properties file   721 does not exist.
 End of G2Drv F.D. properties file   722 does not exist.
 End of G2Drv F.D. properties file   788 does not exist.
 Leave Link 1110 at Sat Mar  4 11:53:36 2023, MaxMem=  1048576000 cpu:             603.8 elap:             606.8
 (Enter /ssoft/spack/external/gaussian/g16-C.01/avx2/g16/l1002.exe)
 Minotr:  Closed shell wavefunction.
          IDoAtm=1111111111111111111111111111111111
          Direct CPHF calculation.
          Differentiating once with respect to electric field.
                with respect to dipole field.
          Differentiating once with respect to nuclear coordinates.
          Requested convergence is 1.0D-08 RMS, and 1.0D-07 maximum.
          Secondary convergence is 1.0D-12 RMS, and 1.0D-12 maximum.
          NewPWx=T KeepS1=F KeepF1=F KeepIn=T MapXYZ=F SortEE=F KeepMc=T.
        10203 words used for storage of precomputed grid.
 Keep R1 ints in memory in canonical form, NReq=764340273.
 FoFCou: FMM=F IPFlag=           0 FMFlag=           0 FMFlg1=           0
         NFxFlg=           0 DoJE=F BraDBF=F KetDBF=F FulRan=T
         wScrn=  0.000000 ICntrl=       600 IOpCl=  0 I1Cent=           0 NGrid=           0
         NMat0=    1 NMatS0=  38781 NMatT0=    0 NMatD0=    1 NMtDS0=    0 NMtDT0=    0
 Symmetry not used in FoFCou.
 Two-electron integral symmetry not used.
          MDV=    1048576000 using IRadAn=       1.
          Solving linear equations simultaneously, MaxMat=       0.
          There are   105 degrees of freedom in the 1st order CPHF.  IDoFFX=6 NUNeed=     3.
    102 vectors produced by pass  0 Test12= 1.10D-14 1.00D-09 XBig12= 5.64D+01 1.64D+00.
 AX will form   102 AO Fock derivatives at one time.
    102 vectors produced by pass  1 Test12= 1.10D-14 1.00D-09 XBig12= 5.69D+00 2.91D-01.
    102 vectors produced by pass  2 Test12= 1.10D-14 1.00D-09 XBig12= 9.36D-02 3.23D-02.
    102 vectors produced by pass  3 Test12= 1.10D-14 1.00D-09 XBig12= 1.58D-04 1.44D-03.
    102 vectors produced by pass  4 Test12= 1.10D-14 1.00D-09 XBig12= 1.89D-07 4.09D-05.
     61 vectors produced by pass  5 Test12= 1.10D-14 1.00D-09 XBig12= 1.64D-10 9.99D-07.
      3 vectors produced by pass  6 Test12= 1.10D-14 1.00D-09 XBig12= 1.45D-13 3.29D-08.
      1 vectors produced by pass  7 Test12= 1.10D-14 1.00D-09 XBig12= 1.38D-16 1.01D-09.
 InvSVY:  IOpt=1 It=  1 EMax= 5.33D-15
 Solved reduced A of dimension   575 with   105 vectors.
 FullF1:  Do perturbations      1 to       3.
 Isotropic polarizability for W=    0.000000      105.89 Bohr**3.
 End of Minotr F.D. properties file   721 does not exist.
 End of Minotr F.D. properties file   722 does not exist.
 End of Minotr F.D. properties file   788 does not exist.
 Leave Link 1002 at Sat Mar  4 12:03:27 2023, MaxMem=  1048576000 cpu:             587.2 elap:             590.8
 (Enter /ssoft/spack/external/gaussian/g16-C.01/avx2/g16/l601.exe)
 Copying SCF densities to generalized density rwf, IOpCl= 0 IROHF=0.

 **********************************************************************

            Population analysis using the SCF Density.

 **********************************************************************

 Orbital symmetries:
       Occupied  (A) (A) (A) (A) (A) (A) (A) (A) (A) (A) (A) (A)
                 (A) (A) (A) (A) (A) (A) (A) (A) (A) (A) (A) (A)
                 (A) (A) (A) (A) (A) (A) (A) (A) (A) (A) (A) (A)
                 (A) (A) (A) (A) (A) (A) (A) (A) (A) (A) (A) (A)
       Virtual   (A) (A) (A) (A) (A) (A) (A) (A) (A) (A) (A) (A)
                 (A) (A) (A) (A) (A) (A) (A) (A) (A) (A) (A) (A)
                 (A) (A) (A) (A) (A) (A) (A) (A) (A) (A) (A) (A)
                 (A) (A) (A) (A) (A) (A) (A) (A) (A) (A) (A) (A)
                 (A) (A) (A) (A) (A) (A) (A) (A) (A) (A) (A) (A)
                 (A) (A) (A) (A) (A) (A) (A) (A) (A) (A) (A) (A)
                 (A) (A) (A) (A) (A) (A) (A) (A) (A) (A) (A) (A)
                 (A) (A) (A) (A) (A) (A) (A) (A) (A) (A) (A) (A)
                 (A) (A) (A) (A) (A) (A) (A) (A) (A) (A) (A) (A)
                 (A) (A) (A) (A) (A) (A) (A) (A) (A) (A) (A) (A)
                 (A) (A) (A) (A) (A) (A) (A) (A) (A) (A) (A) (A)
                 (A) (A) (A) (A) (A) (A) (A) (A) (A) (A) (A) (A)
                 (A) (A) (A) (A) (A) (A) (A) (A) (A) (A) (A) (A)
                 (A) (A) (A) (A) (A) (A) (A) (A) (A) (A) (A) (A)
                 (A) (A) (A) (A) (A) (A) (A) (A) (A) (A) (A) (A)
                 (A) (A) (A) (A) (A) (A) (A) (A) (A) (A) (A) (A)
                 (A) (A) (A) (A) (A) (A) (A) (A) (A) (A) (A) (A)
                 (A) (A) (A) (A) (A) (A) (A) (A) (A) (A) (A) (A)
                 (A) (A) (A) (A) (A) (A) (A) (A) (A) (A) (A) (A)
                 (A) (A)
 The electronic state is 1-A.
 Alpha  occ. eigenvalues --  -14.35609 -14.35363 -10.22799 -10.22777 -10.20070
 Alpha  occ. eigenvalues --  -10.20039 -10.20035 -10.19975 -10.19818 -10.19731
 Alpha  occ. eigenvalues --  -10.19465 -10.19326  -0.93025  -0.90618  -0.84646
 Alpha  occ. eigenvalues --   -0.76582  -0.76076  -0.73421  -0.73126  -0.67176
 Alpha  occ. eigenvalues --   -0.66457  -0.61064  -0.60786  -0.57893  -0.50993
 Alpha  occ. eigenvalues --   -0.49392  -0.48434  -0.48339  -0.47324  -0.46207
 Alpha  occ. eigenvalues --   -0.45543  -0.44223  -0.43926  -0.42610  -0.41460
 Alpha  occ. eigenvalues --   -0.40695  -0.39533  -0.38236  -0.37977  -0.37508
 Alpha  occ. eigenvalues --   -0.36859  -0.35898  -0.35342  -0.32855  -0.32777
 Alpha  occ. eigenvalues --   -0.31266  -0.20616  -0.18780
 Alpha virt. eigenvalues --    0.07557   0.08939   0.09424   0.09602   0.12579
 Alpha virt. eigenvalues --    0.13173   0.14115   0.14395   0.14856   0.14929
 Alpha virt. eigenvalues --    0.16010   0.16251   0.16347   0.17212   0.17872
 Alpha virt. eigenvalues --    0.19291   0.20090   0.20621   0.21492   0.22715
 Alpha virt. eigenvalues --    0.22879   0.23210   0.23574   0.24584   0.25096
 Alpha virt. eigenvalues --    0.25449   0.26531   0.26748   0.28081   0.29464
 Alpha virt. eigenvalues --    0.29642   0.30326   0.32197   0.32855   0.43062
 Alpha virt. eigenvalues --    0.43706   0.43917   0.45068   0.47397   0.47838
 Alpha virt. eigenvalues --    0.50388   0.50418   0.50681   0.52213   0.52740
 Alpha virt. eigenvalues --    0.54092   0.58024   0.59906   0.62874   0.64282
 Alpha virt. eigenvalues --    0.65226   0.66211   0.66762   0.67560   0.67889
 Alpha virt. eigenvalues --    0.69381   0.69932   0.70016   0.70801   0.71232
 Alpha virt. eigenvalues --    0.73328   0.73616   0.74131   0.74334   0.75358
 Alpha virt. eigenvalues --    0.75543   0.76178   0.76887   0.77202   0.77453
 Alpha virt. eigenvalues --    0.77929   0.78118   0.79338   0.79865   0.80310
 Alpha virt. eigenvalues --    0.81004   0.81139   0.81577   0.82236   0.83198
 Alpha virt. eigenvalues --    0.83492   0.84204   0.85037   0.85487   0.87209
 Alpha virt. eigenvalues --    0.88097   0.91029   0.95791   0.96382   0.98224
 Alpha virt. eigenvalues --    1.00164   1.04786   1.07883   1.11731   1.12249
 Alpha virt. eigenvalues --    1.13807   1.14956   1.16961   1.17470   1.19738
 Alpha virt. eigenvalues --    1.20189   1.23880   1.24930   1.28665   1.31991
 Alpha virt. eigenvalues --    1.32389   1.33132   1.34135   1.36421   1.40157
 Alpha virt. eigenvalues --    1.42369   1.43292   1.49258   1.50096   1.53289
 Alpha virt. eigenvalues --    1.56204   1.58304   1.61240   1.61308   1.64231
 Alpha virt. eigenvalues --    1.64320   1.66692   1.66784   1.68932   1.69448
 Alpha virt. eigenvalues --    1.75835   1.76106   1.78666   1.79054   1.82290
 Alpha virt. eigenvalues --    1.82618   1.83913   1.84462   1.84924   1.85317
 Alpha virt. eigenvalues --    1.88126   1.88465   1.90421   1.91457   1.91694
 Alpha virt. eigenvalues --    1.92439   1.93764   1.94143   1.94317   1.94675
 Alpha virt. eigenvalues --    1.96308   1.98011   1.99126   1.99447   2.01538
 Alpha virt. eigenvalues --    2.01750   2.03202   2.03780   2.04448   2.06548
 Alpha virt. eigenvalues --    2.06787   2.07985   2.08675   2.11268   2.11528
 Alpha virt. eigenvalues --    2.13505   2.16583   2.17078   2.17766   2.19744
 Alpha virt. eigenvalues --    2.21102   2.21368   2.25427   2.26225   2.28314
 Alpha virt. eigenvalues --    2.29770   2.30354   2.30589   2.37942   2.38136
 Alpha virt. eigenvalues --    2.39878   2.40232   2.41559   2.47314   2.47915
 Alpha virt. eigenvalues --    2.49184   2.49444   2.55896   2.58446   2.58818
 Alpha virt. eigenvalues --    2.61424   2.64410   2.64578   2.67047   2.67911
 Alpha virt. eigenvalues --    2.68107   2.68895   2.72471   2.73265   2.75926
 Alpha virt. eigenvalues --    2.80907   2.82497   2.84240   2.84783   2.88907
 Alpha virt. eigenvalues --    2.91288   2.93685   2.95206   2.96101   3.00263
 Alpha virt. eigenvalues --    3.01077   3.03240   3.08500   3.09062   3.14140
 Alpha virt. eigenvalues --    3.14431   3.15968   3.16109   3.17210   3.17414
 Alpha virt. eigenvalues --    3.17913   3.20585   3.21784   3.25341   3.26043
 Alpha virt. eigenvalues --    3.26491   3.27359   3.28986   3.30437   3.31602
 Alpha virt. eigenvalues --    3.34380   3.36380   3.36478   3.38264   3.47169
     Molecular Orbital Coefficients:
                          44        45        46        47        48
                           O         O         O         O         O
     Eigenvalues --    -0.32855  -0.32777  -0.31266  -0.20616  -0.18780
   1 1   N  1S          0.02028  -0.01959   0.00154   0.05354  -0.05035
   2        2S          0.04543  -0.04066   0.00437   0.11085  -0.11615
   3        3S          0.04280  -0.07819  -0.01205   0.15535  -0.08555
   4        4PX        -0.13751   0.09832   0.03469  -0.26982   0.23171
   5        4PY        -0.05706   0.10523   0.13969   0.27598  -0.27453
   6        4PZ         0.04704   0.13053  -0.03717  -0.03155   0.03363
   7        5PX         0.08357  -0.05772  -0.01428   0.23624  -0.16750
   8        5PY         0.03491  -0.06978  -0.08853  -0.23153   0.23941
   9        5PZ        -0.01470  -0.06167   0.01007   0.03266  -0.02340
  10        6D 0        0.00027   0.00600   0.00190   0.00426  -0.00528
  11        6D+1        0.00653   0.00702  -0.00369  -0.00041   0.00121
  12        6D-1        0.00304   0.00143  -0.00271   0.00157  -0.00016
  13        6D+2       -0.00305   0.00485   0.00888   0.00013  -0.00051
  14        6D-2        0.00439  -0.00306   0.00179   0.00635  -0.00954
  15 2   N  1S         -0.02772   0.00871  -0.00142   0.04241   0.05584
  16        2S         -0.05960   0.02101  -0.00205   0.08563   0.12714
  17        3S         -0.08886   0.00062  -0.02067   0.13769   0.09974
  18        4PX        -0.15114   0.07235  -0.04309   0.22227   0.26886
  19        4PY         0.10260  -0.00366   0.14291   0.23010   0.32948
  20        4PZ        -0.09568  -0.10500   0.02842   0.01044   0.01771
  21        5PX         0.09109  -0.04496   0.02000  -0.20264  -0.20282
  22        5PY        -0.06754  -0.00125  -0.09035  -0.19231  -0.28606
  23        5PZ         0.04834   0.04436  -0.00448  -0.01730  -0.01135
  24        6D 0        0.00469   0.00321   0.00168   0.00327   0.00587
  25        6D+1        0.00296   0.00934  -0.00382   0.00028  -0.00059
  26        6D-1        0.00048  -0.00306   0.00326  -0.00108   0.00030
  27        6D+2        0.00449   0.00009   0.00889   0.00010   0.00118
  28        6D-2        0.00509  -0.00188  -0.00119  -0.00439  -0.01017
  29 3   C  1S          0.01733   0.01184  -0.00161   0.02636   0.00672
  30        2S         -0.04202  -0.03381   0.00547  -0.05804  -0.01059
  31        3S         -0.03708  -0.09032  -0.00414  -0.08680  -0.20963
  32        4PX         0.02630   0.00206   0.24999  -0.09283  -0.04765
  33        4PY        -0.17719   0.06890   0.01105   0.10214  -0.06403
  34        4PZ         0.12091   0.22416  -0.07419   0.03573   0.02989
  35        5PX         0.04401  -0.02139   0.13446  -0.00640  -0.10088
  36        5PY        -0.07964   0.01247  -0.01134   0.00041  -0.00499
  37        5PZ         0.02164   0.07298  -0.01055   0.05598   0.06843
  38        6D 0        0.00771   0.02227  -0.00188  -0.00283   0.00159
  39        6D+1       -0.00043   0.00198  -0.00808   0.00130   0.00293
  40        6D-1        0.00493   0.00125  -0.00065  -0.00336   0.00182
  41        6D+2       -0.00796   0.00519   0.01047  -0.01785   0.01126
  42        6D-2        0.01008  -0.00953  -0.00523  -0.01087   0.01086
  43 4   H  1S          0.10019   0.23056  -0.04609  -0.01432   0.01674
  44        2S          0.07946   0.15024  -0.04049  -0.02061   0.01981
  45        3PX        -0.00053  -0.00207   0.00682  -0.00405  -0.00013
  46        3PY        -0.00445   0.00186  -0.00004   0.00352  -0.00212
  47        3PZ        -0.00099  -0.00478  -0.00001   0.00141   0.00082
  48 5   C  1S          0.01870   0.00950   0.00982  -0.01919  -0.01564
  49        2S         -0.04636  -0.02827  -0.02843   0.03802   0.03722
  50        3S         -0.05615  -0.02148  -0.02542   0.18877   0.06138
  51        4PX         0.07513   0.04881   0.18391  -0.06821  -0.03947
  52        4PY        -0.17773   0.15949  -0.02835  -0.09424  -0.10246
  53        4PZ         0.09245   0.09025  -0.05268  -0.01828  -0.03129
  54        5PX         0.03698   0.01817   0.07229  -0.07917  -0.04523
  55        5PY        -0.09144   0.07756  -0.03632  -0.05740  -0.02940
  56        5PZ         0.03375   0.00617  -0.01163  -0.03527  -0.05595
  57        6D 0        0.00802   0.01095  -0.00455   0.00180   0.00012
  58        6D+1        0.00174   0.00343  -0.00813   0.00237   0.00019
  59        6D-1        0.00672   0.00033  -0.00076   0.00267   0.00144
  60        6D+2        0.00038   0.00430   0.01708  -0.00184   0.00236
  61        6D-2        0.00542  -0.00681   0.00218   0.00168   0.00346
  62 6   H  1S         -0.00270  -0.00439   0.19153  -0.03625   0.00417
  63        2S         -0.00007  -0.00886   0.11871  -0.04732  -0.00995
  64        3PX         0.00165   0.00144  -0.00222   0.00007   0.00036
  65        3PY        -0.00534   0.00390  -0.00057  -0.00253  -0.00298
  66        3PZ         0.00341   0.00411   0.00320  -0.00088  -0.00037
  67 7   H  1S          0.08597   0.10007  -0.04445   0.00584  -0.00845
  68        2S          0.06179   0.08100  -0.02429  -0.00599   0.01278
  69        3PX         0.00125   0.00087   0.00725  -0.00108   0.00003
  70        3PY        -0.00453   0.00468  -0.00057  -0.00285  -0.00365
  71        3PZ        -0.00119  -0.00102  -0.00085  -0.00012  -0.00002
  72 8   C  1S          0.00057   0.02084  -0.00459   0.02546  -0.00139
  73        2S         -0.00672  -0.05371   0.01189  -0.05482  -0.00201
  74        3S         -0.05434  -0.06695   0.00345  -0.12103   0.19283
  75        4PX         0.01377  -0.01949  -0.24660   0.09275  -0.02769
  76        4PY         0.14038  -0.12968   0.01083   0.08874   0.07921
  77        4PZ        -0.13923  -0.20736   0.07632  -0.04198   0.01818
  78        5PX         0.04085  -0.02776  -0.12963   0.02305  -0.09231
  79        5PY         0.05010  -0.06730  -0.01354   0.00522  -0.00087
  80        5PZ        -0.04964  -0.05058   0.01292  -0.06680   0.05746
  81        6D 0        0.01601   0.01731  -0.00168  -0.00225  -0.00180
  82        6D+1        0.00194   0.00025  -0.00824   0.00162  -0.00267
  83        6D-1        0.00238  -0.00468   0.00054   0.00230   0.00137
  84        6D+2        0.00681  -0.00411   0.00978  -0.01663  -0.01624
  85        6D-2        0.01361  -0.00506   0.00723   0.00682   0.01193
  86 9   H  1S          0.15423   0.19509  -0.04557  -0.00784  -0.01617
  87        2S          0.09655   0.13771  -0.04016  -0.01558  -0.01946
  88        3PX         0.00155   0.00153  -0.00662   0.00380   0.00062
  89        3PY         0.00381  -0.00299  -0.00003   0.00310   0.00286
  90        3PZ         0.00364   0.00315   0.00011  -0.00151   0.00046
  91 10  C  1S          0.00015   0.01653  -0.00943   0.01382   0.01190
  92        2S          0.00108  -0.04424   0.02464  -0.03090  -0.02781
  93        3S         -0.00500  -0.02872   0.03512  -0.04490  -0.02382
  94        4PX        -0.06194   0.09196  -0.07040   0.07517   0.06760
  95        4PY         0.01563  -0.01656   0.05692   0.03499   0.05119
  96        4PZ        -0.02154  -0.06231   0.03815  -0.02211  -0.01840
  97        5PX        -0.02350   0.03766  -0.04157   0.01064  -0.00615
  98        5PY         0.00993   0.00061   0.01814  -0.01175  -0.01553
  99        5PZ        -0.00681  -0.03075   0.03022  -0.01163  -0.01522
 100        6D 0        0.00891  -0.00030   0.00280  -0.00789  -0.00933
 101        6D+1        0.00016   0.00519  -0.00459  -0.00190  -0.00388
 102        6D-1        0.00036  -0.00213  -0.00057  -0.00746  -0.01023
 103        6D+2       -0.00072  -0.00234   0.00416   0.00514   0.00873
 104        6D-2        0.00230   0.00130   0.00653   0.01164   0.01718
 105 11  H  1S         -0.02597   0.02413   0.02196   0.09398   0.11983
 106        2S         -0.01396   0.01060   0.02283   0.11140   0.15226
 107        3PX        -0.00123   0.00212  -0.00244   0.00174   0.00229
 108        3PY         0.00242  -0.00232   0.00266  -0.00173  -0.00160
 109        3PZ        -0.00120  -0.00170   0.00075  -0.00163  -0.00197
 110 12  H  1S          0.05209   0.00775  -0.00031  -0.04737  -0.05291
 111        2S          0.03164   0.00882   0.00070  -0.02168  -0.05029
 112        3PX        -0.00112   0.00161  -0.00172   0.00122   0.00082
 113        3PY         0.00150   0.00024   0.00190   0.00251   0.00335
 114        3PZ         0.00068  -0.00158   0.00074  -0.00101  -0.00084
 115 13  H  1S         -0.05046   0.02192  -0.06816  -0.02974  -0.05537
 116        2S         -0.02592   0.01970  -0.04521  -0.01778  -0.04046
 117        3PX        -0.00111   0.00197  -0.00062   0.00308   0.00298
 118        3PY        -0.00250   0.00099  -0.00118   0.00163   0.00218
 119        3PZ        -0.00027  -0.00166   0.00132   0.00050   0.00137
 120 14  C  1S         -0.00746  -0.00586   0.00244   0.01111   0.01381
 121        2S          0.02119   0.01777  -0.00312  -0.02959  -0.02893
 122        3S          0.03574   0.03181  -0.02438  -0.01270  -0.03785
 123        4PX        -0.07680   0.02242  -0.01274   0.05351   0.05905
 124        4PY        -0.00376   0.00434   0.03860   0.04362   0.04965
 125        4PZ        -0.10471  -0.10866   0.01362   0.02852   0.03996
 126        5PX        -0.03672  -0.00003  -0.00724  -0.01294  -0.00492
 127        5PY         0.00161  -0.00480   0.00457  -0.00504  -0.00987
 128        5PZ        -0.05776  -0.05833   0.00554   0.00167   0.03065
 129        6D 0        0.00718  -0.00044   0.00150  -0.00741  -0.00958
 130        6D+1        0.00009   0.00739  -0.00298   0.00639   0.00798
 131        6D-1        0.00291   0.00027   0.00508   0.00876   0.01287
 132        6D+2        0.00012   0.00083   0.00149   0.00286   0.00414
 133        6D-2        0.00075   0.00237   0.00409   0.00993   0.01282
 134 15  H  1S         -0.04240   0.02453   0.02584   0.09104   0.10888
 135        2S         -0.02325   0.01862   0.03083   0.10847   0.13913
 136        3PX        -0.00070   0.00034  -0.00135   0.00054   0.00103
 137        3PY         0.00365  -0.00019   0.00096  -0.00121  -0.00045
 138        3PZ        -0.00263  -0.00273   0.00007   0.00254   0.00296
 139 16  H  1S         -0.04112  -0.00657  -0.04732  -0.04055  -0.05206
 140        2S         -0.02346  -0.00784  -0.02941  -0.02340  -0.03700
 141        3PX        -0.00163   0.00171   0.00020   0.00298   0.00284
 142        3PY        -0.00269  -0.00019  -0.00075   0.00153   0.00121
 143        3PZ        -0.00196  -0.00313   0.00086   0.00015  -0.00069
 144 17  H  1S          0.00250  -0.07360   0.02644  -0.04137  -0.04147
 145        2S          0.00355  -0.03615   0.02145  -0.02132  -0.04826
 146        3PX        -0.00339  -0.00351   0.00013   0.00131   0.00099
 147        3PY         0.00065   0.00179   0.00170   0.00231   0.00355
 148        3PZ        -0.00186  -0.00003  -0.00060   0.00048   0.00108
 149 18  C  1S         -0.00021   0.02125   0.00949  -0.02166   0.01059
 150        2S         -0.00328  -0.05529  -0.02783   0.04368  -0.02620
 151        3S          0.00227  -0.05874  -0.02508   0.20575  -0.02870
 152        4PX        -0.01525  -0.09174  -0.18386   0.08383  -0.03009
 153        4PY         0.21411  -0.08552  -0.01999  -0.10933   0.07953
 154        4PZ        -0.05053  -0.11832   0.05342   0.02724  -0.02785
 155        5PX        -0.00513  -0.04071  -0.07094   0.09259  -0.03141
 156        5PY         0.10639  -0.04631  -0.03127  -0.06043   0.01484
 157        5PZ         0.00529  -0.03172   0.01181   0.04749  -0.04621
 158        6D 0        0.00733   0.01172  -0.00521   0.00166   0.00063
 159        6D+1        0.00259   0.00266  -0.00783   0.00244   0.00023
 160        6D-1        0.00346  -0.00647   0.00068  -0.00272   0.00069
 161        6D+2        0.00188   0.00353   0.01759  -0.00130  -0.00306
 162        6D-2        0.00830  -0.00103   0.00059  -0.00230   0.00274
 163 19  H  1S          0.06289   0.11602  -0.04947   0.00120   0.01221
 164        2S          0.05127   0.08962  -0.02750  -0.00666  -0.00869
 165        3PX        -0.00018  -0.00191  -0.00730   0.00136   0.00013
 166        3PY         0.00586  -0.00189  -0.00044  -0.00352   0.00314
 167        3PZ         0.00061   0.00139   0.00055  -0.00001   0.00012
 168 20  H  1S         -0.01345   0.00877   0.19516  -0.03665  -0.01138
 169        2S         -0.01421   0.00374   0.12144  -0.04967  -0.00144
 170        3PX        -0.00103  -0.00168   0.00238  -0.00009   0.00043
 171        3PY         0.00567  -0.00293   0.00001  -0.00321   0.00246
 172        3PZ        -0.00230  -0.00510  -0.00296   0.00111  -0.00028
 173 21  C  1S         -0.00104  -0.00989   0.00262   0.01376  -0.01217
 174        2S          0.00382   0.02864  -0.00373  -0.03495   0.02430
 175        3S          0.01231   0.04596  -0.02413  -0.02217   0.03780
 176        4PX        -0.05949   0.06034   0.00942  -0.06540   0.05053
 177        4PY         0.00116   0.01347   0.04118   0.05073  -0.04025
 178        4PZ         0.04410   0.14176  -0.01730  -0.03963   0.03944
 179        5PX        -0.01789   0.03274   0.00627   0.01146  -0.00324
 180        5PY        -0.00511   0.00460   0.00569  -0.00654   0.00971
 181        5PZ         0.02359   0.07813  -0.00697  -0.00672   0.03177
 182        6D 0       -0.00399   0.00680   0.00151  -0.00818   0.00744
 183        6D+1        0.00678   0.00314  -0.00272   0.00844  -0.00751
 184        6D-1        0.00120  -0.00291  -0.00509  -0.01119   0.01135
 185        6D+2        0.00033   0.00106   0.00187   0.00393  -0.00395
 186        6D-2       -0.00110  -0.00230  -0.00431  -0.01149   0.01029
 187 22  H  1S          0.03885  -0.02148   0.02996   0.11011  -0.09228
 188        2S          0.02589  -0.00855   0.03282   0.13105  -0.11952
 189        3PX        -0.00084   0.00071   0.00133  -0.00060   0.00084
 190        3PY        -0.00188   0.00343   0.00078  -0.00147   0.00041
 191        3PZ         0.00115   0.00341  -0.00014  -0.00296   0.00247
 192 23  H  1S          0.01992  -0.04902  -0.04845  -0.04793   0.04297
 193        2S          0.00832  -0.03022  -0.02989  -0.02884   0.02960
 194        3PX        -0.00227   0.00063  -0.00036  -0.00356   0.00243
 195        3PY         0.00131  -0.00248  -0.00071   0.00173  -0.00098
 196        3PZ         0.00175   0.00320  -0.00083  -0.00022  -0.00057
 197 24  H  1S         -0.06910  -0.02589   0.02560  -0.04861   0.03428
 198        2S         -0.03596  -0.00978   0.02050  -0.02655   0.04493
 199        3PX         0.00145   0.00439  -0.00023  -0.00146   0.00090
 200        3PY         0.00104   0.00179   0.00185   0.00288  -0.00311
 201        3PZ        -0.00109   0.00182   0.00047  -0.00073   0.00121
 202 25  C  1S          0.01107  -0.00291  -0.00748   0.00972   0.00628
 203        2S         -0.03259   0.00766   0.02096  -0.02024  -0.01228
 204        3S         -0.05036   0.00175   0.03907  -0.09139  -0.08823
 205        4PX        -0.06015  -0.06837  -0.23831   0.01630  -0.01235
 206        4PY         0.19585  -0.12553   0.02869   0.03825   0.05066
 207        4PZ        -0.04082  -0.04218   0.03071  -0.00732   0.00125
 208        5PX        -0.02628  -0.03474  -0.10602  -0.01287  -0.02588
 209        5PY         0.07604  -0.05080   0.02202   0.04130   0.04757
 210        5PZ        -0.00974   0.00747   0.01540  -0.01973  -0.00485
 211        6D 0        0.00539   0.00841  -0.00029  -0.00135  -0.00131
 212        6D+1       -0.00014  -0.00086  -0.00770   0.00005  -0.00103
 213        6D-1        0.00209  -0.00450   0.00175   0.00165   0.00183
 214        6D+2       -0.00121   0.00596   0.00917  -0.00472  -0.00367
 215        6D-2        0.01338  -0.01002  -0.00296   0.00147   0.00411
 216 26  H  1S          0.04764   0.05802  -0.00972  -0.00665  -0.00907
 217        2S          0.04344   0.05190  -0.01476  -0.00051   0.00344
 218        3PX        -0.00133  -0.00256  -0.00710   0.00107   0.00021
 219        3PY         0.00631  -0.00498   0.00015   0.00092   0.00154
 220        3PZ         0.00107  -0.00033   0.00036  -0.00036  -0.00009
 221 27  C  1S          0.01438   0.00762  -0.00873   0.01609  -0.01008
 222        2S         -0.03909  -0.01884   0.02262  -0.03584   0.02451
 223        3S         -0.02575  -0.01589   0.03544  -0.05025   0.01837
 224        4PX        -0.11426   0.01218   0.06963  -0.08769   0.05664
 225        4PY        -0.01942   0.00852   0.05175   0.04280  -0.04321
 226        4PZ         0.04500   0.04236  -0.03933   0.02292  -0.01360
 227        5PX        -0.04687   0.00388   0.04252  -0.01080  -0.00838
 228        5PY        -0.00375   0.01044   0.01524  -0.01337   0.01310
 229        5PZ         0.02528   0.01689  -0.03069   0.01559  -0.01554
 230        6D 0       -0.00472   0.00752   0.00239  -0.01022   0.00868
 231        6D+1        0.00475   0.00223  -0.00423  -0.00124   0.00218
 232        6D-1        0.00147   0.00141   0.00103   0.00806  -0.00792
 233        6D+2       -0.00203  -0.00171   0.00432   0.00591  -0.00711
 234        6D-2        0.00043  -0.00270  -0.00685  -0.01412   0.01469
 235 28  H  1S          0.03462  -0.01100   0.02166   0.11053  -0.10012
 236        2S          0.01664  -0.00688   0.02331   0.13365  -0.13082
 237        3PX        -0.00248   0.00003   0.00232  -0.00209   0.00197
 238        3PY        -0.00334   0.00123   0.00291  -0.00190   0.00130
 239        3PZ         0.00110   0.00161  -0.00094   0.00199  -0.00169
 240 29  H  1S         -0.01811   0.04559  -0.00140  -0.05476   0.04353
 241        2S         -0.00780   0.03026   0.00018  -0.02878   0.04464
 242        3PX        -0.00207   0.00042   0.00170  -0.00147   0.00086
 243        3PY        -0.00034   0.00143   0.00172   0.00299  -0.00277
 244        3PZ         0.00170   0.00014  -0.00077   0.00101  -0.00053
 245 30  H  1S          0.04488  -0.03389  -0.06583  -0.03575   0.04634
 246        2S          0.03056  -0.01390  -0.04384  -0.02121   0.03273
 247        3PX        -0.00239   0.00009   0.00068  -0.00361   0.00255
 248        3PY         0.00220  -0.00167  -0.00116   0.00191  -0.00189
 249        3PZ         0.00116   0.00100  -0.00119  -0.00076   0.00120
 250 31  C  1S         -0.00533   0.00822  -0.00760   0.01006  -0.00408
 251        2S          0.01559  -0.02469   0.02136  -0.02124   0.00750
 252        3S          0.01664  -0.03862   0.04730  -0.10442   0.06939
 253        4PX         0.03056   0.08816   0.23366  -0.01740  -0.01071
 254        4PY        -0.19297   0.12155   0.02545   0.04493  -0.04240
 255        4PZ         0.04018   0.04511  -0.03112   0.00548   0.00296
 256        5PX         0.01689   0.04164   0.10393   0.01346  -0.01858
 257        5PY        -0.07551   0.04456   0.01875   0.04856  -0.04017
 258        5PZ        -0.00271   0.00171  -0.01666   0.02029  -0.00225
 259        6D 0        0.00678   0.00777  -0.00052  -0.00172   0.00133
 260        6D+1       -0.00059  -0.00076  -0.00756  -0.00021   0.00097
 261        6D-1        0.00516  -0.00012  -0.00202  -0.00208   0.00159
 262        6D+2        0.00337   0.00304   0.00917  -0.00526   0.00225
 263        6D-2        0.01523  -0.00698   0.00543  -0.00288   0.00420
 264 32  H  1S          0.05039   0.05820  -0.01152  -0.00988   0.00910
 265        2S          0.03888   0.05600  -0.01612  -0.00220  -0.00089
 266        3PX         0.00154   0.00249   0.00706  -0.00121   0.00010
 267        3PY        -0.00699   0.00350   0.00001   0.00111  -0.00129
 268        3PZ         0.00028  -0.00049  -0.00023   0.00039  -0.00002
 269 33  H  1S         -0.18084   0.02679  -0.08846   0.04311  -0.03501
 270        2S         -0.10274   0.01804  -0.05608   0.04883  -0.03600
 271        3PX        -0.00394   0.00324   0.00498   0.00046  -0.00097
 272        3PY         0.00125   0.00201   0.00427   0.00065  -0.00090
 273        3PZ        -0.00208   0.00279  -0.00302   0.00063  -0.00055
 274 34  H  1S          0.10773  -0.14955  -0.07550   0.03461   0.04096
 275        2S          0.06319  -0.08417  -0.04864   0.04013   0.04335
 276        3PX        -0.00445   0.00176  -0.00570  -0.00021  -0.00115
 277        3PY         0.00090   0.00204   0.00392   0.00049   0.00100
 278        3PZ        -0.00423   0.00117   0.00275  -0.00054  -0.00070
                          49        50        51        52        53
                           V         V         V         V         V
     Eigenvalues --     0.07557   0.08939   0.09424   0.09602   0.12579
   1 1   N  1S         -0.00338  -0.01172  -0.03460   0.01423  -0.00840
   2        2S          0.01182  -0.02542  -0.08391   0.04579  -0.01452
   3        3S         -0.16725  -0.06980  -0.20006  -0.03291  -0.11510
   4        4PX         0.00040  -0.00058   0.01118  -0.01623  -0.01687
   5        4PY         0.04526   0.00807   0.03638   0.00685   0.02235
   6        4PZ        -0.00445  -0.00245   0.00092  -0.00898   0.01940
   7        5PX         0.00307   0.02404   0.03063   0.05681   0.09145
   8        5PY        -0.04133  -0.00417  -0.04471   0.02368  -0.02674
   9        5PZ         0.00291   0.08991   0.02444   0.03104  -0.04619
  10        6D 0        0.00138  -0.00013  -0.00314  -0.00035  -0.00522
  11        6D+1        0.00111  -0.00164   0.00053   0.00153   0.00102
  12        6D-1        0.00272  -0.00331  -0.00179  -0.00051  -0.00297
  13        6D+2        0.00070  -0.00044   0.00088   0.00170   0.00614
  14        6D-2        0.00116   0.00118   0.00026   0.00086   0.00289
  15 2   N  1S         -0.00281   0.01643  -0.03440  -0.00733  -0.00850
  16        2S          0.01417   0.03631  -0.08652  -0.02906  -0.01472
  17        3S         -0.17202   0.09881  -0.17082   0.07006  -0.11614
  18        4PX        -0.00186   0.00153  -0.01531  -0.01289   0.01149
  19        4PY         0.04375  -0.01217   0.02969  -0.01376   0.01727
  20        4PZ         0.00357  -0.00051  -0.00210  -0.00699  -0.02046
  21        5PX        -0.00120   0.02812  -0.01423   0.06215  -0.08406
  22        5PY        -0.04150   0.01268  -0.04076  -0.01048  -0.02525
  23        5PZ         0.00021   0.09138  -0.00871   0.03485   0.04288
  24        6D 0        0.00155   0.00074  -0.00301   0.00114  -0.00552
  25        6D+1        0.00127   0.00175   0.00053  -0.00162   0.00103
  26        6D-1       -0.00245  -0.00337   0.00101  -0.00107   0.00294
  27        6D+2        0.00089   0.00037   0.00043  -0.00207   0.00668
  28        6D-2       -0.00113   0.00118   0.00047   0.00106  -0.00296
  29 3   C  1S         -0.02596   0.02148   0.00741  -0.00137   0.02441
  30        2S          0.06103  -0.01363   0.00140   0.02056  -0.02067
  31        3S          0.20881  -0.83638  -0.36824  -0.15028  -0.82063
  32        4PX         0.00262  -0.01329  -0.01013   0.02199  -0.01054
  33        4PY        -0.00491  -0.01997  -0.04547   0.00102  -0.04903
  34        4PZ         0.08227  -0.11070  -0.05701  -0.00732  -0.08649
  35        5PX         0.09451  -0.17195   0.03705   0.15359   0.04865
  36        5PY        -0.06581  -0.02057  -0.12274  -0.05603  -0.18958
  37        5PZ         0.31478  -0.24739  -0.10179   0.02622  -0.35543
  38        6D 0        0.00317   0.00879   0.00618  -0.00264  -0.00123
  39        6D+1       -0.00165  -0.00145   0.00501   0.00494   0.00348
  40        6D-1       -0.00107  -0.00409  -0.00386  -0.00177   0.00228
  41        6D+2        0.00160  -0.00115   0.00636  -0.00203  -0.00023
  42        6D-2       -0.00272  -0.00073  -0.01013  -0.00015  -0.01105
  43 4   H  1S          0.02144   0.03796   0.01522  -0.00281   0.00024
  44        2S         -0.40735   0.73064   0.29861  -0.03761   0.67308
  45        3PX        -0.00293  -0.00054   0.00248   0.00591   0.00323
  46        3PY        -0.00199  -0.00365  -0.00941   0.00014  -0.00134
  47        3PZ        -0.00681   0.00970   0.00567   0.00128   0.00663
  48 5   C  1S         -0.04124   0.00042  -0.00896   0.05368  -0.03547
  49        2S          0.05857   0.01169   0.01632  -0.07305   0.04647
  50        3S          0.86627  -0.25191   0.17870  -1.27352   0.78607
  51        4PX         0.06882   0.03426  -0.00091  -0.07836   0.03791
  52        4PY         0.00856  -0.00007  -0.04436   0.01504  -0.01745
  53        4PZ         0.03559  -0.08897   0.01288  -0.02661  -0.08445
  54        5PX         0.22591   0.19615   0.06532  -0.26264   0.06132
  55        5PY        -0.10861   0.00118  -0.25949   0.12302  -0.08815
  56        5PZ         0.13295  -0.23693   0.10534  -0.09037  -0.39670
  57        6D 0        0.00103   0.00267  -0.00140   0.00356   0.00167
  58        6D+1        0.00469   0.00504   0.00157   0.00141  -0.00584
  59        6D-1        0.00052   0.00313  -0.00822   0.00053  -0.00156
  60        6D+2       -0.00433   0.00195  -0.00811  -0.00007  -0.00302
  61        6D-2        0.00179   0.00207  -0.00629  -0.00247   0.00147
  62 6   H  1S         -0.02109  -0.00489  -0.02888  -0.01415   0.01407
  63        2S         -0.56746  -0.33086  -0.16149   0.68802  -0.63035
  64        3PX        -0.00637  -0.00147  -0.00009   0.00692  -0.00767
  65        3PY         0.00304   0.00082  -0.00360  -0.00363   0.00353
  66        3PZ         0.00336   0.00217  -0.00027  -0.00206  -0.00204
  67 7   H  1S          0.02378   0.02028  -0.00380   0.01111  -0.00245
  68        2S         -0.43130   0.48080  -0.26049   0.65198   0.19030
  69        3PX         0.00239  -0.00091   0.00157   0.00258  -0.00745
  70        3PY         0.00058   0.00206  -0.00734  -0.00050   0.00048
  71        3PZ        -0.00693   0.00317   0.00097   0.00642  -0.00044
  72 8   C  1S         -0.02661  -0.02247   0.00661  -0.00083   0.02264
  73        2S          0.06011   0.01447  -0.00369  -0.01859  -0.01885
  74        3S          0.26183   0.87622  -0.25302   0.22853  -0.78633
  75        4PX        -0.00237  -0.01437   0.01494   0.01682   0.01237
  76        4PY        -0.00567   0.02280  -0.03914   0.01082  -0.04704
  77        4PZ        -0.08338  -0.11530   0.03797  -0.01997   0.08925
  78        5PX        -0.10713  -0.16816  -0.02133   0.15183  -0.02756
  79        5PY        -0.07821   0.01571  -0.10814   0.08955  -0.18179
  80        5PZ        -0.31225  -0.26138   0.05672  -0.01016   0.36358
  81        6D 0        0.00280  -0.00947   0.00472   0.00165  -0.00081
  82        6D+1       -0.00162   0.00118   0.00385  -0.00599   0.00336
  83        6D-1        0.00090  -0.00472   0.00377  -0.00246  -0.00196
  84        6D+2        0.00121   0.00047   0.00583   0.00132  -0.00218
  85        6D-2        0.00278  -0.00206   0.01065  -0.00259   0.01100
  86 9   H  1S          0.02060  -0.04064   0.00732   0.00058   0.00055
  87        2S         -0.43299  -0.76904   0.18530  -0.03370   0.67401
  88        3PX         0.00293  -0.00051  -0.00117   0.00638  -0.00316
  89        3PY        -0.00141   0.00519  -0.00931   0.00207  -0.00192
  90        3PZ         0.00680   0.00986  -0.00414   0.00260  -0.00639
  91 10  C  1S         -0.03719  -0.03035   0.03209   0.03833  -0.02825
  92        2S          0.03813   0.02730  -0.03939  -0.04145   0.03099
  93        3S          0.94751   0.92215  -0.85362  -0.96280   0.74669
  94        4PX         0.04230   0.02292  -0.03855  -0.08502   0.08979
  95        4PY         0.01185   0.00582   0.02911  -0.01267   0.02992
  96        4PZ        -0.03707  -0.09151   0.05638  -0.00222   0.07016
  97        5PX         0.08957   0.04908  -0.11363  -0.21245   0.26686
  98        5PY         0.02127   0.01167   0.07834  -0.01052   0.11687
  99        5PZ        -0.11907  -0.25372   0.22129  -0.03806   0.27459
 100        6D 0        0.00064   0.00312   0.00197  -0.00106   0.00582
 101        6D+1       -0.00397  -0.00329   0.00561   0.00411   0.00224
 102        6D-1       -0.00006   0.00281  -0.00151  -0.00060  -0.00110
 103        6D+2        0.00294   0.00243  -0.00156  -0.00432   0.00299
 104        6D-2        0.00057  -0.00120   0.00323  -0.00092   0.00188
 105 11  H  1S          0.00923  -0.00742   0.00581  -0.01350  -0.00494
 106        2S         -0.41889  -0.37083   0.29675   0.54839  -0.68748
 107        3PX        -0.00193  -0.00127   0.00212   0.00223  -0.00224
 108        3PY        -0.00647  -0.00508   0.00352   0.00816  -0.00684
 109        3PZ        -0.00149   0.00014   0.00295   0.00225  -0.00122
 110 12  H  1S         -0.00570   0.01794   0.01680   0.00901   0.01503
 111        2S         -0.44230  -0.62079   0.55473   0.14432   0.33228
 112        3PX         0.00429   0.00720  -0.00558  -0.00210  -0.00180
 113        3PY        -0.00046  -0.00278   0.00104   0.00019   0.00163
 114        3PZ         0.00275   0.00191  -0.00302  -0.00307  -0.00082
 115 13  H  1S         -0.00989  -0.01809  -0.01326   0.00901  -0.00837
 116        2S         -0.33646  -0.24735   0.37210   0.51830  -0.50159
 117        3PX        -0.00071  -0.00023   0.00098  -0.00054   0.00028
 118        3PY         0.00448   0.00336  -0.00313  -0.00578   0.00503
 119        3PZ        -0.00307  -0.00225   0.00474   0.00430   0.00118
 120 14  C  1S         -0.04139   0.02127   0.03998   0.04472   0.00406
 121        2S          0.04682  -0.01409  -0.05610  -0.05214  -0.01055
 122        3S          0.93930  -0.67845  -0.95183  -1.15183   0.11950
 123        4PX         0.00253   0.05233  -0.00740  -0.05655   0.12921
 124        4PY         0.00896  -0.02442   0.00887  -0.01470   0.00572
 125        4PZ         0.02943  -0.05683  -0.07180  -0.04723  -0.02932
 126        5PX        -0.02903   0.18274  -0.04407  -0.12865   0.42358
 127        5PY         0.04233  -0.11234   0.04428  -0.04157   0.02404
 128        5PZ         0.10047  -0.10435  -0.26266  -0.11568  -0.09890
 129        6D 0        0.00250  -0.00207  -0.00379  -0.00392   0.00023
 130        6D+1        0.00164   0.00187  -0.00644  -0.00213  -0.00115
 131        6D-1        0.00185   0.00029   0.00077   0.00026   0.00133
 132        6D+2        0.00066  -0.00133  -0.00041  -0.00150   0.00195
 133        6D-2        0.00306   0.00027  -0.00074  -0.00083  -0.00345
 134 15  H  1S          0.01281   0.00997  -0.00078  -0.00878  -0.00953
 135        2S         -0.33430   0.16105   0.32758   0.59990  -0.56727
 136        3PX        -0.00318  -0.00078   0.00381   0.00381  -0.00058
 137        3PY        -0.00348   0.00257   0.00312   0.00569  -0.00238
 138        3PZ         0.00131   0.00205  -0.00372  -0.00108   0.00230
 139 16  H  1S         -0.00861   0.00532  -0.00211   0.00469   0.00191
 140        2S         -0.33829   0.03545   0.46662   0.49543  -0.23477
 141        3PX        -0.00265   0.00065   0.00284   0.00133   0.00313
 142        3PY         0.00487  -0.00200  -0.00460  -0.00654   0.00139
 143        3PZ         0.00048  -0.00009  -0.00267  -0.00247  -0.00043
 144 17  H  1S         -0.00466  -0.01679   0.01012   0.00610  -0.00215
 145        2S         -0.45513   0.57171   0.57738   0.36223   0.57161
 146        3PX         0.00469  -0.00326  -0.00743  -0.00479  -0.00452
 147        3PY        -0.00293   0.00316   0.00085   0.00364   0.00424
 148        3PZ        -0.00259   0.00121   0.00188   0.00149   0.00143
 149 18  C  1S         -0.03960   0.00138  -0.01801  -0.05057  -0.03852
 150        2S          0.05529  -0.01585   0.02555   0.06764   0.04924
 151        3S          0.83324   0.24208   0.42908   1.20141   0.88644
 152        4PX        -0.06713   0.03661  -0.00697  -0.07840  -0.04964
[...]
 0.00056352,0.00038398,0.00002643,0.00022405,-0.00001686,0.00058109,-0.
 00048850,-0.00003809,-0.00002104,-0.00002897,0.00001194,-0.00000877,-0
 .00001064,0.04836277,-0.03882513,0.13335932,0.01283079,-0.00442643,0.0
 3734692,-0.05137981,0.03418314,-0.00486448,0.00161568,-0.02239946,0.00
 007897,-0.00006471,0.00006274,-0.00251527,-0.00039681,0.00037394,0.000
 53998,0.00036188,0.00070156,0.00003602,-0.00004102,-0.00000106,0.00000
 757,0.00000601,-0.00000479,0.00002176,0.00000801,0.00001143,-0.0000067
 3,-0.00010209,0.00042465,-0.00020097,0.00001895,0.00013444,-0.00000806
 ,-0.00002069,-0.00000820,-0.00000391,0.00000401,0.00000759,-0.00001937
 ,0.00000544,0.00002032,0.00000291,-0.00000501,-0.00000374,0.00004077,0
 .00000636,-0.00011670,-0.00001761,0.00000814,0.00005391,0.00002030,-0.
 00001084,0.00000346,0.00003086,0.00002146,0.00003914,0.00026944,0.0001
 4384,-0.00004539,-0.00005520,-0.00011918,0.00008732,-0.00002099,-0.000
 02821,-0.00006567,0.00484903,0.00001133,-0.00216273,-0.00003212,0.0000
 5468,0.00021516,0.00007422,-0.00001724,0.00050472,-0.00060469,0.000396
 74,-0.00131976,-0.00000723,0.00001322,0.00000834,-0.00000893,-0.000005
 46,0.00000747,-0.20110369,0.13356964,-0.54472007,0.00163915,-0.0038784
 3,0.00264667,0.19992083,-0.13557018,0.56926720,-0.02472663,-0.01407682
 ,-0.00599791,0.00011222,0.00020892,-0.00000579,-0.00241936,0.00121464,
 0.00438176,0.00038662,0.00031014,0.00025400,-0.00038680,0.00032338,0.0
 0027682,-0.00015308,-0.00011886,-0.00006459,0.00002092,-0.00000653,-0.
 00001469,-0.00028508,-0.00151496,-0.00039024,-0.00005198,0.00001323,0.
 00006565,-0.00000834,-0.00000327,-0.00010990,-0.00001461,-0.00000655,0
 .00002457,-0.00000385,-0.00002248,0.00000609,-0.00003278,0.00003090,0.
 00000783,0.00003678,0.00002894,0.00007215,-0.00000570,-0.00001048,-0.0
 0001769,-0.00004192,0.00003252,-0.00001176,0.00000548,-0.00004547,0.00
 002466,-0.00044920,0.00026883,-0.00014419,0.00006570,-0.00006049,0.000
 02577,0.00015426,-0.00016716,-0.00004581,0.00153493,-0.00032714,-0.002
 04172,-0.00004472,-0.00006747,0.00020801,0.00037668,0.00001091,0.00068
 059,0.00015403,0.00045982,-0.00027010,0.00007263,0.00010443,-0.0000064
 2,0.00000617,-0.00000278,0.00001415,-0.37459242,-0.29609083,-0.1233737
 3,0.01202852,0.01128842,0.00408276,-0.00641211,-0.00663742,0.00190924,
 0.39461003,0.00915346,0.00673377,0.00338521,-0.00011811,0.00003001,0.0
 0001737,0.00162688,0.00031997,-0.00102467,0.00006136,-0.00019748,-0.00
 008900,0.00008655,-0.00010090,-0.00000983,0.00003178,0.00003203,0.0000
 1431,0.00000539,0.00000018,0.00000071,0.00040641,0.00028617,0.00000678
 ,-0.00004956,0.00001103,0.00001079,0.00001138,-0.00000582,-0.00002585,
 -0.00001002,-0.00000281,0.00000390,0.00000416,0.00000208,0.00000137,0.
 00000377,0.00000003,0.00000131,0.00000191,0.00000472,0.00001540,-0.000
 00680,-0.00000579,-0.00000045,0.00001501,-0.00000438,-0.00000090,-0.00
 000781,0.00001240,-0.00000032,0.00040102,0.00006788,-0.00010009,-0.000
 14592,0.00001338,0.00006087,-0.00006774,0.00041632,-0.00007311,0.00021
 187,0.00050610,-0.00052303,-0.00020322,-0.00052473,-0.00003515,-0.0001
 8630,0.00023156,0.00029920,0.00039577,-0.00000613,0.00019185,-0.000051
 38,-0.00005489,-0.00004086,0.00000169,0.00000740,0.00000502,-0.2966699
 1,-0.24052383,-0.09600390,-0.03138652,-0.01750451,-0.01054447,0.011377
 34,0.00709851,0.00391296,0.30515433,0.24293954,0.02519378,0.01556109,0
 .00327089,-0.00017780,-0.00004485,-0.00003172,0.00323515,-0.00037482,-
 0.00399673,0.00011024,-0.00012110,0.00046205,0.00035323,-0.00022290,-0
 .00020517,0.00010688,0.00008973,0.00006009,0.00000851,-0.00000031,0.00
 001195,0.00064736,0.00101562,0.00070496,-0.00013310,0.00005271,0.00000
 110,0.00001445,-0.00002504,0.00003397,-0.00000663,0.00000666,-0.000002
 11,0.00000407,0.00000409,-0.00000376,0.00000491,-0.00000655,-0.0000065
 5,0.00001697,-0.00003214,-0.00003924,-0.00000607,0.00001235,-0.0000016
 6,-0.00001165,0.00000516,0.00001765,0.00002921,-0.00000954,0.00000406,
 0.00031207,-0.00010875,0.00024836,0.00006899,-0.00004518,-0.00002085,-
 0.00011902,0.00006192,0.00001222,0.00117483,0.00163761,0.00145505,-0.0
 0008972,0.00002989,-0.00041501,-0.00030009,-0.00043021,-0.00017305,0.0
 0000736,-0.00001082,0.00045856,-0.00001783,-0.00006525,0.00002244,-0.0
 0000093,0.00000960,-0.00001088,-0.12636937,-0.09626094,-0.04398911,0.0
 0191618,0.00351109,-0.00009505,-0.02634974,-0.02491286,-0.00372463,0.1
 2044005,0.10047906,0.04594505,0.00158891,0.00411665,-0.00025894,-0.000
 73394,-0.00032237,0.00005339,0.00395200,-0.00477554,0.00285446,0.00045
 243,0.00045327,-0.00005733,-0.00751916,0.00813312,0.00211238,0.0010338
 6,-0.00033543,-0.00029645,0.00032905,-0.00097828,0.00028631,0.00130727
 ,-0.00024858,0.00018453,-0.00013640,-0.00004078,-0.00003971,0.00002232
 ,0.00010039,-0.00002813,-0.00004788,0.00001351,-0.00001585,0.00001319,
 0.00000320,-0.00001796,-0.00001168,0.00000825,0.00002612,0.00014719,-0
 .00000744,-0.00001068,-0.00009490,0.00004555,-0.00000858,-0.00003193,-
 0.00001544,-0.00001138,0.00003098,0.00001203,0.00003299,-0.16104314,-0
 .05688301,-0.03660821,-0.00470437,-0.00302681,0.00073417,-0.02213701,-
 0.02263148,-0.01451605,0.00008932,0.00009566,-0.00053876,-0.00008754,-
 0.00014292,0.00022950,0.00002681,0.00006804,0.00000612,0.00002364,-0.0
 0012896,0.00004639,-0.17656058,0.03450448,0.04289573,-0.00227615,0.000
 52600,-0.00155253,-0.00025989,0.00025410,0.00035756,0.00024891,-0.0000
 6516,-0.00015412,0.00003446,-0.00004948,-0.00004846,0.00013532,-0.0000
 5163,-0.00009937,0.41189914,-0.00052957,-0.00793762,0.00076830,-0.0002
 4599,0.00063039,0.00021436,-0.02848326,-0.02286159,-0.01100016,-0.0006
 3266,0.00237270,-0.00104625,0.03473297,-0.01718124,-0.01419625,0.00067
 365,-0.00762781,0.00199947,-0.00044723,0.00250115,-0.00102239,0.001098
 63,0.00230755,-0.00099203,-0.00004510,-0.00021831,-0.00031654,0.000206
 56,0.00011942,-0.00018100,-0.00016766,0.00006557,0.00006921,-0.0000383
 8,-0.00001253,-0.00000372,-0.00012721,0.00004123,0.00005800,0.00018412
 ,0.00013777,0.00021920,-0.00009201,0.00001798,-0.00008924,-0.00007423,
 0.00000986,-0.00005526,-0.00002654,-0.00002249,0.00000467,-0.06253054,
 -0.13042093,-0.02688687,0.00071344,-0.00038154,0.00084982,0.00897183,0
 .00705194,0.00449756,0.00135466,-0.00066427,0.00195458,-0.00022415,0.0
 0083888,-0.00003744,-0.00016747,0.00029764,-0.00021658,-0.00001991,-0.
 00000751,-0.00010779,0.03680458,-0.09779147,-0.01595588,-0.00241918,-0
 .00020454,0.00063740,0.00140376,-0.00059935,-0.00105254,-0.00035533,0.
 00058999,0.00013084,-0.00008624,0.00006833,0.00006533,-0.00023028,0.00
 019677,0.00013771,-0.06338165,0.81667163,0.00077779,0.00463194,-0.0004
 0541,-0.00004146,0.00020542,-0.00015466,0.00786539,0.00288178,0.003177
 32,0.00098020,0.00094859,0.00070750,-0.00780243,0.00194588,0.00475711,
 -0.00064924,0.00310723,-0.00005653,-0.00113370,0.00038253,0.00088212,0
 .00016601,-0.00102000,0.00010453,0.00000280,0.00008376,0.00004230,-0.0
 0008393,0.00003082,-0.00017080,0.00003101,-0.00003765,0.00000146,0.000
 03479,-0.00000262,0.00000724,0.00001085,0.00003348,0.00002619,-0.00008
 638,-0.00001238,0.00017922,-0.00001581,-0.00000972,0.00001209,0.000019
 14,0.00000926,-0.00005066,0.00007577,0.00003213,-0.00002683,-0.0356918
 8,-0.02533329,-0.10620275,-0.03086338,-0.02521486,-0.00817337,0.010843
 32,0.01032422,0.00463567,-0.00110363,-0.00030232,-0.00094474,0.0004803
 4,-0.00065291,-0.00006828,0.00015239,-0.00034625,0.00021482,-0.0000867
 5,0.00029163,0.00011956,0.04212901,-0.01553917,-0.11290302,0.03619867,
 -0.01504224,-0.01046429,-0.00039867,0.00019398,0.00062095,-0.00018442,
 -0.00029616,0.00006140,-0.00002040,0.00008561,-0.00003432,0.00005166,0
 .00003988,-0.00003377,0.04537054,-0.13669086,0.89583907,-0.00009847,0.
 00025926,0.00028196,0.00012439,0.00003006,-0.00003680,0.00109623,0.001
 69676,-0.00017972,0.00033008,-0.00045448,0.00059216,0.00185522,-0.0013
 7725,-0.00013787,-0.00007670,-0.00050511,-0.00026242,0.00000434,0.0005
 5127,-0.00063297,-0.00030525,0.00006160,0.00003339,-0.00018142,-0.0000
 3776,0.00000138,0.00001210,-0.00000984,0.00000977,0.00000704,-0.000012
 43,0.00000333,-0.00001401,-0.00000363,-0.00000225,0.00000620,-0.000001
 04,-0.00000514,0.00002886,0.00000135,-0.00000638,-0.00000746,0.0000031
 2,0.00001155,-0.00000366,-0.00000867,-0.00000084,0.00000151,0.00000659
 ,0.00000381,-0.00336121,-0.00030129,-0.03160955,-0.00420735,-0.0043306
 4,-0.00139318,0.00110623,0.00099144,0.00018443,-0.00036724,0.00009560,
 -0.00020395,0.00019346,-0.00017734,-0.00001810,0.00004108,-0.00014933,
 0.00009062,-0.00001295,0.00010654,0.00004624,-0.00112818,-0.00033252,0
 .03691021,-0.00612933,0.00305614,0.00228533,0.00001865,0.00001189,-0.0
 0000343,-0.00005008,-0.00000366,-0.00003200,0.00000277,-0.00004624,0.0
 0003477,-0.00000789,0.00002073,0.00001501,-0.00507262,0.00176590,-0.02
 596392,0.01571505,0.00010905,0.00035779,0.00041259,0.00003513,0.000082
 81,0.00004668,0.00031948,0.00145733,-0.00187490,-0.00006078,-0.0004002
 5,0.00051713,-0.00078114,0.00082864,-0.00111782,-0.00003621,0.00023555
 ,0.00029613,0.00025454,-0.00016349,0.00027266,-0.00001090,-0.00035441,
 0.00005092,-0.00005360,0.00012974,0.00023149,0.00000243,-0.00001241,-0
 .00002132,-0.00000328,-0.00000170,0.00000397,-0.00000004,0.00000155,0.
 00001006,0.00000065,0.00000697,-0.00000516,-0.00000409,0.00002179,-0.0
 0004139,0.00002032,-0.00001559,-0.00000530,0.00000329,0.00002693,0.000
 02563,-0.00001868,-0.00003784,0.00003319,-0.00174886,-0.00147691,-0.02
 393019,-0.00373600,-0.00220686,-0.00132770,0.00081399,0.00095811,0.000
 79309,-0.00019168,0.00001477,-0.00020524,0.00014426,-0.00011977,0.0000
 5255,0.00004649,-0.00009684,0.00006980,-0.00001511,0.00005706,0.000036
 38,-0.00000504,-0.00111690,-0.01335490,0.00237944,-0.00010089,-0.00102
 859,-0.00007907,0.00007120,0.00008576,0.00001279,-0.00005022,-0.000016
 03,-0.00002314,-0.00002993,0.00001930,0.00002649,0.00000389,0.00001161
 ,0.00146788,-0.01128999,0.01273104,0.00064213,0.01041081,-0.00011176,-
 0.00007284,0.00033558,0.00001306,-0.00007575,0.00004456,0.00080770,0.0
 0131045,0.00056828,0.00006967,-0.00089284,0.00030907,-0.00114238,0.000
 60504,0.00092806,0.00008822,0.00018196,0.00032123,0.00015327,-0.000781
 61,0.00023201,0.00006617,-0.00001788,0.00011653,-0.00004233,0.00019929
 ,0.00001004,-0.00001534,-0.00001246,0.00004304,0.00000004,0.00002208,-
 0.00000162,0.00000255,0.00001094,0.00000828,0.00000680,-0.00001347,-0.
 00001260,-0.00000854,-0.00001011,-0.00009963,0.00002319,-0.00000029,-0
 .00000350,0.00000351,-0.00000071,0.00002006,-0.00002060,-0.00002082,0.
 00001391,0.00018717,0.00094326,-0.00785231,-0.00166209,-0.00102771,0.0
 0067473,-0.00015401,0.00001382,0.00072220,-0.00009046,0.00021619,-0.00
 005034,0.00009921,-0.00006424,-0.00002429,0.00003360,-0.00005836,0.000
 07413,-0.00000448,0.00004383,0.00002124,-0.00134432,0.00119794,-0.0101
 9620,0.00230668,-0.00080055,0.00044112,0.00005045,-0.00001656,-0.00004
 862,-0.00000106,0.00001702,-0.00001723,-0.00000897,-0.00003612,0.00002
 383,-0.00000285,0.00000643,0.00001612,-0.02642880,0.01474236,-0.609937
 90,0.02673314,-0.01197054,0.63076408,-0.00044508,-0.00275610,0.0000103
 0,0.00039660,0.00013521,-0.00006205,-0.00460775,-0.00093872,-0.0025864
 9,-0.00014872,0.00052022,-0.00007770,-0.00613754,0.00121603,0.00369301
 ,-0.00011071,0.00223151,-0.00031318,0.00012905,-0.00062833,0.00011827,
 -0.00072336,-0.00056489,-0.00002371,0.00008885,0.00002448,0.00000404,-
 0.00004343,-0.00002404,0.00000009,0.00007441,-0.00004287,-0.00002196,-
 0.00000020,-0.00000180,0.00001321,0.00002968,0.00000816,-0.00001307,-0
 .00011655,0.00001041,-0.00000224,0.00007062,-0.00004106,0.00003152,0.0
 0002899,0.00001726,0.00001218,-0.00001458,-0.00001240,-0.00001999,0.00
 306527,-0.03133842,0.00957072,0.00141225,0.00102536,0.00011375,0.00124
 343,0.00076918,0.00083457,0.00019169,-0.00004968,0.00050670,-0.0000317
 3,0.00018393,-0.00004124,-0.00004888,0.00003729,-0.00006341,0.00000227
 ,0.00001396,-0.00004441,-0.00607976,0.03200027,-0.01075530,0.00186652,
 -0.00067778,-0.00007729,0.00038350,-0.00014036,-0.00035356,-0.00005596
 ,0.00016630,0.00003619,-0.00001820,0.00002028,0.00003121,-0.00006770,0
 .00001835,0.00003104,-0.01804510,0.08942448,-0.02935431,-0.00116878,0.
 00107514,0.00030389,0.02776087,-0.00024030,-0.00175477,0.00010413,0.00
 007156,-0.00002277,0.00008470,-0.00346121,0.00077958,-0.00213606,0.000
 00638,0.00030975,0.00000694,0.00226994,0.00065246,-0.00152393,0.000053
 69,-0.00065046,0.00029311,-0.00009956,0.00011026,0.00003458,-0.0002184
 5,0.00089961,0.00023087,0.00000862,-0.00006598,-0.00003503,0.00001027,
 0.00001266,0.00008449,0.00000858,0.00001012,-0.00001050,-0.00001207,0.
 00000824,-0.00000202,0.00000088,-0.00001936,-0.00000113,0.00000992,-0.
 00001253,-0.00004948,0.00000589,0.00001478,0.00000268,0.00000150,-0.00
 001494,0.00000290,-0.00000979,0.00001522,-0.00002099,0.00311755,-0.016
 87329,0.00557692,0.00060968,0.00069794,-0.00022843,0.00011682,0.000881
 20,0.00036712,0.00012530,-0.00005321,0.00044731,-0.00001992,0.00014366
 ,-0.00003216,-0.00003732,0.00002165,-0.00005475,0.00002269,0.00000443,
 -0.00001907,-0.00019657,-0.00714476,0.00272268,-0.00032319,0.00034475,
 -0.00023356,0.00024753,-0.00009911,-0.00031116,-0.00002747,0.00012886,
 0.00003584,-0.00000632,0.00000733,0.00002370,-0.00006425,0.00000598,0.
 00003479,0.08967379,-0.54491510,0.17643459,-0.00067897,0.00234766,-0.0
 0380905,-0.09107143,0.56373081,-0.00038209,-0.00101025,0.00034715,-0.0
 0002840,-0.00004345,0.00004860,-0.00190516,-0.00036112,-0.00067824,0.0
 0002305,-0.00043685,0.00036000,0.00271193,-0.00082432,-0.00082625,0.00
 027014,-0.00074980,0.00053672,0.00021802,-0.00030334,0.00025708,0.0000
 8283,0.00049468,-0.00019135,-0.00002428,-0.00000986,-0.00000384,0.0000
 3328,0.00000320,0.00001131,-0.00000985,0.00000749,0.00000653,-0.000008
 88,-0.00000259,-0.00000107,-0.00000840,-0.00000252,-0.00000048,0.00003
 969,0.00000502,-0.00003134,-0.00000305,0.00000337,-0.00000971,-0.00001
 099,0.00000491,0.00000676,-0.00002228,-0.00001925,0.00001317,0.0014067
 5,-0.01529986,0.00276526,0.00079416,-0.00008811,0.00060943,0.00058394,
 0.00077676,0.00034305,0.00016277,0.00008570,0.00020638,-0.00004445,0.0
 0009603,-0.00002588,-0.00000225,0.00003043,0.00001404,0.00000745,-0.00
 002613,-0.00001418,0.00351659,-0.01676917,0.00335796,-0.00086296,-0.00
 026069,0.00070565,0.00007628,-0.00006685,-0.00010882,-0.00000262,0.000
 04631,0.00001397,-0.00001148,-0.00001361,0.00001392,-0.00002218,0.0000
 1074,0.00002505,-0.02905921,0.17383495,-0.06638172,-0.00624328,0.03844
 309,-0.00820732,0.02949388,-0.17812801,0.06636963,0.00008095,-0.000239
 82,-0.00010693,0.00045815,0.00066102,-0.00003756,0.00043367,0.00103551
 ,-0.00012726,-0.00000269,-0.00008977,0.00002499,0.00735599,0.00743015,
 0.00374046,0.00051447,-0.00055421,0.00031264,0.00024566,-0.00065376,0.
 00017288,0.00002369,0.00153959,-0.00027932,-0.00019278,-0.00005546,-0.
 00006970,0.00009945,-0.00004599,-0.00004468,-0.00003450,-0.00000866,0.
 00000076,-0.00001271,0.00000048,0.00000700,-0.00001198,-0.00000006,-0.
 00000001,0.00003344,-0.00003748,0.00005304,-0.00002927,-0.00001654,-0.
 00000928,-0.00001645,0.00000030,-0.00000915,-0.00001641,0.00000415,-0.
 00001885,-0.00516191,0.00362755,0.00389006,0.00050714,0.00026828,0.000
 12541,-0.00156648,-0.00140955,-0.00057155,-0.00007543,0.00005825,0.000
 03091,0.00005997,-0.00000700,0.00002617,-0.00000168,-0.00002964,0.0000
 0454,0.00001224,0.00001149,-0.00000211,-0.34933592,-0.25269129,-0.1684
 0606,0.00104154,0.00126408,0.00324445,-0.00002979,0.00005333,-0.000049
 04,0.00007141,-0.00001725,-0.00000938,0.00001174,-0.00000314,0.0000106
 6,0.00000389,-0.00003423,-0.00000898,-0.02257251,-0.01701001,-0.011709
 39,0.00164939,-0.00058586,0.00008968,0.00112003,0.00010624,-0.00076895
 ,0.36533770,-0.00014767,0.00027347,-0.00001680,-0.00191708,-0.00271348
 ,-0.00027091,0.00068637,-0.00018449,-0.00012906,-0.00007254,0.00002289
 ,0.00002780,-0.02626666,-0.02069877,-0.01259594,0.00017724,0.00151776,
 -0.00075285,-0.00026116,0.00192123,0.00020163,0.00416545,-0.00431187,0
 .00306316,0.00041954,0.00032702,0.00003542,-0.00046721,0.00015995,0.00
 049664,0.00020236,0.00011389,-0.00004994,0.00002406,0.00000032,-0.0000
 4079,0.00008822,-0.00006292,-0.00005657,-0.00020242,0.00015659,-0.0006
 8340,0.00020229,0.00012620,0.00005956,0.00007484,-0.00001560,0.0000810
 3,-0.00000890,0.00002026,0.00004639,0.00265795,-0.00062344,-0.00133874
 ,-0.00026429,-0.00025092,-0.00017231,0.00073094,0.00070926,0.00002055,
 0.00004558,-0.00005530,0.00003756,-0.00004392,0.00002666,-0.00002352,-
 0.00001383,0.00001502,-0.00000932,0.00001171,-0.00000929,0.00002995,-0
 .25403126,-0.18851249,-0.12317179,0.00470500,0.00238306,0.00339026,0.0
 0001660,-0.00002409,-0.00006475,-0.00005556,0.00002858,0.00002074,0.00
 000877,-0.00000201,-0.00000678,-0.00002268,0.00001154,0.00001056,0.013
 60905,0.00821749,0.00610664,-0.00087016,0.00046138,0.00017129,-0.00060
 994,0.00049933,0.00057311,0.25742930,0.20047276,-0.00000097,0.00005109
 ,0.00004406,0.00032376,0.00081141,0.00037391,-0.00020969,-0.00037148,-
 0.00023109,-0.00001758,0.00002065,-0.00000322,0.00966498,0.00839109,0.
 00288611,-0.00010092,-0.00089754,0.00021978,0.00059905,-0.00043000,0.0
 0056151,-0.00082928,0.00142609,-0.00037779,0.00030794,0.00029744,0.000
 35391,0.00008721,0.00001536,-0.00008035,-0.00002514,-0.00002344,0.0000
 0912,0.00000374,0.00001489,0.00001152,-0.00002121,0.00000633,0.0000219
 3,0.00003277,-0.00016808,0.00015367,-0.00008571,-0.00002516,-0.0000226
 7,-0.00001865,-0.00002229,0.00001611,0.00002548,0.00001535,-0.00001315
 ,0.00265206,-0.00119683,-0.00088260,0.00033725,0.00003037,0.00030700,0
 .00073483,0.00033383,0.00060534,0.00001895,-0.00003064,-0.00002372,-0.
 00000217,0.00000016,-0.00001350,-0.00001123,0.00000287,0.00000608,-0.0
 0000225,0.00002971,0.00001431,-0.16633248,-0.12101276,-0.09078475,-0.0
 3068485,-0.02280527,-0.01041144,0.00002415,-0.00002604,0.00000338,-0.0
 0001514,0.00000366,0.00000869,-0.00000361,0.00000853,-0.00000129,-0.00
 000617,0.00000846,-0.00000027,0.01456034,0.00966706,0.00462049,-0.0005
 0528,0.00075601,0.00076345,-0.00099467,0.00010798,0.00046853,0.1704945
 3,0.12501119,0.09139696\\0.00006603,-0.01404140,0.00305174,-0.00631883
 ,-0.00185707,-0.00968415,0.02932661,0.01027718,0.08321179,-0.00599926,
 0.00437523,-0.09055247,0.08936499,-0.04559246,0.05777591,-0.08531278,0
 .03311133,0.04179565,-0.00906713,0.00603071,-0.09907899,-0.00974296,0.
 03309740,-0.08224299,0.00530000,-0.00513594,0.09024774,0.07323146,-0.0
 5858130,-0.07954528,-0.10928488,-0.04559168,0.00126538,0.04356955,-0.0
 1073645,0.10235896,-0.00838880,0.10740875,-0.02389257,0.04945541,-0.02
 927825,0.11992034,-0.10866054,-0.04123258,-0.01543805,-0.00107323,0.11
 028796,-0.01563257,0.06715227,-0.04597591,-0.07567312,-0.08107674,0.04
 025423,-0.05826093,0.00684349,-0.00716757,0.10031969,0.08680013,-0.032
 31310,-0.03886328,-0.04857380,0.01858847,-0.12034546,0.04366138,-0.107
 10563,0.01417607,0.08016373,0.07357014,0.01923933,-0.08240138,0.016121
 44,0.07490002,0.06812317,0.06538848,-0.06800513,0.00148407,-0.00905885
 ,0.10129316,-0.09585540,0.01414234,0.08150403,0.04021744,-0.11001096,-
 0.00064738,-0.03614315,0.02550022,-0.10275669,0.08427091,0.06724137,0.
 02648182,-0.01559585,0.08816959,0.06931903,-0.00454806,0.00116047,-0.1
 0034049,0.01602727,-0.09569260,0.02886856,-0.07701511,-0.05535357,-0.0
 3476966\\\@
 The archive entry for this job was punched.

 Writing a WFNX file to "XIVNIA_Complex_1_Ligand_0_NN_Cu_oriented.wfx"


 ALL OUR THINKING ABOUT NATURE MUST NECESSARILY MOVE IN CIRCLES OR SPIRALS;
 FOR WE CAN ONLY UNDERSTAND NATURE IF WE THINK ABOUT HER, AND WE CAN ONLY
 THINK BECAUSE OUR BRAIN IS BUILT IN ACCORDANCE WITH NATURE'S LAWS.

                                             -- TIMOTHY FERRIS, "GALAXIES"
 Job cpu time:       0 days  0 hours 38 minutes 20.5 seconds.
 Elapsed time:       0 days  0 hours 38 minutes 32.0 seconds.
 File lengths (MBytes):  RWF=    468 Int=      0 D2E=      0 Chk=     12 Scr=      8
 Normal termination of Gaussian 16 at Sat Mar  4 12:19:49 2023.
