 Entering Gaussian System, Link 0=g16
 Initial command:
 /ssoft/spack/external/gaussian/g16-C.01/avx2/g16/l1.exe "/scratch/lcmd/2387868/Gau-1723016.inp" -scrdir="/scratch/lcmd/2387868/"
 Entering Link 1 = /ssoft/spack/external/gaussian/g16-C.01/avx2/g16/l1.exe PID=   1723022.
  
 Copyright (c) 1988-2019, Gaussian, Inc.  All Rights Reserved.
  
 This is part of the Gaussian(R) 16 program.  It is based on
 the Gaussian(R) 09 system (copyright 2009, Gaussian, Inc.),
 the Gaussian(R) 03 system (copyright 2003, Gaussian, Inc.),
 the Gaussian(R) 98 system (copyright 1998, Gaussian, Inc.),
 the Gaussian(R) 94 system (copyright 1995, Gaussian, Inc.),
 the Gaussian 92(TM) system (copyright 1992, Gaussian, Inc.),
 the Gaussian 90(TM) system (copyright 1990, Gaussian, Inc.),
 the Gaussian 88(TM) system (copyright 1988, Gaussian, Inc.),
 the Gaussian 86(TM) system (copyright 1986, Carnegie Mellon
 University), and the Gaussian 82(TM) system (copyright 1983,
 Carnegie Mellon University). Gaussian is a federally registered
 trademark of Gaussian, Inc.
  
 This software contains proprietary and confidential information,
 including trade secrets, belonging to Gaussian, Inc.
  
 This software is provided under written license and may be
 used, copied, transmitted, or stored only in accord with that
 written license.
  
 The following legend is applicable only to US Government
 contracts under FAR:
  
                    RESTRICTED RIGHTS LEGEND
  
 Use, reproduction and disclosure by the US Government is
 subject to restrictions as set forth in subparagraphs (a)
 and (c) of the Commercial Computer Software - Restricted
 Rights clause in FAR 52.227-19.
  
 Gaussian, Inc.
 340 Quinnipiac St., Bldg. 40, Wallingford CT 06492
  
  
 ---------------------------------------------------------------
 Warning -- This program may not be used in any manner that
 competes with the business of Gaussian, Inc. or will provide
 assistance to any competitor of Gaussian, Inc.  The licensee
 of this program is prohibited from giving any competitor of
 Gaussian, Inc. access to this program.  By using this program,
 the user acknowledges that Gaussian, Inc. is engaged in the
 business of creating and licensing software in the field of
 computational chemistry and represents and warrants to the
 licensee that it is not a competitor of Gaussian, Inc. and that
 it will not use this program in any manner prohibited above.
 ---------------------------------------------------------------
  

 Cite this work as:
 Gaussian 16, Revision C.01,
 M. J. Frisch, G. W. Trucks, H. B. Schlegel, G. E. Scuseria, 
 M. A. Robb, J. R. Cheeseman, G. Scalmani, V. Barone, 
 G. A. Petersson, H. Nakatsuji, X. Li, M. Caricato, A. V. Marenich, 
 J. Bloino, B. G. Janesko, R. Gomperts, B. Mennucci, H. P. Hratchian, 
 J. V. Ortiz, A. F. Izmaylov, J. L. Sonnenberg, D. Williams-Young, 
 F. Ding, F. Lipparini, F. Egidi, J. Goings, B. Peng, A. Petrone, 
 T. Henderson, D. Ranasinghe, V. G. Zakrzewski, J. Gao, N. Rega, 
 G. Zheng, W. Liang, M. Hada, M. Ehara, K. Toyota, R. Fukuda, 
 J. Hasegawa, M. Ishida, T. Nakajima, Y. Honda, O. Kitao, H. Nakai, 
 T. Vreven, K. Throssell, J. A. Montgomery, Jr., J. E. Peralta, 
 F. Ogliaro, M. J. Bearpark, J. J. Heyd, E. N. Brothers, K. N. Kudin, 
 V. N. Staroverov, T. A. Keith, R. Kobayashi, J. Normand, 
 K. Raghavachari, A. P. Rendell, J. C. Burant, S. S. Iyengar, 
 J. Tomasi, M. Cossi, J. M. Millam, M. Klene, C. Adamo, R. Cammi, 
 J. W. Ochterski, R. L. Martin, K. Morokuma, O. Farkas, 
 J. B. Foresman, and D. J. Fox, Gaussian, Inc., Wallingford CT, 2019.
 
 ******************************************
 Gaussian 16:  ES64L-G16RevC.01  3-Jul-2019
                 6-Mar-2023 
 ******************************************
 %nprocshared=1
 Will use up to    1 processors via shared memory.
 %mem=8000MB
 %chk=XUKXAC_Complex_0_Ligand_1_ON_Cu_oriented.chk
 ----------------------------------------------------------------------
 #p pop=(regular,nbo,savenbos) freq=noraman def2svp empiricaldispersion
 =gd3bj output=wfx pbe1pbe
 ----------------------------------------------------------------------
 1/10=4,30=1,38=1/1,3;
 2/12=2,17=6,18=5,40=1/2;
 3/5=43,7=101,11=2,25=1,30=1,71=2,74=-13,124=41,140=1/1,2,3;
 4//1;
 5/5=2,38=5,98=1/2;
 8/6=4,10=90,11=11/1;
 11/6=1,8=1,9=11,15=111,16=1/1,2,10;
 10/6=1/2;
 6/28=1,40=1,73=1/1,7;
 7/8=1,10=1,25=1/1,2,3,16;
 1/10=4,30=1/3;
 99/6=200/99;
 Leave Link    1 at Mon Mar  6 10:21:49 2023, MaxMem=  1048576000 cpu:               0.0 elap:               0.2
 (Enter /ssoft/spack/external/gaussian/g16-C.01/avx2/g16/l101.exe)
 ----------------------------------------
 XUKXAC_Complex_0_Ligand_1_ON_Cu_oriented
 ----------------------------------------
 Symbolic Z-matrix:
 Charge = -1 Multiplicity = 1
 N                    -0.11151  -1.98153   0. 
 H                     0.52842  -2.36354   0.48628 
 H                     0.09649  -2.22826  -0.82841 
 C                    -1.4867   -2.42001   0.34856 
 C                    -1.57344  -2.82076   1.81902 
 H                    -1.16971  -2.10998   2.37648 
 C                    -0.85006  -4.14932   2.09098 
 H                     0.01165  -4.1545    1.60349 
 C                    -0.58837  -4.37337   3.56354 
 O                    -1.09195  -3.66306   4.4351 
 N                     0.24481  -5.38041   3.86504 
 H                     0.44466  -5.54963   4.70609 
 H                     0.59085  -5.87235   3.2231 
 O                    -3.66376  -1.49585  -0.03619 
 C                    -2.44791  -1.26226   0.07203 
 O                    -1.93891  -0.08114   0. 
 H                    -2.52518  -2.90783   2.07823 
 H                    -1.73865  -3.20197  -0.22243 
 H                    -1.4003   -4.89506   1.74289 
 
 ITRead=  0  0  0  0  0  0  0  0  0  0  0  0  0  0  0  0  0  0  0
 MicOpt= -1 -1 -1 -1 -1 -1 -1 -1 -1 -1 -1 -1 -1 -1 -1 -1 -1 -1 -1
 NAtoms=     19 NQM=       19 NQMF=       0 NMMI=      0 NMMIF=      0
                NMic=       0 NMicF=      0.
                    Isotopes and Nuclear Properties:
 (Nuclear quadrupole moments (NQMom) in fm**2, nuclear magnetic moments (NMagM)
  in nuclear magnetons)

  Atom         1           2           3           4           5           6           7           8           9          10
 IAtWgt=          14           1           1          12          12           1          12           1          12          16
 AtmWgt=  14.0030740   1.0078250   1.0078250  12.0000000  12.0000000   1.0078250  12.0000000   1.0078250  12.0000000  15.9949146
 NucSpn=           2           1           1           0           0           1           0           1           0           0
 AtZEff=  -0.0000000  -0.0000000  -0.0000000  -0.0000000  -0.0000000  -0.0000000  -0.0000000  -0.0000000  -0.0000000  -0.0000000
 NQMom=    2.0440000   0.0000000   0.0000000   0.0000000   0.0000000   0.0000000   0.0000000   0.0000000   0.0000000   0.0000000
 NMagM=    0.4037610   2.7928460   2.7928460   0.0000000   0.0000000   2.7928460   0.0000000   2.7928460   0.0000000   0.0000000
 AtZNuc=   7.0000000   1.0000000   1.0000000   6.0000000   6.0000000   1.0000000   6.0000000   1.0000000   6.0000000   8.0000000

  Atom        11          12          13          14          15          16          17          18          19
 IAtWgt=          14           1           1          16          12          16           1           1           1
 AtmWgt=  14.0030740   1.0078250   1.0078250  15.9949146  12.0000000  15.9949146   1.0078250   1.0078250   1.0078250
 NucSpn=           2           1           1           0           0           0           1           1           1
 AtZEff=  -0.0000000  -0.0000000  -0.0000000  -0.0000000  -0.0000000  -0.0000000  -0.0000000  -0.0000000  -0.0000000
 NQMom=    2.0440000   0.0000000   0.0000000   0.0000000   0.0000000   0.0000000   0.0000000   0.0000000   0.0000000
 NMagM=    0.4037610   2.7928460   2.7928460   0.0000000   0.0000000   0.0000000   2.7928460   2.7928460   2.7928460
 AtZNuc=   7.0000000   1.0000000   1.0000000   8.0000000   6.0000000   8.0000000   1.0000000   1.0000000   1.0000000
 Leave Link  101 at Mon Mar  6 10:21:49 2023, MaxMem=  1048576000 cpu:               0.1 elap:               0.1
 (Enter /ssoft/spack/external/gaussian/g16-C.01/avx2/g16/l103.exe)

 GradGradGradGradGradGradGradGradGradGradGradGradGradGradGradGradGradGrad
 Berny optimization.
 Initialization pass.
 Trust Radius=3.00D-01 FncErr=1.00D-07 GrdErr=1.00D-07 EigMax=2.50D+02 EigMin=1.00D-04
 Number of steps in this run=      2 maximum allowed number of steps=      2.
 GradGradGradGradGradGradGradGradGradGradGradGradGradGradGradGradGradGrad

 Leave Link  103 at Mon Mar  6 10:21:49 2023, MaxMem=  1048576000 cpu:               0.0 elap:               0.1
 (Enter /ssoft/spack/external/gaussian/g16-C.01/avx2/g16/l202.exe)
                          Input orientation:                          
 ---------------------------------------------------------------------
 Center     Atomic      Atomic             Coordinates (Angstroms)
 Number     Number       Type             X           Y           Z
 ---------------------------------------------------------------------
      1          7           0       -0.111510   -1.981529    0.000000
      2          1           0        0.528424   -2.363543    0.486282
      3          1           0        0.096489   -2.228257   -0.828414
      4          6           0       -1.486695   -2.420005    0.348560
      5          6           0       -1.573441   -2.820764    1.819024
      6          1           0       -1.169711   -2.109979    2.376483
      7          6           0       -0.850061   -4.149323    2.090983
      8          1           0        0.011654   -4.154499    1.603486
      9          6           0       -0.588374   -4.373368    3.563536
     10          8           0       -1.091948   -3.663060    4.435096
     11          7           0        0.244811   -5.380410    3.865040
     12          1           0        0.444659   -5.549635    4.706092
     13          1           0        0.590853   -5.872354    3.223098
     14          8           0       -3.663758   -1.495854   -0.036190
     15          6           0       -2.447911   -1.262259    0.072027
     16          8           0       -1.938907   -0.081144    0.000000
     17          1           0       -2.525179   -2.907826    2.078229
     18          1           0       -1.738654   -3.201975   -0.222430
     19          1           0       -1.400298   -4.895058    1.742886
 ---------------------------------------------------------------------
                    Distance matrix (angstroms):
                    1          2          3          4          5
     1  N    0.000000
     2  H    0.889899   0.000000
     3  H    0.889049   1.390430   0.000000
     4  C    1.484887   2.020609   1.982046   0.000000
     5  C    2.480001   2.530433   3.185696   1.526564   0.000000
     6  H    2.604604   2.553589   3.447987   2.075829   0.989431
     7  C    3.101128   2.768446   3.620680   2.536115   1.536981
     8  H    2.703356   2.173182   3.103505   2.613113   2.082746
     9  C    4.318226   3.841370   4.935560   3.867645   2.534612
    10  O    4.843437   4.461780   5.583509   4.289614   2.790185
    11  N    5.159253   4.538494   5.655668   4.912000   3.747534
    12  H    5.931947   5.288194   6.464017   5.701999   4.455853
    13  H    5.100999   4.450373   5.471617   4.949534   3.995972
    14  O    3.585479   4.312801   3.911967   2.396183   3.092997
    15  C    2.445671   3.200469   2.866691   1.529962   2.499127
    16  O    2.636445   3.396106   3.072328   2.407543   3.308766
    17  H    3.317056   3.486407   3.972849   2.075614   0.990238
    18  H    2.046108   2.518905   2.164045   1.000494   2.083302
    19  H    3.631429   3.421636   3.995470   2.842094   2.082900
                    6          7          8          9         10
     6  H    0.000000
     7  C    2.083893   0.000000
     8  H    2.484594   0.990067   0.000000
     9  C    2.621063   1.512312   2.061488   0.000000
    10  O    2.579921   2.406206   3.078549   1.231966   0.000000
    11  N    3.861657   2.421074   2.582992   1.341357   2.249707
    12  H    4.456960   3.236660   3.429294   1.938091   2.448216
    13  H    4.239317   2.515304   2.430976   1.937378   3.030138
    14  O    3.523977   4.413916   4.823441   5.540406   5.594943
    15  C    2.768202   3.868391   4.093883   5.032645   5.161285
    16  O    3.217997   4.701901   4.792502   5.739853   5.763466
    17  H    1.600877   2.085066   2.866199   2.846956   2.859956
    18  H    2.875847   2.653101   2.702748   4.126601   4.724762
    19  H    2.865533   0.989977   1.600459   2.060619   2.976726
                   11         12         13         14         15
    11  N    0.000000
    12  H    0.880876   0.000000
    13  H    0.879684   1.524726   0.000000
    14  O    6.751762   7.470038   6.919424   0.000000
    15  C    6.212638   6.944286   6.357383   1.242804   0.000000
    16  O    6.912987   7.598228   7.094094   2.231104   1.288140
    17  H    4.120584   4.764950   4.450708   2.785821   2.595903
    18  H    5.038564   5.879514   4.942590   2.579062   2.086204
    19  H    2.728643   3.551468   2.666612   4.454543   4.133581
                   16         17         18         19
    16  O    0.000000
    17  H    3.557089   0.000000
    18  H    3.135149   2.449118   0.000000
    19  H    5.147963   2.308009   2.616005   0.000000
 Stoichiometry    C5H9N2O3(1-)
 Framework group  C1[X(C5H9N2O3)]
 Deg. of freedom    51
 Full point group                 C1      NOp   1
 Largest Abelian subgroup         C1      NOp   1
 Largest concise Abelian subgroup C1      NOp   1
                         Standard orientation:                         
 ---------------------------------------------------------------------
 Center     Atomic      Atomic             Coordinates (Angstroms)
 Number     Number       Type             X           Y           Z
 ---------------------------------------------------------------------
      1          7           0       -1.243028    1.748407    0.338380
      2          1           0       -0.444187    2.072356    0.559357
      3          1           0       -1.584368    2.394166   -0.168463
      4          6           0       -1.196142    0.465258   -0.407422
      5          6           0        0.042356   -0.341130   -0.024982
      6          1           0        0.111295   -0.387517    0.960954
      7          6           0        1.326618    0.283458   -0.593199
      8          1           0        1.290675    1.265296   -0.470997
      9          6           0        2.573593   -0.254047    0.072556
     10          8           0        2.547011   -1.227406    0.827279
     11          7           0        3.710709    0.407139   -0.190192
     12          1           0        4.466594    0.147417    0.180111
     13          1           0        3.701798    1.099394   -0.732915
     14          8           0       -2.799932   -1.266705   -0.819550
     15          6           0       -2.456316   -0.335004   -0.072273
     16          8           0       -3.084862   -0.015941    1.005889
     17          1           0       -0.050971   -1.265405   -0.367876
     18          1           0       -1.176745    0.654711   -1.389623
     19          1           0        1.373751    0.099971   -1.564881
 ---------------------------------------------------------------------
 Rotational constants (GHZ):           2.9768730           0.5742278           0.5352471
 Leave Link  202 at Mon Mar  6 10:21:49 2023, MaxMem=  1048576000 cpu:               0.0 elap:               0.0
 (Enter /ssoft/spack/external/gaussian/g16-C.01/avx2/g16/l301.exe)
 Standard basis: def2SVP (5D, 7F)
 Ernie: Thresh=  0.10000D-02 Tol=  0.10000D-05 Strict=F.
 There are   195 symmetry adapted cartesian basis functions of A   symmetry.
 There are   185 symmetry adapted basis functions of A   symmetry.
   185 basis functions,   313 primitive gaussians,   195 cartesian basis functions
    39 alpha electrons       39 beta electrons
       nuclear repulsion energy       530.1350138773 Hartrees.
 IExCor= 1009 DFT=T Ex+Corr=PBE1PBE ExCW=0 ScaHFX=  0.250000
 ScaDFX=  0.750000  0.750000  1.000000  1.000000 ScalE2=  1.000000  1.000000
 IRadAn=      5 IRanWt=     -1 IRanGd=            0 ICorTp=0 IEmpDi=141
 NAtoms=   19 NActive=   19 NUniq=   19 SFac= 1.00D+00 NAtFMM=   60 NAOKFM=F Big=F
 Integral buffers will be    131072 words long.
 Raffenetti 2 integral format.
 Two-electron integral symmetry is turned on.
 R6Disp:  Grimme-D3(BJ) Dispersion energy=       -0.0151966664 Hartrees.
 Nuclear repulsion after empirical dispersion term =      530.1198172108 Hartrees.
 Leave Link  301 at Mon Mar  6 10:21:49 2023, MaxMem=  1048576000 cpu:               0.1 elap:               0.1
 (Enter /ssoft/spack/external/gaussian/g16-C.01/avx2/g16/l302.exe)
 NPDir=0 NMtPBC=     1 NCelOv=     1 NCel=       1 NClECP=     1 NCelD=      1
         NCelK=      1 NCelE2=     1 NClLst=     1 CellRange=     0.0.
 One-electron integrals computed using PRISM.
 One-electron integral symmetry used in STVInt
   1 Symmetry operations used in ECPInt.
 ECPInt:  NShTT=    3828 NPrTT=   13852 LenC2=    3673 LenP2D=   10311.
 LDataN:  DoStor=T MaxTD1= 4 Len=   56
 NBasis=   185 RedAO= T EigKep=  9.82D-04  NBF=   185
 NBsUse=   185 1.00D-06 EigRej= -1.00D+00 NBFU=   185
 Precomputing XC quadrature grid using
 IXCGrd= 4 IRadAn=           5 IRanWt=          -1 IRanGd=           0 AccXCQ= 0.00D+00.
 Generated NRdTot=       0 NPtTot=           0 NUsed=           0 NTot=          32
 NSgBfM=   195   195   195   195   195 MxSgAt=    19 MxSgA2=    19.
 Leave Link  302 at Mon Mar  6 10:21:49 2023, MaxMem=  1048576000 cpu:               0.4 elap:               0.4
 (Enter /ssoft/spack/external/gaussian/g16-C.01/avx2/g16/l303.exe)
 DipDrv:  MaxL=1.
 Leave Link  303 at Mon Mar  6 10:21:49 2023, MaxMem=  1048576000 cpu:               0.0 elap:               0.0
 (Enter /ssoft/spack/external/gaussian/g16-C.01/avx2/g16/l401.exe)
 ExpMin= 1.22D-01 ExpMax= 2.27D+03 ExpMxC= 3.41D+02 IAcc=3 IRadAn=         5 AccDes= 0.00D+00
 Harris functional with IExCor= 1009 and IRadAn=       5 diagonalized for initial guess.
 HarFok:  IExCor= 1009 AccDes= 0.00D+00 IRadAn=         5 IDoV= 1 UseB2=F ITyADJ=14
 ICtDFT=  3500011 ScaDFX=  1.000000  1.000000  1.000000  1.000000
 FoFCou: FMM=F IPFlag=           0 FMFlag=      100000 FMFlg1=           0
         NFxFlg=           0 DoJE=T BraDBF=F KetDBF=T FulRan=T
         wScrn=  0.000000 ICntrl=       500 IOpCl=  0 I1Cent=   200000004 NGrid=           0
         NMat0=    1 NMatS0=      1 NMatT0=    0 NMatD0=    1 NMtDS0=    0 NMtDT0=    0
 Petite list used in FoFCou.
 Harris En= -530.484696813818    
 JPrj=0 DoOrth=F DoCkMO=F.
 Leave Link  401 at Mon Mar  6 10:21:52 2023, MaxMem=  1048576000 cpu:               3.0 elap:               3.0
 (Enter /ssoft/spack/external/gaussian/g16-C.01/avx2/g16/l502.exe)
 Keep R1 ints in memory in canonical form, NReq=151781036.
 FoFCou: FMM=F IPFlag=           0 FMFlag=           0 FMFlg1=           0
         NFxFlg=           0 DoJE=F BraDBF=F KetDBF=F FulRan=T
         wScrn=  0.000000 ICntrl=       600 IOpCl=  0 I1Cent=           0 NGrid=           0
         NMat0=    1 NMatS0=  17205 NMatT0=    0 NMatD0=    1 NMtDS0=    0 NMtDT0=    0
 Symmetry not used in FoFCou.
 Two-electron integral symmetry not used.
 Closed shell SCF:
 Using DIIS extrapolation, IDIIS=  1040.
 NGot=  1048576000 LenX=   900481531 LenY=   900443065
 Requested convergence on RMS density matrix=1.00D-08 within 128 cycles.
 Requested convergence on MAX density matrix=1.00D-06.
 Requested convergence on             energy=1.00D-06.
 No special actions if energy rises.
 Integral accuracy reduced to 1.0D-05 until final iterations.

 Cycle   1  Pass 0  IDiag  1:
 E= -529.689760627249    
 DIIS: error= 4.87D-02 at cycle   1 NSaved=   1.
 NSaved= 1 IEnMin= 1 EnMin= -529.689760627249     IErMin= 1 ErrMin= 4.87D-02
 ErrMax= 4.87D-02  0.00D+00 EMaxC= 1.00D-01 BMatC= 4.56D-01 BMatP= 4.56D-01
 IDIUse=3 WtCom= 5.13D-01 WtEn= 4.87D-01
 Coeff-Com:  0.100D+01
 Coeff-En:   0.100D+01
 Coeff:      0.100D+01
 Gap=     0.038 Goal=   None    Shift=    0.000
 GapD=    0.038 DampG=0.250 DampE=0.500 DampFc=0.2500 IDamp=-1.
 Damping current iteration by 2.50D-01
 RMSDP=5.18D-02 MaxDP=3.53D+00              OVMax= 9.86D-01

 Cycle   2  Pass 0  IDiag  1:
 E= -529.737479535474     Delta-E=       -0.047718908225 Rises=F Damp=T
 DIIS: error= 1.71D-02 at cycle   2 NSaved=   2.
 NSaved= 2 IEnMin= 2 EnMin= -529.737479535474     IErMin= 2 ErrMin= 1.71D-02
 ErrMax= 1.71D-02  0.00D+00 EMaxC= 1.00D-01 BMatC= 8.89D-02 BMatP= 4.56D-01
 IDIUse=3 WtCom= 8.29D-01 WtEn= 1.71D-01
 Coeff-Com: -0.349D+00 0.135D+01
 Coeff-En:   0.363D+00 0.637D+00
 Coeff:     -0.228D+00 0.123D+01
 Gap=    -0.177 Goal=   None    Shift=    0.000
 RMSDP=1.31D-02 MaxDP=8.05D-01 DE=-4.77D-02 OVMax= 4.78D-01

 Cycle   3  Pass 0  IDiag  1:
 E= -529.887053659525     Delta-E=       -0.149574124051 Rises=F Damp=F
 DIIS: error= 3.05D-02 at cycle   3 NSaved=   3.
 NSaved= 3 IEnMin= 3 EnMin= -529.887053659525     IErMin= 2 ErrMin= 1.71D-02
 ErrMax= 3.05D-02  0.00D+00 EMaxC= 1.00D-01 BMatC= 2.08D-01 BMatP= 8.89D-02
 IDIUse=2 WtCom= 0.00D+00 WtEn= 1.00D+00
 Coeff-En:   0.000D+00 0.251D+00 0.749D+00
 Coeff:      0.000D+00 0.251D+00 0.749D+00
 Gap=     0.535 Goal=   None    Shift=    0.000
 RMSDP=1.53D-02 MaxDP=4.82D-01 DE=-1.50D-01 OVMax= 9.65D-01

 Cycle   4  Pass 0  IDiag  1:
 E= -527.915897539259     Delta-E=        1.971156120265 Rises=F Damp=F
 DIIS: error= 8.97D-02 at cycle   4 NSaved=   4.
 NSaved= 4 IEnMin= 3 EnMin= -529.887053659525     IErMin= 2 ErrMin= 1.71D-02
 ErrMax= 8.97D-02  0.00D+00 EMaxC= 1.00D-01 BMatC= 1.35D+00 BMatP= 8.89D-02
 IDIUse=2 WtCom= 0.00D+00 WtEn= 1.00D+00
 EnCoef did     1 forward-backward iterations
 Coeff-En:   0.288D-01 0.000D+00 0.842D+00 0.129D+00
 Coeff:      0.288D-01 0.000D+00 0.842D+00 0.129D+00
 Gap=    -0.004 Goal=   None    Shift=    0.000
 RMSDP=1.47D-02 MaxDP=4.23D-01 DE= 1.97D+00 OVMax= 9.66D-01

 Cycle   5  Pass 0  IDiag  1:
 E= -529.954066878749     Delta-E=       -2.038169339490 Rises=F Damp=F
 DIIS: error= 2.51D-02 at cycle   5 NSaved=   5.
 NSaved= 5 IEnMin= 5 EnMin= -529.954066878749     IErMin= 2 ErrMin= 1.71D-02
 ErrMax= 2.51D-02  0.00D+00 EMaxC= 1.00D-01 BMatC= 1.53D-01 BMatP= 8.89D-02
 IDIUse=2 WtCom= 0.00D+00 WtEn= 1.00D+00
 Coeff-En:   0.000D+00 0.000D+00 0.407D+00 0.000D+00 0.593D+00
 Coeff:      0.000D+00 0.000D+00 0.407D+00 0.000D+00 0.593D+00
 Gap=     0.138 Goal=   None    Shift=    0.000
 RMSDP=3.44D-03 MaxDP=9.71D-02 DE=-2.04D+00 OVMax= 1.40D-01

 Cycle   6  Pass 0  IDiag  1:
 E= -530.056037604935     Delta-E=       -0.101970726186 Rises=F Damp=F
 DIIS: error= 1.67D-02 at cycle   6 NSaved=   6.
 NSaved= 6 IEnMin= 6 EnMin= -530.056037604935     IErMin= 6 ErrMin= 1.67D-02
 ErrMax= 1.67D-02  0.00D+00 EMaxC= 1.00D-01 BMatC= 2.82D-02 BMatP= 8.89D-02
 IDIUse=3 WtCom= 8.33D-01 WtEn= 1.67D-01
 Coeff-Com: -0.543D-01 0.125D+00 0.221D+00-0.219D-02 0.318D+00 0.393D+00
 Coeff-En:   0.000D+00 0.000D+00 0.000D+00 0.000D+00 0.154D+00 0.846D+00
 Coeff:     -0.452D-01 0.104D+00 0.184D+00-0.183D-02 0.291D+00 0.468D+00
 Gap=     0.154 Goal=   None    Shift=    0.000
 RMSDP=1.46D-03 MaxDP=3.99D-02 DE=-1.02D-01 OVMax= 6.45D-02

 Cycle   7  Pass 0  IDiag  1:
 E= -530.076827277476     Delta-E=       -0.020789672541 Rises=F Damp=F
 DIIS: error= 4.22D-03 at cycle   7 NSaved=   7.
 NSaved= 7 IEnMin= 7 EnMin= -530.076827277476     IErMin= 7 ErrMin= 4.22D-03
 ErrMax= 4.22D-03  0.00D+00 EMaxC= 1.00D-01 BMatC= 2.54D-03 BMatP= 2.82D-02
 IDIUse=3 WtCom= 9.58D-01 WtEn= 4.22D-02
 Coeff-Com: -0.286D-01 0.450D-01 0.493D-01-0.398D-02 0.119D+00 0.289D+00
 Coeff-Com:  0.530D+00
 Coeff-En:   0.000D+00 0.000D+00 0.000D+00 0.000D+00 0.000D+00 0.175D-01
 Coeff-En:   0.982D+00
 Coeff:     -0.274D-01 0.431D-01 0.472D-01-0.382D-02 0.114D+00 0.277D+00
 Coeff:      0.550D+00
 Gap=     0.137 Goal=   None    Shift=    0.000
 RMSDP=4.21D-04 MaxDP=1.40D-02 DE=-2.08D-02 OVMax= 1.49D-02

 Cycle   8  Pass 0  IDiag  1:
 E= -530.078618445812     Delta-E=       -0.001791168336 Rises=F Damp=F
 DIIS: error= 1.52D-03 at cycle   8 NSaved=   8.
 NSaved= 8 IEnMin= 8 EnMin= -530.078618445812     IErMin= 8 ErrMin= 1.52D-03
 ErrMax= 1.52D-03  0.00D+00 EMaxC= 1.00D-01 BMatC= 2.19D-04 BMatP= 2.54D-03
 IDIUse=3 WtCom= 9.85D-01 WtEn= 1.52D-02
 Coeff-Com: -0.154D-01 0.233D-01-0.699D-02-0.176D-02 0.688D-02 0.809D-01
 Coeff-Com:  0.325D+00 0.588D+00
 Coeff-En:   0.000D+00 0.000D+00 0.000D+00 0.000D+00 0.000D+00 0.000D+00
 Coeff-En:   0.116D-01 0.988D+00
 Coeff:     -0.151D-01 0.230D-01-0.688D-02-0.173D-02 0.677D-02 0.796D-01
 Coeff:      0.320D+00 0.594D+00
 Gap=     0.137 Goal=   None    Shift=    0.000
 RMSDP=9.54D-05 MaxDP=3.09D-03 DE=-1.79D-03 OVMax= 4.39D-03

 Cycle   9  Pass 0  IDiag  1:
 E= -530.078792074709     Delta-E=       -0.000173628896 Rises=F Damp=F
 DIIS: error= 3.41D-04 at cycle   9 NSaved=   9.
 NSaved= 9 IEnMin= 9 EnMin= -530.078792074709     IErMin= 9 ErrMin= 3.41D-04
 ErrMax= 3.41D-04  0.00D+00 EMaxC= 1.00D-01 BMatC= 1.97D-05 BMatP= 2.19D-04
 IDIUse=3 WtCom= 9.97D-01 WtEn= 3.41D-03
 Coeff-Com: -0.610D-02 0.641D-02-0.834D-02 0.299D-03-0.321D-02 0.240D-01
 Coeff-Com:  0.124D+00 0.286D+00 0.577D+00
 Coeff-En:   0.000D+00 0.000D+00 0.000D+00 0.000D+00 0.000D+00 0.000D+00
 Coeff-En:   0.000D+00 0.000D+00 0.100D+01
 Coeff:     -0.608D-02 0.639D-02-0.832D-02 0.298D-03-0.319D-02 0.240D-01
 Coeff:      0.124D+00 0.285D+00 0.578D+00
 Gap=     0.136 Goal=   None    Shift=    0.000
 RMSDP=2.64D-05 MaxDP=4.55D-04 DE=-1.74D-04 OVMax= 1.35D-03

 Cycle  10  Pass 0  IDiag  1:
 E= -530.078807829912     Delta-E=       -0.000015755203 Rises=F Damp=F
 DIIS: error= 1.19D-04 at cycle  10 NSaved=  10.
 NSaved=10 IEnMin=10 EnMin= -530.078807829912     IErMin=10 ErrMin= 1.19D-04
 ErrMax= 1.19D-04  0.00D+00 EMaxC= 1.00D-01 BMatC= 2.01D-06 BMatP= 1.97D-05
 IDIUse=3 WtCom= 9.99D-01 WtEn= 1.19D-03
 Coeff-Com: -0.277D-02 0.396D-02-0.253D-02 0.934D-04-0.103D-02 0.303D-02
 Coeff-Com:  0.105D-01 0.318D-01 0.135D+00 0.822D+00
 Coeff-En:   0.000D+00 0.000D+00 0.000D+00 0.000D+00 0.000D+00 0.000D+00
 Coeff-En:   0.000D+00 0.000D+00 0.000D+00 0.100D+01
 Coeff:     -0.277D-02 0.395D-02-0.253D-02 0.933D-04-0.103D-02 0.302D-02
 Coeff:      0.105D-01 0.318D-01 0.135D+00 0.822D+00
 Gap=     0.136 Goal=   None    Shift=    0.000
 RMSDP=1.01D-05 MaxDP=4.11D-04 DE=-1.58D-05 OVMax= 2.90D-04

 Cycle  11  Pass 0  IDiag  1:
 E= -530.078809261227     Delta-E=       -0.000001431316 Rises=F Damp=F
 DIIS: error= 5.52D-05 at cycle  11 NSaved=  11.
 NSaved=11 IEnMin=11 EnMin= -530.078809261227     IErMin=11 ErrMin= 5.52D-05
 ErrMax= 5.52D-05  0.00D+00 EMaxC= 1.00D-01 BMatC= 6.58D-07 BMatP= 2.01D-06
 IDIUse=1 WtCom= 1.00D+00 WtEn= 0.00D+00
 Coeff-Com: -0.642D-03 0.857D-03-0.623D-03 0.258D-04 0.307D-03-0.168D-02
 Coeff-Com: -0.168D-01-0.354D-01-0.366D-01 0.411D+00 0.679D+00
 Coeff:     -0.642D-03 0.857D-03-0.623D-03 0.258D-04 0.307D-03-0.168D-02
 Coeff:     -0.168D-01-0.354D-01-0.366D-01 0.411D+00 0.679D+00
 Gap=     0.136 Goal=   None    Shift=    0.000
 RMSDP=9.02D-06 MaxDP=1.84D-04 DE=-1.43D-06 OVMax= 2.53D-04

 Initial convergence to 1.0D-05 achieved.  Increase integral accuracy.
 Cycle  12  Pass 1  IDiag  1:
 E= -530.078797975215     Delta-E=        0.000011286012 Rises=F Damp=F
 DIIS: error= 1.16D-05 at cycle   1 NSaved=   1.
 NSaved= 1 IEnMin= 1 EnMin= -530.078797975215     IErMin= 1 ErrMin= 1.16D-05
 ErrMax= 1.16D-05  0.00D+00 EMaxC= 1.00D-01 BMatC= 2.54D-08 BMatP= 2.54D-08
 IDIUse=1 WtCom= 1.00D+00 WtEn= 0.00D+00
 Coeff-Com:  0.100D+01
 Coeff:      0.100D+01
 Gap=     0.135 Goal=   None    Shift=    0.000
 RMSDP=9.02D-06 MaxDP=1.84D-04 DE= 1.13D-05 OVMax= 1.34D-04

 Cycle  13  Pass 1  IDiag  1:
 E= -530.078797946181     Delta-E=        0.000000029034 Rises=F Damp=F
 DIIS: error= 1.82D-05 at cycle   2 NSaved=   2.
 NSaved= 2 IEnMin= 1 EnMin= -530.078797975215     IErMin= 1 ErrMin= 1.16D-05
 ErrMax= 1.82D-05  0.00D+00 EMaxC= 1.00D-01 BMatC= 7.35D-08 BMatP= 2.54D-08
 IDIUse=1 WtCom= 1.00D+00 WtEn= 0.00D+00
 Coeff-Com:  0.638D+00 0.362D+00
 Coeff:      0.638D+00 0.362D+00
 Gap=     0.135 Goal=   None    Shift=    0.000
 RMSDP=1.84D-06 MaxDP=5.32D-05 DE= 2.90D-08 OVMax= 9.10D-05

 Cycle  14  Pass 1  IDiag  1:
 E= -530.078798001752     Delta-E=       -0.000000055571 Rises=F Damp=F
 DIIS: error= 3.31D-06 at cycle   3 NSaved=   3.
 NSaved= 3 IEnMin= 3 EnMin= -530.078798001752     IErMin= 3 ErrMin= 3.31D-06
 ErrMax= 3.31D-06  0.00D+00 EMaxC= 1.00D-01 BMatC= 2.00D-09 BMatP= 2.54D-08
 IDIUse=1 WtCom= 1.00D+00 WtEn= 0.00D+00
 Coeff-Com:  0.282D+00 0.180D+00 0.538D+00
 Coeff:      0.282D+00 0.180D+00 0.538D+00
 Gap=     0.135 Goal=   None    Shift=    0.000
 RMSDP=4.21D-07 MaxDP=1.40D-05 DE=-5.56D-08 OVMax= 2.18D-05

 Cycle  15  Pass 1  IDiag  1:
 E= -530.078798003101     Delta-E=       -0.000000001349 Rises=F Damp=F
 DIIS: error= 1.72D-06 at cycle   4 NSaved=   4.
 NSaved= 4 IEnMin= 4 EnMin= -530.078798003101     IErMin= 4 ErrMin= 1.72D-06
 ErrMax= 1.72D-06  0.00D+00 EMaxC= 1.00D-01 BMatC= 4.10D-10 BMatP= 2.00D-09
 IDIUse=1 WtCom= 1.00D+00 WtEn= 0.00D+00
 Coeff-Com:  0.611D-01 0.308D-01 0.309D+00 0.599D+00
 Coeff:      0.611D-01 0.308D-01 0.309D+00 0.599D+00
 Gap=     0.135 Goal=   None    Shift=    0.000
 RMSDP=1.61D-07 MaxDP=5.60D-06 DE=-1.35D-09 OVMax= 8.24D-06

 Cycle  16  Pass 1  IDiag  1:
 E= -530.078798003381     Delta-E=       -0.000000000280 Rises=F Damp=F
 DIIS: error= 6.81D-07 at cycle   5 NSaved=   5.
 NSaved= 5 IEnMin= 5 EnMin= -530.078798003381     IErMin= 5 ErrMin= 6.81D-07
 ErrMax= 6.81D-07  0.00D+00 EMaxC= 1.00D-01 BMatC= 5.73D-11 BMatP= 4.10D-10
 IDIUse=1 WtCom= 1.00D+00 WtEn= 0.00D+00
 Coeff-Com:  0.137D-03-0.800D-02 0.113D+00 0.355D+00 0.539D+00
 Coeff:      0.137D-03-0.800D-02 0.113D+00 0.355D+00 0.539D+00
 Gap=     0.135 Goal=   None    Shift=    0.000
 RMSDP=5.18D-08 MaxDP=1.66D-06 DE=-2.80D-10 OVMax= 1.81D-06

 Cycle  17  Pass 1  IDiag  1:
 E= -530.078798003425     Delta-E=       -0.000000000044 Rises=F Damp=F
 DIIS: error= 1.40D-07 at cycle   6 NSaved=   6.
 NSaved= 6 IEnMin= 6 EnMin= -530.078798003425     IErMin= 6 ErrMin= 1.40D-07
 ErrMax= 1.40D-07  0.00D+00 EMaxC= 1.00D-01 BMatC= 2.10D-12 BMatP= 5.73D-11
 IDIUse=1 WtCom= 1.00D+00 WtEn= 0.00D+00
 Coeff-Com: -0.329D-02-0.522D-02 0.315D-01 0.117D+00 0.240D+00 0.620D+00
 Coeff:     -0.329D-02-0.522D-02 0.315D-01 0.117D+00 0.240D+00 0.620D+00
 Gap=     0.135 Goal=   None    Shift=    0.000
 RMSDP=1.39D-08 MaxDP=4.69D-07 DE=-4.37D-11 OVMax= 7.80D-07

 Cycle  18  Pass 1  IDiag  1:
 E= -530.078798003427     Delta-E=       -0.000000000002 Rises=F Damp=F
 DIIS: error= 8.98D-08 at cycle   7 NSaved=   7.
 NSaved= 7 IEnMin= 7 EnMin= -530.078798003427     IErMin= 7 ErrMin= 8.98D-08
 ErrMax= 8.98D-08  0.00D+00 EMaxC= 1.00D-01 BMatC= 8.02D-13 BMatP= 2.10D-12
 IDIUse=1 WtCom= 1.00D+00 WtEn= 0.00D+00
 Coeff-Com: -0.225D-02-0.229D-02 0.583D-02 0.265D-01 0.804D-01 0.406D+00
 Coeff-Com:  0.486D+00
 Coeff:     -0.225D-02-0.229D-02 0.583D-02 0.265D-01 0.804D-01 0.406D+00
 Coeff:      0.486D+00
 Gap=     0.135 Goal=   None    Shift=    0.000
 RMSDP=5.91D-09 MaxDP=2.65D-07 DE=-2.27D-12 OVMax= 2.73D-07

 SCF Done:  E(RPBE1PBE) =  -530.078798003     A.U. after   18 cycles
            NFock= 18  Conv=0.59D-08     -V/T= 2.0048
 KE= 5.275717995774D+02 PE=-2.316045447785D+03 EE= 7.282750329930D+02
 Leave Link  502 at Mon Mar  6 10:22:44 2023, MaxMem=  1048576000 cpu:              51.1 elap:              51.5
 (Enter /ssoft/spack/external/gaussian/g16-C.01/avx2/g16/l801.exe)
 DoSCS=F DFT=T ScalE2(SS,OS)=  1.000000  1.000000
 Range of M.O.s used for correlation:     1   185
 NBasis=   185 NAE=    39 NBE=    39 NFC=     0 NFV=     0
 NROrb=    185 NOA=    39 NOB=    39 NVA=   146 NVB=   146
 Leave Link  801 at Mon Mar  6 10:22:44 2023, MaxMem=  1048576000 cpu:               0.0 elap:               0.0
 (Enter /ssoft/spack/external/gaussian/g16-C.01/avx2/g16/l1101.exe)
 Using compressed storage, NAtomX=    19.
 Will process     20 centers per pass.
   1 Symmetry operations used in ECPInt.
 ECPInt:  NShTT=    3828 NPrTT=   13852 LenC2=    3673 LenP2D=   10311.
 LDataN:  DoStor=T MaxTD1= 5 Len=  102
 R6Disp: Adding Grimme-D3(BJ) dispersion energy 1st derivatives to the gradient.
 Leave Link 1101 at Mon Mar  6 10:22:44 2023, MaxMem=  1048576000 cpu:               0.2 elap:               0.2
 (Enter /ssoft/spack/external/gaussian/g16-C.01/avx2/g16/l1102.exe)
 Symmetrizing basis deriv contribution to polar:
 IMax=3 JMax=2 DiffMx= 0.00D+00
 Leave Link 1102 at Mon Mar  6 10:22:44 2023, MaxMem=  1048576000 cpu:               0.0 elap:               0.0
 (Enter /ssoft/spack/external/gaussian/g16-C.01/avx2/g16/l1110.exe)
 Forming Gx(P) for the SCF density, NAtomX=    19.
 Integral derivatives from FoFJK, PRISM(SPDF).
 Do as many integral derivatives as possible in FoFJK.
 G2DrvN: MDV=    1048573907.
 G2DrvN: will do    20 centers at a time, making    1 passes.
 Calling FoFCou, ICntrl=  3107 FMM=F I1Cent=   0 AccDes= 0.00D+00.
 FoFJK:  IHMeth= 1 ICntrl=    3107 DoSepK=F KAlg= 0 I1Cent=           0 FoldK=F
 IRaf=         0 NMat=       1 IRICut=       1 DoRegI=T DoRafI=F ISym2E= 0 IDoP0=0 IntGTp=1.
 FoFCou: FMM=F IPFlag=           0 FMFlag=      100000 FMFlg1=           0
         NFxFlg=           0 DoJE=F BraDBF=F KetDBF=F FulRan=T
         wScrn=  0.000000 ICntrl=      3107 IOpCl=  0 I1Cent=           0 NGrid=           0
         NMat0=    1 NMatS0=      1 NMatT0=    0 NMatD0=    1 NMtDS0=    0 NMtDT0=    0
 Symmetry not used in FoFCou.
 End of G2Drv F.D. properties file   721 does not exist.
 End of G2Drv F.D. properties file   722 does not exist.
 End of G2Drv F.D. properties file   788 does not exist.
 Leave Link 1110 at Mon Mar  6 10:24:53 2023, MaxMem=  1048576000 cpu:             128.5 elap:             129.2
 (Enter /ssoft/spack/external/gaussian/g16-C.01/avx2/g16/l1002.exe)
 Minotr:  Closed shell wavefunction.
          IDoAtm=1111111111111111111
          Direct CPHF calculation.
          Differentiating once with respect to electric field.
                with respect to dipole field.
          Differentiating once with respect to nuclear coordinates.
          Requested convergence is 1.0D-08 RMS, and 1.0D-07 maximum.
          Secondary convergence is 1.0D-12 RMS, and 1.0D-12 maximum.
          NewPWx=T KeepS1=F KeepF1=F KeepIn=T MapXYZ=F SortEE=F KeepMc=T.
         5677 words used for storage of precomputed grid.
 Keep R1 ints in memory in canonical form, NReq=151789068.
 FoFCou: FMM=F IPFlag=           0 FMFlag=           0 FMFlg1=           0
         NFxFlg=           0 DoJE=F BraDBF=F KetDBF=F FulRan=T
         wScrn=  0.000000 ICntrl=       600 IOpCl=  0 I1Cent=           0 NGrid=           0
         NMat0=    1 NMatS0=  17205 NMatT0=    0 NMatD0=    1 NMtDS0=    0 NMtDT0=    0
 Symmetry not used in FoFCou.
 Two-electron integral symmetry not used.
          MDV=    1048576000 using IRadAn=       1.
          Solving linear equations simultaneously, MaxMat=       0.
          There are    60 degrees of freedom in the 1st order CPHF.  IDoFFX=6 NUNeed=     3.
     57 vectors produced by pass  0 Test12= 9.49D-15 1.67D-09 XBig12= 4.70D+01 2.68D+00.
 AX will form    57 AO Fock derivatives at one time.
     57 vectors produced by pass  1 Test12= 9.49D-15 1.67D-09 XBig12= 1.19D+01 9.21D-01.
     57 vectors produced by pass  2 Test12= 9.49D-15 1.67D-09 XBig12= 8.39D-02 3.47D-02.
     57 vectors produced by pass  3 Test12= 9.49D-15 1.67D-09 XBig12= 4.38D-04 3.31D-03.
     57 vectors produced by pass  4 Test12= 9.49D-15 1.67D-09 XBig12= 9.86D-07 1.26D-04.
     51 vectors produced by pass  5 Test12= 9.49D-15 1.67D-09 XBig12= 1.20D-09 5.25D-06.
      8 vectors produced by pass  6 Test12= 9.49D-15 1.67D-09 XBig12= 1.28D-12 1.17D-07.
      3 vectors produced by pass  7 Test12= 9.49D-15 1.67D-09 XBig12= 1.33D-15 5.12D-09.
 InvSVY:  IOpt=1 It=  1 EMax= 5.33D-15
 Solved reduced A of dimension   347 with    60 vectors.
 FullF1:  Do perturbations      1 to       3.
 Isotropic polarizability for W=    0.000000       69.13 Bohr**3.
 End of Minotr F.D. properties file   721 does not exist.
 End of Minotr F.D. properties file   722 does not exist.
 End of Minotr F.D. properties file   788 does not exist.
 Leave Link 1002 at Mon Mar  6 10:27:00 2023, MaxMem=  1048576000 cpu:             125.3 elap:             126.2
 (Enter /ssoft/spack/external/gaussian/g16-C.01/avx2/g16/l601.exe)
 Copying SCF densities to generalized density rwf, IOpCl= 0 IROHF=0.

 **********************************************************************

            Population analysis using the SCF Density.

 **********************************************************************

 Orbital symmetries:
       Occupied  (A) (A) (A) (A) (A) (A) (A) (A) (A) (A) (A) (A)
                 (A) (A) (A) (A) (A) (A) (A) (A) (A) (A) (A) (A)
                 (A) (A) (A) (A) (A) (A) (A) (A) (A) (A) (A) (A)
                 (A) (A) (A)
       Virtual   (A) (A) (A) (A) (A) (A) (A) (A) (A) (A) (A) (A)
                 (A) (A) (A) (A) (A) (A) (A) (A) (A) (A) (A) (A)
                 (A) (A) (A) (A) (A) (A) (A) (A) (A) (A) (A) (A)
                 (A) (A) (A) (A) (A) (A) (A) (A) (A) (A) (A) (A)
                 (A) (A) (A) (A) (A) (A) (A) (A) (A) (A) (A) (A)
                 (A) (A) (A) (A) (A) (A) (A) (A) (A) (A) (A) (A)
                 (A) (A) (A) (A) (A) (A) (A) (A) (A) (A) (A) (A)
                 (A) (A) (A) (A) (A) (A) (A) (A) (A) (A) (A) (A)
                 (A) (A) (A) (A) (A) (A) (A) (A) (A) (A) (A) (A)
                 (A) (A) (A) (A) (A) (A) (A) (A) (A) (A) (A) (A)
                 (A) (A) (A) (A) (A) (A) (A) (A) (A) (A) (A) (A)
                 (A) (A) (A) (A) (A) (A) (A) (A) (A) (A) (A) (A)
                 (A) (A)
 The electronic state is 1-A.
 Alpha  occ. eigenvalues --  -19.06713 -18.91612 -18.90146 -14.30459 -14.18028
 Alpha  occ. eigenvalues --  -10.22774 -10.10357 -10.07999 -10.07184 -10.06379
 Alpha  occ. eigenvalues --   -0.95041  -0.85978  -0.80553  -0.76452  -0.69756
 Alpha  occ. eigenvalues --   -0.69083  -0.59825  -0.53086  -0.51250  -0.47852
 Alpha  occ. eigenvalues --   -0.40013  -0.39140  -0.35704  -0.33679  -0.31847
 Alpha  occ. eigenvalues --   -0.30663  -0.29359  -0.25335  -0.23690  -0.22586
 Alpha  occ. eigenvalues --   -0.20881  -0.19281  -0.16926  -0.16011  -0.15375
 Alpha  occ. eigenvalues --   -0.08930  -0.02425  -0.01990   0.00314
 Alpha virt. eigenvalues --    0.13856   0.16018   0.19990   0.22173   0.24009
 Alpha virt. eigenvalues --    0.26334   0.27205   0.28703   0.31468   0.33106
 Alpha virt. eigenvalues --    0.34268   0.35073   0.37806   0.40318   0.41039
 Alpha virt. eigenvalues --    0.43388   0.47085   0.51028   0.56547   0.57600
 Alpha virt. eigenvalues --    0.59076   0.61083   0.62671   0.65153   0.66546
 Alpha virt. eigenvalues --    0.70235   0.73360   0.74601   0.77009   0.78707
 Alpha virt. eigenvalues --    0.79922   0.80551   0.83171   0.84411   0.85497
 Alpha virt. eigenvalues --    0.86409   0.87903   0.88986   0.89199   0.90282
 Alpha virt. eigenvalues --    0.90573   0.91709   0.92417   0.93886   0.95001
 Alpha virt. eigenvalues --    0.97493   0.99493   1.00323   1.03361   1.04059
 Alpha virt. eigenvalues --    1.05966   1.08916   1.09561   1.17678   1.19662
 Alpha virt. eigenvalues --    1.20485   1.22077   1.25589   1.27604   1.28283
 Alpha virt. eigenvalues --    1.31720   1.34643   1.36176   1.37532   1.41990
 Alpha virt. eigenvalues --    1.44820   1.47940   1.50792   1.51037   1.54829
 Alpha virt. eigenvalues --    1.55678   1.57957   1.62828   1.69432   1.72702
 Alpha virt. eigenvalues --    1.75505   1.80508   1.81389   1.86020   1.87514
 Alpha virt. eigenvalues --    1.89210   1.91620   1.94395   1.97515   1.98698
 Alpha virt. eigenvalues --    2.00337   2.01499   2.03284   2.04099   2.06372
 Alpha virt. eigenvalues --    2.11325   2.13705   2.14521   2.16667   2.19242
 Alpha virt. eigenvalues --    2.24576   2.26094   2.28045   2.30077   2.32499
 Alpha virt. eigenvalues --    2.35651   2.42335   2.43507   2.46648   2.54383
 Alpha virt. eigenvalues --    2.56187   2.57646   2.61297   2.64061   2.67457
 Alpha virt. eigenvalues --    2.69432   2.70181   2.73525   2.79169   2.81806
 Alpha virt. eigenvalues --    2.83038   2.88101   2.89655   2.92775   2.94360
 Alpha virt. eigenvalues --    2.95692   2.96876   2.98491   3.02601   3.07936
 Alpha virt. eigenvalues --    3.13032   3.13914   3.20207   3.24795   3.25684
 Alpha virt. eigenvalues --    3.28288   3.29200   3.32886   3.37129   3.38992
 Alpha virt. eigenvalues --    3.45499   3.49225   3.49718   3.57047   3.61965
 Alpha virt. eigenvalues --    3.64389   3.72597   3.81563   3.87462   3.88869
 Alpha virt. eigenvalues --    3.93372
     Molecular Orbital Coefficients:
                          35        36        37        38        39
                           O         O         O         O         O
     Eigenvalues --    -0.15375  -0.08930  -0.02425  -0.01990   0.00314
   1 1   N  1S          0.00456  -0.07358  -0.01769   0.00891  -0.03088
   2        2S          0.01061  -0.16144  -0.02422   0.02390  -0.06967
   3        3S          0.00499  -0.18859  -0.18598  -0.00759  -0.14190
   4        4PX         0.05479  -0.28259  -0.05676   0.02767  -0.05875
   5        4PY        -0.03114  -0.05036  -0.04484   0.01189  -0.04540
   6        4PZ        -0.04877   0.43447   0.04856  -0.01528   0.05795
   7        5PX        -0.03590   0.22412   0.06042  -0.00630   0.01791
   8        5PY         0.01674   0.00497   0.07957   0.02270   0.02005
   9        5PZ         0.04269  -0.36354  -0.03871   0.03360  -0.02829
  10        6D 0       -0.00361   0.00691  -0.00151   0.00102   0.00070
  11        6D+1        0.00189  -0.01470   0.00158  -0.00014  -0.00441
  12        6D-1       -0.00265  -0.00753  -0.00179  -0.00052  -0.00296
  13        6D+2       -0.00226   0.00592  -0.00033  -0.00095   0.00333
  14        6D-2       -0.00316   0.00387   0.00596  -0.00173   0.00389
  15 2   H  1S         -0.02157   0.06261   0.04705  -0.02815   0.03039
  16        2S         -0.01320  -0.00392   0.04146  -0.02523   0.04001
  17        3PX        -0.00139   0.00864   0.00112   0.00042   0.00201
  18        3PY         0.00100   0.00416   0.00205  -0.00092   0.00392
  19        3PZ         0.00236  -0.02682  -0.00322   0.00099  -0.00725
  20 3   H  1S          0.02997   0.06767   0.01432   0.01168   0.00932
  21        2S          0.02998   0.04095  -0.01093  -0.02452   0.05265
  22        3PX        -0.00277   0.02150   0.00335  -0.00241   0.00750
  23        3PY         0.00116  -0.00015   0.00164  -0.00128   0.00080
  24        3PZ         0.00412  -0.01626  -0.00235  -0.00082  -0.00306
  25 4   C  1S         -0.00562   0.00107  -0.05693   0.01472   0.00541
  26        2S          0.01877  -0.00136   0.13184  -0.04802  -0.01706
  27        3S          0.00465  -0.07917   0.51038   0.01892  -0.06333
  28        4PX         0.11181  -0.01329  -0.21670   0.05206   0.03466
  29        4PY        -0.08840   0.02555  -0.11758   0.03002   0.01305
  30        4PZ         0.07834   0.13071   0.07034  -0.01220  -0.02659
  31        5PX         0.03563   0.10352  -0.23628   0.05368   0.12334
  32        5PY        -0.05585   0.03980  -0.06624   0.02530   0.08839
  33        5PZ         0.03615   0.01661   0.09222   0.09250  -0.01457
  34        6D 0       -0.00709  -0.02219  -0.00642   0.00316   0.00031
  35        6D+1        0.00525   0.00558   0.00141  -0.00079  -0.00244
  36        6D-1        0.00377  -0.00453  -0.00393   0.00097  -0.00590
  37        6D+2        0.01113  -0.00675   0.00012  -0.00121   0.00231
  38        6D-2       -0.01021   0.01247   0.00389  -0.00092   0.00010
  39 5   C  1S         -0.03109  -0.00131   0.00575  -0.00147  -0.00430
  40        2S          0.06402   0.01677  -0.00749   0.00928   0.01585
  41        3S          0.16799  -0.09029  -0.03015  -0.08012  -0.03193
  42        4PX        -0.16205  -0.00395   0.03420  -0.00605  -0.01299
  43        4PY         0.06306  -0.00174  -0.02097  -0.01571  -0.00985
  44        4PZ        -0.05898  -0.00570  -0.00618  -0.01695  -0.01043
  45        5PX        -0.05724  -0.01367   0.02415   0.04098  -0.01656
  46        5PY         0.05192  -0.03878  -0.08499  -0.05006  -0.07004
  47        5PZ        -0.03568   0.06310   0.01262  -0.05071  -0.01372
  48        6D 0       -0.00247  -0.00482  -0.00341   0.00026   0.00035
  49        6D+1        0.00220  -0.00369  -0.00328   0.00037   0.00043
  50        6D-1        0.00060   0.00253   0.00204  -0.00013  -0.00061
  51        6D+2       -0.00133  -0.00119   0.00756  -0.00317  -0.00221
  52        6D-2       -0.00589   0.00019   0.00362  -0.00008  -0.00077
  53 6   H  1S         -0.03909  -0.02295  -0.02411  -0.00662  -0.00003
  54        2S         -0.05174  -0.07723  -0.04021   0.08875   0.02971
  55        3PX        -0.00476   0.00079   0.00131  -0.00282  -0.00106
  56        3PY         0.00139  -0.00004   0.00032  -0.00013   0.00091
  57        3PZ        -0.00008   0.00049   0.00085  -0.00115  -0.00021
  58 7   C  1S          0.00863   0.00186  -0.01425   0.00253   0.00635
  59        2S         -0.01665  -0.00138   0.02725  -0.00744  -0.01322
  60        3S         -0.06156   0.01619   0.11122   0.00766  -0.01726
  61        4PX         0.07526  -0.00250  -0.04679   0.00921   0.01376
  62        4PY         0.01604  -0.03285  -0.01833   0.00837  -0.00355
  63        4PZ        -0.00813  -0.00885   0.01254   0.00120  -0.00390
  64        5PX         0.06193  -0.03086  -0.05700   0.01145  -0.01435
  65        5PY         0.02031  -0.08428  -0.04064   0.00141  -0.02270
  66        5PZ        -0.02605   0.01170   0.02349  -0.00093  -0.00044
  67        6D 0       -0.00251  -0.00035   0.00093  -0.00071  -0.00101
  68        6D+1        0.00309  -0.00077  -0.00128   0.00103   0.00044
  69        6D-1        0.00192   0.00039  -0.00016  -0.00007  -0.00001
  70        6D+2        0.00490   0.00185  -0.00266   0.00040   0.00131
  71        6D-2       -0.00261  -0.00083   0.00198  -0.00022  -0.00075
  72 8   H  1S         -0.00780  -0.01618   0.01075   0.00548  -0.00315
  73        2S         -0.01979   0.11502   0.02248  -0.00419   0.04322
  74        3PX         0.00238  -0.00478  -0.00067   0.00042  -0.00032
  75        3PY         0.00013   0.00008  -0.00119  -0.00006   0.00051
  76        3PZ         0.00053   0.00017   0.00065  -0.00029  -0.00018
  77 9   C  1S         -0.01297  -0.00111   0.00774  -0.00172  -0.00315
  78        2S          0.03276   0.00585  -0.01885   0.00723   0.00857
  79        3S          0.05252  -0.01562  -0.03730  -0.00551   0.01473
  80        4PX        -0.04579  -0.00332   0.02002  -0.00486  -0.00784
  81        4PY         0.01738   0.00122  -0.00740   0.00224   0.00121
  82        4PZ        -0.01845  -0.00401   0.01437  -0.00207  -0.00858
  83        5PX        -0.00535   0.02550   0.02666   0.02252   0.00060
  84        5PY         0.02759  -0.00005  -0.00544   0.01479   0.00816
  85        5PZ        -0.01597  -0.00173   0.01197  -0.00928  -0.01182
  86        6D 0        0.00309   0.00154  -0.00185  -0.00003   0.00093
  87        6D+1        0.00287   0.00078  -0.00105  -0.00019   0.00051
  88        6D-1       -0.00173   0.00037   0.00100   0.00005  -0.00013
  89        6D+2       -0.00175   0.00097   0.00215  -0.00031  -0.00040
  90        6D-2       -0.00437   0.00094   0.00187  -0.00022  -0.00030
  91 10  O  1S          0.00257  -0.00006   0.00006  -0.00009  -0.00026
  92        2S          0.00492  -0.00070   0.00011  -0.00106  -0.00105
  93        3S          0.01354   0.00413   0.00121   0.01124   0.00421
  94        4PX         0.02474   0.00308  -0.00826   0.00226   0.00384
  95        4PY         0.00989   0.00672  -0.00397   0.00039   0.00283
  96        4PZ         0.01833   0.01628  -0.00171  -0.00079   0.00548
  97        5PX         0.01887  -0.00168  -0.00990   0.00103   0.00365
  98        5PY         0.00774   0.00697  -0.00397   0.00185   0.00318
  99        5PZ         0.01265   0.01475  -0.00223  -0.00416   0.00421
 100        6D 0       -0.00032  -0.00041  -0.00010   0.00007   0.00003
 101        6D+1        0.00011   0.00027   0.00006   0.00001   0.00006
 102        6D-1        0.00027   0.00026  -0.00009  -0.00008   0.00006
 103        6D+2       -0.00058  -0.00019   0.00012  -0.00001   0.00001
 104        6D-2       -0.00009   0.00000   0.00004  -0.00008  -0.00003
 105 11  N  1S         -0.00859   0.00043   0.00510  -0.00105  -0.00172
 106        2S         -0.01800   0.00087   0.01213  -0.00087  -0.00395
 107        3S         -0.05527  -0.00243   0.01849  -0.02494  -0.01476
 108        4PX        -0.02906   0.00152   0.01174  -0.00259  -0.00319
 109        4PY        -0.00646  -0.00234   0.00695  -0.00040  -0.00278
 110        4PZ         0.00442  -0.00170   0.00230   0.00052  -0.00149
 111        5PX         0.02540  -0.00002  -0.00584   0.00834   0.00224
 112        5PY         0.00972   0.00918  -0.00491   0.00525   0.00466
 113        5PZ        -0.00770  -0.00463  -0.00223  -0.00113   0.00039
 114        6D 0       -0.00047   0.00009   0.00045  -0.00004  -0.00016
 115        6D+1        0.00100  -0.00002  -0.00077   0.00016   0.00027
 116        6D-1        0.00060  -0.00014  -0.00045   0.00014   0.00022
 117        6D+2        0.00179  -0.00017  -0.00122   0.00018   0.00027
 118        6D-2       -0.00061   0.00005   0.00016  -0.00018   0.00002
 119 12  H  1S          0.01746  -0.00027  -0.00865   0.00216   0.00302
 120        2S          0.01910   0.00194  -0.01785   0.00262   0.00805
 121        3PX         0.00052  -0.00021  -0.00061   0.00009   0.00008
 122        3PY         0.00041  -0.00001  -0.00066  -0.00019   0.00022
 123        3PZ        -0.00042   0.00036   0.00000  -0.00002   0.00005
 124 13  H  1S         -0.00439  -0.00053   0.00340  -0.00067  -0.00147
 125        2S         -0.00185  -0.01345   0.00041   0.00008  -0.00095
 126        3PX         0.00076   0.00007  -0.00031  -0.00015   0.00013
 127        3PY         0.00008   0.00053  -0.00022  -0.00003   0.00019
 128        3PZ        -0.00030  -0.00011  -0.00005  -0.00015   0.00011
 129 14  O  1S         -0.00296   0.00232  -0.00053   0.00096   0.01331
 130        2S         -0.00444   0.00368   0.00604   0.00383   0.02683
 131        3S         -0.01364   0.00347  -0.07570  -0.00794   0.10148
 132        4PX        -0.20746   0.08336  -0.41575  -0.16032  -0.21311
 133        4PY         0.22337   0.03827  -0.10260   0.29581   0.01731
 134        4PZ        -0.14567  -0.15287   0.15219  -0.24269   0.28237
 135        5PX        -0.13248   0.04790  -0.31728  -0.14075  -0.16639
 136        5PY         0.14049   0.02635  -0.08638   0.24215   0.02210
 137        5PZ        -0.09521  -0.09982   0.09105  -0.20019   0.23196
 138        6D 0       -0.00905  -0.00551   0.00509  -0.00645   0.00579
 139        6D+1       -0.00920   0.00007  -0.00492  -0.00535   0.00052
 140        6D-1        0.00052  -0.00314   0.00089  -0.00121   0.00528
 141        6D+2       -0.01242  -0.00056  -0.00181  -0.00922  -0.00259
 142        6D-2       -0.00512   0.00299  -0.00828  -0.00085  -0.00566
 143 15  C  1S          0.00519  -0.02485  -0.00110   0.00208  -0.00403
 144        2S         -0.01300   0.05690   0.01850  -0.01126   0.00694
 145        3S         -0.01430   0.14677  -0.08330  -0.02659   0.08842
 146        4PX        -0.21927   0.07644   0.10457  -0.01158   0.01067
 147        4PY         0.18506   0.09150   0.04554  -0.03614  -0.01228
 148        4PZ        -0.17630  -0.03550  -0.04526   0.02475  -0.03280
 149        5PX        -0.15138   0.10890  -0.16804   0.03977   0.08317
 150        5PY         0.13200   0.06549  -0.13191  -0.03313   0.13918
 151        5PZ        -0.10838  -0.07828   0.04804  -0.01896   0.08073
 152        6D 0       -0.00158   0.00544  -0.02241   0.04267  -0.00954
 153        6D+1        0.00850  -0.00047   0.00747   0.02033   0.02736
 154        6D-1        0.00670   0.00356  -0.03125  -0.00356   0.01833
 155        6D+2        0.01579   0.00404   0.01712   0.00873  -0.01939
 156        6D-2       -0.00087  -0.00583   0.03222   0.01365   0.00967
 157 16  O  1S         -0.00043   0.01325   0.00025  -0.00045  -0.00253
 158        2S          0.00004   0.02529   0.00250  -0.00338  -0.00542
 159        3S         -0.00789   0.05772  -0.05009   0.03042  -0.04124
 160        4PX        -0.16634   0.00126  -0.20782   0.33307   0.28501
 161        4PY         0.15538   0.03481  -0.21052  -0.24025   0.42715
 162        4PZ        -0.13700  -0.00595   0.16788   0.22049   0.16359
 163        5PX        -0.10386  -0.00204  -0.15783   0.26984   0.20569
 164        5PY         0.09788   0.00831  -0.14938  -0.19607   0.31661
 165        5PZ        -0.08231  -0.01789   0.14518   0.17240   0.12493
 166        6D 0        0.01163   0.00187  -0.00423  -0.01098  -0.00425
 167        6D+1        0.00423  -0.00137   0.00602  -0.00439  -0.00514
 168        6D-1       -0.00534  -0.00216   0.00348   0.00547  -0.00998
 169        6D+2       -0.00234   0.00175  -0.00299   0.00422   0.00686
 170        6D-2        0.00685  -0.00072  -0.00099  -0.00675   0.00435
 171 17  H  1S          0.00710   0.01465  -0.01337   0.01928   0.01071
 172        2S         -0.04089   0.02517  -0.10708  -0.06588  -0.06652
 173        3PX        -0.00293  -0.00040   0.00305   0.00120   0.00168
 174        3PY         0.00246  -0.00006  -0.00086  -0.00121  -0.00029
 175        3PZ        -0.00160  -0.00262  -0.00068  -0.00025   0.00008
 176 18  H  1S         -0.09006  -0.16267  -0.04408   0.01971   0.02518
 177        2S         -0.04990  -0.09179  -0.13342   0.11949  -0.01380
 178        3PX         0.00149  -0.00487  -0.00537  -0.00014   0.00170
 179        3PY        -0.00284   0.00245  -0.00231  -0.00188   0.00183
 180        3PZ        -0.00185  -0.00062   0.00093   0.00103  -0.00030
 181 19  H  1S         -0.00850   0.01002   0.00352  -0.00886  -0.00667
 182        2S         -0.01206  -0.01224  -0.01891  -0.00892   0.00159
 183        3PX         0.00212   0.00127  -0.00036  -0.00012   0.00065
 184        3PY        -0.00020  -0.00019  -0.00022   0.00067   0.00039
 185        3PZ        -0.00013   0.00021   0.00117  -0.00056  -0.00022
                          40        41        42        43        44
                           V         V         V         V         V
     Eigenvalues --     0.13856   0.16018   0.19990   0.22173   0.24009
   1 1   N  1S          0.00671   0.01162   0.04971  -0.04216   0.05142
   2        2S          0.01056   0.01679   0.07406  -0.06454   0.06739
   3        3S          0.07355   0.11476   0.63688  -0.57783   0.81072
   4        4PX        -0.02858  -0.03261  -0.08079   0.02934  -0.05516
   5        4PY        -0.00010  -0.01688  -0.07339   0.05649  -0.05608
   6        4PZ         0.02120   0.00355   0.02430  -0.02820   0.04247
   7        5PX         0.02897   0.04082   0.12321  -0.04498   0.10900
   8        5PY        -0.00286   0.03570   0.17734  -0.15095   0.15449
   9        5PZ        -0.03037   0.00314  -0.00781   0.02997  -0.09782
  10        6D 0        0.00021  -0.00006  -0.00206   0.00161  -0.00281
  11        6D+1       -0.00062   0.00044   0.00169  -0.00122   0.00127
  12        6D-1       -0.00031   0.00039  -0.00050   0.00159  -0.00733
  13        6D+2       -0.00018   0.00016   0.00057   0.00048  -0.00062
  14        6D-2        0.00020   0.00182   0.00447  -0.00140   0.00084
  15 2   H  1S          0.00412   0.00440   0.00631   0.00291  -0.02041
  16        2S         -0.02388  -0.09445  -0.51878   0.40541  -0.59338
  17        3PX        -0.00235  -0.00121  -0.00401   0.00156   0.00153
  18        3PY        -0.00142  -0.00204  -0.00368   0.00193  -0.00925
  19        3PZ        -0.00029  -0.00093  -0.00098   0.00038  -0.00059
  20 3   H  1S          0.00202  -0.00532  -0.01819   0.01180   0.00060
  21        2S         -0.04206  -0.08598  -0.47576   0.48125  -0.52563
  22        3PX         0.00124  -0.00004  -0.00032   0.00044  -0.00212
  23        3PY        -0.00003  -0.00059  -0.00187   0.00127  -0.00075
  24        3PZ        -0.00083   0.00017   0.00050  -0.00023  -0.00230
  25 4   C  1S          0.00196   0.00047  -0.01095   0.02287   0.02439
  26        2S          0.00102  -0.01795  -0.01516  -0.01466  -0.06580
  27        3S         -0.06510   0.12327   0.55617  -0.63337  -0.21097
  28        4PX         0.00532  -0.00610  -0.01070  -0.02773  -0.01646
  29        4PY        -0.00446   0.00734   0.00236   0.02649  -0.06301
  30        4PZ         0.00994  -0.02630  -0.08991   0.07317   0.02271
  31        5PX        -0.02698   0.06695  -0.01672   0.01044   0.07368
  32        5PY        -0.03876   0.05068   0.08283   0.04026  -0.15416
  33        5PZ         0.05010  -0.04980  -0.25314   0.22049   0.20533
  34        6D 0       -0.00057   0.00075  -0.00128  -0.00042  -0.00068
  35        6D+1        0.00037   0.00128   0.00007  -0.00013  -0.00163
  36        6D-1        0.00060  -0.00128   0.00166  -0.00249   0.00418
  37        6D+2       -0.00248  -0.00187  -0.00031   0.00295  -0.00407
  38        6D-2        0.00045  -0.00068   0.00116  -0.00005   0.00528
  39 5   C  1S          0.01106   0.00304  -0.02908   0.02235   0.03004
  40        2S         -0.02999  -0.01248   0.04894  -0.03189  -0.05849
  41        3S         -0.08609  -0.16536   0.42734  -0.49504  -0.62060
  42        4PX        -0.03064  -0.03866   0.03855  -0.04121   0.01758
  43        4PY        -0.01514  -0.03607  -0.01269   0.00472   0.04755
  44        4PZ         0.00853   0.03004   0.00208  -0.00810   0.04190
  45        5PX        -0.06087  -0.10937   0.06086  -0.15410   0.10336
  46        5PY        -0.04714  -0.12734  -0.11468   0.03745   0.17590
  47        5PZ        -0.03585   0.08901   0.07074  -0.06698   0.01910
  48        6D 0        0.00393   0.00036   0.00258   0.00167   0.00059
  49        6D+1        0.00109  -0.00101   0.00148  -0.00478   0.00570
  50        6D-1        0.00068  -0.00234  -0.00718   0.00161   0.00199
  51        6D+2        0.00225  -0.00219   0.00010  -0.00684   0.00056
  52        6D-2       -0.00006   0.00289   0.00174   0.00257   0.00733
  53 6   H  1S          0.00909   0.01474   0.02156   0.00709  -0.00395
  54        2S          0.02363  -0.04293  -0.17642   0.26760   0.05789
  55        3PX        -0.00020  -0.00279   0.00136  -0.00227   0.00155
  56        3PY         0.00265  -0.00156  -0.00440   0.00212  -0.00191
  57        3PZ         0.00253  -0.00100  -0.00371   0.00267   0.00330
  58 7   C  1S         -0.00285  -0.05670  -0.04955   0.01909   0.03204
  59        2S         -0.00512   0.03787   0.04884  -0.05048  -0.03004
  60        3S          0.09834   1.68069   1.46611  -0.17594  -1.10282
  61        4PX         0.00641   0.02692  -0.00734  -0.07833  -0.05168
  62        4PY        -0.00196   0.07046   0.11561   0.02318   0.14948
  63        4PZ        -0.00744  -0.04344  -0.08291  -0.04341   0.20853
  64        5PX        -0.04801   0.07624   0.09425  -0.35247  -0.21339
  65        5PY         0.14529   0.15343   0.44362   0.02048   0.52304
  66        5PZ         0.17376  -0.10391  -0.32342  -0.05509   0.81260
  67        6D 0        0.02779  -0.00188  -0.00506  -0.00022  -0.00229
  68        6D+1        0.01779   0.00328  -0.00378   0.00683   0.00055
  69        6D-1        0.00180  -0.00167  -0.00632   0.00400   0.00199
  70        6D+2        0.00658  -0.00081   0.00808   0.00254  -0.00442
  71        6D-2        0.01490  -0.00647   0.00884  -0.00830  -0.00470
  72 8   H  1S         -0.11921   0.02332  -0.02255   0.00313   0.02055
  73        2S         -0.39140  -0.74972  -1.06884   0.02214  -0.61661
  74        3PX         0.00558  -0.00806   0.00315  -0.00826  -0.00430
  75        3PY        -0.00454  -0.00688  -0.00893   0.00111  -0.00029
  76        3PZ         0.00062  -0.00077  -0.00444   0.00299  -0.00055
  77 9   C  1S          0.00050   0.00510  -0.00148  -0.02063  -0.00384
  78        2S          0.00193   0.02885   0.03976   0.03220  -0.02566
  79        3S         -0.01950  -0.40250  -0.46897   0.47721   0.49463
  80        4PX        -0.09634  -0.03765   0.04485  -0.04883  -0.00104
  81        4PY         0.33780  -0.03149   0.03192   0.03291  -0.05717
  82        4PZ         0.43545  -0.03542  -0.00812  -0.04919  -0.07096
  83        5PX        -0.08903   0.20362  -0.08174  -0.14026   0.02156
  84        5PY         0.33756  -0.02321  -0.05810   0.14660  -0.15582
  85        5PZ         0.44828  -0.00195   0.00959  -0.14155  -0.24682
  86        6D 0       -0.02093  -0.00048   0.00149   0.00405   0.00257
  87        6D+1       -0.00333   0.00203  -0.00118  -0.00752  -0.00653
  88        6D-1        0.00466  -0.00694  -0.01077  -0.00221   0.00497
  89        6D+2       -0.00989   0.00065  -0.00828  -0.01090  -0.00058
  90        6D-2       -0.00805   0.00048  -0.00031   0.00545  -0.00336
  91 10  O  1S          0.00121   0.01827   0.00713  -0.00758  -0.01147
  92        2S          0.00328   0.03393   0.00956  -0.01788  -0.01964
  93        3S          0.00060   0.14379   0.09411  -0.02328  -0.12727
  94        4PX         0.06203   0.04961  -0.06131  -0.00463   0.00572
  95        4PY        -0.22413   0.04009   0.02677   0.02338   0.03451
  96        4PZ        -0.28945   0.00990  -0.04278  -0.01651   0.06344
  97        5PX         0.06870   0.02016  -0.04820   0.00980  -0.00638
  98        5PY        -0.25081   0.06879   0.04770   0.01081   0.02982
  99        5PZ        -0.32270  -0.01070  -0.04660  -0.00738   0.11263
 100        6D 0       -0.00630   0.00094  -0.00088   0.00091   0.00147
 101        6D+1       -0.00063   0.00015   0.00020   0.00130  -0.00073
 102        6D-1        0.00142  -0.00299  -0.00055   0.00164   0.00156
 103        6D+2       -0.00347  -0.00178   0.00098   0.00084   0.00093
 104        6D-2       -0.00213  -0.00029  -0.00003  -0.00204  -0.00051
 105 11  N  1S          0.00710   0.09720  -0.05006  -0.01198   0.00318
 106        2S          0.01154   0.16211  -0.08820  -0.01552   0.00092
 107        3S          0.09347   1.32670  -0.59447  -0.23716   0.02874
 108        4PX        -0.04270  -0.07814   0.11693   0.13069   0.00476
 109        4PY         0.13026  -0.10519  -0.02104  -0.15963  -0.08849
 110        4PZ         0.18360   0.04206   0.03081   0.15466  -0.03312
 111        5PX         0.06443   0.20027  -0.34874  -0.30126   0.00942
 112        5PY        -0.17580   0.25833   0.02633   0.43097   0.18843
 113        5PZ        -0.26245  -0.12018  -0.08541  -0.40302   0.00247
 114        6D 0        0.00595  -0.00430  -0.00036  -0.00022   0.00006
 115        6D+1       -0.01951   0.00469   0.00052   0.00022   0.00375
 116        6D-1       -0.00744  -0.00744   0.00023   0.00309   0.00391
 117        6D+2        0.01159   0.00267   0.00164   0.00161  -0.00414
 118        6D-2       -0.01175   0.00184   0.00070  -0.00001   0.00416
 119 12  H  1S         -0.00538  -0.02674   0.04762   0.04678  -0.00532
 120        2S         -0.04439  -0.77581   1.08676   1.46181   0.08107
 121        3PX         0.00276  -0.00378   0.00522   0.00254  -0.00284
 122        3PY        -0.01071  -0.00072   0.00373   0.00164   0.00431
 123        3PZ        -0.01421   0.00143  -0.00063  -0.00090   0.00477
 124 13  H  1S         -0.00244  -0.03482   0.00536  -0.05244  -0.02151
 125        2S         -0.08315  -1.26395   0.14746  -1.26294  -0.30658
 126        3PX         0.00395  -0.00221   0.00345   0.00024   0.00035
 127        3PY        -0.01153  -0.00297   0.00194  -0.00147  -0.00095
 128        3PZ        -0.01361   0.00277  -0.00194   0.00157   0.00225
 129 14  O  1S         -0.00042   0.00036   0.00322  -0.00445  -0.00898
 130        2S         -0.00201   0.00059   0.00457  -0.00628  -0.02207
 131        3S          0.00681   0.00143   0.02948  -0.04881  -0.02689
 132        4PX        -0.00881  -0.00099   0.00459   0.00011  -0.06546
 133        4PY         0.00637   0.00198  -0.01560   0.00011   0.01513
 134        4PZ         0.00097  -0.00301   0.00349   0.00297   0.00530
 135        5PX        -0.00192  -0.00109   0.00518  -0.00284  -0.05999
 136        5PY         0.00701   0.00140  -0.00577  -0.01318   0.01054
 137        5PZ        -0.00067  -0.00027   0.00827  -0.00174  -0.00055
 138        6D 0       -0.00005  -0.00001  -0.00035   0.00016   0.00012
 139        6D+1       -0.00005   0.00009   0.00028  -0.00009  -0.00060
 140        6D-1        0.00010   0.00007   0.00041  -0.00076  -0.00021
 141        6D+2        0.00004  -0.00003  -0.00042   0.00027   0.00080
 142        6D-2       -0.00012  -0.00007   0.00070  -0.00085  -0.00095
 143 15  C  1S          0.00110   0.00187  -0.00283  -0.00288  -0.00804
 144        2S          0.00167  -0.00625   0.00752   0.00237   0.02119
 145        3S         -0.05153   0.03282  -0.06473   0.18165   0.02257
 146        4PX        -0.00100  -0.00478  -0.00190   0.00576   0.04493
 147        4PY        -0.00452  -0.00315   0.01665   0.00736  -0.01111
 148        4PZ         0.00364   0.00194  -0.01200  -0.00256   0.01519
 149        5PX        -0.02691   0.01632   0.00854   0.02036   0.01132
 150        5PY        -0.01042   0.01107  -0.00109   0.02422  -0.00973
 151        5PZ         0.01079  -0.00779   0.00307  -0.02594   0.00431
 152        6D 0       -0.00005   0.00054   0.00172  -0.00182  -0.00199
 153        6D+1        0.00070  -0.00040  -0.00314   0.00321   0.00061
 154        6D-1        0.00073   0.00012  -0.00058  -0.00147   0.00015
 155        6D+2        0.00061   0.00019  -0.00043  -0.00143   0.00489
 156        6D-2       -0.00090  -0.00066  -0.00070   0.00113  -0.00002
 157 16  O  1S          0.00069   0.00139   0.00646  -0.00803   0.00103
 158        2S          0.00220   0.00302   0.01326  -0.01648   0.00323
 159        3S         -0.00133   0.00509   0.03184  -0.04418  -0.00425
 160        4PX         0.00206   0.00752   0.03024  -0.02778  -0.01866
 161        4PY         0.01426   0.01257   0.01245  -0.01893   0.04123
 162        4PZ        -0.00320  -0.00391   0.00248   0.01105  -0.00892
 163        5PX         0.00287   0.00718   0.03024  -0.02972  -0.02106
 164        5PY         0.01313   0.00872   0.00974  -0.01901   0.03696
 165        5PZ        -0.00149  -0.00383  -0.00606   0.02192  -0.00938
 166        6D 0        0.00006   0.00019   0.00075  -0.00069  -0.00022
 167        6D+1       -0.00006  -0.00013  -0.00107   0.00116  -0.00019
 168        6D-1       -0.00023  -0.00010  -0.00035  -0.00011  -0.00027
 169        6D+2        0.00026   0.00022   0.00050  -0.00037   0.00099
 170        6D-2        0.00004  -0.00012  -0.00022   0.00012  -0.00007
 171 17  H  1S         -0.00562   0.00976  -0.01164   0.02370   0.01375
 172        2S         -0.00079  -0.05392  -0.26649   0.23800   0.61682
 173        3PX        -0.00151  -0.00310  -0.00080  -0.00003  -0.00076
 174        3PY         0.00099   0.00037   0.00359  -0.00281  -0.00006
 175        3PZ         0.00072   0.00202   0.00375  -0.00059  -0.00263
 176 18  H  1S          0.00097   0.00874   0.00041  -0.00785   0.00123
 177        2S          0.09720  -0.07403  -0.55171   0.52836   0.46522
 178        3PX         0.00216  -0.00305  -0.00227   0.00046   0.00331
 179        3PY        -0.00059  -0.00109  -0.00431   0.00390  -0.00711
 180        3PZ         0.00063   0.00132   0.00136  -0.00147  -0.00241
 181 19  H  1S          0.14493  -0.00219  -0.02060   0.01123  -0.00252
 182        2S          0.40204  -0.70842  -0.86708   0.00897   1.88466
 183        3PX        -0.00696  -0.00578   0.00139  -0.00704   0.00022
 184        3PY         0.00244   0.00039   0.00428  -0.00257  -0.00340
 185        3PZ        -0.00491   0.00522   0.00674  -0.00102  -0.00258
     Density Matrix:
                           1         2         3         4         5
   1 1   N  1S          2.10769
   2        2S          0.20349   0.59241
   3        3S          0.17943   0.23270   0.30034
   4        4PX         0.03011   0.06635   0.15970   0.52903
   5        4PY         0.01395   0.03188   0.19294   0.01257   0.44683
   6        4PZ        -0.03996  -0.08383  -0.17202  -0.08140  -0.03743
   7        5PX        -0.04456  -0.09847  -0.12277  -0.24394  -0.00785
   8        5PY        -0.04227  -0.05770  -0.12136  -0.00404  -0.19341
   9        5PZ         0.05364   0.13257   0.15082   0.16614   0.00695
  10        6D 0       -0.00083  -0.00575  -0.00212   0.00650   0.00103
  11        6D+1        0.00160   0.01019   0.00656   0.01285  -0.00315
  12        6D-1        0.00425   0.00451   0.01069  -0.00505   0.02148
  13        6D+2       -0.00297  -0.00522  -0.00503  -0.01934  -0.00128
  14        6D-2       -0.00176  -0.00269  -0.00708  -0.01496  -0.00559
  15 2   H  1S          0.11474   0.18861  -0.05429  -0.37924  -0.12738
  16        2S         -0.00009   0.01262  -0.04817  -0.12104  -0.05957
  17        3PX        -0.02261  -0.02769  -0.00615   0.00731   0.01195
  18        3PY        -0.00751  -0.01131  -0.01032   0.00858  -0.01685
  19        3PZ        -0.00359  -0.00277   0.01238   0.01901   0.00922
  20 3   H  1S          0.11722   0.19702  -0.04990   0.18356  -0.28685
  21        2S         -0.00632  -0.00506  -0.04894   0.05679  -0.10909
  22        3PX         0.00799   0.00727  -0.01286  -0.02122  -0.01742
  23        3PY        -0.01596  -0.02048  -0.00756  -0.01226  -0.00041
  24        3PZ         0.01561   0.01918   0.00754   0.01229  -0.01288
  25 4   C  1S         -0.01466  -0.02678   0.02262   0.00404  -0.06810
  26        2S          0.02438   0.03436  -0.00897  -0.00306   0.13884
  27        3S         -0.01375   0.06942  -0.12536   0.00373  -0.00293
  28        4PX        -0.00229  -0.01180   0.05113  -0.00305  -0.00256
  29        4PY         0.06328   0.12331   0.13627  -0.01024   0.24393
  30        4PZ         0.04142   0.09044   0.03224  -0.00478   0.14482
  31        5PX         0.00200  -0.01154   0.00452  -0.10627  -0.01911
  32        5PY         0.01249   0.04103   0.00853  -0.02698   0.07918
  33        5PZ         0.00384   0.02754  -0.02787  -0.01438   0.04898
  34        6D 0       -0.00058  -0.00020   0.00682   0.00547   0.00300
  35        6D+1       -0.00036  -0.00080  -0.00243  -0.00781  -0.00019
  36        6D-1        0.01034   0.01706   0.01626   0.00161   0.01889
  37        6D+2       -0.00777  -0.01243  -0.00635   0.00130  -0.00893
  38        6D-2       -0.00188  -0.00377  -0.00645  -0.01879   0.00016
  39 5   C  1S          0.00410   0.00722   0.01979  -0.01073   0.01329
  40        2S         -0.00862  -0.02543  -0.02935   0.02386  -0.04042
  41        3S         -0.00802  -0.00663   0.03153   0.11211   0.01518
  42        4PX         0.00725   0.01813   0.01367  -0.01365   0.03197
  43        4PY        -0.01348  -0.03185  -0.04583   0.02806  -0.04246
  44        4PZ        -0.00750  -0.01684  -0.05091  -0.00676  -0.00900
  45        5PX         0.00267   0.01579   0.00594  -0.02556   0.02340
  46        5PY        -0.00373  -0.00216   0.05076   0.04506   0.01501
  47        5PZ        -0.00919  -0.02368  -0.03299  -0.04983  -0.00534
  48        6D 0       -0.00075  -0.00131  -0.00176   0.00121  -0.00337
  49        6D+1       -0.00079  -0.00212  -0.00033   0.00053  -0.00315
  50        6D-1        0.00093   0.00261   0.00207  -0.00183   0.00268
  51        6D+2       -0.00112  -0.00200  -0.00500   0.00179  -0.00538
  52        6D-2       -0.00051  -0.00061  -0.00174  -0.00014  -0.00373
  53 6   H  1S         -0.00846  -0.02094  -0.04592   0.01199  -0.02852
  54        2S          0.00620   0.01171   0.00617   0.03392  -0.00726
  55        3PX        -0.00028  -0.00029  -0.00050  -0.00087  -0.00055
  56        3PY         0.00031  -0.00066  -0.00217   0.00135  -0.00212
  57        3PZ         0.00055   0.00082   0.00143  -0.00116   0.00025
  58 7   C  1S          0.00049  -0.00057   0.00542  -0.00845   0.00139
  59        2S         -0.00138   0.00207  -0.01410   0.01751  -0.00479
  60        3S          0.02038   0.02994  -0.00673   0.01694  -0.01550
  61        4PX         0.00215   0.00296   0.01153  -0.01326   0.00829
  62        4PY        -0.00065  -0.00167   0.01050   0.03063   0.00523
  63        4PZ        -0.00136  -0.00472   0.01440   0.01184  -0.00310
  64        5PX         0.01324   0.03824   0.04171   0.01240   0.02148
  65        5PY         0.00307   0.00980   0.02869   0.06724   0.00123
  66        5PZ         0.00334   0.00554  -0.00611  -0.00685  -0.01217
  67        6D 0       -0.00015  -0.00032  -0.00206  -0.00025  -0.00100
  68        6D+1        0.00032   0.00086   0.00258   0.00025   0.00084
  69        6D-1        0.00007   0.00007  -0.00009  -0.00015  -0.00011
  70        6D+2       -0.00028  -0.00120  -0.00139  -0.00007  -0.00220
  71        6D-2        0.00029   0.00105   0.00155   0.00091   0.00094
  72 8   H  1S         -0.00100  -0.00024   0.00104   0.01573   0.00824
  73        2S         -0.01899  -0.04358  -0.05132  -0.09230   0.00868
  74        3PX         0.00006   0.00019   0.00191   0.00477   0.00019
  75        3PY         0.00048   0.00088   0.00116  -0.00197   0.00013
  76        3PZ         0.00004  -0.00024   0.00036  -0.00137  -0.00002
  77 9   C  1S         -0.00004   0.00073  -0.00509   0.00153   0.00099
  78        2S          0.00042  -0.00001   0.01044  -0.00675  -0.00151
  79        3S         -0.01256  -0.03009  -0.00522   0.00749  -0.01015
  80        4PX        -0.00037   0.00020  -0.00855   0.00417   0.00157
  81        4PY         0.00117   0.00268   0.00454   0.00037   0.00100
  82        4PZ         0.00110   0.00228   0.01183   0.00608   0.00357
  83        5PX         0.00562   0.01314  -0.00260  -0.02537   0.00593
  84        5PY        -0.00217  -0.00668   0.00402  -0.00281  -0.00146
  85        5PZ         0.00650   0.01528   0.01177   0.00399   0.00560
  86        6D 0        0.00009   0.00009   0.00005  -0.00115  -0.00010
  87        6D+1       -0.00003  -0.00013   0.00010  -0.00081   0.00008
  88        6D-1       -0.00006   0.00005  -0.00038  -0.00050  -0.00013
  89        6D+2       -0.00011  -0.00016  -0.00079  -0.00082  -0.00014
  90        6D-2        0.00003   0.00016  -0.00116  -0.00095  -0.00008
  91 10  O  1S          0.00000   0.00019  -0.00098   0.00081  -0.00024
  92        2S          0.00028   0.00210  -0.00955   0.00234  -0.00043
  93        3S         -0.00139  -0.00265  -0.01154  -0.00236  -0.00102
  94        4PX         0.00045   0.00013   0.00709  -0.00381   0.00039
  95        4PY         0.00033  -0.00059   0.01507  -0.00343   0.00204
  96        4PZ         0.00034   0.00123  -0.00309  -0.00999   0.00058
  97        5PX        -0.00006  -0.00090   0.00610  -0.00006  -0.00035
  98        5PY        -0.00060  -0.00206   0.00764  -0.00412   0.00086
  99        5PZ        -0.00046  -0.00064  -0.00417  -0.00921  -0.00053
 100        6D 0       -0.00004  -0.00007  -0.00040   0.00018  -0.00015
 101        6D+1        0.00001   0.00004  -0.00001  -0.00021   0.00007
 102        6D-1        0.00004   0.00012  -0.00032  -0.00017   0.00005
 103        6D+2       -0.00001  -0.00002  -0.00058  -0.00001  -0.00001
 104        6D-2        0.00001   0.00000   0.00015   0.00002   0.00009
 105 11  N  1S         -0.00013  -0.00035   0.00044  -0.00008  -0.00022
 106        2S         -0.00013   0.00007  -0.00273  -0.00099  -0.00032
 107        3S         -0.00047   0.00057  -0.00755   0.01016  -0.00114
 108        4PX        -0.00029   0.00022  -0.00639  -0.00085  -0.00027
 109        4PY         0.00006   0.00076  -0.00425   0.00282   0.00080
 110        4PZ         0.00015   0.00075   0.00039   0.00282   0.00039
 111        5PX        -0.00004  -0.00037   0.00405  -0.00372   0.00026
 112        5PY         0.00011   0.00013   0.00037  -0.00965  -0.00001
 113        5PZ        -0.00100  -0.00194  -0.00050   0.00201  -0.00069
 114        6D 0        0.00001   0.00006  -0.00002  -0.00009   0.00005
 115        6D+1       -0.00000   0.00000  -0.00012  -0.00008  -0.00005
 116        6D-1       -0.00000   0.00000  -0.00012   0.00003  -0.00009
 117        6D+2        0.00007   0.00011   0.00042   0.00018  -0.00001
 118        6D-2       -0.00003  -0.00012  -0.00024   0.00001  -0.00010
 119 12  H  1S          0.00032  -0.00019   0.00333   0.00011   0.00007
 120        2S         -0.00030  -0.00149   0.00345  -0.00105  -0.00023
 121        3PX         0.00008   0.00027   0.00025   0.00021   0.00002
 122        3PY         0.00002  -0.00007   0.00026   0.00010  -0.00014
 123        3PZ         0.00001  -0.00002  -0.00023  -0.00041  -0.00005
 124 13  H  1S         -0.00021  -0.00061   0.00220   0.00029   0.00009
 125        2S          0.00133   0.00268   0.00531   0.01032   0.00037
 126        3PX        -0.00005  -0.00010   0.00024   0.00003  -0.00006
 127        3PY        -0.00007  -0.00013  -0.00019  -0.00050   0.00002
 128        3PZ         0.00000  -0.00008   0.00011   0.00013  -0.00019
 129 14  O  1S          0.00109   0.00179   0.00504   0.00156   0.00497
 130        2S          0.00354   0.00342  -0.00595  -0.00063   0.01168
 131        3S         -0.00836  -0.01415   0.00130   0.03257   0.00139
 132        4PX         0.01464   0.01789   0.21112   0.01050   0.03733
 133        4PY         0.00767   0.01729   0.04783   0.00809   0.01908
 134        4PZ        -0.00332  -0.00326  -0.06637   0.00116   0.00089
 135        5PX         0.01209   0.01856   0.16918   0.02119   0.03440
 136        5PY         0.00417   0.01208   0.03505   0.01521   0.01383
 137        5PZ        -0.00614  -0.01134  -0.05430  -0.00484  -0.00493
 138        6D 0        0.00009   0.00014  -0.00240   0.00032   0.00007
 139        6D+1        0.00001  -0.00006   0.00235   0.00004   0.00035
 140        6D-1        0.00000   0.00025  -0.00038   0.00035   0.00015
 141        6D+2        0.00013  -0.00003   0.00135  -0.00003   0.00002
 142        6D-2        0.00012   0.00018   0.00470   0.00002   0.00024
 143 15  C  1S          0.00657   0.01150   0.03357   0.01530   0.01458
 144        2S         -0.01419  -0.03158  -0.06967  -0.04254  -0.03537
 145        3S         -0.01031  -0.04757  -0.06484  -0.11322  -0.04109
 146        4PX        -0.01424  -0.03077  -0.05872  -0.03341  -0.03461
 147        4PY        -0.01543  -0.03445  -0.07137  -0.03105  -0.02709
 148        4PZ         0.00092   0.00311  -0.01862   0.00980  -0.00234
 149        5PX        -0.00735  -0.03029  -0.00962  -0.06435  -0.01963
 150        5PY        -0.01468  -0.03937  -0.01265  -0.02128  -0.02346
 151        5PZ        -0.00623  -0.00414  -0.00841   0.05887  -0.00531
 152        6D 0        0.00021  -0.00002   0.00620   0.00081  -0.00092
 153        6D+1        0.00051   0.00100  -0.00656  -0.00035   0.00308
 154        6D-1        0.00037  -0.00005   0.00782   0.00071   0.00235
 155        6D+2       -0.00083  -0.00150  -0.00576  -0.00034  -0.00522
 156        6D-2        0.00053   0.00189  -0.01097  -0.00085   0.00272
 157 16  O  1S         -0.00209  -0.00619   0.00925  -0.00548  -0.00268
 158        2S         -0.00461  -0.01718   0.03518  -0.00884  -0.00821
 159        3S          0.00194  -0.00145   0.06352  -0.03457   0.01024
 160        4PX        -0.01009  -0.02486  -0.05704  -0.00566  -0.01877
 161        4PY        -0.01944  -0.05592  -0.02270  -0.02659  -0.02261
 162        4PZ        -0.00009   0.00130  -0.03322  -0.00303   0.00803
 163        5PX        -0.00665  -0.01402  -0.03336  -0.00444  -0.00806
 164        5PY        -0.01614  -0.04037  -0.01593  -0.01384  -0.01716
 165        5PZ        -0.00129  -0.00128  -0.03649   0.00456   0.00187
 166        6D 0       -0.00035  -0.00083   0.00043  -0.00108  -0.00054
 167        6D+1        0.00069   0.00114   0.00243   0.00106   0.00079
[...]
 5,-0.00228730,-0.00564290,0.07892696,0.69710997,0.00692874,-0.00068445
 ,-0.10880500,-0.01991913,-0.01104329,0.00854812,0.03853124,0.01713921,
 -0.00351281,0.07171768,0.19696531,0.58426772,-0.00952061,-0.00858997,0
 .04189453,0.00293226,0.00116436,0.00081897,-0.00704764,-0.00437881,0.0
 0188237,-0.08186284,-0.00408895,-0.00774698,0.90222944,-0.00178816,-0.
 00329646,0.01121664,0.00161688,0.00189391,0.00047237,-0.00097962,-0.00
 155559,0.00057143,-0.00843483,-0.08371009,0.02550335,0.18809916,0.6119
 3843,0.00496182,0.00203647,-0.01178936,-0.00183305,0.00009622,0.000795
 32,0.00059710,0.00194999,-0.00005010,0.01209073,0.01482161,-0.19114296
 ,-0.01138893,0.18642396,0.55938146,0.00105235,0.00094511,-0.00023727,-
 0.00013088,0.00060109,0.00028661,-0.00007077,-0.00020952,-0.00000957,0
 .00040801,0.00242891,0.00452701,-0.11613032,-0.18270437,-0.14104985,0.
 11839019,0.00055659,0.00037292,-0.00061429,0.00010153,-0.00007902,-0.0
 0059260,0.00018261,0.00004314,0.00015667,0.00541857,0.00894985,0.00851
 146,-0.18397179,-0.32071092,-0.24702588,0.18513857,0.33613328,-0.00062
 520,-0.00016587,0.00407713,0.00092566,-0.00053426,-0.00045777,-0.00042
 658,0.00020671,0.00050042,-0.01529941,-0.02395015,-0.02248905,-0.14345
 600,-0.25104431,-0.19375931,0.14869039,0.25354168,0.20708293,-0.000782
 49,0.00127149,0.00101801,0.00060193,-0.00142505,0.00015747,0.00004286,
 -0.00094487,0.00054059,-0.00048999,0.00077027,-0.00529704,-0.11084239,
 0.03652547,0.00150362,0.00689612,-0.01174690,0.00331867,0.85672818,0.0
 0085604,-0.00026051,-0.00063516,0.00012371,0.00029147,0.00093153,0.000
 19450,0.00013140,-0.00037561,0.00467043,-0.01154320,0.00841590,0.04125
 932,-0.15921720,-0.00145563,0.01766597,-0.02341094,0.00884243,0.179869
 13,0.62427714,-0.00066397,0.00097385,0.00159979,-0.00013056,-0.0003287
 5,-0.00099536,-0.00020660,-0.00006498,0.00021836,-0.01959358,0.0328137
 4,-0.01201140,-0.00104208,0.00384625,-0.07833629,0.01061484,-0.0129801
 5,0.00350624,-0.10593086,0.12102489,0.55023712,0.00134234,-0.00154855,
 -0.00014426,0.00039607,0.00044545,0.00020148,0.00012132,0.00027705,-0.
 00022768,-0.00094427,-0.00072735,0.00212066,-0.01387112,0.00086211,0.0
 0458829,0.00070793,-0.00002907,0.00002039,-0.46504735,-0.00562352,0.25
 931013,0.48435652,0.00028033,0.00031434,0.00028963,-0.00142667,-0.0018
 3403,0.00011912,-0.00037183,0.00045347,-0.00013693,0.00063901,0.001762
 23,-0.00128214,0.03052699,-0.00039278,-0.01405809,-0.00045650,0.000853
 73,-0.00057988,-0.00055366,-0.00136958,-0.00046584,-0.00101378,0.00710
 429,-0.00030055,-0.00104712,-0.00084073,0.00081016,0.00148013,0.000579
 49,0.00016981,-0.00011022,-0.00009832,-0.00162238,0.00067859,0.0006768
 8,-0.00800596,0.00090425,0.00346839,0.00049861,-0.00019272,0.00009297,
 0.26300694,0.00204297,-0.14932835,-0.26763191,-0.00228482,0.15740592,0
 .00010228,-0.00105165,0.00071505,0.00063634,0.00066015,0.00001423,-0.0
 0004433,0.00024687,-0.00015251,-0.00238701,0.00287209,-0.00002515,-0.0
 0357732,0.00128304,-0.01657936,0.00147722,0.00051550,-0.00023904,-0.10
 591426,0.00167945,-0.02687499,0.00922180,-0.00515322,0.03643166,0.4925
 2875,0.00082465,0.00034488,-0.00119887,-0.00033938,0.00038432,0.000411
 89,-0.00000620,0.00000033,-0.00011785,0.00430793,-0.00741705,0.0008606
 5,0.00324795,-0.00341417,0.03175763,-0.00021971,-0.00138132,0.00218043
 ,0.00142513,-0.09990924,0.02541101,0.00228848,-0.00184039,-0.00167164,
 -0.32061445,0.65432153,-0.00114883,-0.00188669,0.00047925,0.00124429,0
 .00100656,0.00021786,0.00008564,0.00036784,-0.00022533,0.00188645,-0.0
 0323865,0.00073243,-0.00705483,0.01525099,-0.00982439,-0.00050791,-0.0
 0364305,0.00094128,-0.01602362,0.01751954,-0.18227482,-0.00710365,-0.0
 0064233,-0.01557696,-0.06317416,0.12646702,0.78918944,0.00024983,0.000
 17766,-0.00046162,-0.00007079,-0.00010966,0.00000317,0.00009733,0.0000
 8536,-0.00003556,0.00056647,-0.00082508,0.00028473,-0.00149056,0.00173
 311,-0.00232663,-0.00055635,-0.00073868,-0.00017382,0.02202914,0.00655
 838,0.00626736,-0.00064219,0.00013721,-0.00449476,-0.18817333,0.134130
 41,0.15397617,0.18650711,-0.00025712,0.00032713,0.00050138,-0.00018420
 ,-0.00043710,-0.00035402,-0.00003775,-0.00005797,0.00011938,-0.0000381
 5,0.00204543,-0.00003988,-0.00006440,-0.00290196,0.00284567,0.00045815
 ,0.00255893,-0.00020496,0.00915115,0.01064838,-0.01229596,-0.00200872,
 0.00050627,-0.00090382,0.13457566,-0.27951359,-0.22333313,-0.19656847,
 0.31545773,0.00040233,0.00124988,-0.00024935,-0.00074421,-0.00073485,-
 0.00015716,-0.00000329,-0.00027582,0.00019215,-0.00082120,0.00025283,-
 0.00023205,0.00279786,-0.00478335,0.00207723,-0.00019207,0.00076141,-0
 .00093829,0.01889426,-0.02696409,-0.04287681,-0.00224983,-0.00077546,-
 0.00667957,0.14950242,-0.21413251,-0.41095130,-0.18978731,0.27038101,0
 .43809210,0.00044940,0.00041596,-0.00045743,-0.00021530,-0.00021716,0.
 00005690,0.00003947,-0.00008734,0.00000830,-0.00117702,0.00077202,0.00
 018712,0.00216173,-0.00103453,-0.00113865,-0.00037808,-0.00038029,0.00
 042817,0.00092464,0.01305629,-0.00891082,-0.00015190,0.00136108,-0.002
 82494,-0.19200825,0.16842722,-0.05738158,-0.01883381,0.05384745,0.0193
 9277,0.29747196,-0.00039159,-0.00032293,0.00054411,0.00023206,0.000061
 98,-0.00016394,-0.00002145,0.00007166,-0.00000342,0.00058204,-0.000134
 39,-0.00021133,0.00018546,0.00115080,0.00011086,0.00008476,0.00069885,
 -0.00053593,0.01032340,0.00156235,0.00992581,0.00044354,-0.00046152,-0
 .00102153,0.16851964,-0.25733371,0.06004504,0.05553306,-0.04838641,-0.
 02464726,-0.60148953,0.58481895,0.00043279,0.00047015,-0.00031451,-0.0
 0026948,-0.00031181,0.00007687,0.00003617,-0.00011755,0.00004410,-0.00
 261143,0.00295499,0.00015375,0.00065470,-0.00296241,-0.00669328,0.0002
 6437,0.00027562,-0.00012622,-0.02780477,0.03341143,-0.01269344,-0.0006
 1381,0.00071322,0.00257528,-0.05106643,0.05220538,-0.17990483,0.034811
 44,-0.04321377,0.02597506,-0.02427514,0.20893173,1.71911947,-0.0000753
 0,-0.00009202,0.00002324,0.00004467,0.00004095,0.00003178,0.00000275,0
 .00000539,-0.00000407,-0.00039308,0.00063442,-0.00003161,0.00078405,-0
 .00028201,-0.00141064,0.00005931,0.00003924,0.00002012,0.00057803,0.00
 621146,0.00132001,0.00033510,-0.00002962,-0.00061204,-0.00004211,0.002
 41775,-0.02988374,-0.00197223,-0.00623297,0.00355511,0.00843853,0.0866
 5143,-0.23576744,-0.01254437,-0.00009375,-0.00005760,-0.00001613,0.000
 00675,0.00004812,0.00003214,-0.00000792,-0.00001394,0.00000382,0.00040
 520,-0.00030604,-0.00004353,0.00038722,0.00037122,0.00111890,-0.000072
 46,0.00004044,0.00001033,0.00525552,-0.00116912,-0.00064469,-0.0001987
 6,0.00003086,-0.00081967,0.00485031,0.00127937,0.03657338,-0.00642406,
 0.00036600,-0.00404679,0.08708102,0.00628629,0.19199295,-0.08020983,-0
 .01446745,-0.00001281,-0.00005456,0.00004873,0.00004346,0.00001890,-0.
 00001102,0.00000015,0.00002015,-0.00000824,-0.00014506,0.00010145,-0.0
 0005301,0.00001186,-0.00073270,0.00000280,0.00000613,0.00005688,-0.000
 00560,-0.00032923,0.00087440,0.00240707,0.00025526,-0.00029960,0.00030
 031,-0.00202600,0.00238178,-0.00033265,0.00211965,-0.00207072,-0.00143
 653,-0.23059511,0.18592136,-0.97254334,0.24193216,-0.19923742,0.985135
 65,-0.00013489,-0.00008035,0.00007673,0.00002087,0.00001502,-0.0000164
 4,-0.00000060,0.00002109,0.00000686,0.00039825,-0.00029448,-0.00001205
 ,-0.00081403,0.00018114,0.00014078,0.00010528,-0.00030144,0.00009382,0
 .00104709,-0.00248524,-0.00023925,-0.00017608,0.00023056,0.00027692,-0
 .00904493,0.00623464,0.02225601,0.00204507,0.00779186,-0.00205478,-0.0
 9847308,0.27823251,0.30668752,0.00452886,-0.01130932,-0.01133721,0.101
 64364,0.00003047,0.00012050,-0.00005485,-0.00010709,-0.00009000,0.0000
 0986,-0.00000889,-0.00001257,0.00001774,-0.00000269,0.00024989,0.00000
 289,-0.00064096,-0.00055727,0.00002319,0.00008816,0.00001203,-0.000047
 79,-0.00104569,0.00137540,-0.00084246,-0.00039973,-0.00042709,0.001510
 94,0.00328178,-0.01244141,-0.02566397,0.00778022,-0.00101703,0.0020787
 3,0.27849413,-0.28651815,-0.44552038,-0.00847474,0.00787673,0.01326032
 ,-0.27846457,0.29127415,0.00001330,-0.00011843,-0.00003092,0.00006133,
 0.00008149,0.00006275,-0.00000537,0.00003079,-0.00002993,-0.00006165,0
 .00008149,-0.00005717,0.00029029,-0.00010787,-0.00036842,0.00012191,-0
 .00017485,0.00012169,-0.00083821,0.00023312,-0.00111206,0.00012406,0.0
 0086231,-0.00052350,-0.00367966,0.00680443,0.01685288,-0.00399955,0.00
 435277,0.00185410,0.30352337,-0.44189027,-0.57549575,0.01989492,-0.025
 76812,-0.01344799,-0.31499362,0.45564851,0.57227594,-0.00614473,0.0044
 8450,-0.00304980,-0.00307521,0.00151749,0.00113904,-0.00035896,-0.0001
 0664,-0.00000002,-0.04161001,0.00237567,-0.00914805,-0.00193111,-0.001
 33548,0.00542991,-0.00020319,-0.00013900,0.00029717,0.00090355,0.00039
 479,-0.00271395,0.00020361,-0.00078308,0.00046283,0.00001759,0.0005413
 8,0.00187626,0.00036260,0.00000505,-0.00134550,-0.00032241,0.00059624,
 -0.00108345,-0.00020905,-0.00001601,0.00003369,0.00000232,-0.00025595,
 0.00009903,0.70756580,0.00701967,-0.00036311,0.00285534,0.00184045,0.0
 0046879,-0.00125949,0.00029192,-0.00097096,0.00014509,0.02014100,0.005
 99954,0.00353365,0.00109396,0.00145298,0.00026046,0.00093596,-0.000566
 96,0.00095929,0.00018697,0.00022762,0.00044745,0.00021705,-0.00013180,
 0.00011370,-0.00019878,0.00010298,-0.00115860,0.00012034,-0.00001101,0
 .00068607,0.00036277,-0.00024580,0.00053886,-0.00000647,-0.00004216,-0
 .00003470,-0.00011548,0.00004971,-0.00004667,0.13680987,0.13360810,-0.
 00265319,0.00141055,0.00045198,-0.00045252,0.00034167,0.00049149,-0.00
 062378,0.00010749,-0.00010248,-0.00873609,-0.00043245,0.01658754,0.002
 74670,-0.00156011,0.00008638,-0.00012723,-0.00009460,0.00015246,-0.000
 44707,-0.00040257,0.00099547,-0.00027524,0.00029266,-0.00008293,0.0005
 5979,-0.00085421,0.00025536,-0.00028532,0.00031747,-0.00014203,-0.0002
 6799,0.00038061,-0.00013415,0.00003490,-0.00002529,0.00003716,0.000027
 39,-0.00005678,-0.00000092,0.06147287,0.00294440,0.03136022,-0.0379605
 0,0.01729744,-0.00529056,-0.00321156,-0.00065711,0.00298984,-0.0009763
 2,0.00143853,0.00041658,-0.09597416,0.04597494,-0.00603526,0.00301671,
 0.00102375,-0.01319160,-0.00026760,0.00074549,-0.00045726,-0.00070498,
 -0.00174420,0.00618080,-0.00044592,0.00116318,-0.00052007,0.00031099,-
 0.00157313,-0.00262211,-0.00050838,0.00014014,0.00192136,0.00072333,-0
 .00085083,0.00188754,0.00033885,-0.00007308,0.00003397,-0.00008643,0.0
 0031148,-0.00011716,-0.60378385,-0.07792004,-0.04972941,0.89389189,-0.
 00966289,0.00135346,-0.00416821,-0.00576928,-0.00096304,0.00267376,-0.
 00189551,0.00226746,-0.00024309,0.05631765,-0.12537993,0.00572506,0.00
 260868,-0.01205350,0.01366770,-0.00184241,0.00246748,-0.00429405,-0.00
 079329,0.00029994,-0.00274369,-0.00063388,0.00004927,-0.00019711,0.000
 50316,0.00060246,0.00288707,-0.00033779,0.00010070,-0.00186887,-0.0011
 5017,0.00082127,-0.00181126,-0.00013776,0.00013785,0.00001502,0.000295
 46,-0.00018199,0.00011056,-0.08059311,-0.12197950,-0.00340869,0.129475
 10,0.65690647,0.00891232,-0.00261746,0.00484175,0.00134045,-0.00046283
 ,-0.00123429,0.00114631,-0.00090354,0.00004662,-0.01374496,0.01048851,
 -0.08992782,-0.01923171,0.02896197,-0.00914366,-0.00082533,0.00015681,
 0.00078808,0.00006969,0.00120336,-0.00624609,0.00000331,-0.00039079,-0
 .00000079,-0.00090038,0.00196338,0.00045982,0.00021292,-0.00041814,0.0
 0020053,-0.00010380,-0.00016020,-0.00064300,-0.00015211,0.00010952,-0.
 00004419,0.00007789,-0.00002201,-0.00002382,-0.05139088,-0.00390166,-0
 .08273482,0.05631157,-0.03718121,0.27461838,-0.00003671,0.01304524,-0.
 00139571,0.00042957,0.00143802,-0.00063464,0.00026695,-0.00064171,0.00
 030018,0.00068063,0.00996038,-0.00140860,-0.00061187,0.00180544,0.0007
 3549,0.00000648,-0.00055189,0.00103237,0.00029111,0.00050443,-0.001188
 00,0.00036210,-0.00048089,0.00030007,0.00007901,0.00025899,0.00065501,
 0.00021689,-0.00007989,-0.00053408,-0.00002909,0.00019064,-0.00032349,
 -0.00008761,-0.00003739,0.00001798,-0.00003756,-0.00011096,0.00004238,
 -0.05175976,-0.08918209,0.00065506,-0.16115192,-0.10285628,0.00490712,
 0.21246116,0.00217790,0.00235627,0.00089165,0.00049913,-0.00112592,-0.
 00085824,0.00050841,-0.00178625,0.00030703,-0.00686017,-0.05177023,0.0
 0683609,0.00124533,-0.00093542,-0.00437904,0.00099560,-0.00063904,0.00
 146277,0.00034851,0.00002404,0.00337828,0.00004950,0.00017161,-0.00015
 764,-0.00025413,-0.00058913,-0.00252654,0.00015313,0.00019298,0.001628
 41,0.00088438,-0.00061603,0.00146247,0.00008006,-0.00011995,-0.0000374
 6,-0.00023134,0.00014863,-0.00009560,-0.06654956,-0.02194096,-0.001290
 53,-0.09832800,-0.38367531,0.02126481,0.16204463,0.46362053,-0.0005817
 2,-0.00050753,0.00250289,-0.00009751,-0.00125370,0.00016061,-0.0006844
 4,0.00249065,-0.00016272,0.00198147,0.00978736,0.01897418,0.00102022,-
 0.00311090,-0.00030176,0.00066438,-0.00077400,0.00105405,0.00016062,0.
 00008651,0.00106755,-0.00004811,0.00010045,0.00000627,0.00032309,-0.00
 075845,-0.00004639,-0.00011401,0.00036973,0.00000436,-0.00017189,0.000
 28413,-0.00002514,0.00002711,-0.00003161,0.00002346,0.00000303,-0.0000
 2794,-0.00000505,-0.00150494,-0.00404896,0.03200403,0.00359773,0.02159
 359,-0.09856073,-0.00161014,-0.02816508,0.04438322,0.00090034,0.000890
 63,-0.00016553,0.00018512,-0.00004297,-0.00020727,0.00005212,-0.000041
 64,-0.00007809,0.00187748,-0.00058299,-0.00138571,-0.57500387,-0.05905
 140,0.15027393,-0.01072480,0.00196484,0.00613641,-0.01073586,-0.001482
 69,0.00272430,0.00013914,0.00209173,-0.00071095,-0.00107301,0.00109303
 ,0.00166513,0.00134440,-0.00087677,-0.00023285,0.00033592,-0.00039020,
 -0.00028455,-0.00002183,0.00007628,-0.00005524,0.00000430,-0.00015871,
 0.00005500,0.00010096,0.00029248,-0.00013318,-0.00008472,0.00090826,-0
 .00042079,-0.00002769,-0.00030328,-0.00022616,0.59113905,-0.00036980,0
 .00044154,0.00363966,0.00040873,-0.00023810,-0.00037132,-0.00080292,-0
 .00009677,0.00033042,-0.00807461,-0.00312390,0.00046615,-0.05747706,-0
 .01171349,0.01136305,-0.02727275,-0.00078820,0.00958181,0.03514166,-0.
 00234952,-0.00875014,0.00361812,-0.00591886,0.00197252,0.00077735,0.00
 003400,-0.00130127,-0.00042721,0.00027539,0.00066733,-0.00032784,-0.00
 010439,0.00034614,-0.00010846,-0.00006557,0.00011604,0.00007759,0.0003
 0668,-0.00021346,0.00177808,-0.00048010,-0.00117579,-0.00359369,0.0000
 0614,0.00102013,0.00072080,0.00001630,-0.00001709,0.05602847,0.0209279
 2,0.00024923,0.00077541,-0.00777292,-0.00076381,-0.00051833,-0.0001130
 7,0.00186243,0.00117589,-0.00033323,0.03279601,0.00581172,-0.00711692,
 0.15149982,0.01214813,-0.04445903,-0.02314216,-0.00106180,0.00613185,-
 0.00785704,0.00028289,0.00074732,-0.00008579,0.00120440,-0.00020792,-0
 .00133333,0.00071994,0.00147354,0.00099023,-0.00062131,-0.00046286,0.0
 0039226,-0.00032439,-0.00027331,-0.00001183,0.00007554,-0.00009945,0.0
 0001414,-0.00012845,0.00007354,-0.00253758,-0.00179192,0.00142729,0.00
 630582,0.00098188,0.00130892,-0.00158493,-0.00078525,-0.00024876,-0.15
 706654,-0.01678128,0.04865046,-0.02737010,-0.03012681,-0.01407022,-0.0
 0168257,-0.00334298,-0.00002867,0.00288835,0.00254111,-0.00222939,-0.0
 3890996,-0.10455059,-0.07409528,0.00172126,0.00318573,0.00143504,0.000
 75687,-0.00055598,0.00081122,0.00004651,-0.00056539,0.00035778,-0.0002
 1894,-0.00033193,-0.00003962,-0.00003584,0.00008321,-0.00014306,-0.000
 01697,0.00003393,0.00024972,0.00016871,-0.00006050,0.00012689,-0.00001
 265,-0.00002266,0.00000868,-0.00004521,-0.00001973,-0.00001663,0.00033
 723,-0.00163677,-0.00184137,0.00679792,0.01501688,0.01347989,-0.000915
 37,0.00386724,-0.00260270,0.00021868,0.00033269,-0.00031225,0.05613109
 ,-0.00636727,-0.00344101,-0.00058308,-0.00028629,-0.00101926,0.0001613
 3,-0.00058215,0.00163597,0.00019966,-0.10500554,-0.35291193,-0.2588079
 4,0.00449521,0.00855557,0.01135334,-0.00013740,-0.00019191,0.00250048,
 0.00035110,0.00136988,0.00031008,-0.00003292,0.00002735,-0.00007108,0.
 00002465,0.00047785,0.00015401,-0.00000698,-0.00022563,0.00018064,-0.0
 0004693,0.00001588,-0.00021769,-0.00005865,0.00000916,-0.00001263,0.00
 001739,-0.00005268,0.00000429,0.00115101,0.00464556,0.00344816,-0.0130
 9403,-0.02040549,-0.01907206,0.00386637,-0.00384336,0.00386167,-0.0000
 4409,0.00029392,-0.00089137,0.11601586,0.36469758,0.00916285,0.0101347
 0,0.00702908,0.00007364,0.00083681,-0.00019349,-0.00100064,0.00025020,
 0.00253727,-0.07958916,-0.25359919,-0.19600624,-0.00982640,-0.02743960
 ,-0.02227695,0.00120391,0.00270597,-0.00633776,0.00025628,-0.00138278,
 0.00272662,-0.00039364,0.00029636,-0.00014095,0.00098544,-0.00095684,-
 0.00059443,-0.00041642,0.00097004,0.00015100,-0.00012232,0.00019434,0.
 00020546,0.00002140,-0.00006663,0.00002432,-0.00003498,-0.00000252,-0.
 00000903,0.00191478,-0.00015083,-0.00062099,-0.00157056,0.00815970,0.0
 0636562,0.00003257,0.00127374,-0.00079215,0.00021824,-0.00006207,0.000
 75141,0.07920160,0.25778922,0.20761825,-0.00039289,-0.00003995,0.00015
 473,0.00019874,0.00001375,-0.00005456,0.00004257,-0.00013080,0.0000350
 1,0.00053759,-0.00063272,0.00080768,0.00985823,0.01929457,0.00716201,-
 0.00139778,0.00375210,-0.00109708,-0.19557183,-0.26114285,-0.11928055,
 -0.01568816,-0.02582892,-0.01519382,-0.00207361,-0.00252792,0.00139852
 ,-0.00115425,0.00034505,0.00124929,0.00087524,0.00162934,-0.00080140,0
 .00024809,0.00040294,0.00003764,-0.00098288,-0.00029652,-0.00051374,-0
 .00009539,-0.00025278,0.00007570,0.00007664,0.00054716,0.00030850,-0.0
 0013632,-0.00032736,-0.00013603,0.00137427,-0.00042914,0.00058533,0.00
 014097,-0.00025935,-0.00011658,0.20414077,0.00037619,0.00032001,0.0001
 8018,0.00020464,-0.00001159,-0.00016212,-0.00000444,-0.00005205,0.0000
 4284,-0.00137614,0.00108728,-0.00184718,-0.01510171,-0.02490405,-0.010
 91039,0.00357285,-0.00436235,0.00207129,-0.26411032,-0.34097831,-0.159
 01469,0.00401501,0.00110262,-0.00022573,0.00748257,0.00629229,0.003122
 79,-0.00097096,0.00007176,0.00034269,0.00003146,-0.00136470,0.00085194
 ,-0.00044818,-0.00020422,-0.00028652,0.00018497,-0.00011553,0.00020552
 ,0.00012474,0.00017709,0.00005800,0.00026404,-0.00037372,-0.00003858,0
 .00010617,0.00051124,0.00012116,-0.00037098,0.00257701,-0.00027171,0.0
 0013669,0.00036254,0.00104936,0.26588341,0.35986470,0.00013153,-0.0000
 5595,-0.00044079,-0.00029168,-0.00009296,0.00004314,0.00002366,0.00012
 619,-0.00004137,0.00086588,0.00049130,0.00141381,0.00413557,0.00644193
 ,0.00233394,-0.00078678,0.00098745,-0.00033511,-0.12439831,-0.16365314
 ,-0.07763091,0.01215033,0.01703773,0.00837452,-0.02248068,-0.03147317,
 -0.01087076,0.00342932,0.00359828,-0.00442056,0.00226077,0.00262029,0.
 00069699,0.00101274,0.00078331,0.00000253,-0.00097275,-0.00018502,-0.0
 0013634,0.00004860,-0.00009150,-0.00003106,-0.00011122,0.00010183,-0.0
 0007048,0.00000137,-0.00020989,-0.00003793,-0.00010613,-0.00083082,0.0
 0052315,-0.00029162,-0.00030702,-0.00043703,0.12537937,0.16471115,0.08
 106427\\0.14928937,-0.09445510,-0.06624970,-0.11575194,0.07134592,-0.1
 0552584,-0.02954310,0.03797733,0.16494107,-0.04709967,-0.07522727,-0.0
 4690363,-0.05605272,0.06653606,0.08115623,-0.04056478,-0.07345330,-0.0
 5457775,0.03337400,-0.08144655,-0.08243310,-0.08921521,0.00236110,0.04
 913079,0.02605888,-0.03718798,-0.01413169,-0.01124430,0.01765269,0.013
 14055,0.09707633,-0.11556695,0.03971206,-0.03907921,0.03274941,-0.1744
 3219,-0.07222451,0.10193523,0.13272344,0.00471972,0.02635046,-0.003385
 54,0.00138696,-0.08423221,0.00885540,0.00896882,0.04813635,-0.00436313
 ,0.09514760,0.00779126,-0.02332367,0.02920748,0.07087360,0.05059531,0.
 05554630,0.07785995,0.03507139\\\@
 The archive entry for this job was punched.

 Writing a WFNX file to "XUKXAC_Complex_0_Ligand_1_ON_Cu_oriented.wfx"


 Money is a good servant but a bad master.
                        -- French Proverb
 Job cpu time:       0 days  0 hours  9 minutes 20.9 seconds.
 Elapsed time:       0 days  0 hours  9 minutes 24.0 seconds.
 File lengths (MBytes):  RWF=    364 Int=      0 D2E=      0 Chk=      8 Scr=      8
 Normal termination of Gaussian 16 at Mon Mar  6 10:31:13 2023.
