 Entering Gaussian System, Link 0=g16
 Initial command:
 /ssoft/spack/external/gaussian/g16-C.01/avx2/g16/l1.exe "/scratch/lcmd/2387869/Gau-1723089.inp" -scrdir="/scratch/lcmd/2387869/"
 Entering Link 1 = /ssoft/spack/external/gaussian/g16-C.01/avx2/g16/l1.exe PID=   1723094.
  
 Copyright (c) 1988-2019, Gaussian, Inc.  All Rights Reserved.
  
 This is part of the Gaussian(R) 16 program.  It is based on
 the Gaussian(R) 09 system (copyright 2009, Gaussian, Inc.),
 the Gaussian(R) 03 system (copyright 2003, Gaussian, Inc.),
 the Gaussian(R) 98 system (copyright 1998, Gaussian, Inc.),
 the Gaussian(R) 94 system (copyright 1995, Gaussian, Inc.),
 the Gaussian 92(TM) system (copyright 1992, Gaussian, Inc.),
 the Gaussian 90(TM) system (copyright 1990, Gaussian, Inc.),
 the Gaussian 88(TM) system (copyright 1988, Gaussian, Inc.),
 the Gaussian 86(TM) system (copyright 1986, Carnegie Mellon
 University), and the Gaussian 82(TM) system (copyright 1983,
 Carnegie Mellon University). Gaussian is a federally registered
 trademark of Gaussian, Inc.
  
 This software contains proprietary and confidential information,
 including trade secrets, belonging to Gaussian, Inc.
  
 This software is provided under written license and may be
 used, copied, transmitted, or stored only in accord with that
 written license.
  
 The following legend is applicable only to US Government
 contracts under FAR:
  
                    RESTRICTED RIGHTS LEGEND
  
 Use, reproduction and disclosure by the US Government is
 subject to restrictions as set forth in subparagraphs (a)
 and (c) of the Commercial Computer Software - Restricted
 Rights clause in FAR 52.227-19.
  
 Gaussian, Inc.
 340 Quinnipiac St., Bldg. 40, Wallingford CT 06492
  
  
 ---------------------------------------------------------------
 Warning -- This program may not be used in any manner that
 competes with the business of Gaussian, Inc. or will provide
 assistance to any competitor of Gaussian, Inc.  The licensee
 of this program is prohibited from giving any competitor of
 Gaussian, Inc. access to this program.  By using this program,
 the user acknowledges that Gaussian, Inc. is engaged in the
 business of creating and licensing software in the field of
 computational chemistry and represents and warrants to the
 licensee that it is not a competitor of Gaussian, Inc. and that
 it will not use this program in any manner prohibited above.
 ---------------------------------------------------------------
  

 Cite this work as:
 Gaussian 16, Revision C.01,
 M. J. Frisch, G. W. Trucks, H. B. Schlegel, G. E. Scuseria, 
 M. A. Robb, J. R. Cheeseman, G. Scalmani, V. Barone, 
 G. A. Petersson, H. Nakatsuji, X. Li, M. Caricato, A. V. Marenich, 
 J. Bloino, B. G. Janesko, R. Gomperts, B. Mennucci, H. P. Hratchian, 
 J. V. Ortiz, A. F. Izmaylov, J. L. Sonnenberg, D. Williams-Young, 
 F. Ding, F. Lipparini, F. Egidi, J. Goings, B. Peng, A. Petrone, 
 T. Henderson, D. Ranasinghe, V. G. Zakrzewski, J. Gao, N. Rega, 
 G. Zheng, W. Liang, M. Hada, M. Ehara, K. Toyota, R. Fukuda, 
 J. Hasegawa, M. Ishida, T. Nakajima, Y. Honda, O. Kitao, H. Nakai, 
 T. Vreven, K. Throssell, J. A. Montgomery, Jr., J. E. Peralta, 
 F. Ogliaro, M. J. Bearpark, J. J. Heyd, E. N. Brothers, K. N. Kudin, 
 V. N. Staroverov, T. A. Keith, R. Kobayashi, J. Normand, 
 K. Raghavachari, A. P. Rendell, J. C. Burant, S. S. Iyengar, 
 J. Tomasi, M. Cossi, J. M. Millam, M. Klene, C. Adamo, R. Cammi, 
 J. W. Ochterski, R. L. Martin, K. Morokuma, O. Farkas, 
 J. B. Foresman, and D. J. Fox, Gaussian, Inc., Wallingford CT, 2019.
 
 ******************************************
 Gaussian 16:  ES64L-G16RevC.01  3-Jul-2019
                 6-Mar-2023 
 ******************************************
 %nprocshared=1
 Will use up to    1 processors via shared memory.
 %mem=8000MB
 %chk=YAFLEY_Complex_2_Ligand_0_ON_Cu_oriented.chk
 ----------------------------------------------------------------------
 #p pop=(regular,nbo,savenbos) freq=noraman def2svp empiricaldispersion
 =gd3bj output=wfx pbe1pbe
 ----------------------------------------------------------------------
 1/10=4,30=1,38=1/1,3;
 2/12=2,17=6,18=5,40=1/2;
 3/5=43,7=101,11=2,25=1,30=1,71=2,74=-13,124=41,140=1/1,2,3;
 4//1;
 5/5=2,38=5,98=1/2;
 8/6=4,10=90,11=11/1;
 11/6=1,8=1,9=11,15=111,16=1/1,2,10;
 10/6=1/2;
 6/28=1,40=1,73=1/1,7;
 7/8=1,10=1,25=1/1,2,3,16;
 1/10=4,30=1/3;
 99/6=200/99;
 Leave Link    1 at Mon Mar  6 10:21:49 2023, MaxMem=  1048576000 cpu:               0.0 elap:               0.1
 (Enter /ssoft/spack/external/gaussian/g16-C.01/avx2/g16/l101.exe)
 ----------------------------------------
 YAFLEY_Complex_2_Ligand_0_ON_Cu_oriented
 ----------------------------------------
 Symbolic Z-matrix:
 Charge = -1 Multiplicity = 1
 Br                    1.64354   1.40786  -5.50254 
 N                    -1.94782  -0.24281   0. 
 H                    -2.17574  -0.89307   0.62503 
 O                    -0.38572   1.89015   0. 
 O                    -1.97758   3.34707   0.43982 
 O                    -4.4704   -1.09781  -3.33021 
 O                    -5.12008   1.0492   -3.06682 
 C                    -2.48378  -0.64857  -1.35898 
 H                    -2.52909  -1.64675  -1.40016 
 C                    -3.9223   -0.08937  -1.30043 
 H                    -4.47423  -0.73187  -0.76788 
 C                    -3.83316   1.22244  -0.49576 
 H                    -3.73383   2.00081  -1.09959 
 H                    -4.64009   1.35017   0.06242 
 C                    -2.58514   1.04418   0.37644 
 H                    -2.87413   0.98536   1.33262 
 C                    -1.59453   2.19694   0.24369 
 C                    -4.57485   0.05233  -2.66862 
 C                    -4.98798  -1.21153  -4.72911 
 C                    -4.2062   -0.31266  -5.63463 
 H                    -3.25091  -0.51568  -5.55237 
 H                    -4.36462   0.62159  -5.38487 
 H                    -4.49159  -0.45477  -6.56204 
 C                    -4.71791  -2.65932  -5.03897 
 H                    -3.75607  -2.83349  -4.97273 
 H                    -5.02561  -2.86153  -5.94711 
 H                    -5.19684  -3.22461  -4.39786 
 C                    -6.47108  -0.93472  -4.74423 
 H                    -6.62515   0.02208  -4.59942 
 H                    -6.90665  -1.44635  -4.03147 
 H                    -6.84453  -1.19826  -5.61116 
 C                    -1.57913  -0.15428  -2.475 
 C                    -1.69294   1.10978  -3.05271 
 H                    -2.40845   1.68235  -2.80154 
 C                    -0.76113   1.53914  -3.99743 
 H                    -0.87401   2.38086  -4.42272 
 C                     0.30582   0.76441  -4.31574 
 C                     0.39914  -0.52708  -3.80146 
 H                     1.10338  -1.10066  -4.0795 
 C                    -0.53201  -0.97221  -2.88698 
 H                    -0.45789  -1.85121  -2.53422 
 
 ITRead=  0  0  0  0  0  0  0  0  0  0  0  0  0  0  0  0  0  0  0  0
 ITRead=  0  0  0  0  0  0  0  0  0  0  0  0  0  0  0  0  0  0  0  0
 ITRead=  0
 MicOpt= -1 -1 -1 -1 -1 -1 -1 -1 -1 -1 -1 -1 -1 -1 -1 -1 -1 -1 -1 -1
 MicOpt= -1 -1 -1 -1 -1 -1 -1 -1 -1 -1 -1 -1 -1 -1 -1 -1 -1 -1 -1 -1
 MicOpt= -1
 NAtoms=     41 NQM=       41 NQMF=       0 NMMI=      0 NMMIF=      0
                NMic=       0 NMicF=      0.
                    Isotopes and Nuclear Properties:
 (Nuclear quadrupole moments (NQMom) in fm**2, nuclear magnetic moments (NMagM)
  in nuclear magnetons)

  Atom         1           2           3           4           5           6           7           8           9          10
 IAtWgt=          79          14           1          16          16          16          16          12           1          12
 AtmWgt=  78.9183361  14.0030740   1.0078250  15.9949146  15.9949146  15.9949146  15.9949146  12.0000000   1.0078250  12.0000000
 NucSpn=           3           2           1           0           0           0           0           0           1           0
 AtZEff=  -0.0000000  -0.0000000  -0.0000000  -0.0000000  -0.0000000  -0.0000000  -0.0000000  -0.0000000  -0.0000000  -0.0000000
 NQMom=   31.3000000   2.0440000   0.0000000   0.0000000   0.0000000   0.0000000   0.0000000   0.0000000   0.0000000   0.0000000
 NMagM=    2.1063990   0.4037610   2.7928460   0.0000000   0.0000000   0.0000000   0.0000000   0.0000000   2.7928460   0.0000000
 AtZNuc=  35.0000000   7.0000000   1.0000000   8.0000000   8.0000000   8.0000000   8.0000000   6.0000000   1.0000000   6.0000000

  Atom        11          12          13          14          15          16          17          18          19          20
 IAtWgt=           1          12           1           1          12           1          12          12          12          12
 AtmWgt=   1.0078250  12.0000000   1.0078250   1.0078250  12.0000000   1.0078250  12.0000000  12.0000000  12.0000000  12.0000000
 NucSpn=           1           0           1           1           0           1           0           0           0           0
 AtZEff=  -0.0000000  -0.0000000  -0.0000000  -0.0000000  -0.0000000  -0.0000000  -0.0000000  -0.0000000  -0.0000000  -0.0000000
 NQMom=    0.0000000   0.0000000   0.0000000   0.0000000   0.0000000   0.0000000   0.0000000   0.0000000   0.0000000   0.0000000
 NMagM=    2.7928460   0.0000000   2.7928460   2.7928460   0.0000000   2.7928460   0.0000000   0.0000000   0.0000000   0.0000000
 AtZNuc=   1.0000000   6.0000000   1.0000000   1.0000000   6.0000000   1.0000000   6.0000000   6.0000000   6.0000000   6.0000000

  Atom        21          22          23          24          25          26          27          28          29          30
 IAtWgt=           1           1           1          12           1           1           1          12           1           1
 AtmWgt=   1.0078250   1.0078250   1.0078250  12.0000000   1.0078250   1.0078250   1.0078250  12.0000000   1.0078250   1.0078250
 NucSpn=           1           1           1           0           1           1           1           0           1           1
 AtZEff=  -0.0000000  -0.0000000  -0.0000000  -0.0000000  -0.0000000  -0.0000000  -0.0000000  -0.0000000  -0.0000000  -0.0000000
 NQMom=    0.0000000   0.0000000   0.0000000   0.0000000   0.0000000   0.0000000   0.0000000   0.0000000   0.0000000   0.0000000
 NMagM=    2.7928460   2.7928460   2.7928460   0.0000000   2.7928460   2.7928460   2.7928460   0.0000000   2.7928460   2.7928460
 AtZNuc=   1.0000000   1.0000000   1.0000000   6.0000000   1.0000000   1.0000000   1.0000000   6.0000000   1.0000000   1.0000000

  Atom        31          32          33          34          35          36          37          38          39          40
 IAtWgt=           1          12          12           1          12           1          12          12           1          12
 AtmWgt=   1.0078250  12.0000000  12.0000000   1.0078250  12.0000000   1.0078250  12.0000000  12.0000000   1.0078250  12.0000000
 NucSpn=           1           0           0           1           0           1           0           0           1           0
 AtZEff=  -0.0000000  -0.0000000  -0.0000000  -0.0000000  -0.0000000  -0.0000000  -0.0000000  -0.0000000  -0.0000000  -0.0000000
 NQMom=    0.0000000   0.0000000   0.0000000   0.0000000   0.0000000   0.0000000   0.0000000   0.0000000   0.0000000   0.0000000
 NMagM=    2.7928460   0.0000000   0.0000000   2.7928460   0.0000000   2.7928460   0.0000000   0.0000000   2.7928460   0.0000000
 AtZNuc=   1.0000000   6.0000000   6.0000000   1.0000000   6.0000000   1.0000000   6.0000000   6.0000000   1.0000000   6.0000000

  Atom        41
 IAtWgt=           1
 AtmWgt=   1.0078250
 NucSpn=           1
 AtZEff=  -0.0000000
 NQMom=    0.0000000
 NMagM=    2.7928460
 AtZNuc=   1.0000000
 Leave Link  101 at Mon Mar  6 10:21:49 2023, MaxMem=  1048576000 cpu:               0.1 elap:               0.1
 (Enter /ssoft/spack/external/gaussian/g16-C.01/avx2/g16/l103.exe)

 GradGradGradGradGradGradGradGradGradGradGradGradGradGradGradGradGradGrad
 Berny optimization.
 Initialization pass.
 Trust Radius=3.00D-01 FncErr=1.00D-07 GrdErr=1.00D-07 EigMax=2.50D+02 EigMin=1.00D-04
 Number of steps in this run=      2 maximum allowed number of steps=      2.
 GradGradGradGradGradGradGradGradGradGradGradGradGradGradGradGradGradGrad

 Leave Link  103 at Mon Mar  6 10:21:49 2023, MaxMem=  1048576000 cpu:               0.1 elap:               0.1
 (Enter /ssoft/spack/external/gaussian/g16-C.01/avx2/g16/l202.exe)
                          Input orientation:                          
 ---------------------------------------------------------------------
 Center     Atomic      Atomic             Coordinates (Angstroms)
 Number     Number       Type             X           Y           Z
 ---------------------------------------------------------------------
      1         35           0        1.643541    1.407860   -5.502543
      2          7           0       -1.947825   -0.242805    0.000000
      3          1           0       -2.175743   -0.893070    0.625034
      4          8           0       -0.385721    1.890148    0.000000
      5          8           0       -1.977583    3.347074    0.439818
      6          8           0       -4.470401   -1.097811   -3.330213
      7          8           0       -5.120080    1.049199   -3.066825
      8          6           0       -2.483781   -0.648568   -1.358977
      9          1           0       -2.529088   -1.646747   -1.400159
     10          6           0       -3.922301   -0.089369   -1.300427
     11          1           0       -4.474229   -0.731872   -0.767876
     12          6           0       -3.833155    1.222443   -0.495761
     13          1           0       -3.733834    2.000810   -1.099591
     14          1           0       -4.640093    1.350173    0.062423
     15          6           0       -2.585137    1.044179    0.376440
     16          1           0       -2.874131    0.985356    1.332623
     17          6           0       -1.594534    2.196943    0.243689
     18          6           0       -4.574846    0.052326   -2.668621
     19          6           0       -4.987983   -1.211529   -4.729110
     20          6           0       -4.206195   -0.312664   -5.634625
     21          1           0       -3.250913   -0.515679   -5.552367
     22          1           0       -4.364622    0.621594   -5.384871
     23          1           0       -4.491589   -0.454773   -6.562044
     24          6           0       -4.717912   -2.659317   -5.038970
     25          1           0       -3.756072   -2.833491   -4.972733
     26          1           0       -5.025609   -2.861535   -5.947114
     27          1           0       -5.196845   -3.224611   -4.397857
     28          6           0       -6.471084   -0.934724   -4.744225
     29          1           0       -6.625150    0.022081   -4.599420
     30          1           0       -6.906645   -1.446350   -4.031465
     31          1           0       -6.844532   -1.198258   -5.611162
     32          6           0       -1.579127   -0.154283   -2.474998
     33          6           0       -1.692939    1.109784   -3.052713
     34          1           0       -2.408448    1.682346   -2.801544
     35          6           0       -0.761134    1.539139   -3.997429
     36          1           0       -0.874009    2.380857   -4.422722
     37          6           0        0.305817    0.764410   -4.315736
     38          6           0        0.399144   -0.527080   -3.801462
     39          1           0        1.103376   -1.100656   -4.079505
     40          6           0       -0.532005   -0.972210   -2.886977
     41          1           0       -0.457887   -1.851207   -2.534217
 ---------------------------------------------------------------------
                    Distance matrix (angstroms):
                    1          2          3          4          5
     1  Br   0.000000
     2  N    6.774996   0.000000
     3  H    7.578153   0.930300   0.000000
     4  O    5.884597   2.643796   3.367662   0.000000
     5  O    7.223901   3.616844   4.248811   2.202294   0.000000
     6  O    6.955407   4.264357   4.577265   6.058285   6.339107
     7  O    7.197772   4.597596   5.106011   5.703224   5.239472
     8  C    6.199421   1.516150   2.022615   3.562829   4.411015
     9  H    6.600834   2.066244   2.189587   4.366245   5.350507
    10  C    7.132886   2.369221   2.720993   4.256406   4.315035
    11  H    8.026371   2.685431   2.692438   4.917369   4.932501
    12  C    7.422698   2.438689   2.911802   3.546324   2.971955
    13  H    6.975223   3.071276   3.711673   3.525791   2.695668
    14  H    8.393821   3.128863   3.379599   4.288957   3.349478
    15  C    7.250960   1.484656   1.995579   2.386378   2.382534
    16  H    8.204106   2.035266   2.125302   2.964240   2.679294
    17  C    6.642813   2.477211   3.167240   1.270723   1.228004
    18  C    6.966845   3.756313   4.183018   5.296027   5.221450
    19  C    7.171924   5.704863   6.056151   7.291481   7.520717
    20  C    6.098939   6.070759   6.606281   7.155236   7.433657
    21  H    5.259103   5.709753   6.281617   6.695230   7.242135
    22  H    6.060535   5.965311   6.573003   6.814523   6.859534
    23  H    6.498597   7.041029   7.563686   8.088092   8.354660
    24  C    7.564714   6.237318   6.454704   8.053367   8.579234
    25  H    6.886622   5.891476   6.131695   7.641996   8.405839
    26  H    7.931137   7.190179   7.428979   8.914887   9.414361
    27  H    8.334926   6.228037   6.308136   8.285458   8.772331
    28  C    8.479969   6.591381   6.876092   8.217007   8.087005
    29  H    8.432512   6.565227   6.923124   7.973381   7.619015
    30  H    9.133250   6.503163   6.661122   8.361063   8.201521
    31  H    8.879810   7.508380   7.796209   9.096132   8.997866
    32  C    4.689553   2.503875   3.242215   3.424841   4.573229
    33  C    4.150014   3.348660   4.215489   3.411282   4.157434
    34  H    4.877433   3.430310   4.292826   3.461684   3.669250
    35  C    2.839905   4.534644   5.411463   4.030332   4.943434
    36  H    2.907025   5.253299   6.155725   4.476571   5.078951
    37  C    1.900538   4.971816   5.772053   4.513434   5.873616
    38  C    2.861152   4.476627   5.133991   4.572758   6.216620
    39  H    2.934189   5.166052   5.738328   5.273014   7.049744
    40  C    4.151977   3.297152   3.878449   4.068062   5.640344
    41  H    4.883489   3.350989   3.721549   4.519425   6.178713
                    6          7          8          9         10
     6  O    0.000000
     7  O    2.258563   0.000000
     8  C    2.834474   3.570606   0.000000
     9  H    2.791977   4.093793   1.000055   0.000000
    10  C    2.331822   2.418920   1.544497   2.091988   0.000000
    11  H    2.588338   2.979010   2.078034   2.240614   1.000523
    12  C    3.718034   2.880375   2.463054   3.278838   1.541521
    13  H    3.888400   2.587905   2.940938   3.853106   2.108247
    14  H    4.187051   3.180121   3.265735   3.946773   2.108286
    15  C    4.677778   4.275749   2.426383   3.224985   2.425865
    16  H    5.350672   4.939990   3.172820   3.809871   3.030948
    17  C    5.647901   4.970543   3.384706   4.283641   3.609712
    18  C    1.330949   1.203994   2.564951   2.946349   1.522448
    19  C    1.495906   2.809187   4.236242   4.161429   3.761753
    20  C    2.448791   3.046876   4.621765   4.745858   4.349221
    21  H    2.600769   3.481458   4.265052   4.363620   4.325678
    22  H    2.681262   2.475258   4.621547   4.938875   4.169388
    23  H    3.295251   3.856616   5.580390   5.649537   5.304924
    24  C    2.327964   4.219500   4.751505   4.365455   4.605902
    25  H    2.494138   4.535227   4.410425   3.959437   4.587338
    26  H    3.204240   4.857863   5.692901   5.327582   5.522128
    27  H    2.488145   4.476940   4.819907   4.311934   4.587840
    28  C    2.455354   2.928281   5.238356   5.218150   4.366997
    29  H    2.740071   2.380978   5.301054   5.458753   4.266283
    30  H    2.559008   3.217158   5.228803   5.111452   4.266881
    31  H    3.293831   3.807682   6.115504   6.046218   5.324613
    32  C    3.159287   3.786420   1.519283   2.070061   2.621887
    33  C    3.558760   3.427705   2.566315   3.320925   3.078721
    34  H    3.501487   2.797177   2.742231   3.614041   2.772017
    35  C    4.599711   4.484025   3.836014   4.474522   4.463052
    36  H    5.121400   4.651977   4.599490   5.300638   5.014261
    37  C    5.220285   5.575055   4.303578   4.727679   5.262889
    38  C    4.925472   5.786725   3.780443   3.948981   5.012150
    39  H    5.623916   6.661742   4.524749   4.546637   5.831243
    40  C    3.965248   5.016859   2.499792   2.579529   3.845862
    41  H    4.159505   5.516527   2.632827   2.370183   4.077803
                   11         12         13         14         15
    11  H    0.000000
    12  C    2.074697   0.000000
    13  H    2.850574   0.990117   0.000000
    14  H    2.247625   0.989461   1.610873   0.000000
    15  C    2.834163   1.532991   2.100789   2.101210   0.000000
    16  H    3.149806   2.078202   2.772345   2.205701   1.000631
    17  C    4.230114   2.551051   2.533668   3.166276   1.525708
    18  C    2.058621   2.576936   2.639271   3.024445   3.770293
    19  C    4.023106   5.017877   5.006538   5.444459   6.076884
    20  C    4.892119   5.376210   5.112907   5.950601   6.371950
    21  H    4.943136   5.378600   5.137426   6.077590   6.166617
    22  H    4.812539   4.954480   4.545741   5.502702   6.044655
    23  H    5.800816   6.328221   6.036760   6.867565   7.350100
    24  C    4.692193   6.040828   6.180930   6.488935   6.898643
    25  H    4.755353   6.041508   6.194529   6.605857   6.709774
    26  H    5.627077   6.915061   6.986384   7.348582   7.822905
    27  H    4.462363   6.071432   6.350117   6.413480   6.916465
    28  C    4.454204   5.446236   5.421555   5.628246   6.725909
    29  H    4.458210   5.106478   4.952159   5.238040   6.490421
    30  H    4.132571   5.391660   5.526801   5.451396   6.656410
    31  H    5.412326   6.410578   6.345451   6.598759   7.682600
    32  C    3.410204   3.300515   3.343491   4.251048   3.252548
    33  C    4.043235   3.336348   2.962071   4.295064   3.543926
    34  H    3.772493   2.749170   2.180530   3.645941   3.246238
    35  C    5.419832   4.668971   4.177026   5.618223   4.764735
    36  H    6.000713   5.051682   4.400708   5.946614   5.267506
    37  C    6.137997   5.650937   5.309525   6.631246   5.518369
    38  C    5.744071   5.648084   5.547238   6.621752   5.369325
    39  H    6.497120   6.527584   6.472834   7.493302   6.169351
    40  C    4.482129   4.629472   4.720731   5.564963   4.350985
    41  H    4.528121   4.999507   5.256236   5.872157   4.623892
                   16         17         18         19         20
    16  H    0.000000
    17  C    2.071495   0.000000
    18  C    4.446676   4.686491   0.000000
    19  C    6.785224   6.918230   2.452269   0.000000
    20  C    7.211227   6.904598   3.011030   1.496366   0.000000
    21  H    7.056781   6.610309   3.223572   2.044351   0.980074
    22  H    6.890472   6.468060   2.783213   2.044246   0.979956
    23  H    8.186324   7.857641   3.927190   2.044196   0.980689
    24  C    7.568379   7.825934   3.604445   1.505005   2.474558
    25  H    7.424212   7.562313   3.782494   2.051272   2.644860
    26  H    8.510111   8.699800   4.409341   2.051212   2.695521
    27  H    7.480456   7.994613   3.757054   2.050817   3.315180
    28  C    7.317982   7.646396   2.979617   1.508787   2.511870
    29  H    7.084290   7.313879   2.816495   2.054004   2.652367
    30  H    7.137773   7.731045   3.088795   2.055022   3.338832
    31  H    8.291465   8.565579   3.920966   2.055473   2.783101
    32  C    4.180166   3.594407   3.009071   4.221265   4.112154
    33  C    4.543332   3.472444   3.093725   4.365331   3.873768
    34  H    4.218292   3.193855   2.714391   4.329437   3.903627
    35  C    5.760285   4.371995   4.303574   5.095860   4.240051
    36  H    6.250752   4.725290   4.711170   5.470273   4.452777
    37  C    6.485741   5.143136   5.200089   5.665644   4.822635
    38  C    6.273804   5.268615   5.134162   5.509096   4.961413
    39  H    7.033003   6.069834   5.963403   6.126902   5.588459
    40  C    5.207940   4.579691   4.176352   4.827677   4.635110
    41  H    5.369989   5.039469   4.537715   5.074299   5.101908
                   21         22         23         24         25
    21  H    0.000000
    22  H    1.600560   0.000000
    23  H    1.600760   1.600132   0.000000
    24  C    2.647800   3.317957   2.689050   0.000000
    25  H    2.442010   3.532393   2.953844   0.979725   0.000000
    26  H    2.967897   3.589597   2.540830   0.979947   1.600603
    27  H    3.529569   4.057103   3.585121   0.979776   1.599777
    28  C    3.346370   2.696244   2.730058   2.476834   3.320967
    29  H    3.547220   2.467050   2.937919   3.319737   4.065128
    30  H    4.067391   3.545417   3.635870   2.697575   3.568790
    31  H    3.658342   3.084319   2.644483   2.642842   3.552488
    32  C    3.520749   4.102234   5.027591   4.764569   4.260977
    33  C    3.364177   3.579830   4.753492   5.225112   4.846897
    34  H    3.620510   3.409603   4.800845   5.402753   5.188732
    35  C    3.583171   3.968880   4.946638   5.862417   5.388948
    36  H    3.913527   4.025558   5.069949   6.368571   5.983161
    37  C    3.977212   4.793375   5.435753   6.122321   5.465846
    38  C    4.048298   5.149768   5.616522   5.679976   4.894612
    39  H    4.633720   5.879552   6.154982   6.102245   5.235915
    40  C    3.834734   4.844444   5.426985   4.999922   4.267242
    41  H    4.323640   5.431717   5.868916   5.007459   4.217733
                   26         27         28         29         30
    26  H    0.000000
    27  H    1.600420   0.000000
    28  C    2.692386   2.643339   0.000000
    29  H    3.562310   3.552702   0.979888   0.000000
    30  H    3.034923   2.493967   0.979542   1.599406   0.000000
    31  H    2.487537   2.879772   0.980047   1.600305   1.600265
    32  C    5.591336   5.119783   5.448827   5.477830   5.698638
    33  C    5.937645   5.733563   5.465518   5.282244   5.888506
    34  H    6.114818   5.865288   5.208462   4.875389   5.615623
    35  C    6.430626   6.521441   6.267474   6.086916   6.832394
    36  H    6.858734   7.078757   6.513346   6.218575   7.154949
    37  C    6.650787   6.796934   6.999788   6.976377   7.549031
    38  C    6.283427   6.240790   6.946583   7.090771   7.366988
    39  H    6.644781   6.656224   7.605382   7.826939   8.017621
    40  C    5.755559   5.395998   6.222815   6.406832   6.493897
    41  H    5.790744   5.274194   6.471678   6.768265   6.632658
                   31         32         33         34         35
    31  H    0.000000
    32  C    6.216904   0.000000
    33  C    6.197711   1.394480   0.000000
    34  H    5.989213   2.041473   0.950192   0.000000
    35  C    6.863324   2.419625   1.394667   2.040659   0.000000
    36  H    7.061841   3.273798   2.040391   2.338939   0.949791
    37  C    7.527130   2.790220   2.389464   3.240774   1.356433
    38  C    7.496422   2.410818   2.759849   3.709983   2.377796
    39  H    8.094736   3.265867   3.709411   4.659527   3.232902
    40  C    6.878974   1.391113   2.389547   3.251923   2.755445
    41  H    7.119212   2.034758   3.249871   4.045015   3.705050
                   36         37         38         39         40
    36  H    0.000000
    37  C    2.004080   0.000000
    38  C    3.234654   1.393246   0.000000
    39  H    4.018555   2.042150   0.949863   0.000000
    40  C    3.703854   2.399822   1.378935   2.028076   0.000000
    41  H    4.652953   3.255534   2.023295   2.321375   0.950036
                   41
    41  H    0.000000
 Stoichiometry    C16H19BrNO4(1-)
 Framework group  C1[X(C16H19BrNO4)]
 Deg. of freedom   117
 Full point group                 C1      NOp   1
 Largest Abelian subgroup         C1      NOp   1
 Largest concise Abelian subgroup C1      NOp   1
                         Standard orientation:                         
 ---------------------------------------------------------------------
 Center     Atomic      Atomic             Coordinates (Angstroms)
 Number     Number       Type             X           Y           Z
 ---------------------------------------------------------------------
      1         35           0        4.341023   -1.164102   -0.335961
      2          7           0       -1.021130    2.527254    1.540681
      3          1           0       -1.583695    2.805101    2.227544
      4          8           0        0.963838    3.626799    0.184009
      5          8           0       -0.255935    4.279028   -1.529715
      6          8           0       -2.570938   -1.287207    0.430403
      7          8           0       -2.694435   -0.357443   -1.624199
      8          6           0       -1.214453    1.041481    1.308699
      9          1           0       -1.500592    0.617896    2.168240
     10          6           0       -2.410800    1.037022    0.331866
     11          1           0       -3.241822    1.173342    0.872111
     12          6           0       -2.230581    2.279612   -0.562437
     13          1           0       -1.759621    2.045407   -1.401290
     14          1           0       -3.105618    2.682958   -0.787505
     15          6           0       -1.388037    3.236325    0.288962
     16          1           0       -1.953064    4.026771    0.528133
     17          6           0       -0.141220    3.737626   -0.433485
     18          6           0       -2.567794   -0.271728   -0.429956
     19          6           0       -2.660393   -2.695201   -0.066876
     20          6           0       -1.441237   -3.029580   -0.867476
     21          1           0       -0.639483   -2.853098   -0.332136
     22          1           0       -1.420861   -2.479238   -1.678044
     23          1           0       -1.464604   -3.977476   -1.117873
     24          6           0       -2.692319   -3.473494    1.220867
     25          1           0       -1.872355   -3.299392    1.728025
     26          1           0       -2.757380   -4.430839    1.021988
     27          1           0       -3.468625   -3.195883    1.750245
     28          6           0       -3.948470   -2.881656   -0.830113
     29          1           0       -3.887097   -2.417101   -1.690695
     30          1           0       -4.692384   -2.510670   -0.311979
     31          1           0       -4.102008   -3.837156   -0.984839
     32          6           0        0.076188    0.386148    0.847175
     33          6           0        0.468319    0.319556   -0.489377
     34          1           0       -0.117002    0.630053   -1.170447
     35          6           0        1.716319   -0.199980   -0.832411
     36          1           0        1.955393   -0.288070   -1.747390
     37          6           0        2.592761   -0.582091    0.129749
     38          6           0        2.193594   -0.587220    1.464580
     39          1           0        2.776272   -0.924571    2.134595
     40          6           0        0.951125   -0.100935    1.812801
     41          1           0        0.688381   -0.099957    2.725781
 ---------------------------------------------------------------------
 Rotational constants (GHZ):           0.2508245           0.1682484           0.1155171
 Leave Link  202 at Mon Mar  6 10:21:49 2023, MaxMem=  1048576000 cpu:               0.0 elap:               0.0
 (Enter /ssoft/spack/external/gaussian/g16-C.01/avx2/g16/l301.exe)
 Standard basis: def2SVP (5D, 7F)
 Ernie: Thresh=  0.10000D-02 Tol=  0.10000D-05 Strict=F.
 There are   445 symmetry adapted cartesian basis functions of A   symmetry.
 There are   421 symmetry adapted basis functions of A   symmetry.
   421 basis functions,   738 primitive gaussians,   445 cartesian basis functions
    95 alpha electrons       95 beta electrons
       nuclear repulsion energy      2320.9371469420 Hartrees.
 IExCor= 1009 DFT=T Ex+Corr=PBE1PBE ExCW=0 ScaHFX=  0.250000
 ScaDFX=  0.750000  0.750000  1.000000  1.000000 ScalE2=  1.000000  1.000000
 IRadAn=      5 IRanWt=     -1 IRanGd=            0 ICorTp=0 IEmpDi=141
 NAtoms=   41 NActive=   41 NUniq=   41 SFac= 1.00D+00 NAtFMM=   60 NAOKFM=F Big=F
 Integral buffers will be    131072 words long.
 Raffenetti 2 integral format.
 Two-electron integral symmetry is turned on.
 R6Disp:  Grimme-D3(BJ) Dispersion energy=       -0.0513284415 Hartrees.
 Nuclear repulsion after empirical dispersion term =     2320.8858185005 Hartrees.
 Leave Link  301 at Mon Mar  6 10:21:49 2023, MaxMem=  1048576000 cpu:               0.1 elap:               0.1
 (Enter /ssoft/spack/external/gaussian/g16-C.01/avx2/g16/l302.exe)
 NPDir=0 NMtPBC=     1 NCelOv=     1 NCel=       1 NClECP=     1 NCelD=      1
         NCelK=      1 NCelE2=     1 NClLst=     1 CellRange=     0.0.
 One-electron integrals computed using PRISM.
 One-electron integral symmetry used in STVInt
   1 Symmetry operations used in ECPInt.
 ECPInt:  NShTT=   19110 NPrTT=   71623 LenC2=   17512 LenP2D=   45444.
 LDataN:  DoStor=T MaxTD1= 4 Len=   56
 NBasis=   421 RedAO= T EigKep=  2.52D-04  NBF=   421
 NBsUse=   421 1.00D-06 EigRej= -1.00D+00 NBFU=   421
 Precomputing XC quadrature grid using
 IXCGrd= 4 IRadAn=           5 IRanWt=          -1 IRanGd=           0 AccXCQ= 0.00D+00.
 Generated NRdTot=       0 NPtTot=           0 NUsed=           0 NTot=          32
 NSgBfM=   442   442   442   442   442 MxSgAt=    41 MxSgA2=    41.
 Leave Link  302 at Mon Mar  6 10:21:51 2023, MaxMem=  1048576000 cpu:               1.5 elap:               1.5
 (Enter /ssoft/spack/external/gaussian/g16-C.01/avx2/g16/l303.exe)
 DipDrv:  MaxL=1.
 Leave Link  303 at Mon Mar  6 10:21:51 2023, MaxMem=  1048576000 cpu:               0.1 elap:               0.1
 (Enter /ssoft/spack/external/gaussian/g16-C.01/avx2/g16/l401.exe)
 ExpMin= 1.22D-01 ExpMax= 1.13D+05 ExpMxC= 1.70D+04 IAcc=3 IRadAn=         5 AccDes= 0.00D+00
 Harris functional with IExCor= 1009 and IRadAn=       5 diagonalized for initial guess.
 HarFok:  IExCor= 1009 AccDes= 0.00D+00 IRadAn=         5 IDoV= 1 UseB2=F ITyADJ=14
 ICtDFT=  3500011 ScaDFX=  1.000000  1.000000  1.000000  1.000000
 FoFCou: FMM=F IPFlag=           0 FMFlag=      100000 FMFlg1=           0
         NFxFlg=           0 DoJE=T BraDBF=F KetDBF=T FulRan=T
         wScrn=  0.000000 ICntrl=       500 IOpCl=  0 I1Cent=   200000004 NGrid=           0
         NMat0=    1 NMatS0=      1 NMatT0=    0 NMatD0=    1 NMtDS0=    0 NMtDT0=    0
 Petite list used in FoFCou.
 Harris En= -3548.90338044619    
 JPrj=0 DoOrth=F DoCkMO=F.
 Leave Link  401 at Mon Mar  6 10:22:05 2023, MaxMem=  1048576000 cpu:              13.9 elap:              14.0
 (Enter /ssoft/spack/external/gaussian/g16-C.01/avx2/g16/l502.exe)
 Integral symmetry usage will be decided dynamically.
 Closed shell SCF:
 Using DIIS extrapolation, IDIIS=  1040.
 NGot=  1048576000 LenX=  1048171614 LenY=  1047973144
 Requested convergence on RMS density matrix=1.00D-08 within 128 cycles.
 Requested convergence on MAX density matrix=1.00D-06.
 Requested convergence on             energy=1.00D-06.
 No special actions if energy rises.
 Fock matrices will be formed incrementally for  20 cycles.
 Integral accuracy reduced to 1.0D-05 until final iterations.

 Cycle   1  Pass 0  IDiag  1:
 FoFJK:  IHMeth= 1 ICntrl=       0 DoSepK=F KAlg= 0 I1Cent=           0 FoldK=F
 IRaf= 860000000 NMat=       1 IRICut=       1 DoRegI=T DoRafI=F ISym2E= 0 IDoP0=0 IntGTp=1.
 FoFCou: FMM=F IPFlag=           0 FMFlag=      100000 FMFlg1=           0
         NFxFlg=           0 DoJE=F BraDBF=F KetDBF=F FulRan=T
         wScrn=  0.000000 ICntrl=         0 IOpCl=  0 I1Cent=           0 NGrid=           0
         NMat0=    1 NMatS0=      1 NMatT0=    0 NMatD0=    1 NMtDS0=    0 NMtDT0=    0
 Symmetry not used in FoFCou.
 E= -3547.72419796449    
 DIIS: error= 4.25D-02 at cycle   1 NSaved=   1.
 NSaved= 1 IEnMin= 1 EnMin= -3547.72419796449     IErMin= 1 ErrMin= 4.25D-02
 ErrMax= 4.25D-02  0.00D+00 EMaxC= 1.00D-01 BMatC= 7.98D-01 BMatP= 7.98D-01
 IDIUse=3 WtCom= 5.75D-01 WtEn= 4.25D-01
 Coeff-Com:  0.100D+01
 Coeff-En:   0.100D+01
 Coeff:      0.100D+01
 Gap=     0.181 Goal=   None    Shift=    0.000
 GapD=    0.181 DampG=1.000 DampE=0.500 DampFc=0.5000 IDamp=-1.
 Damping current iteration by 5.00D-01
 RMSDP=1.42D-02 MaxDP=8.42D-01              OVMax= 9.80D-01

 Cycle   2  Pass 0  IDiag  1:
 RMSU=  7.08D-03    CP:  9.82D-01
 E= -3546.92458649245     Delta-E=        0.799611472036 Rises=F Damp=T
 DIIS: error= 2.99D-02 at cycle   2 NSaved=   2.
 NSaved= 2 IEnMin= 1 EnMin= -3547.72419796449     IErMin= 2 ErrMin= 2.99D-02
 ErrMax= 2.99D-02  0.00D+00 EMaxC= 1.00D-01 BMatC= 3.78D-01 BMatP= 7.98D-01
 IDIUse=3 WtCom= 7.01D-01 WtEn= 2.99D-01
 Coeff-Com:  0.355D+00 0.645D+00
 Coeff-En:   0.758D+00 0.242D+00
 Coeff:      0.475D+00 0.525D+00
 Gap=    -0.428 Goal=   None    Shift=    0.000
 RMSDP=7.16D-03 MaxDP=3.78D-01 DE= 8.00D-01 OVMax= 5.98D-01

 Cycle   3  Pass 0  IDiag  1:
 RMSU=  3.81D-03    CP:  9.61D-01  1.45D-01
 E= -3547.97113921530     Delta-E=       -1.046552722852 Rises=F Damp=F
 DIIS: error= 2.45D-02 at cycle   3 NSaved=   3.
 NSaved= 3 IEnMin= 3 EnMin= -3547.97113921530     IErMin= 3 ErrMin= 2.45D-02
 ErrMax= 2.45D-02  0.00D+00 EMaxC= 1.00D-01 BMatC= 4.36D-01 BMatP= 3.78D-01
 IDIUse=2 WtCom= 0.00D+00 WtEn= 1.00D+00
 EnCoef did     2 forward-backward iterations
 Coeff-En:   0.198D+00 0.158D+00 0.644D+00
 Coeff:      0.198D+00 0.158D+00 0.644D+00
 Gap=     0.542 Goal=   None    Shift=    0.000
 RMSDP=6.02D-03 MaxDP=3.36D-01 DE=-1.05D+00 OVMax= 9.92D-01

 Cycle   4  Pass 0  IDiag  1:
 RMSU=  4.77D-03    CP:  9.66D-01  4.68D-01  2.46D-01
 E= -3546.29175180297     Delta-E=        1.679387412332 Rises=F Damp=F
 DIIS: error= 6.77D-02 at cycle   4 NSaved=   4.
 NSaved= 4 IEnMin= 3 EnMin= -3547.97113921530     IErMin= 3 ErrMin= 2.45D-02
 ErrMax= 6.77D-02  0.00D+00 EMaxC= 1.00D-01 BMatC= 1.31D+00 BMatP= 3.78D-01
 IDIUse=2 WtCom= 0.00D+00 WtEn= 1.00D+00
 EnCoef did     2 forward-backward iterations
 Coeff-En:   0.857D-01 0.000D+00 0.700D+00 0.214D+00
 Coeff:      0.857D-01 0.000D+00 0.700D+00 0.214D+00
 Gap=    -0.060 Goal=   None    Shift=    0.000
 RMSDP=5.24D-03 MaxDP=3.02D-01 DE= 1.68D+00 OVMax= 9.13D-01

 Cycle   5  Pass 0  IDiag  1:
 RMSU=  2.23D-03    CP:  9.77D-01  1.42D-01  4.15D-01  1.46D-01
 E= -3548.31028169541     Delta-E=       -2.018529892435 Rises=F Damp=F
 DIIS: error= 1.27D-02 at cycle   5 NSaved=   5.
 NSaved= 5 IEnMin= 5 EnMin= -3548.31028169541     IErMin= 5 ErrMin= 1.27D-02
 ErrMax= 1.27D-02  0.00D+00 EMaxC= 1.00D-01 BMatC= 9.42D-02 BMatP= 3.78D-01
 IDIUse=3 WtCom= 8.73D-01 WtEn= 1.27D-01
 Coeff-Com:  0.681D-01 0.165D+00 0.337D+00 0.808D-01 0.349D+00
 Coeff-En:   0.000D+00 0.000D+00 0.790D-01 0.000D+00 0.921D+00
 Coeff:      0.594D-01 0.144D+00 0.304D+00 0.705D-01 0.422D+00
 Gap=     0.229 Goal=   None    Shift=    0.000
 RMSDP=1.47D-03 MaxDP=9.18D-02 DE=-2.02D+00 OVMax= 1.35D-01

 Cycle   6  Pass 0  IDiag  1:
 RMSU=  9.15D-04    CP:  9.69D-01  1.37D-01  5.95D-01  1.04D-01  6.01D-01
 E= -3548.36026082877     Delta-E=       -0.049979133368 Rises=F Damp=F
 DIIS: error= 7.51D-03 at cycle   6 NSaved=   6.
 NSaved= 6 IEnMin= 6 EnMin= -3548.36026082877     IErMin= 6 ErrMin= 7.51D-03
 ErrMax= 7.51D-03  0.00D+00 EMaxC= 1.00D-01 BMatC= 4.12D-02 BMatP= 9.42D-02
 IDIUse=3 WtCom= 9.25D-01 WtEn= 7.51D-02
 Coeff-Com: -0.515D-01 0.837D-01-0.166D-01 0.102D-01 0.315D+00 0.660D+00
 Coeff-En:   0.000D+00 0.000D+00 0.000D+00 0.000D+00 0.323D+00 0.677D+00
 Coeff:     -0.477D-01 0.774D-01-0.154D-01 0.947D-02 0.315D+00 0.661D+00
 Gap=     0.136 Goal=   None    Shift=    0.000
 RMSDP=7.40D-04 MaxDP=3.69D-02 DE=-5.00D-02 OVMax= 6.26D-02

 Cycle   7  Pass 0  IDiag  1:
 RMSU=  3.08D-04    CP:  9.70D-01  1.51D-01  5.20D-01  1.39D-01  8.52D-01
                    CP:  8.44D-01
 E= -3548.40135351041     Delta-E=       -0.041092681631 Rises=F Damp=F
 DIIS: error= 2.39D-03 at cycle   7 NSaved=   7.
 NSaved= 7 IEnMin= 7 EnMin= -3548.40135351041     IErMin= 7 ErrMin= 2.39D-03
 ErrMax= 2.39D-03  0.00D+00 EMaxC= 1.00D-01 BMatC= 3.23D-03 BMatP= 4.12D-02
 IDIUse=3 WtCom= 9.76D-01 WtEn= 2.39D-02
 Coeff-Com: -0.410D-01 0.494D-01-0.672D-01-0.425D-02 0.111D+00 0.332D+00
 Coeff-Com:  0.621D+00
 Coeff-En:   0.000D+00 0.000D+00 0.000D+00 0.000D+00 0.000D+00 0.000D+00
 Coeff-En:   0.100D+01
 Coeff:     -0.400D-01 0.483D-01-0.656D-01-0.414D-02 0.108D+00 0.324D+00
 Coeff:      0.630D+00
 Gap=     0.119 Goal=   None    Shift=    0.000
 RMSDP=2.34D-04 MaxDP=1.45D-02 DE=-4.11D-02 OVMax= 9.89D-03

 Cycle   8  Pass 0  IDiag  1:
 RMSU=  1.62D-04    CP:  9.71D-01  1.55D-01  5.04D-01  1.46D-01  9.09D-01
                    CP:  9.25D-01  9.25D-01
 E= -3548.40389751440     Delta-E=       -0.002544003997 Rises=F Damp=F
 DIIS: error= 1.14D-03 at cycle   8 NSaved=   8.
 NSaved= 8 IEnMin= 8 EnMin= -3548.40389751440     IErMin= 8 ErrMin= 1.14D-03
 ErrMax= 1.14D-03  0.00D+00 EMaxC= 1.00D-01 BMatC= 7.67D-04 BMatP= 3.23D-03
 IDIUse=3 WtCom= 9.89D-01 WtEn= 1.14D-02
 Coeff-Com: -0.146D-01 0.150D-01-0.362D-01-0.962D-03-0.888D-02 0.183D-02
 Coeff-Com:  0.214D+00 0.830D+00
 Coeff-En:   0.000D+00 0.000D+00 0.000D+00 0.000D+00 0.000D+00 0.000D+00
 Coeff-En:   0.000D+00 0.100D+01
 Coeff:     -0.144D-01 0.148D-01-0.357D-01-0.951D-03-0.878D-02 0.181D-02
 Coeff:      0.212D+00 0.832D+00
 Gap=     0.109 Goal=   None    Shift=    0.000
 RMSDP=1.40D-04 MaxDP=8.21D-03 DE=-2.54D-03 OVMax= 9.01D-03

 Cycle   9  Pass 0  IDiag  1:
 RMSU=  5.92D-05    CP:  9.72D-01  1.58D-01  4.94D-01  1.53D-01  9.54D-01
                    CP:  9.34D-01  1.09D+00  1.18D+00
 E= -3548.40467583452     Delta-E=       -0.000778320114 Rises=F Damp=F
 DIIS: error= 4.20D-04 at cycle   9 NSaved=   9.
 NSaved= 9 IEnMin= 9 EnMin= -3548.40467583452     IErMin= 9 ErrMin= 4.20D-04
 ErrMax= 4.20D-04  0.00D+00 EMaxC= 1.00D-01 BMatC= 1.22D-04 BMatP= 7.67D-04
 IDIUse=3 WtCom= 9.96D-01 WtEn= 4.20D-03
 Coeff-Com: -0.313D-02 0.439D-02-0.128D-01 0.183D-03-0.208D-01-0.477D-01
 Coeff-Com: -0.190D-02 0.452D+00 0.629D+00
 Coeff-En:   0.000D+00 0.000D+00 0.000D+00 0.000D+00 0.000D+00 0.000D+00
 Coeff-En:   0.000D+00 0.000D+00 0.100D+01
 Coeff:     -0.311D-02 0.437D-02-0.128D-01 0.182D-03-0.207D-01-0.475D-01
 Coeff:     -0.189D-02 0.450D+00 0.631D+00
 Gap=     0.107 Goal=   None    Shift=    0.000
 RMSDP=4.96D-05 MaxDP=3.26D-03 DE=-7.78D-04 OVMax= 2.55D-03

 Cycle  10  Pass 0  IDiag  1:
 RMSU=  2.10D-05    CP:  9.72D-01  1.59D-01  4.91D-01  1.54D-01  9.66D-01
                    CP:  9.47D-01  1.11D+00  1.34D+00  8.61D-01
 E= -3548.40478544748     Delta-E=       -0.000109612962 Rises=F Damp=F
 DIIS: error= 1.67D-04 at cycle  10 NSaved=  10.
 NSaved=10 IEnMin=10 EnMin= -3548.40478544748     IErMin=10 ErrMin= 1.67D-04
 ErrMax= 1.67D-04  0.00D+00 EMaxC= 1.00D-01 BMatC= 1.14D-05 BMatP= 1.22D-04
 IDIUse=3 WtCom= 9.98D-01 WtEn= 1.67D-03
 Coeff-Com:  0.683D-05-0.484D-03-0.206D-02 0.579D-03-0.532D-02-0.149D-01
 Coeff-Com: -0.348D-01 0.362D-01 0.228D+00 0.793D+00
 Coeff-En:   0.000D+00 0.000D+00 0.000D+00 0.000D+00 0.000D+00 0.000D+00
 Coeff-En:   0.000D+00 0.000D+00 0.000D+00 0.100D+01
 Coeff:      0.682D-05-0.483D-03-0.205D-02 0.578D-03-0.531D-02-0.149D-01
 Coeff:     -0.348D-01 0.362D-01 0.227D+00 0.793D+00
 Gap=     0.106 Goal=   None    Shift=    0.000
 RMSDP=2.58D-05 MaxDP=1.24D-03 DE=-1.10D-04 OVMax= 1.70D-03

 Cycle  11  Pass 0  IDiag  1:
 RMSU=  1.08D-05    CP:  9.72D-01  1.60D-01  4.89D-01  1.55D-01  9.73D-01
                    CP:  9.51D-01  1.14D+00  1.39D+00  9.58D-01  1.01D+00
 E= -3548.40479907774     Delta-E=       -0.000013630259 Rises=F Damp=F
 DIIS: error= 3.91D-05 at cycle  11 NSaved=  11.
 NSaved=11 IEnMin=11 EnMin= -3548.40479907774     IErMin=11 ErrMin= 3.91D-05
 ErrMax= 3.91D-05  0.00D+00 EMaxC= 1.00D-01 BMatC= 7.81D-07 BMatP= 1.14D-05
 IDIUse=1 WtCom= 1.00D+00 WtEn= 0.00D+00
 Coeff-Com:  0.185D-03-0.267D-03-0.250D-03 0.142D-03-0.123D-02-0.368D-02
 Coeff-Com: -0.152D-01-0.920D-02 0.669D-01 0.379D+00 0.584D+00
 Coeff:      0.185D-03-0.267D-03-0.250D-03 0.142D-03-0.123D-02-0.368D-02
 Coeff:     -0.152D-01-0.920D-02 0.669D-01 0.379D+00 0.584D+00
 Gap=     0.106 Goal=   None    Shift=    0.000
 RMSDP=3.76D-06 MaxDP=1.37D-04 DE=-1.36D-05 OVMax= 3.11D-04

 Initial convergence to 1.0D-05 achieved.  Increase integral accuracy.
 Cycle  12  Pass 1  IDiag  1:
 E= -3548.40476645501     Delta-E=        0.000032622728 Rises=F Damp=F
 DIIS: error= 8.68D-05 at cycle   1 NSaved=   1.
 NSaved= 1 IEnMin= 1 EnMin= -3548.40476645501     IErMin= 1 ErrMin= 8.68D-05
 ErrMax= 8.68D-05  0.00D+00 EMaxC= 1.00D-01 BMatC= 2.05D-06 BMatP= 2.05D-06
 IDIUse=1 WtCom= 1.00D+00 WtEn= 0.00D+00
 Coeff-Com:  0.100D+01
 Coeff:      0.100D+01
 Gap=     0.106 Goal=   None    Shift=    0.000
 RMSDP=3.76D-06 MaxDP=1.37D-04 DE= 3.26D-05 OVMax= 2.45D-04

 Cycle  13  Pass 1  IDiag  1:
 RMSU=  7.18D-05    CP:  1.00D+00
 E= -3548.40476832673     Delta-E=       -0.000001871719 Rises=F Damp=F
 DIIS: error= 2.23D-05 at cycle   2 NSaved=   2.
 NSaved= 2 IEnMin= 2 EnMin= -3548.40476832673     IErMin= 2 ErrMin= 2.23D-05
 ErrMax= 2.23D-05  0.00D+00 EMaxC= 1.00D-01 BMatC= 3.51D-07 BMatP= 2.05D-06
 IDIUse=1 WtCom= 1.00D+00 WtEn= 0.00D+00
 Coeff-Com:  0.192D+00 0.808D+00
 Coeff:      0.192D+00 0.808D+00
 Gap=     0.106 Goal=   None    Shift=    0.000
 RMSDP=3.82D-06 MaxDP=2.35D-04 DE=-1.87D-06 OVMax= 2.96D-04

 Cycle  14  Pass 1  IDiag  1:
 RMSU=  3.69D-06    CP:  1.00D+00  1.01D+00
 E= -3548.40476814039     Delta-E=        0.000000186340 Rises=F Damp=F
 DIIS: error= 2.72D-05 at cycle   3 NSaved=   3.
 NSaved= 3 IEnMin= 2 EnMin= -3548.40476832673     IErMin= 2 ErrMin= 2.23D-05
 ErrMax= 2.72D-05  0.00D+00 EMaxC= 1.00D-01 BMatC= 5.95D-07 BMatP= 3.51D-07
 IDIUse=1 WtCom= 1.00D+00 WtEn= 0.00D+00
 Coeff-Com: -0.157D-03 0.567D+00 0.434D+00
 Coeff:     -0.157D-03 0.567D+00 0.434D+00
 Gap=     0.106 Goal=   None    Shift=    0.000
 RMSDP=1.98D-06 MaxDP=1.45D-04 DE= 1.86D-07 OVMax= 1.93D-04

 Cycle  15  Pass 1  IDiag  1:
 RMSU=  7.87D-07    CP:  1.00D+00  1.02D+00  5.16D-01
 E= -3548.40476860030     Delta-E=       -0.000000459907 Rises=F Damp=F
 DIIS: error= 3.55D-06 at cycle   4 NSaved=   4.
 NSaved= 4 IEnMin= 4 EnMin= -3548.40476860030     IErMin= 4 ErrMin= 3.55D-06
 ErrMax= 3.55D-06  0.00D+00 EMaxC= 1.00D-01 BMatC= 1.20D-08 BMatP= 3.51D-07
 IDIUse=1 WtCom= 1.00D+00 WtEn= 0.00D+00
 Coeff-Com: -0.474D-02 0.320D+00 0.261D+00 0.425D+00
 Coeff:     -0.474D-02 0.320D+00 0.261D+00 0.425D+00
 Gap=     0.106 Goal=   None    Shift=    0.000
 RMSDP=4.06D-07 MaxDP=2.72D-05 DE=-4.60D-07 OVMax= 2.12D-05

 Cycle  16  Pass 1  IDiag  1:
 RMSU=  2.13D-07    CP:  1.00D+00  1.02D+00  4.97D-01  5.77D-01
 E= -3548.40476861015     Delta-E=       -0.000000009857 Rises=F Damp=F
 DIIS: error= 7.57D-07 at cycle   5 NSaved=   5.
 NSaved= 5 IEnMin= 5 EnMin= -3548.40476861015     IErMin= 5 ErrMin= 7.57D-07
 ErrMax= 7.57D-07  0.00D+00 EMaxC= 1.00D-01 BMatC= 3.07D-10 BMatP= 1.20D-08
 IDIUse=1 WtCom= 1.00D+00 WtEn= 0.00D+00
 Coeff-Com: -0.262D-02 0.155D+00 0.127D+00 0.228D+00 0.493D+00
 Coeff:     -0.262D-02 0.155D+00 0.127D+00 0.228D+00 0.493D+00
 Gap=     0.106 Goal=   None    Shift=    0.000
 RMSDP=6.26D-08 MaxDP=3.60D-06 DE=-9.86D-09 OVMax= 4.51D-06

 Cycle  17  Pass 1  IDiag  1:
 RMSU=  6.19D-08    CP:  1.00D+00  1.02D+00  4.96D-01  5.83D-01  9.86D-01
 E= -3548.40476861040     Delta-E=       -0.000000000249 Rises=F Damp=F
 DIIS: error= 2.40D-07 at cycle   6 NSaved=   6.
 NSaved= 6 IEnMin= 6 EnMin= -3548.40476861040     IErMin= 6 ErrMin= 2.40D-07
 ErrMax= 2.40D-07  0.00D+00 EMaxC= 1.00D-01 BMatC= 2.63D-11 BMatP= 3.07D-10
 IDIUse=1 WtCom= 1.00D+00 WtEn= 0.00D+00
 Coeff-Com: -0.651D-03 0.335D-01 0.274D-01 0.507D-01 0.241D+00 0.648D+00
 Coeff:     -0.651D-03 0.335D-01 0.274D-01 0.507D-01 0.241D+00 0.648D+00
 Gap=     0.106 Goal=   None    Shift=    0.000
 RMSDP=2.83D-08 MaxDP=9.86D-07 DE=-2.49D-10 OVMax= 3.72D-06

 Cycle  18  Pass 1  IDiag  1:
 RMSU=  2.19D-08    CP:  1.00D+00  1.02D+00  4.96D-01  5.85D-01  1.06D+00
                    CP:  9.01D-01
 E= -3548.40476861041     Delta-E=       -0.000000000013 Rises=F Damp=F
 DIIS: error= 1.21D-07 at cycle   7 NSaved=   7.
 NSaved= 7 IEnMin= 7 EnMin= -3548.40476861041     IErMin= 7 ErrMin= 1.21D-07
 ErrMax= 1.21D-07  0.00D+00 EMaxC= 1.00D-01 BMatC= 6.95D-12 BMatP= 2.63D-11
 IDIUse=1 WtCom= 1.00D+00 WtEn= 0.00D+00
 Coeff-Com:  0.115D-04-0.372D-02-0.319D-02-0.600D-02 0.682D-01 0.394D+00
 Coeff-Com:  0.550D+00
 Coeff:      0.115D-04-0.372D-02-0.319D-02-0.600D-02 0.682D-01 0.394D+00
 Coeff:      0.550D+00
 Gap=     0.106 Goal=   None    Shift=    0.000
 RMSDP=1.27D-08 MaxDP=4.83D-07 DE=-1.27D-11 OVMax= 1.98D-06

 Cycle  19  Pass 1  IDiag  1:
 RMSU=  9.43D-09    CP:  1.00D+00  1.02D+00  4.96D-01  5.90D-01  1.08D+00
                    CP:  9.89D-01  8.71D-01
 E= -3548.40476861044     Delta-E=       -0.000000000028 Rises=F Damp=F
 DIIS: error= 4.70D-08 at cycle   8 NSaved=   8.
 NSaved= 8 IEnMin= 8 EnMin= -3548.40476861044     IErMin= 8 ErrMin= 4.70D-08
 ErrMax= 4.70D-08  0.00D+00 EMaxC= 1.00D-01 BMatC= 7.45D-13 BMatP= 6.95D-12
 IDIUse=1 WtCom= 1.00D+00 WtEn= 0.00D+00
 Coeff-Com:  0.986D-04-0.688D-02-0.569D-02-0.108D-01 0.561D-02 0.132D+00
 Coeff-Com:  0.308D+00 0.578D+00
 Coeff:      0.986D-04-0.688D-02-0.569D-02-0.108D-01 0.561D-02 0.132D+00
 Coeff:      0.308D+00 0.578D+00
 Gap=     0.106 Goal=   None    Shift=    0.000
 RMSDP=4.57D-09 MaxDP=1.61D-07 DE=-2.82D-11 OVMax= 8.18D-07

 SCF Done:  E(RPBE1PBE) =  -3548.40476861     A.U. after   19 cycles
            NFock= 19  Conv=0.46D-08     -V/T= 2.0022
 KE= 3.540674367943D+03 PE=-1.309253046943D+04 EE= 3.682565514374D+03
 Leave Link  502 at Mon Mar  6 10:32:18 2023, MaxMem=  1048576000 cpu:             608.8 elap:             613.2
 (Enter /ssoft/spack/external/gaussian/g16-C.01/avx2/g16/l801.exe)
 DoSCS=F DFT=T ScalE2(SS,OS)=  1.000000  1.000000
 Range of M.O.s used for correlation:     1   421
 NBasis=   421 NAE=    95 NBE=    95 NFC=     0 NFV=     0
 NROrb=    421 NOA=    95 NOB=    95 NVA=   326 NVB=   326
 Leave Link  801 at Mon Mar  6 10:32:18 2023, MaxMem=  1048576000 cpu:               0.0 elap:               0.0
 (Enter /ssoft/spack/external/gaussian/g16-C.01/avx2/g16/l1101.exe)
 Using compressed storage, NAtomX=    41.
 Will process     42 centers per pass.
   1 Symmetry operations used in ECPInt.
 ECPInt:  NShTT=   19110 NPrTT=   71623 LenC2=   17512 LenP2D=   45444.
 LDataN:  DoStor=T MaxTD1= 5 Len=  102
 R6Disp: Adding Grimme-D3(BJ) dispersion energy 1st derivatives to the gradient.
 Leave Link 1101 at Mon Mar  6 10:32:19 2023, MaxMem=  1048576000 cpu:               0.7 elap:               0.8
 (Enter /ssoft/spack/external/gaussian/g16-C.01/avx2/g16/l1102.exe)
 Symmetrizing basis deriv contribution to polar:
 IMax=3 JMax=2 DiffMx= 0.00D+00
 Leave Link 1102 at Mon Mar  6 10:32:19 2023, MaxMem=  1048576000 cpu:               0.1 elap:               0.1
 (Enter /ssoft/spack/external/gaussian/g16-C.01/avx2/g16/l1110.exe)
 Forming Gx(P) for the SCF density, NAtomX=    41.
 Integral derivatives from FoFJK, PRISM(SPDF).
 Do as many integral derivatives as possible in FoFJK.
 G2DrvN: MDV=    1048571641.
 G2DrvN: will do    42 centers at a time, making    1 passes.
 Calling FoFCou, ICntrl=  3107 FMM=F I1Cent=   0 AccDes= 0.00D+00.
 FoFJK:  IHMeth= 1 ICntrl=    3107 DoSepK=F KAlg= 0 I1Cent=           0 FoldK=F
 IRaf=         0 NMat=       1 IRICut=       1 DoRegI=T DoRafI=F ISym2E= 0 IDoP0=0 IntGTp=1.
 FoFCou: FMM=F IPFlag=           0 FMFlag=      100000 FMFlg1=           0
         NFxFlg=           0 DoJE=F BraDBF=F KetDBF=F FulRan=T
         wScrn=  0.000000 ICntrl=      3107 IOpCl=  0 I1Cent=           0 NGrid=           0
         NMat0=    1 NMatS0=      1 NMatT0=    0 NMatD0=    1 NMtDS0=    0 NMtDT0=    0
 Symmetry not used in FoFCou.
 End of G2Drv F.D. properties file   721 does not exist.
 End of G2Drv F.D. properties file   722 does not exist.
 End of G2Drv F.D. properties file   788 does not exist.
 Leave Link 1110 at Mon Mar  6 10:53:51 2023, MaxMem=  1048576000 cpu:            1287.3 elap:            1292.0
 (Enter /ssoft/spack/external/gaussian/g16-C.01/avx2/g16/l1002.exe)
 Minotr:  Closed shell wavefunction.
          IDoAtm=11111111111111111111111111111111111111111
          Direct CPHF calculation.
          Differentiating once with respect to electric field.
                with respect to dipole field.
          Differentiating once with respect to nuclear coordinates.
          Requested convergence is 1.0D-08 RMS, and 1.0D-07 maximum.
          Secondary convergence is 1.0D-12 RMS, and 1.0D-12 maximum.
          NewPWx=T KeepS1=F KeepF1=F KeepIn=T MapXYZ=F SortEE=F KeepMc=T.
        12373 words used for storage of precomputed grid.
 Two-electron integrals replicated using symmetry.
          MDV=    1048576000 using IRadAn=       1.
          Solving linear equations simultaneously, MaxMat=     384.
 FoF2E skips out because all densities are zero.
 CalDSu exits because no D1Ps are significant.
 FoFJK:  IHMeth= 1 ICntrl=       0 DoSepK=F KAlg= 0 I1Cent=           0 FoldK=F
 IRaf= 840000000 NMat=     123 IRICut=     307 DoRegI=T DoRafI=T ISym2E= 2 IDoP0=3 IntGTp=3.
 FoFCou: FMM=F IPFlag=           0 FMFlag=      100000 FMFlg1=           0
         NFxFlg=           0 DoJE=F BraDBF=F KetDBF=F FulRan=T
         wScrn=  0.000000 ICntrl=         0 IOpCl=  0 I1Cent=           0 NGrid=           0
         NMat0=  123 NMatS0=    123 NMatT0=    0 NMatD0=  123 NMtDS0=    0 NMtDT0=    0
 Integrals replicated using symmetry in FoFCou.
 Raff kept on since  80.46% of shell-pairs survive, threshold=   0.20 IRatSp=80.
          There are   126 degrees of freedom in the 1st order CPHF.  IDoFFX=6 NUNeed=     3.
    123 vectors produced by pass  0 Test12= 3.10D-14 1.00D-09 XBig12= 1.71D+02 6.35D+00.
 AX will form   123 AO Fock derivatives at one time.
    123 vectors produced by pass  1 Test12= 3.10D-14 1.00D-09 XBig12= 4.16D+01 1.08D+00.
    123 vectors produced by pass  2 Test12= 3.10D-14 1.00D-09 XBig12= 3.21D-01 1.04D-01.
    123 vectors produced by pass  3 Test12= 3.10D-14 1.00D-09 XBig12= 5.80D-03 1.38D-02.
    123 vectors produced by pass  4 Test12= 3.10D-14 1.00D-09 XBig12= 2.23D-05 5.82D-04.
    110 vectors produced by pass  5 Test12= 3.10D-14 1.00D-09 XBig12= 3.57D-08 2.60D-05.
     32 vectors produced by pass  6 Test12= 3.10D-14 1.00D-09 XBig12= 4.38D-11 5.10D-07.
      3 vectors produced by pass  7 Test12= 3.10D-14 1.00D-09 XBig12= 5.43D-14 2.37D-08.
      1 vectors produced by pass  8 Test12= 3.10D-14 1.00D-09 XBig12= 2.76D-16 1.17D-09.
 InvSVY:  IOpt=1 It=  1 EMax= 5.33D-15
 Solved reduced A of dimension   761 with   126 vectors.
 FullF1:  Do perturbations      1 to       3.
 Isotropic polarizability for W=    0.000000      185.32 Bohr**3.
 End of Minotr F.D. properties file   721 does not exist.
 End of Minotr F.D. properties file   722 does not exist.
 End of Minotr F.D. properties file   788 does not exist.
 Leave Link 1002 at Mon Mar  6 11:40:02 2023, MaxMem=  1048576000 cpu:            2761.7 elap:            2771.5
 (Enter /ssoft/spack/external/gaussian/g16-C.01/avx2/g16/l601.exe)
 Copying SCF densities to generalized density rwf, IOpCl= 0 IROHF=0.

 **********************************************************************

            Population analysis using the SCF Density.

 **********************************************************************

 Orbital symmetries:
       Occupied  (A) (A) (A) (A) (A) (A) (A) (A) (A) (A) (A) (A)
                 (A) (A) (A) (A) (A) (A) (A) (A) (A) (A) (A) (A)
                 (A) (A) (A) (A) (A) (A) (A) (A) (A) (A) (A) (A)
                 (A) (A) (A) (A) (A) (A) (A) (A) (A) (A) (A) (A)
                 (A) (A) (A) (A) (A) (A) (A) (A) (A) (A) (A) (A)
                 (A) (A) (A) (A) (A) (A) (A) (A) (A) (A) (A) (A)
                 (A) (A) (A) (A) (A) (A) (A) (A) (A) (A) (A) (A)
                 (A) (A) (A) (A) (A) (A) (A) (A) (A) (A) (A)
       Virtual   (A) (A) (A) (A) (A) (A) (A) (A) (A) (A) (A) (A)
                 (A) (A) (A) (A) (A) (A) (A) (A) (A) (A) (A) (A)
                 (A) (A) (A) (A) (A) (A) (A) (A) (A) (A) (A) (A)
                 (A) (A) (A) (A) (A) (A) (A) (A) (A) (A) (A) (A)
                 (A) (A) (A) (A) (A) (A) (A) (A) (A) (A) (A) (A)
                 (A) (A) (A) (A) (A) (A) (A) (A) (A) (A) (A) (A)
                 (A) (A) (A) (A) (A) (A) (A) (A) (A) (A) (A) (A)
                 (A) (A) (A) (A) (A) (A) (A) (A) (A) (A) (A) (A)
                 (A) (A) (A) (A) (A) (A) (A) (A) (A) (A) (A) (A)
                 (A) (A) (A) (A) (A) (A) (A) (A) (A) (A) (A) (A)
                 (A) (A) (A) (A) (A) (A) (A) (A) (A) (A) (A) (A)
                 (A) (A) (A) (A) (A) (A) (A) (A) (A) (A) (A) (A)
                 (A) (A) (A) (A) (A) (A) (A) (A) (A) (A) (A) (A)
                 (A) (A) (A) (A) (A) (A) (A) (A) (A) (A) (A) (A)
                 (A) (A) (A) (A) (A) (A) (A) (A) (A) (A) (A) (A)
                 (A) (A) (A) (A) (A) (A) (A) (A) (A) (A) (A) (A)
                 (A) (A) (A) (A) (A) (A) (A) (A) (A) (A) (A) (A)
                 (A) (A) (A) (A) (A) (A) (A) (A) (A) (A) (A) (A)
                 (A) (A) (A) (A) (A) (A) (A) (A) (A) (A) (A) (A)
                 (A) (A) (A) (A) (A) (A) (A) (A) (A) (A) (A) (A)
                 (A) (A) (A) (A) (A) (A) (A) (A) (A) (A) (A) (A)
                 (A) (A) (A) (A) (A) (A) (A) (A) (A) (A) (A) (A)
                 (A) (A) (A) (A) (A) (A) (A) (A) (A) (A) (A) (A)
                 (A) (A) (A) (A) (A) (A) (A) (A) (A) (A) (A) (A)
                 (A) (A) (A) (A) (A) (A) (A) (A) (A) (A) (A) (A)
                 (A) (A) (A) (A) (A) (A) (A) (A) (A) (A) (A) (A)
                 (A) (A) (A) (A) (A) (A) (A) (A) (A) (A) (A) (A)
                 (A) (A)
 The electronic state is 1-A.
 Alpha  occ. eigenvalues -- -483.09724 -62.53099 -56.32079 -56.31746 -56.31742
 Alpha  occ. eigenvalues --  -19.15872 -19.09757 -18.92906 -18.91667 -14.22823
 Alpha  occ. eigenvalues --  -10.25635 -10.21800 -10.18114 -10.14673 -10.13351
 Alpha  occ. eigenvalues --  -10.12854 -10.12484 -10.12314 -10.12092 -10.12048
 Alpha  occ. eigenvalues --  -10.11782 -10.11655 -10.11052 -10.09247 -10.08608
 Alpha  occ. eigenvalues --  -10.07633  -8.67709  -6.49147  -6.47922  -6.47914
 Alpha  occ. eigenvalues --   -2.57711  -2.57352  -2.57346  -2.56362  -2.56361
 Alpha  occ. eigenvalues --   -1.02592  -0.93702  -0.83174  -0.80871  -0.79126
 Alpha  occ. eigenvalues --   -0.77576  -0.72732  -0.72003  -0.68567  -0.67842
 Alpha  occ. eigenvalues --   -0.67011  -0.66703  -0.65938  -0.61967  -0.57387
 Alpha  occ. eigenvalues --   -0.55011  -0.53202  -0.50164  -0.48793  -0.46184
 Alpha  occ. eigenvalues --   -0.44227  -0.42695  -0.42064  -0.41535  -0.40322
 Alpha  occ. eigenvalues --   -0.39835  -0.39034  -0.38311  -0.37452  -0.36458
 Alpha  occ. eigenvalues --   -0.35526  -0.35412  -0.35099  -0.33659  -0.33141
 Alpha  occ. eigenvalues --   -0.32001  -0.31308  -0.29979  -0.29078  -0.29009
 Alpha  occ. eigenvalues --   -0.28617  -0.27784  -0.27140  -0.25895  -0.24840
 Alpha  occ. eigenvalues --   -0.24190  -0.24029  -0.22559  -0.22097  -0.21900
 Alpha  occ. eigenvalues --   -0.20623  -0.18630  -0.18514  -0.17318  -0.16484
 Alpha  occ. eigenvalues --   -0.14499  -0.10408  -0.03939  -0.03673  -0.01215
 Alpha virt. eigenvalues --    0.09361   0.09718   0.11780   0.12284   0.14481
 Alpha virt. eigenvalues --    0.17289   0.18530   0.19798   0.21012   0.21682
 Alpha virt. eigenvalues --    0.22495   0.23095   0.23484   0.24007   0.24460
 Alpha virt. eigenvalues --    0.25318   0.25498   0.25938   0.26639   0.27440
 Alpha virt. eigenvalues --    0.28026   0.28241   0.28427   0.29756   0.30159
 Alpha virt. eigenvalues --    0.31117   0.31434   0.32177   0.32237   0.33751
 Alpha virt. eigenvalues --    0.34267   0.35065   0.36071   0.38708   0.39511
 Alpha virt. eigenvalues --    0.40668   0.41921   0.42848   0.43164   0.43896
 Alpha virt. eigenvalues --    0.45198   0.45689   0.46708   0.46891   0.47552
 Alpha virt. eigenvalues --    0.50583   0.51443   0.52529   0.53341   0.53380
 Alpha virt. eigenvalues --    0.54199   0.56646   0.57109   0.58176   0.58520
 Alpha virt. eigenvalues --    0.59057   0.59598   0.60697   0.61006   0.61475
 Alpha virt. eigenvalues --    0.62319   0.63137   0.63310   0.63812   0.64878
 Alpha virt. eigenvalues --    0.65023   0.65443   0.66803   0.67233   0.69065
 Alpha virt. eigenvalues --    0.69905   0.71505   0.72274   0.72437   0.73977
 Alpha virt. eigenvalues --    0.74447   0.75171   0.75946   0.75984   0.76744
 Alpha virt. eigenvalues --    0.77374   0.77779   0.78558   0.78789   0.79443
 Alpha virt. eigenvalues --    0.80163   0.80378   0.80794   0.81151   0.81919
 Alpha virt. eigenvalues --    0.82025   0.83046   0.83170   0.83515   0.83631
 Alpha virt. eigenvalues --    0.84456   0.84720   0.84801   0.85174   0.85291
 Alpha virt. eigenvalues --    0.85717   0.86462   0.86871   0.87344   0.87735
 Alpha virt. eigenvalues --    0.88461   0.89072   0.89502   0.90753   0.90795
 Alpha virt. eigenvalues --    0.91735   0.91970   0.92123   0.93126   0.93528
 Alpha virt. eigenvalues --    0.94234   0.96417   0.97763   0.99389   1.00002
 Alpha virt. eigenvalues --    1.01046   1.01711   1.03302   1.05492   1.07366
 Alpha virt. eigenvalues --    1.08530   1.09747   1.10088   1.12765   1.13932
 Alpha virt. eigenvalues --    1.15617   1.16487   1.17136   1.18041   1.19861
 Alpha virt. eigenvalues --    1.20059   1.21516   1.22816   1.24548   1.26534
 Alpha virt. eigenvalues --    1.27921   1.28808   1.30674   1.32034   1.32951
 Alpha virt. eigenvalues --    1.35570   1.36232   1.36756   1.37260   1.38125
 Alpha virt. eigenvalues --    1.39037   1.39992   1.40168   1.41694   1.42757
 Alpha virt. eigenvalues --    1.44694   1.45682   1.48089   1.49832   1.52329
 Alpha virt. eigenvalues --    1.54282   1.56013   1.57396   1.58124   1.59829
 Alpha virt. eigenvalues --    1.60216   1.61893   1.63257   1.66920   1.67826
 Alpha virt. eigenvalues --    1.69890   1.70842   1.71406   1.71630   1.71889
 Alpha virt. eigenvalues --    1.73297   1.76367   1.77633   1.78943   1.80695
 Alpha virt. eigenvalues --    1.81205   1.82507   1.83104   1.84039   1.85002
 Alpha virt. eigenvalues --    1.85579   1.87217   1.88240   1.88943   1.89362
 Alpha virt. eigenvalues --    1.90180   1.90775   1.91162   1.94180   1.94857
 Alpha virt. eigenvalues --    1.97074   1.98108   1.99061   1.99834   2.00392
 Alpha virt. eigenvalues --    2.01057   2.02062   2.02371   2.02950   2.03818
 Alpha virt. eigenvalues --    2.04164   2.04337   2.05521   2.06077   2.07163
 Alpha virt. eigenvalues --    2.08956   2.09542   2.11035   2.12924   2.14203
 Alpha virt. eigenvalues --    2.14907   2.15280   2.16139   2.18307   2.18966
 Alpha virt. eigenvalues --    2.20275   2.20686   2.21648   2.23513   2.24243
 Alpha virt. eigenvalues --    2.24829   2.25408   2.26953   2.28583   2.31389
 Alpha virt. eigenvalues --    2.31736   2.32398   2.34330   2.35150   2.35487
 Alpha virt. eigenvalues --    2.36981   2.38675   2.39713   2.40796   2.41368
 Alpha virt. eigenvalues --    2.42916   2.44073   2.44942   2.45099   2.46497
 Alpha virt. eigenvalues --    2.48910   2.50006   2.51005   2.55297   2.55693
 Alpha virt. eigenvalues --    2.57923   2.58266   2.60116   2.60873   2.62678
 Alpha virt. eigenvalues --    2.63840   2.64376   2.65509   2.66429   2.70925
 Alpha virt. eigenvalues --    2.71545   2.72954   2.74668   2.75686   2.77135
 Alpha virt. eigenvalues --    2.77602   2.79278   2.80505   2.83097   2.83645
 Alpha virt. eigenvalues --    2.85723   2.87075   2.89792   2.91711   2.93724
 Alpha virt. eigenvalues --    2.94575   2.95696   2.96407   2.98080   2.98682
 Alpha virt. eigenvalues --    2.99585   3.02054   3.03682   3.04014   3.05049
 Alpha virt. eigenvalues --    3.07510   3.12465   3.13975   3.15256   3.19945
 Alpha virt. eigenvalues --    3.20890   3.21262   3.21568   3.23950   3.24499
 Alpha virt. eigenvalues --    3.25620   3.26821   3.29003   3.30275   3.30515
 Alpha virt. eigenvalues --    3.31919   3.33922   3.35361   3.35540   3.36629
 Alpha virt. eigenvalues --    3.40266   3.40763   3.41180   3.42173   3.44281
 Alpha virt. eigenvalues --    3.46320   3.50300   3.55046   3.57249   3.58697
 Alpha virt. eigenvalues --    3.60930   3.63458   3.65386   3.66457   3.75834
 Alpha virt. eigenvalues --    3.77007   3.82661   3.88492   3.89284   3.95031
 Alpha virt. eigenvalues --    3.95851
     Molecular Orbital Coefficients:
                          91        92        93        94        95
                           O         O         O         O         O
     Eigenvalues --    -0.14499  -0.10408  -0.03939  -0.03673  -0.01215
   1 1   Br 1S         -0.00026  -0.00016  -0.00001   0.00000  -0.00003
   2        2S          0.00070   0.00044   0.00003   0.00000   0.00007
   3        3S         -0.00369  -0.00221  -0.00016   0.00006  -0.00041
   4        4S          0.00849   0.00320   0.00073  -0.00183   0.00131
   5        5S         -0.00720  -0.00005  -0.00542   0.00585  -0.00149
   6        6PX         0.01641   0.00040   0.00016   0.00022  -0.00050
   7        6PY         0.05174   0.00505   0.00065   0.00061  -0.00103
   8        6PZ         0.00504   0.00061  -0.00003   0.00013  -0.00016
   9        7PX        -0.05060  -0.00126  -0.00050  -0.00069   0.00157
  10        7PY        -0.15959  -0.01558  -0.00200  -0.00188   0.00317
  11        7PZ        -0.01554  -0.00187   0.00011  -0.00040   0.00049
  12        8PX         0.07669   0.00224   0.00082   0.00159  -0.00257
  13        8PY         0.24258   0.02363   0.00302   0.00267  -0.00474
  14        8PZ         0.02366   0.00279  -0.00014   0.00041  -0.00068
  15        9PX         0.10017   0.00290   0.00446  -0.00249  -0.00268
  16        9PY         0.30319   0.03225   0.00392   0.00606  -0.00852
  17        9PZ         0.02913   0.00457  -0.00211   0.00283  -0.00118
  18       10D 0        0.00052   0.00020   0.00004   0.00007  -0.00001
  19       10D+1        0.00016   0.00004   0.00006   0.00000   0.00004
  20       10D-1        0.00320   0.00037   0.00002   0.00033  -0.00035
  21       10D+2       -0.00710  -0.00107  -0.00031  -0.00019   0.00060
  22       10D-2       -0.00899  -0.00162  -0.00039  -0.00038   0.00075
  23       11D 0       -0.00012  -0.00005  -0.00002   0.00002  -0.00002
  24       11D+1       -0.00001   0.00007  -0.00014   0.00013   0.00001
  25       11D-1        0.00008  -0.00004   0.00002   0.00001  -0.00002
  26       11D+2       -0.00005  -0.00002   0.00006  -0.00010   0.00003
  27       11D-2       -0.00012   0.00002  -0.00003   0.00012  -0.00004
  28       12D 0       -0.00035  -0.00018   0.00007  -0.00027   0.00014
  29       12D+1       -0.00036  -0.00055   0.00069  -0.00071  -0.00018
  30       12D-1       -0.00598  -0.00045  -0.00018  -0.00072   0.00086
  31       12D+2        0.01290   0.00219   0.00020   0.00087  -0.00138
  32       12D-2        0.01627   0.00293   0.00103   0.00019  -0.00140
  33 2   N  1S         -0.01064  -0.06826  -0.01892  -0.00630  -0.03150
  34        2S         -0.02155  -0.14795  -0.02936  -0.00615  -0.07457
  35        3S         -0.06818  -0.18453  -0.16903  -0.08305  -0.09599
  36        4PX        -0.02070   0.48931   0.09339   0.02078   0.09174
  37        4PY        -0.11191   0.08629   0.02915   0.00854   0.04743
  38        4PZ        -0.01989   0.14318  -0.02136  -0.00288  -0.01434
  39        5PX         0.02458  -0.36436  -0.08529  -0.02058  -0.03168
  40        5PY         0.08169  -0.07611  -0.05081  -0.00094  -0.03947
  41        5PZ         0.01705  -0.14419   0.03948   0.02162  -0.00774
  42        6D 0        0.00225  -0.00829   0.00130  -0.00049  -0.00372
  43        6D+1       -0.00143   0.00417  -0.00510  -0.00005  -0.00222
  44        6D-1       -0.00014   0.00099   0.00002   0.00005   0.00047
  45        6D+2        0.00267   0.01408   0.00047  -0.00042   0.00456
  46        6D-2       -0.00404   0.00526   0.00328   0.00158   0.00350
  47 3   H  1S          0.03250   0.07874   0.05501   0.00044   0.02982
  48        2S          0.02963   0.01792   0.03235   0.00766   0.05224
  49        3PX         0.00195  -0.02133  -0.00222  -0.00101  -0.00621
  50        3PY         0.00344  -0.00872  -0.00253  -0.00120  -0.00439
  51        3PZ        -0.00036  -0.01341  -0.00075  -0.00015  -0.00234
  52 4   O  1S         -0.00474   0.01101   0.00002   0.00043  -0.00358
  53        2S         -0.01105   0.02051   0.00214   0.00322  -0.00760
  54        3S         -0.00477   0.05917  -0.05046  -0.02005  -0.04745
  55        4PX        -0.00613  -0.02257   0.31052  -0.01991  -0.14968
  56        4PY         0.03661  -0.00566   0.03477   0.42221  -0.24837
  57        4PZ         0.02654   0.01399  -0.16086   0.18407   0.44415
  58        5PX        -0.00631  -0.02031   0.24324  -0.01100  -0.10371
  59        5PY         0.02152   0.00410   0.01690   0.33971  -0.18170
  60        5PZ         0.01805  -0.01103  -0.10636   0.15142   0.32806
  61        6D 0       -0.00113  -0.00238   0.00595  -0.00380  -0.00850
  62        6D+1       -0.00102   0.00095  -0.00047  -0.00581  -0.00820
  63        6D-1       -0.00139   0.00159  -0.00064  -0.00548   0.00336
  64        6D+2       -0.00037   0.00148  -0.00656   0.00055   0.00525
  65        6D-2       -0.00213  -0.00031   0.00106  -0.01278   0.00593
  66 5   O  1S         -0.00197   0.00091  -0.00096  -0.00054   0.01346
  67        2S         -0.00263   0.00117   0.00621  -0.00125   0.02724
  68        3S         -0.01216  -0.00641  -0.08420  -0.00630   0.10169
  69        4PX         0.01030  -0.16676   0.39386   0.13873   0.34943
  70        4PY         0.06572  -0.00006   0.18025  -0.34177   0.01162
  71        4PZ         0.05726  -0.02414  -0.07093  -0.20480   0.10777
  72        5PX         0.00680  -0.10270   0.28405   0.10617   0.27876
  73        5PY         0.04441   0.00108   0.14887  -0.28278   0.00454
  74        5PZ         0.03584  -0.01743  -0.07200  -0.16667   0.09338
  75        6D 0        0.00349  -0.00046  -0.00092  -0.00916   0.00287
  76        6D+1        0.00042  -0.00565   0.00798   0.00383   0.00890
  77        6D-1        0.00216   0.00018   0.00505  -0.00675   0.00035
  78        6D+2        0.00154  -0.00024   0.00281  -0.00519  -0.00111
  79        6D-2        0.00007   0.00292  -0.00435  -0.00065  -0.00513
  80 6   O  1S          0.00187  -0.00287   0.00247   0.00090  -0.00235
  81        2S          0.00441  -0.00469   0.00598   0.00175  -0.00495
  82        3S          0.01230  -0.03483   0.00620   0.00630  -0.01305
  83        4PX         0.03083   0.02254   0.00179   0.00386   0.00419
  84        4PY         0.00084  -0.01704   0.00498   0.00052  -0.00550
  85        4PZ        -0.00636   0.02617   0.00061   0.00242   0.00393
  86        5PX         0.02158   0.01686   0.00114   0.00119   0.00359
  87        5PY         0.00642  -0.01658  -0.00068   0.00233  -0.00682
  88        5PZ        -0.00765   0.02128   0.00027   0.00066   0.00175
  89        6D 0        0.00036  -0.00122   0.00023  -0.00010  -0.00045
  90        6D+1       -0.00101  -0.00065  -0.00006  -0.00010  -0.00010
  91        6D-1        0.00014  -0.00023  -0.00017  -0.00018   0.00005
  92        6D+2       -0.00122  -0.00086   0.00041  -0.00016  -0.00032
  93        6D-2        0.00012  -0.00040  -0.00012  -0.00007  -0.00020
  94 7   O  1S          0.00282  -0.00505  -0.00032   0.00001  -0.00104
  95        2S          0.00691  -0.01635  -0.00081   0.00044  -0.00309
  96        3S          0.00429   0.02585   0.00143  -0.00224   0.00179
  97        4PX         0.00054   0.02610   0.00794   0.00182   0.00241
  98        4PY         0.02394  -0.09423  -0.00326  -0.00248  -0.00922
  99        4PZ         0.00731  -0.01923  -0.00211  -0.00126  -0.00300
 100        5PX        -0.00165   0.02298   0.00532  -0.00071   0.00324
 101        5PY         0.01724  -0.07743  -0.00307  -0.00484  -0.01079
 102        5PZ         0.00532  -0.00462  -0.00188  -0.00048  -0.00174
 103        6D 0        0.00028  -0.00056  -0.00013   0.00001  -0.00015
 104        6D+1        0.00033   0.00057   0.00020  -0.00003  -0.00010
 105        6D-1        0.00075  -0.00181  -0.00013  -0.00003   0.00000
 106        6D+2       -0.00011  -0.00032  -0.00015   0.00004   0.00002
 107        6D-2        0.00010  -0.00040  -0.00022  -0.00000   0.00001
 108 8   C  1S          0.00185  -0.01579  -0.00738  -0.00509  -0.00224
 109        2S         -0.01380   0.04220   0.02180   0.00652   0.01358
 110        3S          0.06956  -0.03890   0.02754   0.16830  -0.10895
 111        4PX        -0.03431   0.08136  -0.00034   0.00786   0.01058
 112        4PY        -0.06604   0.05760   0.02095   0.01575   0.02643
 113        4PZ        -0.00004   0.02613  -0.01402   0.00083   0.00327
 114        5PX         0.02156  -0.10215  -0.04882   0.01942  -0.10431
 115        5PY        -0.02764   0.03635   0.02411   0.00074   0.04938
 116        5PZ        -0.01964   0.01979  -0.01110  -0.01393   0.02956
 117        6D 0        0.00406  -0.00423   0.00046  -0.00048  -0.00037
 118        6D+1       -0.00035  -0.01073  -0.00175   0.00005  -0.00158
 119        6D-1       -0.00597   0.00003   0.00169   0.00015   0.00207
 120        6D+2        0.01374  -0.00767  -0.00122   0.00056  -0.00130
 121        6D-2        0.00541  -0.01942  -0.00414  -0.00140  -0.00419
 122 9   H  1S          0.04611  -0.01026  -0.01536  -0.00549  -0.01373
 123        2S          0.02862  -0.02662  -0.01938  -0.02807  -0.01914
 124        3PX        -0.00210   0.00520   0.00052   0.00032   0.00226
 125        3PY        -0.00013   0.00132   0.00055   0.00072   0.00004
 126        3PZ        -0.00121   0.00154   0.00099   0.00040   0.00109
 127 10  C  1S         -0.00593   0.02844   0.00065  -0.00135   0.01036
 128        2S          0.01464  -0.07085   0.00774   0.00425  -0.01432
 129        3S          0.00608  -0.08232  -0.12535  -0.02151  -0.20300
 130        4PX         0.04503  -0.08977  -0.00654   0.00119  -0.01220
 131        4PY        -0.02292  -0.04271   0.00893   0.00427  -0.02306
 132        4PZ         0.03405  -0.08889  -0.01608  -0.00840   0.00482
 133        5PX         0.01410  -0.05678  -0.02318  -0.03982  -0.00217
 134        5PY        -0.04495   0.12130  -0.00409   0.01173  -0.02573
 135        5PZ         0.05052  -0.11718  -0.01166  -0.02676   0.01226
 136        6D 0        0.00043  -0.00076   0.00086  -0.00020  -0.00086
 137        6D+1        0.00093   0.00075   0.00175   0.00062  -0.00086
 138        6D-1       -0.00130   0.00574  -0.00000   0.00048   0.00258
 139        6D+2       -0.00176  -0.00231   0.00278  -0.00070   0.00006
 140        6D-2       -0.00062   0.00256  -0.00131  -0.00020   0.00144
 141 11  H  1S         -0.01917  -0.01534  -0.00141  -0.00742   0.00351
 142        2S         -0.02437   0.04186   0.01768  -0.01577   0.04619
 143        3PX         0.00106  -0.00254  -0.00049   0.00052  -0.00106
 144        3PY         0.00018  -0.00289   0.00063  -0.00001  -0.00020
 145        3PZ         0.00142  -0.00162  -0.00065   0.00053   0.00055
 146 12  C  1S         -0.00999   0.02335   0.00828   0.00340  -0.00700
 147        2S          0.02214  -0.04289  -0.01671  -0.01588   0.00732
 148        3S          0.07206  -0.28337  -0.04652   0.07334   0.14677
 149        4PX         0.01254  -0.06161  -0.05121  -0.01519   0.02154
 150        4PY         0.04129  -0.04465  -0.02385   0.00589   0.01844
 151        4PZ         0.02877  -0.08111  -0.03317   0.01380  -0.01406
 152        5PX         0.01048  -0.02488  -0.06105   0.04181   0.02487
 153        5PY         0.00193  -0.01170  -0.10727   0.07490  -0.03565
 154        5PZ         0.01958  -0.13205  -0.03399   0.05429   0.01461
 155        6D 0       -0.00010   0.00093  -0.00715  -0.00219   0.00170
 156        6D+1        0.00250  -0.00102   0.00236   0.00141  -0.00034
 157        6D-1        0.00008   0.00086  -0.00439  -0.00087   0.00348
 158        6D+2        0.00115   0.00480   0.00475   0.00057   0.00034
 159        6D-2       -0.00122   0.00024   0.00216   0.00220  -0.00121
 160 13  H  1S         -0.01829   0.02431  -0.02946  -0.02241   0.02553
 161        2S         -0.02654   0.01180  -0.09195   0.06029  -0.04646
 162        3PX         0.00069  -0.00133  -0.00131  -0.00040  -0.00114
 163        3PY         0.00065   0.00006  -0.00065   0.00184  -0.00044
 164        3PZ         0.00019  -0.00136  -0.00070   0.00086   0.00032
 165 14  H  1S          0.01474   0.03086   0.04973   0.00936  -0.00124
 166        2S          0.00510   0.05034   0.04514  -0.00029  -0.02058
 167        3PX         0.00090  -0.00235  -0.00030  -0.00117   0.00127
 168        3PY         0.00147  -0.00345  -0.00053  -0.00240   0.00153
 169        3PZ         0.00089  -0.00131  -0.00129  -0.00020  -0.00072
 170 15  C  1S          0.00033  -0.00164  -0.05855  -0.01215   0.00493
 171        2S          0.00117  -0.00021   0.13026   0.04007  -0.01114
 172        3S          0.01210  -0.03176   0.53564  -0.02010  -0.14428
 173        4PX         0.00317   0.06154   0.23017   0.04379  -0.04101
 174        4PY        -0.05502  -0.03584   0.06636   0.01320  -0.00582
 175        4PZ        -0.00092   0.07125  -0.11206  -0.01917   0.00489
 176        5PX         0.00422  -0.10030   0.24004   0.06800  -0.09296
 177        5PY        -0.02371  -0.08362   0.02958   0.06997  -0.03051
 178        5PZ         0.00623   0.06420  -0.12116   0.07295   0.07458
 179        6D 0        0.00257   0.00615  -0.00013   0.00137  -0.00408
 180        6D+1        0.00405  -0.01776  -0.00669  -0.00091  -0.00276
 181        6D-1        0.00103  -0.01292  -0.00132   0.00015   0.00404
 182        6D+2        0.00148  -0.00446  -0.00081  -0.00038   0.00201
 183        6D-2        0.00364   0.00713   0.00270   0.00277   0.00123
 184 16  H  1S         -0.05182  -0.05747  -0.03456  -0.01650   0.01941
 185        2S         -0.02954  -0.03870  -0.09003  -0.07862   0.00516
 186        3PX        -0.00095   0.00352   0.00676  -0.00149  -0.00138
 187        3PY         0.00059   0.00235   0.00378   0.00081  -0.00064
 188        3PZ         0.00021   0.00183  -0.00238  -0.00052   0.00059
 189 17  C  1S          0.00159  -0.02313  -0.00070  -0.00125  -0.00359
 190        2S         -0.00274   0.05205   0.01861   0.00776   0.00377
 191        3S         -0.00775   0.15421  -0.08898   0.01340   0.09614
 192        4PX        -0.00003  -0.07603  -0.11101  -0.02816  -0.02740
 193        4PY         0.06852  -0.03455  -0.04426   0.01421   0.00877
 194        4PZ         0.01174   0.06299   0.03247   0.01959  -0.02420
 195        5PX        -0.00003  -0.15189   0.17765   0.02046  -0.02131
 196        5PY         0.04371  -0.02553   0.07783   0.02557  -0.08584
 197        5PZ         0.01167   0.02847  -0.11860   0.00391   0.16301
 198        6D 0       -0.00135  -0.00148  -0.01965   0.02696   0.02732
 199        6D+1        0.00054   0.00863  -0.04754  -0.00143  -0.00875
 200        6D-1       -0.00361   0.00149  -0.00292   0.02815  -0.01804
 201        6D+2       -0.00498   0.00189   0.00089   0.00979  -0.02442
 202        6D-2        0.00203  -0.00395   0.01882   0.03197  -0.00218
 203 18  C  1S         -0.00253  -0.01698   0.00242  -0.00165  -0.00566
 204        2S          0.01309   0.04419  -0.00510   0.00514   0.01315
 205        3S         -0.04323   0.09403   0.01391   0.00003   0.05902
 206        4PX         0.01254  -0.00480  -0.00173   0.00004  -0.00419
 207        4PY         0.00200   0.05058  -0.00472   0.00453   0.01438
 208        4PZ        -0.00087   0.03524  -0.00389   0.00234   0.01065
 209        5PX         0.00243  -0.00049   0.00173   0.00519  -0.00077
[...]
 51123,-0.01024846,-0.01207891,-0.19879564,0.61720315,0.04967489,0.0258
 7128,-0.06338746,0.00007656,0.00019398,0.00022223,0.00002884,-0.000048
 94,-0.00005607,-0.00036021,0.00031729,0.00086057,-0.00020563,0.0005282
 6,0.00014009,-0.00017877,-0.00018446,-0.00014056,-0.00016619,-0.000029
 39,0.00001991,-0.00032778,-0.00018859,-0.00109660,-0.00004590,-0.00014
 728,0.00015611,-0.00007179,-0.00001178,0.00013946,-0.00008720,-0.00000
 386,0.00003587,-0.00003565,0.00005893,-0.00007198,0.00004595,-0.000073
 98,-0.00000736,-0.00001494,-0.00001990,0.00006240,0.00011390,-0.000028
 03,-0.00016936,-0.00000437,-0.00002653,0.00005390,0.00075687,-0.000431
 77,-0.00011799,0.00029219,0.00013172,0.00003223,0.00021023,0.00017040,
 0.00006269,0.00000547,-0.00009203,-0.00005208,0.00009150,0.00017404,0.
 00009387,0.00014799,-0.00002019,0.00005392,-0.00008680,-0.00004839,-0.
 00003420,-0.00000863,-0.00005250,0.00001830,0.00000830,0.00004645,0.00
 001112,-0.00001532,0.00000781,-0.00002387,-0.00000954,-0.00001479,0.00
 001735,-0.00006512,-0.00004421,0.00002136,0.00003839,0.00001085,0.0000
 1934,-0.00002018,0.00000035,0.00001702,-0.00000241,-0.00001072,-0.0000
 2486,-0.00710423,0.00280173,-0.00404834,0.02280485,-0.00877365,-0.0026
 5770,0.00533359,0.00345124,0.00237465,0.08215855,-0.04700745,-0.094823
 34,-0.01131170,0.01039529,0.00814724,-0.16163381,-0.10610277,0.2710353
 4,-0.00784686,-0.02263192,0.01794888,0.00060060,-0.00107708,0.00104630
 ,-0.00011736,0.00009346,0.00022036,0.00015916,0.00001545,0.00058964,0.
 00001754,0.00022718,0.00004055,-0.00011180,-0.00054217,-0.00043896,-0.
 00027323,-0.00032712,0.00001352,-0.00018133,0.00487975,0.00014813,0.00
 006651,-0.00017896,-0.00010314,-0.00017702,-0.00032767,0.00039188,-0.0
 0018240,0.00000911,0.00010204,0.00007488,0.00002296,-0.00012699,0.0000
 6737,-0.00015010,-0.00000880,-0.00001942,-0.00006182,0.00008619,0.0001
 5749,0.00033742,-0.00044745,0.00008450,-0.00009435,0.00004475,0.000451
 66,-0.00040097,-0.00009882,0.00060285,0.00078521,0.00024883,0.00014448
 ,0.00016564,0.00036210,-0.00005950,-0.00000439,-0.00008834,-0.00001002
 ,0.00007991,0.00001753,0.00007096,-0.00002786,0.00008722,-0.00001503,-
 0.00003474,-0.00003652,-0.00004838,0.00000234,-0.00001897,-0.00001047,
 -0.00002027,-0.00002917,0.00000693,-0.00001876,-0.00001461,0.00000583,
 0.00000377,0.00001102,-0.00003129,-0.00002674,-0.00008723,0.00004004,0
 .00000030,0.00003267,0.00001635,0.00000845,0.00001361,-0.00002439,-0.0
 0000820,-0.00002125,-0.03645567,0.02301893,0.02449285,-0.01183184,-0.0
 1696718,0.00959069,0.00059366,-0.00079423,0.00018059,0.01621229,0.0255
 6742,-0.01653195,-0.00273757,0.00460052,0.00391787,-0.10245576,0.06041
 717,-0.00379919,0.79495223,-0.00497222,-0.00757055,0.00801282,-0.00015
 903,-0.00103338,0.00065961,0.00018995,0.00003467,0.00019409,-0.0002367
 0,0.00014959,0.00040460,-0.00017250,0.00018070,-0.00011287,-0.00035139
 ,0.00004669,0.00022156,-0.00000443,0.00008529,0.00009076,0.00455294,-0
 .00109469,-0.00022103,-0.00000611,0.00000718,0.00009659,0.00082025,0.0
 0078407,-0.00073570,0.00035995,-0.00011342,0.00003437,-0.00005927,0.00
 006420,-0.00001281,-0.00004105,-0.00007361,0.00002713,0.00000140,-0.00
 003333,0.00003737,0.00015454,0.00004697,-0.00035930,0.00010040,-0.0000
 3003,-0.00000050,0.00062284,-0.00015269,-0.00004560,0.00052837,-0.0003
 3058,-0.00052366,0.00003518,0.00002891,0.00007836,0.00011123,-0.000011
 33,0.00006154,0.00009537,-0.00002625,-0.00008059,-0.00009014,-0.000001
 18,-0.00000419,0.00001929,0.00000995,0.00000284,0.00000451,0.00001992,
 0.00000930,-0.00000984,-0.00002106,-0.00003858,0.00000875,0.00000074,-
 0.00000164,-0.00000189,0.00000685,0.00000246,-0.00000908,-0.00000009,0
 .00000456,-0.00000580,-0.00000048,-0.00000081,-0.00000052,-0.00000125,
 -0.00000283,0.00000019,0.00000018,-0.00000166,-0.01745088,0.05641482,-
 0.01469476,-0.01921420,-0.03809341,0.03003839,-0.00024192,-0.00022777,
 0.00115987,0.05875982,-0.03828705,-0.01992762,0.00454738,0.00077304,0.
 00034731,0.01160370,-0.31888332,0.10344337,-0.36484073,0.78345747,0.00
 982279,0.02084358,-0.01260278,-0.00096073,0.00017825,0.00061738,-0.000
 27212,0.00016348,0.00016892,0.00000867,-0.00009634,-0.00039531,0.00008
 030,-0.00020350,-0.00001370,0.00025271,0.00055354,0.00036992,0.0001863
 1,0.00023250,0.00005772,0.00354374,-0.00027438,0.00557060,-0.00001863,
 0.00065220,-0.00014985,0.00023199,0.00034572,-0.00055878,0.00028401,-0
 .00011713,-0.00015074,0.00016585,-0.00005266,0.00004172,-0.00006207,0.
 00015892,-0.00000410,-0.00003335,0.00000865,-0.00010344,-0.00019341,-0
 .00021487,0.00056861,-0.00008988,0.00015805,-0.00002004,-0.00050291,0.
 00024322,0.00012056,-0.00082561,-0.00050771,-0.00037085,-0.00010153,-0
 .00021409,-0.00038571,0.00007455,0.00012842,0.00016619,0.00009698,-0.0
 0018431,-0.00002032,-0.00007962,0.00001608,-0.00008877,0.00004274,0.00
 002008,0.00003475,0.00009313,-0.00002743,0.00001707,0.00003424,0.00006
 665,0.00004344,-0.00001520,0.00002557,0.00001268,-0.00001907,-0.000001
 45,-0.00000860,0.00002368,0.00004998,0.00009453,-0.00003994,0.00000241
 ,-0.00003257,-0.00001775,-0.00001261,-0.00001277,0.00002827,0.00000373
 ,0.00002013,0.04258715,-0.04017437,-0.00288588,0.01337471,0.02767630,-
 0.02842649,-0.00101733,0.00036786,-0.00169356,-0.03510704,0.00796311,0
 .03434045,0.00419614,0.00066307,0.00375021,0.02159664,0.06438757,-0.11
 432411,-0.38070008,-0.04731403,0.37848008,-0.00022307,-0.00097215,-0.0
 0156018,0.00003860,-0.00005432,0.00002325,-0.00001436,0.00001650,0.000
 03041,0.00000410,0.00005179,0.00000840,-0.00000281,0.00006254,0.000006
 34,-0.00004445,-0.00013563,-0.00017833,-0.00005986,0.00001741,-0.00011
 098,-0.00052848,0.00086120,-0.00017806,0.00002899,-0.00005506,-0.00002
 312,-0.00009295,-0.00018685,0.00013140,-0.00008665,0.00003048,-0.00000
 473,-0.00000725,-0.00001580,-0.00002761,0.00000290,0.00000501,0.000000
 89,-0.00000287,0.00001272,0.00000627,0.00004900,-0.00004085,-0.0000366
 8,-0.00000373,0.00000237,0.00000583,0.00000433,-0.00007536,-0.00001116
 ,0.00011200,0.00009532,0.00024978,0.00002174,0.00004885,0.00013769,-0.
 00001260,-0.00002088,-0.00004805,-0.00000686,0.00002331,0.00003166,0.0
 0001188,-0.00000323,0.00001453,-0.00001003,0.00000652,-0.00000971,-0.0
 0001410,-0.00000217,-0.00002456,-0.00000180,0.00000184,0.00001858,-0.0
 0000600,-0.00000657,-0.00000445,0.00000971,0.00000193,0.00000217,-0.00
 000276,-0.00001513,-0.00003616,0.00001015,-0.00000175,0.00000867,0.000
 00721,0.00000472,0.00000280,-0.00001110,0.00000059,-0.00000478,0.00122
 803,-0.00014343,0.00620455,-0.00042380,-0.00143353,0.00010424,-0.00033
 449,-0.00019231,-0.00038217,0.00360352,0.00057556,0.00209595,0.0005241
 8,0.00007076,0.00017519,0.00350177,-0.00485784,0.00240344,-0.42194751,
 0.36106301,0.18182874,0.42422127,0.00001516,0.00092616,-0.00164996,0.0
 0003371,-0.00004347,-0.00003092,0.00000741,-0.00000265,0.00001138,-0.0
 0004850,0.00002375,0.00001025,-0.00001808,0.00003063,-0.00000610,-0.00
 001424,-0.00006881,-0.00007020,-0.00002934,0.00001003,-0.00004513,-0.0
 0057078,0.00058867,0.00007655,0.00000179,-0.00005165,-0.00002299,-0.00
 009863,-0.00010718,0.00009932,-0.00005913,0.00001780,0.00000041,0.0000
 1228,-0.00001421,-0.00001672,0.00000217,-0.00000174,0.00000399,0.00000
 014,0.00000470,0.00000073,0.00002514,0.00000602,-0.00003374,0.00000341
 ,-0.00000968,0.00000223,0.00004529,-0.00003531,-0.00000357,0.00005281,
 0.00004240,0.00010990,0.00000568,0.00002721,0.00004900,-0.00000342,-0.
 00000513,-0.00001661,-0.00000433,-0.00000245,0.00000464,-0.00000474,-0
 .00000326,0.00000609,0.00000111,0.00000337,-0.00000289,-0.00000711,-0.
 00000337,-0.00000746,-0.00000076,0.00000240,0.00000044,0.00000063,-0.0
 0000276,-0.00000092,-0.00000029,0.00000173,0.00000118,-0.00000084,-0.0
 0000973,-0.00001351,0.00000421,-0.00000137,0.00000309,0.00000186,0.000
 00233,0.00000127,-0.00000407,0.00000095,-0.00000162,-0.00089632,0.0012
 8972,0.00446465,-0.00134471,-0.00068361,0.00065955,-0.00014556,-0.0001
 2348,-0.00022509,0.00071330,-0.00493066,0.00463303,0.00151577,-0.00041
 882,-0.00039340,0.02425644,-0.01186530,-0.01035782,0.35989235,-0.28055
 123,-0.13368428,-0.36937791,0.28276483,-0.00168680,-0.00110958,-0.0010
 8275,-0.00011963,0.00000877,-0.00021579,0.00009010,-0.00004000,-0.0000
 2837,-0.00014852,0.00002044,0.00001292,-0.00005991,0.00001939,0.000010
 35,0.00000349,-0.00003159,-0.00001098,-0.00001851,-0.00005191,0.000029
 87,0.00055840,-0.00060556,0.00021945,-0.00003687,-0.00001742,0.0000222
 9,0.00019284,0.00013459,-0.00023314,0.00008770,-0.00002744,-0.00002480
 ,0.00000132,0.00001655,0.00001457,0.00000390,-0.00000336,-0.00000284,-
 0.00000447,-0.00001092,-0.00000710,-0.00001403,0.00002774,-0.00000954,
 0.00000207,-0.00001918,-0.00000465,0.00014802,-0.00000099,-0.00002312,
 -0.00005914,0.00010387,-0.00009621,-0.00000518,-0.00000659,0.00001546,
 -0.00000754,-0.00000203,-0.00001816,-0.00000606,0.00001676,0.00001987,
 0.00001234,0.00000149,0.00000494,-0.00001139,-0.00000152,-0.00000125,-
 0.00000033,0.00000596,-0.00000600,-0.00000139,-0.00000749,0.00001142,-
 0.00000595,-0.00000069,0.00000032,0.00000777,-0.00000133,-0.00000251,0
 .00000448,0.00000323,-0.00000516,-0.00000057,-0.00000050,0.00000076,0.
 00000224,0.00000048,-0.00000165,-0.00000146,-0.00000049,0.00000081,0.0
 0576597,0.00459627,0.00223182,-0.00064420,0.00006189,-0.00058691,-0.00
 043134,-0.00035567,-0.00051947,0.00255568,0.00435411,0.00235174,-0.000
 42864,0.00049592,0.00051894,-0.01129498,0.01331539,0.00650880,0.181944
 11,-0.13601633,-0.04442050,-0.19161905,0.13179484,0.03786193,0.0030307
 0,0.00424197,-0.00049392,-0.00117540,0.00079891,-0.00135593,0.00001228
 ,0.00035821,0.00006888,0.00086556,-0.00043299,-0.00141538,0.00058085,-
 0.00045147,0.00003050,0.00052887,0.00038036,-0.00022994,0.00006023,0.0
 0055124,-0.00047722,-0.01660204,0.00949240,0.01343500,0.00114275,0.002
 54169,-0.00166626,-0.00074474,-0.00081477,0.00204656,-0.00060702,0.000
 19858,-0.00004060,-0.00014950,0.00003342,0.00007789,-0.00008851,0.0001
 4528,0.00004748,0.00004286,0.00019917,-0.00003366,-0.00025797,-0.00059
 402,0.00092507,-0.00014832,0.00032038,-0.00002413,-0.00215696,0.000543
 24,0.00041011,-0.00042859,-0.00063057,0.00122439,-0.00014365,-0.000211
 19,-0.00016986,-0.00002432,0.00013467,0.00018425,0.00011605,-0.0001582
 9,-0.00008236,-0.00006431,0.00001320,-0.00006130,0.00007945,0.00000784
 ,0.00001492,0.00006774,-0.00000801,-0.00001511,0.00003212,0.00001642,0
 .00004599,-0.00001898,0.00001540,0.00000035,0.00000825,0.00000992,0.00
 000149,0.00001368,0.00004276,0.00002671,-0.00002142,0.00000288,-0.0000
 0484,0.00000424,-0.00000158,-0.00000330,0.00001225,-0.00000432,0.00000
 823,-0.23755435,0.08988661,0.08747532,0.02136771,0.05819767,-0.0340211
 7,0.00277620,0.00142431,0.00180374,-0.05126009,0.01030566,0.02633418,-
 0.00155329,-0.00043811,0.00018338,0.03398956,-0.06703961,0.01560471,-0
 .23558205,-0.01037661,0.12828892,-0.00841388,-0.01334928,0.01946873,0.
 48114648,-0.00061367,-0.00302367,0.00358677,0.00076648,0.00028707,0.00
 158387,-0.00048014,-0.00006496,0.00026348,0.00011607,0.00040466,0.0001
 1427,0.00029930,0.00026795,-0.00005197,-0.00058375,0.00002116,-0.00004
 091,-0.00011599,0.00055735,-0.00033855,-0.00765969,0.01009512,0.000426
 65,-0.00111529,0.00125880,0.00035700,-0.00237795,-0.00103801,0.0022165
 7,-0.00082588,0.00021909,0.00020651,0.00004505,-0.00035131,-0.00011612
 ,-0.00004894,0.00013600,0.00001903,0.00000464,0.00011419,0.00005946,0.
 00033627,-0.00010589,-0.00023009,0.00004200,0.00002153,0.00003752,-0.0
 0057465,-0.00048055,0.00005382,0.00060709,-0.00087969,0.00062200,0.000
 25088,0.00012560,0.00035881,0.00012686,-0.00000688,-0.00020132,-0.0000
 1049,-0.00009024,0.00017934,-0.00006141,-0.00002635,0.00004901,-0.0000
 6402,0.00000098,-0.00002987,0.00005039,-0.00006769,-0.00007276,0.00006
 801,0.00013161,0.00008181,-0.00001291,-0.00001450,-0.00001877,-0.00003
 778,0.00001584,0.00001644,-0.00004398,-0.00002708,-0.00006594,0.000020
 53,0.00000234,0.00002751,0.00000618,0.00000512,0.00001511,-0.00002269,
 -0.00000540,-0.00002096,0.14676382,-0.21129709,-0.04324844,0.02534000,
 -0.03511256,0.00090659,0.00136331,-0.00378378,0.00584080,0.00520373,-0
 .00440701,-0.00508677,-0.00046698,0.00047970,-0.00101799,-0.01950268,-
 0.00807543,0.02345511,-0.07687453,-0.15343270,0.09782615,0.01639804,0.
 01330410,-0.01464556,-0.14858882,1.06347453,0.00078046,0.00021362,0.00
 315249,0.00048129,0.00032206,0.00082453,0.00040371,-0.00018804,-0.0001
 5631,-0.00013591,-0.00015668,0.00030371,0.00013154,-0.00043518,-0.0000
 0646,-0.00048926,0.00048957,0.00098729,0.00036989,-0.00040603,0.000778
 26,0.02382594,-0.01265192,-0.00770040,0.00001955,-0.00125948,0.0005020
 6,0.00098783,0.00236273,-0.00216939,0.00092301,-0.00046043,0.00008366,
 0.00009480,0.00009542,-0.00009010,0.00002723,-0.00015017,-0.00007414,0
 .00003931,-0.00023828,0.00007796,0.00000131,0.00012933,-0.00056417,0.0
 0018765,-0.00015932,0.00000064,0.00003697,0.00057324,0.00005624,-0.000
 25946,-0.00027505,-0.00208582,0.00013675,-0.00000341,-0.00018106,0.000
 05971,-0.00001154,-0.00003080,-0.00004302,0.00001652,0.00009393,0.0000
 1802,0.00000429,-0.00000668,-0.00004555,-0.00001408,0.00001519,0.00003
 754,-0.00001050,0.00003313,0.00002468,0.00003114,0.00002269,-0.0000107
 6,0.00002100,0.00000742,-0.00000365,-0.00001288,-0.00000302,0.00001149
 ,0.00002359,0.00007137,-0.00002111,0.00000589,-0.00002488,-0.00001364,
 -0.00001516,-0.00000616,0.00001903,0.00000475,0.00000940,0.05899342,-0
 .00776621,-0.11667598,-0.02029384,-0.01688755,0.03181760,0.00344979,0.
 00500126,0.00311906,0.02788089,-0.00935861,-0.02237261,0.00050323,-0.0
 0059703,-0.00059414,-0.00691084,0.05441932,-0.01203409,0.16361659,0.05
 286671,-0.21639480,0.00455430,0.00732040,0.00041446,-0.24575451,-0.351
 17623,0.42877031,-0.00058022,-0.00091689,0.00093354,0.00015153,0.00000
 433,-0.00027105,0.00001559,-0.00006189,-0.00003782,-0.00018084,-0.0000
 0084,0.00009355,-0.00010371,-0.00003824,0.00004036,0.00015059,-0.00018
 150,-0.00000598,0.00003174,-0.00023933,0.00010122,-0.00012104,0.000583
 50,-0.00287037,-0.00034910,-0.00104813,0.00043972,-0.00011481,-0.00030
 862,0.00001987,-0.00005529,0.00004888,0.00004023,0.00006315,-0.0000371
 3,-0.00000692,0.00004632,-0.00003161,-0.00002449,0.00000804,-0.0000434
 9,-0.00000399,-0.00005734,0.00004744,-0.00005138,0.00001129,-0.0000456
 3,-0.00000853,0.00025862,0.00005830,-0.00008891,0.00000946,0.00038011,
 -0.00003489,-0.00004123,0.00003992,-0.00008789,-0.00001469,-0.00002346
 ,0.00000538,0.00000498,0.00003775,-0.00000345,0.00002279,-0.00000375,0
 .00000566,-0.00000293,-0.00000518,0.00000491,-0.00003544,0.00001362,0.
 00004584,0.00000352,-0.00001804,-0.00005420,0.00002799,-0.00000953,0.0
 0001100,-0.00001347,-0.00000829,-0.00000860,0.00001051,-0.00001900,0.0
 0001389,0.00000577,-0.00000300,-0.00000290,-0.00000687,0.00000221,-0.0
 0000108,0.00000378,0.00000257,0.00000369,0.00214314,0.02599268,-0.0092
 2074,-0.00158631,0.00456531,0.00472835,0.00006344,0.00105582,-0.000873
 11,-0.00088395,-0.00008344,0.00011087,-0.00029242,-0.00026673,-0.00047
 508,0.00037804,0.00105879,0.00575915,0.00579355,-0.02533474,0.01321402
 ,-0.00112795,-0.00061258,-0.00424320,0.01111751,0.06227360,-0.01363439
 ,-0.01475373,0.00004791,-0.00007079,0.00012564,-0.00033811,0.00041534,
 -0.00052635,0.00018167,-0.00009195,-0.00013512,-0.00008581,0.00010972,
 -0.00002373,-0.00005243,0.00011784,-0.00001625,-0.00001344,0.00004685,
 -0.00005259,0.00000891,0.00012456,-0.00010446,-0.00225780,0.00009598,0
 .00062769,0.00055052,0.00030990,-0.00055226,0.00004101,0.00029687,0.00
 012014,0.00003237,-0.00001276,-0.00001360,-0.00013273,0.00005535,0.000
 06455,-0.00002866,0.00003333,0.00001651,-0.00000019,0.00006131,-0.0000
 1024,-0.00006198,-0.00010976,0.00002324,-0.00001472,0.00001516,0.00000
 314,0.00009413,-0.00011078,0.00000533,-0.00003647,-0.00020109,0.000161
 04,-0.00000606,-0.00001829,0.00003725,0.00000226,0.00000894,0.00000184
 ,0.00000081,-0.00001725,-0.00001154,-0.00001721,0.00000206,-0.00000573
 ,0.00000625,0.00000533,-0.00000052,0.00000446,0.00000093,-0.00001090,-
 0.00000002,-0.00000381,0.00000578,-0.00000559,-0.00000019,-0.00000185,
 0.00000275,0.00000462,0.00000152,-0.00000048,0.00000440,-0.00001049,-0
 .00000290,-0.00000023,0.00000175,0.00000375,0.00000070,-0.00000055,-0.
 00000248,-0.00000041,-0.00000032,-0.00264615,-0.00990920,0.00943238,0.
 00452084,-0.00056223,0.00019146,-0.00021377,-0.00065933,0.00057139,0.0
 0039859,0.00058466,-0.00106301,-0.00017731,-0.00019819,-0.00023369,0.0
 0026163,0.00294336,0.00266094,0.00528247,-0.00214182,0.00034410,-0.001
 75969,-0.00011093,-0.00202153,0.06323745,-0.66863194,0.27833294,-0.066
 82378,0.67761374,0.00054029,0.00084805,-0.00047610,0.00000802,0.000639
 21,-0.00034834,0.00009421,-0.00012276,-0.00016572,-0.00007003,0.000139
 76,0.00003932,-0.00006304,0.00016770,0.00000887,0.00008235,-0.00022028
 ,-0.00028022,-0.00002150,-0.00001372,-0.00017713,-0.00183765,-0.002001
 52,-0.00189403,0.00012098,-0.00010811,0.00027185,-0.00022880,0.0000379
 6,0.00019096,-0.00007453,0.00002805,0.00000427,-0.00013489,0.00002934,
 0.00003447,0.00000166,0.00002999,-0.00000674,-0.00000556,0.00004114,0.
 00000037,0.00000461,-0.00019000,-0.00010037,-0.00001996,0.00000432,0.0
 0000460,0.00012642,-0.00018125,-0.00003827,0.00005697,0.00017881,0.000
 49290,-0.00002657,0.00008915,0.00009575,-0.00002571,-0.00003829,-0.000
 01754,0.00001424,0.00004032,-0.00001437,0.00001067,-0.00000647,0.00000
 896,0.00000692,0.00000928,-0.00000643,-0.00005760,0.00000653,0.0000073
 5,-0.00001055,-0.00001690,-0.00003463,0.00001967,-0.00001242,0.0000000
 4,0.00000682,0.00000005,0.00000069,0.00000094,-0.00003721,-0.00003350,
 0.00001535,-0.00000410,0.00000737,0.00000401,0.00000767,0.00000309,-0.
 00001050,0.00000342,-0.00000344,0.00269371,-0.01024412,0.00972013,0.00
 484307,-0.00058813,0.00362382,-0.00010050,-0.00066662,0.00042471,0.000
 72863,-0.00061423,-0.00114836,-0.00038384,-0.00032719,-0.00059301,0.00
 549305,0.00333700,0.00296619,-0.00259646,0.02230091,-0.00141126,-0.003
 78531,-0.00267001,-0.00294982,-0.01185731,0.27805856,-0.08997035,0.006
 43771,-0.28793390,0.08176392\\0.00171658,0.00137732,0.00038120,-0.0081
 6852,-0.06109431,0.08845724,0.02548296,0.07209135,-0.06305011,0.028880
 23,0.00704363,0.00059165,0.03700068,-0.02007043,-0.00489332,0.00872138
 ,0.00158279,0.02445753,0.00207793,-0.00215925,0.00885657,-0.00966571,-
 0.09396446,-0.03850423,0.00011738,0.08748488,0.00460228,-0.04326930,-0
 .06933659,0.05586202,0.04674993,0.06115295,-0.04326708,-0.06809777,0.0
 9179132,0.00466185,-0.00933645,-0.07827750,0.05796083,0.08205289,-0.01
 327985,-0.05315888,-0.03063598,0.01345702,0.08540589,0.02116412,0.0039
 5633,-0.08555427,-0.07574631,-0.00179791,0.00575390,-0.00355374,0.0007
 1211,-0.02177971,-0.00473723,0.00673404,-0.02531432,0.05060063,0.05436
 660,-0.06201860,-0.10859253,0.02202581,-0.00916933,0.01649785,-0.10558
 828,-0.02728736,0.03267284,0.01668888,0.10462573,0.01769388,-0.0964206
 9,-0.02059477,-0.10923743,0.02025203,-0.00788149,0.03485007,0.02319092
 ,0.10353617,0.05391946,0.06479510,-0.07274015,-0.10074640,0.01244675,-
 0.00178269,0.01876469,-0.10681931,-0.01722391,0.05006328,0.05889003,-0
 .08079389,0.04165818,0.03088098,0.09903312,0.00672832,-0.00622564,-0.0
 1059289,-0.10806188,0.09386926,0.03563107,0.10991241,-0.09119304,-0.03
 763775,0.00397853,0.10402688,-0.06775742,0.01724377,-0.13504274,0.0622
 6259,-0.01363280,0.02273382,0.00579551,0.09411689,-0.08644772,-0.03590
 403,-0.11235853,0.08938726,0.04230973,0.01619774,-0.13148702,0.0532000
 4,-0.01302204,0.13826664,-0.05647872\\\@
 The archive entry for this job was punched.

 Writing a WFNX file to "YAFLEY_Complex_2_Ligand_0_ON_Cu_oriented.wfx"


 It takes a long time to grow an old friend.
                            -- John Leonard
 Job cpu time:       0 days  1 hours 47 minutes 40.7 seconds.
 Elapsed time:       0 days  1 hours 48 minutes  5.1 seconds.
 File lengths (MBytes):  RWF=   1100 Int=      0 D2E=      0 Chk=     20 Scr=      8
 Normal termination of Gaussian 16 at Mon Mar  6 12:09:54 2023.
