 Entering Gaussian System, Link 0=g16
 Initial command:
 /ssoft/spack/external/gaussian/g16-C.01/avx2/g16/l1.exe "/scratch/lcmd/2387870/Gau-1723086.inp" -scrdir="/scratch/lcmd/2387870/"
 Entering Link 1 = /ssoft/spack/external/gaussian/g16-C.01/avx2/g16/l1.exe PID=   1723093.
  
 Copyright (c) 1988-2019, Gaussian, Inc.  All Rights Reserved.
  
 This is part of the Gaussian(R) 16 program.  It is based on
 the Gaussian(R) 09 system (copyright 2009, Gaussian, Inc.),
 the Gaussian(R) 03 system (copyright 2003, Gaussian, Inc.),
 the Gaussian(R) 98 system (copyright 1998, Gaussian, Inc.),
 the Gaussian(R) 94 system (copyright 1995, Gaussian, Inc.),
 the Gaussian 92(TM) system (copyright 1992, Gaussian, Inc.),
 the Gaussian 90(TM) system (copyright 1990, Gaussian, Inc.),
 the Gaussian 88(TM) system (copyright 1988, Gaussian, Inc.),
 the Gaussian 86(TM) system (copyright 1986, Carnegie Mellon
 University), and the Gaussian 82(TM) system (copyright 1983,
 Carnegie Mellon University). Gaussian is a federally registered
 trademark of Gaussian, Inc.
  
 This software contains proprietary and confidential information,
 including trade secrets, belonging to Gaussian, Inc.
  
 This software is provided under written license and may be
 used, copied, transmitted, or stored only in accord with that
 written license.
  
 The following legend is applicable only to US Government
 contracts under FAR:
  
                    RESTRICTED RIGHTS LEGEND
  
 Use, reproduction and disclosure by the US Government is
 subject to restrictions as set forth in subparagraphs (a)
 and (c) of the Commercial Computer Software - Restricted
 Rights clause in FAR 52.227-19.
  
 Gaussian, Inc.
 340 Quinnipiac St., Bldg. 40, Wallingford CT 06492
  
  
 ---------------------------------------------------------------
 Warning -- This program may not be used in any manner that
 competes with the business of Gaussian, Inc. or will provide
 assistance to any competitor of Gaussian, Inc.  The licensee
 of this program is prohibited from giving any competitor of
 Gaussian, Inc. access to this program.  By using this program,
 the user acknowledges that Gaussian, Inc. is engaged in the
 business of creating and licensing software in the field of
 computational chemistry and represents and warrants to the
 licensee that it is not a competitor of Gaussian, Inc. and that
 it will not use this program in any manner prohibited above.
 ---------------------------------------------------------------
  

 Cite this work as:
 Gaussian 16, Revision C.01,
 M. J. Frisch, G. W. Trucks, H. B. Schlegel, G. E. Scuseria, 
 M. A. Robb, J. R. Cheeseman, G. Scalmani, V. Barone, 
 G. A. Petersson, H. Nakatsuji, X. Li, M. Caricato, A. V. Marenich, 
 J. Bloino, B. G. Janesko, R. Gomperts, B. Mennucci, H. P. Hratchian, 
 J. V. Ortiz, A. F. Izmaylov, J. L. Sonnenberg, D. Williams-Young, 
 F. Ding, F. Lipparini, F. Egidi, J. Goings, B. Peng, A. Petrone, 
 T. Henderson, D. Ranasinghe, V. G. Zakrzewski, J. Gao, N. Rega, 
 G. Zheng, W. Liang, M. Hada, M. Ehara, K. Toyota, R. Fukuda, 
 J. Hasegawa, M. Ishida, T. Nakajima, Y. Honda, O. Kitao, H. Nakai, 
 T. Vreven, K. Throssell, J. A. Montgomery, Jr., J. E. Peralta, 
 F. Ogliaro, M. J. Bearpark, J. J. Heyd, E. N. Brothers, K. N. Kudin, 
 V. N. Staroverov, T. A. Keith, R. Kobayashi, J. Normand, 
 K. Raghavachari, A. P. Rendell, J. C. Burant, S. S. Iyengar, 
 J. Tomasi, M. Cossi, J. M. Millam, M. Klene, C. Adamo, R. Cammi, 
 J. W. Ochterski, R. L. Martin, K. Morokuma, O. Farkas, 
 J. B. Foresman, and D. J. Fox, Gaussian, Inc., Wallingford CT, 2019.
 
 ******************************************
 Gaussian 16:  ES64L-G16RevC.01  3-Jul-2019
                 6-Mar-2023 
 ******************************************
 %nprocshared=1
 Will use up to    1 processors via shared memory.
 %mem=8000MB
 %chk=YASJAD_Complex_3_Ligand_1_OO_Cu_oriented.chk
 ----------------------------------------------------------------------
 #p pop=(regular,nbo,savenbos) freq=noraman def2svp empiricaldispersion
 =gd3bj output=wfx pbe1pbe
 ----------------------------------------------------------------------
 1/10=4,30=1,38=1/1,3;
 2/12=2,17=6,18=5,40=1/2;
 3/5=43,7=101,11=2,25=1,30=1,71=2,74=-13,124=41,140=1/1,2,3;
 4//1;
 5/5=2,38=5,98=1/2;
 8/6=4,10=90,11=11/1;
 11/6=1,8=1,9=11,15=111,16=1/1,2,10;
 10/6=1/2;
 6/28=1,40=1,73=1/1,7;
 7/8=1,10=1,25=1/1,2,3,16;
 1/10=4,30=1/3;
 99/6=200/99;
 Leave Link    1 at Mon Mar  6 10:21:49 2023, MaxMem=  1048576000 cpu:               0.0 elap:               0.2
 (Enter /ssoft/spack/external/gaussian/g16-C.01/avx2/g16/l101.exe)
 ----------------------------------------
 YASJAD_Complex_3_Ligand_1_OO_Cu_oriented
 ----------------------------------------
 Symbolic Z-matrix:
 Charge = -2 Multiplicity = 1
 O                     1.3443   -1.38855   0. 
 O                    -1.3443   -1.38855   0. 
 C                     0.69341  -2.59755   0.32194 
 C                    -0.69341  -2.59755  -0.32194 
 C                     1.46629  -3.8435   -0.06926 
 C                    -1.46629  -3.8435    0.06926 
 C                     0.69999  -5.10853   0.2867 
 C                    -0.69999  -5.10853  -0.2867 
 H                     0.59867  -2.72274   1.50048 
 H                    -0.59867  -2.72274  -1.50048 
 H                     2.35995  -3.87927   0.37644 
 H                     1.57357  -3.89119  -0.92916 
 H                    -1.57357  -3.89119   0.92916 
 H                     1.15647  -5.78695   0.05266 
 H                    -1.15647  -5.78695  -0.05266 
 H                     0.65856  -5.16695   1.40954 
 H                    -0.65856  -5.16695  -1.40954 
 H                    -2.35995  -3.87927  -0.37644 
 
 ITRead=  0  0  0  0  0  0  0  0  0  0  0  0  0  0  0  0  0  0
 MicOpt= -1 -1 -1 -1 -1 -1 -1 -1 -1 -1 -1 -1 -1 -1 -1 -1 -1 -1
 NAtoms=     18 NQM=       18 NQMF=       0 NMMI=      0 NMMIF=      0
                NMic=       0 NMicF=      0.
                    Isotopes and Nuclear Properties:
 (Nuclear quadrupole moments (NQMom) in fm**2, nuclear magnetic moments (NMagM)
  in nuclear magnetons)

  Atom         1           2           3           4           5           6           7           8           9          10
 IAtWgt=          16          16          12          12          12          12          12          12           1           1
 AtmWgt=  15.9949146  15.9949146  12.0000000  12.0000000  12.0000000  12.0000000  12.0000000  12.0000000   1.0078250   1.0078250
 NucSpn=           0           0           0           0           0           0           0           0           1           1
 AtZEff=  -0.0000000  -0.0000000  -0.0000000  -0.0000000  -0.0000000  -0.0000000  -0.0000000  -0.0000000  -0.0000000  -0.0000000
 NQMom=    0.0000000   0.0000000   0.0000000   0.0000000   0.0000000   0.0000000   0.0000000   0.0000000   0.0000000   0.0000000
 NMagM=    0.0000000   0.0000000   0.0000000   0.0000000   0.0000000   0.0000000   0.0000000   0.0000000   2.7928460   2.7928460
 AtZNuc=   8.0000000   8.0000000   6.0000000   6.0000000   6.0000000   6.0000000   6.0000000   6.0000000   1.0000000   1.0000000

  Atom        11          12          13          14          15          16          17          18
 IAtWgt=           1           1           1           1           1           1           1           1
 AtmWgt=   1.0078250   1.0078250   1.0078250   1.0078250   1.0078250   1.0078250   1.0078250   1.0078250
 NucSpn=           1           1           1           1           1           1           1           1
 AtZEff=  -0.0000000  -0.0000000  -0.0000000  -0.0000000  -0.0000000  -0.0000000  -0.0000000  -0.0000000
 NQMom=    0.0000000   0.0000000   0.0000000   0.0000000   0.0000000   0.0000000   0.0000000   0.0000000
 NMagM=    2.7928460   2.7928460   2.7928460   2.7928460   2.7928460   2.7928460   2.7928460   2.7928460
 AtZNuc=   1.0000000   1.0000000   1.0000000   1.0000000   1.0000000   1.0000000   1.0000000   1.0000000
 Leave Link  101 at Mon Mar  6 10:21:49 2023, MaxMem=  1048576000 cpu:               0.1 elap:               0.1
 (Enter /ssoft/spack/external/gaussian/g16-C.01/avx2/g16/l103.exe)

 GradGradGradGradGradGradGradGradGradGradGradGradGradGradGradGradGradGrad
 Berny optimization.
 Initialization pass.
 Trust Radius=3.00D-01 FncErr=1.00D-07 GrdErr=1.00D-07 EigMax=2.50D+02 EigMin=1.00D-04
 Number of steps in this run=      2 maximum allowed number of steps=      2.
 GradGradGradGradGradGradGradGradGradGradGradGradGradGradGradGradGradGrad

 Leave Link  103 at Mon Mar  6 10:21:49 2023, MaxMem=  1048576000 cpu:               0.0 elap:               0.1
 (Enter /ssoft/spack/external/gaussian/g16-C.01/avx2/g16/l202.exe)
                          Input orientation:                          
 ---------------------------------------------------------------------
 Center     Atomic      Atomic             Coordinates (Angstroms)
 Number     Number       Type             X           Y           Z
 ---------------------------------------------------------------------
      1          8           0        1.344302   -1.388552    0.000000
      2          8           0       -1.344302   -1.388552    0.000000
      3          6           0        0.693408   -2.597545    0.321937
      4          6           0       -0.693408   -2.597545   -0.321937
      5          6           0        1.466290   -3.843498   -0.069256
      6          6           0       -1.466289   -3.843498    0.069255
      7          6           0        0.699991   -5.108528    0.286704
      8          6           0       -0.699990   -5.108528   -0.286705
      9          1           0        0.598674   -2.722736    1.500478
     10          1           0       -0.598673   -2.722736   -1.500479
     11          1           0        2.359954   -3.879267    0.376436
     12          1           0        1.573571   -3.891190   -0.929160
     13          1           0       -1.573571   -3.891190    0.929159
     14          1           0        1.156471   -5.786947    0.052662
     15          1           0       -1.156470   -5.786947   -0.052662
     16          1           0        0.658564   -5.166951    1.409542
     17          1           0       -0.658564   -5.166951   -1.409543
     18          1           0       -2.359953   -3.879267   -0.376436
 ---------------------------------------------------------------------
                    Distance matrix (angstroms):
                    1          2          3          4          5
     1  O    0.000000
     2  O    2.688603   0.000000
     3  C    1.410308   2.391144   0.000000
     4  C    2.391144   1.410308   1.528997   0.000000
     5  C    2.458950   3.732422   1.517490   2.506101   0.000000
     6  C    3.732422   2.458950   2.506101   1.517490   2.935848
     7  C    3.786233   4.254357   2.511239   2.935480   1.521257
     8  C    4.254357   3.786233   2.935480   2.511239   2.518006
     9  H    2.141832   2.794035   1.188952   2.237486   2.114930
    10  H    2.794036   2.141832   2.237487   1.188953   2.751105
    11  H    2.716048   4.479606   2.103130   3.384310   0.999278
    12  H    2.679384   3.954809   2.003359   2.679820   0.867882
    13  H    3.954809   2.679384   2.679820   2.003359   3.199978
    14  H    4.402719   5.059892   3.234072   3.706030   1.971762
    15  H    5.059892   4.402719   3.706030   3.234072   3.264374
    16  H    4.090641   4.502730   2.790331   3.380488   2.142613
    17  H    4.502730   4.090641   3.380488   2.790331   2.839524
    18  H    4.479606   2.716048   3.384310   2.103130   3.838720
                    6          7          8          9         10
     6  C    0.000000
     7  C    2.518006   0.000000
     8  C    1.521257   1.512860   0.000000
     9  H    2.751104   2.678715   3.251546   0.000000
    10  H    2.114931   3.251547   2.678716   3.231003   0.000000
    11  H    3.838720   2.067513   3.363644   2.388125   3.689695
    12  H    3.199978   1.929606   2.657771   2.866854   2.531864
    13  H    0.867882   2.657771   1.929606   2.531864   2.866854
    14  H    3.264374   0.850530   2.005460   3.434632   3.857741
    15  H    1.971762   2.005460   0.850530   3.857741   3.434633
    16  H    2.839524   1.125120   2.174014   2.446639   4.002881
    17  H    2.142613   2.174014   1.125120   4.002881   2.446639
    18  H    0.999278   3.363644   2.067513   3.689694   2.388126
                   11         12         13         14         15
    11  H    0.000000
    12  H    1.524178   0.000000
    13  H    3.972186   3.654840   0.000000
    14  H    2.278694   2.175280   3.437335   0.000000
    15  H    4.023507   3.437335   2.175280   2.315337   0.000000
    16  H    2.370689   2.816795   2.615485   1.572714   2.411801
    17  H    3.736214   2.615485   2.816795   2.411801   1.572714
    18  H    4.779575   3.972186   1.524178   4.023507   2.278694
                   16         17         18
    16  H    0.000000
    17  H    3.111602   0.000000
    18  H    3.736214   2.370689   0.000000
 Stoichiometry    C6H10O2(2-)
 Framework group  C2[X(C6H10O2)]
 Deg. of freedom    25
 Full point group                 C2      NOp   2
 Largest Abelian subgroup         C2      NOp   2
 Largest concise Abelian subgroup C2      NOp   2
                         Standard orientation:                         
 ---------------------------------------------------------------------
 Center     Atomic      Atomic             Coordinates (Angstroms)
 Number     Number       Type             X           Y           Z
 ---------------------------------------------------------------------
      1          8           0       -0.033115    1.343894   -1.897026
      2          8           0        0.033115   -1.343894   -1.897026
      3          6           0       -0.338920    0.685267   -0.688033
      4          6           0        0.338920   -0.685267   -0.688033
      5          6           0        0.033115    1.467550    0.557920
      6          6           0       -0.033115   -1.467550    0.557920
      7          6           0       -0.303861    0.692716    1.822950
      8          6           0        0.303861   -0.692716    1.822950
      9          1           0       -1.514770    0.561530   -0.562842
     10          1           0        1.514770   -0.561530   -0.562842
     11          1           0       -0.434456    2.349965    0.593689
     12          1           0        0.890115    1.595982    0.605612
     13          1           0       -0.890115   -1.595982    0.605612
     14          1           0       -0.081134    1.154822    2.501369
     15          1           0        0.081134   -1.154822    2.501369
     16          1           0       -1.425338    0.623642    1.881373
     17          1           0        1.425338   -0.623642    1.881373
     18          1           0        0.434456   -2.349965    0.593689
 ---------------------------------------------------------------------
 Rotational constants (GHZ):           3.0016233           2.0292236           1.3002665
 Leave Link  202 at Mon Mar  6 10:21:49 2023, MaxMem=  1048576000 cpu:               0.0 elap:               0.1
 (Enter /ssoft/spack/external/gaussian/g16-C.01/avx2/g16/l301.exe)
 Standard basis: def2SVP (5D, 7F)
 Ernie: Thresh=  0.10000D-02 Tol=  0.10000D-05 Strict=F.
 There are    85 symmetry adapted cartesian basis functions of A   symmetry.
 There are    85 symmetry adapted cartesian basis functions of B   symmetry.
 There are    81 symmetry adapted basis functions of A   symmetry.
 There are    81 symmetry adapted basis functions of B   symmetry.
   162 basis functions,   270 primitive gaussians,   170 cartesian basis functions
    32 alpha electrons       32 beta electrons
       nuclear repulsion energy       396.8217404417 Hartrees.
 IExCor= 1009 DFT=T Ex+Corr=PBE1PBE ExCW=0 ScaHFX=  0.250000
 ScaDFX=  0.750000  0.750000  1.000000  1.000000 ScalE2=  1.000000  1.000000
 IRadAn=      5 IRanWt=     -1 IRanGd=            0 ICorTp=0 IEmpDi=141
 NAtoms=   18 NActive=   18 NUniq=    9 SFac= 4.00D+00 NAtFMM=   60 NAOKFM=F Big=F
 Integral buffers will be    131072 words long.
 Raffenetti 2 integral format.
 Two-electron integral symmetry is turned on.
 R6Disp:  Grimme-D3(BJ) Dispersion energy=       -0.0149311103 Hartrees.
 Nuclear repulsion after empirical dispersion term =      396.8068093314 Hartrees.
 Leave Link  301 at Mon Mar  6 10:21:49 2023, MaxMem=  1048576000 cpu:               0.1 elap:               0.1
 (Enter /ssoft/spack/external/gaussian/g16-C.01/avx2/g16/l302.exe)
 NPDir=0 NMtPBC=     1 NCelOv=     1 NCel=       1 NClECP=     1 NCelD=      1
         NCelK=      1 NCelE2=     1 NClLst=     1 CellRange=     0.0.
 One-electron integrals computed using PRISM.
 One-electron integral symmetry used in STVInt
   2 Symmetry operations used in ECPInt.
 ECPInt:  NShTT=    3081 NPrTT=   10865 LenC2=    3071 LenP2D=    9018.
 LDataN:  DoStor=T MaxTD1= 4 Len=   56
 NBasis=   162 RedAO= T EigKep=  1.19D-03  NBF=    81    81
 NBsUse=   162 1.00D-06 EigRej= -1.00D+00 NBFU=    81    81
 Precomputing XC quadrature grid using
 IXCGrd= 4 IRadAn=           5 IRanWt=          -1 IRanGd=           0 AccXCQ= 0.00D+00.
 Generated NRdTot=       0 NPtTot=           0 NUsed=           0 NTot=          32
 NSgBfM=   170   170   170   170   170 MxSgAt=    18 MxSgA2=    18.
 Leave Link  302 at Mon Mar  6 10:21:49 2023, MaxMem=  1048576000 cpu:               0.4 elap:               0.4
 (Enter /ssoft/spack/external/gaussian/g16-C.01/avx2/g16/l303.exe)
 DipDrv:  MaxL=1.
 Leave Link  303 at Mon Mar  6 10:21:49 2023, MaxMem=  1048576000 cpu:               0.0 elap:               0.0
 (Enter /ssoft/spack/external/gaussian/g16-C.01/avx2/g16/l401.exe)
 ExpMin= 1.22D-01 ExpMax= 2.27D+03 ExpMxC= 3.41D+02 IAcc=3 IRadAn=         5 AccDes= 0.00D+00
 Harris functional with IExCor= 1009 and IRadAn=       5 diagonalized for initial guess.
 HarFok:  IExCor= 1009 AccDes= 0.00D+00 IRadAn=         5 IDoV= 1 UseB2=F ITyADJ=14
 ICtDFT=  3500011 ScaDFX=  1.000000  1.000000  1.000000  1.000000
 FoFCou: FMM=F IPFlag=           0 FMFlag=      100000 FMFlg1=           0
         NFxFlg=           0 DoJE=T BraDBF=F KetDBF=T FulRan=T
         wScrn=  0.000000 ICntrl=       500 IOpCl=  0 I1Cent=   200000004 NGrid=           0
         NMat0=    1 NMatS0=      1 NMatT0=    0 NMatD0=    1 NMtDS0=    0 NMtDT0=    0
 Petite list used in FoFCou.
 Harris En= -384.770004614528    
 JPrj=0 DoOrth=F DoCkMO=F.
 Initial guess orbital symmetries:
       Occupied  (A) (B) (B) (A) (B) (A) (B) (A) (A) (B) (A) (B)
                 (A) (B) (A) (B) (A) (A) (B) (B) (A) (B) (A) (B)
                 (A) (A) (B) (A) (B) (A) (B) (A)
       Virtual   (B) (A) (A) (B) (B) (A) (B) (A) (B) (B) (A) (A)
                 (B) (A) (B) (A) (B) (B) (B) (A) (B) (A) (B) (A)
                 (A) (A) (B) (B) (B) (A) (B) (A) (A) (B) (B) (A)
                 (A) (B) (B) (A) (A) (B) (A) (B) (A) (B) (A) (B)
                 (A) (A) (B) (B) (A) (B) (A) (B) (B) (A) (A) (B)
                 (B) (A) (A) (B) (A) (B) (A) (A) (B) (A) (B) (B)
                 (A) (B) (A) (A) (B) (A) (B) (B) (B) (A) (A) (B)
                 (A) (B) (B) (B) (A) (A) (A) (B) (A) (A) (B) (B)
                 (A) (A) (B) (B) (A) (A) (B) (B) (A) (A) (A) (B)
                 (B) (A) (B) (A) (B) (A) (B) (A) (B) (B) (A) (A)
                 (B) (B) (A) (B) (A) (B) (B) (A) (A) (B)
 The electronic state of the initial guess is 1-A.
 Leave Link  401 at Mon Mar  6 10:21:51 2023, MaxMem=  1048576000 cpu:               1.4 elap:               1.4
 (Enter /ssoft/spack/external/gaussian/g16-C.01/avx2/g16/l502.exe)
 Keep R1 ints in memory in symmetry-blocked form, NReq=130783977.
 FoFCou: FMM=F IPFlag=           0 FMFlag=           0 FMFlg1=           0
         NFxFlg=           0 DoJE=F BraDBF=F KetDBF=F FulRan=T
         wScrn=  0.000000 ICntrl=       600 IOpCl=  0 I1Cent=           0 NGrid=           0
         NMat0=    1 NMatS0=  13203 NMatT0=    0 NMatD0=    1 NMtDS0=    0 NMtDT0=    0
 Petite list used in FoFCou.
 Closed shell SCF:
 Using DIIS extrapolation, IDIIS=  1040.
 NGot=  1048576000 LenX=  1004898784 LenY=  1004869443
 Requested convergence on RMS density matrix=1.00D-08 within 128 cycles.
 Requested convergence on MAX density matrix=1.00D-06.
 Requested convergence on             energy=1.00D-06.
 No special actions if energy rises.
 Integral accuracy reduced to 1.0D-05 until final iterations.

 Cycle   1  Pass 0  IDiag  1:
 E= -383.350370656203    
 DIIS: error= 4.18D-02 at cycle   1 NSaved=   1.
 NSaved= 1 IEnMin= 1 EnMin= -383.350370656203     IErMin= 1 ErrMin= 4.18D-02
 ErrMax= 4.18D-02  0.00D+00 EMaxC= 1.00D-01 BMatC= 5.04D-01 BMatP= 5.04D-01
 IDIUse=3 WtCom= 5.82D-01 WtEn= 4.18D-01
 Coeff-Com:  0.100D+01
 Coeff-En:   0.100D+01
 Coeff:      0.100D+01
 Gap=    -0.005 Goal=   None    Shift=    0.000
 GapD=   -0.005 DampG=0.250 DampE=0.500 DampFc=0.2500 IDamp=-1.
 Damping current iteration by 2.50D-01
 RMSDP=2.73D-01 MaxDP=1.54D+01              OVMax= 9.79D-01

 Cycle   2  Pass 0  IDiag  1:
 E= -383.034511474371     Delta-E=        0.315859181832 Rises=F Damp=T
 DIIS: error= 1.90D-02 at cycle   2 NSaved=   2.
 NSaved= 2 IEnMin= 1 EnMin= -383.350370656203     IErMin= 2 ErrMin= 1.90D-02
 ErrMax= 1.90D-02  0.00D+00 EMaxC= 1.00D-01 BMatC= 1.44D-01 BMatP= 5.04D-01
 IDIUse=3 WtCom= 8.10D-01 WtEn= 1.90D-01
 Coeff-Com:  0.158D+00 0.842D+00
 Coeff-En:   0.699D+00 0.301D+00
 Coeff:      0.261D+00 0.739D+00
 Gap=     0.007 Goal=   None    Shift=    0.000
 RMSDP=6.74D-02 MaxDP=3.82D+00 DE= 3.16D-01 OVMax= 7.90D-01

 Cycle   3  Pass 0  IDiag  1:
 E= -383.473471710236     Delta-E=       -0.438960235865 Rises=F Damp=F
 DIIS: error= 3.12D-02 at cycle   3 NSaved=   3.
 NSaved= 3 IEnMin= 3 EnMin= -383.473471710236     IErMin= 2 ErrMin= 1.90D-02
 ErrMax= 3.12D-02  0.00D+00 EMaxC= 1.00D-01 BMatC= 3.70D-01 BMatP= 1.44D-01
 IDIUse=2 WtCom= 0.00D+00 WtEn= 1.00D+00
 EnCoef did     1 forward-backward iterations
 Coeff-En:   0.152D+00 0.246D+00 0.603D+00
 Coeff:      0.152D+00 0.246D+00 0.603D+00
 Gap=     0.367 Goal=   None    Shift=    0.000
 RMSDP=1.09D-01 MaxDP=4.80D+00 DE=-4.39D-01 OVMax= 9.54D-01

 Cycle   4  Pass 0  IDiag  1:
 E= -382.170558928693     Delta-E=        1.302912781543 Rises=F Damp=F
 DIIS: error= 6.55D-02 at cycle   4 NSaved=   4.
 NSaved= 4 IEnMin= 3 EnMin= -383.473471710236     IErMin= 2 ErrMin= 1.90D-02
 ErrMax= 6.55D-02  0.00D+00 EMaxC= 1.00D-01 BMatC= 1.24D+00 BMatP= 1.44D-01
 IDIUse=2 WtCom= 0.00D+00 WtEn= 1.00D+00
 EnCoef did     2 forward-backward iterations
 Coeff-En:   0.175D+00 0.000D+00 0.590D+00 0.235D+00
 Coeff:      0.175D+00 0.000D+00 0.590D+00 0.235D+00
 Gap=     0.004 Goal=   None    Shift=    0.000
 RMSDP=1.07D-01 MaxDP=4.65D+00 DE= 1.30D+00 OVMax= 3.08D-01

 Cycle   5  Pass 0  IDiag  1:
 E= -383.865625954391     Delta-E=       -1.695067025698 Rises=F Damp=F
 DIIS: error= 9.49D-03 at cycle   5 NSaved=   5.
 NSaved= 5 IEnMin= 5 EnMin= -383.865625954391     IErMin= 5 ErrMin= 9.49D-03
 ErrMax= 9.49D-03  0.00D+00 EMaxC= 1.00D-01 BMatC= 2.14D-02 BMatP= 1.44D-01
 IDIUse=3 WtCom= 9.05D-01 WtEn= 9.49D-02
 Coeff-Com: -0.923D-01 0.236D+00 0.237D+00-0.147D-01 0.634D+00
 Coeff-En:   0.000D+00 0.000D+00 0.000D+00 0.000D+00 0.100D+01
 Coeff:     -0.836D-01 0.213D+00 0.215D+00-0.133D-01 0.669D+00
 Gap=     0.150 Goal=   None    Shift=    0.000
 RMSDP=4.08D-03 MaxDP=2.00D-01 DE=-1.70D+00 OVMax= 4.30D-02

 Cycle   6  Pass 0  IDiag  1:
 E= -383.870831068569     Delta-E=       -0.005205114178 Rises=F Damp=F
 DIIS: error= 8.11D-03 at cycle   6 NSaved=   6.
 NSaved= 6 IEnMin= 6 EnMin= -383.870831068569     IErMin= 6 ErrMin= 8.11D-03
 ErrMax= 8.11D-03  0.00D+00 EMaxC= 1.00D-01 BMatC= 1.54D-02 BMatP= 2.14D-02
 IDIUse=3 WtCom= 9.19D-01 WtEn= 8.11D-02
 Coeff-Com: -0.930D-01 0.848D-01-0.441D-01 0.102D-01 0.186D+00 0.856D+00
 Coeff-En:   0.000D+00 0.000D+00 0.000D+00 0.000D+00 0.414D+00 0.586D+00
 Coeff:     -0.855D-01 0.779D-01-0.405D-01 0.942D-02 0.205D+00 0.834D+00
 Gap=     0.126 Goal=   None    Shift=    0.000
 RMSDP=2.77D-03 MaxDP=1.54D-01 DE=-5.21D-03 OVMax= 2.54D-02

 Cycle   7  Pass 0  IDiag  1:
 E= -383.885046089209     Delta-E=       -0.014215020640 Rises=F Damp=F
 DIIS: error= 2.29D-03 at cycle   7 NSaved=   7.
 NSaved= 7 IEnMin= 7 EnMin= -383.885046089209     IErMin= 7 ErrMin= 2.29D-03
 ErrMax= 2.29D-03  0.00D+00 EMaxC= 1.00D-01 BMatC= 1.76D-03 BMatP= 1.54D-02
 IDIUse=3 WtCom= 9.77D-01 WtEn= 2.29D-02
 Coeff-Com: -0.318D-01 0.354D-01-0.275D-01 0.516D-02 0.112D-01 0.851D-02
 Coeff-Com:  0.999D+00
 Coeff-En:   0.000D+00 0.000D+00 0.000D+00 0.000D+00 0.000D+00 0.000D+00
 Coeff-En:   0.100D+01
 Coeff:     -0.310D-01 0.346D-01-0.269D-01 0.504D-02 0.109D-01 0.832D-02
 Coeff:      0.999D+00
 Gap=     0.117 Goal=   None    Shift=    0.000
 RMSDP=1.03D-03 MaxDP=6.10D-02 DE=-1.42D-02 OVMax= 8.76D-03

 Cycle   8  Pass 0  IDiag  1:
 E= -383.886671490073     Delta-E=       -0.001625400863 Rises=F Damp=F
 DIIS: error= 1.66D-03 at cycle   8 NSaved=   8.
 NSaved= 8 IEnMin= 8 EnMin= -383.886671490073     IErMin= 8 ErrMin= 1.66D-03
 ErrMax= 1.66D-03  0.00D+00 EMaxC= 1.00D-01 BMatC= 5.54D-04 BMatP= 1.76D-03
 IDIUse=3 WtCom= 9.83D-01 WtEn= 1.66D-02
 Coeff-Com:  0.475D-02 0.256D-03-0.290D-02 0.277D-02-0.547D-01-0.361D+00
 Coeff-Com:  0.651D+00 0.760D+00
 Coeff-En:   0.000D+00 0.000D+00 0.000D+00 0.000D+00 0.000D+00 0.000D+00
 Coeff-En:   0.000D+00 0.100D+01
 Coeff:      0.467D-02 0.252D-03-0.285D-02 0.273D-02-0.538D-01-0.355D+00
 Coeff:      0.640D+00 0.764D+00
 Gap=     0.111 Goal=   None    Shift=    0.000
 RMSDP=9.44D-04 MaxDP=5.60D-02 DE=-1.63D-03 OVMax= 8.19D-03

 Cycle   9  Pass 0  IDiag  1:
 E= -383.887244071250     Delta-E=       -0.000572581178 Rises=F Damp=F
 DIIS: error= 1.06D-04 at cycle   9 NSaved=   9.
 NSaved= 9 IEnMin= 9 EnMin= -383.887244071250     IErMin= 9 ErrMin= 1.06D-04
 ErrMax= 1.06D-04  0.00D+00 EMaxC= 1.00D-01 BMatC= 3.41D-06 BMatP= 5.54D-04
 IDIUse=3 WtCom= 9.99D-01 WtEn= 1.06D-03
 Coeff-Com:  0.221D-02-0.362D-03 0.294D-02 0.144D-03-0.104D-01-0.867D-01
 Coeff-Com:  0.623D-01 0.225D+00 0.805D+00
 Coeff-En:   0.000D+00 0.000D+00 0.000D+00 0.000D+00 0.000D+00 0.000D+00
 Coeff-En:   0.000D+00 0.000D+00 0.100D+01
 Coeff:      0.221D-02-0.362D-03 0.293D-02 0.144D-03-0.104D-01-0.866D-01
 Coeff:      0.622D-01 0.225D+00 0.805D+00
 Gap=     0.111 Goal=   None    Shift=    0.000
 RMSDP=7.37D-05 MaxDP=3.99D-03 DE=-5.73D-04 OVMax= 9.65D-04

 Cycle  10  Pass 0  IDiag  1:
 E= -383.887247292859     Delta-E=       -0.000003221609 Rises=F Damp=F
 DIIS: error= 4.48D-05 at cycle  10 NSaved=  10.
 NSaved=10 IEnMin=10 EnMin= -383.887247292859     IErMin=10 ErrMin= 4.48D-05
 ErrMax= 4.48D-05  0.00D+00 EMaxC= 1.00D-01 BMatC= 6.21D-07 BMatP= 3.41D-06
 IDIUse=1 WtCom= 1.00D+00 WtEn= 0.00D+00
 Coeff-Com:  0.812D-03-0.446D-03 0.128D-02 0.691D-04-0.227D-02-0.244D-01
 Coeff-Com:  0.832D-02 0.772D-01 0.366D+00 0.574D+00
 Coeff:      0.812D-03-0.446D-03 0.128D-02 0.691D-04-0.227D-02-0.244D-01
 Coeff:      0.832D-02 0.772D-01 0.366D+00 0.574D+00
 Gap=     0.111 Goal=   None    Shift=    0.000
 RMSDP=9.10D-06 MaxDP=2.26D-04 DE=-3.22D-06 OVMax= 1.37D-04

 Initial convergence to 1.0D-05 achieved.  Increase integral accuracy.
 Cycle  11  Pass 1  IDiag  1:
 E= -383.887306171208     Delta-E=       -0.000058878349 Rises=F Damp=F
 DIIS: error= 3.11D-05 at cycle   1 NSaved=   1.
 NSaved= 1 IEnMin= 1 EnMin= -383.887306171208     IErMin= 1 ErrMin= 3.11D-05
 ErrMax= 3.11D-05  0.00D+00 EMaxC= 1.00D-01 BMatC= 2.27D-07 BMatP= 2.27D-07
 IDIUse=1 WtCom= 1.00D+00 WtEn= 0.00D+00
 Coeff-Com:  0.100D+01
 Coeff:      0.100D+01
 Gap=     0.111 Goal=   None    Shift=    0.000
 RMSDP=9.10D-06 MaxDP=2.26D-04 DE=-5.89D-05 OVMax= 3.23D-04

 Cycle  12  Pass 1  IDiag  1:
 E= -383.887305829257     Delta-E=        0.000000341951 Rises=F Damp=F
 DIIS: error= 5.94D-05 at cycle   2 NSaved=   2.
 NSaved= 2 IEnMin= 1 EnMin= -383.887306171208     IErMin= 1 ErrMin= 3.11D-05
 ErrMax= 5.94D-05  0.00D+00 EMaxC= 1.00D-01 BMatC= 6.79D-07 BMatP= 2.27D-07
 IDIUse=1 WtCom= 1.00D+00 WtEn= 0.00D+00
 Coeff-Com:  0.641D+00 0.359D+00
 Coeff:      0.641D+00 0.359D+00
 Gap=     0.111 Goal=   None    Shift=    0.000
 RMSDP=2.47D-05 MaxDP=1.46D-03 DE= 3.42D-07 OVMax= 2.27D-04

 Cycle  13  Pass 1  IDiag  1:
 E= -383.887306406599     Delta-E=       -0.000000577341 Rises=F Damp=F
 DIIS: error= 4.62D-06 at cycle   3 NSaved=   3.
 NSaved= 3 IEnMin= 3 EnMin= -383.887306406599     IErMin= 3 ErrMin= 4.62D-06
 ErrMax= 4.62D-06  0.00D+00 EMaxC= 1.00D-01 BMatC= 7.06D-09 BMatP= 2.27D-07
 IDIUse=1 WtCom= 1.00D+00 WtEn= 0.00D+00
 Coeff-Com:  0.149D+00 0.123D+00 0.728D+00
 Coeff:      0.149D+00 0.123D+00 0.728D+00
 Gap=     0.111 Goal=   None    Shift=    0.000
 RMSDP=1.83D-06 MaxDP=6.20D-05 DE=-5.77D-07 OVMax= 2.34D-05

 Cycle  14  Pass 1  IDiag  1:
 E= -383.887306410576     Delta-E=       -0.000000003978 Rises=F Damp=F
 DIIS: error= 2.92D-06 at cycle   4 NSaved=   4.
 NSaved= 4 IEnMin= 4 EnMin= -383.887306410576     IErMin= 4 ErrMin= 2.92D-06
 ErrMax= 2.92D-06  0.00D+00 EMaxC= 1.00D-01 BMatC= 2.47D-09 BMatP= 7.06D-09
 IDIUse=1 WtCom= 1.00D+00 WtEn= 0.00D+00
 Coeff-Com: -0.156D-01 0.164D-01 0.405D+00 0.594D+00
 Coeff:     -0.156D-01 0.164D-01 0.405D+00 0.594D+00
 Gap=     0.111 Goal=   None    Shift=    0.000
 RMSDP=7.27D-07 MaxDP=2.24D-05 DE=-3.98D-09 OVMax= 9.95D-06

 Cycle  15  Pass 1  IDiag  1:
 E= -383.887306413021     Delta-E=       -0.000000002445 Rises=F Damp=F
 DIIS: error= 4.65D-07 at cycle   5 NSaved=   5.
 NSaved= 5 IEnMin= 5 EnMin= -383.887306413021     IErMin= 5 ErrMin= 4.65D-07
 ErrMax= 4.65D-07  0.00D+00 EMaxC= 1.00D-01 BMatC= 5.61D-11 BMatP= 2.47D-09
 IDIUse=1 WtCom= 1.00D+00 WtEn= 0.00D+00
 Coeff-Com: -0.112D-01 0.578D-02 0.135D+00 0.223D+00 0.647D+00
 Coeff:     -0.112D-01 0.578D-02 0.135D+00 0.223D+00 0.647D+00
 Gap=     0.111 Goal=   None    Shift=    0.000
 RMSDP=1.52D-07 MaxDP=4.88D-06 DE=-2.44D-09 OVMax= 2.39D-06

 Cycle  16  Pass 1  IDiag  1:
 E= -383.887306413071     Delta-E=       -0.000000000049 Rises=F Damp=F
 DIIS: error= 1.12D-07 at cycle   6 NSaved=   6.
 NSaved= 6 IEnMin= 6 EnMin= -383.887306413071     IErMin= 6 ErrMin= 1.12D-07
 ErrMax= 1.12D-07  0.00D+00 EMaxC= 1.00D-01 BMatC= 5.64D-12 BMatP= 5.61D-11
 IDIUse=1 WtCom= 1.00D+00 WtEn= 0.00D+00
 Coeff-Com: -0.370D-02 0.232D-02 0.280D-01 0.478D-01 0.264D+00 0.661D+00
 Coeff:     -0.370D-02 0.232D-02 0.280D-01 0.478D-01 0.264D+00 0.661D+00
 Gap=     0.111 Goal=   None    Shift=    0.000
 RMSDP=9.12D-08 MaxDP=2.75D-06 DE=-4.93D-11 OVMax= 1.03D-06

 Cycle  17  Pass 1  IDiag  1:
 E= -383.887306413078     Delta-E=       -0.000000000007 Rises=F Damp=F
 DIIS: error= 2.72D-08 at cycle   7 NSaved=   7.
 NSaved= 7 IEnMin= 7 EnMin= -383.887306413078     IErMin= 7 ErrMin= 2.72D-08
 ErrMax= 2.72D-08  0.00D+00 EMaxC= 1.00D-01 BMatC= 3.18D-13 BMatP= 5.64D-12
 IDIUse=1 WtCom= 1.00D+00 WtEn= 0.00D+00
 Coeff-Com:  0.164D-03 0.212D-03-0.696D-02-0.137D-01-0.964D-02 0.191D+00
 Coeff-Com:  0.839D+00
 Coeff:      0.164D-03 0.212D-03-0.696D-02-0.137D-01-0.964D-02 0.191D+00
 Coeff:      0.839D+00
 Gap=     0.111 Goal=   None    Shift=    0.000
 RMSDP=3.74D-08 MaxDP=1.28D-06 DE=-6.93D-12 OVMax= 7.85D-07

 Cycle  18  Pass 1  IDiag  1:
 E= -383.887306413078     Delta-E=        0.000000000000 Rises=F Damp=F
 DIIS: error= 7.45D-09 at cycle   8 NSaved=   8.
 NSaved= 8 IEnMin= 7 EnMin= -383.887306413078     IErMin= 8 ErrMin= 7.45D-09
 ErrMax= 7.45D-09  0.00D+00 EMaxC= 1.00D-01 BMatC= 9.55D-15 BMatP= 3.18D-13
 IDIUse=1 WtCom= 1.00D+00 WtEn= 0.00D+00
 Coeff-Com:  0.243D-03-0.816D-04-0.267D-02-0.511D-02-0.171D-01-0.892D-02
 Coeff-Com:  0.140D+00 0.894D+00
 Coeff:      0.243D-03-0.816D-04-0.267D-02-0.511D-02-0.171D-01-0.892D-02
 Coeff:      0.140D+00 0.894D+00
 Gap=     0.111 Goal=   None    Shift=    0.000
 RMSDP=9.74D-09 MaxDP=3.15D-07 DE= 0.00D+00 OVMax= 2.18D-07

 SCF Done:  E(RPBE1PBE) =  -383.887306413     A.U. after   18 cycles
            NFock= 18  Conv=0.97D-08     -V/T= 2.0029
 KE= 3.827816892774D+02 PE=-1.716260421989D+03 EE= 5.527846169672D+02
 Leave Link  502 at Mon Mar  6 10:22:18 2023, MaxMem=  1048576000 cpu:              27.0 elap:              27.3
 (Enter /ssoft/spack/external/gaussian/g16-C.01/avx2/g16/l801.exe)
 DoSCS=F DFT=T ScalE2(SS,OS)=  1.000000  1.000000
 Range of M.O.s used for correlation:     1   162
 NBasis=   162 NAE=    32 NBE=    32 NFC=     0 NFV=     0
 NROrb=    162 NOA=    32 NOB=    32 NVA=   130 NVB=   130
 Leave Link  801 at Mon Mar  6 10:22:18 2023, MaxMem=  1048576000 cpu:               0.0 elap:               0.0
 (Enter /ssoft/spack/external/gaussian/g16-C.01/avx2/g16/l1101.exe)
 Using compressed storage, NAtomX=    18.
 Will process     19 centers per pass.
   2 Symmetry operations used in ECPInt.
 ECPInt:  NShTT=    3081 NPrTT=   10865 LenC2=    3071 LenP2D=    9018.
 LDataN:  DoStor=T MaxTD1= 5 Len=  102
 R6Disp: Adding Grimme-D3(BJ) dispersion energy 1st derivatives to the gradient.
 Leave Link 1101 at Mon Mar  6 10:22:18 2023, MaxMem=  1048576000 cpu:               0.2 elap:               0.2
 (Enter /ssoft/spack/external/gaussian/g16-C.01/avx2/g16/l1102.exe)
 Symmetrizing basis deriv contribution to polar:
 IMax=3 JMax=2 DiffMx= 0.00D+00
 Leave Link 1102 at Mon Mar  6 10:22:19 2023, MaxMem=  1048576000 cpu:               0.1 elap:               0.0
 (Enter /ssoft/spack/external/gaussian/g16-C.01/avx2/g16/l1110.exe)
 Forming Gx(P) for the SCF density, NAtomX=    18.
 Integral derivatives from FoFJK, PRISM(SPDF).
 Do as many integral derivatives as possible in FoFJK.
 G2DrvN: MDV=    1048574010.
 G2DrvN: will do    19 centers at a time, making    1 passes.
 Calling FoFCou, ICntrl=  3107 FMM=F I1Cent=   0 AccDes= 0.00D+00.
 FoFJK:  IHMeth= 1 ICntrl=    3107 DoSepK=F KAlg= 0 I1Cent=           0 FoldK=F
 IRaf=         0 NMat=       1 IRICut=       1 DoRegI=T DoRafI=F ISym2E= 1 IDoP0=0 IntGTp=1.
 FoFCou: FMM=F IPFlag=           0 FMFlag=      100000 FMFlg1=           0
         NFxFlg=           0 DoJE=F BraDBF=F KetDBF=F FulRan=T
         wScrn=  0.000000 ICntrl=      3107 IOpCl=  0 I1Cent=           0 NGrid=           0
         NMat0=    1 NMatS0=      1 NMatT0=    0 NMatD0=    1 NMtDS0=    0 NMtDT0=    0
 Petite list used in FoFCou.
 End of G2Drv F.D. properties file   721 does not exist.
 End of G2Drv F.D. properties file   722 does not exist.
 End of G2Drv F.D. properties file   788 does not exist.
 Leave Link 1110 at Mon Mar  6 10:23:16 2023, MaxMem=  1048576000 cpu:              57.4 elap:              57.8
 (Enter /ssoft/spack/external/gaussian/g16-C.01/avx2/g16/l1002.exe)
 Minotr:  Closed shell wavefunction.
          IDoAtm=111111111111111111
          Direct CPHF calculation.
          Differentiating once with respect to electric field.
                with respect to dipole field.
          Differentiating once with respect to nuclear coordinates.
          Using symmetry in CPHF.
          Requested convergence is 1.0D-08 RMS, and 1.0D-07 maximum.
          Secondary convergence is 1.0D-12 RMS, and 1.0D-12 maximum.
          NewPWx=T KeepS1=F KeepF1=F KeepIn=T MapXYZ=F SortEE=F KeepMc=T.
         5337 words used for storage of precomputed grid.
 Keep R1 ints in memory in symmetry-blocked form, NReq=130791534.
 FoFCou: FMM=F IPFlag=           0 FMFlag=           0 FMFlg1=           0
         NFxFlg=           0 DoJE=F BraDBF=F KetDBF=F FulRan=T
         wScrn=  0.000000 ICntrl=       600 IOpCl=  0 I1Cent=           0 NGrid=           0
         NMat0=    1 NMatS0=  13203 NMatT0=    0 NMatD0=    1 NMtDS0=    0 NMtDT0=    0
 Petite list used in FoFCou.
          MDV=    1048576000 using IRadAn=       1.
          Solving linear equations simultaneously, MaxMat=       0.
          There are    30 degrees of freedom in the 1st order CPHF.  IDoFFX=4 NUNeed=    30.
     30 vectors produced by pass  0 Test12= 1.39D-14 3.33D-09 XBig12= 9.23D+01 3.48D+00.
 AX will form    30 AO Fock derivatives at one time.
     30 vectors produced by pass  1 Test12= 1.39D-14 3.33D-09 XBig12= 2.17D+01 1.23D+00.
     30 vectors produced by pass  2 Test12= 1.39D-14 3.33D-09 XBig12= 6.74D-01 1.01D-01.
     30 vectors produced by pass  3 Test12= 1.39D-14 3.33D-09 XBig12= 9.94D-03 1.50D-02.
     30 vectors produced by pass  4 Test12= 1.39D-14 3.33D-09 XBig12= 1.36D-04 2.30D-03.
     30 vectors produced by pass  5 Test12= 1.39D-14 3.33D-09 XBig12= 6.01D-07 1.32D-04.
     19 vectors produced by pass  6 Test12= 1.39D-14 3.33D-09 XBig12= 1.61D-09 5.58D-06.
      3 vectors produced by pass  7 Test12= 1.39D-14 3.33D-09 XBig12= 2.74D-12 2.09D-07.
      3 vectors produced by pass  8 Test12= 1.39D-14 3.33D-09 XBig12= 5.01D-15 1.08D-08.
 InvSVY:  IOpt=1 It=  1 EMax= 1.33D-15
 Solved reduced A of dimension   205 with    30 vectors.
 FullF1:  Do perturbations      1 to      30.
 Isotropic polarizability for W=    0.000000       81.90 Bohr**3.
 End of Minotr F.D. properties file   721 does not exist.
 End of Minotr F.D. properties file   722 does not exist.
 End of Minotr F.D. properties file   788 does not exist.
 Leave Link 1002 at Mon Mar  6 10:25:04 2023, MaxMem=  1048576000 cpu:             106.9 elap:             107.7
 (Enter /ssoft/spack/external/gaussian/g16-C.01/avx2/g16/l601.exe)
 Copying SCF densities to generalized density rwf, IOpCl= 0 IROHF=0.

 **********************************************************************

            Population analysis using the SCF Density.

 **********************************************************************

 Orbital symmetries:
       Occupied  (A) (B) (A) (B) (A) (B) (B) (A) (A) (A) (B) (B)
                 (A) (B) (A) (B) (A) (A) (B) (B) (A) (B) (A) (B)
                 (A) (A) (A) (B) (A) (B) (A) (B)
       Virtual   (A) (B) (B) (A) (A) (B) (B) (A) (B) (A) (B) (A)
                 (B) (B) (A) (B) (A) (B) (B) (A) (A) (B) (A) (B)
                 (A) (A) (B) (A) (B) (B) (A) (A) (B) (B) (A) (B)
                 (A) (B) (A) (B) (B) (A) (B) (A) (A) (B) (A) (B)
                 (A) (B) (A) (B) (A) (B) (A) (B) (A) (B) (A) (B)
                 (A) (B) (A) (B) (A) (A) (B) (B) (A) (A) (B) (B)
                 (A) (B) (A) (B) (A) (A) (B) (B) (A) (B) (A) (B)
                 (B) (A) (B) (B) (A) (A) (A) (B) (A) (A) (B) (B)
                 (A) (A) (B) (B) (A) (A) (B) (B) (A) (A) (B) (A)
                 (A) (B) (B) (A) (B) (A) (B) (A) (B) (B) (A) (B)
                 (A) (B) (A) (B) (A) (B) (B) (A) (A) (B)
 The electronic state is 1-A.
 Alpha  occ. eigenvalues --  -18.66984 -18.66983  -9.90378  -9.90366  -9.86162
 Alpha  occ. eigenvalues --   -9.86150  -9.84704  -9.84704  -0.54970  -0.49528
 Alpha  occ. eigenvalues --   -0.47596  -0.43330  -0.37819  -0.31344  -0.26174
 Alpha  occ. eigenvalues --   -0.21528  -0.17306  -0.15099  -0.12816  -0.09540
 Alpha  occ. eigenvalues --   -0.06710  -0.05075  -0.03762  -0.01793  -0.00929
 Alpha  occ. eigenvalues --    0.02915   0.07768   0.08748   0.21353   0.21379
 Alpha  occ. eigenvalues --    0.23221   0.23228
 Alpha virt. eigenvalues --    0.34342   0.36573   0.38766   0.42096   0.43281
 Alpha virt. eigenvalues --    0.44103   0.46045   0.47416   0.49083   0.49707
 Alpha virt. eigenvalues --    0.53671   0.55354   0.58478   0.61431   0.63231
 Alpha virt. eigenvalues --    0.65710   0.66704   0.71115   0.75470   0.77317
 Alpha virt. eigenvalues --    0.83884   0.84162   0.87274   0.88793   0.93835
 Alpha virt. eigenvalues --    0.94276   0.94936   0.97725   0.98682   0.99375
 Alpha virt. eigenvalues --    1.00112   1.00483   1.01738   1.02182   1.03823
 Alpha virt. eigenvalues --    1.04361   1.05287   1.06553   1.06909   1.08629
 Alpha virt. eigenvalues --    1.12973   1.15428   1.16339   1.17535   1.22214
 Alpha virt. eigenvalues --    1.24600   1.27681   1.34768   1.40212   1.46026
 Alpha virt. eigenvalues --    1.46110   1.47472   1.50041   1.51240   1.55073
 Alpha virt. eigenvalues --    1.62072   1.62592   1.64526   1.65408   1.66991
 Alpha virt. eigenvalues --    1.71572   1.75489   1.76378   1.80151   1.81767
 Alpha virt. eigenvalues --    2.00060   2.01625   2.02595   2.03671   2.04500
 Alpha virt. eigenvalues --    2.07124   2.09914   2.11123   2.13192   2.15365
 Alpha virt. eigenvalues --    2.17463   2.20949   2.22521   2.23440   2.25536
 Alpha virt. eigenvalues --    2.28575   2.30710   2.31206   2.31497   2.36445
 Alpha virt. eigenvalues --    2.38402   2.39124   2.41068   2.47136   2.47974
 Alpha virt. eigenvalues --    2.50180   2.52893   2.58625   2.59855   2.65586
 Alpha virt. eigenvalues --    2.66921   2.68421   2.73563   2.74421   2.80768
 Alpha virt. eigenvalues --    2.89151   2.91476   2.96168   2.98878   3.01668
 Alpha virt. eigenvalues --    3.08840   3.13188   3.13470   3.17920   3.18302
 Alpha virt. eigenvalues --    3.20051   3.20081   3.22693   3.24414   3.26114
 Alpha virt. eigenvalues --    3.30066   3.30334   3.41804   3.47118   3.48538
 Alpha virt. eigenvalues --    3.50755   3.56867   3.58602   3.64672   3.93483
 Alpha virt. eigenvalues --    3.93971   4.01056   4.03707   4.11665   4.13167
     Molecular Orbital Coefficients:
                          28        29        30        31        32
                           O         O         O         O         O
     Eigenvalues --     0.08748   0.21353   0.21379   0.23221   0.23228
   1 1   O  1S         -0.05561   0.00122   0.00576   0.00182   0.01244
   2        2S         -0.10074   0.00400   0.00743   0.00391   0.03601
   3        3S         -0.17506  -0.00201   0.07317   0.00043  -0.01795
   4        4PX        -0.07826  -0.23629   0.37021  -0.31232  -0.13252
   5        4PY        -0.18185  -0.25460  -0.18030   0.24214  -0.33600
   6        4PZ         0.26756  -0.18392   0.00190   0.03850  -0.22812
   7        5PX        -0.05576  -0.18333   0.28754  -0.26116  -0.11559
   8        5PY        -0.13376  -0.21267  -0.15089   0.20346  -0.26026
   9        5PZ         0.18969  -0.15473   0.02358   0.03058  -0.18901
  10        6D 0        0.00669  -0.00627   0.00050   0.00052  -0.00665
  11        6D+1       -0.00373  -0.00433   0.00769  -0.00633  -0.00140
  12        6D-1       -0.00812  -0.00304  -0.00572   0.00301  -0.00697
  13        6D+2       -0.00127  -0.00161  -0.00270   0.00259  -0.00090
  14        6D-2        0.00225   0.00278  -0.00155   0.00053   0.00320
  15 2   O  1S          0.05561   0.00122  -0.00576   0.00182  -0.01244
  16        2S          0.10074   0.00400  -0.00743   0.00391  -0.03601
  17        3S          0.17506  -0.00201  -0.07317   0.00043   0.01795
  18        4PX        -0.07826   0.23629   0.37021   0.31232  -0.13252
  19        4PY        -0.18185   0.25460  -0.18030  -0.24214  -0.33600
  20        4PZ        -0.26756  -0.18392  -0.00190   0.03850   0.22812
  21        5PX        -0.05576   0.18333   0.28754   0.26116  -0.11559
  22        5PY        -0.13376   0.21267  -0.15089  -0.20346  -0.26026
  23        5PZ        -0.18969  -0.15473  -0.02358   0.03058   0.18901
  24        6D 0       -0.00669  -0.00627  -0.00050   0.00052   0.00665
  25        6D+1       -0.00373   0.00433   0.00769   0.00633  -0.00140
  26        6D-1       -0.00812   0.00304  -0.00572  -0.00301  -0.00697
  27        6D+2        0.00127  -0.00161   0.00270   0.00259   0.00090
  28        6D-2       -0.00225   0.00278   0.00155   0.00053  -0.00320
  29 3   C  1S         -0.03915   0.00491  -0.02118  -0.03390  -0.01619
  30        2S          0.10051  -0.00161   0.03681   0.07149   0.04152
  31        3S         -0.03932  -0.08860   0.38783   0.37002   0.08550
  32        4PX         0.06083  -0.00223  -0.01134   0.05928   0.03347
  33        4PY         0.06396   0.06410  -0.06710  -0.14539  -0.02941
  34        4PZ        -0.23943   0.02203  -0.00907  -0.00103   0.01308
  35        5PX         0.00263  -0.14260   0.15292  -0.07176   0.03403
  36        5PY         0.03207  -0.02969  -0.17537   0.01574  -0.13281
  37        5PZ        -0.07594  -0.09899   0.22558   0.10800  -0.09121
  38        6D 0        0.00614   0.02160  -0.00253  -0.00676   0.01918
  39        6D+1       -0.00263   0.00928  -0.01730   0.01497   0.00603
  40        6D-1       -0.01736   0.00962   0.00248  -0.01554   0.01080
  41        6D+2        0.00069  -0.00173   0.01210  -0.01410   0.00592
  42        6D-2        0.00021  -0.00560   0.00849  -0.01211  -0.00583
  43 4   C  1S          0.03915   0.00491   0.02118  -0.03390   0.01619
  44        2S         -0.10051  -0.00161  -0.03681   0.07149  -0.04152
  45        3S          0.03932  -0.08860  -0.38783   0.37002  -0.08550
  46        4PX         0.06083   0.00223  -0.01134  -0.05928   0.03347
  47        4PY         0.06396  -0.06410  -0.06710   0.14539  -0.02941
  48        4PZ         0.23943   0.02203   0.00907  -0.00103  -0.01308
  49        5PX         0.00263   0.14260   0.15292   0.07176   0.03403
  50        5PY         0.03207   0.02969  -0.17537  -0.01574  -0.13281
  51        5PZ         0.07594  -0.09899  -0.22558   0.10800   0.09121
  52        6D 0       -0.00614   0.02160   0.00253  -0.00676  -0.01918
  53        6D+1       -0.00263  -0.00928  -0.01730  -0.01497   0.00603
  54        6D-1       -0.01736  -0.00962   0.00248   0.01554   0.01080
  55        6D+2       -0.00069  -0.00173  -0.01210  -0.01410  -0.00592
  56        6D-2       -0.00021  -0.00560  -0.00849  -0.01211   0.00583
  57 5   C  1S          0.01842  -0.04309   0.01081   0.01746  -0.02987
  58        2S         -0.04788   0.07605  -0.02655  -0.02611   0.05441
  59        3S          0.05319   0.65529  -0.26602  -0.31424   0.49796
  60        4PX        -0.00107  -0.01632   0.01720   0.03018  -0.03182
  61        4PY         0.03876  -0.05490   0.03674   0.03250  -0.02452
  62        4PZ         0.12508  -0.10684   0.03576   0.05311  -0.08797
  63        5PX         0.02897   0.00223  -0.02655   0.17986  -0.07382
  64        5PY         0.00331  -0.14066   0.13110   0.03527  -0.12136
  65        5PZ         0.07900  -0.01559   0.08096   0.09505   0.04842
  66        6D 0        0.00651  -0.00146  -0.00191  -0.00248  -0.00402
  67        6D+1       -0.00345   0.00114   0.00030  -0.00293  -0.00022
  68        6D-1       -0.00332   0.00177   0.00081   0.00233   0.00383
  69        6D+2       -0.00105   0.00067   0.00179  -0.00553  -0.00284
  70        6D-2       -0.00336   0.00013   0.00251  -0.00233  -0.00298
  71 6   C  1S         -0.01842  -0.04309  -0.01081   0.01746   0.02987
  72        2S          0.04788   0.07605   0.02655  -0.02611  -0.05441
  73        3S         -0.05319   0.65529   0.26602  -0.31424  -0.49796
  74        4PX        -0.00107   0.01632   0.01720  -0.03018  -0.03182
  75        4PY         0.03876   0.05490   0.03674  -0.03250  -0.02452
  76        4PZ        -0.12508  -0.10684  -0.03576   0.05311   0.08797
  77        5PX         0.02897  -0.00223  -0.02655  -0.17986  -0.07382
  78        5PY         0.00331   0.14066   0.13110  -0.03527  -0.12136
  79        5PZ        -0.07900  -0.01559  -0.08096   0.09505  -0.04842
  80        6D 0       -0.00651  -0.00146   0.00191  -0.00248   0.00402
  81        6D+1       -0.00345  -0.00114   0.00030   0.00293  -0.00022
  82        6D-1       -0.00332  -0.00177   0.00081  -0.00233   0.00383
  83        6D+2        0.00105   0.00067  -0.00179  -0.00553   0.00284
  84        6D-2        0.00336   0.00013  -0.00251  -0.00233   0.00298
  85 7   C  1S         -0.00982   0.00747   0.00877  -0.00118   0.00600
  86        2S          0.03344  -0.00948  -0.00861  -0.00192  -0.00177
  87        3S         -0.07475  -0.23609  -0.10690   0.09031  -0.33338
  88        4PX        -0.00372  -0.02789   0.00996  -0.01832  -0.01410
  89        4PY         0.02320  -0.00458   0.00159  -0.00716  -0.02049
  90        4PZ        -0.08288   0.03803   0.00800  -0.00629   0.04902
  91        5PX        -0.02813  -0.08198   0.03149  -0.04443  -0.06163
  92        5PY         0.07447  -0.08023   0.01720   0.00599  -0.06005
  93        5PZ        -0.01057   0.10390  -0.02572  -0.03435   0.15616
  94        6D 0       -0.00500   0.00508  -0.00073  -0.00234   0.00376
  95        6D+1       -0.00158   0.00068   0.00133  -0.00175   0.00095
  96        6D-1       -0.00695   0.00131   0.00069  -0.00068   0.00400
  97        6D+2       -0.00080   0.00188  -0.00119  -0.00008   0.00037
  98        6D-2        0.00013  -0.00173   0.00110  -0.00051  -0.00104
  99 8   C  1S          0.00982   0.00747  -0.00877  -0.00118  -0.00600
 100        2S         -0.03344  -0.00948   0.00861  -0.00192   0.00177
 101        3S          0.07475  -0.23609   0.10690   0.09031   0.33338
 102        4PX        -0.00372   0.02789   0.00996   0.01832  -0.01410
 103        4PY         0.02320   0.00458   0.00159   0.00716  -0.02049
 104        4PZ         0.08288   0.03803  -0.00800  -0.00629  -0.04902
 105        5PX        -0.02813   0.08198   0.03149   0.04443  -0.06163
 106        5PY         0.07447   0.08023   0.01720  -0.00599  -0.06005
 107        5PZ         0.01057   0.10390   0.02572  -0.03435  -0.15616
 108        6D 0        0.00500   0.00508   0.00073  -0.00234  -0.00376
 109        6D+1       -0.00158  -0.00068   0.00133   0.00175   0.00095
 110        6D-1       -0.00695  -0.00131   0.00069   0.00068   0.00400
 111        6D+2        0.00080   0.00188   0.00119  -0.00008  -0.00037
 112        6D-2       -0.00013  -0.00173  -0.00110  -0.00051   0.00104
 113 9   H  1S         -0.03991  -0.10047   0.12680  -0.10053  -0.05793
 114        2S         -0.02690  -0.19789   0.12398  -0.26186  -0.09213
 115        3PX        -0.00095  -0.00293   0.00197  -0.00285  -0.00025
 116        3PY         0.00151   0.00364   0.00064  -0.00332   0.00137
 117        3PZ        -0.00693  -0.00009   0.00084  -0.00431  -0.00091
 118 10  H  1S          0.03991  -0.10047  -0.12680  -0.10053   0.05793
 119        2S          0.02690  -0.19789  -0.12398  -0.26186   0.09213
 120        3PX        -0.00095   0.00293   0.00197   0.00285  -0.00025
 121        3PY         0.00151  -0.00364   0.00064   0.00332   0.00137
 122        3PZ         0.00693  -0.00009  -0.00084  -0.00431   0.00091
 123 11  H  1S          0.01472  -0.00398   0.00407   0.03190   0.03476
 124        2S          0.00333  -0.12499  -0.04553   0.22495  -0.08653
 125        3PX        -0.00027  -0.00039   0.00102   0.00031   0.00060
 126        3PY         0.00051  -0.00152   0.00045  -0.00004   0.00075
 127        3PZ         0.00403  -0.00475   0.00289   0.00066  -0.00319
 128 12  H  1S         -0.02247   0.01731   0.01759  -0.00892  -0.00028
 129        2S         -0.04673  -0.20643   0.10609  -0.12680  -0.10286
 130        3PX        -0.00070  -0.00312  -0.00006  -0.00016  -0.00115
 131        3PY         0.00070   0.00008   0.00120   0.00266   0.00012
 132        3PZ         0.00358  -0.00413   0.00062   0.00269  -0.00544
 133 13  H  1S          0.02247   0.01731  -0.01759  -0.00892   0.00028
 134        2S          0.04673  -0.20643  -0.10609  -0.12680   0.10286
 135        3PX        -0.00070   0.00312  -0.00006   0.00016  -0.00115
 136        3PY         0.00070  -0.00008   0.00120  -0.00266   0.00012
 137        3PZ        -0.00358  -0.00413  -0.00062   0.00269   0.00544
 138 14  H  1S         -0.05221   0.01663   0.00191  -0.01535   0.02621
 139        2S         -0.06028   0.06884   0.03797  -0.00390   0.07071
 140        3PX         0.00198  -0.00069   0.00055  -0.00048  -0.00026
 141        3PY         0.00140  -0.00007   0.00081  -0.00010  -0.00059
 142        3PZ        -0.00314   0.00230   0.00164  -0.00065   0.00196
 143 15  H  1S          0.05221   0.01663  -0.00191  -0.01535  -0.02621
 144        2S          0.06028   0.06884  -0.03797  -0.00390  -0.07071
 145        3PX         0.00198   0.00069   0.00055   0.00048  -0.00026
 146        3PY         0.00140   0.00007   0.00081   0.00010  -0.00059
 147        3PZ         0.00314   0.00230  -0.00164  -0.00065  -0.00196
 148 16  H  1S          0.01349   0.00392  -0.00448   0.01676  -0.00762
 149        2S         -0.00011  -0.02805   0.07682  -0.02569  -0.03846
 150        3PX        -0.00001   0.00079   0.00028   0.00067   0.00005
 151        3PY        -0.00050   0.00137  -0.00068  -0.00002  -0.00006
 152        3PZ        -0.00274   0.00164  -0.00190   0.00177   0.00109
 153 17  H  1S         -0.01349   0.00392   0.00448   0.01676   0.00762
 154        2S          0.00011  -0.02805  -0.07682  -0.02569   0.03846
 155        3PX        -0.00001  -0.00079   0.00028  -0.00067   0.00005
 156        3PY        -0.00050  -0.00137  -0.00068   0.00002  -0.00006
 157        3PZ         0.00274   0.00164   0.00190   0.00177  -0.00109
 158 18  H  1S         -0.01472  -0.00398  -0.00407   0.03190  -0.03476
 159        2S         -0.00333  -0.12499   0.04553   0.22495   0.08653
 160        3PX        -0.00027   0.00039   0.00102  -0.00031   0.00060
 161        3PY         0.00051   0.00152   0.00045   0.00004   0.00075
 162        3PZ        -0.00403  -0.00475  -0.00289   0.00066   0.00319
                          33        34        35        36        37
                           V         V         V         V         V
     Eigenvalues --     0.34342   0.36573   0.38766   0.42096   0.43281
   1 1   O  1S         -0.00353   0.00139  -0.00256   0.00384   0.00555
   2        2S         -0.01445   0.00584  -0.00430   0.01512   0.01060
   3        3S          0.04011  -0.01348  -0.02181  -0.02291   0.04106
   4        4PX         0.01922   0.03453  -0.01110   0.05940  -0.01077
   5        4PY         0.03223   0.01409  -0.00963   0.04631   0.04750
   6        4PZ        -0.02185   0.02190  -0.00127   0.01925   0.00330
   7        5PX         0.02247   0.04128  -0.00335   0.07704  -0.02233
   8        5PY         0.02650   0.01593  -0.00893   0.05688   0.04732
   9        5PZ        -0.00393   0.01515  -0.00543   0.01858   0.01765
  10        6D 0        0.00000   0.00015  -0.00080   0.00048   0.00148
  11        6D+1        0.00033  -0.00027  -0.00011  -0.00032  -0.00046
  12        6D-1        0.00030   0.00055  -0.00026   0.00007  -0.00078
  13        6D+2        0.00029   0.00011   0.00013   0.00036   0.00008
  14        6D-2       -0.00003   0.00064   0.00017   0.00042  -0.00000
  15 2   O  1S         -0.00353  -0.00139   0.00256   0.00384   0.00555
  16        2S         -0.01445  -0.00584   0.00430   0.01512   0.01060
  17        3S          0.04011   0.01348   0.02181  -0.02291   0.04106
  18        4PX        -0.01922   0.03453  -0.01110  -0.05940   0.01077
  19        4PY        -0.03223   0.01409  -0.00963  -0.04631  -0.04750
  20        4PZ        -0.02185  -0.02190   0.00127   0.01925   0.00330
  21        5PX        -0.02247   0.04128  -0.00335  -0.07704   0.02233
  22        5PY        -0.02650   0.01593  -0.00893  -0.05688  -0.04732
  23        5PZ        -0.00393  -0.01515   0.00543   0.01858   0.01765
  24        6D 0        0.00000  -0.00015   0.00080   0.00048   0.00148
  25        6D+1       -0.00033  -0.00027  -0.00011   0.00032   0.00046
  26        6D-1       -0.00030   0.00055  -0.00026  -0.00007   0.00078
  27        6D+2        0.00029  -0.00011  -0.00013   0.00036   0.00008
  28        6D-2       -0.00003  -0.00064  -0.00017   0.00042  -0.00000
  29 3   C  1S         -0.00627  -0.01390  -0.01620  -0.01592  -0.01573
  30        2S          0.00896   0.01513   0.02778   0.01165   0.03559
  31        3S         -0.07845   0.40577   0.42291   0.34638  -0.10703
  32        4PX        -0.02774  -0.08200  -0.01720  -0.10698   0.01827
  33        4PY        -0.02215  -0.02592  -0.00688  -0.02090  -0.02967
  34        4PZ        -0.00738  -0.00458   0.02497  -0.01569   0.00133
  35        5PX        -0.10337  -0.10842  -0.05442  -0.23823   0.02096
  36        5PY        -0.10025  -0.09418   0.05095  -0.04047  -0.09131
  37        5PZ        -0.00282   0.02506   0.12139   0.00177  -0.01578
  38        6D 0       -0.00674   0.00019   0.00301  -0.00274  -0.00432
  39        6D+1        0.00073  -0.00356  -0.00095  -0.00473  -0.00148
  40        6D-1        0.00395  -0.00185   0.00049  -0.00143   0.00129
  41        6D+2        0.00211  -0.00327   0.00152   0.00478  -0.00344
  42        6D-2        0.00006   0.00454  -0.00055   0.00002  -0.00344
  43 4   C  1S         -0.00627   0.01390   0.01620  -0.01592  -0.01573
  44        2S          0.00896  -0.01513  -0.02778   0.01165   0.03559
  45        3S         -0.07845  -0.40577  -0.42291   0.34638  -0.10703
  46        4PX         0.02774  -0.08200  -0.01720   0.10698  -0.01827
  47        4PY         0.02215  -0.02592  -0.00688   0.02090   0.02967
  48        4PZ        -0.00738   0.00458  -0.02497  -0.01569   0.00133
  49        5PX         0.10337  -0.10842  -0.05442   0.23823  -0.02096
  50        5PY         0.10025  -0.09418   0.05095   0.04047   0.09131
  51        5PZ        -0.00282  -0.02506  -0.12139   0.00177  -0.01578
  52        6D 0       -0.00674  -0.00019  -0.00301  -0.00274  -0.00432
  53        6D+1       -0.00073  -0.00356  -0.00095   0.00473   0.00148
  54        6D-1       -0.00395  -0.00185   0.00049   0.00143  -0.00129
  55        6D+2        0.00211   0.00327  -0.00152   0.00478  -0.00344
  56        6D-2        0.00006  -0.00454   0.00055   0.00002  -0.00344
  57 5   C  1S         -0.01651  -0.01359   0.03610  -0.03539  -0.04299
  58        2S          0.00343   0.01740   0.00055   0.00646   0.00162
  59        3S          0.30513   0.05633  -1.63905   1.55747   1.63130
  60        4PX         0.03254  -0.04261  -0.02740  -0.01252  -0.08649
  61        4PY         0.06484   0.06558  -0.08418   0.07680   0.09449
  62        4PZ        -0.00663   0.01001  -0.00584   0.06863   0.06664
  63        5PX         0.10012  -0.16590  -0.06614   0.03147  -0.42769
  64        5PY         0.19993   0.36017  -0.23501   0.39251   0.34623
  65        5PZ        -0.23301  -0.04767   0.08712   0.29201   0.14110
  66        6D 0       -0.00030  -0.00197   0.00015  -0.00267   0.00477
  67        6D+1       -0.00341  -0.00184  -0.00084   0.00023   0.00333
  68        6D-1        0.00002   0.00112   0.00384   0.00105   0.00379
  69        6D+2        0.00254  -0.00260   0.00431  -0.00284  -0.00280
  70        6D-2        0.00293   0.00459   0.00489   0.00631  -0.00481
  71 6   C  1S         -0.01651   0.01359  -0.03610  -0.03539  -0.04299
  72        2S          0.00343  -0.01740  -0.00055   0.00646   0.00162
  73        3S          0.30513  -0.05633   1.63905   1.55747   1.63130
  74        4PX        -0.03254  -0.04261  -0.02740   0.01252   0.08649
  75        4PY        -0.06484   0.06558  -0.08418  -0.07680  -0.09449
  76        4PZ        -0.00663  -0.01001   0.00584   0.06863   0.06664
  77        5PX        -0.10012  -0.16590  -0.06614  -0.03147   0.42769
  78        5PY        -0.19993   0.36017  -0.23501  -0.39251  -0.34623
  79        5PZ        -0.23301   0.04767  -0.08712   0.29201   0.14110
  80        6D 0       -0.00030   0.00197  -0.00015  -0.00267   0.00477
  81        6D+1        0.00341  -0.00184  -0.00084  -0.00023  -0.00333
  82        6D-1       -0.00002   0.00112   0.00384  -0.00105  -0.00379
  83        6D+2        0.00254   0.00260  -0.00431  -0.00284  -0.00280
  84        6D-2        0.00293  -0.00459  -0.00489   0.00631  -0.00481
  85 7   C  1S         -0.06220  -0.05408   0.02710   0.00865   0.03164
  86        2S          0.02300   0.01015  -0.00889   0.01744  -0.04621
  87        3S          2.14478   2.04773  -1.39412  -1.09365  -0.72359
  88        4PX        -0.09419  -0.15904  -0.11235  -0.13819   0.14040
  89        4PY         0.04021  -0.03001  -0.04704  -0.06569   0.02875
  90        4PZ         0.08677   0.03120  -0.08190  -0.07165   0.04902
  91        5PX        -0.17104  -0.30248  -0.42249  -0.71527   0.77024
  92        5PY         0.42757  -0.27230  -0.07733  -0.61081   0.01651
  93        5PZ         0.34713   0.05948  -0.69902  -0.22327   0.35525
  94        6D 0       -0.00085   0.00304  -0.00543   0.00112  -0.00079
  95        6D+1       -0.00000  -0.00086  -0.00090  -0.00812   0.00676
  96        6D-1       -0.00007  -0.00045  -0.00308  -0.01114  -0.00965
  97        6D+2       -0.00120  -0.00770  -0.00086   0.00402  -0.00057
  98        6D-2       -0.00401   0.00608  -0.00278  -0.00469   0.00961
  99 8   C  1S         -0.06220   0.05408  -0.02710   0.00865   0.03164
 100        2S          0.02300  -0.01015   0.00889   0.01744  -0.04621
 101        3S          2.14478  -2.04773   1.39412  -1.09365  -0.72359
 102        4PX         0.09419  -0.15904  -0.11235   0.13819  -0.14040
 103        4PY        -0.04021  -0.03001  -0.04704   0.06569  -0.02875
 104        4PZ         0.08677  -0.03120   0.08190  -0.07165   0.04902
 105        5PX         0.17104  -0.30248  -0.42249   0.71527  -0.77024
 106        5PY        -0.42757  -0.27230  -0.07733   0.61081  -0.01651
 107        5PZ         0.34713  -0.05948   0.69902  -0.22327   0.35525
 108        6D 0       -0.00085  -0.00304   0.00543   0.00112  -0.00079
 109        6D+1        0.00000  -0.00086  -0.00090   0.00812  -0.00676
 110        6D-1        0.00007  -0.00045  -0.00308   0.01114   0.00965
 111        6D+2       -0.00120   0.00770   0.00086   0.00402  -0.00057
 112        6D-2       -0.00401  -0.00608   0.00278  -0.00469   0.00961
 113 9   H  1S          0.02502  -0.00524  -0.01638   0.04801  -0.02161
 114        2S          0.01567  -0.32860  -0.18953  -0.38461  -0.07140
 115        3PX         0.00202   0.00179   0.00044   0.00070  -0.00105
 116        3PY         0.00120  -0.00331   0.00169  -0.00093   0.00048
 117        3PZ        -0.00283  -0.00073   0.00120  -0.00154  -0.00065
 118 10  H  1S          0.02502   0.00524   0.01638   0.04801  -0.02161
 119        2S          0.01567   0.32860   0.18953  -0.38461  -0.07140
 120        3PX        -0.00202   0.00179   0.00044  -0.00070   0.00105
 121        3PY        -0.00120  -0.00331   0.00169   0.00093  -0.00048
 122        3PZ        -0.00283   0.00073  -0.00120  -0.00154  -0.00065
 123 11  H  1S         -0.00740  -0.00170  -0.03132  -0.01737   0.01769
 124        2S         -0.36901  -0.60991   0.73960  -1.06435  -1.40031
 125        3PX         0.00126   0.00272   0.00127   0.00144  -0.00233
 126        3PY        -0.00106   0.00170  -0.00002  -0.00037  -0.00124
 127        3PZ         0.00062  -0.00115   0.00267   0.00112   0.00034
 128 12  H  1S          0.03784   0.02197  -0.00514   0.02454  -0.01090
 129        2S         -0.25774   0.21225   0.94375  -0.50426  -0.18524
 130        3PX        -0.00497  -0.00065   0.00463  -0.01031  -0.00552
 131        3PY         0.00162  -0.00136   0.00416  -0.00282  -0.00545
 132        3PZ        -0.00219  -0.00097   0.00079   0.00241   0.00643
 133 13  H  1S          0.03784  -0.02197   0.00514   0.02454  -0.01090
 134        2S         -0.25774  -0.21225  -0.94375  -0.50426  -0.18524
 135        3PX         0.00497  -0.00065   0.00463   0.01031   0.00552
 136        3PY        -0.00162  -0.00136   0.00416   0.00282   0.00545
 137        3PZ        -0.00219   0.00097  -0.00079   0.00241   0.00643
 138 14  H  1S          0.02281   0.03308  -0.02476  -0.04789  -0.02639
 139        2S         -1.68126  -0.52952   1.76724   1.54674  -0.60559
 140        3PX        -0.00521  -0.00341   0.00098  -0.00025   0.00314
 141        3PY        -0.00679  -0.00308   0.00012  -0.00231  -0.00013
 142        3PZ        -0.00552  -0.00552   0.00240  -0.00078   0.00130
 143 15  H  1S          0.02281  -0.03308   0.02476  -0.04789  -0.02639
 144        2S         -1.68126   0.52952  -1.76724   1.54674  -0.60559
 145        3PX         0.00521  -0.00341   0.00098   0.00025  -0.00314
 146        3PY         0.00679  -0.00308   0.00012   0.00231   0.00013
 147        3PZ        -0.00552   0.00552  -0.00240  -0.00078   0.00130
 148 16  H  1S          0.01406  -0.06268  -0.00606  -0.01129   0.04423
 149        2S         -0.76314  -1.25940  -0.32363  -0.68025   1.22964
 150        3PX         0.00212   0.00149  -0.00094  -0.00031   0.00194
 151        3PY        -0.00066  -0.00470   0.00597   0.00549  -0.00555
 152        3PZ        -0.00361  -0.00078   0.00446   0.00727  -0.00027
 153 17  H  1S          0.01406   0.06268   0.00606  -0.01129   0.04423
 154        2S         -0.76314   1.25940   0.32363  -0.68025   1.22964
 155        3PX        -0.00212   0.00149  -0.00094   0.00031  -0.00194
 156        3PY         0.00066  -0.00470   0.00597  -0.00549   0.00555
 157        3PZ        -0.00361   0.00078  -0.00446   0.00727  -0.00027
 158 18  H  1S         -0.00740   0.00170   0.03132  -0.01737   0.01769
 159        2S         -0.36901   0.60991  -0.73960  -1.06435  -1.40031
 160        3PX        -0.00126   0.00272   0.00127  -0.00144   0.00233
 161        3PY         0.00106   0.00170  -0.00002   0.00037   0.00124
 162        3PZ         0.00062   0.00115  -0.00267   0.00112   0.00034
     Density Matrix:
                           1         2         3         4         5
   1 1   O  1S          2.13446
   2        2S          0.26930   0.69554
   3        3S          0.33903   0.52914   0.47758
   4        4PX         0.00937   0.00816   0.10253   0.68604
   5        4PY         0.01497   0.01451   0.08725  -0.03159   0.67143
   6        4PZ        -0.04224  -0.07293  -0.16041   0.04509   0.09694
   7        5PX         0.00754   0.01443   0.08306   0.53874  -0.02920
   8        5PY         0.01628   0.04074   0.08204  -0.03623   0.52788
   9        5PZ        -0.03411  -0.09897  -0.13739   0.06541   0.09497
  10        6D 0        0.00160   0.00216  -0.00155   0.00311   0.00388
  11        6D+1       -0.00069  -0.00123   0.00208   0.01610  -0.00038
  12        6D-1       -0.00241  -0.00385   0.00065  -0.00064   0.01656
  13        6D+2       -0.00010  -0.00009   0.00031  -0.00326   0.00553
  14        6D-2        0.00061   0.00114  -0.00047  -0.00559  -0.00431
  15 2   O  1S         -0.00148  -0.00387   0.00196  -0.00160   0.01125
  16        2S         -0.00387  -0.00683  -0.00143   0.00225   0.02999
  17        3S          0.00196  -0.00143  -0.01052  -0.05089   0.01042
  18        4PX         0.00160  -0.00225   0.05089  -0.00583   0.00717
  19        4PY        -0.01125  -0.02999  -0.01042   0.00717   0.04762
  20        4PZ         0.00300   0.01038  -0.00937  -0.00011  -0.00255
  21        5PX         0.00064  -0.00162   0.04263  -0.01123   0.02181
  22        5PY        -0.00685  -0.02077  -0.00736  -0.00263   0.02979
  23        5PZ         0.00242   0.00639  -0.01348  -0.01262   0.00053
  24        6D 0        0.00003   0.00026  -0.00018   0.00020   0.00083
  25        6D+1       -0.00000  -0.00011   0.00054  -0.00055   0.00004
  26        6D-1       -0.00051  -0.00139  -0.00107  -0.00104   0.00349
  27        6D+2       -0.00017   0.00006   0.00037   0.00032   0.00151
  28        6D-2       -0.00022  -0.00026   0.00017   0.00060   0.00089
  29 3   C  1S         -0.00793  -0.01167   0.01290   0.03010   0.05000
  30        2S          0.00377  -0.00078  -0.07277  -0.08316  -0.12360
  31        3S         -0.02739   0.05568   0.07649   0.09076   0.01766
  32        4PX         0.01121   0.02542  -0.01859   0.05057  -0.03478
  33        4PY         0.01751   0.03991  -0.03452  -0.02909  -0.04775
  34        4PZ        -0.03539  -0.07965   0.03948   0.07317   0.16839
  35        5PX         0.00098   0.02902   0.03407   0.26165  -0.04649
  36        5PY        -0.00936   0.00700  -0.03212  -0.12066   0.17880
  37        5PZ         0.00529  -0.03495   0.04466   0.19469   0.13108
  38        6D 0        0.00722   0.01474   0.00612  -0.01382  -0.02879
  39        6D+1       -0.00358  -0.00651  -0.00605  -0.02611   0.00853
  40        6D-1       -0.00782  -0.01516  -0.00778   0.00894  -0.01242
  41        6D+2       -0.00154  -0.00315  -0.00027   0.01437  -0.01291
  42        6D-2        0.00212   0.00362   0.00334   0.01632  -0.00136
  43 4   C  1S          0.00413   0.00915   0.00874   0.01861  -0.03172
  44        2S         -0.00919  -0.02084  -0.01435  -0.03396   0.06651
  45        3S         -0.01162  -0.05682  -0.10450  -0.45693   0.38358
  46        4PX        -0.00040   0.00309  -0.02727  -0.00635  -0.03561
  47        4PY        -0.01131  -0.02724  -0.02474  -0.04602   0.08160
  48        4PZ         0.00699   0.01568   0.02411  -0.00949  -0.00413
  49        5PX         0.00347   0.00699   0.01370  -0.01266  -0.10627
  50        5PY        -0.00583  -0.02965  -0.03038  -0.07616   0.09979
  51        5PZ        -0.00005  -0.00233  -0.04475  -0.21202   0.11221
  52        6D 0       -0.00024  -0.00007   0.00285   0.00122   0.00062
  53        6D+1       -0.00039  -0.00072  -0.00473  -0.00138  -0.00196
  54        6D-1       -0.00051   0.00019   0.00212  -0.00294   0.01026
  55        6D+2       -0.00060  -0.00048   0.00012  -0.00015   0.00450
  56        6D-2        0.00015   0.00071  -0.00124   0.00307  -0.00185
  57 5   C  1S          0.00284   0.00517   0.01067   0.01404   0.02878
  58        2S         -0.00430  -0.00715  -0.01081  -0.02834  -0.03918
  59        3S         -0.00831  -0.03539  -0.12425  -0.41782  -0.71185
  60        4PX        -0.00095  -0.00075  -0.01083  -0.01578   0.02398
  61        4PY        -0.00275  -0.00440  -0.01376   0.01879   0.00756
  62        4PZ         0.01136   0.02586   0.02454   0.01920   0.04378
  63        5PX        -0.00041  -0.00383  -0.00958  -0.11769   0.12370
  64        5PY        -0.00444  -0.00619   0.01385   0.15406   0.09484
  65        5PZ        -0.00022   0.01924   0.01127  -0.03459  -0.05443
  66        6D 0        0.00070  -0.00060  -0.00395   0.00081  -0.00036
  67        6D+1       -0.00017  -0.00058  -0.00008  -0.00129   0.00012
  68        6D-1       -0.00015  -0.00078  -0.00019  -0.00053  -0.00073
  69        6D+2       -0.00010  -0.00049  -0.00073   0.00127  -0.00137
  70        6D-2        0.00011   0.00024   0.00173   0.00206   0.00186
  71 6   C  1S         -0.00122  -0.00235  -0.00210  -0.00324   0.01337
  72        2S          0.00260  -0.00149   0.00743   0.00606  -0.02742
  73        3S          0.00255   0.02789   0.11917   0.21759  -0.19597
  74        4PX         0.00073   0.00289  -0.00603   0.02332  -0.00846
  75        4PY         0.00453   0.00823   0.02332   0.00986  -0.02253
  76        4PZ        -0.00481  -0.00912  -0.02233  -0.01801   0.03162
  77        5PX        -0.00293  -0.00853  -0.00794   0.09724  -0.02884
  78        5PY         0.00528   0.02249   0.06174   0.07706  -0.02859
  79        5PZ        -0.00636  -0.01077  -0.01303  -0.08772   0.12204
  80        6D 0        0.00019   0.00091  -0.00004   0.00144  -0.00220
  81        6D+1        0.00003  -0.00024   0.00040   0.00012   0.00166
  82        6D-1        0.00014  -0.00004  -0.00099   0.00073  -0.00301
  83        6D+2       -0.00002   0.00015  -0.00068  -0.00030  -0.00367
  84        6D-2        0.00006   0.00032  -0.00061  -0.00195  -0.00194
  85 7   C  1S         -0.00145  -0.00454   0.00985   0.00386  -0.00251
  86        2S          0.00276   0.00260  -0.01309  -0.00458  -0.01718
  87        3S          0.00629   0.02373   0.04230   0.06033   0.41347
  88        4PX         0.00027   0.00150  -0.00594   0.02617   0.01085
  89        4PY         0.00249   0.00679  -0.00342   0.00764   0.00773
  90        4PZ        -0.00636  -0.01217  -0.02183  -0.00466  -0.01491
  91        5PX        -0.00027  -0.00417   0.00652   0.08985   0.05112
  92        5PY        -0.00054  -0.01239  -0.01746   0.05512   0.04390
  93        5PZ        -0.00456  -0.01655  -0.03861  -0.07856  -0.15434
  94        6D 0        0.00006   0.00014   0.00049  -0.00046  -0.00208
  95        6D+1       -0.00004  -0.00043  -0.00014   0.00227  -0.00096
  96        6D-1       -0.00002  -0.00087  -0.00075   0.00011  -0.00126
  97        6D+2       -0.00010  -0.00025   0.00040  -0.00168  -0.00021
  98        6D-2        0.00004   0.00003  -0.00018   0.00113   0.00081
  99 8   C  1S         -0.00011  -0.00166   0.00826  -0.00526   0.00453
 100        2S          0.00030   0.00062  -0.00915   0.00556  -0.00221
 101        3S         -0.00264  -0.03049  -0.07325   0.04167  -0.16201
 102        4PX        -0.00020  -0.00114   0.00771  -0.00545   0.00298
 103        4PY        -0.00131  -0.00446   0.00560   0.00097   0.00353
 104        4PZ         0.00012   0.00190  -0.00661  -0.00261   0.00970
 105        5PX         0.00117   0.01225   0.02840  -0.01178   0.02646
 106        5PY        -0.00372  -0.00584  -0.00158  -0.00337  -0.02140
 107        5PZ         0.00030  -0.00035   0.02347   0.03568   0.03409
 108        6D 0        0.00024   0.00026   0.00041   0.00007  -0.00092
 109        6D+1        0.00003  -0.00004   0.00090   0.00015   0.00000
 110        6D-1       -0.00048  -0.00042  -0.00038   0.00029  -0.00077
 111        6D+2        0.00011  -0.00000   0.00122   0.00011  -0.00071
 112        6D-2        0.00006   0.00007  -0.00028  -0.00013   0.00064
 113 9   H  1S         -0.01188  -0.03315   0.01550   0.12326   0.00951
 114        2S          0.00174  -0.01210   0.03590   0.31118   0.00949
 115        3PX         0.00047  -0.00052  -0.00011   0.00013  -0.00130
 116        3PY         0.00028  -0.00125  -0.00204  -0.00130  -0.00441
 117        3PZ        -0.00071   0.00178   0.00420   0.00583   0.00345
 118 10  H  1S         -0.00486  -0.00529  -0.03910  -0.01535   0.01293
 119        2S          0.00190   0.00664  -0.02067   0.12233  -0.03500
 120        3PX        -0.00009   0.00029   0.00124  -0.00171  -0.00040
 121        3PY         0.00027  -0.00015  -0.00010   0.00146   0.00088
 122        3PZ        -0.00019   0.00056   0.00033   0.00117  -0.00233
 123 11  H  1S         -0.00193  -0.00428  -0.00775  -0.00863  -0.01743
 124        2S          0.00721   0.01098   0.02043  -0.07084   0.24481
 125        3PX        -0.00021  -0.00040  -0.00070  -0.00007  -0.00046
 126        3PY        -0.00019   0.00057   0.00078   0.00054  -0.00070
 127        3PZ        -0.00001   0.00049   0.00107   0.00430   0.00121
 128 12  H  1S         -0.00279  -0.00573  -0.01219  -0.01037  -0.01410
 129        2S          0.00519   0.00818   0.04143   0.25928   0.09417
 130        3PX         0.00006   0.00115   0.00221   0.00089   0.00224
 131        3PY        -0.00014   0.00002   0.00039  -0.00112   0.00002
 132        3PZ        -0.00016   0.00067   0.00098   0.00005   0.00455
 133 13  H  1S         -0.00060  -0.00459   0.00347  -0.01268  -0.00902
 134        2S         -0.00284  -0.00696  -0.02606   0.06022   0.00550
 135        3PX        -0.00010   0.00063   0.00153  -0.00059  -0.00037
 136        3PY         0.00030  -0.00025   0.00014   0.00163  -0.00131
 137        3PZ         0.00004   0.00000  -0.00069  -0.00123   0.00010
 138 14  H  1S         -0.00189   0.00018  -0.01735   0.00441  -0.00605
 139        2S          0.00256   0.00955   0.01321  -0.00572  -0.05297
 140        3PX         0.00011  -0.00016  -0.00010   0.00089  -0.00060
 141        3PY         0.00012   0.00001   0.00067   0.00024  -0.00046
 142        3PZ        -0.00013  -0.00038   0.00143   0.00100  -0.00157
 143 15  H  1S          0.00047   0.00713  -0.01108   0.00299   0.00202
 144        2S          0.00324   0.01554   0.00979  -0.03825   0.03202
 145        3PX         0.00017  -0.00033  -0.00055  -0.00010  -0.00054
 146        3PY        -0.00002   0.00023  -0.00032   0.00072  -0.00013
 147        3PZ         0.00015  -0.00047   0.00049  -0.00148  -0.00007
 148 16  H  1S         -0.00021  -0.00332   0.00048  -0.01269   0.00215
 149        2S         -0.00320  -0.00932   0.01122   0.08553  -0.00316
 150        3PX        -0.00010  -0.00000  -0.00033  -0.00032  -0.00058
 151        3PY        -0.00014   0.00044   0.00018  -0.00096   0.00011
 152        3PZ        -0.00018   0.00014  -0.00045  -0.00278   0.00122
 153 17  H  1S          0.00003  -0.00115   0.00260  -0.00573   0.00027
 154        2S         -0.00186  -0.00497  -0.01291  -0.04046   0.00330
 155        3PX         0.00007   0.00018   0.00078   0.00106   0.00023
 156        3PY        -0.00002  -0.00014   0.00015   0.00009   0.00075
 157        3PZ         0.00004   0.00015   0.00027   0.00019  -0.00021
 158 18  H  1S         -0.00217  -0.00443  -0.00762   0.00210   0.02644
 159        2S          0.00377   0.00899   0.00988  -0.05428   0.08866
 160        3PX         0.00022  -0.00011  -0.00032   0.00016  -0.00092
 161        3PY         0.00014   0.00011  -0.00057  -0.00100  -0.00168
 162        3PZ        -0.00009  -0.00017  -0.00062  -0.00007   0.00145
                           6         7         8         9        10
   6        4PZ         0.53247
   7        5PX         0.04900   0.42563
   8        5PY         0.09154  -0.03187   0.41947
   9        5PZ         0.39095   0.06051   0.08311   0.29491
  10        6D 0        0.01712   0.00285   0.00352   0.01216   0.00065
  11        6D+1       -0.00297   0.01221  -0.00065  -0.00132  -0.00005
  12        6D-1       -0.00467  -0.00072   0.01228  -0.00249  -0.00014
  13        6D+2       -0.00010  -0.00250   0.00419   0.00000   0.00001
  14        6D-2       -0.00050  -0.00418  -0.00323  -0.00082  -0.00004
  15 2   O  1S          0.00300  -0.00064   0.00685   0.00242   0.00003
  16        2S          0.01038   0.00162   0.02077   0.00639   0.00026
  17        3S         -0.00937  -0.04263   0.00736  -0.01348  -0.00018
  18        4PX         0.00011  -0.01123  -0.00263   0.01262  -0.00020
  19        4PY         0.00255   0.02181   0.02979  -0.00053  -0.00083
  20        4PZ        -0.02044  -0.00408   0.00348  -0.01399   0.00027
  21        5PX         0.00408  -0.01457   0.01141   0.01370  -0.00010
  22        5PY        -0.00348   0.01141   0.01588  -0.00568  -0.00068
  23        5PZ        -0.01399  -0.01370   0.00568  -0.01076   0.00031
  24        6D 0        0.00027   0.00010   0.00068   0.00031   0.00005
  25        6D+1       -0.00004  -0.00053  -0.00021   0.00012   0.00000
  26        6D-1        0.00066  -0.00060   0.00288   0.00050  -0.00002
  27        6D+2        0.00056   0.00020   0.00101   0.00056   0.00004
  28        6D-2        0.00007   0.00049   0.00056   0.00010   0.00000
  29 3   C  1S         -0.08496   0.02643   0.03534  -0.05770  -0.00531
  30        2S          0.19121  -0.06143  -0.08017   0.11799   0.00753
  31        3S          0.01000   0.05032   0.02487   0.02015   0.00056
  32        4PX         0.08053   0.02146  -0.01508   0.04848   0.00437
  33        4PY         0.17407  -0.00712  -0.05069   0.10655   0.00889
  34        4PZ        -0.24916   0.04368   0.10857  -0.17117  -0.00547
  35        5PX         0.03569   0.19813  -0.03310   0.03263   0.00220
  36        5PY         0.14567  -0.08556   0.14014   0.09892   0.00531
  37        5PZ         0.02030   0.14509   0.09630   0.03778   0.00124
  38        6D 0       -0.00816  -0.01063  -0.02248  -0.00914  -0.00008
  39        6D+1       -0.00996  -0.02152   0.00652  -0.00806  -0.00033
  40        6D-1       -0.02135   0.00649  -0.01191  -0.01513  -0.00063
  41        6D+2       -0.00743   0.01172  -0.01104  -0.00480  -0.00029
  42        6D-2        0.00864   0.01361  -0.00161   0.00664   0.00040
  43 4   C  1S          0.00015   0.01878  -0.03024  -0.00072   0.00036
  44        2S         -0.00173  -0.03392   0.06177   0.00249  -0.00114
  45        3S          0.12821  -0.36759   0.32223   0.08396   0.00249
  46        4PX        -0.00345  -0.00187  -0.03362  -0.01237   0.00022
  47        4PY        -0.00655  -0.05116   0.08427  -0.00539  -0.00165
  48        4PZ         0.00346  -0.00829  -0.00831   0.00380   0.00041
  49        5PX        -0.05202  -0.01310  -0.08969  -0.03989  -0.00140
  50        5PY         0.03320  -0.05878   0.08462   0.02226   0.00018
  51        5PZ         0.01547  -0.17278   0.09838   0.00088   0.00036
  52        6D 0       -0.00054   0.00181  -0.00081  -0.00008  -0.00002
  53        6D+1        0.00097  -0.00048  -0.00096  -0.00015   0.00001
  54        6D-1       -0.00714  -0.00348   0.00835  -0.00496  -0.00014
  55        6D+2       -0.00329   0.00078   0.00302  -0.00239  -0.00019
  56        6D-2        0.00104   0.00263  -0.00194   0.00032   0.00012
[...]
 0.1963967,-0.0002253,0.0111731,-0.0855697,0.2425905,0.0283663,0.001795
 ,0.0079403,-0.0221703,-0.1963967,0.0002252,0.0111731,0.0855697,0.24259
 05,-0.1400104,0.027431,0.0471335,-0.0265005,-0.1497071,0.1563712,0.114
 612,0.1028655,-0.7892807,-0.1400104,-0.027431,0.0471335,0.0265005,-0.1
 497071,-0.1563711,0.114612,-0.1028654,-0.7892808,-0.3267957,0.0357586,
 -0.0824347,-0.0428285,0.0133829,0.0115385,-0.111342,0.0244592,0.011049
 5,0.0092184,-0.0362867,0.0198735,-0.0483805,0.0223281,0.0508867,0.0629
 578,-0.0292565,-0.1227378,0.0092184,0.0362867,0.0198735,0.0483805,0.02
 23281,-0.0508867,0.0629578,0.0292566,-0.1227378,-0.0428795,0.1036036,-
 0.0051371,0.0726457,-0.1372655,-0.0291044,0.0117792,-0.0609275,0.01991
 96,-0.0428795,-0.1036035,-0.0051371,-0.0726457,-0.1372656,0.0291044,0.
 0117792,0.0609275,0.0199197,-0.0289703,-0.0151926,-0.0163557,-0.001869
 1,0.0754372,0.0101822,-0.0342404,0.1397139,-0.2972247,-0.0289703,0.015
 1926,-0.0163557,0.0018691,0.0754373,-0.0101822,-0.0342404,-0.1397139,-
 0.2972247,-0.3267957,-0.0357586,-0.0824347,0.0428284,0.0133829,-0.0115
 385,-0.1113419,-0.0244592,0.0110495\Polar=79.9082543,-0.0000005,86.085
 7183,1.0707572,0.0000005,79.7169642\Quadrupole=-0.4747674,-10.5446343,
 11.0194017,0.0000008,-0.8924374,-0.0000015\PG=C02 [X(C6H10O2)]\NImag=9
 \\0.13022978,0.07296574,0.21575591,-0.01466697,-0.03641357,0.07512168,
 -0.00465777,0.00916301,-0.00163631,0.13022980,-0.00916301,0.01195185,-
 0.00021368,-0.07296575,0.21575588,-0.00163632,0.00021368,0.00501070,-0
 .01466698,0.03641359,0.07512169,-0.10258450,-0.03184769,0.00757820,-0.
 03170564,0.02076305,-0.00065238,0.47524584,-0.01435310,-0.13743836,0.0
 1074206,0.03109316,-0.02500590,0.00639003,-0.04467005,0.40064787,-0.00
 358695,-0.00658664,-0.09607673,0.00748698,-0.00107467,0.00426552,0.027
 99747,0.04508312,0.41812460,-0.03170563,-0.02076305,-0.00065238,-0.102
 58451,0.03184769,0.00757821,-0.14881489,0.00541201,-0.05231366,0.47524
 583,-0.03109316,-0.02500591,-0.00639004,0.01435311,-0.13743835,-0.0107
 4206,-0.00541202,-0.04758663,-0.00037309,0.04467006,0.40064789,0.00748
 697,0.00107466,0.00426552,-0.00358695,0.00658663,-0.09607673,-0.052313
 66,0.00037309,-0.09165781,0.02799749,-0.04508312,0.41812459,0.01251481
 ,-0.01352439,-0.00398915,-0.00900195,0.00287287,-0.00314971,-0.1186987
 1,0.04236980,0.01577408,-0.01646640,0.02982849,0.01030101,0.61612921,-
 0.00412777,-0.04897234,0.00356692,-0.00068521,0.00085320,0.00078797,0.
 05872263,-0.11545675,-0.03071880,0.01078158,-0.00308685,-0.00213884,-0
 .02318012,0.23250750,-0.00554439,0.00753909,0.00734987,-0.00237023,0.0
 0073595,0.00168964,0.01979489,-0.02838653,-0.09158302,-0.00587087,0.00
 911941,0.00559672,0.03681274,0.05882749,1.52981837,-0.00900195,-0.0028
 7287,-0.00314971,0.01251480,0.01352440,-0.00398914,-0.01646640,-0.0298
 2850,0.01030101,-0.11869869,-0.04236980,0.01577407,0.00231609,0.000751
 35,0.00119225,0.61612920,0.00068520,0.00085320,-0.00078797,0.00412778,
 -0.04897233,-0.00356693,-0.01078158,-0.00308685,0.00213884,-0.05872264
 ,-0.11545677,0.03071880,-0.00075135,0.00034612,0.00014733,0.02318017,0
 .23250753,-0.00237023,-0.00073595,0.00168964,-0.00554439,-0.00753910,0
 .00734987,-0.00587087,-0.00911941,0.00559672,0.01979488,0.02838652,-0.
 09158302,0.00119225,-0.00014733,-0.00089815,0.03681275,-0.05882766,1.5
 2981836,0.00053867,0.00599358,-0.00043004,-0.00006738,-0.00075601,-0.0
 0023095,0.01458081,0.00682436,-0.00506323,0.00146356,-0.00073725,-0.00
 012488,-0.11601282,-0.03098659,0.02101588,-0.02271202,0.00543540,-0.00
 668353,0.69583884,0.00432906,-0.00755453,-0.00152852,-0.00131838,0.002
 22499,0.00001788,-0.02092851,-0.03296617,0.00848310,0.00074304,0.00126
 710,0.00114845,-0.04782343,-0.15596677,0.03216472,0.03299458,0.0010464
 8,0.01256439,-0.58825107,1.13768919,0.00069248,-0.00220317,0.00182748,
 -0.00022621,-0.00022042,-0.00025195,-0.00784618,-0.00399981,0.00445467
 ,0.00013131,0.00045108,-0.00047662,0.01297821,0.01159327,-0.09541263,0
 .00709991,0.00265177,0.00540366,-0.19589265,0.29984673,0.41644711,-0.0
 0006738,0.00075601,-0.00023095,0.00053867,-0.00599358,-0.00043004,0.00
 146356,0.00073725,-0.00012488,0.01458081,-0.00682436,-0.00506323,-0.02
 271202,-0.00543541,-0.00668353,-0.11601283,0.03098659,0.02101589,-0.20
 373123,0.00914906,-0.04663665,0.69583867,0.00131838,0.00222499,-0.0000
 1788,-0.00432906,-0.00755453,0.00152852,-0.00074304,0.00126710,-0.0011
 4845,0.02092851,-0.03296617,-0.00848311,-0.03299458,0.00104647,-0.0125
 6439,0.04782343,-0.15596675,-0.03216472,-0.00914907,-0.09246936,-0.002
 70339,0.58825103,1.13768944,-0.00022621,0.00022042,-0.00025195,0.00069
 248,0.00220317,0.00182748,0.00013131,-0.00045108,-0.00047662,-0.007846
 18,0.00399981,0.00445467,0.00709990,-0.00265177,0.00540366,0.01297822,
 -0.01159327,-0.09541263,-0.04663666,0.00270339,-0.10243464,-0.19589252
 ,-0.29984666,0.41644703,0.00012693,-0.01155119,0.01641083,0.00162068,-
 0.00096513,0.00163634,-0.04955975,0.00213813,0.00204695,0.00213747,-0.
 00056102,-0.02210780,-0.00284866,0.00626693,0.01920860,0.00061982,0.00
 143634,-0.00076483,0.00019934,-0.00075334,0.00126964,-0.00002621,0.000
 37308,0.00012437,0.05141623,-0.01518007,-0.01705225,0.03109006,0.00042
 368,0.00052655,-0.00039637,0.00375236,-0.03699649,-0.00411652,-0.00005
 589,0.00045898,0.00165397,0.00515858,-0.00274869,-0.02341728,0.0003325
 7,-0.00009512,-0.00015917,0.00070482,0.00115472,-0.00162628,0.00012168
 ,0.00013084,-0.00006389,0.00266949,0.05785402,0.02150553,0.03388847,-0
 .00802803,-0.00102215,-0.00003177,0.00588064,-0.00995391,-0.02431139,-
 0.12937636,0.00754444,-0.00479196,-0.01780758,-0.00036528,-0.00274614,
 -0.02033466,0.00014961,0.00063192,-0.00107194,-0.00047072,0.00178709,-
 0.00204956,-0.00030740,-0.00044682,0.00030647,-0.01610570,-0.00024360,
 0.16731280,0.00162068,0.00096513,0.00163634,0.00012692,0.01155119,0.01
 641083,0.00213747,0.00056103,-0.02210780,-0.04955975,-0.00213813,0.002
 04695,0.00061982,-0.00143634,-0.00076483,-0.00284866,-0.00626693,0.019
 20860,-0.00002621,-0.00037308,0.00012437,0.00019934,0.00075334,0.00126
 964,-0.00372094,-0.00061694,-0.00287348,0.05141623,-0.00042368,0.00052
 655,0.00039637,0.01518007,-0.01705223,-0.03109006,0.00005589,0.0004589
 8,-0.00165397,-0.00375236,-0.03699650,0.00411653,-0.00033257,-0.000095
 12,0.00015917,-0.00515858,-0.00274869,0.02341728,-0.00012168,0.0001308
 4,0.00006389,-0.00070482,0.00115472,0.00162628,0.00061694,-0.00009916,
 0.00072134,-0.00266949,0.05785401,-0.00102215,0.00003177,0.00588064,0.
 02150553,-0.03388847,-0.00802803,0.00754444,0.00479196,-0.01780758,-0.
 00995391,0.02431140,-0.12937636,0.00014961,-0.00063192,-0.00107194,-0.
 00036528,0.00274614,-0.02033466,-0.00030740,0.00044682,0.00030647,-0.0
 0047072,-0.00178709,-0.00204956,-0.00287348,-0.00072134,-0.00207096,-0
 .01610570,0.00024358,0.16731280,0.00421027,-0.00143916,0.00150137,-0.0
 0218430,0.00186186,-0.00039900,-0.01964313,-0.00135035,-0.01113444,0.0
 0233664,0.00292544,0.00520798,-0.44537363,0.01031217,-0.23523311,0.000
 94915,0.00011374,-0.00047244,-0.01454506,0.00157231,-0.00748880,-0.000
 55111,-0.00424258,0.00217193,0.00106872,-0.00041416,0.00134530,0.00029
 730,-0.00032133,-0.00069775,0.46913897,-0.00334560,0.00399119,-0.00169
 500,0.00286888,-0.00107292,0.00023745,0.02992544,0.00165150,0.01477314
 ,-0.00149936,-0.00588538,-0.00307679,0.01521517,-0.00089400,0.00970882
 ,0.00015888,0.00018831,0.00033810,-0.02997342,-0.00218163,-0.01518516,
 -0.00204018,-0.00576520,0.00262917,-0.00165825,0.00043022,0.00109845,-
 0.00004867,0.00027436,0.00039408,-0.01029269,0.00671249,0.00022764,0.0
 0240345,-0.00112861,0.00030842,-0.00015360,0.00032756,0.01281167,-0.00
 292491,0.00425610,-0.00014727,-0.00093703,-0.00045873,-0.22416705,0.00
 479165,-0.13579087,0.00003217,0.00003411,-0.00016136,0.01425978,0.0020
 6632,0.00290278,0.00111239,0.00165758,0.00015304,0.00049360,0.00057756
 ,0.00125339,0.00014037,0.00028850,0.00082689,0.23820879,-0.00692782,0.
 13638197,-0.00005633,-0.00325892,-0.00151413,0.00008209,-0.00029434,-0
 .00106427,-0.00427575,0.00128881,0.02150919,0.00091179,-0.00048288,0.0
 0201606,0.09295588,0.00777220,0.15377041,-0.00026114,0.00001899,0.0002
 5464,-0.00598161,-0.00384982,0.02315692,0.00137092,0.00144895,0.001155
 66,-0.00103307,0.00274642,0.00263519,-0.00047664,0.00017205,-0.0010140
 0,0.00416509,0.00069640,-0.04301837,-0.08759841,-0.00069060,0.00465634
 ,0.00358688,-0.00015087,-0.00051792,0.00070224,0.00596720,-0.00167659,
 -0.03643264,-0.00201643,0.00145660,-0.00016276,0.00706524,0.12031319,-
 0.07263939,-0.00032808,-0.00012669,-0.00017058,-0.01104624,-0.01041356
 ,0.04303697,0.00160197,0.00257409,0.00013181,0.00312331,-0.00479404,-0
 .00188116,0.00074384,0.00018788,0.00076684,0.00092351,-0.00109593,0.00
 068986,-0.00402922,-0.10705209,-0.00113989,-0.00008732,0.00247197,-0.0
 0016130,0.00001051,0.00059343,-0.00045431,0.00508655,-0.00513286,-0.00
 167659,0.00053877,-0.00045674,0.15388873,-0.06226070,-1.19586051,0.000
 05684,0.00021021,0.00031439,-0.00085925,-0.00318434,-0.00543465,-0.000
 64232,-0.00123410,0.00088508,0.00174103,-0.00171369,-0.00042212,0.0002
 6200,0.00041340,0.00099453,0.00763807,-0.00066492,-0.01089738,-0.15877
 553,0.06207951,1.21105260,0.00008209,0.00029434,-0.00106427,-0.0000563
 3,0.00325892,-0.00151413,0.00091179,0.00048288,0.00201606,-0.00427575,
 -0.00128881,0.02150918,-0.00026114,-0.00001899,0.00025464,0.09295588,-
 0.00777223,0.15377040,0.00137092,-0.00144895,0.00115566,-0.00598161,0.
 00384982,0.02315693,-0.00047664,-0.00017205,-0.00101400,-0.00103307,-0
 .00274642,0.00263519,-0.00008336,0.00003872,-0.00012368,-0.00003422,0.
 00000024,-0.00033804,-0.08759841,0.00015087,-0.00051792,-0.00070224,0.
 00069060,0.00465634,-0.00358688,0.00201643,0.00145660,0.00016276,-0.00
 596720,-0.00167660,0.03643265,0.00032808,-0.00012669,0.00017058,-0.007
 06527,0.12031317,0.07263958,-0.00160197,0.00257409,-0.00013181,0.01104
 624,-0.01041355,-0.04303697,-0.00074384,0.00018788,-0.00076684,-0.0031
 2331,-0.00479404,0.00188116,0.00009168,-0.00000405,-0.00002678,-0.0000
 0024,-0.00007036,-0.00014174,0.00402924,-0.10705207,-0.00016130,-0.000
 01051,0.00059343,-0.00113989,0.00008732,0.00247197,-0.00167659,-0.0005
 3877,-0.00045674,-0.00045431,-0.00508655,-0.00513286,0.00005684,-0.000
 21021,0.00031439,0.15388872,0.06226090,-1.19586049,-0.00064232,0.00123
 410,0.00088508,-0.00085925,0.00318434,-0.00543465,0.00026200,-0.000413
 40,0.00099453,0.00174103,0.00171369,-0.00042212,0.00010541,-0.00007060
 ,0.00000299,-0.00033804,0.00014174,-0.00014456,-0.15877552,-0.06207970
 ,1.21105258,0.00045371,-0.00214726,0.00024196,0.00056458,0.00036699,0.
 00030568,-0.00439309,-0.00068296,0.00254821,-0.00011489,-0.00117612,0.
 00007330,0.01269998,-0.02942094,-0.00859841,-0.00608995,-0.00263418,-0
 .00471292,-0.28200005,0.63570648,0.21984834,-0.01767413,0.03029990,0.0
 1305940,-0.00001567,0.00043537,-0.00018987,0.00008965,0.00006907,-0.00
 010099,0.00073959,0.00141911,-0.00077487,0.00120330,0.00233694,-0.0004
 6606,0.00049795,-0.00072512,-0.00011979,0.29167316,0.00094603,-0.00270
 692,-0.00020986,0.00022505,0.00012907,-0.00017203,-0.00756894,-0.00168
 588,0.00390320,-0.00044843,0.00087460,-0.00031021,0.01791769,-0.026243
 20,-0.01077332,-0.00083822,0.00014532,-0.00012374,0.63527302,-0.795360
 50,-0.33315464,-0.00984856,0.00670407,0.00180296,0.00006861,0.00055597
 ,-0.00051322,0.00008668,0.00000836,0.00018781,-0.00023451,0.00181089,-
 0.00105947,0.00126661,0.00257944,0.00021867,-0.00001254,-0.00025718,-0
 .00010097,-0.63423936,0.80806807,0.00037315,0.00100176,0.00062718,0.00
 017543,-0.00007466,-0.00010759,0.00231791,-0.00099421,-0.00260198,-0.0
 0008118,-0.00036100,0.00017093,-0.00684223,0.01633982,0.00326331,-0.00
 321580,-0.00117393,-0.00122328,0.22065108,-0.33437686,0.03170186,-0.01
 371826,0.01893115,0.00436873,-0.00060525,-0.00021274,0.00171096,0.0001
 0594,-0.00002147,-0.00000732,-0.00018014,-0.00095056,0.00025435,-0.000
 68988,-0.00094353,0.00076458,-0.00044711,0.00022330,0.00024582,-0.2207
 8035,0.33402276,-0.02275129,0.00056458,-0.00036699,0.00030568,0.000453
 71,0.00214726,0.00024196,-0.00011489,0.00117612,0.00007330,-0.00439309
 ,0.00068296,0.00254821,-0.00608995,0.00263418,-0.00471292,0.01269997,0
 .02942095,-0.00859841,-0.01767413,-0.03029991,0.01305940,-0.28199986,-
 0.63570644,0.21984821,0.00008965,-0.00006907,-0.00010099,-0.00001567,-
 0.00043537,-0.00018987,-0.00122420,-0.00216641,0.00047876,0.00049795,0
 .00072512,-0.00011979,0.00120330,-0.00233694,-0.00046606,0.00165754,0.
 00096965,0.00130838,0.29167297,-0.00022505,0.00012907,0.00017203,-0.00
 094603,-0.00270692,0.00020986,0.00044843,0.00087460,0.00031021,0.00756
 894,-0.00168588,-0.00390320,0.00083822,0.00014532,0.00012374,-0.017917
 68,-0.02624320,0.01077332,0.00984855,0.00670407,-0.00180296,-0.6352729
 7,-0.79536077,0.33315457,-0.00008668,0.00000836,-0.00018781,-0.0000686
 1,0.00055597,0.00051322,-0.00003961,0.00041318,0.00011848,0.00001255,-
 0.00025718,0.00010097,-0.00126661,0.00257944,-0.00021867,-0.00096965,0
 .00018222,-0.00037589,0.63423931,0.80806834,0.00017543,0.00007466,-0.0
 0010759,0.00037315,-0.00100176,0.00062718,-0.00008118,0.00036100,0.000
 17093,0.00231791,0.00099421,-0.00260198,-0.00321580,0.00117393,-0.0012
 2328,-0.00684223,-0.01633982,0.00326331,-0.01371826,-0.01893116,0.0043
 6872,0.22065094,0.33437678,0.03170195,0.00010594,0.00002147,-0.0000073
 2,-0.00060525,0.00021274,0.00171096,-0.00077020,-0.00081459,0.00065069
 ,-0.00044711,-0.00022330,0.00024582,-0.00068988,0.00094353,0.00076458,
 0.00130838,0.00037589,0.00050679,-0.22078021,-0.33402268,-0.02275138,-
 0.00008564,-0.00034558,-0.00011287,0.00000200,0.00015884,0.00017137,-0
 .00018542,0.00155733,-0.00043477,-0.00023395,-0.00016952,-0.00019550,-
 0.00270026,-0.00239327,0.01824662,0.00198061,-0.00055733,-0.00004530,-
 0.05174125,0.00753051,0.00828809,0.00105072,0.00122116,-0.03188576,0.0
 0001368,-0.00005167,-0.00040645,0.00009113,0.00010645,0.00032763,0.000
 70516,0.00037935,0.00002723,-0.00108462,-0.00391435,0.00051874,-0.0003
 0188,0.00021991,0.00042226,-0.00021122,-0.00411516,0.02119859,0.002143
 74,-0.00051277,0.00119992,0.05595137,0.00111109,0.00049956,-0.00157284
 ,0.00003546,-0.00026752,-0.00021472,-0.00093914,0.00153352,0.00423082,
 0.00025980,-0.00010515,0.00005719,-0.00319950,-0.00199248,0.03017380,-
 0.00037068,0.00018275,0.00075109,0.00571949,-0.04897904,0.00631216,-0.
 00078389,-0.00113472,0.00029904,-0.00044972,0.00027027,-0.00239594,-0.
 00002767,-0.00006641,-0.00058344,0.00048731,0.00158739,-0.00076373,-0.
 00331300,-0.00581619,0.00059408,0.00015582,0.00005706,0.00003647,-0.00
 062807,0.00452001,-0.03202426,0.00017660,0.00026248,-0.00017572,0.0015
 1060,0.04876210,0.00017961,0.00015586,0.00058846,-0.00059481,0.0007202
 5,-0.00016122,0.00086314,-0.00317882,-0.00187792,-0.00004269,-0.000140
 07,0.00063782,0.00227097,0.00358336,-0.01171482,0.00117269,-0.00087542
 ,0.00061528,0.01374411,-0.00307800,-0.24902334,0.00027663,-0.00029346,
 -0.01336749,-0.00107421,0.00001300,0.00216749,0.00009160,-0.00001671,0
 .00071536,0.00036865,0.00030365,0.00117170,0.00298641,0.00213209,0.000
 65013,-0.00049950,0.00084136,0.00037329,-0.00156480,0.00572615,-0.0183
 3359,-0.00055597,-0.00029851,0.00075985,-0.01457249,-0.00512515,0.2863
 6532,0.00000200,-0.00015884,0.00017137,-0.00008564,0.00034558,-0.00011
 287,-0.00023395,0.00016952,-0.00019550,-0.00018542,-0.00155734,-0.0004
 3477,0.00198060,0.00055733,-0.00004530,-0.00270026,0.00239327,0.018246
 63,0.00105072,-0.00122115,-0.03188576,-0.05174125,-0.00753051,0.008288
 09,0.00009113,-0.00010645,0.00032763,0.00001368,0.00005167,-0.00040645
 ,0.00021918,0.00033251,0.00017602,-0.00030188,-0.00021991,0.00042226,-
 0.00108462,0.00391435,0.00051874,0.00214374,0.00051277,0.00119992,-0.0
 0021122,0.00411516,0.02119859,-0.00561334,0.00029197,-0.00292333,0.055
 95137,-0.00003546,-0.00026752,0.00021472,-0.00111109,0.00049956,0.0015
 7284,-0.00025980,-0.00010515,-0.00005719,0.00093914,0.00153352,-0.0042
 3082,0.00037068,0.00018275,-0.00075109,0.00319950,-0.00199247,-0.03017
 380,0.00078389,-0.00113472,-0.00029904,-0.00571949,-0.04897905,-0.0063
 1213,0.00002767,-0.00006641,0.00058344,0.00044972,0.00027027,0.0023959
 4,0.00003647,-0.00015541,0.00010357,-0.00015582,0.00005706,-0.00003647
 ,0.00331300,-0.00581619,-0.00059408,-0.00017660,0.00026248,0.00017572,
 0.00062807,0.00452000,0.03202427,-0.00029197,0.00084179,-0.00050473,-0
 .00151060,0.04876210,-0.00059481,-0.00072025,-0.00016122,0.00017961,-0
 .00015586,0.00058846,-0.00004269,0.00014007,0.00063782,0.00086314,0.00
 317882,-0.00187792,0.00117269,0.00087542,0.00061528,0.00227097,-0.0035
 8336,-0.01171483,0.00027663,0.00029346,-0.01336749,0.01374411,0.003078
 03,-0.24902334,0.00009160,0.00001671,0.00071536,-0.00107421,-0.0000130
 0,0.00216749,-0.00012601,-0.00003514,0.00028741,-0.00049950,-0.0008413
 6,0.00037329,0.00298641,-0.00213209,0.00065013,-0.00055597,0.00029851,
 0.00075985,-0.00156480,-0.00572615,-0.01833359,-0.00292333,0.00050473,
 0.00014626,-0.01457249,0.00512512,0.28636532,-0.00218430,-0.00186186,-
 0.00039900,0.00421027,0.00143916,0.00150137,0.00233664,-0.00292544,0.0
 0520798,-0.01964313,0.00135035,-0.01113444,0.00094915,-0.00011374,-0.0
 0047244,-0.44537363,-0.01031221,-0.23523311,-0.00055111,0.00424258,0.0
 0217193,-0.01454506,-0.00157231,-0.00748880,0.00029730,0.00032133,-0.0
 0069775,0.00106872,0.00041416,0.00134530,-0.00022526,-0.00000988,-0.00
 004561,-0.00008336,-0.00009168,0.00010541,0.00416509,-0.00092351,0.007
 63807,-0.00122420,0.00003961,-0.00077020,0.00073959,0.00023450,-0.0001
 8014,0.00021918,-0.00003647,-0.00012601,0.00070516,-0.00048731,0.00036
 865,0.46913897,-0.00286888,-0.00107292,-0.00023745,0.00334560,0.003991
 19,0.00169500,0.00149936,-0.00588538,0.00307679,-0.02992544,0.00165150
 ,-0.01477314,-0.00015888,0.00018831,-0.00033810,-0.01521520,-0.0008940
 1,-0.00970883,0.00204018,-0.00576520,-0.00262917,0.02997342,-0.0021816
 3,0.01518515,0.00004867,0.00027436,-0.00039408,0.00165825,0.00043022,-
 0.00109845,0.00000988,-0.00000501,0.00006228,-0.00003872,-0.00000405,0
 .00007060,-0.00069639,-0.00109593,0.00066492,0.00216641,0.00041318,0.0
 0081459,-0.00141911,0.00181089,0.00095056,-0.00033251,-0.00015541,0.00
 003514,-0.00037935,0.00158739,-0.00030365,0.01029272,0.00671250,0.0003
 0842,0.00015360,0.00032756,0.00022764,-0.00240345,-0.00112861,-0.00014
 727,0.00093703,-0.00045873,0.01281167,0.00292491,0.00425610,0.00003217
 ,-0.00003411,-0.00016136,-0.22416705,-0.00479166,-0.13579087,0.0011123
 9,-0.00165759,0.00015304,0.01425979,-0.00206632,0.00290278,0.00014037,
 -0.00028850,0.00082689,0.00049360,-0.00057756,0.00125339,-0.00004561,-
 0.00006228,-0.00003193,-0.00012368,0.00002678,0.00000299,-0.04301837,-
 0.00068986,-0.01089738,0.00047876,-0.00011848,0.00065069,-0.00077488,0
 .00105947,0.00025435,0.00017602,-0.00010357,0.00028741,0.00002723,0.00
 076373,0.00117170,0.23820879,0.00692784,0.13638197\\0.00268694,0.06136
 642,-0.01369866,-0.00268695,0.06136642,0.01369867,-0.04554002,-0.08089
 457,0.01158068,0.04554003,-0.08089457,-0.01158070,0.11146669,0.0033332
 9,-0.25608721,-0.11146669,0.00333324,0.25608721,0.17727924,-0.26869136
 ,-0.11548945,-0.17727920,-0.26869140,0.11548941,0.01187217,0.00187722,
 0.01284176,-0.01187217,0.00187722,-0.01284176,-0.08265457,-0.00344750,
 -0.04172543,-0.03976771,0.00270514,0.30926812,0.03976771,0.00270518,-0
 .30926812,-0.18494303,0.28589041,0.10162604,0.18494299,0.28589045,-0.1
 0162600,0.00610639,-0.00213904,0.00649049,-0.00610639,-0.00213904,-0.0
 0649049,0.08265457,-0.00344749,0.04172543\\\@
 The archive entry for this job was punched.

 Writing a WFNX file to "YASJAD_Complex_3_Ligand_1_OO_Cu_oriented.wfx"


 LEARN FROM YESTERDAY,
 LIVE FOR TODAY,
 LOOK TO TOMORROW,
 REST THIS AFTERNOON.

           -- SNOOPY
 Job cpu time:       0 days  0 hours  5 minutes 12.4 seconds.
 Elapsed time:       0 days  0 hours  5 minutes 14.3 seconds.
 File lengths (MBytes):  RWF=    348 Int=      0 D2E=      0 Chk=      8 Scr=      8
 Normal termination of Gaussian 16 at Mon Mar  6 10:27:03 2023.
