 Entering Gaussian System, Link 0=g16
 Initial command:
 /ssoft/spack/external/gaussian/g16-C.01/avx2/g16/l1.exe "/scratch/lcmd/2387871/Gau-1723040.inp" -scrdir="/scratch/lcmd/2387871/"
 Entering Link 1 = /ssoft/spack/external/gaussian/g16-C.01/avx2/g16/l1.exe PID=   1723058.
  
 Copyright (c) 1988-2019, Gaussian, Inc.  All Rights Reserved.
  
 This is part of the Gaussian(R) 16 program.  It is based on
 the Gaussian(R) 09 system (copyright 2009, Gaussian, Inc.),
 the Gaussian(R) 03 system (copyright 2003, Gaussian, Inc.),
 the Gaussian(R) 98 system (copyright 1998, Gaussian, Inc.),
 the Gaussian(R) 94 system (copyright 1995, Gaussian, Inc.),
 the Gaussian 92(TM) system (copyright 1992, Gaussian, Inc.),
 the Gaussian 90(TM) system (copyright 1990, Gaussian, Inc.),
 the Gaussian 88(TM) system (copyright 1988, Gaussian, Inc.),
 the Gaussian 86(TM) system (copyright 1986, Carnegie Mellon
 University), and the Gaussian 82(TM) system (copyright 1983,
 Carnegie Mellon University). Gaussian is a federally registered
 trademark of Gaussian, Inc.
  
 This software contains proprietary and confidential information,
 including trade secrets, belonging to Gaussian, Inc.
  
 This software is provided under written license and may be
 used, copied, transmitted, or stored only in accord with that
 written license.
  
 The following legend is applicable only to US Government
 contracts under FAR:
  
                    RESTRICTED RIGHTS LEGEND
  
 Use, reproduction and disclosure by the US Government is
 subject to restrictions as set forth in subparagraphs (a)
 and (c) of the Commercial Computer Software - Restricted
 Rights clause in FAR 52.227-19.
  
 Gaussian, Inc.
 340 Quinnipiac St., Bldg. 40, Wallingford CT 06492
  
  
 ---------------------------------------------------------------
 Warning -- This program may not be used in any manner that
 competes with the business of Gaussian, Inc. or will provide
 assistance to any competitor of Gaussian, Inc.  The licensee
 of this program is prohibited from giving any competitor of
 Gaussian, Inc. access to this program.  By using this program,
 the user acknowledges that Gaussian, Inc. is engaged in the
 business of creating and licensing software in the field of
 computational chemistry and represents and warrants to the
 licensee that it is not a competitor of Gaussian, Inc. and that
 it will not use this program in any manner prohibited above.
 ---------------------------------------------------------------
  

 Cite this work as:
 Gaussian 16, Revision C.01,
 M. J. Frisch, G. W. Trucks, H. B. Schlegel, G. E. Scuseria, 
 M. A. Robb, J. R. Cheeseman, G. Scalmani, V. Barone, 
 G. A. Petersson, H. Nakatsuji, X. Li, M. Caricato, A. V. Marenich, 
 J. Bloino, B. G. Janesko, R. Gomperts, B. Mennucci, H. P. Hratchian, 
 J. V. Ortiz, A. F. Izmaylov, J. L. Sonnenberg, D. Williams-Young, 
 F. Ding, F. Lipparini, F. Egidi, J. Goings, B. Peng, A. Petrone, 
 T. Henderson, D. Ranasinghe, V. G. Zakrzewski, J. Gao, N. Rega, 
 G. Zheng, W. Liang, M. Hada, M. Ehara, K. Toyota, R. Fukuda, 
 J. Hasegawa, M. Ishida, T. Nakajima, Y. Honda, O. Kitao, H. Nakai, 
 T. Vreven, K. Throssell, J. A. Montgomery, Jr., J. E. Peralta, 
 F. Ogliaro, M. J. Bearpark, J. J. Heyd, E. N. Brothers, K. N. Kudin, 
 V. N. Staroverov, T. A. Keith, R. Kobayashi, J. Normand, 
 K. Raghavachari, A. P. Rendell, J. C. Burant, S. S. Iyengar, 
 J. Tomasi, M. Cossi, J. M. Millam, M. Klene, C. Adamo, R. Cammi, 
 J. W. Ochterski, R. L. Martin, K. Morokuma, O. Farkas, 
 J. B. Foresman, and D. J. Fox, Gaussian, Inc., Wallingford CT, 2019.
 
 ******************************************
 Gaussian 16:  ES64L-G16RevC.01  3-Jul-2019
                 6-Mar-2023 
 ******************************************
 %nprocshared=1
 Will use up to    1 processors via shared memory.
 %mem=8000MB
 %chk=YASJIL_Complex_5_Ligand_0_OO_Cu_oriented.chk
 ----------------------------------------------------------------------
 #p pop=(regular,nbo,savenbos) freq=noraman def2svp empiricaldispersion
 =gd3bj output=wfx pbe1pbe
 ----------------------------------------------------------------------
 1/10=4,30=1,38=1/1,3;
 2/12=2,17=6,18=5,40=1/2;
 3/5=43,7=101,11=2,25=1,30=1,71=2,74=-13,124=41,140=1/1,2,3;
 4//1;
 5/5=2,38=5,98=1/2;
 8/6=4,10=90,11=11/1;
 11/6=1,8=1,9=11,15=111,16=1/1,2,10;
 10/6=1/2;
 6/28=1,40=1,73=1/1,7;
 7/8=1,10=1,25=1/1,2,3,16;
 1/10=4,30=1/3;
 99/6=200/99;
 Leave Link    1 at Mon Mar  6 10:21:49 2023, MaxMem=  1048576000 cpu:               0.0 elap:               0.2
 (Enter /ssoft/spack/external/gaussian/g16-C.01/avx2/g16/l101.exe)
 ----------------------------------------
 YASJIL_Complex_5_Ligand_0_OO_Cu_oriented
 ----------------------------------------
 Symbolic Z-matrix:
 Charge = -2 Multiplicity = 1
 O                    -3.67434  -0.08546   3.98629 
 C                    -4.39055  -1.14326   3.34633 
 H                    -5.45623  -0.88288   3.41138 
 H                    -3.07972  -0.40095   4.36014 
 C                    -3.97701  -1.33244   1.90458 
 H                    -4.44401  -2.03632   1.54431 
 O                    -0.76256  -1.75865   0. 
 C                    -2.14941  -1.64882   0.2139 
 C                    -2.49354  -1.59572   1.70661 
 H                    -2.56258  -2.43345  -0.12887 
 H                    -1.98723  -0.91746   2.10751 
 O                    -2.17589  -2.82888   2.35684 
 H                    -1.3741   -2.84792   2.48699 
 O                    -1.7963    0.70248   0. 
 O                    -4.37123  -0.1198    1.23482 
 C                    -4.09109  -0.11532  -0.15341 
 C                    -2.62496  -0.34897  -0.44325 
 H                    -4.40052   0.66642  -0.40968 
 O                    -4.79831  -1.12004  -0.84258 
 C                    -6.21058  -1.01827  -0.75229 
 H                    -6.6269   -0.21632  -0.92119 
 H                    -6.50225  -1.6513   -1.31821 
 H                    -4.2981   -1.96249   3.7722 
 H                    -6.55968  -0.90539   0.1782 
 H                    -2.57037  -0.51134  -1.39018 
 
 ITRead=  0  0  0  0  0  0  0  0  0  0  0  0  0  0  0  0  0  0  0  0
 ITRead=  0  0  0  0  0
 MicOpt= -1 -1 -1 -1 -1 -1 -1 -1 -1 -1 -1 -1 -1 -1 -1 -1 -1 -1 -1 -1
 MicOpt= -1 -1 -1 -1 -1
 NAtoms=     25 NQM=       25 NQMF=       0 NMMI=      0 NMMIF=      0
                NMic=       0 NMicF=      0.
                    Isotopes and Nuclear Properties:
 (Nuclear quadrupole moments (NQMom) in fm**2, nuclear magnetic moments (NMagM)
  in nuclear magnetons)

  Atom         1           2           3           4           5           6           7           8           9          10
 IAtWgt=          16          12           1           1          12           1          16          12          12           1
 AtmWgt=  15.9949146  12.0000000   1.0078250   1.0078250  12.0000000   1.0078250  15.9949146  12.0000000  12.0000000   1.0078250
 NucSpn=           0           0           1           1           0           1           0           0           0           1
 AtZEff=  -0.0000000  -0.0000000  -0.0000000  -0.0000000  -0.0000000  -0.0000000  -0.0000000  -0.0000000  -0.0000000  -0.0000000
 NQMom=    0.0000000   0.0000000   0.0000000   0.0000000   0.0000000   0.0000000   0.0000000   0.0000000   0.0000000   0.0000000
 NMagM=    0.0000000   0.0000000   2.7928460   2.7928460   0.0000000   2.7928460   0.0000000   0.0000000   0.0000000   2.7928460
 AtZNuc=   8.0000000   6.0000000   1.0000000   1.0000000   6.0000000   1.0000000   8.0000000   6.0000000   6.0000000   1.0000000

  Atom        11          12          13          14          15          16          17          18          19          20
 IAtWgt=           1          16           1          16          16          12          12           1          16          12
 AtmWgt=   1.0078250  15.9949146   1.0078250  15.9949146  15.9949146  12.0000000  12.0000000   1.0078250  15.9949146  12.0000000
 NucSpn=           1           0           1           0           0           0           0           1           0           0
 AtZEff=  -0.0000000  -0.0000000  -0.0000000  -0.0000000  -0.0000000  -0.0000000  -0.0000000  -0.0000000  -0.0000000  -0.0000000
 NQMom=    0.0000000   0.0000000   0.0000000   0.0000000   0.0000000   0.0000000   0.0000000   0.0000000   0.0000000   0.0000000
 NMagM=    2.7928460   0.0000000   2.7928460   0.0000000   0.0000000   0.0000000   0.0000000   2.7928460   0.0000000   0.0000000
 AtZNuc=   1.0000000   8.0000000   1.0000000   8.0000000   8.0000000   6.0000000   6.0000000   1.0000000   8.0000000   6.0000000

  Atom        21          22          23          24          25
 IAtWgt=           1           1           1           1           1
 AtmWgt=   1.0078250   1.0078250   1.0078250   1.0078250   1.0078250
 NucSpn=           1           1           1           1           1
 AtZEff=  -0.0000000  -0.0000000  -0.0000000  -0.0000000  -0.0000000
 NQMom=    0.0000000   0.0000000   0.0000000   0.0000000   0.0000000
 NMagM=    2.7928460   2.7928460   2.7928460   2.7928460   2.7928460
 AtZNuc=   1.0000000   1.0000000   1.0000000   1.0000000   1.0000000
 Leave Link  101 at Mon Mar  6 10:21:49 2023, MaxMem=  1048576000 cpu:               0.1 elap:               0.1
 (Enter /ssoft/spack/external/gaussian/g16-C.01/avx2/g16/l103.exe)

 GradGradGradGradGradGradGradGradGradGradGradGradGradGradGradGradGradGrad
 Berny optimization.
 Initialization pass.
 Trust Radius=3.00D-01 FncErr=1.00D-07 GrdErr=1.00D-07 EigMax=2.50D+02 EigMin=1.00D-04
 Number of steps in this run=      2 maximum allowed number of steps=      2.
 GradGradGradGradGradGradGradGradGradGradGradGradGradGradGradGradGradGrad

 Leave Link  103 at Mon Mar  6 10:21:49 2023, MaxMem=  1048576000 cpu:               0.0 elap:               0.1
 (Enter /ssoft/spack/external/gaussian/g16-C.01/avx2/g16/l202.exe)
                          Input orientation:                          
 ---------------------------------------------------------------------
 Center     Atomic      Atomic             Coordinates (Angstroms)
 Number     Number       Type             X           Y           Z
 ---------------------------------------------------------------------
      1          8           0       -3.674342   -0.085460    3.986294
      2          6           0       -4.390552   -1.143261    3.346329
      3          1           0       -5.456231   -0.882875    3.411379
      4          1           0       -3.079720   -0.400946    4.360137
      5          6           0       -3.977013   -1.332442    1.904576
      6          1           0       -4.444006   -2.036318    1.544313
      7          8           0       -0.762559   -1.758653    0.000000
      8          6           0       -2.149411   -1.648817    0.213896
      9          6           0       -2.493541   -1.595722    1.706612
     10          1           0       -2.562578   -2.433454   -0.128871
     11          1           0       -1.987235   -0.917462    2.107505
     12          8           0       -2.175892   -2.828879    2.356842
     13          1           0       -1.374101   -2.847918    2.486986
     14          8           0       -1.796297    0.702480    0.000000
     15          8           0       -4.371231   -0.119804    1.234822
     16          6           0       -4.091092   -0.115320   -0.153415
     17          6           0       -2.624962   -0.348974   -0.443253
     18          1           0       -4.400516    0.666419   -0.409681
     19          8           0       -4.798307   -1.120036   -0.842581
     20          6           0       -6.210575   -1.018270   -0.752288
     21          1           0       -6.626898   -0.216324   -0.921188
     22          1           0       -6.502252   -1.651297   -1.318212
     23          1           0       -4.298101   -1.962493    3.772204
     24          1           0       -6.559675   -0.905387    0.178204
     25          1           0       -2.570366   -0.511339   -1.390181
 ---------------------------------------------------------------------
                    Distance matrix (angstroms):
                    1          2          3          4          5
     1  O    0.000000
     2  C    1.428795   0.000000
     3  H    2.035074   1.098956   0.000000
     4  H    0.769978   1.815797   2.603882   0.000000
     5  C    2.445429   1.511773   2.158854   2.775356   0.000000
     6  H    3.218928   2.011882   2.416808   3.530522   0.918321
     7  O    5.212351   4.973828   5.868139   5.120879   3.760556
     8  C    4.358955   3.884641   4.663220   4.428766   2.509705
     9  C    2.978612   2.547948   3.491691   2.968550   1.519603
    10  H    4.866589   4.133171   4.828135   4.954768   2.710676
    11  H    2.658648   2.713227   3.706105   2.556299   2.042696
    12  O    3.525169   2.953830   3.957221   3.274898   2.384933
    13  H    3.894896   3.569776   4.623816   3.522145   3.067739
    14  O    4.476432   4.618965   5.248426   4.677127   3.538904
    15  O    2.838562   2.346551   2.548902   3.393323   1.440302
    16  C    4.160741   3.659856   3.893649   4.634286   2.393685
    17  C    4.559773   4.255483   4.812413   4.825149   2.882282
    18  H    4.518545   4.169251   4.256213   5.063096   3.087165
    19  O    5.064749   4.208773   4.311065   5.526202   2.875154
    20  C    5.454977   4.486287   4.233614   6.026627   3.485173
    21  H    5.728707   4.906338   4.537167   6.364664   4.031445
    22  H    6.211820   5.145418   4.904453   6.746907   4.106685
    23  H    1.989513   0.927931   1.623894   2.066046   1.997022
    24  H    4.847574   3.846908   3.416360   5.463801   3.135742
    25  H    5.505145   5.113407   5.614377   5.773888   3.675362
                    6          7          8          9         10
     6  H    0.000000
     7  O    4.001882   0.000000
     8  C    2.680547   1.407543   0.000000
     9  C    2.006185   2.436262   1.532790   0.000000
    10  H    2.548928   1.926664   0.950712   2.018802   0.000000
    11  H    2.757671   2.578568   2.036403   0.936535   2.762360
    12  O    2.536276   2.949169   2.446521   1.429817   2.546499
    13  H    3.312347   2.783088   2.684378   1.852060   2.902924
    14  O    4.110509   2.669418   2.387266   2.946253   3.230771
    15  O    1.942706   4.151281   2.883861   2.434469   3.237880
    16  C    2.587868   3.715268   2.501330   2.864168   2.776816
    17  C    3.179068   2.377439   1.532183   2.488689   2.108977
    18  H    3.335382   4.391304   3.288866   3.637655   3.614704
    19  O    2.581156   4.171935   2.900414   3.469381   2.689411
    20  C    3.071085   5.549323   4.221866   4.493994   3.962231
    21  H    3.762458   6.133338   4.836149   5.088487   4.697034
    22  H    3.546642   5.890101   4.614605   5.022192   4.188954
    23  H    2.233883   5.174083   4.168550   2.767241   4.295606
    24  H    2.760673   5.862285   4.472627   4.398413   4.290230
    25  H    3.800966   2.599339   2.011000   3.282059   2.299019
                   11         12         13         14         15
    11  H    0.000000
    12  O    1.936821   0.000000
    13  H    2.060727   0.812508   0.000000
    14  O    2.665004   4.262546   4.355304   0.000000
    15  O    2.661067   3.662995   4.241853   2.971738   0.000000
    16  C    3.190832   4.163266   4.671279   2.440987   1.416227
    17  C    2.690026   3.767244   4.049157   1.410218   2.432676
    18  H    3.829991   4.981939   5.468129   2.636494   1.823018
    19  O    4.079972   4.475881   5.079053   3.611589   2.344879
    20  C    5.101488   5.405891   6.101802   4.797163   2.852899
    21  H    5.584894   6.114112   6.792114   5.002748   3.121814
    22  H    5.714843   5.797422   6.496873   5.424386   3.661243
    23  H    3.033713   2.694002   3.314444   5.252678   3.136743
    24  H    4.962818   5.259642   5.999507   5.030583   2.553991
    25  H    3.569143   4.423435   4.682208   2.001285   3.207344
                   16         17         18         19         20
    16  C    0.000000
    17  C    1.512659   0.000000
    18  H    0.878938   2.045665   0.000000
    19  O    1.408743   2.340390   1.880708   0.000000
    20  C    2.380373   3.660612   2.496372   1.418806   0.000000
    21  H    2.651412   4.032556   2.449010   2.041230   0.919222
    22  H    3.087016   4.182699   3.257995   1.847131   0.897813
    23  H    4.343430   4.813825   4.940630   4.717645   5.002014
    24  H    2.613059   4.022160   2.734621   2.047070   1.000214
    25  H    1.999757   0.962297   2.387037   2.373625   3.730283
                   21         22         23         24         25
    21  H    0.000000
    22  H    1.494093   0.000000
    23  H    5.522710   5.555849   0.000000
    24  H    1.299226   1.673003   4.375960   0.000000
    25  H    4.094196   4.094437   5.633927   4.304613   0.000000
 Stoichiometry    C7H12O6(2-)
 Framework group  C1[X(C7H12O6)]
 Deg. of freedom    69
 Full point group                 C1      NOp   1
 Largest Abelian subgroup         C1      NOp   1
 Largest concise Abelian subgroup C1      NOp   1
                         Standard orientation:                         
 ---------------------------------------------------------------------
 Center     Atomic      Atomic             Coordinates (Angstroms)
 Number     Number       Type             X           Y           Z
 ---------------------------------------------------------------------
      1          8           0        2.346817   -1.716224    1.139104
      2          6           0        1.669764   -1.925557   -0.101554
      3          1           0        1.219542   -2.926548   -0.046599
      4          1           0        2.991835   -1.323812    0.988009
      5          6           0        0.610063   -0.880274   -0.365886
      6          1           0        0.221579   -1.041028   -1.182313
      7          8           0        0.392786    2.873997   -0.370942
      8          6           0       -0.036416    1.540550   -0.508352
      9          6           0        1.123502    0.549938   -0.357606
     10          1           0       -0.371238    1.429192   -1.391158
     11          1           0        1.569567    0.729965    0.445956
     12          8           0        2.063848    0.685026   -1.426193
     13          1           0        2.527833    1.334724   -1.275262
     14          8           0       -0.510323    1.660187    1.828342
     15          8           0       -0.376706   -1.071423    0.665724
     16          6           0       -1.482649   -0.191942    0.570320
     17          6           0       -1.063319    1.261241    0.593937
     18          1           0       -1.987639   -0.443936    1.244127
     19          8           0       -2.209142   -0.377437   -0.622306
     20          6           0       -2.756940   -1.675923   -0.786206
     21          1           0       -3.234607   -2.064468   -0.103684
     22          1           0       -3.264647   -1.597071   -1.522469
     23          1           0        2.237988   -1.937547   -0.835063
     24          1           0       -2.106733   -2.421863   -0.640487
     25          1           0       -1.845751    1.761182    0.341205
 ---------------------------------------------------------------------
 Rotational constants (GHZ):           0.8703398           0.7879960           0.5545719
 Leave Link  202 at Mon Mar  6 10:21:49 2023, MaxMem=  1048576000 cpu:               0.0 elap:               0.0
 (Enter /ssoft/spack/external/gaussian/g16-C.01/avx2/g16/l301.exe)
 Standard basis: def2SVP (5D, 7F)
 Ernie: Thresh=  0.10000D-02 Tol=  0.10000D-05 Strict=F.
 There are   255 symmetry adapted cartesian basis functions of A   symmetry.
 There are   242 symmetry adapted basis functions of A   symmetry.
   242 basis functions,   409 primitive gaussians,   255 cartesian basis functions
    52 alpha electrons       52 beta electrons
       nuclear repulsion energy       935.4609967054 Hartrees.
 IExCor= 1009 DFT=T Ex+Corr=PBE1PBE ExCW=0 ScaHFX=  0.250000
 ScaDFX=  0.750000  0.750000  1.000000  1.000000 ScalE2=  1.000000  1.000000
 IRadAn=      5 IRanWt=     -1 IRanGd=            0 ICorTp=0 IEmpDi=141
 NAtoms=   25 NActive=   25 NUniq=   25 SFac= 1.00D+00 NAtFMM=   60 NAOKFM=F Big=F
 Integral buffers will be    131072 words long.
 Raffenetti 2 integral format.
 Two-electron integral symmetry is turned on.
 R6Disp:  Grimme-D3(BJ) Dispersion energy=       -0.0228307844 Hartrees.
 Nuclear repulsion after empirical dispersion term =      935.4381659209 Hartrees.
 Leave Link  301 at Mon Mar  6 10:21:49 2023, MaxMem=  1048576000 cpu:               0.1 elap:               0.1
 (Enter /ssoft/spack/external/gaussian/g16-C.01/avx2/g16/l302.exe)
 NPDir=0 NMtPBC=     1 NCelOv=     1 NCel=       1 NClECP=     1 NCelD=      1
         NCelK=      1 NCelE2=     1 NClLst=     1 CellRange=     0.0.
 One-electron integrals computed using PRISM.
 One-electron integral symmetry used in STVInt
   1 Symmetry operations used in ECPInt.
 ECPInt:  NShTT=    6555 NPrTT=   23641 LenC2=    6414 LenP2D=   17574.
 LDataN:  DoStor=T MaxTD1= 4 Len=   56
 NBasis=   242 RedAO= T EigKep=  6.53D-04  NBF=   242
 NBsUse=   242 1.00D-06 EigRej= -1.00D+00 NBFU=   242
 Precomputing XC quadrature grid using
 IXCGrd= 4 IRadAn=           5 IRanWt=          -1 IRanGd=           0 AccXCQ= 0.00D+00.
 Generated NRdTot=       0 NPtTot=           0 NUsed=           0 NTot=          32
 NSgBfM=   254   254   254   254   254 MxSgAt=    25 MxSgA2=    25.
 Leave Link  302 at Mon Mar  6 10:21:50 2023, MaxMem=  1048576000 cpu:               0.6 elap:               0.6
 (Enter /ssoft/spack/external/gaussian/g16-C.01/avx2/g16/l303.exe)
 DipDrv:  MaxL=1.
 Leave Link  303 at Mon Mar  6 10:21:50 2023, MaxMem=  1048576000 cpu:               0.0 elap:               0.0
 (Enter /ssoft/spack/external/gaussian/g16-C.01/avx2/g16/l401.exe)
 ExpMin= 1.22D-01 ExpMax= 2.27D+03 ExpMxC= 3.41D+02 IAcc=3 IRadAn=         5 AccDes= 0.00D+00
 Harris functional with IExCor= 1009 and IRadAn=       5 diagonalized for initial guess.
 HarFok:  IExCor= 1009 AccDes= 0.00D+00 IRadAn=         5 IDoV= 1 UseB2=F ITyADJ=14
 ICtDFT=  3500011 ScaDFX=  1.000000  1.000000  1.000000  1.000000
 FoFCou: FMM=F IPFlag=           0 FMFlag=      100000 FMFlg1=           0
         NFxFlg=           0 DoJE=T BraDBF=F KetDBF=T FulRan=T
         wScrn=  0.000000 ICntrl=       500 IOpCl=  0 I1Cent=   200000004 NGrid=           0
         NMat0=    1 NMatS0=      1 NMatT0=    0 NMatD0=    1 NMtDS0=    0 NMtDT0=    0
 Petite list used in FoFCou.
 Harris En= -724.258469131672    
 JPrj=0 DoOrth=F DoCkMO=F.
 Leave Link  401 at Mon Mar  6 10:21:55 2023, MaxMem=  1048576000 cpu:               5.3 elap:               5.3
 (Enter /ssoft/spack/external/gaussian/g16-C.01/avx2/g16/l502.exe)
 Keep R1 ints in memory in canonical form, NReq=440673653.
 FoFCou: FMM=F IPFlag=           0 FMFlag=           0 FMFlg1=           0
         NFxFlg=           0 DoJE=F BraDBF=F KetDBF=F FulRan=T
         wScrn=  0.000000 ICntrl=       600 IOpCl=  0 I1Cent=           0 NGrid=           0
         NMat0=    1 NMatS0=  29403 NMatT0=    0 NMatD0=    1 NMtDS0=    0 NMtDT0=    0
 Symmetry not used in FoFCou.
 Two-electron integral symmetry not used.
 Closed shell SCF:
 Using DIIS extrapolation, IDIIS=  1040.
 NGot=  1048576000 LenX=   616158112 LenY=   616092646
 Requested convergence on RMS density matrix=1.00D-08 within 128 cycles.
 Requested convergence on MAX density matrix=1.00D-06.
 Requested convergence on             energy=1.00D-06.
 No special actions if energy rises.
 Integral accuracy reduced to 1.0D-05 until final iterations.

 Cycle   1  Pass 0  IDiag  1:
 E= -722.857371493027    
 DIIS: error= 3.34D-02 at cycle   1 NSaved=   1.
 NSaved= 1 IEnMin= 1 EnMin= -722.857371493027     IErMin= 1 ErrMin= 3.34D-02
 ErrMax= 3.34D-02  0.00D+00 EMaxC= 1.00D-01 BMatC= 5.58D-01 BMatP= 5.58D-01
 IDIUse=3 WtCom= 6.66D-01 WtEn= 3.34D-01
 Coeff-Com:  0.100D+01
 Coeff-En:   0.100D+01
 Coeff:      0.100D+01
 Gap=     0.025 Goal=   None    Shift=    0.000
 GapD=    0.025 DampG=0.250 DampE=0.500 DampFc=0.2500 IDamp=-1.
 Damping current iteration by 2.50D-01
 RMSDP=1.30D-01 MaxDP=1.39D+01              OVMax= 9.91D-01

 Cycle   2  Pass 0  IDiag  1:
 E= -722.457580656425     Delta-E=        0.399790836602 Rises=F Damp=T
 DIIS: error= 1.24D-02 at cycle   2 NSaved=   2.
 NSaved= 2 IEnMin= 1 EnMin= -722.857371493027     IErMin= 2 ErrMin= 1.24D-02
 ErrMax= 1.24D-02  0.00D+00 EMaxC= 1.00D-01 BMatC= 1.73D-01 BMatP= 5.58D-01
 IDIUse=3 WtCom= 8.76D-01 WtEn= 1.24D-01
 Coeff-Com:  0.166D+00 0.834D+00
 Coeff-En:   0.712D+00 0.288D+00
 Coeff:      0.233D+00 0.767D+00
 Gap=     0.002 Goal=   None    Shift=    0.000
 RMSDP=3.25D-02 MaxDP=3.47D+00 DE= 4.00D-01 OVMax= 7.68D-01

 Cycle   3  Pass 0  IDiag  1:
 E= -722.965177249904     Delta-E=       -0.507596593480 Rises=F Damp=F
 DIIS: error= 2.68D-02 at cycle   3 NSaved=   3.
 NSaved= 3 IEnMin= 3 EnMin= -722.965177249904     IErMin= 2 ErrMin= 1.24D-02
 ErrMax= 2.68D-02  0.00D+00 EMaxC= 1.00D-01 BMatC= 4.12D-01 BMatP= 1.73D-01
 IDIUse=2 WtCom= 0.00D+00 WtEn= 1.00D+00
 EnCoef did     2 forward-backward iterations
 Coeff-En:   0.746D-01 0.272D+00 0.653D+00
 Coeff:      0.746D-01 0.272D+00 0.653D+00
 Gap=     0.426 Goal=   None    Shift=    0.000
 RMSDP=6.37D-02 MaxDP=6.94D+00 DE=-5.08D-01 OVMax= 9.12D-01

 Cycle   4  Pass 0  IDiag  1:
 E= -721.649447606327     Delta-E=        1.315729643577 Rises=F Damp=F
 DIIS: error= 5.49D-02 at cycle   4 NSaved=   4.
 NSaved= 4 IEnMin= 3 EnMin= -722.965177249904     IErMin= 2 ErrMin= 1.24D-02
 ErrMax= 5.49D-02  0.00D+00 EMaxC= 1.00D-01 BMatC= 1.24D+00 BMatP= 1.73D-01
 IDIUse=2 WtCom= 0.00D+00 WtEn= 1.00D+00
 EnCoef did     4 forward-backward iterations
 Coeff-En:   0.106D+00 0.000D+00 0.642D+00 0.252D+00
 Coeff:      0.106D+00 0.000D+00 0.642D+00 0.252D+00
 Gap=     0.058 Goal=   None    Shift=    0.000
 RMSDP=6.28D-02 MaxDP=6.94D+00 DE= 1.32D+00 OVMax= 7.56D-01

 Cycle   5  Pass 0  IDiag  1:
 E= -723.336428030936     Delta-E=       -1.686980424609 Rises=F Damp=F
 DIIS: error= 7.49D-03 at cycle   5 NSaved=   5.
 NSaved= 5 IEnMin= 5 EnMin= -723.336428030936     IErMin= 5 ErrMin= 7.49D-03
 ErrMax= 7.49D-03  0.00D+00 EMaxC= 1.00D-01 BMatC= 4.86D-02 BMatP= 1.73D-01
 IDIUse=3 WtCom= 9.25D-01 WtEn= 7.49D-02
 Coeff-Com: -0.102D+00 0.351D+00 0.329D+00 0.311D-01 0.392D+00
 Coeff-En:   0.000D+00 0.000D+00 0.000D+00 0.000D+00 0.100D+01
 Coeff:     -0.948D-01 0.325D+00 0.304D+00 0.288D-01 0.437D+00
 Gap=     0.223 Goal=   None    Shift=    0.000
 RMSDP=3.74D-03 MaxDP=1.45D-01 DE=-1.69D+00 OVMax= 1.13D-01

 Cycle   6  Pass 0  IDiag  1:
 E= -723.315984670519     Delta-E=        0.020443360417 Rises=F Damp=F
 DIIS: error= 9.30D-03 at cycle   6 NSaved=   6.
 NSaved= 6 IEnMin= 5 EnMin= -723.336428030936     IErMin= 5 ErrMin= 7.49D-03
 ErrMax= 9.30D-03  0.00D+00 EMaxC= 1.00D-01 BMatC= 6.09D-02 BMatP= 4.86D-02
 IDIUse=3 WtCom= 9.25D-01 WtEn= 7.49D-02
 Coeff-Com: -0.171D+00 0.242D+00 0.626D-01 0.375D-02 0.321D+00 0.542D+00
 Coeff-En:   0.000D+00 0.000D+00 0.000D+00 0.000D+00 0.629D+00 0.371D+00
 Coeff:     -0.158D+00 0.224D+00 0.579D-01 0.347D-02 0.344D+00 0.529D+00
 Gap=     0.149 Goal=   None    Shift=    0.000
 RMSDP=1.37D-03 MaxDP=5.58D-02 DE= 2.04D-02 OVMax= 3.27D-02

 Cycle   7  Pass 0  IDiag  1:
 E= -723.358127337734     Delta-E=       -0.042142667215 Rises=F Damp=F
 DIIS: error= 5.98D-03 at cycle   7 NSaved=   7.
 NSaved= 7 IEnMin= 7 EnMin= -723.358127337734     IErMin= 7 ErrMin= 5.98D-03
 ErrMax= 5.98D-03  0.00D+00 EMaxC= 1.00D-01 BMatC= 1.83D-02 BMatP= 4.86D-02
 IDIUse=3 WtCom= 9.40D-01 WtEn= 5.98D-02
 Coeff-Com: -0.117D+00 0.130D+00-0.534D-01 0.974D-02 0.112D+00 0.929D-01
 Coeff-Com:  0.826D+00
 Coeff-En:   0.000D+00 0.000D+00 0.000D+00 0.000D+00 0.237D+00 0.000D+00
 Coeff-En:   0.763D+00
 Coeff:     -0.110D+00 0.122D+00-0.502D-01 0.915D-02 0.120D+00 0.873D-01
 Coeff:      0.822D+00
 Gap=     0.113 Goal=   None    Shift=    0.000
 RMSDP=1.08D-03 MaxDP=5.70D-02 DE=-4.21D-02 OVMax= 2.07D-02

 Cycle   8  Pass 0  IDiag  1:
 E= -723.372484386216     Delta-E=       -0.014357048482 Rises=F Damp=F
 DIIS: error= 3.44D-03 at cycle   8 NSaved=   8.
 NSaved= 8 IEnMin= 8 EnMin= -723.372484386216     IErMin= 8 ErrMin= 3.44D-03
 ErrMax= 3.44D-03  0.00D+00 EMaxC= 1.00D-01 BMatC= 5.56D-03 BMatP= 1.83D-02
 IDIUse=3 WtCom= 9.66D-01 WtEn= 3.44D-02
 Coeff-Com: -0.431D-01 0.418D-01-0.505D-01 0.113D-01-0.340D-01-0.155D+00
 Coeff-Com:  0.220D+00 0.101D+01
 Coeff-En:   0.000D+00 0.000D+00 0.000D+00 0.000D+00 0.000D+00 0.000D+00
 Coeff-En:   0.000D+00 0.100D+01
 Coeff:     -0.416D-01 0.404D-01-0.487D-01 0.109D-01-0.328D-01-0.150D+00
 Coeff:      0.212D+00 0.101D+01
 Gap=     0.092 Goal=   None    Shift=    0.000
 RMSDP=9.75D-04 MaxDP=5.30D-02 DE=-1.44D-02 OVMax= 1.99D-02

 Cycle   9  Pass 0  IDiag  1:
 E= -723.378020363860     Delta-E=       -0.005535977644 Rises=F Damp=F
 DIIS: error= 1.04D-03 at cycle   9 NSaved=   9.
 NSaved= 9 IEnMin= 9 EnMin= -723.378020363860     IErMin= 9 ErrMin= 1.04D-03
 ErrMax= 1.04D-03  0.00D+00 EMaxC= 1.00D-01 BMatC= 6.72D-04 BMatP= 5.56D-03
 IDIUse=3 WtCom= 9.90D-01 WtEn= 1.04D-02
 Coeff-Com:  0.652D-02-0.539D-03 0.446D-02 0.294D-02-0.405D-01-0.508D-01
 Coeff-Com: -0.368D+00 0.429D+00 0.102D+01
 Coeff-En:   0.000D+00 0.000D+00 0.000D+00 0.000D+00 0.000D+00 0.000D+00
 Coeff-En:   0.000D+00 0.000D+00 0.100D+01
 Coeff:      0.645D-02-0.533D-03 0.441D-02 0.291D-02-0.401D-01-0.503D-01
 Coeff:     -0.365D+00 0.424D+00 0.102D+01
 Gap=     0.078 Goal=   None    Shift=    0.000
 RMSDP=6.61D-04 MaxDP=2.92D-02 DE=-5.54D-03 OVMax= 1.38D-02

 Cycle  10  Pass 0  IDiag  1:
 E= -723.378880718340     Delta-E=       -0.000860354480 Rises=F Damp=F
 DIIS: error= 1.52D-04 at cycle  10 NSaved=  10.
 NSaved=10 IEnMin=10 EnMin= -723.378880718340     IErMin=10 ErrMin= 1.52D-04
 ErrMax= 1.52D-04  0.00D+00 EMaxC= 1.00D-01 BMatC= 2.21D-05 BMatP= 6.72D-04
 IDIUse=3 WtCom= 9.98D-01 WtEn= 1.52D-03
 Coeff-Com:  0.567D-02-0.291D-02 0.599D-02 0.735D-03-0.147D-01-0.562D-02
 Coeff-Com: -0.195D+00 0.112D+00 0.529D+00 0.566D+00
 Coeff-En:   0.000D+00 0.000D+00 0.000D+00 0.000D+00 0.000D+00 0.000D+00
 Coeff-En:   0.000D+00 0.000D+00 0.000D+00 0.100D+01
 Coeff:      0.566D-02-0.290D-02 0.598D-02 0.734D-03-0.146D-01-0.561D-02
 Coeff:     -0.195D+00 0.111D+00 0.528D+00 0.566D+00
 Gap=     0.078 Goal=   None    Shift=    0.000
 RMSDP=8.25D-05 MaxDP=3.23D-03 DE=-8.60D-04 OVMax= 1.75D-03

 Cycle  11  Pass 0  IDiag  1:
 E= -723.378892495244     Delta-E=       -0.000011776903 Rises=F Damp=F
 DIIS: error= 1.19D-04 at cycle  11 NSaved=  11.
 NSaved=11 IEnMin=11 EnMin= -723.378892495244     IErMin=11 ErrMin= 1.19D-04
 ErrMax= 1.19D-04  0.00D+00 EMaxC= 1.00D-01 BMatC= 7.28D-06 BMatP= 2.21D-05
 IDIUse=3 WtCom= 9.99D-01 WtEn= 1.19D-03
 Coeff-Com:  0.156D-02-0.113D-02 0.174D-02 0.135D-03-0.167D-02 0.129D-02
 Coeff-Com: -0.385D-01 0.187D-01 0.130D+00 0.258D+00 0.630D+00
 Coeff-En:   0.000D+00 0.000D+00 0.000D+00 0.000D+00 0.000D+00 0.000D+00
 Coeff-En:   0.000D+00 0.000D+00 0.000D+00 0.163D+00 0.837D+00
 Coeff:      0.156D-02-0.113D-02 0.174D-02 0.134D-03-0.167D-02 0.129D-02
 Coeff:     -0.385D-01 0.186D-01 0.130D+00 0.258D+00 0.630D+00
 Gap=     0.079 Goal=   None    Shift=    0.000
 RMSDP=2.88D-05 MaxDP=1.52D-03 DE=-1.18D-05 OVMax= 4.21D-04

 Cycle  12  Pass 0  IDiag  1:
 E= -723.378898586020     Delta-E=       -0.000006090777 Rises=F Damp=F
 DIIS: error= 6.30D-05 at cycle  12 NSaved=  12.
 NSaved=12 IEnMin=12 EnMin= -723.378898586020     IErMin=12 ErrMin= 6.30D-05
 ErrMax= 6.30D-05  0.00D+00 EMaxC= 1.00D-01 BMatC= 1.31D-06 BMatP= 7.28D-06
 IDIUse=1 WtCom= 1.00D+00 WtEn= 0.00D+00
 Coeff-Com:  0.381D-03-0.318D-03 0.348D-03 0.591D-06 0.253D-03-0.133D-03
 Coeff-Com: -0.187D-02 0.816D-02 0.241D-01 0.753D-01 0.274D+00 0.619D+00
 Coeff:      0.381D-03-0.318D-03 0.348D-03 0.591D-06 0.253D-03-0.133D-03
 Coeff:     -0.187D-02 0.816D-02 0.241D-01 0.753D-01 0.274D+00 0.619D+00
 Gap=     0.079 Goal=   None    Shift=    0.000
 RMSDP=1.49D-05 MaxDP=8.92D-04 DE=-6.09D-06 OVMax= 2.36D-04

 Cycle  13  Pass 0  IDiag  1:
 E= -723.378899743073     Delta-E=       -0.000001157053 Rises=F Damp=F
 DIIS: error= 1.48D-05 at cycle  13 NSaved=  13.
 NSaved=13 IEnMin=13 EnMin= -723.378899743073     IErMin=13 ErrMin= 1.48D-05
 ErrMax= 1.48D-05  0.00D+00 EMaxC= 1.00D-01 BMatC= 1.42D-07 BMatP= 1.31D-06
 IDIUse=1 WtCom= 1.00D+00 WtEn= 0.00D+00
 Coeff-Com:  0.319D-04-0.874D-04-0.118D-03-0.945D-05 0.238D-03-0.724D-03
 Coeff-Com:  0.514D-02 0.357D-02-0.684D-02-0.383D-02 0.241D-01 0.262D+00
 Coeff-Com:  0.716D+00
 Coeff:      0.319D-04-0.874D-04-0.118D-03-0.945D-05 0.238D-03-0.724D-03
 Coeff:      0.514D-02 0.357D-02-0.684D-02-0.383D-02 0.241D-01 0.262D+00
 Coeff:      0.716D+00
 Gap=     0.079 Goal=   None    Shift=    0.000
 RMSDP=6.53D-06 MaxDP=3.03D-04 DE=-1.16D-06 OVMax= 1.22D-04

 Initial convergence to 1.0D-05 achieved.  Increase integral accuracy.
 Cycle  14  Pass 1  IDiag  1:
 E= -723.378875430093     Delta-E=        0.000024312981 Rises=F Damp=F
 DIIS: error= 6.23D-06 at cycle   1 NSaved=   1.
 NSaved= 1 IEnMin= 1 EnMin= -723.378875430093     IErMin= 1 ErrMin= 6.23D-06
 ErrMax= 6.23D-06  0.00D+00 EMaxC= 1.00D-01 BMatC= 2.23D-08 BMatP= 2.23D-08
 IDIUse=1 WtCom= 1.00D+00 WtEn= 0.00D+00
 Coeff-Com:  0.100D+01
 Coeff:      0.100D+01
 Gap=     0.079 Goal=   None    Shift=    0.000
 RMSDP=6.53D-06 MaxDP=3.03D-04 DE= 2.43D-05 OVMax= 9.58D-05

 Cycle  15  Pass 1  IDiag  1:
 E= -723.378875431233     Delta-E=       -0.000000001140 Rises=F Damp=F
 DIIS: error= 1.04D-05 at cycle   2 NSaved=   2.
 NSaved= 2 IEnMin= 2 EnMin= -723.378875431233     IErMin= 1 ErrMin= 6.23D-06
 ErrMax= 1.04D-05  0.00D+00 EMaxC= 1.00D-01 BMatC= 3.32D-08 BMatP= 2.23D-08
 IDIUse=1 WtCom= 1.00D+00 WtEn= 0.00D+00
 Coeff-Com:  0.561D+00 0.439D+00
 Coeff:      0.561D+00 0.439D+00
 Gap=     0.079 Goal=   None    Shift=    0.000
 RMSDP=3.46D-06 MaxDP=2.04D-04 DE=-1.14D-09 OVMax= 7.09D-05

 Cycle  16  Pass 1  IDiag  1:
 E= -723.378875457369     Delta-E=       -0.000000026136 Rises=F Damp=F
 DIIS: error= 3.42D-06 at cycle   3 NSaved=   3.
 NSaved= 3 IEnMin= 3 EnMin= -723.378875457369     IErMin= 3 ErrMin= 3.42D-06
 ErrMax= 3.42D-06  0.00D+00 EMaxC= 1.00D-01 BMatC= 2.71D-09 BMatP= 2.23D-08
 IDIUse=1 WtCom= 1.00D+00 WtEn= 0.00D+00
 Coeff-Com:  0.406D-01 0.218D+00 0.742D+00
 Coeff:      0.406D-01 0.218D+00 0.742D+00
 Gap=     0.079 Goal=   None    Shift=    0.000
 RMSDP=7.23D-07 MaxDP=3.92D-05 DE=-2.61D-08 OVMax= 1.53D-05

 Cycle  17  Pass 1  IDiag  1:
 E= -723.378875459177     Delta-E=       -0.000000001809 Rises=F Damp=F
 DIIS: error= 7.47D-07 at cycle   4 NSaved=   4.
 NSaved= 4 IEnMin= 4 EnMin= -723.378875459177     IErMin= 4 ErrMin= 7.47D-07
 ErrMax= 7.47D-07  0.00D+00 EMaxC= 1.00D-01 BMatC= 4.64D-10 BMatP= 2.71D-09
 IDIUse=1 WtCom= 1.00D+00 WtEn= 0.00D+00
 Coeff-Com: -0.217D-01 0.934D-01 0.420D+00 0.508D+00
 Coeff:     -0.217D-01 0.934D-01 0.420D+00 0.508D+00
 Gap=     0.079 Goal=   None    Shift=    0.000
 RMSDP=2.21D-07 MaxDP=1.00D-05 DE=-1.81D-09 OVMax= 4.37D-06

 Cycle  18  Pass 1  IDiag  1:
 E= -723.378875459581     Delta-E=       -0.000000000404 Rises=F Damp=F
 DIIS: error= 1.45D-07 at cycle   5 NSaved=   5.
 NSaved= 5 IEnMin= 5 EnMin= -723.378875459581     IErMin= 5 ErrMin= 1.45D-07
 ErrMax= 1.45D-07  0.00D+00 EMaxC= 1.00D-01 BMatC= 1.20D-11 BMatP= 4.64D-10
 IDIUse=1 WtCom= 1.00D+00 WtEn= 0.00D+00
 Coeff-Com: -0.113D-01 0.383D-01 0.162D+00 0.226D+00 0.585D+00
 Coeff:     -0.113D-01 0.383D-01 0.162D+00 0.226D+00 0.585D+00
 Gap=     0.079 Goal=   None    Shift=    0.000
 RMSDP=6.69D-08 MaxDP=3.09D-06 DE=-4.04D-10 OVMax= 1.66D-06

 Cycle  19  Pass 1  IDiag  1:
 E= -723.378875459593     Delta-E=       -0.000000000012 Rises=F Damp=F
 DIIS: error= 6.59D-08 at cycle   6 NSaved=   6.
 NSaved= 6 IEnMin= 6 EnMin= -723.378875459593     IErMin= 6 ErrMin= 6.59D-08
 ErrMax= 6.59D-08  0.00D+00 EMaxC= 1.00D-01 BMatC= 2.17D-12 BMatP= 1.20D-11
 IDIUse=1 WtCom= 1.00D+00 WtEn= 0.00D+00
 Coeff-Com: -0.360D-02 0.102D-01 0.333D-01 0.561D-01 0.315D+00 0.589D+00
 Coeff:     -0.360D-02 0.102D-01 0.333D-01 0.561D-01 0.315D+00 0.589D+00
 Gap=     0.079 Goal=   None    Shift=    0.000
 RMSDP=3.68D-08 MaxDP=1.35D-06 DE=-1.21D-11 OVMax= 1.14D-06

 Cycle  20  Pass 1  IDiag  1:
 E= -723.378875459594     Delta-E=       -0.000000000001 Rises=F Damp=F
 DIIS: error= 1.47D-08 at cycle   7 NSaved=   7.
 NSaved= 7 IEnMin= 7 EnMin= -723.378875459594     IErMin= 7 ErrMin= 1.47D-08
 ErrMax= 1.47D-08  0.00D+00 EMaxC= 1.00D-01 BMatC= 1.50D-13 BMatP= 2.17D-12
 IDIUse=1 WtCom= 1.00D+00 WtEn= 0.00D+00
 Coeff-Com:  0.108D-03-0.809D-03-0.918D-02-0.973D-02 0.401D-01 0.233D+00
 Coeff-Com:  0.747D+00
 Coeff:      0.108D-03-0.809D-03-0.918D-02-0.973D-02 0.401D-01 0.233D+00
 Coeff:      0.747D+00
 Gap=     0.079 Goal=   None    Shift=    0.000
 RMSDP=2.26D-08 MaxDP=9.11D-07 DE=-6.82D-13 OVMax= 6.96D-07

 Cycle  21  Pass 1  IDiag  1:
 E= -723.378875459587     Delta-E=        0.000000000007 Rises=F Damp=F
 DIIS: error= 6.64D-09 at cycle   8 NSaved=   8.
 NSaved= 8 IEnMin= 7 EnMin= -723.378875459594     IErMin= 8 ErrMin= 6.64D-09
 ErrMax= 6.64D-09  0.00D+00 EMaxC= 1.00D-01 BMatC= 2.70D-14 BMatP= 1.50D-13
 IDIUse=1 WtCom= 1.00D+00 WtEn= 0.00D+00
 Coeff-Com:  0.365D-03-0.127D-02-0.732D-02-0.994D-02-0.113D-01 0.582D-01
 Coeff-Com:  0.380D+00 0.591D+00
 Coeff:      0.365D-03-0.127D-02-0.732D-02-0.994D-02-0.113D-01 0.582D-01
 Coeff:      0.380D+00 0.591D+00
 Gap=     0.079 Goal=   None    Shift=    0.000
 RMSDP=7.68D-09 MaxDP=3.00D-07 DE= 7.05D-12 OVMax= 2.39D-07

 SCF Done:  E(RPBE1PBE) =  -723.378875460     A.U. after   21 cycles
            NFock= 21  Conv=0.77D-08     -V/T= 2.0025
 KE= 7.215857276167D+02 PE=-3.606142051504D+03 EE= 1.225739282507D+03
 Leave Link  502 at Mon Mar  6 10:23:57 2023, MaxMem=  1048576000 cpu:             121.6 elap:             122.5
 (Enter /ssoft/spack/external/gaussian/g16-C.01/avx2/g16/l801.exe)
 DoSCS=F DFT=T ScalE2(SS,OS)=  1.000000  1.000000
 Range of M.O.s used for correlation:     1   242
 NBasis=   242 NAE=    52 NBE=    52 NFC=     0 NFV=     0
 NROrb=    242 NOA=    52 NOB=    52 NVA=   190 NVB=   190

 **** Warning!!: The smallest alpha delta epsilon is  0.79219971D-01

 Leave Link  801 at Mon Mar  6 10:23:58 2023, MaxMem=  1048576000 cpu:               0.0 elap:               0.0
 (Enter /ssoft/spack/external/gaussian/g16-C.01/avx2/g16/l1101.exe)
 Using compressed storage, NAtomX=    25.
 Will process     26 centers per pass.
   1 Symmetry operations used in ECPInt.
 ECPInt:  NShTT=    6555 NPrTT=   23641 LenC2=    6414 LenP2D=   17574.
 LDataN:  DoStor=T MaxTD1= 5 Len=  102
 R6Disp: Adding Grimme-D3(BJ) dispersion energy 1st derivatives to the gradient.
 Leave Link 1101 at Mon Mar  6 10:23:58 2023, MaxMem=  1048576000 cpu:               0.3 elap:               0.3
 (Enter /ssoft/spack/external/gaussian/g16-C.01/avx2/g16/l1102.exe)
 Symmetrizing basis deriv contribution to polar:
 IMax=3 JMax=2 DiffMx= 0.00D+00
 Leave Link 1102 at Mon Mar  6 10:23:58 2023, MaxMem=  1048576000 cpu:               0.0 elap:               0.0
 (Enter /ssoft/spack/external/gaussian/g16-C.01/avx2/g16/l1110.exe)
 Forming Gx(P) for the SCF density, NAtomX=    25.
 Integral derivatives from FoFJK, PRISM(SPDF).
 Do as many integral derivatives as possible in FoFJK.
 G2DrvN: MDV=    1048573289.
 G2DrvN: will do    26 centers at a time, making    1 passes.
 Calling FoFCou, ICntrl=  3107 FMM=F I1Cent=   0 AccDes= 0.00D+00.
 FoFJK:  IHMeth= 1 ICntrl=    3107 DoSepK=F KAlg= 0 I1Cent=           0 FoldK=F
 IRaf=         0 NMat=       1 IRICut=       1 DoRegI=T DoRafI=F ISym2E= 0 IDoP0=0 IntGTp=1.
 FoFCou: FMM=F IPFlag=           0 FMFlag=      100000 FMFlg1=           0
         NFxFlg=           0 DoJE=F BraDBF=F KetDBF=F FulRan=T
         wScrn=  0.000000 ICntrl=      3107 IOpCl=  0 I1Cent=           0 NGrid=           0
         NMat0=    1 NMatS0=      1 NMatT0=    0 NMatD0=    1 NMtDS0=    0 NMtDT0=    0
 Symmetry not used in FoFCou.
 End of G2Drv F.D. properties file   721 does not exist.
 End of G2Drv F.D. properties file   722 does not exist.
 End of G2Drv F.D. properties file   788 does not exist.
 Leave Link 1110 at Mon Mar  6 10:29:28 2023, MaxMem=  1048576000 cpu:             328.5 elap:             330.1
 (Enter /ssoft/spack/external/gaussian/g16-C.01/avx2/g16/l1002.exe)
 Minotr:  Closed shell wavefunction.
          IDoAtm=1111111111111111111111111
          Direct CPHF calculation.
          Differentiating once with respect to electric field.
                with respect to dipole field.
          Differentiating once with respect to nuclear coordinates.
          Requested convergence is 1.0D-08 RMS, and 1.0D-07 maximum.
          Secondary convergence is 1.0D-12 RMS, and 1.0D-12 maximum.
          NewPWx=T KeepS1=F KeepF1=F KeepIn=T MapXYZ=F SortEE=F KeepMc=T.
         7486 words used for storage of precomputed grid.
 Keep R1 ints in memory in canonical form, NReq=440684169.
 FoFCou: FMM=F IPFlag=           0 FMFlag=           0 FMFlg1=           0
         NFxFlg=           0 DoJE=F BraDBF=F KetDBF=F FulRan=T
         wScrn=  0.000000 ICntrl=       600 IOpCl=  0 I1Cent=           0 NGrid=           0
         NMat0=    1 NMatS0=  29403 NMatT0=    0 NMatD0=    1 NMtDS0=    0 NMtDT0=    0
 Symmetry not used in FoFCou.
 Two-electron integral symmetry not used.
          MDV=    1048576000 using IRadAn=       1.
          Solving linear equations simultaneously, MaxMat=       0.
          There are    78 degrees of freedom in the 1st order CPHF.  IDoFFX=6 NUNeed=     3.
     75 vectors produced by pass  0 Test12= 1.27D-14 1.28D-09 XBig12= 1.44D+02 4.14D+00.
 AX will form    75 AO Fock derivatives at one time.
     75 vectors produced by pass  1 Test12= 1.27D-14 1.28D-09 XBig12= 2.38D+01 9.36D-01.
     75 vectors produced by pass  2 Test12= 1.27D-14 1.28D-09 XBig12= 2.79D-01 1.02D-01.
     75 vectors produced by pass  3 Test12= 1.27D-14 1.28D-09 XBig12= 1.73D-03 6.06D-03.
     75 vectors produced by pass  4 Test12= 1.27D-14 1.28D-09 XBig12= 5.03D-06 2.75D-04.
     75 vectors produced by pass  5 Test12= 1.27D-14 1.28D-09 XBig12= 8.46D-09 1.02D-05.
     30 vectors produced by pass  6 Test12= 1.27D-14 1.28D-09 XBig12= 1.10D-11 3.40D-07.
      3 vectors produced by pass  7 Test12= 1.27D-14 1.28D-09 XBig12= 1.37D-14 1.15D-08.
 InvSVY:  IOpt=1 It=  1 EMax= 5.33D-15
 Solved reduced A of dimension   483 with    78 vectors.
 FullF1:  Do perturbations      1 to       3.
 Isotropic polarizability for W=    0.000000      103.22 Bohr**3.
 End of Minotr F.D. properties file   721 does not exist.
 End of Minotr F.D. properties file   722 does not exist.
 End of Minotr F.D. properties file   788 does not exist.
 Leave Link 1002 at Mon Mar  6 10:34:38 2023, MaxMem=  1048576000 cpu:             308.7 elap:             310.4
 (Enter /ssoft/spack/external/gaussian/g16-C.01/avx2/g16/l601.exe)
 Copying SCF densities to generalized density rwf, IOpCl= 0 IROHF=0.

 **********************************************************************

            Population analysis using the SCF Density.

 **********************************************************************

 Orbital symmetries:
       Occupied  (A) (A) (A) (A) (A) (A) (A) (A) (A) (A) (A) (A)
                 (A) (A) (A) (A) (A) (A) (A) (A) (A) (A) (A) (A)
                 (A) (A) (A) (A) (A) (A) (A) (A) (A) (A) (A) (A)
                 (A) (A) (A) (A) (A) (A) (A) (A) (A) (A) (A) (A)
                 (A) (A) (A) (A)
       Virtual   (A) (A) (A) (A) (A) (A) (A) (A) (A) (A) (A) (A)
                 (A) (A) (A) (A) (A) (A) (A) (A) (A) (A) (A) (A)
                 (A) (A) (A) (A) (A) (A) (A) (A) (A) (A) (A) (A)
                 (A) (A) (A) (A) (A) (A) (A) (A) (A) (A) (A) (A)
                 (A) (A) (A) (A) (A) (A) (A) (A) (A) (A) (A) (A)
                 (A) (A) (A) (A) (A) (A) (A) (A) (A) (A) (A) (A)
                 (A) (A) (A) (A) (A) (A) (A) (A) (A) (A) (A) (A)
                 (A) (A) (A) (A) (A) (A) (A) (A) (A) (A) (A) (A)
                 (A) (A) (A) (A) (A) (A) (A) (A) (A) (A) (A) (A)
                 (A) (A) (A) (A) (A) (A) (A) (A) (A) (A) (A) (A)
                 (A) (A) (A) (A) (A) (A) (A) (A) (A) (A) (A) (A)
                 (A) (A) (A) (A) (A) (A) (A) (A) (A) (A) (A) (A)
                 (A) (A) (A) (A) (A) (A) (A) (A) (A) (A) (A) (A)
                 (A) (A) (A) (A) (A) (A) (A) (A) (A) (A) (A) (A)
                 (A) (A) (A) (A) (A) (A) (A) (A) (A) (A) (A) (A)
                 (A) (A) (A) (A) (A) (A) (A) (A) (A) (A)
 The electronic state is 1-A.
 Alpha  occ. eigenvalues --  -18.93965 -18.93236 -18.90810 -18.88531 -18.68223
 Alpha  occ. eigenvalues --  -18.67701 -10.00581  -9.98965  -9.96706  -9.96300
 Alpha  occ. eigenvalues --   -9.91500  -9.84788  -9.84641  -0.83505  -0.79486
 Alpha  occ. eigenvalues --   -0.76033  -0.72685  -0.53911  -0.52890  -0.51108
 Alpha  occ. eigenvalues --   -0.47179  -0.43400  -0.39746  -0.34044  -0.32123
 Alpha  occ. eigenvalues --   -0.30456  -0.28049  -0.25859  -0.23070  -0.22167
 Alpha  occ. eigenvalues --   -0.21355  -0.19822  -0.17741  -0.15043  -0.14528
 Alpha  occ. eigenvalues --   -0.11785  -0.11396  -0.09901  -0.07701  -0.06183
 Alpha  occ. eigenvalues --   -0.04796  -0.02760  -0.02224  -0.00627   0.01460
 Alpha  occ. eigenvalues --    0.03695   0.06137   0.07863   0.19618   0.20323
 Alpha  occ. eigenvalues --    0.22280   0.22480
 Alpha virt. eigenvalues --    0.30402   0.32343   0.34432   0.36503   0.38245
 Alpha virt. eigenvalues --    0.38426   0.39577   0.40394   0.43179   0.45373
 Alpha virt. eigenvalues --    0.45488   0.47794   0.48156   0.50444   0.51490
 Alpha virt. eigenvalues --    0.52368   0.54305   0.55528   0.58847   0.59959
 Alpha virt. eigenvalues --    0.63392   0.64439   0.66125   0.68538   0.69590
 Alpha virt. eigenvalues --    0.72929   0.74586   0.76460   0.78184   0.79896
 Alpha virt. eigenvalues --    0.82623   0.84432   0.86930   0.87784   0.89347
 Alpha virt. eigenvalues --    0.92837   0.93195   0.94232   0.94630   0.96532
 Alpha virt. eigenvalues --    0.97812   0.98030   0.98999   0.99696   1.01144
 Alpha virt. eigenvalues --    1.02591   1.03501   1.04061   1.05311   1.06091
 Alpha virt. eigenvalues --    1.08168   1.09512   1.10755   1.11453   1.12081
 Alpha virt. eigenvalues --    1.13430   1.14772   1.15775   1.17813   1.18725
 Alpha virt. eigenvalues --    1.21573   1.27597   1.29335   1.32060   1.33914
 Alpha virt. eigenvalues --    1.35831   1.36597   1.37433   1.38671   1.42341
 Alpha virt. eigenvalues --    1.42971   1.46128   1.49303   1.51124   1.53008
 Alpha virt. eigenvalues --    1.54075   1.55242   1.57090   1.58056   1.60173
 Alpha virt. eigenvalues --    1.61223   1.63043   1.64771   1.68115   1.69469
 Alpha virt. eigenvalues --    1.72527   1.74371   1.76313   1.78423   1.80968
 Alpha virt. eigenvalues --    1.83030   1.83774   1.85319   1.86625   1.87543
 Alpha virt. eigenvalues --    1.91011   1.93492   1.96194   1.98384   2.00100
 Alpha virt. eigenvalues --    2.01086   2.02220   2.06974   2.09679   2.10886
 Alpha virt. eigenvalues --    2.11122   2.13296   2.14028   2.15698   2.17041
 Alpha virt. eigenvalues --    2.18657   2.21484   2.23492   2.23988   2.26476
 Alpha virt. eigenvalues --    2.29222   2.31201   2.32507   2.33522   2.35205
 Alpha virt. eigenvalues --    2.38539   2.40978   2.43036   2.44530   2.45496
 Alpha virt. eigenvalues --    2.48537   2.50520   2.51269   2.55891   2.58275
 Alpha virt. eigenvalues --    2.62671   2.65180   2.66211   2.67463   2.70081
 Alpha virt. eigenvalues --    2.70958   2.72458   2.74710   2.78354   2.80546
 Alpha virt. eigenvalues --    2.83345   2.87091   2.89311   2.92317   2.94882
 Alpha virt. eigenvalues --    2.97534   3.00421   3.01658   3.08722   3.12080
 Alpha virt. eigenvalues --    3.12566   3.13322   3.19380   3.20859   3.22406
 Alpha virt. eigenvalues --    3.24600   3.25717   3.26102   3.28744   3.33012
 Alpha virt. eigenvalues --    3.34171   3.34958   3.40068   3.42644   3.43675
 Alpha virt. eigenvalues --    3.45716   3.46553   3.48050   3.51448   3.55169
 Alpha virt. eigenvalues --    3.56299   3.57663   3.60402   3.62519   3.65753
 Alpha virt. eigenvalues --    3.68262   3.70874   3.71915   3.74630   3.76443
 Alpha virt. eigenvalues --    3.77346   3.78659   3.83055   3.85546   3.92349
 Alpha virt. eigenvalues --    3.96185   3.97954   4.09180   4.33517   4.35404
     Molecular Orbital Coefficients:
                          48        49        50        51        52
                           O         O         O         O         O
     Eigenvalues --     0.07863   0.19618   0.20323   0.22280   0.22480
   1 1   O  1S          0.00075   0.00498  -0.00274   0.00288  -0.00062
   2        2S          0.00052   0.00870  -0.00565   0.00658  -0.00233
   3        3S          0.00920   0.03327  -0.01407   0.00740  -0.00210
   4        4PX         0.00720   0.00075   0.00098   0.00071  -0.00411
   5        4PY        -0.01826   0.00165  -0.00328   0.00157   0.00288
   6        4PZ        -0.00961  -0.00873   0.00631  -0.00648   0.00190
   7        5PX         0.00415  -0.00043   0.00343   0.00486  -0.00768
   8        5PY        -0.01672   0.00433  -0.00196   0.00163   0.00593
   9        5PZ        -0.01235  -0.01204   0.00453  -0.00279  -0.00477
  10        6D 0        0.00023   0.00036  -0.00021   0.00008   0.00008
  11        6D+1       -0.00009   0.00003  -0.00000  -0.00022   0.00002
  12        6D-1       -0.00004  -0.00055   0.00003  -0.00019  -0.00016
  13        6D+2        0.00076   0.00071  -0.00018   0.00029  -0.00013
  14        6D-2       -0.00045   0.00044  -0.00003   0.00034   0.00007
  15 2   C  1S         -0.00782  -0.00987   0.00362  -0.00377   0.00619
  16        2S          0.01718   0.01857  -0.00695   0.00192  -0.01459
  17        3S          0.08271   0.15122  -0.06150   0.13004  -0.04520
  18        4PX        -0.03040  -0.02445   0.01044  -0.01302   0.01201
  19        4PY         0.02718   0.01835  -0.00157   0.00706  -0.00616
  20        4PZ        -0.00493  -0.01468   0.00480  -0.00599   0.00289
  21        5PX        -0.04986  -0.05730   0.01186  -0.05173  -0.01713
  22        5PY         0.01536   0.02257  -0.01125   0.04262  -0.00838
  23        5PZ        -0.02098  -0.03039   0.01667   0.00850   0.00818
  24        6D 0        0.00082   0.00170  -0.00089   0.00082  -0.00056
  25        6D+1        0.00210   0.00119  -0.00062   0.00067  -0.00036
  26        6D-1       -0.00021   0.00057  -0.00079   0.00018  -0.00005
  27        6D+2        0.00387   0.00350  -0.00200   0.00136  -0.00015
  28        6D-2       -0.00164  -0.00052   0.00087  -0.00055   0.00016
  29 3   H  1S         -0.02425  -0.02324   0.00817  -0.01001  -0.00012
  30        2S         -0.06616  -0.08845   0.04280  -0.04442   0.02699
  31        3PX        -0.00061  -0.00138   0.00027  -0.00039   0.00052
  32        3PY        -0.00015   0.00057  -0.00048   0.00000  -0.00054
  33        3PZ         0.00024  -0.00029   0.00036  -0.00059   0.00013
  34 4   H  1S         -0.00080  -0.00076  -0.00140   0.00135  -0.00198
  35        2S          0.01021  -0.01983   0.01376  -0.02726   0.03032
  36        3PX         0.00035  -0.00001   0.00022   0.00032  -0.00051
  37        3PY        -0.00154  -0.00190   0.00104  -0.00073  -0.00020
  38        3PZ        -0.00045   0.00011  -0.00020   0.00000  -0.00034
  39 5   C  1S          0.01295   0.01232   0.00240   0.00613  -0.00314
  40        2S         -0.02772  -0.01511   0.00003  -0.00059   0.00028
  41        3S         -0.13856  -0.29302   0.05721  -0.28794   0.16862
  42        4PX        -0.03759  -0.02528   0.02511  -0.00261  -0.00752
  43        4PY        -0.10013  -0.05295   0.02214  -0.01644   0.00169
  44        4PZ         0.00842  -0.00401  -0.00811  -0.00940  -0.00548
  45        5PX        -0.04169  -0.08558   0.06351  -0.07215  -0.00768
  46        5PY        -0.02690  -0.10758   0.05196  -0.08226   0.08495
  47        5PZ         0.02200  -0.00092   0.01913  -0.07249  -0.03315
  48        6D 0        0.00414  -0.00124  -0.00005  -0.00005   0.00176
  49        6D+1        0.00022   0.00162   0.00044   0.00057   0.00066
  50        6D-1        0.00274   0.00123  -0.00110  -0.00082   0.00111
  51        6D+2       -0.00060  -0.00443   0.00160  -0.00232  -0.00003
  52        6D-2       -0.00715  -0.00581   0.00247  -0.00214   0.00155
  53 6   H  1S          0.01930  -0.00028  -0.00124  -0.00682   0.01296
  54        2S          0.05870  -0.00616   0.04225  -0.04801  -0.04470
  55        3PX         0.00045  -0.00014  -0.00046   0.00039   0.00097
  56        3PY        -0.00419  -0.00241   0.00188  -0.00119  -0.00204
  57        3PZ        -0.00039  -0.00124  -0.00165  -0.00106  -0.00005
  58 7   O  1S          0.05896   0.00886  -0.00087  -0.00991  -0.00410
  59        2S          0.10588   0.02174  -0.00938  -0.01787  -0.00996
  60        3S          0.19533   0.02300   0.06780  -0.07826  -0.01310
  61        4PX         0.11104  -0.44335   0.07007  -0.22740   0.19294
  62        4PY         0.34534   0.12834  -0.06387   0.09075  -0.02764
  63        4PZ         0.01399   0.06219   0.36154  -0.28520  -0.36143
  64        5PX         0.07693  -0.35417   0.04530  -0.19520   0.16017
  65        5PY         0.24630   0.10163  -0.07207   0.10171  -0.01405
  66        5PZ         0.00081   0.03936   0.29580  -0.21437  -0.30300
  67        6D 0        0.00614  -0.00175  -0.00186   0.00475   0.00227
  68        6D+1       -0.00077   0.00227  -0.00258   0.00225  -0.00027
  69        6D-1       -0.00172  -0.00246  -0.00693   0.00563   0.00694
  70        6D+2        0.00895   0.00540  -0.00215   0.00381  -0.00079
  71        6D-2       -0.00577   0.00940  -0.00062   0.00307  -0.00338
  72 8   C  1S          0.03558  -0.01839  -0.00015   0.02985  -0.01778
  73        2S         -0.09532   0.05248  -0.01343  -0.06673   0.03247
  74        3S          0.00203   0.14720   0.11150  -0.24220   0.30411
  75        4PX        -0.06763  -0.00234  -0.00653   0.10864  -0.07422
  76        4PY        -0.25749  -0.02946   0.01104   0.01130  -0.02089
  77        4PZ        -0.08570   0.06042  -0.07417  -0.05775   0.11118
  78        5PX        -0.02859  -0.24414   0.00534   0.13735   0.05473
  79        5PY        -0.09567   0.00965  -0.18105   0.17436  -0.07955
  80        5PZ         0.01509   0.03238   0.08596  -0.12930  -0.07961
  81        6D 0        0.01511  -0.00913   0.00967  -0.00311  -0.00842
  82        6D+1        0.00164   0.00104   0.01076  -0.00454  -0.01401
  83        6D-1        0.00034   0.00054   0.02058  -0.01217  -0.02201
  84        6D+2        0.00930  -0.01556   0.00225  -0.01080   0.00376
  85        6D-2       -0.01055  -0.02185   0.00605  -0.01306   0.01327
  86 9   C  1S         -0.00119  -0.04156   0.01068  -0.02568   0.00769
  87        2S         -0.00776   0.08200  -0.02768   0.05729  -0.00123
  88        3S          0.02815   0.58412  -0.20797   0.29800  -0.19244
  89        4PX        -0.01199  -0.08982   0.06075  -0.07228   0.04790
  90        4PY         0.09734   0.09825  -0.04416   0.05897  -0.02315
  91        4PZ         0.01585   0.01631   0.00539  -0.01595   0.03697
  92        5PX        -0.00987  -0.09715   0.15621  -0.18419   0.19487
  93        5PY         0.02111   0.00341   0.01700  -0.09935  -0.00954
  94        5PZ        -0.00862   0.01139  -0.07355   0.04200   0.14420
  95        6D 0        0.00419   0.00177   0.00107   0.00018  -0.00099
  96        6D+1        0.00324  -0.00144   0.00647   0.00158  -0.00286
  97        6D-1       -0.00079  -0.00019  -0.00013  -0.00134   0.00136
  98        6D+2        0.01275   0.00776  -0.00286   0.00024   0.00164
  99        6D-2       -0.00062  -0.00080   0.00072  -0.00098   0.00172
 100 10  H  1S          0.09893  -0.06241   0.12339  -0.05487  -0.10606
 101        2S          0.10029  -0.15963   0.12955  -0.02488  -0.19604
 102        3PX         0.00040   0.00329   0.00088   0.00290  -0.00350
 103        3PY        -0.00794   0.00005   0.00111   0.00035   0.00379
 104        3PZ         0.00082   0.00023  -0.00207  -0.00189   0.00563
 105 11  H  1S          0.03627   0.02038   0.02459  -0.00183   0.00767
 106        2S          0.01026  -0.20654   0.05649  -0.02466  -0.23631
 107        3PX         0.00108  -0.00012   0.00173  -0.00044   0.00527
 108        3PY         0.00156   0.00046  -0.00110   0.00417  -0.00247
 109        3PZ         0.00007  -0.00239   0.00044  -0.00145  -0.00020
 110 12  O  1S          0.00343   0.01188  -0.00677  -0.00137  -0.00065
 111        2S          0.00902   0.02617  -0.00818  -0.01019  -0.00027
 112        3S         -0.00478   0.05687  -0.08538   0.05930  -0.02091
 113        4PX         0.02517   0.01761  -0.00206   0.04149  -0.03323
 114        4PY        -0.05366   0.01044   0.02041  -0.01739  -0.00799
 115        4PZ         0.02094   0.00985  -0.02718   0.01193  -0.01336
 116        5PX         0.02544   0.05188   0.00605   0.04173  -0.06359
 117        5PY        -0.04245   0.02501   0.01308  -0.00590  -0.01068
 118        5PZ         0.01786  -0.00288  -0.04566   0.02968  -0.01374
 119        6D 0        0.00198  -0.00048   0.00014  -0.00106   0.00119
 120        6D+1        0.00084  -0.00018   0.00052  -0.00011  -0.00104
 121        6D-1        0.00047   0.00213  -0.00110   0.00113  -0.00115
 122        6D+2        0.00199   0.00087  -0.00076   0.00166  -0.00080
 123        6D-2       -0.00194   0.00108   0.00051   0.00016  -0.00221
 124 13  H  1S         -0.02147  -0.00496   0.01242  -0.00481  -0.00988
 125        2S          0.02523  -0.16460   0.00125  -0.03351   0.12199
 126        3PX         0.00076   0.00456   0.00008   0.00311  -0.00522
 127        3PY        -0.00316  -0.00167  -0.00012  -0.00085  -0.00023
 128        3PZ         0.00266   0.00094  -0.00109   0.00069  -0.00084
 129 14  O  1S         -0.05069  -0.00514  -0.00157   0.01077   0.00756
 130        2S         -0.09294  -0.00542   0.00132   0.02992   0.02583
 131        3S         -0.15829  -0.07219  -0.03785   0.00334  -0.04325
 132        4PX        -0.10404  -0.29998  -0.10220   0.28488  -0.31417
 133        4PY        -0.04194   0.02343   0.39944   0.29915   0.24857
 134        4PZ        -0.25540   0.14301  -0.10814  -0.21957   0.07157
 135        5PX        -0.07281  -0.22770  -0.06579   0.22409  -0.26742
 136        5PY        -0.03084   0.02866   0.33113   0.24299   0.21045
 137        5PZ        -0.17964   0.13569  -0.07927  -0.17533   0.08593
 138        6D 0        0.00617  -0.00667   0.00313   0.00838  -0.00076
 139        6D+1        0.00655   0.00370   0.00230  -0.00164   0.00457
 140        6D-1        0.00342  -0.00258  -0.00782  -0.00286  -0.00478
 141        6D+2        0.00100   0.00317   0.00449  -0.00044   0.00564
 142        6D-2        0.00092   0.00327  -0.00228  -0.00688  -0.00111
 143 15  O  1S         -0.00384  -0.00072   0.00868   0.00191  -0.00292
 144        2S         -0.00375   0.00110   0.01717   0.00130  -0.00287
 145        3S         -0.03260  -0.02248   0.05060   0.04397  -0.03247
 146        4PX         0.04571  -0.00717   0.00679  -0.00431   0.02652
 147        4PY         0.11231  -0.00308  -0.01896  -0.02280  -0.00522
 148        4PZ         0.03840   0.01933   0.00455   0.00997   0.02546
 149        5PX         0.04279  -0.00011  -0.00461   0.00850   0.02569
 150        5PY         0.09215  -0.00985  -0.01984  -0.01823  -0.01112
 151        5PZ         0.03446   0.01959  -0.00221   0.01504   0.02920
 152        6D 0       -0.00153   0.00005  -0.00040  -0.00081  -0.00071
 153        6D+1       -0.00195  -0.00033   0.00029  -0.00027  -0.00120
 154        6D-1       -0.00021   0.00075  -0.00087   0.00050  -0.00048
 155        6D+2        0.00053  -0.00083  -0.00197  -0.00152   0.00006
 156        6D-2       -0.00050  -0.00098  -0.00185  -0.00103  -0.00032
 157 16  C  1S          0.02542  -0.00224  -0.04217  -0.03613  -0.00643
 158        2S         -0.06703   0.00698   0.11927   0.08394   0.03963
 159        3S          0.02682   0.10260   0.32298   0.36644  -0.25109
 160        4PX        -0.02760   0.02468   0.03305   0.01144   0.00547
 161        4PY        -0.13499   0.02811   0.14650   0.10464  -0.00890
 162        4PZ         0.01391  -0.00293  -0.00209   0.00625  -0.00392
 163        5PX        -0.00745   0.08770  -0.00760  -0.07418   0.02810
 164        5PY        -0.04590   0.09921   0.17544   0.08934  -0.08251
 165        5PZ         0.00610  -0.05445  -0.06105  -0.04886  -0.10353
 166        6D 0        0.00235   0.00119  -0.00128  -0.00219   0.00189
 167        6D+1        0.00622   0.00278  -0.00335  -0.00163  -0.00514
 168        6D-1        0.00301   0.00233  -0.00142  -0.00267  -0.00811
 169        6D+2        0.00827   0.00018   0.00017  -0.00028   0.00369
 170        6D-2        0.00311  -0.00112  -0.00089  -0.00250   0.00725
 171 17  C  1S         -0.03218   0.02748   0.01622  -0.00030  -0.02625
 172        2S          0.08553  -0.04967  -0.02813   0.01799   0.04997
 173        3S         -0.09866  -0.35134  -0.19498  -0.01546   0.41189
 174        4PX         0.09947  -0.02366  -0.02067  -0.02140   0.12894
 175        4PY         0.13217  -0.03570  -0.05793  -0.01945   0.00789
 176        4PZ         0.15142   0.05591   0.06300   0.02348  -0.10392
 177        5PX         0.03755  -0.03599  -0.06511   0.13377  -0.00308
 178        5PY         0.06517   0.08364   0.19827   0.06293  -0.00806
 179        5PZ         0.06517   0.23677   0.10537  -0.07037  -0.04255
 180        6D 0        0.01240   0.00800  -0.00649  -0.02274   0.01239
 181        6D+1        0.00532  -0.01518  -0.00499   0.01214  -0.01943
 182        6D-1        0.00732   0.00279   0.01873   0.01139   0.01634
 183        6D+2        0.00373  -0.00813  -0.01658  -0.00244  -0.01006
 184        6D-2       -0.00726  -0.00030   0.01710   0.00927   0.00195
 185 18  H  1S          0.02101  -0.01911  -0.00515   0.00850   0.03884
 186        2S         -0.01426   0.07628  -0.09366  -0.19503   0.18807
 187        3PX        -0.00015   0.00101  -0.00004   0.00109  -0.00127
 188        3PY        -0.00426   0.00236   0.00337   0.00120   0.00001
 189        3PZ        -0.00121   0.00168   0.00321   0.00169   0.00327
 190 19  O  1S          0.01506   0.00799  -0.01353  -0.00876   0.00001
 191        2S          0.03265   0.01846  -0.02081  -0.00682   0.00190
 192        3S          0.05739   0.02626  -0.12424  -0.13541  -0.00872
 193        4PX         0.00271   0.00010  -0.02258   0.00443  -0.02010
 194        4PY         0.03278   0.00265  -0.01298  -0.01177   0.01189
 195        4PZ         0.05121   0.01743  -0.01211  -0.03701  -0.01082
 196        5PX        -0.01089  -0.00758  -0.02186  -0.00966  -0.03106
 197        5PY         0.01388  -0.00411  -0.00812  -0.01713   0.00757
 198        5PZ         0.03159   0.01630  -0.02571  -0.05845  -0.01054
 199        6D 0        0.00287  -0.00000  -0.00159  -0.00134   0.00012
 200        6D+1       -0.00108   0.00009  -0.00016   0.00038  -0.00006
 201        6D-1       -0.00358  -0.00001   0.00291   0.00341   0.00025
 202        6D+2        0.00151   0.00061  -0.00025  -0.00108   0.00093
 203        6D-2       -0.00205   0.00007   0.00315   0.00108   0.00155
 204 20  C  1S          0.00846   0.00071  -0.01180  -0.00855   0.00217
 205        2S         -0.02484  -0.00273   0.03152   0.02688   0.00226
 206        3S         -0.00944   0.02418   0.07615   0.02855  -0.07035
 207        4PX        -0.00747  -0.00464   0.01369   0.00910   0.00275
 208        4PY        -0.04401  -0.00912   0.03167   0.02060   0.00239
 209        4PZ        -0.01999  -0.00140   0.01457   0.00937  -0.00445
 210        5PX        -0.00809  -0.01807  -0.00527  -0.00310  -0.01995
 211        5PY        -0.04999  -0.02321   0.03497   0.02365   0.01299
 212        5PZ        -0.00378   0.00114   0.00291  -0.02300  -0.02904
 213        6D 0        0.00139  -0.00063  -0.00153  -0.00109   0.00023
 214        6D+1        0.00202  -0.00010  -0.00178  -0.00207   0.00010
 215        6D-1        0.00265   0.00052  -0.00083  -0.00208  -0.00008
 216        6D+2        0.00084  -0.00034  -0.00160  -0.00025  -0.00062
 217        6D-2       -0.00198   0.00011  -0.00054   0.00137  -0.00149
 218 21  H  1S         -0.01273  -0.00075   0.00395   0.01226  -0.00403
 219        2S         -0.01354  -0.03220  -0.02971   0.02311   0.03046
 220        3PX         0.00042  -0.00026   0.00052   0.00041   0.00101
 221        3PY        -0.00118  -0.00045   0.00106   0.00061  -0.00015
 222        3PZ        -0.00137  -0.00050   0.00067   0.00091   0.00155
 223 22  H  1S          0.00960  -0.00068  -0.00912  -0.00838  -0.00280
 224        2S          0.02510  -0.01466  -0.05671  -0.06424  -0.01785
 225        3PX         0.00019   0.00001   0.00094   0.00040   0.00005
 226        3PY        -0.00163  -0.00027   0.00184   0.00159   0.00068
 227        3PZ        -0.00067   0.00015   0.00053   0.00031  -0.00074
 228 23  H  1S         -0.00276   0.00885  -0.00166   0.00291   0.00120
 229        2S          0.00655  -0.02211   0.00446   0.01468   0.03218
 230        3PX        -0.00074  -0.00123   0.00078  -0.00098   0.00130
 231        3PY         0.00226   0.00063   0.00024   0.00008   0.00002
 232        3PZ         0.00043   0.00059  -0.00015   0.00019   0.00038
 233 24  H  1S          0.01110   0.00239   0.00651   0.00015   0.00932
 234        2S         -0.02477   0.00125   0.00656  -0.00575   0.05141
 235        3PX        -0.00180  -0.00017   0.00073   0.00039  -0.00011
 236        3PY        -0.00195  -0.00007   0.00108   0.00113  -0.00040
 237        3PZ        -0.00241  -0.00044   0.00046   0.00097   0.00038
 238 25  H  1S          0.00500  -0.07052  -0.11738   0.01450  -0.11364
 239        2S          0.03664   0.04045  -0.17831   0.06894  -0.25170
 240        3PX         0.00170   0.00083  -0.00148  -0.00318   0.00670
 241        3PY         0.00462   0.00042  -0.00353  -0.00092   0.00246
 242        3PZ         0.00496  -0.00200   0.00235   0.00340  -0.00229
                          53        54        55        56        57
                           V         V         V         V         V
     Eigenvalues --     0.30402   0.32343   0.34432   0.36503   0.38245
   1 1   O  1S          0.00982   0.06127   0.05869   0.01375   0.05213
   2        2S          0.02741   0.11035   0.08539   0.01753   0.08634
   3        3S          0.02117   0.57569   0.70212   0.20367   0.61049
   4        4PX         0.01876   0.08027   0.05137   0.01718   0.00137
   5        4PY         0.03212   0.04807   0.01167   0.00204   0.00722
   6        4PZ         0.00198  -0.04973  -0.06970  -0.02425  -0.12349
   7        5PX         0.04968   0.16193   0.08688   0.02766   0.03741
   8        5PY         0.07087   0.11865   0.02525   0.00875   0.05667
   9        5PZ         0.02939  -0.02115  -0.08934  -0.04936  -0.24943
  10        6D 0       -0.00129  -0.00149  -0.00010  -0.00157  -0.00638
  11        6D+1       -0.00002  -0.00391  -0.00551  -0.00127  -0.00450
  12        6D-1        0.00189  -0.00061  -0.00629  -0.00142  -0.00150
  13        6D+2        0.00056   0.00262   0.00114   0.00193   0.00620
  14        6D-2        0.00347   0.00773   0.00265   0.00112   0.00722
  15 2   C  1S         -0.04331  -0.04149   0.06684   0.02101   0.05631
  16        2S          0.03920  -0.02136  -0.13395  -0.03058  -0.09765
  17        3S          1.22922   1.99047  -0.97601  -0.51936  -1.35248
  18        4PX        -0.02907   0.00209   0.05425  -0.03448  -0.22663
  19        4PY        -0.12951  -0.12026   0.14745   0.01526  -0.12306
  20        4PZ        -0.02551  -0.14147  -0.10381   0.00575   0.03093
  21        5PX        -0.06571  -0.01366   0.25042  -0.09269  -0.82583
  22        5PY        -0.34662  -0.14116   0.54259  -0.00590  -0.46700
  23        5PZ        -0.06528  -0.46550  -0.24868   0.02779   0.30302
  24        6D 0        0.00106   0.00789   0.00510   0.00211   0.01203
  25        6D+1        0.00224   0.00754   0.00567   0.00077   0.00973
  26        6D-1        0.00077   0.00310   0.00110   0.00230   0.00568
  27        6D+2       -0.00082   0.00258   0.00115  -0.00076  -0.00090
  28        6D-2       -0.00161  -0.00213   0.00328   0.00047  -0.00022
  29 3   H  1S          0.00041  -0.01929   0.01934  -0.00605  -0.05534
  30        2S         -0.95758  -0.78713   1.39688   0.12535  -0.74456
  31        3PX         0.00245   0.00041  -0.00192   0.00010  -0.00166
  32        3PY        -0.00111   0.00336   0.00005  -0.00100  -0.00079
  33        3PZ        -0.00017  -0.00565  -0.00736  -0.00247  -0.01118
  34 4   H  1S          0.00640  -0.02694  -0.04501  -0.00554  -0.00469
  35        2S         -0.19714  -0.97609  -0.86945  -0.20001  -0.44473
  36        3PX         0.00136   0.00226  -0.00092   0.00151   0.00719
  37        3PY         0.00115   0.00207   0.00146  -0.00033   0.00091
  38        3PZ         0.00158  -0.00211  -0.00893  -0.00258  -0.00829
  39 5   C  1S         -0.01197   0.00168   0.01057   0.01135   0.02241
  40        2S          0.00136  -0.00399  -0.02948  -0.01600  -0.00425
  41        3S          0.31608  -0.35600  -0.22734  -0.35487  -0.86518
  42        4PX        -0.02625  -0.01804   0.04474   0.02546   0.05248
  43        4PY        -0.00023   0.02613   0.00890   0.00996   0.01951
  44        4PZ        -0.03836  -0.01264   0.02066   0.05246   0.05294
  45        5PX        -0.14571  -0.18982   0.08820   0.12483   0.33599
  46        5PY         0.08498   0.17908  -0.04715   0.03085  -0.04497
  47        5PZ        -0.16755  -0.01453   0.12536   0.29425   0.24475
  48        6D 0        0.00002  -0.00266  -0.00292   0.00085  -0.00130
  49        6D+1       -0.00039  -0.00489  -0.00719  -0.00186  -0.01143
  50        6D-1       -0.00202   0.00570   0.00658  -0.00004  -0.00279
  51        6D+2       -0.00350  -0.00657   0.00265  -0.00159  -0.01099
  52        6D-2        0.00071   0.00097   0.00263  -0.00155   0.00054
  53 6   H  1S         -0.00455  -0.01533  -0.01711  -0.00191  -0.04391
  54        2S         -0.40603  -0.02298   0.31575   0.62985   0.80868
  55        3PX         0.00305   0.00251   0.00336   0.00093   0.00902
  56        3PY         0.00325  -0.00313  -0.00537  -0.00017  -0.00100
  57        3PZ         0.00190   0.00231   0.00114  -0.00066  -0.00248
  58 7   O  1S          0.00076   0.00368   0.00084   0.00148  -0.00317
  59        2S          0.00316   0.00934   0.00192  -0.00002  -0.00478
  60        3S         -0.01001  -0.00262  -0.00534   0.03393  -0.03322
  61        4PX         0.03460   0.05372   0.02506  -0.00430  -0.00965
  62        4PY        -0.00961  -0.02607   0.01271  -0.01131  -0.00253
  63        4PZ        -0.00877   0.00713  -0.00214  -0.01150   0.01260
  64        5PX         0.03023   0.05076   0.02549  -0.00849  -0.00123
  65        5PY        -0.00405  -0.02188   0.01287  -0.01849   0.00548
  66        5PZ        -0.00851   0.01280   0.00382  -0.02373   0.00901
  67        6D 0        0.00003   0.00020   0.00017  -0.00011  -0.00012
  68        6D+1        0.00001   0.00019  -0.00003   0.00011  -0.00040
  69        6D-1        0.00014   0.00006  -0.00026   0.00026  -0.00019
  70        6D+2       -0.00009  -0.00097  -0.00033  -0.00040   0.00094
  71        6D-2       -0.00012  -0.00048  -0.00046  -0.00004   0.00043
  72 8   C  1S         -0.00149   0.00467  -0.00448   0.01018   0.00617
  73        2S         -0.00957  -0.00372  -0.00129  -0.01586  -0.01769
  74        3S          0.15366  -0.11329   0.04359  -0.23172  -0.01553
  75        4PX        -0.02499  -0.01993  -0.00418   0.01655  -0.02615
  76        4PY         0.00545   0.01482  -0.00676   0.00754   0.01985
  77        4PZ         0.00434  -0.02103  -0.00200   0.02722   0.00893
  78        5PX         0.01736   0.02961  -0.00513   0.02794  -0.00802
  79        5PY        -0.03537   0.05427   0.01201  -0.02656   0.05286
  80        5PZ         0.01135  -0.02726  -0.05896   0.14539   0.05527
  81        6D 0        0.00011   0.00139   0.00233  -0.00239   0.00007
  82        6D+1        0.00060   0.00420   0.00213  -0.00076  -0.00165
  83        6D-1       -0.00060  -0.00075  -0.00040  -0.00163   0.00061
  84        6D+2        0.00056  -0.00102   0.00189  -0.00066   0.00040
  85        6D-2        0.00121   0.00326   0.00004   0.00060  -0.00099
  86 9   C  1S         -0.00646  -0.01146  -0.00637  -0.00180  -0.02475
  87        2S          0.01425   0.01050   0.00504  -0.00089   0.04486
  88        3S         -0.10902   0.23123   0.24102   0.07447   0.28766
  89        4PX         0.00739   0.01317   0.01316  -0.00553   0.00743
  90        4PY        -0.02324  -0.04346   0.00546   0.00108  -0.05011
  91        4PZ         0.01171   0.05690   0.04157   0.01743  -0.01298
  92        5PX         0.09690   0.08203   0.02415   0.02105  -0.08581
  93        5PY        -0.03169  -0.02267   0.04385   0.02993  -0.16346
  94        5PZ         0.01979   0.08912   0.12598   0.01487   0.05143
  95        6D 0        0.00072   0.00079  -0.00095   0.00093   0.00198
  96        6D+1        0.00056  -0.00346  -0.00301  -0.00207  -0.00073
  97        6D-1        0.00259   0.00237   0.00039  -0.00043   0.00170
  98        6D+2        0.00000   0.00140  -0.00128   0.00019  -0.00172
  99        6D-2        0.00227   0.00333  -0.00147   0.00126   0.00651
 100 10  H  1S          0.00293   0.03088   0.01239  -0.01264   0.00350
 101        2S         -0.02852   0.04454  -0.07814   0.29294   0.04941
 102        3PX        -0.00182  -0.00267  -0.00215  -0.00113   0.00077
 103        3PY         0.00019  -0.00082  -0.00036   0.00025   0.00105
 104        3PZ         0.00103   0.00019  -0.00062   0.00116  -0.00202
 105 11  H  1S          0.01603   0.01333  -0.00918  -0.01154  -0.00498
 106        2S          0.00316  -0.14475  -0.22759  -0.11686  -0.12141
 107        3PX        -0.00272  -0.00843  -0.00496  -0.00211   0.00040
 108        3PY         0.00056  -0.00079  -0.00074  -0.00003   0.00497
 109        3PZ        -0.00093  -0.00291  -0.00287   0.00148  -0.00282
 110 12  O  1S          0.00751   0.02871   0.01107   0.00046  -0.03717
 111        2S          0.01694   0.06019   0.01870   0.00082  -0.06659
 112        3S          0.02669   0.17195   0.12944   0.00854  -0.29897
 113        4PX         0.01348   0.04278   0.02366   0.00140  -0.02722
 114        4PY        -0.01531  -0.02250   0.01615   0.00990   0.00778
 115        4PZ        -0.00735   0.01648   0.01503   0.02623   0.02668
 116        5PX         0.00472   0.04183   0.02168   0.00208  -0.06191
 117        5PY        -0.00890   0.00667   0.03631   0.01362  -0.01194
 118        5PZ        -0.01635  -0.00625   0.00079   0.01431  -0.00125
 119        6D 0        0.00063   0.00118  -0.00075  -0.00027  -0.00091
 120        6D+1       -0.00063  -0.00031  -0.00026   0.00070  -0.00124
 121        6D-1       -0.00074  -0.00018   0.00113   0.00149   0.00154
 122        6D+2        0.00097   0.00039  -0.00214  -0.00079  -0.00109
 123        6D-2        0.00094   0.00354   0.00199   0.00036  -0.00100
 124 13  H  1S          0.00124  -0.00045   0.00372   0.00566   0.04571
 125        2S         -0.04094  -0.28610  -0.21871  -0.04948   0.40480
 126        3PX         0.00103   0.00275   0.00063  -0.00028  -0.00103
 127        3PY        -0.00091   0.00081   0.00301   0.00035  -0.00220
 128        3PZ        -0.00032   0.00152   0.00159   0.00215   0.00332
 129 14  O  1S          0.00142   0.00119   0.00119   0.00210   0.00046
 130        2S          0.00154   0.00251   0.00188  -0.00204  -0.00075
 131        3S          0.02496  -0.00005   0.00488   0.06575   0.01659
 132        4PX        -0.00905   0.00801   0.00621  -0.01860   0.00175
 133        4PY        -0.01164   0.01493  -0.01039  -0.00117  -0.00260
 134        4PZ         0.00337  -0.01337   0.00469  -0.00272   0.01352
 135        5PX        -0.00900   0.00609   0.00805  -0.02980   0.00069
 136        5PY        -0.01141   0.01920  -0.00804  -0.00696  -0.00648
 137        5PZ        -0.00219  -0.01375   0.00180  -0.01630   0.00764
 138        6D 0        0.00009   0.00028   0.00016   0.00009   0.00018
 139        6D+1        0.00010   0.00005  -0.00022   0.00034  -0.00019
 140        6D-1        0.00022  -0.00005   0.00001   0.00048   0.00036
 141        6D+2        0.00003   0.00024  -0.00012   0.00008  -0.00026
 142        6D-2        0.00027  -0.00015  -0.00011   0.00011   0.00020
 143 15  O  1S          0.01613   0.00880   0.00514  -0.00695   0.01330
 144        2S          0.03792   0.01520   0.01203  -0.01920   0.02607
 145        3S          0.04662   0.07194   0.01712  -0.00243   0.12401
 146        4PX        -0.03075   0.00980   0.03043   0.02217  -0.01556
 147        4PY        -0.05794  -0.00944   0.02819   0.00310  -0.01947
 148        4PZ        -0.00706   0.01961  -0.01906   0.01440  -0.04752
 149        5PX        -0.03549  -0.00385   0.03826  -0.03332  -0.01591
 150        5PY        -0.05336  -0.00460   0.03758  -0.00209   0.00143
 151        5PZ        -0.01687   0.02273  -0.02954   0.00202  -0.09295
 152        6D 0        0.00200   0.00048  -0.00019  -0.00228  -0.00181
 153        6D+1       -0.00127  -0.00090  -0.00034   0.00194   0.00002
 154        6D-1        0.00057  -0.00015   0.00049   0.00051  -0.00009
 155        6D+2        0.00329  -0.00118  -0.00304   0.00230   0.00116
 156        6D-2       -0.00217   0.00259   0.00152   0.00118  -0.00176
 157 16  C  1S         -0.00400   0.01148  -0.00376  -0.00606  -0.00437
 158        2S          0.02148  -0.01421   0.00300   0.03830  -0.01026
 159        3S          0.10160  -0.28823   0.08147   0.03403   0.22089
 160        4PX        -0.03549  -0.00691  -0.02643  -0.01702  -0.00331
 161        4PY        -0.00822   0.02914  -0.00661  -0.02680   0.00576
 162        4PZ         0.03819  -0.02238   0.02674  -0.01383   0.01136
 163        5PX        -0.07076  -0.03688  -0.06377   0.01070  -0.01709
 164        5PY        -0.02614  -0.01074  -0.05897   0.12863   0.00847
 165        5PZ         0.18986  -0.05542   0.10265   0.08670  -0.00338
 166        6D 0        0.00297  -0.00163   0.00365   0.00142  -0.00282
 167        6D+1       -0.00118   0.00040  -0.00154  -0.00254   0.00219
 168        6D-1       -0.00343   0.00090  -0.00061  -0.00052   0.00196
 169        6D+2       -0.00077  -0.00055   0.00388  -0.00352  -0.00040
 170        6D-2       -0.00232   0.00168  -0.00085   0.00440   0.00030
 171 17  C  1S          0.00053  -0.00071   0.00449   0.00607  -0.00591
 172        2S         -0.00688  -0.01011  -0.02198  -0.00080   0.02189
 173        3S          0.05828   0.17379   0.12236  -0.28870  -0.04463
 174        4PX         0.00833  -0.00859  -0.00144   0.01209   0.00372
 175        4PY         0.00899  -0.01716   0.02246  -0.00725  -0.00721
 176        4PZ        -0.00519   0.00673  -0.00214   0.00412  -0.00760
 177        5PX        -0.05359   0.02051  -0.01233   0.03723  -0.04370
 178        5PY        -0.00020  -0.08151  -0.01089   0.00967   0.02791
 179        5PZ        -0.04711  -0.02959  -0.02631  -0.04876   0.00098
 180        6D 0        0.00188  -0.00014  -0.00036   0.00160  -0.00114
 181        6D+1        0.00004   0.00017   0.00013   0.00067  -0.00060
 182        6D-1       -0.00020   0.00149  -0.00141   0.00238  -0.00305
 183        6D+2        0.00050  -0.00031   0.00122   0.00049  -0.00017
 184        6D-2        0.00110   0.00097  -0.00047  -0.00047  -0.00016
 185 18  H  1S          0.01704  -0.01593   0.02084   0.00998  -0.00509
 186        2S         -0.30310   0.17420  -0.19146  -0.11023  -0.13506
 187        3PX         0.00049  -0.00176   0.00104  -0.00260   0.00000
 188        3PY         0.00215  -0.00120   0.00408  -0.00843   0.00230
 189        3PZ         0.00045   0.00023   0.00041  -0.00206  -0.00150
 190 19  O  1S          0.00636  -0.00260   0.00479  -0.04607   0.01400
 191        2S          0.02570  -0.01639   0.01825  -0.08714   0.02725
[...]
 ,0.00033491,-0.00026449,0.00061471,-0.00017308,-0.00013581,-0.00005465
 ,0.00039953,0.00007218,0.00006748,-0.00011322,0.00276964,-0.00243266,0
 .00246651,0.00028001,0.00033563,-0.00030061,0.00104468,-0.00221780,0.0
 0667455,-0.01183359,0.04577335,-0.11036131,-0.01136445,0.02976100,-0.0
 2046651,0.00439829,-0.01665416,0.00711249,0.00047265,-0.00053144,0.001
 30602,0.00042853,0.00310695,-0.00864935,0.00054113,0.00010343,-0.00021
 071,-0.01736292,-0.02538106,-0.10626359,0.04459512,-0.00755702,-0.0327
 1994,0.03954054,0.01051537,-0.08399975,-0.06263825,0.08089747,1.007956
 37,-0.00001960,-0.00008907,-0.00004542,0.00021901,-0.00030994,0.000235
 21,0.00006955,-0.00005095,-0.00010375,-0.00001037,0.00003283,0.0000136
 0,0.00097002,0.00078533,0.00179082,-0.00017191,0.00019294,-0.00020465,
 -0.00388484,0.00246614,-0.00107480,-0.00323347,-0.00525459,0.00390894,
 0.00010133,-0.00038615,0.00070410,0.00041241,0.00027665,-0.00005197,-0
 .00000544,0.00007204,-0.00014455,0.00025914,0.00014578,-0.00035951,-0.
 00012796,-0.00004918,0.00022973,0.00644165,-0.00227379,0.00250307,0.00
 556724,-0.00992127,0.01255095,-0.05930097,0.41037714,-0.13639680,-0.01
 037527,0.03457355,-0.01373023,0.05758946,-0.00002709,0.00010590,0.0001
 3627,0.00004991,-0.00004441,-0.00008118,-0.00006598,0.00002653,0.00005
 909,0.00001588,-0.00001383,-0.00004730,0.00012996,0.00230473,-0.000721
 77,0.00000276,0.00018523,-0.00038453,0.00070290,0.00033266,0.00003602,
 -0.00161581,0.00086860,-0.00131238,-0.00019413,-0.00013002,-0.00044379
 ,0.00002822,-0.00007451,0.00034854,0.00004885,0.00005874,-0.00000017,-
 0.00013259,-0.00014415,0.00020153,0.00003225,0.00003395,-0.00009774,0.
 00035467,0.00220941,-0.00010362,0.00112041,0.00442787,-0.00218221,0.38
 665475,-0.88226897,0.33061767,-0.00122507,0.00046480,0.00010363,-0.387
 03371,0.90445645,-0.00023652,-0.00048311,-0.00013692,-0.00050691,0.002
 54008,-0.00060773,0.00010320,-0.00003376,0.00009186,0.00009816,0.00003
 695,0.00006764,0.00255794,-0.00193168,-0.00601154,0.00009897,0.0000476
 7,-0.00005841,0.00089834,-0.00044709,0.00035780,0.00053578,0.00059043,
 -0.00088811,0.00081905,-0.00034209,-0.00019004,0.00016706,0.00018895,0
 .00019648,-0.00005498,0.00005367,0.00012188,-0.00056405,0.00014282,0.0
 0019590,0.00010772,0.00005606,-0.00008183,-0.00251085,0.00076232,-0.00
 121753,-0.01125666,0.04540301,-0.04317760,-0.12436189,0.32331783,0.000
 08462,0.00489359,-0.01184965,0.00640690,0.13176712,-0.32176602,0.04309
 587,0.00046915,-0.00006001,-0.00048305,-0.00105788,0.00058646,0.000197
 40,0.00063010,-0.00025589,-0.00021228,-0.00002562,0.00009597,0.0002714
 3,0.00126621,-0.00316636,0.00107654,-0.00052346,0.00108747,-0.00090521
 ,-0.00072156,0.00093894,-0.00002756,0.00054351,-0.00029609,-0.00094855
 ,0.00029218,-0.00024878,0.00014566,-0.00114188,0.00003809,-0.00046914,
 0.00009681,-0.00022176,0.00032599,-0.00036001,0.00125251,-0.00104362,-
 0.00003318,-0.00011089,0.00023169,-0.01254066,0.00038308,0.00077911,0.
 00624017,0.00249101,-0.01683092,-0.10168933,-0.05639337,-0.01264350,-0
 .03071728,-0.03748045,-0.01873056,-0.00071488,-0.00022570,-0.00482358,
 0.44460493,0.00022589,0.00025403,0.00015149,-0.00040845,0.00134270,-0.
 00033482,0.00020757,-0.00012302,0.00020288,0.00007287,0.00010890,0.000
 14505,0.00259895,-0.00434777,0.00314563,0.00003723,0.00316612,-0.00121
 780,0.00009015,0.00197053,0.00037696,-0.00036065,-0.00353616,-0.000712
 53,0.00097701,0.00019986,-0.00024064,0.00162101,0.00236572,0.00062188,
 0.00026350,-0.00015812,0.00038953,-0.00063209,0.00092383,-0.00034432,-
 0.00002453,0.00004691,0.00005207,-0.00187530,0.00446152,0.00105818,-0.
 00371014,0.00261532,-0.03161424,-0.00206500,-0.18046895,-0.02972683,-0
 .01189692,-0.00279920,-0.00199641,-0.04113017,-0.03581542,-0.03733787,
 0.05949605,0.28532888,-0.00048679,-0.00031643,-0.00135418,-0.00065999,
 -0.00025098,0.00109669,0.00007093,-0.00006832,0.00026843,0.00028100,0.
 00011127,0.00016676,0.00356180,-0.00655013,0.00530500,-0.00050611,0.00
 097708,-0.00088266,-0.00097569,0.00017264,0.00088884,0.00045210,-0.000
 25437,-0.00021333,0.00216766,-0.00056551,-0.00009209,-0.00035420,0.000
 17818,0.00007437,-0.00010444,0.00028124,-0.00011690,-0.00131130,0.0008
 7319,0.00000109,0.00010164,0.00004658,0.00002537,0.00151375,0.00085729
 ,0.00236528,-0.01933123,-0.03546593,-0.05514701,-0.00290899,-0.0517361
 3,-0.07684538,-0.00748417,-0.00158410,0.00116038,-0.00358030,-0.004374
 25,0.00234329,0.02748734,0.12017086,0.18120012,-0.00015405,0.00038775,
 0.00062977,0.00112654,-0.00040205,-0.00043980,-0.00046149,0.00016044,0
 .00031863,-0.00005534,-0.00008823,-0.00011906,-0.00205213,0.00059285,-
 0.00099719,0.00044744,0.00036311,-0.00075996,0.00144214,-0.00025116,0.
 00047480,-0.00020073,0.00093031,-0.00060630,-0.00037396,0.00022930,-0.
 00006314,-0.00014835,0.00104651,-0.00022791,0.00014671,-0.00009471,0.0
 0013769,0.00029267,-0.00040885,0.00049283,-0.00002331,0.00004775,-0.00
 014320,-0.00114932,0.00161799,0.00044771,0.00048311,0.00160588,0.00851
 862,-0.04633229,-0.01087518,-0.01420411,0.00392027,-0.00951469,-0.0054
 6313,0.00474643,0.00333797,0.00375746,-0.20680045,0.00251494,0.0054211
 2,0.46677742,0.00002280,-0.00001932,-0.00010240,-0.00007250,0.00020292
 ,0.00000634,0.,-0.00006340,0.00007059,0.00000556,0.00001247,0.00005144
 ,0.00037714,-0.00123512,0.00059178,0.00027054,0.00006136,0.00009175,0.
 00009032,0.00043386,0.00022625,-0.00002426,-0.00026744,-0.00029064,0.0
 0003848,0.00006069,-0.00002006,-0.00002286,0.00089324,-0.00004262,0.00
 002376,-0.00005425,0.00014675,-0.00018623,0.00017819,-0.00012628,0.000
 02329,0.00000943,-0.00000555,-0.00301882,-0.00038034,-0.00004059,-0.00
 107878,0.00066923,-0.00083464,-0.03307249,0.00088739,0.00519048,0.0016
 4403,-0.00446957,-0.00358923,-0.00322003,0.00269128,-0.00111282,0.0245
 8014,-0.09547044,-0.02041922,-0.09457559,1.28527881,0.00036288,0.00020
 944,0.00023280,-0.00045018,-0.00008146,-0.00026619,0.00020713,-0.00009
 650,-0.00026623,-0.00004502,0.00001678,-0.00001676,-0.00091381,-0.0006
 7285,-0.00066542,-0.00038369,0.00069313,-0.00025777,-0.00013980,0.0001
 4918,-0.00027333,0.00026598,-0.00049250,0.00048955,-0.00024833,0.00031
 449,0.00006598,0.00003042,0.00003114,-0.00005895,0.00015987,-0.0000676
 1,0.00003631,0.00021143,-0.00000120,-0.00012163,-0.00006412,0.00000240
 ,0.00006572,-0.00147388,-0.00026116,0.00040047,-0.00108563,0.00036224,
 -0.00016371,-0.02201038,0.00306148,0.00223780,0.00100496,-0.00233469,-
 0.00163118,0.00108495,0.00043398,-0.00016597,0.01602632,-0.02138839,-0
 .07887205,0.14711068,0.40580761,0.92717341,0.,-0.00008334,-0.00015738,
 -0.00012936,0.00002488,0.00011272,0.00010123,-0.00004056,-0.00001942,0
 .00000727,0.00001583,0.00004709,0.00009910,-0.00021885,0.00028349,-0.0
 0011962,0.00001499,0.00021245,-0.00036771,-0.00009097,-0.00011374,0.00
 027685,0.00025922,0.00008753,0.00021021,-0.00009700,0.00006019,-0.0000
 2292,-0.00053889,-0.00000564,-0.00000607,0.00000328,-0.00005266,-0.000
 09470,0.00019934,-0.00015783,-0.00000514,-0.00001492,0.00004672,-0.000
 14543,-0.00032820,0.00009626,-0.00039744,-0.00050354,-0.00172306,0.006
 82676,0.00710090,0.00380202,0.00001650,-0.00031811,0.00037427,0.000439
 75,-0.00212427,-0.00030278,-0.02588025,0.03444783,-0.01380620,-0.12802
 117,0.35006271,-0.08527149,0.12941449,0.00009230,0.00014689,0.00018644
 ,0.00000758,-0.00013044,-0.00016076,-0.00001122,-0.00000366,-0.0000400
 4,-0.00001966,-0.00000439,-0.00004196,-0.00044395,0.00006073,-0.000277
 41,-0.00006283,0.00005040,0.00002269,0.00017138,0.00001807,-0.00008814
 ,-0.00022948,-0.00042900,0.00013445,-0.00009059,0.00012828,-0.00001388
 ,0.00011286,0.00014616,0.00009517,0.00004823,-0.00001743,0.00001039,0.
 00012849,-0.00007523,0.00006347,-0.00002843,0.00000836,-0.00000656,0.0
 0046382,0.00008556,-0.00004690,0.00052472,-0.00023174,0.00070253,-0.00
 228247,0.00236640,-0.00330257,-0.00059760,0.00055221,-0.00000077,0.001
 86432,0.00032790,0.00133876,0.00421229,0.01287783,-0.00437489,0.339878
 41,-0.68622558,0.15779427,-0.36005873,0.70166938,-0.00005928,-0.000068
 61,-0.00005496,-0.00002032,0.00001466,0.00011866,0.00002740,0.00004237
 ,0.00005286,0.00000454,-0.00001389,-0.00000350,0.00019431,0.00044874,-
 0.00007024,0.00018733,-0.00023101,0.00012704,0.00015048,-0.00008002,0.
 00002880,-0.00017051,0.00017820,-0.00014548,0.00000830,-0.00013750,-0.
 00002084,-0.00001744,-0.00005349,0.00001556,-0.00004675,0.00001342,0.0
 0001772,0.00001421,-0.00004804,0.00002222,0.00002137,-0.00000706,-0.00
 002107,-0.00002244,-0.00008627,-0.00006708,0.00061341,-0.00060395,-0.0
 0030117,-0.00047396,0.00234777,0.00106840,0.00034997,-0.00019119,0.000
 01669,0.00027372,-0.00018194,0.00003275,-0.00204915,-0.00696522,0.0011
 8157,-0.08178125,0.16365506,0.01820028,0.08156728,-0.18104895,0.002270
 44,0.00005754,0.00000727,-0.00001252,-0.00012649,0.00006398,-0.0000149
 2,0.00007112,-0.00002527,-0.00000295,-0.00000992,0.00000330,0.00001950
 ,0.00016694,-0.00020905,0.00007847,0.00002460,0.00006719,0.00005593,-0
 .00005846,0.00023656,-0.00004524,-0.00007757,-0.00027126,0.00008419,-0
 .00003822,-0.00003154,0.00012168,0.00006595,0.00023060,0.00001137,0.00
 000532,-0.00003435,0.00006649,0.00002538,0.00011182,-0.00011225,-0.000
 00005,-0.00001971,0.00001830,-0.00133895,-0.00024569,0.00001898,0.0011
 9670,0.00006923,-0.00032035,-0.00625736,0.00470113,0.00367421,0.000975
 75,-0.00187419,-0.00141013,0.00017830,0.00007849,0.00005804,-0.0417327
 3,-0.03571112,-0.02632432,-0.03117646,-0.24971150,-0.21702348,0.007043
 05,0.01220655,0.01084818,0.06660136,0.00002327,-0.00003383,-0.00003251
 ,-0.00006731,0.00002721,0.00001786,0.00004463,-0.00001590,-0.00002989,
 -0.00000561,0.00000894,0.00001759,-0.00003606,0.00021627,-0.00012854,-
 0.00004724,-0.00002796,0.00000593,-0.00025850,0.00008516,-0.00009424,0
 .00003616,-0.00009854,0.00028970,-0.00001560,-0.00004366,0.00002843,-0
 .00000832,-0.00005724,-0.00000915,-0.00001293,-0.00001444,0.00001010,0
 .00003175,0.00002581,-0.00006467,-0.00001197,-0.00001964,0.00003561,-0
 .00009809,-0.00031671,-0.00005961,0.00056602,0.00007647,0.00009552,-0.
 00053102,0.00100091,0.00077551,0.00055484,0.00049109,-0.00038284,0.000
 51330,0.00044740,0.00001594,0.00444850,0.00475000,0.00280100,-0.248850
 76,-0.48737056,-0.48932839,-0.02058289,-0.02238490,-0.02825960,0.25666
 077,0.49387744,-0.00001151,-0.00000746,-0.00007501,0.00005956,0.000025
 15,0.00003511,-0.00000551,-0.00002116,0.00002591,-0.00000224,0.0000027
 5,0.00003441,0.00012503,-0.00044415,0.00036253,0.00000328,0.00003324,-
 0.00001870,-0.00014859,0.00011695,-0.00003481,0.00004475,-0.00023288,0
 .00005644,0.00010436,-0.00001966,0.00002234,0.00004745,0.00008897,0.00
 002029,0.00000632,-0.00000738,0.00001505,-0.00005435,0.00015643,-0.000
 09398,-0.00001284,-0.00000325,0.00003018,-0.00015865,-0.00016663,0.000
 03186,-0.00098277,-0.00011109,0.00041157,0.00155614,0.00039859,-0.0001
 8241,0.00036105,0.00017989,0.00011756,0.00002184,-0.00026478,-0.000269
 59,0.00430327,0.00503709,0.00595123,-0.22244628,-0.50124529,-0.3679932
 1,0.00812091,0.01870340,0.01118044,0.22661099,0.50157700,0.35476976,-0
 .00280968,-0.03122590,0.00701031,0.02618812,0.09335457,-0.05376449,-0.
 00576456,0.03195212,-0.01846190,0.00477683,0.00085676,0.00172128,0.001
 09429,-0.00971489,0.00863512,0.00058931,0.00040808,-0.00068069,-0.0000
 9267,0.00012538,-0.00013030,0.00001030,0.00025290,-0.00017723,0.001256
 60,-0.00157554,0.00016494,0.00000956,-0.00003670,0.00006951,0.00004018
 ,0.00010036,-0.00021488,0.00028064,0.00057484,-0.00024170,-0.00039283,
 0.00024761,-0.00032671,0.00005914,0.00016129,0.00006999,0.00049785,0.0
 0051693,0.00107183,0.00071673,-0.00036423,0.00054594,0.00000802,-0.000
 16849,-0.00023274,-0.00003255,-0.00001486,0.00014980,-0.00005495,-0.00
 002663,-0.00010718,-0.00001090,-0.00003409,0.00005497,-0.00001102,0.00
 000552,0.00003133,0.00001283,0.00001103,-0.00004033,-0.02641758,-0.004
 16999,-0.02540335,0.00397111,0.08477499,-0.66531823,0.37378878,0.00040
 635,-0.00295362,0.00374973,0.00284901,0.00254741,0.00092721,0.00019122
 ,0.00656375,-0.00421567,-0.00065437,0.00045013,0.00089094,-0.00025022,
 0.00010419,0.00011780,0.00018389,-0.00002626,-0.00050978,0.00052739,-0
 .00084506,0.00077776,-0.00000398,0.00004302,0.00006836,0.00016548,0.00
 004006,-0.00010296,0.00078376,0.00015153,-0.00124851,-0.00006133,-0.00
 014982,0.00006033,0.00000909,0.00007882,0.00014949,0.00074093,0.000848
 10,-0.00193333,-0.00000934,0.00066054,-0.00049295,-0.00005482,-0.00002
 829,-0.00004232,0.00001961,-0.00000396,-0.00014774,0.00001887,-0.00002
 570,0.00011892,-0.00003190,0.00000778,-0.00000344,0.00001182,0.0000033
 4,-0.00000772,0.00000073,0.00000322,0.00001040,-0.08545856,0.68325343,
 -0.00156929,-0.03117623,0.00716179,-0.05221749,0.37641057,-0.16377142,
 0.00312239,-0.00449708,0.00270383,0.00344266,0.00192957,0.00349521,-0.
 00760295,0.03202012,-0.01393837,-0.00109049,-0.00043903,0.00161923,-0.
 00006022,-0.00029806,0.00058105,-0.00029250,0.00054853,-0.00100619,-0.
 00113340,0.00150834,0.00145587,0.00006290,-0.00001858,0.00014832,0.000
 25275,-0.00010718,-0.00001215,-0.00044377,-0.00097128,0.00063841,0.000
 25062,-0.00039690,0.00039338,0.00039203,-0.00007334,0.00008164,0.00288
 594,0.00001491,-0.01158656,-0.00071359,0.00248871,0.00218608,-0.000416
 62,-0.00014099,-0.00005375,0.00018544,-0.00005712,-0.00093731,-0.00036
 208,-0.00072385,-0.00054461,0.00026158,-0.00010141,0.00004208,-0.00003
 532,0.00004764,0.00001673,-0.00002244,0.00000916,-0.00004196,0.0548722
 1,-0.37594849,0.17136993,0.00021953,0.00009617,0.00012910,-0.00018110,
 -0.00012373,-0.00003337,0.00009864,0.00002753,-0.00035246,-0.00003883,
 0.00000922,0.00000150,-0.00043862,0.00070765,-0.00071019,-0.00020530,0
 .00009032,0.00013831,-0.00023599,0.00013834,-0.00022515,0.00033952,-0.
 00023349,0.00035159,-0.00027292,0.00002798,0.00027002,0.00001605,-0.00
 005121,-0.00008285,0.00002114,-0.00006489,0.00001876,0.00022726,0.0000
 1347,-0.00017523,-0.00003233,-0.00003813,0.00006334,-0.00046045,-0.000
 34441,-0.00057887,0.00243041,0.00007066,-0.00299318,0.00392498,0.00433
 485,0.00816505,-0.00040385,0.00009303,-0.00007721,-0.00067456,-0.00036
 297,-0.00045045,-0.03113283,-0.00521098,0.03644379,-0.06399733,0.00775
 752,0.16306519,0.01073278,0.00407025,-0.00966194,0.00433844,0.00766358
 ,-0.01743482,0.00000867,-0.00000363,0.00004134,0.07537814,-0.00011552,
 -0.00009437,-0.00004581,0.00019421,-0.00009247,0.00014523,-0.00009927,
 0.00011280,-0.00006387,0.00000011,-0.00002407,-0.00002503,0.00067208,0
 .00098107,-0.00034202,0.00005855,-0.00034770,-0.00000688,0.00021142,-0
 .00015945,0.00005256,-0.00009457,0.00037221,-0.00016007,-0.00023667,-0
 .00022131,0.00013518,-0.00004312,-0.00010938,-0.00000962,-0.00005569,0
 .00005614,-0.00001869,0.00012353,-0.00018460,0.00010728,0.00002317,-0.
 00003026,-0.00003873,0.00013230,0.00009117,-0.00002162,0.00012587,-0.0
 0109184,0.00046756,-0.00042265,0.00033268,0.00167848,-0.00004546,-0.00
 034580,-0.00006009,-0.00017828,-0.00043336,0.00017388,0.00012243,0.001
 81901,-0.00159572,0.01162032,-0.01576398,-0.05450672,-0.00725235,-0.00
 891324,0.05131109,0.01358437,0.00932701,-0.02384697,0.00001006,-0.0000
 1717,0.00005363,-0.01845066,0.01477511,-0.00013971,0.00000859,0.000076
 68,0.00021324,-0.00014431,0.00012152,-0.00008045,0.00012264,-0.0000251
 6,0.00001933,-0.00002613,-0.00004076,-0.00012681,0.00051281,-0.0001553
 1,0.00020698,-0.00007456,-0.00006055,0.00031512,-0.00016013,0.00013349
 ,-0.00026807,0.00042679,-0.00016919,0.00002759,0.00003756,-0.00002143,
 -0.00005649,0.00000289,0.00000173,-0.00002067,-0.00001073,0.00000460,0
 .00001280,-0.00021242,0.00020350,0.00002748,0.00001258,-0.00006337,0.0
 0029446,0.00033287,0.00033097,-0.00144158,0.00050926,0.00134277,-0.002
 14870,-0.00363668,-0.00227228,-0.00011882,-0.00049373,-0.00048678,-0.0
 0011154,0.00043852,0.00012747,0.01030879,0.00100158,0.00911157,0.15807
 533,-0.04835253,-0.49914988,0.00685245,0.01025881,-0.03357218,0.003337
 40,0.01268429,-0.00430737,0.00003168,-0.00002301,0.00005067,-0.1753710
 3,0.02666614,0.52875948,0.00017750,0.00020523,0.00008470,0.00007813,-0
 .00041303,-0.00002815,0.00003354,0.00006426,-0.00016149,-0.00008726,-0
 .00005519,0.00003818,-0.00058213,0.00212483,-0.00095023,0.00016001,-0.
 00018357,0.00013166,0.00147061,-0.00108332,0.00196639,0.00252968,0.001
 77336,-0.01432084,-0.00161661,0.00159064,0.00047009,0.00065453,-0.0003
 9492,0.00092293,0.00021001,-0.00044762,0.00044635,0.00011568,0.0003663
 8,-0.00158593,0.00018661,-0.00002434,-0.00015691,-0.00133723,-0.015635
 54,-0.02743246,-0.00868278,0.00044995,0.00628909,-0.01021500,0.0025858
 5,0.03696647,0.01857554,0.01230438,0.04892674,0.00155752,0.00046515,-0
 .00094358,0.00098388,0.00049898,0.00043981,0.00157454,0.00012085,-0.00
 047497,0.00003284,0.00003826,0.00001120,0.00005298,-0.00002757,-0.0000
 6705,0.00003767,0.00001499,0.00019031,0.00033858,0.00011582,0.00016121
 ,-0.00624883,0.00011043,0.00013132,0.00000067,-0.00018827,0.00002805,-
 0.00001594,0.00000070,-0.00001361,0.00006655,-0.00004610,-0.00002410,0
 .00001160,0.00046155,-0.00064363,-0.00024041,-0.00008389,0.00012289,-0
 .00005463,-0.00356142,0.00236467,-0.00338690,-0.00085999,-0.00273989,0
 .03770136,0.00303659,-0.00391543,0.00037282,-0.00090986,0.00194251,-0.
 00149813,0.00007783,-0.00022907,0.00049195,0.00017647,-0.00140736,0.00
 309847,-0.00040514,-0.00007883,0.00016573,-0.01164514,-0.01391363,-0.0
 3191479,0.00132111,0.00068603,-0.00086218,0.00443523,-0.00000463,-0.01
 146639,0.01443969,0.00977248,-0.11018175,-0.00142249,-0.00001281,0.000
 78346,-0.00129248,0.00051363,0.00096775,0.00075956,-0.00006664,0.00035
 877,0.00011181,-0.00002589,-0.00002685,0.00011170,0.00004647,0.0000408
 3,0.00004244,0.00001612,-0.00008163,-0.00021648,-0.00003819,0.00011891
 ,-0.00445383,0.00748953,0.00013398,-0.00003464,-0.00028467,-0.00023226
 ,0.00007308,0.00015023,0.00016009,-0.00008217,0.00002498,-0.00002958,0
 .00001236,0.00020016,-0.00103262,-0.00066616,0.00104390,0.00014179,0.0
 0016224,0.00000454,0.00040145,-0.00030769,0.00477977,0.00468982,-0.001
 13555,-0.02035639,-0.00099980,0.00270190,0.00118715,0.00051801,0.00081
 015,0.00089691,0.00018765,-0.00064557,0.00055120,-0.00070423,0.0013623
 0,-0.00218083,0.00035449,-0.00003637,-0.00013813,-0.01513448,-0.021317
 43,-0.00409096,0.00277178,-0.00115037,0.00000623,-0.00535119,0.0010465
 7,-0.01195737,0.06485883,-0.09674835,-0.66852212,0.00053404,-0.0003564
 6,0.00062012,-0.00162436,0.00024974,0.00292820,0.00160509,0.00044522,0
 .00095790,-0.00001785,0.00004482,-0.00009364,0.00028487,0.00002578,-0.
 00004767,-0.00005075,0.00004509,-0.00005190,-0.00054124,-0.00004920,0.
 00005981,-0.05092354,0.11555071,0.69431259\\0.32187523,-0.15174021,0.1
 8936455,0.01300568,-0.16987084,0.08609187,0.00561564,-0.00445428,0.004
 28274,-0.31660856,0.16512556,-0.19074338,-0.09980625,-0.17356249,-0.07
 333714,0.10695565,0.16145015,0.08068081,0.03015153,0.01896450,-0.01894
 820,-0.13333681,-0.11902426,-0.04787621,0.08676261,0.11772110,0.073691
 81,0.08514062,0.13262051,0.05889070,-0.09346531,-0.13338027,-0.0660597
 4,0.27172667,0.00549774,0.02533283,-0.26505808,0.00156634,-0.02746657,
 0.04559652,0.01391461,0.01300970,0.00824096,0.01776498,-0.00242524,-0.
 10684512,0.24223687,-0.09542954,-0.03724373,-0.07026670,-0.15380530,0.
 09252637,-0.25878599,0.08730660,0.03139826,0.00036763,0.00038878,-0.19
 897063,-0.00342166,-0.11265573,0.06992649,-0.19608232,0.07905651,0.093
 80820,0.17701928,0.13644987,-0.02737952,0.16599673,-0.09366300,0.02395
 308,0.03514821,-0.10082102,-0.00796952,0.02519481,0.14868430\\\@
 The archive entry for this job was punched.

 Writing a WFNX file to "YASJIL_Complex_5_Ligand_0_OO_Cu_oriented.wfx"


 EVERYTHING'S GOT A MORAL, IF ONLY YOU CAN FIND IT.

                                    -- LEWIS CARROL, ALICE IN WONDERLAND
 Job cpu time:       0 days  0 hours 21 minutes 53.2 seconds.
 Elapsed time:       0 days  0 hours 21 minutes 59.4 seconds.
 File lengths (MBytes):  RWF=    412 Int=      0 D2E=      0 Chk=     12 Scr=      8
 Normal termination of Gaussian 16 at Mon Mar  6 10:43:48 2023.
