 Entering Gaussian System, Link 0=g16
 Initial command:
 /ssoft/spack/external/gaussian/g16-C.01/avx2/g16/l1.exe "/scratch/lcmd/2387872/Gau-1723091.inp" -scrdir="/scratch/lcmd/2387872/"
 Entering Link 1 = /ssoft/spack/external/gaussian/g16-C.01/avx2/g16/l1.exe PID=   1723096.
  
 Copyright (c) 1988-2019, Gaussian, Inc.  All Rights Reserved.
  
 This is part of the Gaussian(R) 16 program.  It is based on
 the Gaussian(R) 09 system (copyright 2009, Gaussian, Inc.),
 the Gaussian(R) 03 system (copyright 2003, Gaussian, Inc.),
 the Gaussian(R) 98 system (copyright 1998, Gaussian, Inc.),
 the Gaussian(R) 94 system (copyright 1995, Gaussian, Inc.),
 the Gaussian 92(TM) system (copyright 1992, Gaussian, Inc.),
 the Gaussian 90(TM) system (copyright 1990, Gaussian, Inc.),
 the Gaussian 88(TM) system (copyright 1988, Gaussian, Inc.),
 the Gaussian 86(TM) system (copyright 1986, Carnegie Mellon
 University), and the Gaussian 82(TM) system (copyright 1983,
 Carnegie Mellon University). Gaussian is a federally registered
 trademark of Gaussian, Inc.
  
 This software contains proprietary and confidential information,
 including trade secrets, belonging to Gaussian, Inc.
  
 This software is provided under written license and may be
 used, copied, transmitted, or stored only in accord with that
 written license.
  
 The following legend is applicable only to US Government
 contracts under FAR:
  
                    RESTRICTED RIGHTS LEGEND
  
 Use, reproduction and disclosure by the US Government is
 subject to restrictions as set forth in subparagraphs (a)
 and (c) of the Commercial Computer Software - Restricted
 Rights clause in FAR 52.227-19.
  
 Gaussian, Inc.
 340 Quinnipiac St., Bldg. 40, Wallingford CT 06492
  
  
 ---------------------------------------------------------------
 Warning -- This program may not be used in any manner that
 competes with the business of Gaussian, Inc. or will provide
 assistance to any competitor of Gaussian, Inc.  The licensee
 of this program is prohibited from giving any competitor of
 Gaussian, Inc. access to this program.  By using this program,
 the user acknowledges that Gaussian, Inc. is engaged in the
 business of creating and licensing software in the field of
 computational chemistry and represents and warrants to the
 licensee that it is not a competitor of Gaussian, Inc. and that
 it will not use this program in any manner prohibited above.
 ---------------------------------------------------------------
  

 Cite this work as:
 Gaussian 16, Revision C.01,
 M. J. Frisch, G. W. Trucks, H. B. Schlegel, G. E. Scuseria, 
 M. A. Robb, J. R. Cheeseman, G. Scalmani, V. Barone, 
 G. A. Petersson, H. Nakatsuji, X. Li, M. Caricato, A. V. Marenich, 
 J. Bloino, B. G. Janesko, R. Gomperts, B. Mennucci, H. P. Hratchian, 
 J. V. Ortiz, A. F. Izmaylov, J. L. Sonnenberg, D. Williams-Young, 
 F. Ding, F. Lipparini, F. Egidi, J. Goings, B. Peng, A. Petrone, 
 T. Henderson, D. Ranasinghe, V. G. Zakrzewski, J. Gao, N. Rega, 
 G. Zheng, W. Liang, M. Hada, M. Ehara, K. Toyota, R. Fukuda, 
 J. Hasegawa, M. Ishida, T. Nakajima, Y. Honda, O. Kitao, H. Nakai, 
 T. Vreven, K. Throssell, J. A. Montgomery, Jr., J. E. Peralta, 
 F. Ogliaro, M. J. Bearpark, J. J. Heyd, E. N. Brothers, K. N. Kudin, 
 V. N. Staroverov, T. A. Keith, R. Kobayashi, J. Normand, 
 K. Raghavachari, A. P. Rendell, J. C. Burant, S. S. Iyengar, 
 J. Tomasi, M. Cossi, J. M. Millam, M. Klene, C. Adamo, R. Cammi, 
 J. W. Ochterski, R. L. Martin, K. Morokuma, O. Farkas, 
 J. B. Foresman, and D. J. Fox, Gaussian, Inc., Wallingford CT, 2019.
 
 ******************************************
 Gaussian 16:  ES64L-G16RevC.01  3-Jul-2019
                 6-Mar-2023 
 ******************************************
 %nprocshared=1
 Will use up to    1 processors via shared memory.
 %mem=8000MB
 %chk=YEYVEE_Complex_15_Ligand_0_NN_Cu_oriented.chk
 ----------------------------------------------------------------------
 #p pop=(regular,nbo,savenbos) freq=noraman def2svp empiricaldispersion
 =gd3bj output=wfx pbe1pbe
 ----------------------------------------------------------------------
 1/10=4,30=1,38=1/1,3;
 2/12=2,17=6,18=5,40=1/2;
 3/5=43,7=101,11=2,25=1,30=1,71=2,74=-13,124=41,140=1/1,2,3;
 4//1;
 5/5=2,38=5,98=1/2;
 8/6=4,10=90,11=11/1;
 11/6=1,8=1,9=11,15=111,16=1/1,2,10;
 10/6=1/2;
 6/28=1,40=1,73=1/1,7;
 7/8=1,10=1,25=1/1,2,3,16;
 1/10=4,30=1/3;
 99/6=200/99;
 Leave Link    1 at Mon Mar  6 10:21:49 2023, MaxMem=  1048576000 cpu:               0.0 elap:               0.2
 (Enter /ssoft/spack/external/gaussian/g16-C.01/avx2/g16/l101.exe)
 -----------------------------------------
 YEYVEE_Complex_15_Ligand_0_NN_Cu_oriented
 -----------------------------------------
 Symbolic Z-matrix:
 Charge = -1 Multiplicity = 1
 S                     3.08765   0.15443  -0.35582 
 C                    -1.93277   2.30743  -0.12004 
 H                    -2.61244   1.70648  -0.31917 
 N                    -0.69063   1.8734    0. 
 N                     1.70896   0.83779   0. 
 O                     2.70151  -1.16579  -0.87828 
 O                     3.98027   0.18374   0.73881 
 C                     2.71003   3.07887   0.65781 
 H                     3.59143   2.78358   0.7006 
 C                     2.37516   4.41501   0.91459 
 H                     3.03821   4.94942   1.28935 
 C                     1.22399   4.9852    0.67954 
 H                     1.13353   5.91086   0.67072 
 C                     0.10285   4.1205    0.43544 
 C                     0.32605   2.76128   0.29537 
 C                     1.66106   2.20804   0.3331 
 C                    -1.24221   4.58108   0.34406 
 H                    -1.44833   5.47779   0.48046 
 C                    -2.23479   3.66326   0.04824 
 H                    -3.11407   3.95086  -0.0384 
 C                     2.83042   4.09396  -6.80467 
 H                     2.85711   4.94594  -6.36437 
 H                     3.08844   4.20031  -7.72255 
 H                     1.93862   3.74022  -6.76208 
 C                     4.75055   2.36241  -6.97024 
 H                     4.67927   1.42511  -6.77183 
 H                     4.53667   2.51181  -7.89266 
 H                     5.64726   2.65807  -6.79649 
 C                     4.99786   2.79602  -3.58366 
 H                     5.38478   3.37912  -4.19637 
 C                     5.578     2.58826  -2.43213 
 H                     6.38853   3.01062  -2.25975 
 C                     5.01151   1.72256  -1.40353 
 H                     5.46304   1.55678  -0.60752 
 C                     3.79103   1.16407  -1.65898 
 C                     3.14456   1.27162  -2.93361 
 C                     3.74581   2.11835  -3.91343 
 C                     1.86892   1.70727  -5.38052 
 H                     1.41027   1.877    -6.17204 
 C                     3.13889   2.29191  -5.14149 
 N                     3.79911   3.12553  -6.10775 
 C                     1.92893   0.69065  -3.23266 
 H                     1.52131   0.15439  -2.59272 
 C                     1.31685   0.86835  -4.39995 
 H                     0.51413   0.43088  -4.56885 
 
 ITRead=  0  0  0  0  0  0  0  0  0  0  0  0  0  0  0  0  0  0  0  0
 ITRead=  0  0  0  0  0  0  0  0  0  0  0  0  0  0  0  0  0  0  0  0
 ITRead=  0  0  0  0  0
 MicOpt= -1 -1 -1 -1 -1 -1 -1 -1 -1 -1 -1 -1 -1 -1 -1 -1 -1 -1 -1 -1
 MicOpt= -1 -1 -1 -1 -1 -1 -1 -1 -1 -1 -1 -1 -1 -1 -1 -1 -1 -1 -1 -1
 MicOpt= -1 -1 -1 -1 -1
 NAtoms=     45 NQM=       45 NQMF=       0 NMMI=      0 NMMIF=      0
                NMic=       0 NMicF=      0.
                    Isotopes and Nuclear Properties:
 (Nuclear quadrupole moments (NQMom) in fm**2, nuclear magnetic moments (NMagM)
  in nuclear magnetons)

  Atom         1           2           3           4           5           6           7           8           9          10
 IAtWgt=          32          12           1          14          14          16          16          12           1          12
 AtmWgt=  31.9720718  12.0000000   1.0078250  14.0030740  14.0030740  15.9949146  15.9949146  12.0000000   1.0078250  12.0000000
 NucSpn=           0           0           1           2           2           0           0           0           1           0
 AtZEff=  -0.0000000  -0.0000000  -0.0000000  -0.0000000  -0.0000000  -0.0000000  -0.0000000  -0.0000000  -0.0000000  -0.0000000
 NQMom=    0.0000000   0.0000000   0.0000000   2.0440000   2.0440000   0.0000000   0.0000000   0.0000000   0.0000000   0.0000000
 NMagM=    0.0000000   0.0000000   2.7928460   0.4037610   0.4037610   0.0000000   0.0000000   0.0000000   2.7928460   0.0000000
 AtZNuc=  16.0000000   6.0000000   1.0000000   7.0000000   7.0000000   8.0000000   8.0000000   6.0000000   1.0000000   6.0000000

  Atom        11          12          13          14          15          16          17          18          19          20
 IAtWgt=           1          12           1          12          12          12          12           1          12           1
 AtmWgt=   1.0078250  12.0000000   1.0078250  12.0000000  12.0000000  12.0000000  12.0000000   1.0078250  12.0000000   1.0078250
 NucSpn=           1           0           1           0           0           0           0           1           0           1
 AtZEff=  -0.0000000  -0.0000000  -0.0000000  -0.0000000  -0.0000000  -0.0000000  -0.0000000  -0.0000000  -0.0000000  -0.0000000
 NQMom=    0.0000000   0.0000000   0.0000000   0.0000000   0.0000000   0.0000000   0.0000000   0.0000000   0.0000000   0.0000000
 NMagM=    2.7928460   0.0000000   2.7928460   0.0000000   0.0000000   0.0000000   0.0000000   2.7928460   0.0000000   2.7928460
 AtZNuc=   1.0000000   6.0000000   1.0000000   6.0000000   6.0000000   6.0000000   6.0000000   1.0000000   6.0000000   1.0000000

  Atom        21          22          23          24          25          26          27          28          29          30
 IAtWgt=          12           1           1           1          12           1           1           1          12           1
 AtmWgt=  12.0000000   1.0078250   1.0078250   1.0078250  12.0000000   1.0078250   1.0078250   1.0078250  12.0000000   1.0078250
 NucSpn=           0           1           1           1           0           1           1           1           0           1
 AtZEff=  -0.0000000  -0.0000000  -0.0000000  -0.0000000  -0.0000000  -0.0000000  -0.0000000  -0.0000000  -0.0000000  -0.0000000
 NQMom=    0.0000000   0.0000000   0.0000000   0.0000000   0.0000000   0.0000000   0.0000000   0.0000000   0.0000000   0.0000000
 NMagM=    0.0000000   2.7928460   2.7928460   2.7928460   0.0000000   2.7928460   2.7928460   2.7928460   0.0000000   2.7928460
 AtZNuc=   6.0000000   1.0000000   1.0000000   1.0000000   6.0000000   1.0000000   1.0000000   1.0000000   6.0000000   1.0000000

  Atom        31          32          33          34          35          36          37          38          39          40
 IAtWgt=          12           1          12           1          12          12          12          12           1          12
 AtmWgt=  12.0000000   1.0078250  12.0000000   1.0078250  12.0000000  12.0000000  12.0000000  12.0000000   1.0078250  12.0000000
 NucSpn=           0           1           0           1           0           0           0           0           1           0
 AtZEff=  -0.0000000  -0.0000000  -0.0000000  -0.0000000  -0.0000000  -0.0000000  -0.0000000  -0.0000000  -0.0000000  -0.0000000
 NQMom=    0.0000000   0.0000000   0.0000000   0.0000000   0.0000000   0.0000000   0.0000000   0.0000000   0.0000000   0.0000000
 NMagM=    0.0000000   2.7928460   0.0000000   2.7928460   0.0000000   0.0000000   0.0000000   0.0000000   2.7928460   0.0000000
 AtZNuc=   6.0000000   1.0000000   6.0000000   1.0000000   6.0000000   6.0000000   6.0000000   6.0000000   1.0000000   6.0000000

  Atom        41          42          43          44          45
 IAtWgt=          14          12           1          12           1
 AtmWgt=  14.0030740  12.0000000   1.0078250  12.0000000   1.0078250
 NucSpn=           2           0           1           0           1
 AtZEff=  -0.0000000  -0.0000000  -0.0000000  -0.0000000  -0.0000000
 NQMom=    2.0440000   0.0000000   0.0000000   0.0000000   0.0000000
 NMagM=    0.4037610   0.0000000   2.7928460   0.0000000   2.7928460
 AtZNuc=   7.0000000   6.0000000   1.0000000   6.0000000   1.0000000
 Leave Link  101 at Mon Mar  6 10:21:49 2023, MaxMem=  1048576000 cpu:               0.1 elap:               0.1
 (Enter /ssoft/spack/external/gaussian/g16-C.01/avx2/g16/l103.exe)

 GradGradGradGradGradGradGradGradGradGradGradGradGradGradGradGradGradGrad
 Berny optimization.
 Initialization pass.
 Trust Radius=3.00D-01 FncErr=1.00D-07 GrdErr=1.00D-07 EigMax=2.50D+02 EigMin=1.00D-04
 Number of steps in this run=      2 maximum allowed number of steps=      2.
 GradGradGradGradGradGradGradGradGradGradGradGradGradGradGradGradGradGrad

 Leave Link  103 at Mon Mar  6 10:21:49 2023, MaxMem=  1048576000 cpu:               0.1 elap:               0.1
 (Enter /ssoft/spack/external/gaussian/g16-C.01/avx2/g16/l202.exe)
                          Input orientation:                          
 ---------------------------------------------------------------------
 Center     Atomic      Atomic             Coordinates (Angstroms)
 Number     Number       Type             X           Y           Z
 ---------------------------------------------------------------------
      1         16           0        3.087646    0.154429   -0.355820
      2          6           0       -1.932768    2.307430   -0.120038
      3          1           0       -2.612437    1.706475   -0.319170
      4          7           0       -0.690634    1.873404    0.000000
      5          7           0        1.708959    0.837795    0.000000
      6          8           0        2.701515   -1.165788   -0.878278
      7          8           0        3.980267    0.183742    0.738813
      8          6           0        2.710034    3.078870    0.657806
      9          1           0        3.591433    2.783576    0.700600
     10          6           0        2.375165    4.415010    0.914591
     11          1           0        3.038213    4.949416    1.289346
     12          6           0        1.223991    4.985197    0.679536
     13          1           0        1.133528    5.910856    0.670717
     14          6           0        0.102855    4.120500    0.435444
     15          6           0        0.326054    2.761279    0.295372
     16          6           0        1.661063    2.208042    0.333098
     17          6           0       -1.242207    4.581082    0.344061
     18          1           0       -1.448333    5.477790    0.480463
     19          6           0       -2.234791    3.663258    0.048236
     20          1           0       -3.114068    3.950856   -0.038396
     21          6           0        2.830418    4.093957   -6.804666
     22          1           0        2.857107    4.945936   -6.364373
     23          1           0        3.088445    4.200315   -7.722547
     24          1           0        1.938622    3.740218   -6.762084
     25          6           0        4.750545    2.362414   -6.970245
     26          1           0        4.679274    1.425112   -6.771831
     27          1           0        4.536670    2.511813   -7.892662
     28          1           0        5.647258    2.658073   -6.796493
     29          6           0        4.997864    2.796021   -3.583664
     30          1           0        5.384778    3.379116   -4.196367
     31          6           0        5.578005    2.588257   -2.432126
     32          1           0        6.388527    3.010616   -2.259752
     33          6           0        5.011510    1.722565   -1.403526
     34          1           0        5.463036    1.556778   -0.607519
     35          6           0        3.791029    1.164069   -1.658982
     36          6           0        3.144559    1.271625   -2.933609
     37          6           0        3.745815    2.118348   -3.913425
     38          6           0        1.868918    1.707268   -5.380516
     39          1           0        1.410273    1.876997   -6.172036
     40          6           0        3.138892    2.291914   -5.141491
     41          7           0        3.799112    3.125529   -6.107754
     42          6           0        1.928930    0.690645   -3.232661
     43          1           0        1.521308    0.154387   -2.592723
     44          6           0        1.316848    0.868350   -4.399953
     45          1           0        0.514133    0.430883   -4.568846
 ---------------------------------------------------------------------
                    Distance matrix (angstroms):
                    1          2          3          4          5
     1  S    0.000000
     2  C    5.467684   0.000000
     3  H    5.907718   0.928843   0.000000
     4  N    4.166159   1.321244   1.955265   0.000000
     5  N    1.579359   3.928921   4.419383   2.613529   0.000000
     6  O    1.471405   5.840783   6.066348   4.638398   2.402266
     7  O    1.412747   6.341267   6.848489   5.021765   2.476383
     8  C    3.118074   4.770302   5.582710   3.667479   2.541117
     9  H    2.877887   5.605084   6.378721   4.433436   2.796535
    10  C    4.502680   4.906184   5.808141   4.085996   3.751903
    11  H    5.069607   5.803198   6.710725   5.002856   4.509408
    12  C    5.280293   4.216028   5.144474   3.716291   4.230592
    13  H    6.165129   4.797098   5.717425   4.480899   5.149460
    14  C    5.026410   2.782004   3.710763   2.422535   3.680399
    15  C    3.853065   2.341116   3.181981   1.381746   2.387355
    16  C    2.593660   3.623649   4.351991   2.398628   1.410966
    17  C    6.231590   2.421106   3.252809   2.784624   4.779117
    18  H    7.043625   3.262892   4.027079   3.714372   5.632841
    19  C    6.387760   1.399216   2.026475   2.364387   4.851674
    20  H    7.278384   2.025582   2.316833   3.192227   5.740577
    21  C    7.561326   8.400230   8.796954   7.976976   7.626515
    22  H    7.688589   8.300382   8.772371   7.907728   7.661613
    23  H    8.404633   9.305576   9.671054   8.906946   8.535060
    24  H    7.430905   7.820314   8.146127   7.491579   7.362240
    25  C    7.168755   9.570529   9.943870   8.856064   7.756289
    26  H    6.731501   9.420400   9.740896   8.654165   7.417911
    27  H    8.028756  10.114796  10.445865   9.488224   8.549410
    28  H    7.368996  10.107166  10.539631   9.326141   8.063245
    29  C    4.587583   7.763317   8.352288   6.786228   5.243490
    30  H    5.515906   8.444611   9.043552   7.535735   6.130208
    31  C    4.054189   7.863608   8.504437   6.761811   4.893757
    32  H    4.762203   8.620720   9.299677   7.517596   5.632582
    33  C    2.694065   7.086071   7.700691   5.874273   3.695882
    34  H    2.769912   7.449767   8.082005   6.191687   3.870285
    35  C    1.792303   6.036346   6.564577   4.831219   2.682105
    36  C    2.810046   5.896468   6.337775   4.865892   3.294726
    37  C    4.116639   6.831679   7.315441   5.920893   4.593854
    38  C    5.398535   6.518101   6.760160   5.960609   5.452662
    39  H    6.293583   6.927328   7.104035   6.519804   6.266034
    40  C    5.241576   7.137014   7.528300   6.424590   5.531193
    41  N    6.512938   8.329254   8.753821   7.683118   6.848877
    42  C    3.147438   5.216812   5.490387   4.325637   3.243476
    43  H    2.730778   4.762395   4.966474   3.817056   2.687838
    44  C    4.472183   5.563150   5.726651   4.939606   4.417496
    45  H    4.944591   5.413008   5.427921   4.940312   4.739994
                    6          7          8          9         10
     6  O    0.000000
     7  O    2.464026   0.000000
     8  C    4.514061   3.162566   0.000000
     9  H    4.345375   2.629028   0.930535   0.000000
    10  C    5.870791   4.528894   1.401195   2.046138   0.000000
    11  H    6.496744   4.888989   2.001371   2.311610   0.930410
    12  C    6.514943   5.536655   2.417205   3.233012   1.305973
    13  H    7.411941   6.395968   3.241248   3.977698   1.959258
    14  C    6.035208   5.533934   2.816349   3.745378   2.340879
    15  C    4.737312   4.493731   2.432197   3.290503   2.705017
    16  C    3.732653   3.105013   1.401470   2.047591   2.391398
    17  C    7.076268   6.838616   4.239727   5.169354   3.665851
    18  H    7.950129   7.587055   4.803987   5.718960   3.992131
    19  C    6.967441   7.156178   5.016411   5.928264   4.750515
    20  H    7.791435   8.069994   5.930027   6.846343   5.590644
    21  C    7.924872   8.574148   7.532156   7.656713   7.739332
    22  H    8.214293   8.625268   7.267638   7.424883   7.314197
    23  H    8.705675   9.408657   8.463519   8.556258   8.669200
    24  H    7.698705   8.548702   7.489140   7.703155   7.718630
    25  C    7.332039   8.047951   7.928691   7.769348   8.486826
    26  H    6.734854   7.644566   7.862082   7.672421   8.563265
    27  H    8.129829   8.957225   8.761773   8.649363   9.266174
    28  H    7.637053   8.104444   8.023149   7.774867   8.558869
    29  C    5.318671   5.152021   4.827446   4.509226   5.452887
    30  H    6.234242   6.044756   5.550441   5.248909   6.021025
    31  C    4.978100   4.288276   4.244247   3.714644   4.979530
    32  H    5.739763   4.773084   4.695542   4.079088   5.306209
    33  C    3.735578   2.832147   3.374232   2.751310   4.424166
    34  H    3.887374   2.428259   3.390697   2.592123   4.474511
    35  C    2.687893   2.597359   3.194138   2.868844   4.381389
    36  C    3.218952   3.920279   4.043910   3.961460   5.028070
    37  C    4.592192   5.043906   4.784516   4.664289   5.519337
    38  C    5.405350   6.650197   6.249008   6.411355   6.871429
    39  H    6.240971   7.565172   7.055538   7.267218   7.588992
    40  C    5.506540   6.303197   5.868140   5.880183   6.462735
    41  N    6.853286   7.454020   6.852815   6.820098   7.280365
    42  C    3.096183   4.498617   4.631358   4.755504   5.591934
    43  H    2.464766   4.140831   4.531182   4.695107   5.584195
    44  C    4.296186   5.828329   5.692828   5.904021   6.476358
    45  H    4.577585   6.344007   6.257133   6.540031   7.028854
                   11         12         13         14         15
    11  H    0.000000
    12  C    1.914301   0.000000
    13  H    2.221462   0.930111   0.000000
    14  C    3.167424   1.436743   2.079187   0.000000
    15  C    3.623773   2.428927   3.273032   1.384528   0.000000
    16  C    3.213423   2.832604   3.755412   2.469004   1.445595
    17  C    4.399002   2.521505   2.742101   1.424667   2.402809
    18  H    4.589397   2.724628   2.624833   2.061662   3.249945
    19  C    5.567685   3.756226   4.096920   2.413211   2.726274
    20  H    6.372643   4.517084   4.731439   3.256055   3.655261
    21  C    8.141745   7.706374   7.877938   7.736892   7.645809
    22  H    7.655862   7.230856   7.307140   7.382735   7.451923
    23  H    9.043113   8.642178   8.786042   8.687517   8.601666
    24  H    8.215642   7.578811   7.785010   7.437679   7.305229
    25  C    8.823009   8.822399   9.168345   8.918303   8.516126
    26  H    8.949658   8.951875   9.385401   8.952852   8.407213
    27  H    9.617513   9.517041   9.821728   9.570996   9.210615
    28  H    8.799895   8.992876   9.312013   9.229302   8.866815
    29  C    5.676581   6.099958   6.537205   6.470594   6.072391
    30  H    6.169705   6.608031   6.940558   7.064138   6.793242
    31  C    5.086744   5.863889   6.357726   6.367731   5.920487
    32  H    5.251633   6.261854   6.679376   6.928607   6.583647
    33  C    4.643063   5.415646   6.073139   5.764269   5.091039
    34  H    4.581250   5.601791   6.271883   6.032577   5.353000
    35  C    4.856771   5.163271   5.917922   5.170080   4.286797
    36  C    5.600965   5.525760   6.209500   5.358972   4.537550
    37  C    5.965272   5.972748   6.497809   6.016015   5.460961
    38  C    7.507718   6.919898   7.404619   6.539730   5.975540
    39  H    8.231777   7.525932   7.948074   7.099397   6.617012
    40  C    6.959031   6.693652   7.134423   6.607833   6.139368
    41  N    7.656541   7.493792   7.798145   7.580615   7.293479
    42  C    6.310007   5.851957   6.566554   5.343543   4.393604
    43  H    6.353248   5.842329   6.628526   5.187664   4.070087
    44  C    7.210154   6.538981   7.153473   5.952422   5.158579
    45  H    7.817067   6.985069   7.607022   6.230999   5.396919
                   16         17         18         19         20
    16  C    0.000000
    17  C    3.749722   0.000000
    18  H    4.514567   0.930151   0.000000
    19  C    4.168510   1.383884   2.024318   0.000000
    20  H    5.096792   2.011796   2.318494   0.929164   0.000000
    21  C    7.474740   8.241836   8.561297   8.532532   9.007763
    22  H    7.333670   7.870234   8.103793   8.288199   8.755747
    23  H    8.420213   9.163498   9.460638   9.434529   9.878237
    24  H    7.264036   7.830838   8.181999   7.987726   8.413205
    25  C    7.931428   9.712602  10.180604   9.987302  10.603104
    26  H    7.759034   9.780593  10.323156   9.966289  10.604467
    27  H    8.719205  10.272337  10.711046  10.499352  11.058668
    28  H    8.180669  10.106938  10.547621  10.487489  11.140197
    29  C    5.178898   7.586300   8.078519   8.139662   8.927822
    30  H    5.979425   8.122631   8.542165   8.726696   9.478713
    31  C    4.809725   7.628489   8.136461   8.267261   9.118045
    32  H    5.451231   8.214274   8.660953   8.950663   9.803968
    33  C    3.804871   7.094656   7.705888   7.640862   8.535448
    34  H    3.970378   7.417020   8.020290   8.007734   8.923128
    35  C    3.097582   6.404812   7.115921   6.743222   7.620554
    36  C    3.707966   6.398386   7.102280   6.599146   7.398037
    37  C    4.731511   7.005113   7.587574   7.338198   8.089000
    38  C    5.739283   7.121003   7.718295   7.080797   7.642126
    39  H    6.518378   7.537058   8.086599   7.427584   7.898866
    40  C    5.671168   7.384145   7.924570   7.595414   8.239731
    41  N    6.848183   8.316216   8.744908   8.636744   9.236359
    42  C    3.884442   6.163160   6.936134   6.077605   6.801774
    43  H    3.577354   5.988100   6.826556   5.778851   6.513407
    44  C    4.931028   6.545137   7.260278   6.341297   6.939600
    45  H    5.338801   6.666749   7.403923   6.270748   6.788154
                   21         22         23         24         25
    21  C    0.000000
    22  H    0.959394   0.000000
    23  H    0.959373   1.566558   0.000000
    24  H    0.960336   1.567018   1.567250   0.000000
    25  C    2.590858   3.259873   2.589674   3.138246   0.000000
    26  H    3.246857   3.985288   3.337117   3.587616   0.960721
    27  H    2.568699   3.328897   2.230994   3.088210   0.958602
    28  H    3.161711   3.634005   3.127877   3.863445   0.960051
    29  C    4.093569   4.115497   4.769515   4.511410   3.423172
    30  H    3.720077   3.680257   4.287360   4.311530   3.021643
    31  C    5.379170   5.331464   6.065080   5.772405   4.618465
    32  H    5.872820   5.750158   6.492154   6.372203   5.029105
    33  C    6.289115   6.296156   7.054605   6.498285   5.609444
    34  H    7.195317   7.170679   7.953024   7.420753   6.452982
    35  C    5.998756   6.108636   6.817568   6.009127   5.528672
    36  C    4.800971   5.035210   5.613760   4.712267   4.479223
    37  C    3.619427   3.846064   4.390459   3.743163   3.226949
    38  C    2.940913   3.526111   3.631478   2.458958   3.355626
    39  H    2.707756   3.398339   3.258550   2.024574   3.468456
    40  C    2.471571   2.935758   3.210356   2.482851   2.438593
    41  N    1.536850   2.065698   2.065858   2.065772   1.493807
    42  C    5.015419   5.364385   5.815611   4.664419   4.972510
    43  H    5.913919   6.242487   6.718671   5.515062   5.870780
    44  C    4.298613   4.781009   5.027939   3.770131   4.541905
    45  H    4.876697   5.394362   5.548110   4.217956   5.238770
                   26         27         28         29         30
    26  H    0.000000
    27  H    1.567647   0.000000
    28  H    1.567736   1.567286   0.000000
    29  C    3.485011   4.342918   3.280703   0.000000
    30  H    3.308910   3.890257   2.710987   0.930112   0.000000
    31  C    4.581885   5.559468   4.365475   1.306051   1.943025
    32  H    5.078802   5.950451   4.610400   1.932030   2.212190
    33  C    5.386795   6.554180   5.510303   2.430123   3.268555
    34  H    6.215333   7.405644   6.288894   3.257230   4.025777
    35  C    5.195994   6.421150   5.663184   2.797163   3.726231
    36  C    4.136527   5.297948   4.807038   2.486181   3.324855
    37  C    3.085840   4.076101   3.495550   1.461373   2.087054
    38  C    3.148567   3.751676   4.145465   3.768868   4.069221
    39  H    3.354150   3.624625   4.353398   4.518305   4.685757
    40  C    2.404607   3.093717   3.027376   2.477242   2.668196
    41  N    2.026599   2.026459   2.026949   2.813647   2.496406
    42  C    4.541977   5.642036   5.513405   3.738204   4.483246
    43  H    5.390031   6.537524   6.400281   4.477347   5.281757
    44  C    4.152312   5.026653   5.262980   4.234634   4.784710
    45  H    4.815603   5.617724   6.022604   5.164136   5.705611
                   31         32         33         34         35
    31  C    0.000000
    32  H    0.930079   0.000000
    33  C    1.458889   2.070840   0.000000
    34  H    2.099132   2.387478   0.930048   0.000000
    35  C    2.412332   3.243094   1.366290   2.013803   0.000000
    36  C    2.811879   3.741858   2.455607   3.296565   1.433236
    37  C    2.402495   3.242639   2.838700   3.767390   2.448511
    38  C    4.819385   5.644888   5.068783   5.976775   4.223671
    39  H    5.644715   6.432268   5.977578   6.891392   5.152079
    40  C    3.657561   4.402396   4.219388   5.147716   3.718224
    41  N    4.118660   4.639547   5.056478   5.956695   4.861992
    42  C    4.190171   5.120237   3.729999   4.486810   2.483548
    43  H    4.733529   5.653206   4.006854   4.630870   2.653858
    44  C    4.998788   5.906919   4.833092   5.661039   3.704314
    45  H    5.904458   6.818757   5.649255   6.438276   4.443300
                   36         37         38         39         40
    36  C    0.000000
    37  C    1.427756   0.000000
    38  C    2.793636   2.417454   0.000000
    39  H    3.723121   3.257964   0.930412   0.000000
    40  C    2.432235   1.380807   1.418371   2.054824   0.000000
    41  N    3.733711   2.415022   2.503195   2.696204   1.436825
    42  C    1.380117   2.408909   2.377058   3.211909   2.769784
    43  H    1.999842   3.248050   3.209994   3.973814   3.698895
    44  C    2.377672   2.774722   1.403591   2.041170   2.428221
    45  H    3.209359   3.704170   2.030617   2.337633   3.268136
                   41         42         43         44         45
    41  N    0.000000
    42  C    4.206233   0.000000
    43  H    5.135321   0.929113   0.000000
    44  C    3.764714   1.329960   1.953875   0.000000
    45  H    4.518897   1.963292   2.235154   0.929652   0.000000
 Stoichiometry    C21H18N3O2S(1-)
 Framework group  C1[X(C21H18N3O2S)]
 Deg. of freedom   129
 Full point group                 C1      NOp   1
 Largest Abelian subgroup         C1      NOp   1
 Largest concise Abelian subgroup C1      NOp   1
                         Standard orientation:                         
 ---------------------------------------------------------------------
 Center     Atomic      Atomic             Coordinates (Angstroms)
 Number     Number       Type             X           Y           Z
 ---------------------------------------------------------------------
      1         16           0        0.756683    2.416955   -0.792919
      2          6           0        3.733208   -2.087542   -1.656270
      3          1           0        3.876615   -2.280683   -2.553421
      4          7           0        3.155311   -0.948899   -1.316839
      5          7           0        1.827917    1.259718   -0.880297
      6          8           0        0.421007    2.692603   -2.198754
      7          8           0        1.222325    3.498619   -0.012513
      8          6           0        2.022490    0.917274    1.630111
      9          1           0        1.577312    1.698332    1.870234
     10          6           0        2.510356    0.028912    2.597657
     11          1           0        2.520134    0.330638    3.477730
     12          6           0        2.952645   -1.181628    2.386616
     13          1           0        3.058030   -1.788384    3.083644
     14          6           0        3.269867   -1.535617    1.030780
     15          6           0        2.937885   -0.654654    0.015590
     16          6           0        2.233070    0.578011    0.286729
     17          6           0        3.927780   -2.745363    0.665619
     18          1           0        4.214942   -3.345645    1.315526
     19          6           0        4.130103   -3.006180   -0.678321
     20          1           0        4.536379   -3.801455   -0.934881
     21          6           0       -4.308854   -3.025868    0.581733
     22          1           0       -3.888333   -3.304896    1.397664
     23          1           0       -5.216022   -3.337671    0.566838
     24          1           0       -3.831703   -3.394392   -0.165771
     25          6           0       -5.575688   -0.805681    0.159306
     26          1           0       -5.436292   -0.212959   -0.583818
     27          1           0       -6.237050   -1.459810   -0.072283
     28          1           0       -5.875721   -0.300448    0.918528
     29          6           0       -2.796848    0.661425    1.517156
     30          1           0       -3.478294    0.296579    2.034483
     31          6           0       -2.136361    1.699530    1.955179
     32          1           0       -2.383542    2.072363    2.770621
     33          6           0       -1.027737    2.301151    1.222130
     34          1           0       -0.599133    3.065447    1.533802
     35          6           0       -0.646553    1.696228    0.057864
     36          6           0       -1.384060    0.615997   -0.528097
     37          6           0       -2.470746    0.071109    0.220701
     38          6           0       -2.765527   -1.615094   -1.486316
     39          1           0       -3.186318   -2.384390   -1.797418
     40          6           0       -3.184682   -1.000002   -0.278943
     41          7           0       -4.291596   -1.491619    0.494051
     42          6           0       -1.044046    0.007454   -1.719227
     43          1           0       -0.325319    0.343549   -2.202674
     44          6           0       -1.703357   -1.041601   -2.202535
     45          1           0       -1.458369   -1.398771   -3.025130
 ---------------------------------------------------------------------
 Rotational constants (GHZ):           0.2584113           0.1398109           0.1191621
 Leave Link  202 at Mon Mar  6 10:21:49 2023, MaxMem=  1048576000 cpu:               0.0 elap:               0.0
 (Enter /ssoft/spack/external/gaussian/g16-C.01/avx2/g16/l301.exe)
 Standard basis: def2SVP (5D, 7F)
 Ernie: Thresh=  0.10000D-02 Tol=  0.10000D-05 Strict=F.
 There are   499 symmetry adapted cartesian basis functions of A   symmetry.
 There are   472 symmetry adapted basis functions of A   symmetry.
   472 basis functions,   813 primitive gaussians,   499 cartesian basis functions
    99 alpha electrons       99 beta electrons
       nuclear repulsion energy      2635.6017126166 Hartrees.
 IExCor= 1009 DFT=T Ex+Corr=PBE1PBE ExCW=0 ScaHFX=  0.250000
 ScaDFX=  0.750000  0.750000  1.000000  1.000000 ScalE2=  1.000000  1.000000
 IRadAn=      5 IRanWt=     -1 IRanGd=            0 ICorTp=0 IEmpDi=141
 NAtoms=   45 NActive=   45 NUniq=   45 SFac= 1.00D+00 NAtFMM=   60 NAOKFM=F Big=F
 Integral buffers will be    131072 words long.
 Raffenetti 2 integral format.
 Two-electron integral symmetry is turned on.
 R6Disp:  Grimme-D3(BJ) Dispersion energy=       -0.0633878871 Hartrees.
 Nuclear repulsion after empirical dispersion term =     2635.5383247294 Hartrees.
 Leave Link  301 at Mon Mar  6 10:21:49 2023, MaxMem=  1048576000 cpu:               0.1 elap:               0.1
 (Enter /ssoft/spack/external/gaussian/g16-C.01/avx2/g16/l302.exe)
 NPDir=0 NMtPBC=     1 NCelOv=     1 NCel=       1 NClECP=     1 NCelD=      1
         NCelK=      1 NCelE2=     1 NClLst=     1 CellRange=     0.0.
 One-electron integrals computed using PRISM.
 One-electron integral symmetry used in STVInt
   1 Symmetry operations used in ECPInt.
 ECPInt:  NShTT=   23871 NPrTT=   88825 LenC2=   20938 LenP2D=   52145.
 LDataN:  DoStor=T MaxTD1= 4 Len=   56
 NBasis=   472 RedAO= T EigKep=  2.06D-04  NBF=   472
 NBsUse=   472 1.00D-06 EigRej= -1.00D+00 NBFU=   472
 Precomputing XC quadrature grid using
 IXCGrd= 4 IRadAn=           5 IRanWt=          -1 IRanGd=           0 AccXCQ= 0.00D+00.
 Generated NRdTot=       0 NPtTot=           0 NUsed=           0 NTot=          32
 NSgBfM=   492   492   492   492   492 MxSgAt=    45 MxSgA2=    45.
 Leave Link  302 at Mon Mar  6 10:21:51 2023, MaxMem=  1048576000 cpu:               1.8 elap:               1.8
 (Enter /ssoft/spack/external/gaussian/g16-C.01/avx2/g16/l303.exe)
 DipDrv:  MaxL=1.
 Leave Link  303 at Mon Mar  6 10:21:51 2023, MaxMem=  1048576000 cpu:               0.1 elap:               0.1
 (Enter /ssoft/spack/external/gaussian/g16-C.01/avx2/g16/l401.exe)
 ExpMin= 1.22D-01 ExpMax= 9.18D+03 ExpMxC= 1.38D+03 IAcc=3 IRadAn=         5 AccDes= 0.00D+00
 Harris functional with IExCor= 1009 and IRadAn=       5 diagonalized for initial guess.
 HarFok:  IExCor= 1009 AccDes= 0.00D+00 IRadAn=         5 IDoV= 1 UseB2=F ITyADJ=14
 ICtDFT=  3500011 ScaDFX=  1.000000  1.000000  1.000000  1.000000
 FoFCou: FMM=F IPFlag=           0 FMFlag=      100000 FMFlg1=           0
         NFxFlg=           0 DoJE=T BraDBF=F KetDBF=T FulRan=T
         wScrn=  0.000000 ICntrl=       500 IOpCl=  0 I1Cent=   200000004 NGrid=           0
         NMat0=    1 NMatS0=      1 NMatT0=    0 NMatD0=    1 NMtDS0=    0 NMtDT0=    0
 Petite list used in FoFCou.
 Harris En= -1521.81417828485    
 JPrj=0 DoOrth=F DoCkMO=F.
 Leave Link  401 at Mon Mar  6 10:22:07 2023, MaxMem=  1048576000 cpu:              15.8 elap:              15.9
 (Enter /ssoft/spack/external/gaussian/g16-C.01/avx2/g16/l502.exe)
 Integral symmetry usage will be decided dynamically.
 Closed shell SCF:
 Using DIIS extrapolation, IDIIS=  1040.
 NGot=  1048576000 LenX=  1048068724 LenY=  1047819224
 Requested convergence on RMS density matrix=1.00D-08 within 128 cycles.
 Requested convergence on MAX density matrix=1.00D-06.
 Requested convergence on             energy=1.00D-06.
 No special actions if energy rises.
 Fock matrices will be formed incrementally for  20 cycles.
 Integral accuracy reduced to 1.0D-05 until final iterations.

 Cycle   1  Pass 0  IDiag  1:
 FoFJK:  IHMeth= 1 ICntrl=       0 DoSepK=F KAlg= 0 I1Cent=           0 FoldK=F
 IRaf= 800000000 NMat=       1 IRICut=       1 DoRegI=T DoRafI=F ISym2E= 0 IDoP0=0 IntGTp=1.
 FoFCou: FMM=F IPFlag=           0 FMFlag=      100000 FMFlg1=           0
         NFxFlg=           0 DoJE=F BraDBF=F KetDBF=F FulRan=T
         wScrn=  0.000000 ICntrl=         0 IOpCl=  0 I1Cent=           0 NGrid=           0
         NMat0=    1 NMatS0=      1 NMatT0=    0 NMatD0=    1 NMtDS0=    0 NMtDT0=    0
 Symmetry not used in FoFCou.
 E= -1520.43998275007    
 DIIS: error= 2.36D-02 at cycle   1 NSaved=   1.
 NSaved= 1 IEnMin= 1 EnMin= -1520.43998275007     IErMin= 1 ErrMin= 2.36D-02
 ErrMax= 2.36D-02  0.00D+00 EMaxC= 1.00D-01 BMatC= 7.78D-01 BMatP= 7.78D-01
 IDIUse=3 WtCom= 7.64D-01 WtEn= 2.36D-01
 Coeff-Com:  0.100D+01
 Coeff-En:   0.100D+01
 Coeff:      0.100D+01
 Gap=     0.093 Goal=   None    Shift=    0.000
 GapD=    0.093 DampG=0.500 DampE=0.500 DampFc=0.2500 IDamp=-1.
 Damping current iteration by 2.50D-01
 RMSDP=5.52D-03 MaxDP=4.27D-01              OVMax= 2.42D-01

 Cycle   2  Pass 0  IDiag  1:
 RMSU=  1.34D-03    CP:  9.82D-01
 E= -1520.70737102186     Delta-E=       -0.267388271786 Rises=F Damp=T
 DIIS: error= 1.38D-02 at cycle   2 NSaved=   2.
 NSaved= 2 IEnMin= 2 EnMin= -1520.70737102186     IErMin= 2 ErrMin= 1.38D-02
 ErrMax= 1.38D-02  0.00D+00 EMaxC= 1.00D-01 BMatC= 1.95D-01 BMatP= 7.78D-01
 IDIUse=3 WtCom= 8.62D-01 WtEn= 1.38D-01
 Coeff-Com: -0.763D+00 0.176D+01
 Coeff-En:   0.000D+00 0.100D+01
 Coeff:     -0.658D+00 0.166D+01
 Gap=     0.126 Goal=   None    Shift=    0.000
 RMSDP=2.63D-03 MaxDP=1.00D-01 DE=-2.67D-01 OVMax= 2.12D-01

 Cycle   3  Pass 0  IDiag  1:
 RMSU=  1.96D-03    CP:  9.27D-01  2.06D+00
 E= -1521.14187944564     Delta-E=       -0.434508423785 Rises=F Damp=F
 DIIS: error= 7.21D-03 at cycle   3 NSaved=   3.
 NSaved= 3 IEnMin= 3 EnMin= -1521.14187944564     IErMin= 3 ErrMin= 7.21D-03
 ErrMax= 7.21D-03  0.00D+00 EMaxC= 1.00D-01 BMatC= 6.61D-02 BMatP= 1.95D-01
 IDIUse=3 WtCom= 9.28D-01 WtEn= 7.21D-02
 Coeff-Com: -0.456D+00 0.957D+00 0.498D+00
 Coeff-En:   0.000D+00 0.000D+00 0.100D+01
 Coeff:     -0.423D+00 0.888D+00 0.535D+00
 Gap=     0.131 Goal=   None    Shift=    0.000
 RMSDP=1.09D-03 MaxDP=4.46D-02 DE=-4.35D-01 OVMax= 9.23D-02

 Cycle   4  Pass 0  IDiag  1:
 RMSU=  7.42D-04    CP:  9.34D-01  2.12D+00  5.99D-01
 E= -1521.19587617694     Delta-E=       -0.053996731293 Rises=F Damp=F
 DIIS: error= 3.08D-03 at cycle   4 NSaved=   4.
 NSaved= 4 IEnMin= 4 EnMin= -1521.19587617694     IErMin= 4 ErrMin= 3.08D-03
 ErrMax= 3.08D-03  0.00D+00 EMaxC= 1.00D-01 BMatC= 1.20D-02 BMatP= 6.61D-02
 IDIUse=3 WtCom= 9.69D-01 WtEn= 3.08D-02
 Coeff-Com: -0.170D+00 0.349D+00 0.318D+00 0.502D+00
 Coeff-En:   0.000D+00 0.000D+00 0.150D+00 0.850D+00
 Coeff:     -0.165D+00 0.338D+00 0.313D+00 0.513D+00
 Gap=     0.115 Goal=   None    Shift=    0.000
 RMSDP=4.26D-04 MaxDP=1.86D-02 DE=-5.40D-02 OVMax= 4.95D-02

 Cycle   5  Pass 0  IDiag  1:
 RMSU=  2.50D-04    CP:  9.33D-01  2.12D+00  6.95D-01  6.12D-01
 E= -1521.20581549627     Delta-E=       -0.009939319328 Rises=F Damp=F
 DIIS: error= 1.06D-03 at cycle   5 NSaved=   5.
 NSaved= 5 IEnMin= 5 EnMin= -1521.20581549627     IErMin= 5 ErrMin= 1.06D-03
 ErrMax= 1.06D-03  0.00D+00 EMaxC= 1.00D-01 BMatC= 1.94D-03 BMatP= 1.20D-02
 IDIUse=3 WtCom= 9.89D-01 WtEn= 1.06D-02
 Coeff-Com: -0.418D-01 0.814D-01 0.119D+00 0.332D+00 0.510D+00
 Coeff-En:   0.000D+00 0.000D+00 0.000D+00 0.164D+00 0.836D+00
 Coeff:     -0.414D-01 0.805D-01 0.117D+00 0.330D+00 0.513D+00
 Gap=     0.121 Goal=   None    Shift=    0.000
 RMSDP=1.64D-04 MaxDP=5.93D-03 DE=-9.94D-03 OVMax= 2.18D-02

 Cycle   6  Pass 0  IDiag  1:
 RMSU=  1.02D-04    CP:  9.32D-01  2.11D+00  6.87D-01  6.87D-01  5.48D-01
 E= -1521.20769900682     Delta-E=       -0.001883510554 Rises=F Damp=F
 DIIS: error= 3.58D-04 at cycle   6 NSaved=   6.
 NSaved= 6 IEnMin= 6 EnMin= -1521.20769900682     IErMin= 6 ErrMin= 3.58D-04
 ErrMax= 3.58D-04  0.00D+00 EMaxC= 1.00D-01 BMatC= 1.85D-04 BMatP= 1.94D-03
 IDIUse=3 WtCom= 9.96D-01 WtEn= 3.58D-03
 Coeff-Com: -0.106D-01 0.186D-01 0.380D-01 0.141D+00 0.310D+00 0.503D+00
 Coeff-En:   0.000D+00 0.000D+00 0.000D+00 0.000D+00 0.584D-01 0.942D+00
 Coeff:     -0.106D-01 0.185D-01 0.379D-01 0.141D+00 0.309D+00 0.505D+00
 Gap=     0.120 Goal=   None    Shift=    0.000
 RMSDP=5.17D-05 MaxDP=1.76D-03 DE=-1.88D-03 OVMax= 5.95D-03

 Cycle   7  Pass 0  IDiag  1:
 RMSU=  2.84D-05    CP:  9.32D-01  2.12D+00  6.89D-01  6.87D-01  6.16D-01
                    CP:  6.18D-01
 E= -1521.20788178336     Delta-E=       -0.000182776545 Rises=F Damp=F
 DIIS: error= 1.21D-04 at cycle   7 NSaved=   7.
 NSaved= 7 IEnMin= 7 EnMin= -1521.20788178336     IErMin= 7 ErrMin= 1.21D-04
 ErrMax= 1.21D-04  0.00D+00 EMaxC= 1.00D-01 BMatC= 1.91D-05 BMatP= 1.85D-04
 IDIUse=3 WtCom= 9.99D-01 WtEn= 1.21D-03
 Coeff-Com: -0.180D-02 0.206D-02 0.872D-02 0.450D-01 0.126D+00 0.303D+00
 Coeff-Com:  0.517D+00
 Coeff-En:   0.000D+00 0.000D+00 0.000D+00 0.000D+00 0.000D+00 0.384D-01
 Coeff-En:   0.962D+00
 Coeff:     -0.180D-02 0.206D-02 0.871D-02 0.449D-01 0.126D+00 0.303D+00
 Coeff:      0.517D+00
 Gap=     0.120 Goal=   None    Shift=    0.000
 RMSDP=1.45D-05 MaxDP=4.71D-04 DE=-1.83D-04 OVMax= 1.40D-03

 Cycle   8  Pass 0  IDiag  1:
 RMSU=  9.20D-06    CP:  9.32D-01  2.12D+00  6.89D-01  6.88D-01  6.18D-01
                    CP:  6.51D-01  6.25D-01
 E= -1521.20790363353     Delta-E=       -0.000021850163 Rises=F Damp=F
 DIIS: error= 2.67D-05 at cycle   8 NSaved=   8.
 NSaved= 8 IEnMin= 8 EnMin= -1521.20790363353     IErMin= 8 ErrMin= 2.67D-05
 ErrMax= 2.67D-05  0.00D+00 EMaxC= 1.00D-01 BMatC= 1.37D-06 BMatP= 1.91D-05
 IDIUse=1 WtCom= 1.00D+00 WtEn= 0.00D+00
 Coeff-Com:  0.278D-04-0.794D-03 0.131D-02 0.130D-01 0.455D-01 0.130D+00
 Coeff-Com:  0.291D+00 0.520D+00
 Coeff:      0.278D-04-0.794D-03 0.131D-02 0.130D-01 0.455D-01 0.130D+00
 Coeff:      0.291D+00 0.520D+00
 Gap=     0.120 Goal=   None    Shift=    0.000
 RMSDP=4.51D-06 MaxDP=2.44D-04 DE=-2.19D-05 OVMax= 3.30D-04

 Initial convergence to 1.0D-05 achieved.  Increase integral accuracy.
 Cycle   9  Pass 1  IDiag  1:
 E= -1521.20792035380     Delta-E=       -0.000016720274 Rises=F Damp=F
 DIIS: error= 2.07D-04 at cycle   1 NSaved=   1.
 NSaved= 1 IEnMin= 1 EnMin= -1521.20792035380     IErMin= 1 ErrMin= 2.07D-04
 ErrMax= 2.07D-04  0.00D+00 EMaxC= 1.00D-01 BMatC= 7.43D-06 BMatP= 7.43D-06
 IDIUse=3 WtCom= 9.98D-01 WtEn= 2.07D-03
 Coeff-Com:  0.100D+01
 Coeff-En:   0.100D+01
 Coeff:      0.100D+01
 Gap=     0.120 Goal=   None    Shift=    0.000
 RMSDP=4.51D-06 MaxDP=2.44D-04 DE=-1.67D-05 OVMax= 4.44D-04

 Cycle  10  Pass 1  IDiag  1:
 RMSU=  1.81D-04    CP:  1.00D+00
 E= -1521.20792756164     Delta-E=       -0.000007207844 Rises=F Damp=F
 DIIS: error= 2.14D-05 at cycle   2 NSaved=   2.
 NSaved= 2 IEnMin= 2 EnMin= -1521.20792756164     IErMin= 2 ErrMin= 2.14D-05
 ErrMax= 2.14D-05  0.00D+00 EMaxC= 1.00D-01 BMatC= 3.85D-07 BMatP= 7.43D-06
 IDIUse=1 WtCom= 1.00D+00 WtEn= 0.00D+00
 Coeff-Com:  0.610D-01 0.939D+00
 Coeff:      0.610D-01 0.939D+00
 Gap=     0.120 Goal=   None    Shift=    0.000
 RMSDP=5.92D-06 MaxDP=1.76D-04 DE=-7.21D-06 OVMax= 5.43D-04

 Cycle  11  Pass 1  IDiag  1:
 RMSU=  5.16D-06    CP:  1.00D+00  1.02D+00
 E= -1521.20792665135     Delta-E=        0.000000910291 Rises=F Damp=F
 DIIS: error= 3.97D-05 at cycle   3 NSaved=   3.
 NSaved= 3 IEnMin= 2 EnMin= -1521.20792756164     IErMin= 2 ErrMin= 2.14D-05
 ErrMax= 3.97D-05  0.00D+00 EMaxC= 1.00D-01 BMatC= 1.23D-06 BMatP= 3.85D-07
 IDIUse=1 WtCom= 1.00D+00 WtEn= 0.00D+00
 Coeff-Com: -0.731D-02 0.646D+00 0.362D+00
 Coeff:     -0.731D-02 0.646D+00 0.362D+00
 Gap=     0.120 Goal=   None    Shift=    0.000
 RMSDP=3.35D-06 MaxDP=1.11D-04 DE= 9.10D-07 OVMax= 3.73D-04

 Cycle  12  Pass 1  IDiag  1:
 RMSU=  6.69D-07    CP:  1.00D+00  1.02D+00  3.69D-01
 E= -1521.20792796387     Delta-E=       -0.000001312522 Rises=F Damp=F
 DIIS: error= 1.66D-06 at cycle   4 NSaved=   4.
 NSaved= 4 IEnMin= 4 EnMin= -1521.20792796387     IErMin= 4 ErrMin= 1.66D-06
 ErrMax= 1.66D-06  0.00D+00 EMaxC= 1.00D-01 BMatC= 4.68D-09 BMatP= 3.85D-07
 IDIUse=1 WtCom= 1.00D+00 WtEn= 0.00D+00
 Coeff-Com: -0.464D-02 0.365D+00 0.210D+00 0.430D+00
 Coeff:     -0.464D-02 0.365D+00 0.210D+00 0.430D+00
 Gap=     0.120 Goal=   None    Shift=    0.000
 RMSDP=2.15D-07 MaxDP=1.16D-05 DE=-1.31D-06 OVMax= 1.65D-05

 Cycle  13  Pass 1  IDiag  1:
 RMSU=  1.89D-07    CP:  1.00D+00  1.02D+00  3.81D-01  8.79D-01
 E= -1521.20792796860     Delta-E=       -0.000000004721 Rises=F Damp=F
 DIIS: error= 3.79D-07 at cycle   5 NSaved=   5.
 NSaved= 5 IEnMin= 5 EnMin= -1521.20792796860     IErMin= 5 ErrMin= 3.79D-07
 ErrMax= 3.79D-07  0.00D+00 EMaxC= 1.00D-01 BMatC= 1.91D-10 BMatP= 4.68D-09
 IDIUse=1 WtCom= 1.00D+00 WtEn= 0.00D+00
 Coeff-Com: -0.165D-02 0.124D+00 0.730D-01 0.210D+00 0.595D+00
 Coeff:     -0.165D-02 0.124D+00 0.730D-01 0.210D+00 0.595D+00
 Gap=     0.120 Goal=   None    Shift=    0.000
 RMSDP=6.16D-08 MaxDP=2.90D-06 DE=-4.72D-09 OVMax= 3.59D-06

 Cycle  14  Pass 1  IDiag  1:
 RMSU=  5.31D-08    CP:  1.00D+00  1.02D+00  3.81D-01  9.06D-01  8.82D-01
 E= -1521.20792796878     Delta-E=       -0.000000000186 Rises=F Damp=F
 DIIS: error= 2.15D-07 at cycle   6 NSaved=   6.
 NSaved= 6 IEnMin= 6 EnMin= -1521.20792796878     IErMin= 6 ErrMin= 2.15D-07
 ErrMax= 2.15D-07  0.00D+00 EMaxC= 1.00D-01 BMatC= 4.52D-11 BMatP= 1.91D-10
 IDIUse=1 WtCom= 1.00D+00 WtEn= 0.00D+00
 Coeff-Com: -0.119D-03 0.560D-02 0.461D-02 0.455D-01 0.355D+00 0.589D+00
 Coeff:     -0.119D-03 0.560D-02 0.461D-02 0.455D-01 0.355D+00 0.589D+00
 Gap=     0.120 Goal=   None    Shift=    0.000
 RMSDP=2.45D-08 MaxDP=1.51D-06 DE=-1.86D-10 OVMax= 3.01D-06

 Cycle  15  Pass 1  IDiag  1:
 RMSU=  1.72D-08    CP:  1.00D+00  1.02D+00  3.82D-01  9.14D-01  9.18D-01
                    CP:  7.38D-01
 E= -1521.20792796882     Delta-E=       -0.000000000036 Rises=F Damp=F
 DIIS: error= 5.31D-08 at cycle   7 NSaved=   7.
 NSaved= 7 IEnMin= 7 EnMin= -1521.20792796882     IErMin= 7 ErrMin= 5.31D-08
 ErrMax= 5.31D-08  0.00D+00 EMaxC= 1.00D-01 BMatC= 5.68D-12 BMatP= 4.52D-11
 IDIUse=1 WtCom= 1.00D+00 WtEn= 0.00D+00
 Coeff-Com:  0.101D-03-0.946D-02-0.469D-02 0.504D-02 0.144D+00 0.344D+00
 Coeff-Com:  0.521D+00
 Coeff:      0.101D-03-0.946D-02-0.469D-02 0.504D-02 0.144D+00 0.344D+00
 Coeff:      0.521D+00
 Gap=     0.120 Goal=   None    Shift=    0.000
 RMSDP=9.23D-09 MaxDP=2.32D-07 DE=-3.64D-11 OVMax= 1.01D-06

 SCF Done:  E(RPBE1PBE) =  -1521.20792797     A.U. after   15 cycles
            NFock= 15  Conv=0.92D-08     -V/T= 2.0042
 KE= 1.514902098097D+03 PE=-8.855901748406D+03 EE= 3.184253397610D+03
 Leave Link  502 at Mon Mar  6 10:32:10 2023, MaxMem=  1048576000 cpu:             599.4 elap:             603.7
 (Enter /ssoft/spack/external/gaussian/g16-C.01/avx2/g16/l801.exe)
 DoSCS=F DFT=T ScalE2(SS,OS)=  1.000000  1.000000
 Range of M.O.s used for correlation:     1   472
 NBasis=   472 NAE=    99 NBE=    99 NFC=     0 NFV=     0
 NROrb=    472 NOA=    99 NOB=    99 NVA=   373 NVB=   373

 **** Warning!!: The largest alpha MO coefficient is  0.12231292D+02

 Leave Link  801 at Mon Mar  6 10:32:11 2023, MaxMem=  1048576000 cpu:               0.0 elap:               0.0
 (Enter /ssoft/spack/external/gaussian/g16-C.01/avx2/g16/l1101.exe)
 Using compressed storage, NAtomX=    45.
 Will process     46 centers per pass.
   1 Symmetry operations used in ECPInt.
 ECPInt:  NShTT=   23871 NPrTT=   88825 LenC2=   20938 LenP2D=   52145.
 LDataN:  DoStor=T MaxTD1= 5 Len=  102
 R6Disp: Adding Grimme-D3(BJ) dispersion energy 1st derivatives to the gradient.
 Leave Link 1101 at Mon Mar  6 10:32:12 2023, MaxMem=  1048576000 cpu:               1.0 elap:               1.1
 (Enter /ssoft/spack/external/gaussian/g16-C.01/avx2/g16/l1102.exe)
 Symmetrizing basis deriv contribution to polar:
 IMax=3 JMax=2 DiffMx= 0.00D+00
 Leave Link 1102 at Mon Mar  6 10:32:12 2023, MaxMem=  1048576000 cpu:               0.1 elap:               0.1
 (Enter /ssoft/spack/external/gaussian/g16-C.01/avx2/g16/l1110.exe)
 Forming Gx(P) for the SCF density, NAtomX=    45.
 Integral derivatives from FoFJK, PRISM(SPDF).
 Do as many integral derivatives as possible in FoFJK.
 G2DrvN: MDV=    1048571229.
 G2DrvN: will do    46 centers at a time, making    1 passes.
 Calling FoFCou, ICntrl=  3107 FMM=F I1Cent=   0 AccDes= 0.00D+00.
 FoFJK:  IHMeth= 1 ICntrl=    3107 DoSepK=F KAlg= 0 I1Cent=           0 FoldK=F
 IRaf=         0 NMat=       1 IRICut=       1 DoRegI=T DoRafI=F ISym2E= 0 IDoP0=0 IntGTp=1.
 FoFCou: FMM=F IPFlag=           0 FMFlag=      100000 FMFlg1=           0
         NFxFlg=           0 DoJE=F BraDBF=F KetDBF=F FulRan=T
         wScrn=  0.000000 ICntrl=      3107 IOpCl=  0 I1Cent=           0 NGrid=           0
         NMat0=    1 NMatS0=      1 NMatT0=    0 NMatD0=    1 NMtDS0=    0 NMtDT0=    0
 Symmetry not used in FoFCou.
 End of G2Drv F.D. properties file   721 does not exist.
 End of G2Drv F.D. properties file   722 does not exist.
 End of G2Drv F.D. properties file   788 does not exist.
 Leave Link 1110 at Mon Mar  6 10:58:08 2023, MaxMem=  1048576000 cpu:            1550.8 elap:            1556.3
 (Enter /ssoft/spack/external/gaussian/g16-C.01/avx2/g16/l1002.exe)
 Minotr:  Closed shell wavefunction.
          IDoAtm=111111111111111111111111111111111111111111111
          Direct CPHF calculation.
          Differentiating once with respect to electric field.
                with respect to dipole field.
          Differentiating once with respect to nuclear coordinates.
          Requested convergence is 1.0D-08 RMS, and 1.0D-07 maximum.
          Secondary convergence is 1.0D-12 RMS, and 1.0D-12 maximum.
          NewPWx=T KeepS1=F KeepF1=F KeepIn=T MapXYZ=F SortEE=F KeepMc=T.
        13593 words used for storage of precomputed grid.
 Two-electron integrals replicated using symmetry.
          MDV=    1048576000 using IRadAn=       1.
          Solving linear equations simultaneously, MaxMat=     384.
 FoF2E skips out because all densities are zero.
 CalDSu exits because no D1Ps are significant.
 FoFJK:  IHMeth= 1 ICntrl=       0 DoSepK=F KAlg= 0 I1Cent=           0 FoldK=F
 IRaf= 770000000 NMat=     135 IRICut=     337 DoRegI=T DoRafI=T ISym2E= 2 IDoP0=3 IntGTp=3.
 FoFCou: FMM=F IPFlag=           0 FMFlag=      100000 FMFlg1=           0
         NFxFlg=           0 DoJE=F BraDBF=F KetDBF=F FulRan=T
         wScrn=  0.000000 ICntrl=         0 IOpCl=  0 I1Cent=           0 NGrid=           0
         NMat0=  135 NMatS0=    135 NMatT0=    0 NMatD0=  135 NMtDS0=    0 NMtDT0=    0
 Integrals replicated using symmetry in FoFCou.
 Raff kept on since  72.10% of shell-pairs survive, threshold=   0.20 IRatSp=72.
          There are   138 degrees of freedom in the 1st order CPHF.  IDoFFX=6 NUNeed=     3.
    135 vectors produced by pass  0 Test12= 3.69D-14 1.00D-09 XBig12= 3.91D+02 7.44D+00.
 AX will form   135 AO Fock derivatives at one time.
    135 vectors produced by pass  1 Test12= 3.69D-14 1.00D-09 XBig12= 9.42D+01 8.83D-01.
    135 vectors produced by pass  2 Test12= 3.69D-14 1.00D-09 XBig12= 8.90D-01 1.25D-01.
    135 vectors produced by pass  3 Test12= 3.69D-14 1.00D-09 XBig12= 4.72D-03 5.25D-03.
    135 vectors produced by pass  4 Test12= 3.69D-14 1.00D-09 XBig12= 1.78D-05 3.22D-04.
    134 vectors produced by pass  5 Test12= 3.69D-14 1.00D-09 XBig12= 2.97D-08 1.18D-05.
     38 vectors produced by pass  6 Test12= 3.69D-14 1.00D-09 XBig12= 3.78D-11 4.66D-07.
      3 vectors produced by pass  7 Test12= 3.69D-14 1.00D-09 XBig12= 4.34D-14 1.66D-08.
      3 vectors produced by pass  8 Test12= 3.69D-14 1.00D-09 XBig12= 6.39D-16 1.77D-09.
      3 vectors produced by pass  9 Test12= 3.69D-14 1.00D-09 XBig12= 1.02D-14 8.73D-09.
      3 vectors produced by pass 10 Test12= 3.69D-14 1.00D-09 XBig12= 4.89D-15 3.67D-09.
      1 vectors produced by pass 11 Test12= 3.69D-14 1.00D-09 XBig12= 1.67D-15 2.65D-09.
 InvSVY:  IOpt=1 It=  1 EMax= 4.82D-15
 Solved reduced A of dimension   860 with   138 vectors.
 FullF1:  Do perturbations      1 to       3.
 Isotropic polarizability for W=    0.000000      254.23 Bohr**3.
 End of Minotr F.D. properties file   721 does not exist.
 End of Minotr F.D. properties file   722 does not exist.
 End of Minotr F.D. properties file   788 does not exist.
 Leave Link 1002 at Mon Mar  6 12:02:31 2023, MaxMem=  1048576000 cpu:            3850.2 elap:            3863.3
 (Enter /ssoft/spack/external/gaussian/g16-C.01/avx2/g16/l601.exe)
 Copying SCF densities to generalized density rwf, IOpCl= 0 IROHF=0.

 **********************************************************************

            Population analysis using the SCF Density.

 **********************************************************************

 Orbital symmetries:
       Occupied  (A) (A) (A) (A) (A) (A) (A) (A) (A) (A) (A) (A)
                 (A) (A) (A) (A) (A) (A) (A) (A) (A) (A) (A) (A)
                 (A) (A) (A) (A) (A) (A) (A) (A) (A) (A) (A) (A)
                 (A) (A) (A) (A) (A) (A) (A) (A) (A) (A) (A) (A)
                 (A) (A) (A) (A) (A) (A) (A) (A) (A) (A) (A) (A)
                 (A) (A) (A) (A) (A) (A) (A) (A) (A) (A) (A) (A)
                 (A) (A) (A) (A) (A) (A) (A) (A) (A) (A) (A) (A)
                 (A) (A) (A) (A) (A) (A) (A) (A) (A) (A) (A) (A)
                 (A) (A) (A)
       Virtual   (A) (A) (A) (A) (A) (A) (A) (A) (A) (A) (A) (A)
                 (A) (A) (A) (A) (A) (A) (A) (A) (A) (A) (A) (A)
                 (A) (A) (A) (A) (A) (A) (A) (A) (A) (A) (A) (A)
                 (A) (A) (A) (A) (A) (A) (A) (A) (A) (A) (A) (A)
                 (A) (A) (A) (A) (A) (A) (A) (A) (A) (A) (A) (A)
                 (A) (A) (A) (A) (A) (A) (A) (A) (A) (A) (A) (A)
                 (A) (A) (A) (A) (A) (A) (A) (A) (A) (A) (A) (A)
                 (A) (A) (A) (A) (A) (A) (A) (A) (A) (A) (A) (A)
                 (A) (A) (A) (A) (A) (A) (A) (A) (A) (A) (A) (A)
                 (A) (A) (A) (A) (A) (A) (A) (A) (A) (A) (A) (A)
                 (A) (A) (A) (A) (A) (A) (A) (A) (A) (A) (A) (A)
                 (A) (A) (A) (A) (A) (A) (A) (A) (A) (A) (A) (A)
                 (A) (A) (A) (A) (A) (A) (A) (A) (A) (A) (A) (A)
                 (A) (A) (A) (A) (A) (A) (A) (A) (A) (A) (A) (A)
                 (A) (A) (A) (A) (A) (A) (A) (A) (A) (A) (A) (A)
                 (A) (A) (A) (A) (A) (A) (A) (A) (A) (A) (A) (A)
                 (A) (A) (A) (A) (A) (A) (A) (A) (A) (A) (A) (A)
                 (A) (A) (A) (A) (A) (A) (A) (A) (A) (A) (A) (A)
                 (A) (A) (A) (A) (A) (A) (A) (A) (A) (A) (A) (A)
                 (A) (A) (A) (A) (A) (A) (A) (A) (A) (A) (A) (A)
                 (A) (A) (A) (A) (A) (A) (A) (A) (A) (A) (A) (A)
                 (A) (A) (A) (A) (A) (A) (A) (A) (A) (A) (A) (A)
                 (A) (A) (A) (A) (A) (A) (A) (A) (A) (A) (A) (A)
                 (A) (A) (A) (A) (A) (A) (A) (A) (A) (A) (A) (A)
                 (A) (A) (A) (A) (A) (A) (A) (A) (A) (A) (A) (A)
                 (A) (A) (A) (A) (A) (A) (A) (A) (A) (A) (A) (A)
                 (A) (A) (A) (A) (A) (A) (A) (A) (A) (A) (A) (A)
                 (A) (A) (A) (A) (A) (A) (A) (A) (A) (A) (A) (A)
                 (A) (A) (A) (A) (A) (A) (A) (A) (A) (A) (A) (A)
                 (A) (A) (A) (A) (A) (A) (A) (A) (A) (A) (A) (A)
                 (A) (A) (A) (A) (A) (A) (A) (A) (A) (A) (A) (A)
                 (A)
 The electronic state is 1-A.
 Alpha  occ. eigenvalues --  -89.05027 -19.02526 -19.01292 -14.30086 -14.25400
 Alpha  occ. eigenvalues --  -14.19117 -10.16492 -10.14264 -10.13951 -10.13533
 Alpha  occ. eigenvalues --  -10.13500 -10.13418 -10.13238 -10.13021 -10.12869
 Alpha  occ. eigenvalues --  -10.12251 -10.12095 -10.12008 -10.11924 -10.11551
 Alpha  occ. eigenvalues --  -10.11408 -10.11054 -10.11032 -10.09530 -10.08682
 Alpha  occ. eigenvalues --  -10.07876 -10.07213  -8.01852  -5.96058  -5.95972
 Alpha  occ. eigenvalues --   -5.95898  -0.97689  -0.85100  -0.84547  -0.83209
 Alpha  occ. eigenvalues --   -0.78842  -0.75989  -0.74521  -0.73323  -0.69898
 Alpha  occ. eigenvalues --   -0.69181  -0.68322  -0.66690  -0.65567  -0.65173
 Alpha  occ. eigenvalues --   -0.62019  -0.59958  -0.55776  -0.55292  -0.54694
 Alpha  occ. eigenvalues --   -0.53419  -0.52009  -0.50071  -0.46754  -0.45286
 Alpha  occ. eigenvalues --   -0.44758  -0.43699  -0.43100  -0.41574  -0.41230
 Alpha  occ. eigenvalues --   -0.40191  -0.39966  -0.39530  -0.37314  -0.37114
 Alpha  occ. eigenvalues --   -0.35945  -0.35801  -0.34481  -0.34147  -0.33740
 Alpha  occ. eigenvalues --   -0.33133  -0.32499  -0.32223  -0.31907  -0.31465
 Alpha  occ. eigenvalues --   -0.30576  -0.30117  -0.29561  -0.29318  -0.27476
 Alpha  occ. eigenvalues --   -0.26714  -0.25565  -0.24675  -0.23997  -0.23120
 Alpha  occ. eigenvalues --   -0.20919  -0.19935  -0.19041  -0.17968  -0.15974
 Alpha  occ. eigenvalues --   -0.15180  -0.14977  -0.14235  -0.14135  -0.13761
 Alpha  occ. eigenvalues --   -0.12985  -0.11671  -0.09340  -0.05611
 Alpha virt. eigenvalues --    0.06383   0.07845   0.09020   0.11503   0.13533
 Alpha virt. eigenvalues --    0.15760   0.15876   0.19115   0.19744   0.19969
 Alpha virt. eigenvalues --    0.20151   0.21243   0.21552   0.21959   0.22123
 Alpha virt. eigenvalues --    0.22661   0.23443   0.23812   0.24717   0.25356
 Alpha virt. eigenvalues --    0.26090   0.27020   0.27653   0.28410   0.29189
 Alpha virt. eigenvalues --    0.30132   0.30892   0.31498   0.32709   0.33481
 Alpha virt. eigenvalues --    0.33774   0.34860   0.35230   0.35699   0.36389
 Alpha virt. eigenvalues --    0.37152   0.38022   0.38876   0.39791   0.40121
 Alpha virt. eigenvalues --    0.40639   0.41665   0.42029   0.42589   0.43145
 Alpha virt. eigenvalues --    0.43943   0.44914   0.45373   0.45797   0.46733
 Alpha virt. eigenvalues --    0.47714   0.48269   0.48608   0.49168   0.50443
 Alpha virt. eigenvalues --    0.50692   0.52229   0.53610   0.54050   0.54395
 Alpha virt. eigenvalues --    0.55605   0.56401   0.57045   0.57438   0.58096
 Alpha virt. eigenvalues --    0.58676   0.59539   0.60171   0.60435   0.60719
 Alpha virt. eigenvalues --    0.60998   0.61345   0.62159   0.62889   0.63286
 Alpha virt. eigenvalues --    0.63507   0.63680   0.64155   0.65323   0.66158
 Alpha virt. eigenvalues --    0.67151   0.67227   0.67900   0.68174   0.68801
 Alpha virt. eigenvalues --    0.69552   0.70049   0.71829   0.71972   0.72351
 Alpha virt. eigenvalues --    0.72987   0.74394   0.75188   0.75372   0.76505
 Alpha virt. eigenvalues --    0.76704   0.77640   0.78619   0.79601   0.79793
 Alpha virt. eigenvalues --    0.80564   0.81150   0.81473   0.82888   0.83085
 Alpha virt. eigenvalues --    0.83717   0.83935   0.84695   0.84935   0.85258
 Alpha virt. eigenvalues --    0.85605   0.85756   0.86222   0.86347   0.86452
 Alpha virt. eigenvalues --    0.87004   0.87118   0.87941   0.88214   0.88635
 Alpha virt. eigenvalues --    0.89421   0.89635   0.90328   0.90587   0.91256
 Alpha virt. eigenvalues --    0.91427   0.92402   0.93081   0.93517   0.93863
 Alpha virt. eigenvalues --    0.94210   0.95452   0.95634   0.96033   0.97065
 Alpha virt. eigenvalues --    0.97477   0.98691   0.98958   1.00265   1.01234
 Alpha virt. eigenvalues --    1.01812   1.02928   1.03631   1.04251   1.05901
 Alpha virt. eigenvalues --    1.06812   1.07881   1.08830   1.09520   1.10528
 Alpha virt. eigenvalues --    1.11522   1.14379   1.15406   1.16236   1.16897
 Alpha virt. eigenvalues --    1.18581   1.19105   1.19763   1.20514   1.22699
 Alpha virt. eigenvalues --    1.24683   1.24954   1.25471   1.27309   1.28067
 Alpha virt. eigenvalues --    1.28189   1.29091   1.30770   1.31609   1.32163
 Alpha virt. eigenvalues --    1.33113   1.34064   1.34601   1.36035   1.36925
 Alpha virt. eigenvalues --    1.37520   1.37845   1.38526   1.38731   1.39499
 Alpha virt. eigenvalues --    1.40313   1.40627   1.41369   1.42830   1.43430
 Alpha virt. eigenvalues --    1.44024   1.45702   1.46131   1.46731   1.47601
 Alpha virt. eigenvalues --    1.49306   1.49573   1.50662   1.51726   1.52382
 Alpha virt. eigenvalues --    1.52692   1.54541   1.56064   1.57926   1.59011
 Alpha virt. eigenvalues --    1.61299   1.62721   1.64126   1.65228   1.66343
 Alpha virt. eigenvalues --    1.66533   1.68662   1.71522   1.72118   1.72395
 Alpha virt. eigenvalues --    1.72822   1.75193   1.77848   1.79016   1.81019
 Alpha virt. eigenvalues --    1.81157   1.81948   1.83826   1.84818   1.86582
 Alpha virt. eigenvalues --    1.87424   1.88365   1.88827   1.90518   1.90784
 Alpha virt. eigenvalues --    1.91056   1.91738   1.91991   1.92109   1.93173
 Alpha virt. eigenvalues --    1.93433   1.94835   1.95784   1.96177   1.97251
 Alpha virt. eigenvalues --    1.97724   1.97817   1.99130   1.99610   2.00410
 Alpha virt. eigenvalues --    2.01218   2.01590   2.02678   2.03068   2.03647
 Alpha virt. eigenvalues --    2.05179   2.05454   2.07868   2.08584   2.08943
 Alpha virt. eigenvalues --    2.10465   2.11048   2.13372   2.14320   2.15352
 Alpha virt. eigenvalues --    2.15991   2.16978   2.18715   2.19526   2.20288
 Alpha virt. eigenvalues --    2.20842   2.21559   2.22042   2.23837   2.24379
 Alpha virt. eigenvalues --    2.25097   2.26555   2.27748   2.30511   2.31211
 Alpha virt. eigenvalues --    2.33028   2.33673   2.34321   2.34748   2.35800
 Alpha virt. eigenvalues --    2.36259   2.37145   2.37264   2.37740   2.38485
 Alpha virt. eigenvalues --    2.40532   2.41410   2.41947   2.42230   2.43444
 Alpha virt. eigenvalues --    2.44183   2.45417   2.46170   2.46741   2.48312
 Alpha virt. eigenvalues --    2.49663   2.50869   2.52941   2.54074   2.54224
 Alpha virt. eigenvalues --    2.55461   2.56155   2.57120   2.59601   2.62323
 Alpha virt. eigenvalues --    2.62547   2.64229   2.66367   2.68432   2.68597
 Alpha virt. eigenvalues --    2.70412   2.70931   2.71913   2.72228   2.74151
 Alpha virt. eigenvalues --    2.74270   2.74965   2.75248   2.77242   2.77289
 Alpha virt. eigenvalues --    2.80264   2.80640   2.82333   2.83027   2.83199
 Alpha virt. eigenvalues --    2.83627   2.86036   2.86361   2.86717   2.87680
 Alpha virt. eigenvalues --    2.89113   2.89438   2.93507   2.93695   2.96062
 Alpha virt. eigenvalues --    2.96961   2.99104   2.99862   3.01028   3.05103
 Alpha virt. eigenvalues --    3.05426   3.08266   3.11359   3.13153   3.15117
 Alpha virt. eigenvalues --    3.17312   3.19246   3.20421   3.23564   3.24967
 Alpha virt. eigenvalues --    3.27257   3.29728   3.30257   3.30681   3.33591
 Alpha virt. eigenvalues --    3.34312   3.35219   3.35896   3.36100   3.36662
 Alpha virt. eigenvalues --    3.37131   3.38481   3.39016   3.40189   3.46469
 Alpha virt. eigenvalues --    3.51755   3.52583   3.53293   3.56276   3.56527
 Alpha virt. eigenvalues --    3.58685   3.59428   3.63714   3.68938   3.91615
 Alpha virt. eigenvalues --    3.95963   4.01719   4.02629
     Molecular Orbital Coefficients:
                          95        96        97        98        99
                           O         O         O         O         O
     Eigenvalues --    -0.13761  -0.12985  -0.11671  -0.09340  -0.05611
   1 1   S  1S         -0.00167  -0.00106  -0.00014   0.00704   0.00113
   2        2S         -0.01110  -0.00684  -0.00097   0.04717   0.00757
   3        3S          0.01787   0.00489   0.00244  -0.09045  -0.00715
   4        4S          0.02225   0.03707   0.00262  -0.04210  -0.05485
   5        5PX         0.01528   0.00359   0.00198  -0.03546  -0.00783
   6        5PY        -0.01088  -0.00761   0.00015   0.04060  -0.00639
   7        5PZ        -0.00052  -0.00122  -0.00289   0.00060  -0.00048
   8        6PX         0.02883   0.01018   0.00603  -0.07592  -0.01301
   9        6PY        -0.02063  -0.01472   0.00012   0.08107  -0.00798
  10        6PZ        -0.00263  -0.00056  -0.00648   0.00644  -0.00044
  11        7PX         0.03915  -0.02702  -0.01217  -0.03360  -0.05257
  12        7PY        -0.02488  -0.01951  -0.00087   0.07664  -0.05372
  13        7PZ         0.01819  -0.01794   0.00739  -0.06838  -0.02191
  14        8D 0        0.01762  -0.02900  -0.00282   0.00922   0.00517
  15        8D+1       -0.01509   0.00217   0.01097  -0.02043   0.01781
  16        8D-1       -0.01338   0.02892  -0.00069   0.01247   0.00796
  17        8D+2       -0.01171  -0.00226  -0.01603   0.04439  -0.07524
  18        8D-2       -0.01116  -0.01504  -0.00858   0.03384   0.02386
  19 2   C  1S         -0.01171  -0.02709   0.00162  -0.01282  -0.00279
  20        2S          0.02767   0.06539  -0.00392   0.03662   0.00921
  21        3S          0.00051   0.00398  -0.01262   0.03357   0.00419
  22        4PX        -0.12839  -0.07970   0.00944   0.00203  -0.08937
  23        4PY        -0.00055   0.10923  -0.00268   0.05893  -0.03169
  24        4PZ        -0.02625  -0.04976   0.00248  -0.01529  -0.00617
  25        5PX        -0.06101  -0.00765   0.00089   0.03744  -0.07854
  26        5PY        -0.04795  -0.04830   0.00150  -0.01658  -0.03879
  27        5PZ        -0.00701  -0.00017  -0.00679   0.02566   0.00105
  28        6D 0        0.00423   0.01100  -0.00072   0.00638   0.00130
  29        6D+1       -0.00770  -0.01016   0.00145  -0.00633  -0.00038
  30        6D-1        0.00734   0.02131  -0.00112   0.01085   0.00263
  31        6D+2       -0.00469   0.00914   0.00292  -0.00073   0.00198
  32        6D-2        0.00624  -0.00147  -0.00262   0.00405  -0.00089
  33 3   H  1S          0.03760   0.09063  -0.00538   0.04477   0.00817
  34        2S          0.02139   0.05836  -0.00544   0.03928   0.00852
  35        3PX        -0.00541  -0.00273   0.00053  -0.00005  -0.00388
  36        3PY        -0.00030   0.00426   0.00003   0.00242  -0.00161
  37        3PZ        -0.00097  -0.00209   0.00023  -0.00175  -0.00069
  38 4   N  1S         -0.03170  -0.07673   0.00516  -0.03799  -0.00834
  39        2S         -0.06601  -0.16163   0.01072  -0.08437  -0.01857
  40        3S         -0.06932  -0.16092   0.01824  -0.05631  -0.02138
  41        4PX        -0.10269  -0.03943   0.04544  -0.09206   0.01552
  42        4PY         0.08531   0.30853   0.00332   0.10308   0.03858
  43        4PZ        -0.11899  -0.28178   0.01864  -0.14464  -0.02643
  44        5PX         0.07863   0.02962  -0.03055   0.05507  -0.03090
  45        5PY        -0.06678  -0.22628  -0.00591  -0.04489  -0.02144
  46        5PZ         0.08848   0.20708  -0.01133   0.10154   0.01659
  47        6D 0        0.00281   0.00478  -0.00032   0.00095   0.00006
  48        6D+1        0.00796   0.00136  -0.00222   0.00316   0.00500
  49        6D-1        0.00020  -0.00979  -0.00014  -0.00660   0.00092
  50        6D+2       -0.00536  -0.00949  -0.00045  -0.00162  -0.00459
  51        6D-2       -0.00160  -0.00571   0.00111  -0.00603   0.00149
  52 5   N  1S         -0.02701  -0.00143   0.00239   0.08398   0.01011
  53        2S         -0.05441   0.00086   0.00609   0.17576   0.01538
  54        3S         -0.08729  -0.00907   0.01976   0.18116   0.04841
  55        4PX         0.08200  -0.03474  -0.02633  -0.15259   0.25919
  56        4PY         0.01130  -0.10973  -0.04421   0.11579   0.28070
  57        4PZ        -0.09326  -0.01851  -0.00675   0.35643   0.10244
  58        5PX        -0.05622   0.02233   0.02168   0.10092  -0.24175
  59        5PY        -0.01672   0.08329   0.02832  -0.03788  -0.22718
  60        5PZ         0.06713   0.03472   0.01255  -0.27549  -0.06902
  61        6D 0        0.00352   0.00004   0.00010  -0.01161  -0.00493
  62        6D+1       -0.00540   0.00516   0.00158   0.01008  -0.00504
  63        6D-1       -0.00167   0.00240   0.00222  -0.00963  -0.00871
  64        6D+2        0.00119  -0.00106  -0.00022  -0.00271   0.01345
  65        6D-2       -0.00129  -0.00204  -0.00119   0.00688   0.00028
  66 6   O  1S          0.00166   0.00096  -0.00185  -0.00652  -0.00007
  67        2S          0.00407   0.00036  -0.00531  -0.01166   0.00027
  68        3S          0.00867  -0.00152   0.00319  -0.04941  -0.00183
  69        4PX         0.15214  -0.11332  -0.08712  -0.04396   0.01656
  70        4PY         0.02877  -0.11850  -0.02972   0.15274   0.12937
  71        4PZ        -0.01197  -0.04787   0.02717   0.03246   0.02876
  72        5PX         0.11552  -0.08721  -0.06907  -0.03488   0.01975
  73        5PY         0.02296  -0.09231  -0.02458   0.11738   0.11270
  74        5PZ        -0.00946  -0.03447   0.02320   0.01007   0.02257
  75        6D 0       -0.00178  -0.00092   0.00145   0.00175   0.00124
  76        6D+1        0.00653  -0.00428  -0.00304  -0.00354   0.00081
  77        6D-1        0.00109  -0.00515  -0.00132   0.00757   0.00479
  78        6D+2        0.00158  -0.00211  -0.00130   0.00165  -0.00054
  79        6D-2       -0.00091  -0.00031   0.00062   0.00123   0.00074
  80 7   O  1S          0.00086  -0.00071  -0.00037   0.00126   0.00735
  81        2S          0.00174  -0.00198  -0.00070   0.00395   0.01532
  82        3S         -0.00002   0.00363  -0.00168   0.00495   0.04945
  83        4PX        -0.03348  -0.09459  -0.06840   0.15594   0.08094
  84        4PY         0.00238   0.08389   0.04623  -0.15759  -0.11980
  85        4PZ         0.05998  -0.08747  -0.03679   0.08182  -0.01235
  86        5PX        -0.03234  -0.07073  -0.05174   0.12816   0.06356
  87        5PY         0.00473   0.06334   0.03674  -0.13333  -0.09883
  88        5PZ         0.04195  -0.06542  -0.02841   0.07149  -0.01404
  89        6D 0       -0.00180   0.00272   0.00153  -0.00335  -0.00049
  90        6D+1       -0.00039   0.00332   0.00230  -0.00452  -0.00173
  91        6D-1       -0.00132   0.00084  -0.00013   0.00031   0.00088
  92        6D+2       -0.00042   0.00511   0.00265  -0.00616  -0.00550
  93        6D-2        0.00135   0.00095   0.00126  -0.00117  -0.00092
  94 8   C  1S          0.00753   0.00867   0.00524  -0.01992  -0.00284
  95        2S         -0.01748  -0.02146  -0.01146   0.05297   0.01042
  96        3S         -0.06620  -0.02704  -0.02184   0.15108  -0.03439
  97        4PX        -0.13911   0.02073   0.04770  -0.08475   0.22212
  98        4PY        -0.06314   0.05306   0.01522  -0.07300   0.13765
  99        4PZ         0.03264   0.01540   0.00303  -0.10150  -0.04314
 100        5PX        -0.10480   0.00098   0.02293  -0.05894   0.20300
 101        5PY        -0.01823   0.05139   0.01647  -0.06893   0.13618
 102        5PZ         0.01505   0.01165   0.00120  -0.13804  -0.07211
 103        6D 0        0.00145  -0.00120  -0.00072  -0.00046   0.00005
 104        6D+1       -0.00067  -0.00562  -0.00091   0.00126  -0.00445
 105        6D-1       -0.00059  -0.00083  -0.00117   0.00524  -0.00192
 106        6D+2       -0.00376  -0.00052   0.00192  -0.00102   0.00278
 107        6D-2        0.00267  -0.00058  -0.00079   0.00115  -0.00048
 108 9   H  1S          0.00414   0.02533  -0.00835  -0.00806   0.00312
 109        2S         -0.00732  -0.01467  -0.00147   0.02840   0.02921
 110        3PX        -0.00408   0.00138  -0.00010  -0.00385   0.00968
 111        3PY        -0.00309  -0.00032   0.00114  -0.00113   0.00440
 112        3PZ         0.00062   0.00133   0.00044  -0.00153  -0.00080
 113 10  C  1S         -0.00221  -0.00242  -0.00156   0.00970   0.00239
 114        2S          0.00546   0.00643   0.00297  -0.02351  -0.00981
 115        3S          0.03740   0.01415   0.02122  -0.05223   0.07450
 116        4PX        -0.11850  -0.03835   0.01408   0.02160  -0.03018
 117        4PY        -0.03501  -0.04122   0.00652  -0.00728  -0.02693
 118        4PZ         0.01295   0.01665  -0.00610   0.04291   0.02345
 119        5PX        -0.09133  -0.03457   0.01251  -0.00319  -0.02636
 120        5PY        -0.01783  -0.01125   0.00538   0.01488   0.00771
 121        5PZ         0.00027   0.00549  -0.00943   0.01349  -0.02113
 122        6D 0       -0.00042  -0.00067   0.00011   0.00497   0.00168
 123        6D+1        0.00263  -0.00189  -0.00111   0.00261  -0.00721
 124        6D-1        0.00302   0.00290  -0.00062   0.00255  -0.00041
 125        6D+2        0.00414  -0.00322  -0.00201   0.00699  -0.01469
 126        6D-2       -0.00308   0.00321   0.00191  -0.00314   0.01416
 127 11  H  1S          0.00378   0.00672  -0.00149   0.03567   0.01625
 128        2S         -0.00091   0.00402  -0.00138   0.03903   0.01124
 129        3PX        -0.00467  -0.00178   0.00053   0.00149  -0.00205
 130        3PY        -0.00147  -0.00131   0.00018  -0.00124  -0.00079
 131        3PZ         0.00075   0.00041  -0.00014   0.00100   0.00083
 132 12  C  1S         -0.00396  -0.01356   0.00063  -0.00050  -0.00448
 133        2S          0.01150   0.03745  -0.00036  -0.00201   0.01770
 134        3S          0.02833   0.07103  -0.01204   0.01260  -0.08875
 135        4PX         0.01929  -0.07177  -0.02783   0.09169  -0.23612
 136        4PY        -0.00212  -0.01192  -0.00800   0.01212  -0.07239
 137        4PZ        -0.02992  -0.07022   0.00089  -0.01774  -0.04383
 138        5PX         0.01681  -0.05099  -0.01957   0.06548  -0.22794
 139        5PY        -0.00321  -0.02252  -0.01228   0.03937  -0.07174
 140        5PZ        -0.01572  -0.03549   0.00308   0.01361   0.02319
 141        6D 0       -0.00139  -0.00217   0.00013  -0.00009   0.00064
 142        6D+1       -0.00691  -0.00177   0.00155  -0.00163  -0.00088
 143        6D-1       -0.00033   0.00659   0.00033   0.00317   0.00179
 144        6D+2        0.00537   0.00129  -0.00098   0.00009   0.00152
 145        6D-2       -0.00497  -0.00308   0.00056   0.00047  -0.00098
 146 13  H  1S         -0.01864  -0.04873   0.00216  -0.01498  -0.01314
 147        2S         -0.01955  -0.05626   0.00038  -0.01450  -0.02035
 148        3PX         0.00069  -0.00291  -0.00119   0.00393  -0.01060
 149        3PY        -0.00024  -0.00132  -0.00027   0.00031  -0.00343
 150        3PZ        -0.00037  -0.00125  -0.00009  -0.00090  -0.00210
 151 14  C  1S          0.00775   0.01964  -0.00033   0.00397  -0.00332
 152        2S         -0.02078  -0.05316   0.00106  -0.01664   0.00746
 153        3S          0.00590  -0.01252   0.02898  -0.09456   0.03897
 154        4PX         0.15879   0.00671  -0.03871   0.03053  -0.02011
 155        4PY         0.04323  -0.10019  -0.01947  -0.00273  -0.00884
 156        4PZ         0.07279   0.10758  -0.01015   0.04121   0.00780
 157        5PX         0.11911   0.01947  -0.03146   0.01547  -0.00898
 158        5PY         0.02193  -0.09161  -0.00912  -0.01160  -0.01374
 159        5PZ         0.01498   0.01677  -0.01657   0.09403   0.09151
 160        6D 0        0.00066   0.00182  -0.00054   0.00421  -0.00212
 161        6D+1       -0.00475  -0.00427  -0.00007   0.00329  -0.01497
 162        6D-1       -0.00090   0.00188  -0.00008   0.00171  -0.00423
 163        6D+2       -0.00275   0.00411   0.00116  -0.00014   0.00237
 164        6D-2        0.00347  -0.00233  -0.00146   0.00215   0.00041
 165 15  C  1S         -0.01652  -0.02749  -0.00018   0.00932   0.00871
 166        2S          0.04358   0.07082   0.00136  -0.02465  -0.02361
 167        3S         -0.00959  -0.06772  -0.01920  -0.15791  -0.05231
 168        4PX         0.13620  -0.03773  -0.03187   0.01162   0.13556
 169        4PY         0.10686   0.05351  -0.00865  -0.05631   0.04278
 170        4PZ        -0.04614  -0.13962   0.00443  -0.05369  -0.00681
 171        5PX         0.10631   0.00668  -0.02723   0.08785   0.15915
 172        5PY         0.05479  -0.04647   0.00779  -0.21026  -0.04278
 173        5PZ        -0.00359  -0.01529  -0.00848   0.03613   0.01326
 174        6D 0       -0.00341  -0.00862   0.00031  -0.00054   0.00041
 175        6D+1       -0.00193  -0.00600   0.00123  -0.00646   0.00273
 176        6D-1        0.00721   0.02090  -0.00013   0.00824   0.00233
 177        6D+2        0.00551  -0.00749  -0.00332   0.00321  -0.00325
 178        6D-2       -0.00747  -0.00229   0.00277  -0.00376   0.00133
 179 16  C  1S         -0.01980  -0.02353   0.00346   0.01531   0.00262
 180        2S          0.04950   0.06055  -0.00734  -0.03897  -0.01085
 181        3S          0.06767   0.12520  -0.01966   0.12413   0.06085
 182        4PX        -0.05397   0.13691   0.05552  -0.04847   0.08178
 183        4PY        -0.04630  -0.01365   0.02553  -0.08845   0.04794
 184        4PZ        -0.04974  -0.02671   0.00279   0.11082   0.02795
 185        5PX        -0.04114   0.12292   0.04441   0.04296   0.07150
 186        5PY        -0.04257  -0.05191   0.01594  -0.16922  -0.05238
 187        5PZ         0.01076  -0.00199   0.01831  -0.15184  -0.04127
 188        6D 0       -0.00496  -0.00581  -0.00157   0.01637   0.00688
 189        6D+1       -0.00349  -0.00331   0.00049  -0.01049   0.02044
 190        6D-1       -0.00273   0.00346  -0.00023   0.00361   0.01623
 191        6D+2        0.00661  -0.00377  -0.00199   0.00269   0.01356
[...]
 4,0.00020330,0.00055508,0.00006883,-0.00000641,0.00000776,0.00000742,0
 .00000240,-0.00000228,-0.00000120,0.00005215,0.00000815,-0.00000369,0.
 00000524,-0.00000129,-0.00000271,-0.00093474,-0.00038255,-0.00079049,0
 .00012545,-0.00009168,0.00005687,0.00020758,0.00006682,0.00003988,0.00
 040693,0.00011788,-0.00001771,0.00095266,-0.00032900,0.00130705,-0.000
 13016,-0.00008915,-0.00016436,-0.00042899,0.00006471,0.00033935,0.0000
 4150,0.00002442,-0.00017343,-0.00701012,-0.00480297,-0.00590907,-0.000
 38030,-0.00013302,-0.00026846,-0.00081932,-0.00660980,0.01422302,-0.00
 002812,-0.00016234,0.00034875,0.01776757,0.01077204,-0.00639916,0.0003
 4409,-0.00015456,-0.00017836,-0.02995622,-0.00641561,-0.03028780,-0.32
 076117,-0.12266815,-0.05610421,-0.00631229,-0.03068826,0.04321021,0.05
 365577,0.02961541,-0.00998642,0.00050766,-0.00504479,0.00149757,-0.040
 58769,-0.00812907,-0.03159630,-0.00033921,0.00209209,0.00192814,0.6975
 3984,0.00191903,-0.00207381,0.00045863,0.00001345,-0.00005238,-0.00001
 105,0.00001974,0.00000319,-0.00001235,-0.00007176,0.00006099,-0.000047
 46,-0.00042670,-0.00034252,-0.00157490,0.00006765,-0.00009156,0.001552
 67,-0.00015884,0.00040172,-0.00015210,-0.00031964,-0.00036441,0.000114
 70,0.00002943,0.00000720,-0.00011507,-0.00014628,0.00015813,0.00010039
 ,0.00000153,-0.00001144,-0.00002820,0.00011206,-0.00009242,0.00000629,
 0.00000535,0.00000019,-0.00000247,-0.00000154,-0.00006077,0.00000968,0
 .00016649,-0.00000178,-0.00001481,-0.00014580,0.00072530,-0.00003537,0
 .00000169,-0.00002013,-0.00000176,0.00000130,0.00000118,-0.00001329,0.
 00002501,0.00002150,0.00003817,0.00000987,-0.00001104,-0.00000188,-0.0
 0066212,-0.00019118,-0.00047178,0.00008359,-0.00012658,0.00007423,0.00
 007964,-0.00005817,0.00005295,0.00008276,0.00017344,0.00000537,0.00084
 550,-0.00028015,0.00044812,0.00007521,-0.00002491,-0.00014756,-0.00020
 032,0.00003548,0.00019326,-0.00000500,-0.00000808,-0.00007274,-0.00489
 386,0.00126229,0.00361311,-0.00078422,-0.00039282,-0.00038265,0.000377
 33,-0.00191267,0.00327942,0.00042866,-0.00075406,-0.00038781,0.0031475
 9,0.00646823,0.00188723,0.00044768,0.00017811,0.00003308,-0.00233132,0
 .00662397,-0.00835114,-0.13703144,-0.14433617,-0.01490715,-0.02378025,
 -0.01138508,0.01064586,0.01292535,0.00654745,0.02382481,-0.00460517,0.
 00176185,0.00559642,-0.00461183,-0.00464036,-0.00853034,-0.00033762,-0
 .00059054,0.00104526,0.39136154,0.49602364,-0.00207924,-0.00264425,-0.
 00065084,0.00000598,-0.00000819,-0.00001391,0.00000739,-0.00001639,0.0
 0001310,0.00002355,0.00009728,0.00017561,-0.00006151,0.00085121,-0.001
 70344,0.00012815,0.00116111,-0.00086479,0.00044074,0.00020231,0.000528
 75,0.00019381,0.00003934,0.00000744,0.00002637,-0.00001095,0.00015205,
 -0.00001510,0.00009131,-0.00005991,-0.00000073,0.00000624,-0.00001374,
 0.00011335,0.00000918,0.00001675,0.00000873,-0.00000277,0.00002567,-0.
 00001562,-0.00009144,-0.00003928,-0.00022821,0.00005268,0.00007930,-0.
 00011661,-0.00041945,-0.00014741,-0.00000771,0.00003337,-0.00000310,0.
 00000220,-0.00000302,0.00000550,0.00002711,-0.00000993,-0.00001782,-0.
 00000036,0.00000337,0.00000249,-0.00050601,0.00005863,-0.00033203,0.00
 014440,0.00008606,-0.00004353,0.00019849,0.00011642,0.00000534,0.00054
 692,-0.00003293,-0.00009245,-0.00027570,0.00012775,0.00054968,-0.00016
 330,-0.00006332,-0.00012083,-0.00011439,-0.00008170,0.00004076,0.00009
 324,0.00003835,-0.00010912,-0.00582167,0.00357876,-0.00908569,0.001433
 93,0.00066718,0.00059037,-0.00053196,-0.00471784,0.00903899,0.00038092
 ,-0.00070571,0.00011795,0.00763890,0.01142202,-0.00870417,-0.00117160,
 -0.00086717,0.00017623,-0.04411548,-0.01627613,-0.01639544,-0.02465420
 ,0.00357336,-0.11648888,0.02764237,0.00176883,0.04243503,0.02444716,0.
 04201581,-0.05038081,0.00183427,0.00525550,-0.00037152,-0.03317430,-0.
 01156816,-0.02699146,0.00144679,0.00203574,0.00053320,-0.00949961,-0.4
 5451168,1.02873790,-0.00086504,-0.00440958,-0.00411487,-0.00020102,0.0
 0008104,-0.00000105,-0.00001119,0.00002135,-0.00001145,-0.00001797,0.0
 0001851,-0.00025388,-0.00096119,0.00132663,0.00083080,0.00052335,0.001
 38345,0.00141415,0.00018177,0.00092084,0.00038999,0.00019139,0.0003634
 0,0.00007876,-0.00002228,-0.00003796,0.00003741,0.00009813,-0.00022418
 ,-0.00004195,0.00000061,-0.00000330,0.00000956,-0.00015251,0.00009260,
 -0.00001919,-0.00001516,-0.00000837,-0.00000313,-0.00000145,0.00010139
 ,0.00003647,0.00005016,-0.00002425,0.00004034,-0.00007262,-0.00074378,
 -0.00009851,0.00003991,-0.00003364,0.00000033,-0.00000233,0.00000121,-
 0.00000868,-0.00005817,-0.00006668,0.00003396,0.00000264,-0.00001128,-
 0.00000177,0.00009864,0.00002140,0.00005820,0.00000349,0.00000226,-0.0
 0000391,-0.00001271,0.00000263,-0.00000562,-0.00003054,-0.00009818,0.0
 0000555,-0.00010591,0.00000039,0.00008614,-0.00002077,-0.00001335,-0.0
 0000512,-0.00001994,0.00000460,0.00000321,0.00001079,0.00000069,-0.000
 00725,-0.00014494,-0.00068377,0.00135306,-0.00027358,-0.00034523,-0.00
 020779,-0.00005601,0.00018160,0.00009150,0.00002100,-0.00000048,-0.000
 08061,0.00008163,0.00010186,0.00020359,0.00011658,-0.00014559,-0.00009
 421,0.00035013,0.00285797,0.00171186,-0.00880093,-0.02067804,0.0226310
 3,-0.00287742,-0.00417822,-0.00343690,0.00040776,-0.00289668,-0.005251
 96,0.00048575,0.00078360,-0.00071844,-0.00070285,0.00006955,-0.0008095
 0,0.00003304,0.00067597,0.00035005,-0.15087689,-0.23832145,0.27030565,
 0.15041485,-0.00119956,0.00532829,0.00154104,0.00006983,0.00002939,0.0
 0002739,-0.00002557,0.00000345,0.00001843,0.00006051,-0.00013692,0.000
 14114,0.00093569,-0.00085865,0.00056427,-0.00037101,-0.00290927,-0.000
 07434,0.00015250,-0.00097931,-0.00040598,-0.00000745,0.00009446,-0.000
 09623,0.00001318,0.00003664,-0.00001516,0.00005393,-0.00006827,-0.0000
 1760,0.00000523,0.00000883,0.00001177,-0.00003714,0.00004296,0.0000089
 0,0.00000296,0.00000307,-0.00000799,0.00001022,-0.00002213,-0.00001430
 ,-0.00008032,-0.00004545,0.00000888,0.00004985,-0.00046459,-0.00021289
 ,-0.00000863,0.00001118,0.00000220,-0.00000236,-0.00000082,0.00001307,
 -0.00000468,0.00000145,-0.00005033,-0.00000916,0.00001269,-0.00000316,
 -0.00011983,0.00003520,-0.00001574,0.00000716,0.00002857,-0.00000821,0
 .00004813,0.00000030,-0.00000232,0.00011093,0.00007798,0.00000578,0.00
 005293,0.00007846,-0.00020168,-0.00001505,0.00001304,0.00001031,0.0000
 6034,-0.00002372,-0.00003436,0.00001757,-0.00000070,-0.00002231,-0.000
 30204,-0.00038200,0.00045171,-0.00030973,0.00021414,-0.00005292,0.0001
 5307,-0.00037527,0.00008161,-0.00002783,0.00003299,0.00002547,0.000358
 07,0.00000036,0.00013541,-0.00009890,0.00032997,0.00010485,0.00273510,
 -0.00284025,-0.00125256,-0.00394220,-0.00043098,0.01100646,-0.00439476
 ,0.00390277,0.00154641,-0.00259376,0.00764785,0.00188009,0.00005151,0.
 00019914,-0.00012143,-0.00049647,-0.00057719,-0.00095368,0.00050016,-0
 .00084116,-0.00046583,-0.23968503,-0.26927937,0.36331303,0.24887676,0.
 25872960,-0.00449129,-0.00136501,-0.00332358,-0.00006331,0.00009715,0.
 00002870,-0.00002903,-0.00000599,0.00000550,0.00010371,0.00004000,0.00
 000260,0.00006136,0.00126658,-0.00005254,0.00055768,0.00102863,-0.0008
 6709,0.00060139,0.00018888,0.00029784,0.00027344,0.00070500,0.00006055
 ,-0.00000648,-0.00002353,0.00006239,0.00023989,-0.00031419,-0.00010117
 ,0.00001007,0.00002834,0.00003892,-0.00018054,0.00023519,-0.00000601,-
 0.00001291,0.00000347,0.00000209,-0.00002129,0.00004473,-0.00000415,-0
 .00027330,0.00006438,0.00013297,0.00025597,-0.00152374,-0.00031123,0.0
 0003189,0.00002581,0.00000244,-0.00000579,0.00000607,0.00001264,-0.000
 08060,-0.00005456,-0.00003610,-0.00002006,0.00001369,-0.00000084,-0.00
 021333,0.00004339,-0.00004358,0.00004903,-0.00001040,0.00000249,0.0000
 3228,-0.00003037,0.00002398,0.00007993,0.00001681,0.00000112,0.0001864
 6,-0.00004539,0.00004402,0.00001225,-0.00000139,-0.00002808,-0.0000256
 9,0.00000258,0.00004736,-0.00000930,-0.00000365,-0.00001690,-0.0003627
 8,-0.00047002,0.00052719,-0.00031355,-0.00001227,-0.00006346,0.0000767
 6,-0.00032937,0.00028127,-0.00000697,0.00003885,-0.00004593,0.00041791
 ,0.00043957,-0.00031955,-0.00007124,0.00010821,0.00012417,0.00103789,-
 0.00141277,-0.00057179,-0.00922270,-0.00785118,0.01393440,-0.00363721,
 0.00020809,0.00117749,-0.00470413,0.00308505,-0.00274386,0.00071735,0.
 00082480,-0.00059170,-0.00105464,-0.00066693,-0.00059956,0.00002518,-0
 .00049664,0.00003844,0.26763283,0.36326348,-0.40550845,-0.26472628,-0.
 37499723,0.41080879,-0.00186487,-0.00144862,0.00076852,0.00004516,0.00
 002683,0.00000815,-0.00001191,0.00000359,0.00000582,0.00003749,-0.0000
 0427,0.00008862,0.00066450,0.00032552,0.00041025,0.00091981,0.00033783
 ,0.00058752,0.00028044,0.00025747,-0.00024794,0.00003586,0.00007874,-0
 .00003054,-0.00000342,0.00000870,0.00002160,-0.00000023,0.00000593,-0.
 00003265,0.00000285,0.00000794,0.00001297,0.00001763,0.00002242,0.0000
 2693,0.00000030,-0.00000191,-0.00000586,-0.00000825,-0.00006516,-0.000
 01224,-0.00010031,-0.00001524,-0.00004922,-0.00008263,-0.00022551,-0.0
 0009788,0.00000764,-0.00000848,0.00001053,0.00000121,-0.00000136,-0.00
 000452,0.00000645,-0.00002514,-0.00001112,-0.00000096,0.00000689,-0.00
 000766,-0.00071340,0.00166800,-0.00060008,0.00028543,0.00008648,-0.000
 00126,0.00016302,-0.00002105,0.00002618,0.00070858,-0.00015834,0.00016
 498,0.00016915,-0.00035555,-0.00123835,-0.00003482,0.00032651,0.000044
 94,0.00018199,-0.00009904,-0.00007565,-0.00007316,0.00023683,0.0000693
 0,-0.00073167,0.00049429,-0.00066555,-0.00001804,0.00009330,0.00004676
 ,-0.00043166,-0.00069194,-0.00023365,0.00013902,-0.00003423,-0.0000032
 1,-0.00106069,-0.00030578,-0.00031864,-0.00060702,0.00023583,0.0002026
 1,-0.00122086,-0.00525356,0.00101727,-0.02040788,-0.00346286,-0.036394
 35,-0.00173871,0.00445311,0.00042486,-0.15513078,-0.08826755,0.0742004
 2,0.01330968,0.01159286,-0.01491477,-0.01553803,-0.02419096,0.02114009
 ,-0.00445252,-0.00570593,-0.00136260,-0.20563495,0.01715822,-0.2157319
 2,0.01425876,-0.00464939,0.01501532,1.02401174,-0.00145179,-0.00222769
 ,0.00017085,-0.00003833,0.00002533,-0.00000254,-0.00000584,-0.00000391
 ,0.00001178,0.00003455,-0.00002191,-0.00007079,0.00007228,0.00040313,0
 .00001027,0.00073613,0.00040169,0.00076866,0.00021707,0.00033635,-0.00
 009685,0.00004786,0.00000911,-0.00006253,0.00001496,-0.00001236,0.0000
 4655,-0.00001244,0.00006142,-0.00002902,-0.00000449,-0.00000188,-0.000
 00681,0.00003985,-0.00002071,0.00000087,0.00000084,-0.00000483,0.00001
 036,-0.00001066,-0.00000613,-0.00000568,-0.00003574,0.00002650,0.00009
 985,0.00008127,0.00001344,0.00011593,0.00000544,0.00000650,-0.00000425
 ,-0.00000038,-0.00000410,0.00000157,-0.00000421,-0.00000725,0.00000218
 ,0.00000363,0.00000069,0.00000308,-0.00002138,0.00012457,0.00025843,0.
 00003325,0.00004063,-0.00004663,-0.00000865,0.00003379,0.00004668,0.00
 002946,-0.00031973,-0.00024320,-0.00135858,-0.00084380,0.00125874,-0.0
 0028547,-0.00024690,-0.00010849,-0.00033786,-0.00005459,0.00016274,-0.
 00010333,0.00021159,0.00019873,-0.00563770,-0.00182070,-0.00476716,0.0
 0013259,-0.00035533,-0.00025922,-0.00066254,-0.00312097,0.00770075,0.0
 0011084,-0.00016751,0.00011991,0.00608981,0.00509040,-0.00276626,0.000
 23290,-0.00067823,-0.00043953,-0.01207666,0.00200568,-0.00555781,0.013
 22190,0.02198423,-0.01114902,0.00989737,-0.00955085,0.01983853,-0.0585
 7347,-0.17598267,0.12445916,-0.00528421,0.00403484,0.00009723,-0.03990
 428,-0.01622082,-0.00701083,-0.00092420,0.00778628,0.00115253,-0.01701
 993,-0.09504340,0.04905123,0.01187173,0.00837117,0.02102544,0.47388036
 ,0.41967649,0.00208898,0.00084003,-0.00058798,-0.00002717,0.00001355,0
 .00000500,-0.00002066,0.00000103,0.00001612,-0.00002940,-0.00003841,-0
 .00003905,0.00009690,0.00003301,-0.00009233,-0.00056502,0.00000134,-0.
 00012934,-0.00044385,-0.00016410,0.00009941,-0.00001865,0.00013863,0.0
 0013134,-0.00006513,-0.00000219,-0.00005070,0.00004892,-0.00019945,0.0
 0003154,0.00000330,-0.00000278,0.00002016,-0.00016546,0.00004640,-0.00
 004312,-0.00000805,0.00000143,-0.00001463,0.00004644,0.00012216,0.0000
 4526,0.00014152,-0.00006346,-0.00004203,-0.00015054,0.00004355,-0.0000
 9218,0.00000227,-0.00001003,-0.00000656,-0.00000332,0.00000152,0.00000
 508,-0.00003762,0.00001636,-0.00001429,-0.00000535,0.00000164,0.000006
 41,0.00138936,0.00068982,0.00097528,-0.00010181,0.00000268,0.00001813,
 -0.00043729,-0.00011377,-0.00005095,-0.00064811,-0.00039617,-0.0000967
 9,-0.00090145,-0.00031462,-0.00171693,0.00019746,0.00017104,0.00024004
 ,0.00030412,-0.00000401,-0.00031708,-0.00021512,0.00008558,0.00039190,
 0.01310731,0.00304058,0.00867342,0.00015890,-0.00004476,0.00017876,-0.
 00046204,0.00758203,-0.01598060,-0.00028454,0.00067413,-0.00013142,-0.
 01443225,-0.01196807,0.00539241,-0.00018213,-0.00039197,0.00003309,0.0
 1524372,0.00372501,0.01930295,-0.06712897,-0.03142328,-0.01297728,-0.0
 1375641,0.01265581,-0.04893284,0.01032561,0.08703838,-0.22522255,0.017
 72411,0.01801911,-0.01146664,0.05827088,0.01910145,0.04803880,-0.00565
 906,-0.00245022,0.00018024,-0.14509122,0.08828171,-0.44459910,-0.02233
 313,0.00107699,-0.01331999,0.30135336,-0.12601745,0.69622354,-0.000062
 95,-0.00021686,0.00018011,0.00000155,-0.00000509,-0.00000603,-0.000000
 21,-0.00000149,0.00000316,0.00000449,-0.00000770,-0.00001633,0.0001007
 5,-0.00001058,-0.00001896,-0.00001588,0.00011095,-0.00004920,0.0000046
 9,0.00004673,-0.00008892,-0.00001366,0.00000028,-0.00000585,0.00000212
 ,0.00000274,0.00000290,0.00000180,0.00001123,0.00000223,-0.00000206,-0
 .00000121,0.00000135,0.00000155,-0.00000875,-0.00000555,0.00000063,-0.
 00000108,0.00000219,0.00000634,-0.00000117,0.00000281,0.00000293,0.000
 00521,0.00000131,0.00000060,0.00005340,0.00003493,-0.00000648,0.000000
 34,-0.00000318,-0.00000047,-0.00000119,0.00000068,0.00000441,0.0000072
 5,0.00000043,0.00000136,-0.00000014,0.00000151,-0.00017334,0.00006613,
 -0.00003527,0.00002875,-0.00001010,0.00000347,-0.00000394,-0.00001991,
 0.00001762,0.00003585,0.00006975,-0.00008364,0.00000935,-0.00010201,-0
 .00008907,-0.00001780,0.00000294,-0.00003124,0.00000165,-0.00001327,0.
 00001551,-0.00002641,0.00003335,0.00004123,-0.00008008,0.00039845,0.00
 036002,0.00001095,-0.00003212,0.00000172,0.00006615,0.00007302,-0.0001
 9119,0.00003047,-0.00007053,-0.00003732,-0.00035901,0.00029886,-0.0001
 2462,-0.00006178,-0.00003790,0.00001816,-0.00036393,-0.00035362,0.0002
 9890,0.00276841,-0.00302453,-0.00397185,0.00001659,0.00065577,-0.00024
 393,-0.00318761,-0.00355463,-0.00588395,-0.00061660,0.00245057,0.00153
 700,0.00310625,-0.00277414,0.00036959,-0.00016332,-0.00028064,0.000165
 54,-0.00487492,-0.01055049,0.00119483,-0.00106693,0.00405527,0.0021138
 2,-0.64537992,-0.37299191,-0.14732940,0.65026963,-0.00015273,0.0003472
 5,-0.00002403,0.00004373,-0.00000578,0.00001316,0.00000700,0.00000897,
 -0.00001317,-0.00002518,0.00000118,0.00006396,-0.00000843,-0.00017251,
 -0.00007571,0.00002698,-0.00013431,0.00001072,0.00003737,-0.00005208,0
 .00001476,-0.00000989,-0.00009299,-0.00001416,0.00000036,0.00000220,0.
 00000367,-0.00003512,0.00006308,0.00000128,0.00000277,0.00000305,-0.00
 000289,0.00005444,-0.00001860,0.00001805,0.00000145,0.00000268,-0.0000
 0005,-0.00002308,-0.00005334,-0.00001730,-0.00001773,0.00001166,-0.000
 01490,-0.00001611,0.00012586,0.00000215,-0.00000307,-0.00000678,0.0000
 0958,0.00000098,0.00000059,-0.00000467,0.00001940,-0.00000542,0.000009
 24,0.00000290,-0.00000044,-0.00000835,0.00006542,0.00022862,-0.0000692
 8,-0.00001764,-0.00001989,0.00001690,0.00002007,-0.00002430,0.00001957
 ,-0.00001299,-0.00004245,0.00011691,0.00006044,-0.00017345,-0.00005284
 ,0.00006054,0.00004557,0.00003483,-0.00003415,0.00001322,0.00002763,-0
 .00005363,0.00002739,0.00003218,-0.00000913,-0.00070803,-0.00054092,0.
 00001483,0.00004330,0.00003225,0.00005796,-0.00003208,0.00036851,-0.00
 007110,0.00009852,0.00005185,0.00056078,-0.00027449,-0.00020399,0.0000
 6462,0.00001841,-0.00001103,0.00019194,0.00023498,-0.00016784,-0.00246
 367,0.00638977,0.00457204,0.00110677,-0.00061085,0.00065943,-0.0179073
 6,-0.00145804,-0.00534386,0.00294135,-0.00250077,-0.00251688,-0.002988
 94,0.00279634,0.00477096,-0.00137239,-0.00047661,-0.00022318,0.0073046
 3,0.01169192,0.00637493,0.00316259,-0.00499788,-0.00318955,-0.37631581
 ,-0.16392757,-0.06980020,0.38572883,0.15363415,-0.00042050,-0.00026919
 ,0.00027726,0.00005296,-0.00003968,0.00000377,0.00001866,-0.00000578,-
 0.00001105,-0.00000495,0.00004176,0.00011725,0.00020055,-0.00006060,-0
 .00006071,0.00023393,0.00018780,0.00008303,0.00009157,0.00006622,-0.00
 007741,-0.00000393,-0.00005620,-0.00001464,-0.00000086,0.00000420,0.00
 000978,-0.00002174,0.00005987,-0.00000275,0.00000220,0.00000365,0.0000
 0047,0.00005137,-0.00000859,0.00001367,0.00000349,0.00000416,0.0000025
 2,-0.00001417,-0.00004733,-0.00001773,-0.00006499,0.00001092,-0.000017
 33,-0.00001019,0.00010915,0.00001587,-0.00000611,0.00001437,0.00000557
 ,0.00000241,0.00000210,0.00000122,0.00002905,0.00000276,-0.00000476,-0
 .00000311,0.00000154,-0.00000072,0.00027327,-0.00022623,0.00008565,-0.
 00005571,0.00000102,-0.00000663,-0.00000069,0.00002355,-0.00002808,-0.
 00010029,-0.00006548,0.00007855,0.00002871,0.00024426,0.00013070,0.000
 00544,-0.00003679,0.00002448,0.00001816,0.00001797,-0.00002391,0.00005
 913,-0.00006691,-0.00008062,0.00036754,-0.00036967,0.00013248,-0.00006
 590,0.00001372,-0.00001656,0.00007573,0.00022000,-0.00023995,-0.000046
 01,0.00006066,0.00003523,-0.00025699,-0.00030661,-0.00047714,-0.000118
 18,-0.00006903,0.00000840,-0.00077059,-0.00063065,0.00056895,-0.004387
 09,0.00368717,-0.00397972,0.00017582,0.00018517,-0.00104726,0.02605555
 ,0.01555997,0.00834453,-0.00033878,-0.00310076,0.00042933,-0.00013316,
 0.00469826,-0.00228889,0.00144400,0.00073719,-0.00031391,-0.03316633,-
 0.01475129,-0.00049440,0.00256358,-0.00294894,0.00089821,-0.14360733,-
 0.06796796,-0.00408453,0.15184450,0.06507023,0.00202179\\0.07720188,0.
 01370408,0.03577428,-0.15803790,-0.12482022,-0.04327740,0.13240065,0.1
 2521613,0.04046857,-0.00430308,-0.00824788,-0.00551843,0.00800629,-0.0
 5872421,-0.00317363,-0.01714335,-0.00165315,0.00971608,-0.07030131,-0.
 00098639,-0.05717263,0.18285015,-0.04337167,0.00598774,-0.16695952,0.0
 5746726,-0.01462686,0.04166554,0.11755948,0.05597198,-0.13783483,-0.10
 647862,-0.06204222,0.06552958,0.15532235,0.00869359,0.02317601,-0.1794
 7715,-0.00835474,0.00590405,-0.03897226,0.00106391,0.02513188,0.046378
 73,0.01482817,-0.00784699,0.05341623,0.01434249,-0.04334827,0.18671180
 ,0.03108722,0.03887541,-0.17598401,-0.02487039,-0.16269828,0.03611255,
 -0.02048975,0.17500054,-0.05728894,0.01602759,-0.10852084,0.11166111,-
 0.07277210,-0.00598477,-0.12232199,-0.06620234,-0.03944292,-0.01472502
 ,0.13267274,0.12694285,0.04935547,-0.00450575,0.09772215,-0.08154325,-
 0.08810995,0.01068009,0.13359111,-0.02771238,0.03120918,-0.02065518,0.
 13633064,-0.13074650,-0.04237047,-0.02445716,0.12006865,0.11317467,-0.
 05711656,-0.07021260,-0.11141486,0.12334391,0.12694182,0.10364043,-0.0
 4470464,-0.15898465,-0.08238254,-0.03749300,0.08313099,-0.04926059,0.1
 8205442,-0.08525123,0.03073474,-0.15652877,-0.00993515,0.01951881,0.00
 043597,-0.01999242,-0.02757784,-0.00334129,-0.03378845,-0.00135727,-0.
 02918363,-0.11279827,0.02589493,-0.15421640,0.08698475,-0.03023562,0.1
 5492344,0.03234394,-0.00945786,0.03243574,0.02463565,-0.00852181,0.014
 75635,-0.07541712,-0.07302572,0.07369218,0.07752282,0.10539127,-0.1277
 2134,-0.13356758,-0.09687795,0.01631151,0.15919115,0.08288128,0.032672
 88\\\@
 The archive entry for this job was punched.

 Writing a WFNX file to "YEYVEE_Complex_15_Ligand_0_NN_Cu_oriented.wfx"


 There ain't no surer way to find out whether you
 like people or hate them than to travel with them.
                                     -- Mark Twain
 Job cpu time:       0 days  2 hours 14 minutes 26.0 seconds.
 Elapsed time:       0 days  2 hours 14 minutes 54.8 seconds.
 File lengths (MBytes):  RWF=   1340 Int=      0 D2E=      0 Chk=     20 Scr=      8
 Normal termination of Gaussian 16 at Mon Mar  6 12:36:44 2023.
