 Entering Gaussian System, Link 0=g16
 Initial command:
 /ssoft/spack/external/gaussian/g16-C.01/avx2/g16/l1.exe "/scratch/lcmd/2387873/Gau-1723087.inp" -scrdir="/scratch/lcmd/2387873/"
 Entering Link 1 = /ssoft/spack/external/gaussian/g16-C.01/avx2/g16/l1.exe PID=   1723092.
  
 Copyright (c) 1988-2019, Gaussian, Inc.  All Rights Reserved.
  
 This is part of the Gaussian(R) 16 program.  It is based on
 the Gaussian(R) 09 system (copyright 2009, Gaussian, Inc.),
 the Gaussian(R) 03 system (copyright 2003, Gaussian, Inc.),
 the Gaussian(R) 98 system (copyright 1998, Gaussian, Inc.),
 the Gaussian(R) 94 system (copyright 1995, Gaussian, Inc.),
 the Gaussian 92(TM) system (copyright 1992, Gaussian, Inc.),
 the Gaussian 90(TM) system (copyright 1990, Gaussian, Inc.),
 the Gaussian 88(TM) system (copyright 1988, Gaussian, Inc.),
 the Gaussian 86(TM) system (copyright 1986, Carnegie Mellon
 University), and the Gaussian 82(TM) system (copyright 1983,
 Carnegie Mellon University). Gaussian is a federally registered
 trademark of Gaussian, Inc.
  
 This software contains proprietary and confidential information,
 including trade secrets, belonging to Gaussian, Inc.
  
 This software is provided under written license and may be
 used, copied, transmitted, or stored only in accord with that
 written license.
  
 The following legend is applicable only to US Government
 contracts under FAR:
  
                    RESTRICTED RIGHTS LEGEND
  
 Use, reproduction and disclosure by the US Government is
 subject to restrictions as set forth in subparagraphs (a)
 and (c) of the Commercial Computer Software - Restricted
 Rights clause in FAR 52.227-19.
  
 Gaussian, Inc.
 340 Quinnipiac St., Bldg. 40, Wallingford CT 06492
  
  
 ---------------------------------------------------------------
 Warning -- This program may not be used in any manner that
 competes with the business of Gaussian, Inc. or will provide
 assistance to any competitor of Gaussian, Inc.  The licensee
 of this program is prohibited from giving any competitor of
 Gaussian, Inc. access to this program.  By using this program,
 the user acknowledges that Gaussian, Inc. is engaged in the
 business of creating and licensing software in the field of
 computational chemistry and represents and warrants to the
 licensee that it is not a competitor of Gaussian, Inc. and that
 it will not use this program in any manner prohibited above.
 ---------------------------------------------------------------
  

 Cite this work as:
 Gaussian 16, Revision C.01,
 M. J. Frisch, G. W. Trucks, H. B. Schlegel, G. E. Scuseria, 
 M. A. Robb, J. R. Cheeseman, G. Scalmani, V. Barone, 
 G. A. Petersson, H. Nakatsuji, X. Li, M. Caricato, A. V. Marenich, 
 J. Bloino, B. G. Janesko, R. Gomperts, B. Mennucci, H. P. Hratchian, 
 J. V. Ortiz, A. F. Izmaylov, J. L. Sonnenberg, D. Williams-Young, 
 F. Ding, F. Lipparini, F. Egidi, J. Goings, B. Peng, A. Petrone, 
 T. Henderson, D. Ranasinghe, V. G. Zakrzewski, J. Gao, N. Rega, 
 G. Zheng, W. Liang, M. Hada, M. Ehara, K. Toyota, R. Fukuda, 
 J. Hasegawa, M. Ishida, T. Nakajima, Y. Honda, O. Kitao, H. Nakai, 
 T. Vreven, K. Throssell, J. A. Montgomery, Jr., J. E. Peralta, 
 F. Ogliaro, M. J. Bearpark, J. J. Heyd, E. N. Brothers, K. N. Kudin, 
 V. N. Staroverov, T. A. Keith, R. Kobayashi, J. Normand, 
 K. Raghavachari, A. P. Rendell, J. C. Burant, S. S. Iyengar, 
 J. Tomasi, M. Cossi, J. M. Millam, M. Klene, C. Adamo, R. Cammi, 
 J. W. Ochterski, R. L. Martin, K. Morokuma, O. Farkas, 
 J. B. Foresman, and D. J. Fox, Gaussian, Inc., Wallingford CT, 2019.
 
 ******************************************
 Gaussian 16:  ES64L-G16RevC.01  3-Jul-2019
                 6-Mar-2023 
 ******************************************
 %nprocshared=1
 Will use up to    1 processors via shared memory.
 %mem=8000MB
 %chk=YIGWOB_Complex_5_Ligand_2_ON_Cu_oriented.chk
 ----------------------------------------------------------------------
 #p pop=(regular,nbo,savenbos) freq=noraman def2svp empiricaldispersion
 =gd3bj output=wfx pbe1pbe
 ----------------------------------------------------------------------
 1/10=4,30=1,38=1/1,3;
 2/12=2,17=6,18=5,40=1/2;
 3/5=43,7=101,11=2,25=1,30=1,71=2,74=-13,124=41,140=1/1,2,3;
 4//1;
 5/5=2,38=5,98=1/2;
 8/6=4,10=90,11=11/1;
 11/6=1,8=1,9=11,15=111,16=1/1,2,10;
 10/6=1/2;
 6/28=1,40=1,73=1/1,7;
 7/8=1,10=1,25=1/1,2,3,16;
 1/10=4,30=1/3;
 99/6=200/99;
 Leave Link    1 at Mon Mar  6 10:21:49 2023, MaxMem=  1048576000 cpu:               0.0 elap:               0.2
 (Enter /ssoft/spack/external/gaussian/g16-C.01/avx2/g16/l101.exe)
 ----------------------------------------
 YIGWOB_Complex_5_Ligand_2_ON_Cu_oriented
 ----------------------------------------
 Symbolic Z-matrix:
 Charge = -1 Multiplicity = 1
 C                    -1.34279   1.70103   3.03206 
 H                    -1.23299   2.51942   2.60509 
 C                    -2.5927    1.29986   3.4938 
 H                    -3.32451   1.85553   3.35543 
 C                    -2.77455   0.10588   4.14868 
 H                    -3.62134  -0.12765   4.45024 
 C                    -1.71533  -0.74977   4.36193 
 H                    -1.84214  -1.55973   4.79951 
 C                    -0.43338  -0.37445   3.9022 
 C                    -0.2563    0.84636   3.22496 
 C                     1.14562   0.93331   2.89708 
 C                     1.71378  -0.21359   3.37337 
 H                     2.61455  -0.43065   3.29673 
 C                     1.86575   2.04043   2.16683 
 H                     2.75522   2.12772   2.54214 
 H                     1.39683   2.87292   2.33095 
 C                     1.99418   1.84506   0.64818 
 H                     2.55469   2.55817   0.27586 
 C                     2.64926   0.48869   0.36838 
 N                     0.66142   1.87891   0. 
 H                     0.72757   2.18939  -0.84155 
 H                     0.09933   2.41092   0.46028 
 N                     0.77328  -0.99242   3.97632 
 H                     0.9195   -1.75495   4.34562 
 O                     3.86376   0.35163   0.55474 
 O                     1.87603  -0.44925   0. 
 
 ITRead=  0  0  0  0  0  0  0  0  0  0  0  0  0  0  0  0  0  0  0  0
 ITRead=  0  0  0  0  0  0
 MicOpt= -1 -1 -1 -1 -1 -1 -1 -1 -1 -1 -1 -1 -1 -1 -1 -1 -1 -1 -1 -1
 MicOpt= -1 -1 -1 -1 -1 -1
 NAtoms=     26 NQM=       26 NQMF=       0 NMMI=      0 NMMIF=      0
                NMic=       0 NMicF=      0.
                    Isotopes and Nuclear Properties:
 (Nuclear quadrupole moments (NQMom) in fm**2, nuclear magnetic moments (NMagM)
  in nuclear magnetons)

  Atom         1           2           3           4           5           6           7           8           9          10
 IAtWgt=          12           1          12           1          12           1          12           1          12          12
 AtmWgt=  12.0000000   1.0078250  12.0000000   1.0078250  12.0000000   1.0078250  12.0000000   1.0078250  12.0000000  12.0000000
 NucSpn=           0           1           0           1           0           1           0           1           0           0
 AtZEff=  -0.0000000  -0.0000000  -0.0000000  -0.0000000  -0.0000000  -0.0000000  -0.0000000  -0.0000000  -0.0000000  -0.0000000
 NQMom=    0.0000000   0.0000000   0.0000000   0.0000000   0.0000000   0.0000000   0.0000000   0.0000000   0.0000000   0.0000000
 NMagM=    0.0000000   2.7928460   0.0000000   2.7928460   0.0000000   2.7928460   0.0000000   2.7928460   0.0000000   0.0000000
 AtZNuc=   6.0000000   1.0000000   6.0000000   1.0000000   6.0000000   1.0000000   6.0000000   1.0000000   6.0000000   6.0000000

  Atom        11          12          13          14          15          16          17          18          19          20
 IAtWgt=          12          12           1          12           1           1          12           1          12          14
 AtmWgt=  12.0000000  12.0000000   1.0078250  12.0000000   1.0078250   1.0078250  12.0000000   1.0078250  12.0000000  14.0030740
 NucSpn=           0           0           1           0           1           1           0           1           0           2
 AtZEff=  -0.0000000  -0.0000000  -0.0000000  -0.0000000  -0.0000000  -0.0000000  -0.0000000  -0.0000000  -0.0000000  -0.0000000
 NQMom=    0.0000000   0.0000000   0.0000000   0.0000000   0.0000000   0.0000000   0.0000000   0.0000000   0.0000000   2.0440000
 NMagM=    0.0000000   0.0000000   2.7928460   0.0000000   2.7928460   2.7928460   0.0000000   2.7928460   0.0000000   0.4037610
 AtZNuc=   6.0000000   6.0000000   1.0000000   6.0000000   1.0000000   1.0000000   6.0000000   1.0000000   6.0000000   7.0000000

  Atom        21          22          23          24          25          26
 IAtWgt=           1           1          14           1          16          16
 AtmWgt=   1.0078250   1.0078250  14.0030740   1.0078250  15.9949146  15.9949146
 NucSpn=           1           1           2           1           0           0
 AtZEff=  -0.0000000  -0.0000000  -0.0000000  -0.0000000  -0.0000000  -0.0000000
 NQMom=    0.0000000   0.0000000   2.0440000   0.0000000   0.0000000   0.0000000
 NMagM=    2.7928460   2.7928460   0.4037610   2.7928460   0.0000000   0.0000000
 AtZNuc=   1.0000000   1.0000000   7.0000000   1.0000000   8.0000000   8.0000000
 Leave Link  101 at Mon Mar  6 10:21:49 2023, MaxMem=  1048576000 cpu:               0.1 elap:               0.1
 (Enter /ssoft/spack/external/gaussian/g16-C.01/avx2/g16/l103.exe)

 GradGradGradGradGradGradGradGradGradGradGradGradGradGradGradGradGradGrad
 Berny optimization.
 Initialization pass.
 Trust Radius=3.00D-01 FncErr=1.00D-07 GrdErr=1.00D-07 EigMax=2.50D+02 EigMin=1.00D-04
 Number of steps in this run=      2 maximum allowed number of steps=      2.
 GradGradGradGradGradGradGradGradGradGradGradGradGradGradGradGradGradGrad

 Leave Link  103 at Mon Mar  6 10:21:49 2023, MaxMem=  1048576000 cpu:               0.1 elap:               0.1
 (Enter /ssoft/spack/external/gaussian/g16-C.01/avx2/g16/l202.exe)
                          Input orientation:                          
 ---------------------------------------------------------------------
 Center     Atomic      Atomic             Coordinates (Angstroms)
 Number     Number       Type             X           Y           Z
 ---------------------------------------------------------------------
      1          6           0       -1.342786    1.701033    3.032065
      2          1           0       -1.232994    2.519424    2.605088
      3          6           0       -2.592702    1.299863    3.493802
      4          1           0       -3.324510    1.855534    3.355427
      5          6           0       -2.774554    0.105877    4.148679
      6          1           0       -3.621335   -0.127655    4.450237
      7          6           0       -1.715330   -0.749766    4.361933
      8          1           0       -1.842137   -1.559733    4.799513
      9          6           0       -0.433384   -0.374454    3.902196
     10          6           0       -0.256305    0.846362    3.224955
     11          6           0        1.145616    0.933308    2.897084
     12          6           0        1.713779   -0.213590    3.373370
     13          1           0        2.614549   -0.430647    3.296727
     14          6           0        1.865753    2.040428    2.166831
     15          1           0        2.755220    2.127722    2.542142
     16          1           0        1.396832    2.872923    2.330946
     17          6           0        1.994178    1.845055    0.648179
     18          1           0        2.554686    2.558175    0.275860
     19          6           0        2.649263    0.488692    0.368375
     20          7           0        0.661416    1.878910    0.000000
     21          1           0        0.727568    2.189392   -0.841550
     22          1           0        0.099333    2.410923    0.460277
     23          7           0        0.773276   -0.992423    3.976324
     24          1           0        0.919505   -1.754949    4.345617
     25          8           0        3.863762    0.351631    0.554736
     26          8           0        1.876035   -0.449246    0.000000
 ---------------------------------------------------------------------
                    Distance matrix (angstroms):
                    1          2          3          4          5
     1  C    0.000000
     2  H    0.929584   0.000000
     3  C    1.391556   2.031242   0.000000
     4  H    2.013868   2.319094   0.929227   0.000000
     5  C    2.416880   3.253350   1.373877   1.998249   0.000000
     6  H    3.247630   4.014445   2.002663   2.284677   0.928716
     7  C    2.813140   3.742560   2.392574   3.223368   1.378244
     8  H    3.742436   4.671839   3.231953   3.993353   2.016741
     9  C    2.427301   3.270534   2.762748   3.691939   2.402613
    10  C    1.395747   2.034034   2.395139   3.232543   2.782654
    11  C    2.607637   2.873815   3.803348   4.587223   4.197483
    12  C    3.622825   4.091833   4.566269   5.446646   4.565993
    13  H    4.502734   4.897436   5.490808   6.364157   5.482346
    14  C    3.340441   3.166030   4.710320   5.327831   5.403949
    15  H    4.149185   4.007898   5.494659   6.139922   6.103050
    16  H    3.061111   2.667603   4.443325   4.937177   5.325520
    17  C    4.103533   3.833916   5.425336   5.968061   6.165959
    18  H    4.849912   4.446721   6.199524   6.674008   7.029459
    19  C    4.949895   4.919215   6.156661   6.817382   6.622313
    20  N    3.638940   3.284134   4.809494   5.210283   5.671074
    21  H    4.419248   3.978950   5.532696   5.843408   6.442692
    22  H    3.032778   2.527268   4.205208   4.518081   5.213134
    23  N    3.553034   4.270653   4.100879   5.028740   3.717938
    24  H    4.334420   5.092441   4.732131   5.659305   4.140957
    25  O    5.921671   5.905946   7.157037   7.859826   7.552752
    26  O    4.917105   5.026485   5.935962   6.604284   6.256810
                    6          7          8          9         10
     6  H    0.000000
     7  C    2.006907   0.000000
     8  H    2.310496   0.929303   0.000000
     9  C    3.244116   1.412658   2.048084   0.000000
    10  C    3.711261   2.443174   3.283808   1.407269   0.000000
    11  C    5.124622   3.628159   4.331415   2.283360   1.442374
    12  C    5.443388   3.608813   4.060852   2.217170   2.242042
    13  H    6.348909   4.470387   4.836864   3.107998   3.142882
    14  C    6.326347   5.042600   5.800054   3.758880   2.654910
    15  H    7.027660   5.619377   6.311001   4.275258   3.343261
    16  H    6.219073   5.189830   6.019401   4.045242   2.763886
    17  C    7.062664   5.855384   6.598748   4.626868   3.563963
    18  H    7.923530   6.772850   7.533436   5.538880   4.419178
    19  C    7.507454   6.044167   6.633528   4.768189   4.090269
    20  N    6.494064   5.620082   6.413063   4.637173   3.508376
    21  H    7.230814   6.456209   7.244371   5.515818   4.394109
    22  H    6.017269   5.339089   6.193899   4.459699   3.196525
    23  N    4.503890   2.529968   2.799976   1.357722   2.237347
    24  H    4.824755   2.820109   2.805494   1.983103   3.066795
    25  O    8.451706   6.843544   7.364016   5.495285   4.934550
    26  O    7.080191   5.658151   6.171977   4.534991   4.077476
                   11         12         13         14         15
    11  C    0.000000
    12  C    1.365662   0.000000
    13  H    2.043979   0.929718   0.000000
    14  C    1.509166   2.561138   2.818434   0.000000
    15  H    2.035542   2.693934   2.671037   0.969345   0.000000
    16  H    2.036107   3.273174   3.650910   0.969468   1.563696
    17  C    2.570781   3.426851   3.546616   1.536544   2.060626
    18  H    3.390647   4.240799   4.249974   2.078091   2.315500
    19  C    2.975399   3.224643   3.069468   2.501242   2.724501
    20  N    3.085727   4.106781   4.474058   2.484285   3.302788
    21  H    3.966093   4.951008   5.248870   3.219940   3.945193
    22  H    3.035800   4.240355   4.737750   2.483915   3.386458
    23  N    2.238713   1.361866   2.041502   3.696749   3.964881
    24  H    3.062042   1.987944   2.393140   4.477430   4.658058
    25  O    3.635005   3.589791   3.113038   3.072934   2.886719
    26  O    3.292121   3.385482   3.378485   3.300567   3.725080
                   16         17         18         19         20
    16  H    0.000000
    17  C    2.060349   0.000000
    18  H    2.379720   0.980474   0.000000
    19  C    3.332390   1.532040   2.073707   0.000000
    20  N    2.638599   1.482409   2.030263   2.453557   0.000000
    21  H    3.313587   1.985488   2.173238   2.837113   0.899434
    22  H    2.323004   1.986442   2.466667   3.194613   0.900461
    23  N    4.246998   4.540752   5.428959   4.327854   4.905937
    24  H    5.069906   5.271242   6.151404   4.883077   5.670620
    25  O    3.949377   2.394659   2.580754   1.236336   3.591008
    26  O    4.086533   2.387030   3.095359   1.270161   2.625949
                   21         22         23         24         25
    21  H    0.000000
    22  H    1.462364   0.000000
    23  N    5.773902   4.939589   0.000000
    24  H    6.519307   5.755261   0.859771   0.000000
    25  O    3.893931   4.291915   4.802588   5.241861   0.000000
    26  O    2.998265   3.398395   4.162003   4.637261   2.213639
                   26
    26  O    0.000000
 Stoichiometry    C11H11N2O2(1-)
 Framework group  C1[X(C11H11N2O2)]
 Deg. of freedom    72
 Full point group                 C1      NOp   1
 Largest Abelian subgroup         C1      NOp   1
 Largest concise Abelian subgroup C1      NOp   1
                         Standard orientation:                         
 ---------------------------------------------------------------------
 Center     Atomic      Atomic             Coordinates (Angstroms)
 Number     Number       Type             X           Y           Z
 ---------------------------------------------------------------------
      1          6           0        1.773773    1.394093   -0.392224
      2          1           0        1.328426    2.149365   -0.701022
      3          6           0        3.078695    1.480541    0.083311
      4          1           0        3.497361    2.309848    0.104063
      5          6           0        3.764997    0.374265    0.522265
      6          1           0        4.637588    0.466569    0.826531
      7          6           0        3.173076   -0.870389    0.517626
      8          1           0        3.637210   -1.616123    0.821048
      9          6           0        1.847509   -0.992407    0.044775
     10          6           0        1.147964    0.146510   -0.395576
     11          6           0       -0.155629   -0.309100   -0.812116
     12          6           0       -0.168768   -1.657225   -0.594355
     13          1           0       -0.891501   -2.215522   -0.768527
     14          6           0       -1.297119    0.509179   -1.364385
     15          1           0       -1.768263   -0.025555   -2.021432
     16          1           0       -0.929195    1.279164   -1.824412
     17          6           0       -2.310535    1.003839   -0.320705
     18          1           0       -3.060552    1.439256   -0.778107
     19          6           0       -2.832869   -0.192727    0.480882
     20          7           0       -1.676935    1.967582    0.610577
     21          1           0       -2.284030    2.556491    0.916521
     22          1           0       -1.018401    2.421160    0.196538
     23          7           0        1.026989   -2.066117   -0.086761
     24          1           0        1.230905   -2.875777    0.118365
     25          8           0       -3.647036   -0.963306   -0.040527
     26          8           0       -2.347525   -0.351519    1.643868
 ---------------------------------------------------------------------
 Rotational constants (GHZ):           1.2514439           0.4158132           0.3604796
 Leave Link  202 at Mon Mar  6 10:21:49 2023, MaxMem=  1048576000 cpu:               0.0 elap:               0.0
 (Enter /ssoft/spack/external/gaussian/g16-C.01/avx2/g16/l301.exe)
 Standard basis: def2SVP (5D, 7F)
 Ernie: Thresh=  0.10000D-02 Tol=  0.10000D-05 Strict=F.
 There are   280 symmetry adapted cartesian basis functions of A   symmetry.
 There are   265 symmetry adapted basis functions of A   symmetry.
   265 basis functions,   452 primitive gaussians,   280 cartesian basis functions
    54 alpha electrons       54 beta electrons
       nuclear repulsion energy       971.8196789425 Hartrees.
 IExCor= 1009 DFT=T Ex+Corr=PBE1PBE ExCW=0 ScaHFX=  0.250000
 ScaDFX=  0.750000  0.750000  1.000000  1.000000 ScalE2=  1.000000  1.000000
 IRadAn=      5 IRanWt=     -1 IRanGd=            0 ICorTp=0 IEmpDi=141
 NAtoms=   26 NActive=   26 NUniq=   26 SFac= 1.00D+00 NAtFMM=   60 NAOKFM=F Big=F
 Integral buffers will be    131072 words long.
 Raffenetti 2 integral format.
 Two-electron integral symmetry is turned on.
 R6Disp:  Grimme-D3(BJ) Dispersion energy=       -0.0288653836 Hartrees.
 Nuclear repulsion after empirical dispersion term =      971.7908135589 Hartrees.
 Leave Link  301 at Mon Mar  6 10:21:49 2023, MaxMem=  1048576000 cpu:               0.1 elap:               0.1
 (Enter /ssoft/spack/external/gaussian/g16-C.01/avx2/g16/l302.exe)
 NPDir=0 NMtPBC=     1 NCelOv=     1 NCel=       1 NClECP=     1 NCelD=      1
         NCelK=      1 NCelE2=     1 NClLst=     1 CellRange=     0.0.
 One-electron integrals computed using PRISM.
 One-electron integral symmetry used in STVInt
   1 Symmetry operations used in ECPInt.
 ECPInt:  NShTT=    7626 NPrTT=   27958 LenC2=    7313 LenP2D=   19839.
 LDataN:  DoStor=T MaxTD1= 4 Len=   56
 NBasis=   265 RedAO= T EigKep=  2.61D-04  NBF=   265
 NBsUse=   265 1.00D-06 EigRej= -1.00D+00 NBFU=   265
 Precomputing XC quadrature grid using
 IXCGrd= 4 IRadAn=           5 IRanWt=          -1 IRanGd=           0 AccXCQ= 0.00D+00.
 Generated NRdTot=       0 NPtTot=           0 NUsed=           0 NTot=          32
 NSgBfM=   279   279   279   279   279 MxSgAt=    26 MxSgA2=    26.
 Leave Link  302 at Mon Mar  6 10:21:50 2023, MaxMem=  1048576000 cpu:               0.6 elap:               0.6
 (Enter /ssoft/spack/external/gaussian/g16-C.01/avx2/g16/l303.exe)
 DipDrv:  MaxL=1.
 Leave Link  303 at Mon Mar  6 10:21:50 2023, MaxMem=  1048576000 cpu:               0.0 elap:               0.1
 (Enter /ssoft/spack/external/gaussian/g16-C.01/avx2/g16/l401.exe)
 ExpMin= 1.22D-01 ExpMax= 2.27D+03 ExpMxC= 3.41D+02 IAcc=3 IRadAn=         5 AccDes= 0.00D+00
 Harris functional with IExCor= 1009 and IRadAn=       5 diagonalized for initial guess.
 HarFok:  IExCor= 1009 AccDes= 0.00D+00 IRadAn=         5 IDoV= 1 UseB2=F ITyADJ=14
 ICtDFT=  3500011 ScaDFX=  1.000000  1.000000  1.000000  1.000000
 FoFCou: FMM=F IPFlag=           0 FMFlag=      100000 FMFlg1=           0
         NFxFlg=           0 DoJE=T BraDBF=F KetDBF=T FulRan=T
         wScrn=  0.000000 ICntrl=       500 IOpCl=  0 I1Cent=   200000004 NGrid=           0
         NMat0=    1 NMatS0=      1 NMatT0=    0 NMatD0=    1 NMtDS0=    0 NMtDT0=    0
 Petite list used in FoFCou.
 Harris En= -684.780775849879    
 JPrj=0 DoOrth=F DoCkMO=F.
 Leave Link  401 at Mon Mar  6 10:21:56 2023, MaxMem=  1048576000 cpu:               5.9 elap:               5.9
 (Enter /ssoft/spack/external/gaussian/g16-C.01/avx2/g16/l502.exe)
 Keep R1 ints in memory in canonical form, NReq=632218916.
 FoFCou: FMM=F IPFlag=           0 FMFlag=           0 FMFlg1=           0
         NFxFlg=           0 DoJE=F BraDBF=F KetDBF=F FulRan=T
         wScrn=  0.000000 ICntrl=       600 IOpCl=  0 I1Cent=           0 NGrid=           0
         NMat0=    1 NMatS0=  35245 NMatT0=    0 NMatD0=    1 NMtDS0=    0 NMtDT0=    0
 Symmetry not used in FoFCou.
 Two-electron integral symmetry not used.
 Closed shell SCF:
 Using DIIS extrapolation, IDIIS=  1040.
 NGot=  1048576000 LenX=   427291247 LenY=   427212406
 Requested convergence on RMS density matrix=1.00D-08 within 128 cycles.
 Requested convergence on MAX density matrix=1.00D-06.
 Requested convergence on             energy=1.00D-06.
 No special actions if energy rises.
 Integral accuracy reduced to 1.0D-05 until final iterations.

 Cycle   1  Pass 0  IDiag  1:
 E= -683.886893554389    
 DIIS: error= 4.48D-02 at cycle   1 NSaved=   1.
 NSaved= 1 IEnMin= 1 EnMin= -683.886893554389     IErMin= 1 ErrMin= 4.48D-02
 ErrMax= 4.48D-02  0.00D+00 EMaxC= 1.00D-01 BMatC= 4.41D-01 BMatP= 4.41D-01
 IDIUse=3 WtCom= 5.52D-01 WtEn= 4.48D-01
 Coeff-Com:  0.100D+01
 Coeff-En:   0.100D+01
 Coeff:      0.100D+01
 Gap=     0.210 Goal=   None    Shift=    0.000
 GapD=    0.210 DampG=1.000 DampE=0.500 DampFc=0.5000 IDamp=-1.
 Damping current iteration by 5.00D-01
 RMSDP=3.26D-02 MaxDP=2.69D+00              OVMax= 9.54D-01

 Cycle   2  Pass 0  IDiag  1:
 E= -683.690627978094     Delta-E=        0.196265576295 Rises=F Damp=T
 DIIS: error= 2.24D-02 at cycle   2 NSaved=   2.
 NSaved= 2 IEnMin= 1 EnMin= -683.886893554389     IErMin= 2 ErrMin= 2.24D-02
 ErrMax= 2.24D-02  0.00D+00 EMaxC= 1.00D-01 BMatC= 1.43D-01 BMatP= 4.41D-01
 IDIUse=3 WtCom= 7.76D-01 WtEn= 2.24D-01
 Coeff-Com:  0.301D+00 0.699D+00
 Coeff-En:   0.658D+00 0.342D+00
 Coeff:      0.381D+00 0.619D+00
 Gap=    -0.305 Goal=   None    Shift=    0.000
 RMSDP=1.63D-02 MaxDP=1.33D+00 DE= 1.96D-01 OVMax= 7.39D-01

 Cycle   3  Pass 0  IDiag  1:
 E= -684.157042459214     Delta-E=       -0.466414481121 Rises=F Damp=F
 DIIS: error= 2.59D-02 at cycle   3 NSaved=   3.
 NSaved= 3 IEnMin= 3 EnMin= -684.157042459214     IErMin= 2 ErrMin= 2.24D-02
 ErrMax= 2.59D-02  0.00D+00 EMaxC= 1.00D-01 BMatC= 1.69D-01 BMatP= 1.43D-01
 IDIUse=2 WtCom= 0.00D+00 WtEn= 1.00D+00
 Coeff-En:   0.000D+00 0.792D-01 0.921D+00
 Coeff:      0.000D+00 0.792D-01 0.921D+00
 Gap=     0.211 Goal=   None    Shift=    0.000
 RMSDP=7.49D-03 MaxDP=3.65D-01 DE=-4.66D-01 OVMax= 9.27D-01

 Cycle   4  Pass 0  IDiag  1:
 E= -682.073052542962     Delta-E=        2.083989916252 Rises=F Damp=F
 DIIS: error= 9.31D-02 at cycle   4 NSaved=   4.
 NSaved= 4 IEnMin= 3 EnMin= -684.157042459214     IErMin= 2 ErrMin= 2.24D-02
 ErrMax= 9.31D-02  0.00D+00 EMaxC= 1.00D-01 BMatC= 1.38D+00 BMatP= 1.43D-01
 IDIUse=2 WtCom= 0.00D+00 WtEn= 1.00D+00
 Coeff-En:   0.000D+00 0.000D+00 0.879D+00 0.121D+00
 Coeff:      0.000D+00 0.000D+00 0.879D+00 0.121D+00
 Gap=     0.052 Goal=   None    Shift=    0.000
 RMSDP=6.54D-03 MaxDP=2.57D-01 DE= 2.08D+00 OVMax= 9.95D-01

 Cycle   5  Pass 0  IDiag  1:
 E= -684.220326778953     Delta-E=       -2.147274235991 Rises=F Damp=F
 DIIS: error= 2.10D-02 at cycle   5 NSaved=   5.
 NSaved= 5 IEnMin= 5 EnMin= -684.220326778953     IErMin= 5 ErrMin= 2.10D-02
 ErrMax= 2.10D-02  0.00D+00 EMaxC= 1.00D-01 BMatC= 1.13D-01 BMatP= 1.43D-01
 IDIUse=3 WtCom= 7.90D-01 WtEn= 2.10D-01
 Coeff-Com:  0.453D-01 0.180D+00 0.423D+00 0.211D-01 0.330D+00
 Coeff-En:   0.000D+00 0.000D+00 0.391D+00 0.000D+00 0.609D+00
 Coeff:      0.358D-01 0.142D+00 0.417D+00 0.167D-01 0.388D+00
 Gap=     0.124 Goal=   None    Shift=    0.000
 RMSDP=2.04D-03 MaxDP=5.98D-02 DE=-2.15D+00 OVMax= 1.35D-01

 Cycle   6  Pass 0  IDiag  1:
 E= -684.307612776220     Delta-E=       -0.087285997268 Rises=F Damp=F
 DIIS: error= 5.35D-03 at cycle   6 NSaved=   6.
 NSaved= 6 IEnMin= 6 EnMin= -684.307612776220     IErMin= 6 ErrMin= 5.35D-03
 ErrMax= 5.35D-03  0.00D+00 EMaxC= 1.00D-01 BMatC= 1.10D-02 BMatP= 1.13D-01
 IDIUse=3 WtCom= 9.46D-01 WtEn= 5.35D-02
 Coeff-Com: -0.201D-01 0.689D-01 0.103D+00-0.561D-02 0.245D+00 0.608D+00
 Coeff-En:   0.000D+00 0.000D+00 0.000D+00 0.000D+00 0.105D+00 0.895D+00
 Coeff:     -0.190D-01 0.652D-01 0.976D-01-0.531D-02 0.238D+00 0.624D+00
 Gap=     0.110 Goal=   None    Shift=    0.000
 RMSDP=6.11D-04 MaxDP=1.50D-02 DE=-8.73D-02 OVMax= 5.27D-02

 Cycle   7  Pass 0  IDiag  1:
 E= -684.318719490420     Delta-E=       -0.011106714199 Rises=F Damp=F
 DIIS: error= 1.09D-03 at cycle   7 NSaved=   7.
 NSaved= 7 IEnMin= 7 EnMin= -684.318719490420     IErMin= 7 ErrMin= 1.09D-03
 ErrMax= 1.09D-03  0.00D+00 EMaxC= 1.00D-01 BMatC= 6.19D-04 BMatP= 1.10D-02
 IDIUse=3 WtCom= 9.89D-01 WtEn= 1.09D-02
 Coeff-Com: -0.174D-01 0.262D-01-0.202D-02-0.310D-02 0.755D-01 0.324D+00
 Coeff-Com:  0.597D+00
 Coeff-En:   0.000D+00 0.000D+00 0.000D+00 0.000D+00 0.000D+00 0.000D+00
 Coeff-En:   0.100D+01
 Coeff:     -0.173D-01 0.259D-01-0.200D-02-0.307D-02 0.747D-01 0.321D+00
 Coeff:      0.601D+00
 Gap=     0.107 Goal=   None    Shift=    0.000
 RMSDP=1.64D-04 MaxDP=7.69D-03 DE=-1.11D-02 OVMax= 1.04D-02

 Cycle   8  Pass 0  IDiag  1:
 E= -684.319266969843     Delta-E=       -0.000547479423 Rises=F Damp=F
 DIIS: error= 3.75D-04 at cycle   8 NSaved=   8.
 NSaved= 8 IEnMin= 8 EnMin= -684.319266969843     IErMin= 8 ErrMin= 3.75D-04
 ErrMax= 3.75D-04  0.00D+00 EMaxC= 1.00D-01 BMatC= 6.38D-05 BMatP= 6.19D-04
 IDIUse=3 WtCom= 9.96D-01 WtEn= 3.75D-03
 Coeff-Com: -0.664D-02 0.626D-02-0.180D-01-0.491D-03-0.401D-02 0.599D-01
 Coeff-Com:  0.290D+00 0.673D+00
 Coeff-En:   0.000D+00 0.000D+00 0.000D+00 0.000D+00 0.000D+00 0.000D+00
 Coeff-En:   0.000D+00 0.100D+01
 Coeff:     -0.661D-02 0.624D-02-0.179D-01-0.489D-03-0.400D-02 0.597D-01
 Coeff:      0.289D+00 0.674D+00
 Gap=     0.106 Goal=   None    Shift=    0.000
 RMSDP=6.50D-05 MaxDP=2.42D-03 DE=-5.47D-04 OVMax= 4.54D-03

 Cycle   9  Pass 0  IDiag  1:
 E= -684.319332725166     Delta-E=       -0.000065755323 Rises=F Damp=F
 DIIS: error= 1.86D-04 at cycle   9 NSaved=   9.
 NSaved= 9 IEnMin= 9 EnMin= -684.319332725166     IErMin= 9 ErrMin= 1.86D-04
 ErrMax= 1.86D-04  0.00D+00 EMaxC= 1.00D-01 BMatC= 1.12D-05 BMatP= 6.38D-05
 IDIUse=3 WtCom= 9.98D-01 WtEn= 1.86D-03
 Coeff-Com: -0.269D-02 0.179D-02-0.974D-02 0.333D-03-0.781D-02 0.901D-02
 Coeff-Com:  0.851D-01 0.342D+00 0.582D+00
 Coeff-En:   0.000D+00 0.000D+00 0.000D+00 0.000D+00 0.000D+00 0.000D+00
 Coeff-En:   0.000D+00 0.000D+00 0.100D+01
 Coeff:     -0.269D-02 0.179D-02-0.972D-02 0.332D-03-0.779D-02 0.900D-02
 Coeff:      0.850D-01 0.341D+00 0.583D+00
 Gap=     0.106 Goal=   None    Shift=    0.000
 RMSDP=1.88D-05 MaxDP=4.52D-04 DE=-6.58D-05 OVMax= 9.62D-04

 Cycle  10  Pass 0  IDiag  1:
 E= -684.319341558114     Delta-E=       -0.000008832949 Rises=F Damp=F
 DIIS: error= 8.11D-05 at cycle  10 NSaved=  10.
 NSaved=10 IEnMin=10 EnMin= -684.319341558114     IErMin=10 ErrMin= 8.11D-05
 ErrMax= 8.11D-05  0.00D+00 EMaxC= 1.00D-01 BMatC= 1.53D-06 BMatP= 1.12D-05
 IDIUse=1 WtCom= 1.00D+00 WtEn= 0.00D+00
 Coeff-Com: -0.659D-03 0.735D-03-0.273D-02 0.150D-03-0.222D-02-0.294D-03
 Coeff-Com: -0.408D-02 0.694D-01 0.284D+00 0.656D+00
 Coeff:     -0.659D-03 0.735D-03-0.273D-02 0.150D-03-0.222D-02-0.294D-03
 Coeff:     -0.408D-02 0.694D-01 0.284D+00 0.656D+00
 Gap=     0.106 Goal=   None    Shift=    0.000
 RMSDP=8.49D-06 MaxDP=3.25D-04 DE=-8.83D-06 OVMax= 7.09D-04

 Initial convergence to 1.0D-05 achieved.  Increase integral accuracy.
 Cycle  11  Pass 1  IDiag  1:
 E= -684.319367833672     Delta-E=       -0.000026275558 Rises=F Damp=F
 DIIS: error= 2.53D-05 at cycle   1 NSaved=   1.
 NSaved= 1 IEnMin= 1 EnMin= -684.319367833672     IErMin= 1 ErrMin= 2.53D-05
 ErrMax= 2.53D-05  0.00D+00 EMaxC= 1.00D-01 BMatC= 2.49D-07 BMatP= 2.49D-07
 IDIUse=1 WtCom= 1.00D+00 WtEn= 0.00D+00
 Coeff-Com:  0.100D+01
 Coeff:      0.100D+01
 Gap=     0.105 Goal=   None    Shift=    0.000
 RMSDP=8.49D-06 MaxDP=3.25D-04 DE=-2.63D-05 OVMax= 4.10D-04

 Cycle  12  Pass 1  IDiag  1:
 E= -684.319367437689     Delta-E=        0.000000395983 Rises=F Damp=F
 DIIS: error= 5.15D-05 at cycle   2 NSaved=   2.
 NSaved= 2 IEnMin= 1 EnMin= -684.319367833672     IErMin= 1 ErrMin= 2.53D-05
 ErrMax= 5.15D-05  0.00D+00 EMaxC= 1.00D-01 BMatC= 7.18D-07 BMatP= 2.49D-07
 IDIUse=1 WtCom= 1.00D+00 WtEn= 0.00D+00
 Coeff-Com:  0.635D+00 0.365D+00
 Coeff:      0.635D+00 0.365D+00
 Gap=     0.105 Goal=   None    Shift=    0.000
 RMSDP=4.75D-06 MaxDP=1.54D-04 DE= 3.96D-07 OVMax= 2.65D-04

 Cycle  13  Pass 1  IDiag  1:
 E= -684.319368110110     Delta-E=       -0.000000672420 Rises=F Damp=F
 DIIS: error= 9.77D-06 at cycle   3 NSaved=   3.
 NSaved= 3 IEnMin= 3 EnMin= -684.319368110110     IErMin= 3 ErrMin= 9.77D-06
 ErrMax= 9.77D-06  0.00D+00 EMaxC= 1.00D-01 BMatC= 1.76D-08 BMatP= 2.49D-07
 IDIUse=1 WtCom= 1.00D+00 WtEn= 0.00D+00
 Coeff-Com:  0.294D+00 0.190D+00 0.516D+00
 Coeff:      0.294D+00 0.190D+00 0.516D+00
 Gap=     0.105 Goal=   None    Shift=    0.000
 RMSDP=8.89D-07 MaxDP=4.58D-05 DE=-6.72D-07 OVMax= 4.99D-05

 Cycle  14  Pass 1  IDiag  1:
 E= -684.319368123256     Delta-E=       -0.000000013147 Rises=F Damp=F
 DIIS: error= 3.70D-06 at cycle   4 NSaved=   4.
 NSaved= 4 IEnMin= 4 EnMin= -684.319368123256     IErMin= 4 ErrMin= 3.70D-06
 ErrMax= 3.70D-06  0.00D+00 EMaxC= 1.00D-01 BMatC= 2.25D-09 BMatP= 1.76D-08
 IDIUse=1 WtCom= 1.00D+00 WtEn= 0.00D+00
 Coeff-Com:  0.794D-01 0.485D-01 0.277D+00 0.595D+00
 Coeff:      0.794D-01 0.485D-01 0.277D+00 0.595D+00
 Gap=     0.105 Goal=   None    Shift=    0.000
 RMSDP=3.30D-07 MaxDP=8.39D-06 DE=-1.31D-08 OVMax= 1.64D-05

 Cycle  15  Pass 1  IDiag  1:
 E= -684.319368124682     Delta-E=       -0.000000001425 Rises=F Damp=F
 DIIS: error= 1.52D-06 at cycle   5 NSaved=   5.
 NSaved= 5 IEnMin= 5 EnMin= -684.319368124682     IErMin= 5 ErrMin= 1.52D-06
 ErrMax= 1.52D-06  0.00D+00 EMaxC= 1.00D-01 BMatC= 4.63D-10 BMatP= 2.25D-09
 IDIUse=1 WtCom= 1.00D+00 WtEn= 0.00D+00
 Coeff-Com: -0.539D-03-0.432D-02 0.843D-01 0.364D+00 0.557D+00
 Coeff:     -0.539D-03-0.432D-02 0.843D-01 0.364D+00 0.557D+00
 Gap=     0.105 Goal=   None    Shift=    0.000
 RMSDP=1.23D-07 MaxDP=3.23D-06 DE=-1.43D-09 OVMax= 1.14D-05

 Cycle  16  Pass 1  IDiag  1:
 E= -684.319368125157     Delta-E=       -0.000000000475 Rises=F Damp=F
 DIIS: error= 1.60D-07 at cycle   6 NSaved=   6.
 NSaved= 6 IEnMin= 6 EnMin= -684.319368125157     IErMin= 6 ErrMin= 1.60D-07
 ErrMax= 1.60D-07  0.00D+00 EMaxC= 1.00D-01 BMatC= 1.68D-11 BMatP= 4.63D-10
 IDIUse=1 WtCom= 1.00D+00 WtEn= 0.00D+00
 Coeff-Com: -0.555D-02-0.529D-02 0.172D-01 0.109D+00 0.244D+00 0.641D+00
 Coeff:     -0.555D-02-0.529D-02 0.172D-01 0.109D+00 0.244D+00 0.641D+00
 Gap=     0.105 Goal=   None    Shift=    0.000
 RMSDP=2.93D-08 MaxDP=7.75D-07 DE=-4.75D-10 OVMax= 1.59D-06

 Cycle  17  Pass 1  IDiag  1:
 E= -684.319368125170     Delta-E=       -0.000000000013 Rises=F Damp=F
 DIIS: error= 8.38D-08 at cycle   7 NSaved=   7.
 NSaved= 7 IEnMin= 7 EnMin= -684.319368125170     IErMin= 7 ErrMin= 8.38D-08
 ErrMax= 8.38D-08  0.00D+00 EMaxC= 1.00D-01 BMatC= 2.21D-12 BMatP= 1.68D-11
 IDIUse=1 WtCom= 1.00D+00 WtEn= 0.00D+00
 Coeff-Com: -0.267D-02-0.229D-02 0.232D-02 0.244D-01 0.756D-01 0.317D+00
 Coeff-Com:  0.586D+00
 Coeff:     -0.267D-02-0.229D-02 0.232D-02 0.244D-01 0.756D-01 0.317D+00
 Coeff:      0.586D+00
 Gap=     0.105 Goal=   None    Shift=    0.000
 RMSDP=9.48D-09 MaxDP=3.91D-07 DE=-1.27D-11 OVMax= 7.35D-07

 SCF Done:  E(RPBE1PBE) =  -684.319368125     A.U. after   17 cycles
            NFock= 17  Conv=0.95D-08     -V/T= 2.0048
 KE= 6.810630292407D+02 PE=-3.557080297055D+03 EE= 1.219907086131D+03
 Leave Link  502 at Mon Mar  6 10:24:01 2023, MaxMem=  1048576000 cpu:             124.7 elap:             125.7
 (Enter /ssoft/spack/external/gaussian/g16-C.01/avx2/g16/l801.exe)
 DoSCS=F DFT=T ScalE2(SS,OS)=  1.000000  1.000000
 Range of M.O.s used for correlation:     1   265
 NBasis=   265 NAE=    54 NBE=    54 NFC=     0 NFV=     0
 NROrb=    265 NOA=    54 NOB=    54 NVA=   211 NVB=   211

 **** Warning!!: The largest alpha MO coefficient is  0.12682059D+02

 Leave Link  801 at Mon Mar  6 10:24:01 2023, MaxMem=  1048576000 cpu:               0.0 elap:               0.0
 (Enter /ssoft/spack/external/gaussian/g16-C.01/avx2/g16/l1101.exe)
 Using compressed storage, NAtomX=    26.
 Will process     27 centers per pass.
   1 Symmetry operations used in ECPInt.
 ECPInt:  NShTT=    7626 NPrTT=   27958 LenC2=    7313 LenP2D=   19839.
 LDataN:  DoStor=T MaxTD1= 5 Len=  102
 R6Disp: Adding Grimme-D3(BJ) dispersion energy 1st derivatives to the gradient.
 Leave Link 1101 at Mon Mar  6 10:24:02 2023, MaxMem=  1048576000 cpu:               0.3 elap:               0.3
 (Enter /ssoft/spack/external/gaussian/g16-C.01/avx2/g16/l1102.exe)
 Symmetrizing basis deriv contribution to polar:
 IMax=3 JMax=2 DiffMx= 0.00D+00
 Leave Link 1102 at Mon Mar  6 10:24:02 2023, MaxMem=  1048576000 cpu:               0.1 elap:               0.1
 (Enter /ssoft/spack/external/gaussian/g16-C.01/avx2/g16/l1110.exe)
 Forming Gx(P) for the SCF density, NAtomX=    26.
 Integral derivatives from FoFJK, PRISM(SPDF).
 Do as many integral derivatives as possible in FoFJK.
 G2DrvN: MDV=    1048573186.
 G2DrvN: will do    27 centers at a time, making    1 passes.
 Calling FoFCou, ICntrl=  3107 FMM=F I1Cent=   0 AccDes= 0.00D+00.
 FoFJK:  IHMeth= 1 ICntrl=    3107 DoSepK=F KAlg= 0 I1Cent=           0 FoldK=F
 IRaf=         0 NMat=       1 IRICut=       1 DoRegI=T DoRafI=F ISym2E= 0 IDoP0=0 IntGTp=1.
 FoFCou: FMM=F IPFlag=           0 FMFlag=      100000 FMFlg1=           0
         NFxFlg=           0 DoJE=F BraDBF=F KetDBF=F FulRan=T
         wScrn=  0.000000 ICntrl=      3107 IOpCl=  0 I1Cent=           0 NGrid=           0
         NMat0=    1 NMatS0=      1 NMatT0=    0 NMatD0=    1 NMtDS0=    0 NMtDT0=    0
 Symmetry not used in FoFCou.
 End of G2Drv F.D. properties file   721 does not exist.
 End of G2Drv F.D. properties file   722 does not exist.
 End of G2Drv F.D. properties file   788 does not exist.
 Leave Link 1110 at Mon Mar  6 10:30:30 2023, MaxMem=  1048576000 cpu:             386.7 elap:             388.6
 (Enter /ssoft/spack/external/gaussian/g16-C.01/avx2/g16/l1002.exe)
 Minotr:  Closed shell wavefunction.
          IDoAtm=11111111111111111111111111
          Direct CPHF calculation.
          Differentiating once with respect to electric field.
                with respect to dipole field.
          Differentiating once with respect to nuclear coordinates.
          Requested convergence is 1.0D-08 RMS, and 1.0D-07 maximum.
          Secondary convergence is 1.0D-12 RMS, and 1.0D-12 maximum.
          NewPWx=T KeepS1=F KeepF1=F KeepIn=T MapXYZ=F SortEE=F KeepMc=T.
         7805 words used for storage of precomputed grid.
 Keep R1 ints in memory in canonical form, NReq=632229904.
 FoFCou: FMM=F IPFlag=           0 FMFlag=           0 FMFlg1=           0
         NFxFlg=           0 DoJE=F BraDBF=F KetDBF=F FulRan=T
         wScrn=  0.000000 ICntrl=       600 IOpCl=  0 I1Cent=           0 NGrid=           0
         NMat0=    1 NMatS0=  35245 NMatT0=    0 NMatD0=    1 NMtDS0=    0 NMtDT0=    0
 Symmetry not used in FoFCou.
 Two-electron integral symmetry not used.
          MDV=    1048576000 using IRadAn=       1.
          Solving linear equations simultaneously, MaxMat=       0.
          There are    81 degrees of freedom in the 1st order CPHF.  IDoFFX=6 NUNeed=     3.
     78 vectors produced by pass  0 Test12= 1.41D-14 1.23D-09 XBig12= 1.56D+02 7.32D+00.
 AX will form    78 AO Fock derivatives at one time.
     78 vectors produced by pass  1 Test12= 1.41D-14 1.23D-09 XBig12= 3.51D+01 9.99D-01.
     78 vectors produced by pass  2 Test12= 1.41D-14 1.23D-09 XBig12= 2.63D-01 6.15D-02.
     78 vectors produced by pass  3 Test12= 1.41D-14 1.23D-09 XBig12= 1.23D-03 4.20D-03.
     78 vectors produced by pass  4 Test12= 1.41D-14 1.23D-09 XBig12= 2.73D-06 1.94D-04.
     78 vectors produced by pass  5 Test12= 1.41D-14 1.23D-09 XBig12= 3.98D-09 5.33D-06.
     19 vectors produced by pass  6 Test12= 1.41D-14 1.23D-09 XBig12= 5.04D-12 1.96D-07.
      3 vectors produced by pass  7 Test12= 1.41D-14 1.23D-09 XBig12= 5.30D-15 8.78D-09.
 InvSVY:  IOpt=1 It=  1 EMax= 7.11D-15
 Solved reduced A of dimension   490 with    81 vectors.
 FullF1:  Do perturbations      1 to       3.
 Isotropic polarizability for W=    0.000000      121.55 Bohr**3.
 End of Minotr F.D. properties file   721 does not exist.
 End of Minotr F.D. properties file   722 does not exist.
 End of Minotr F.D. properties file   788 does not exist.
 Leave Link 1002 at Mon Mar  6 10:36:50 2023, MaxMem=  1048576000 cpu:             377.5 elap:             379.9
 (Enter /ssoft/spack/external/gaussian/g16-C.01/avx2/g16/l601.exe)
 Copying SCF densities to generalized density rwf, IOpCl= 0 IROHF=0.

 **********************************************************************

            Population analysis using the SCF Density.

 **********************************************************************

 Orbital symmetries:
       Occupied  (A) (A) (A) (A) (A) (A) (A) (A) (A) (A) (A) (A)
                 (A) (A) (A) (A) (A) (A) (A) (A) (A) (A) (A) (A)
                 (A) (A) (A) (A) (A) (A) (A) (A) (A) (A) (A) (A)
                 (A) (A) (A) (A) (A) (A) (A) (A) (A) (A) (A) (A)
                 (A) (A) (A) (A) (A) (A)
       Virtual   (A) (A) (A) (A) (A) (A) (A) (A) (A) (A) (A) (A)
                 (A) (A) (A) (A) (A) (A) (A) (A) (A) (A) (A) (A)
                 (A) (A) (A) (A) (A) (A) (A) (A) (A) (A) (A) (A)
                 (A) (A) (A) (A) (A) (A) (A) (A) (A) (A) (A) (A)
                 (A) (A) (A) (A) (A) (A) (A) (A) (A) (A) (A) (A)
                 (A) (A) (A) (A) (A) (A) (A) (A) (A) (A) (A) (A)
                 (A) (A) (A) (A) (A) (A) (A) (A) (A) (A) (A) (A)
                 (A) (A) (A) (A) (A) (A) (A) (A) (A) (A) (A) (A)
                 (A) (A) (A) (A) (A) (A) (A) (A) (A) (A) (A) (A)
                 (A) (A) (A) (A) (A) (A) (A) (A) (A) (A) (A) (A)
                 (A) (A) (A) (A) (A) (A) (A) (A) (A) (A) (A) (A)
                 (A) (A) (A) (A) (A) (A) (A) (A) (A) (A) (A) (A)
                 (A) (A) (A) (A) (A) (A) (A) (A) (A) (A) (A) (A)
                 (A) (A) (A) (A) (A) (A) (A) (A) (A) (A) (A) (A)
                 (A) (A) (A) (A) (A) (A) (A) (A) (A) (A) (A) (A)
                 (A) (A) (A) (A) (A) (A) (A) (A) (A) (A) (A) (A)
                 (A) (A) (A) (A) (A) (A) (A) (A) (A) (A) (A) (A)
                 (A) (A) (A) (A) (A) (A) (A)
 The electronic state is 1-A.
 Alpha  occ. eigenvalues --  -18.92374 -18.90915 -14.30816 -14.17930 -10.14795
 Alpha  occ. eigenvalues --  -10.11833 -10.11265 -10.10647 -10.10481 -10.10425
 Alpha  occ. eigenvalues --  -10.09952 -10.09385 -10.08435 -10.07229 -10.07138
 Alpha  occ. eigenvalues --   -0.90216  -0.81792  -0.76047  -0.75701  -0.71066
 Alpha  occ. eigenvalues --   -0.70318  -0.65725  -0.64730  -0.61772  -0.55457
 Alpha  occ. eigenvalues --   -0.52035  -0.50868  -0.47996  -0.45887  -0.41382
 Alpha  occ. eigenvalues --   -0.39635  -0.37963  -0.35707  -0.34824  -0.33993
 Alpha  occ. eigenvalues --   -0.32728  -0.32421  -0.30283  -0.27773  -0.27235
 Alpha  occ. eigenvalues --   -0.26145  -0.24808  -0.24352  -0.22971  -0.21606
 Alpha  occ. eigenvalues --   -0.17875  -0.17396  -0.16441  -0.12492  -0.09332
 Alpha  occ. eigenvalues --   -0.08567  -0.03112  -0.02941  -0.00520
 Alpha virt. eigenvalues --    0.10026   0.13920   0.18888   0.19189   0.20164
 Alpha virt. eigenvalues --    0.21446   0.23560   0.25160   0.25478   0.26778
 Alpha virt. eigenvalues --    0.27464   0.29547   0.30574   0.31773   0.32458
 Alpha virt. eigenvalues --    0.33354   0.35399   0.36972   0.37424   0.38788
 Alpha virt. eigenvalues --    0.40996   0.42116   0.42892   0.43299   0.45722
 Alpha virt. eigenvalues --    0.46621   0.47719   0.48569   0.51148   0.53784
 Alpha virt. eigenvalues --    0.55004   0.56068   0.58350   0.59202   0.60163
 Alpha virt. eigenvalues --    0.60399   0.63521   0.63795   0.65207   0.65923
 Alpha virt. eigenvalues --    0.66857   0.67321   0.69245   0.69898   0.70318
 Alpha virt. eigenvalues --    0.71216   0.73480   0.76235   0.76788   0.77623
 Alpha virt. eigenvalues --    0.80175   0.81326   0.82243   0.82951   0.84772
 Alpha virt. eigenvalues --    0.85370   0.85988   0.86129   0.86542   0.87629
 Alpha virt. eigenvalues --    0.87745   0.89041   0.89394   0.89553   0.90576
 Alpha virt. eigenvalues --    0.91250   0.92684   0.93254   0.94940   0.95510
 Alpha virt. eigenvalues --    0.96483   0.98037   0.98619   0.99418   1.00340
 Alpha virt. eigenvalues --    1.00851   1.02892   1.04261   1.07916   1.09551
 Alpha virt. eigenvalues --    1.11161   1.13933   1.15257   1.16389   1.18739
 Alpha virt. eigenvalues --    1.22451   1.23412   1.24075   1.25270   1.29050
 Alpha virt. eigenvalues --    1.31709   1.32334   1.34232   1.36521   1.37825
 Alpha virt. eigenvalues --    1.38062   1.38720   1.40022   1.41006   1.43414
 Alpha virt. eigenvalues --    1.44233   1.46043   1.47419   1.48794   1.50168
 Alpha virt. eigenvalues --    1.51272   1.54201   1.56854   1.58772   1.63209
 Alpha virt. eigenvalues --    1.68993   1.70918   1.75887   1.79796   1.80386
 Alpha virt. eigenvalues --    1.82731   1.83818   1.84963   1.87986   1.88835
 Alpha virt. eigenvalues --    1.89143   1.90974   1.91532   1.92436   1.93246
 Alpha virt. eigenvalues --    1.94013   1.97380   1.98018   1.99601   2.00943
 Alpha virt. eigenvalues --    2.02547   2.03570   2.04245   2.06595   2.07107
 Alpha virt. eigenvalues --    2.09033   2.10454   2.11685   2.12371   2.14722
 Alpha virt. eigenvalues --    2.18970   2.20031   2.20437   2.21998   2.25466
 Alpha virt. eigenvalues --    2.27097   2.28396   2.29925   2.30674   2.32598
 Alpha virt. eigenvalues --    2.34965   2.36942   2.37761   2.38152   2.38907
 Alpha virt. eigenvalues --    2.40642   2.43795   2.45314   2.46189   2.49010
 Alpha virt. eigenvalues --    2.50644   2.51890   2.56709   2.58317   2.59209
 Alpha virt. eigenvalues --    2.61186   2.62094   2.66611   2.68081   2.72547
 Alpha virt. eigenvalues --    2.73708   2.75150   2.78024   2.78940   2.82639
 Alpha virt. eigenvalues --    2.85332   2.90093   2.91894   2.93317   2.96005
 Alpha virt. eigenvalues --    2.96473   3.00506   3.01291   3.02954   3.05839
 Alpha virt. eigenvalues --    3.09546   3.10912   3.12489   3.17198   3.20780
 Alpha virt. eigenvalues --    3.25942   3.26778   3.29322   3.32204   3.34888
 Alpha virt. eigenvalues --    3.35479   3.40568   3.45996   3.47191   3.49216
 Alpha virt. eigenvalues --    3.52321   3.56837   3.60311   3.64209   3.66518
 Alpha virt. eigenvalues --    3.70464   3.77128   3.88747   3.95329   3.99702
 Alpha virt. eigenvalues --    4.06464
     Molecular Orbital Coefficients:
                          50        51        52        53        54
                           O         O         O         O         O
     Eigenvalues --    -0.09332  -0.08567  -0.03112  -0.02941  -0.00520
   1 1   C  1S          0.00104  -0.00176   0.00007  -0.00039   0.00011
   2        2S         -0.00476   0.01049   0.00236  -0.00034   0.00200
   3        3S          0.07863  -0.09001  -0.01847  -0.02372  -0.06352
   4        4PX         0.07529   0.00198  -0.00490  -0.00332  -0.00040
   5        4PY        -0.03820  -0.00444  -0.00003   0.00722   0.00011
   6        4PZ        -0.19353  -0.01054   0.01425   0.00435   0.00083
   7        5PX         0.06107   0.02438  -0.00164  -0.01964   0.00479
   8        5PY        -0.07099   0.02549  -0.00112   0.02605   0.03188
   9        5PZ        -0.14939  -0.02440   0.01584   0.00188  -0.00806
  10        6D 0       -0.00274   0.00014   0.00035   0.00027   0.00039
  11        6D+1       -0.00335  -0.00081  -0.00001   0.00040   0.00012
  12        6D-1        0.00033  -0.00072  -0.00003   0.00048   0.00046
  13        6D+2        0.00137   0.00108   0.00013  -0.00054   0.00007
  14        6D-2       -0.00065   0.00065   0.00016  -0.00013   0.00003
  15 2   H  1S         -0.00358   0.00222  -0.00125   0.00227   0.00034
  16        2S          0.01193  -0.00558   0.00967  -0.01416  -0.00688
  17        3PX         0.00338  -0.00075  -0.00030   0.00077  -0.00046
  18        3PY        -0.00124   0.00013   0.00016  -0.00041  -0.00011
  19        3PZ        -0.00806  -0.00045   0.00050   0.00039   0.00027
  20 3   C  1S         -0.00002  -0.00033  -0.00020   0.00036  -0.00000
  21        2S         -0.00038  -0.00144  -0.00055  -0.00047  -0.00091
  22        3S         -0.02952   0.03334   0.01299   0.02655   0.02854
  23        4PX         0.02818   0.00253  -0.00073  -0.00139  -0.00169
  24        4PY        -0.01207  -0.00138   0.00026   0.00072   0.00071
  25        4PZ        -0.07768  -0.01245  -0.00028   0.00935   0.00441
  26        5PX         0.03489  -0.00675  -0.00389  -0.00843  -0.00707
  27        5PY         0.00113  -0.01545  -0.00556  -0.00761  -0.01438
  28        5PZ        -0.07645  -0.00461   0.00120   0.00596   0.00841
  29        6D 0        0.00902   0.00032  -0.00083  -0.00039  -0.00013
  30        6D+1        0.00941   0.00049  -0.00079  -0.00018  -0.00002
  31        6D-1       -0.00420  -0.00030   0.00040   0.00014   0.00009
  32        6D+2       -0.00341  -0.00010   0.00025   0.00012  -0.00001
  33        6D-2        0.00398   0.00029  -0.00026  -0.00041  -0.00003
  34 4   H  1S          0.00014   0.00053   0.00054  -0.00071   0.00046
  35        2S         -0.00160   0.00327   0.00171  -0.00055   0.00333
  36        3PX         0.00100   0.00045   0.00003  -0.00008  -0.00002
  37        3PY        -0.00069  -0.00014   0.00002   0.00021   0.00017
  38        3PZ        -0.00303  -0.00070  -0.00004   0.00050   0.00012
  39 5   C  1S          0.00038  -0.00045  -0.00027  -0.00035  -0.00016
  40        2S         -0.00048   0.00234   0.00099   0.00096   0.00041
  41        3S          0.01990  -0.00268  -0.00841  -0.03270  -0.03461
  42        4PX        -0.05877  -0.00355   0.00493   0.00149   0.00028
  43        4PY         0.02667  -0.00022  -0.00387   0.00008  -0.00044
  44        4PZ         0.16493   0.00917  -0.01442  -0.00770  -0.00166
  45        5PX        -0.06335   0.00714   0.01151   0.01298   0.01284
  46        5PY         0.02475  -0.01056  -0.00515   0.00645   0.00080
  47        5PZ         0.14592   0.01366  -0.01163  -0.00496   0.00117
  48        6D 0        0.00227   0.00038   0.00002  -0.00014  -0.00002
  49        6D+1       -0.00061  -0.00004  -0.00016  -0.00013  -0.00004
  50        6D-1       -0.00836  -0.00095  -0.00004   0.00063   0.00036
  51        6D+2        0.00160   0.00027   0.00004  -0.00020  -0.00003
  52        6D-2        0.00317   0.00053  -0.00006  -0.00038  -0.00016
  53 6   H  1S          0.00151  -0.00013  -0.00044  -0.00136  -0.00039
  54        2S          0.00253  -0.00412  -0.00204  -0.00175  -0.00124
  55        3PX        -0.00242  -0.00026   0.00015  -0.00001  -0.00010
  56        3PY         0.00114   0.00023  -0.00016  -0.00015  -0.00003
  57        3PZ         0.00704   0.00034  -0.00075  -0.00038  -0.00007
  58 7   C  1S         -0.00025  -0.00121   0.00001   0.00077   0.00003
  59        2S          0.00054   0.00465   0.00003  -0.00141   0.00102
  60        3S         -0.03152   0.02768   0.02737   0.04440   0.03914
  61        4PX        -0.05409  -0.00967  -0.00069   0.00548   0.00134
  62        4PY         0.02553   0.00364   0.00074  -0.00159  -0.00079
  63        4PZ         0.14527   0.01163   0.00018  -0.00603  -0.00377
  64        5PX        -0.03400  -0.02418  -0.01189  -0.00300  -0.00640
  65        5PY         0.01306  -0.01561  -0.00082   0.01829   0.01454
  66        5PZ         0.11900   0.00430  -0.00471  -0.01174  -0.00956
  67        6D 0        0.00300   0.00005  -0.00051  -0.00031  -0.00013
  68        6D+1        0.00754   0.00036  -0.00088  -0.00036  -0.00010
  69        6D-1        0.00769   0.00082  -0.00054  -0.00061  -0.00018
  70        6D+2       -0.00411  -0.00034   0.00035   0.00024   0.00006
  71        6D-2       -0.00128   0.00057   0.00055  -0.00017  -0.00001
  72 8   H  1S         -0.00009  -0.00426  -0.00165   0.00210   0.00025
  73        2S         -0.00086  -0.00981  -0.00217   0.00420   0.00150
  74        3PX        -0.00254  -0.00007  -0.00001   0.00024   0.00015
  75        3PY         0.00129   0.00041   0.00006  -0.00039  -0.00033
  76        3PZ         0.00657   0.00069   0.00004  -0.00025  -0.00010
  77 9   C  1S          0.00035   0.00194   0.00094  -0.00181  -0.00012
  78        2S         -0.00558  -0.00516  -0.00300   0.00477   0.00131
  79        3S          0.01642   0.04076  -0.01534  -0.03733  -0.01450
  80        4PX         0.04635   0.00839  -0.00370  -0.00709  -0.00101
  81        4PY        -0.01928  -0.00956  -0.00269   0.00331  -0.00177
  82        4PZ        -0.11946  -0.00263   0.01612   0.00717   0.00343
  83        5PX         0.06305  -0.04481  -0.02770  -0.02854  -0.03078
  84        5PY        -0.00033   0.02322   0.00463  -0.03083  -0.03271
  85        5PZ        -0.10258  -0.02096   0.01205   0.00666  -0.00014
  86        6D 0        0.00331  -0.00044   0.00007   0.00040   0.00006
  87        6D+1        0.00851   0.00126   0.00033  -0.00063  -0.00020
  88        6D-1        0.00974   0.00242   0.00003  -0.00125  -0.00048
  89        6D+2       -0.00517   0.00004   0.00031   0.00029   0.00014
  90        6D-2       -0.00202  -0.00165  -0.00012   0.00091   0.00041
  91 10  C  1S          0.00019  -0.00674  -0.00145   0.00156  -0.00072
  92        2S         -0.00059   0.02593   0.00606  -0.00575   0.00003
  93        3S         -0.00217  -0.06636   0.04823   0.04465   0.02841
  94        4PX         0.00152  -0.02957  -0.00570   0.00938  -0.00044
  95        4PY        -0.00103   0.00693   0.00031  -0.00313  -0.00024
  96        4PZ        -0.00896   0.01630  -0.00104  -0.01212  -0.00721
  97        5PX        -0.06745   0.02063  -0.02078   0.04707   0.05158
  98        5PY        -0.05113   0.09336  -0.00973  -0.01147   0.02674
  99        5PZ        -0.00157   0.00215  -0.01972  -0.00197   0.00640
 100        6D 0       -0.00837  -0.00088   0.00117   0.00109   0.00039
 101        6D+1       -0.01509  -0.00184   0.00150   0.00148   0.00036
 102        6D-1       -0.00927  -0.00114   0.00110   0.00068   0.00019
 103        6D+2        0.00828   0.00068  -0.00077  -0.00063  -0.00037
 104        6D-2        0.00062   0.00135   0.00126  -0.00102  -0.00000
 105 11  C  1S         -0.00259   0.00229   0.00847  -0.00333  -0.00091
 106        2S          0.01284   0.00596  -0.02576  -0.01097  -0.00380
 107        3S         -0.03501  -0.02589   0.00825   0.22923   0.10979
 108        4PX        -0.11825   0.00261   0.03169  -0.00470  -0.00095
 109        4PY         0.04865   0.00696  -0.01263   0.01145   0.00459
 110        4PZ         0.30504   0.06273  -0.01923  -0.04061  -0.00955
 111        5PX        -0.14405   0.08692  -0.09210  -0.09914  -0.00366
 112        5PY         0.04780  -0.05946   0.02942   0.04589   0.02195
 113        5PZ         0.20519   0.07902  -0.04538  -0.02825   0.01183
 114        6D 0        0.00461   0.00040   0.00019  -0.00136  -0.00039
 115        6D+1        0.00247   0.00198  -0.00109  -0.00062  -0.00043
 116        6D-1       -0.01426  -0.00180   0.00032   0.00272   0.00109
 117        6D+2        0.00109   0.00152   0.00061   0.00129   0.00142
 118        6D-2        0.00549   0.00230  -0.00075  -0.00129  -0.00019
 119 12  C  1S         -0.00248  -0.00030  -0.00057   0.00233   0.00177
 120        2S          0.01445   0.00174  -0.01147  -0.01789  -0.00462
 121        3S         -0.01866  -0.03877   0.17206   0.08912  -0.01727
 122        4PX        -0.09988  -0.01384   0.00591   0.00980   0.00373
 123        4PY         0.04507   0.00106  -0.00730  -0.02078  -0.01133
 124        4PZ         0.25993   0.03647  -0.01746  -0.03423  -0.01242
 125        5PX        -0.07921  -0.02936   0.06353   0.01880   0.01021
 126        5PY         0.02705  -0.02550  -0.00712  -0.05392  -0.01436
 127        5PZ         0.19472   0.02228   0.03279  -0.01418  -0.01823
 128        6D 0       -0.00884  -0.00194  -0.00072   0.00061   0.00054
 129        6D+1       -0.00318  -0.00036  -0.00058   0.00037  -0.00003
 130        6D-1        0.01572   0.00322  -0.00080  -0.00203  -0.00039
 131        6D+2       -0.00088   0.00014   0.00111   0.00084  -0.00004
 132        6D-2       -0.00652  -0.00072   0.00177   0.00085  -0.00009
 133 13  H  1S          0.00510   0.00454   0.00073  -0.00264   0.00175
 134        2S         -0.01072  -0.01961  -0.04288  -0.09123  -0.00137
 135        3PX        -0.00439  -0.00083  -0.00071   0.00041   0.00056
 136        3PY         0.00144   0.00033  -0.00103  -0.00154  -0.00026
 137        3PZ         0.01073   0.00105  -0.00193  -0.00295  -0.00034
 138 14  C  1S         -0.00047  -0.00288   0.00128  -0.00246  -0.00393
 139        2S         -0.00435   0.01199   0.01385   0.02673   0.01689
 140        3S         -0.00971   0.04045  -0.20030  -0.23851  -0.02712
 141        4PX         0.02792  -0.01585   0.00288  -0.02249  -0.02178
 142        4PY        -0.02555  -0.01706  -0.00418  -0.00544  -0.01211
 143        4PZ        -0.07412  -0.00619  -0.03666   0.02713   0.00663
 144        5PX        -0.01635   0.03095   0.00161  -0.02711  -0.04660
 145        5PY         0.01121  -0.09012   0.01130   0.08164  -0.04258
 146        5PZ        -0.04782   0.04351  -0.14460  -0.05014  -0.05062
 147        6D 0        0.00541   0.00381   0.00296  -0.00275  -0.00005
 148        6D+1        0.01115   0.00158  -0.00347   0.00269   0.00145
 149        6D-1       -0.00629   0.00099  -0.00304   0.00484   0.00178
 150        6D+2       -0.00351  -0.00336   0.00056  -0.00052  -0.00016
 151        6D-2        0.00657   0.00407   0.00536  -0.00593  -0.00198
 152 15  H  1S          0.05891   0.03416   0.01227   0.01114   0.00819
 153        2S          0.01853   0.02505  -0.07986   0.06267  -0.07826
 154        3PX         0.00097  -0.00073   0.00066  -0.00163   0.00059
 155        3PY         0.00198   0.00136  -0.00023  -0.00259  -0.00023
 156        3PZ        -0.00149  -0.00059  -0.00190   0.00265  -0.00102
 157 16  H  1S          0.03614   0.00176   0.02459  -0.04422  -0.01859
 158        2S          0.03298   0.06867   0.02859  -0.07601   0.00648
 159        3PX         0.00033  -0.00264   0.00154  -0.00011  -0.00046
 160        3PY        -0.00240   0.00181   0.00054   0.00153   0.00128
 161        3PZ        -0.00231   0.00087  -0.00019   0.00127   0.00158
 162 17  C  1S          0.02398   0.01069  -0.03806   0.04120   0.00626
 163        2S         -0.05536  -0.02019   0.07381  -0.10275  -0.01593
 164        3S         -0.08791  -0.17770   0.49802  -0.22386  -0.08720
 165        4PX        -0.09056   0.08937  -0.04180   0.07187   0.00482
 166        4PY         0.05597   0.00769  -0.13424   0.14949   0.02987
 167        4PZ         0.04296   0.08742   0.10366  -0.12910  -0.03998
 168        5PX        -0.04880   0.06714   0.03513   0.13160   0.07255
 169        5PY         0.01724   0.10795  -0.14834   0.07677   0.11947
 170        5PZ         0.06004  -0.03821   0.17422  -0.12090  -0.06351
 171        6D 0        0.00048  -0.01212  -0.00338   0.00348  -0.00000
 172        6D+1        0.00593  -0.01325  -0.00413   0.00687  -0.00243
 173        6D-1       -0.00186   0.00408  -0.00081   0.00070  -0.00448
 174        6D+2        0.00278  -0.01703  -0.00379   0.00424  -0.00188
 175        6D-2       -0.00273   0.01071   0.00125  -0.00388  -0.00452
 176 18  H  1S          0.05620  -0.15455  -0.03390   0.04685   0.02197
 177        2S          0.06385  -0.06668  -0.04054   0.15655  -0.00410
 178        3PX        -0.00121  -0.00276  -0.00188   0.00176   0.00068
 179        3PY         0.00108   0.00058  -0.00413   0.00223   0.00222
 180        3PZ         0.00125   0.00395   0.00317  -0.00320  -0.00089
 181 19  C  1S          0.00357  -0.02401  -0.00202   0.00379  -0.00413
 182        2S         -0.00967   0.05403   0.01578  -0.02040   0.00782
 183        3S         -0.00865   0.17277  -0.09968  -0.00913   0.08910
 184        4PX        -0.02226   0.01876   0.03388  -0.00440  -0.01774
 185        4PY        -0.00287   0.09871   0.04936  -0.09320  -0.00191
 186        4PZ         0.01024  -0.03273  -0.06643   0.05830  -0.03160
 187        5PX        -0.01718   0.01463  -0.07432   0.01949   0.11725
 188        5PY        -0.01104   0.11557  -0.16823   0.07675   0.13357
 189        5PZ        -0.00221  -0.11354   0.02989  -0.11470   0.02991
 190        6D 0       -0.00556   0.00721  -0.03389  -0.00248  -0.02418
 191        6D+1        0.00271   0.00437  -0.00882   0.03771   0.00355
 192        6D-1        0.00028   0.00268  -0.03691   0.00594   0.02572
 193        6D+2        0.00169   0.00773   0.00924   0.03477   0.00256
 194        6D-2       -0.00161  -0.00288   0.00108  -0.00833   0.02181
 195 20  N  1S          0.01111  -0.06925  -0.01137   0.01894  -0.03131
 196        2S          0.02169  -0.14837  -0.01144   0.03328  -0.07053
 197        3S          0.05202  -0.20850  -0.16959   0.12317  -0.14319
 198        4PX        -0.03688   0.21135   0.01517  -0.00655   0.01659
 199        4PY         0.04388  -0.24343  -0.05761   0.06878  -0.08288
 200        4PZ        -0.03142   0.40567   0.03996  -0.06166   0.06246
 201        5PX         0.02840  -0.19592   0.00714   0.01601  -0.02391
 202        5PY        -0.02908   0.16628   0.10071  -0.06725   0.03806
 203        5PZ         0.02630  -0.33394  -0.01775   0.05026  -0.02549
 204        6D 0       -0.00123   0.00639  -0.00325   0.00313   0.00122
 205        6D+1        0.00012   0.00673  -0.00007   0.00092   0.00044
 206        6D-1       -0.00016  -0.01400  -0.00231   0.00357  -0.00716
 207        6D+2        0.00192  -0.00293  -0.00161   0.00108  -0.00221
 208        6D-2        0.00286  -0.00763   0.00017  -0.00285  -0.00082
 209 21  H  1S         -0.03210   0.06278   0.02125   0.00041   0.00768
 210        2S         -0.01960   0.02862  -0.02326  -0.01192   0.04818
 211        3PX        -0.00075  -0.00269  -0.00101  -0.00056   0.00148
 212        3PY        -0.00159   0.01106   0.00244  -0.00291   0.00409
 213        3PZ         0.00219  -0.02420  -0.00326   0.00340  -0.00669
 214 22  H  1S          0.00593   0.06041   0.02452  -0.05339   0.03266
 215        2S         -0.01145   0.04310   0.02635  -0.04462   0.05408
 216        3PX         0.00265  -0.01886  -0.00191   0.00238  -0.00538
 217        3PY        -0.00200   0.01165   0.00194  -0.00290   0.00568
 218        3PZ         0.00144  -0.01677  -0.00152   0.00145  -0.00309
 219 23  N  1S          0.00005  -0.00090  -0.00233   0.00055   0.00020
 220        2S         -0.00358  -0.00325   0.00318   0.00696   0.00196
 221        3S          0.03257   0.00095  -0.11089  -0.06189  -0.02525
 222        4PX        -0.07771  -0.01587  -0.00559   0.00869   0.00323
 223        4PY         0.03387   0.00737   0.00175  -0.00469  -0.00191
 224        4PZ         0.21433   0.04085   0.00036  -0.01953  -0.00687
 225        5PX         0.06701   0.01805   0.04798   0.00652  -0.01164
 226        5PY        -0.02058  -0.00773  -0.01411  -0.00086  -0.00707
 227        5PZ        -0.19798  -0.03732   0.00900   0.02383   0.00819
 228        6D 0       -0.00747  -0.00113   0.00110   0.00148   0.00056
 229        6D+1       -0.01024  -0.00104   0.00050   0.00096   0.00047
 230        6D-1       -0.00089   0.00032   0.00049   0.00038   0.00018
 231        6D+2        0.00454   0.00080  -0.00026  -0.00017   0.00009
 232        6D-2       -0.00185  -0.00026   0.00025   0.00093   0.00039
 233 24  H  1S         -0.00083  -0.00110   0.00130  -0.00164  -0.00206
 234        2S          0.00273   0.00083   0.00249  -0.00336  -0.00400
 235        3PX         0.00462   0.00080  -0.00146  -0.00132   0.00013
 236        3PY        -0.00176  -0.00019  -0.00031   0.00004   0.00016
 237        3PZ        -0.01227  -0.00240  -0.00003   0.00115   0.00037
 238 25  O  1S         -0.00184   0.00081   0.00005   0.00276   0.01361
 239        2S         -0.00246   0.00105   0.00972   0.00624   0.02790
 240        3S         -0.01627  -0.00375  -0.08784   0.02103   0.09956
 241        4PX        -0.01823  -0.05698  -0.28296  -0.14837   0.09243
 242        4PY         0.01938   0.11273  -0.03229   0.37947  -0.11133
 243        4PZ         0.02957  -0.14833   0.32889  -0.12941   0.32141
 244        5PX        -0.01467  -0.04208  -0.24788  -0.12177   0.07965
 245        5PY         0.01135   0.07457  -0.02345   0.29520  -0.08282
 246        5PZ         0.01960  -0.09345   0.24463  -0.08058   0.26191
 247        6D 0        0.00043  -0.00300   0.00619  -0.00326   0.00337
 248        6D+1        0.00045  -0.00442   0.00326  -0.00250   0.00599
 249        6D-1        0.00103  -0.00145   0.00510   0.00201   0.00565
 250        6D+2       -0.00103  -0.00431  -0.00626  -0.00960   0.00436
 251        6D-2       -0.00060   0.00166  -0.00588   0.00293  -0.00182
 252 26  O  1S         -0.00633   0.01154  -0.00046   0.00084  -0.00137
 253        2S         -0.01585   0.02210  -0.00270  -0.00409  -0.00253
 254        3S         -0.00031   0.05531  -0.00428   0.08071  -0.03671
 255        4PX         0.03354  -0.00397   0.21919   0.28500   0.31812
 256        4PY        -0.00169   0.03505  -0.34487   0.02718   0.43386
 257        4PZ        -0.01085  -0.00662  -0.00084  -0.27344   0.03653
 258        5PX         0.02861  -0.01760   0.18367   0.21742   0.23251
 259        5PY         0.00025   0.01244  -0.26001   0.01569   0.31730
 260        5PZ        -0.01198  -0.01537  -0.00311  -0.23266   0.03146
 261        6D 0        0.00001   0.00138   0.00393   0.01077   0.00094
 262        6D+1       -0.00120   0.00026  -0.00725  -0.00515  -0.00749
 263        6D-1        0.00016  -0.00219   0.00810   0.00009  -0.01145
 264        6D+2        0.00000   0.00081  -0.00112  -0.00231  -0.00490
 265        6D-2       -0.00001  -0.00260   0.00526   0.00144  -0.00306
                          55        56        57        58        59
                           V         V         V         V         V
     Eigenvalues --     0.10026   0.13920   0.18888   0.19189   0.20164
   1 1   C  1S         -0.00061   0.00027   0.02689  -0.01662   0.04122
   2        2S          0.00509  -0.00292  -0.05429   0.03743  -0.09284
   3        3S         -0.09316   0.06948  -0.43155  -0.28354  -0.33652
   4        4PX        -0.11792   0.04931   0.01042  -0.02718   0.04534
   5        4PY         0.05907  -0.02445  -0.05572   0.01086  -0.05976
   6        4PZ         0.30949  -0.12819   0.03485  -0.02977   0.01838
   7        5PX        -0.15807   0.06721   0.15930  -0.11009   0.29532
   8        5PY         0.13444  -0.07381  -0.17567   0.33493  -0.34079
   9        5PZ         0.40030  -0.18074   0.15731  -0.15696   0.12363
  10        6D 0       -0.00353   0.01146   0.00029   0.00102  -0.00113
  11        6D+1       -0.00057   0.02126   0.00445  -0.00341  -0.00215
  12        6D-1        0.00776   0.01317   0.00730  -0.00704  -0.00853
  13        6D+2       -0.00098  -0.01048  -0.00108   0.00105   0.00036
  14        6D-2       -0.00333  -0.00023  -0.00587   0.00026  -0.00472
  15 2   H  1S          0.00113  -0.00088  -0.00244   0.00440   0.01230
  16        2S         -0.03327   0.01943   0.59663  -0.35949   0.90491
  17        3PX        -0.00725   0.00344  -0.00876   0.00414  -0.00474
  18        3PY         0.00338  -0.00173   0.00265  -0.00400   0.00572
  19        3PZ         0.01739  -0.00798   0.00055  -0.00101  -0.00355
  20 3   C  1S          0.00019  -0.00107   0.01567   0.01037   0.03325
  21        2S         -0.00191   0.00724  -0.03659  -0.02106  -0.07715
  22        3S          0.04023  -0.05102  -0.30488   0.35434  -1.11134
  23        4PX         0.04346  -0.12002  -0.05499   0.01376  -0.03729
  24        4PY        -0.01912   0.05269  -0.02982  -0.00311  -0.10852
  25        4PZ        -0.11965   0.31537   0.04267  -0.04036  -0.04897
  26        5PX         0.04609  -0.18032  -0.06998  -0.02223  -0.07618
  27        5PY        -0.04703   0.11517  -0.18437  -0.22022  -0.30272
  28        5PZ        -0.15582   0.50376   0.09274  -0.04227  -0.05302
  29        6D 0       -0.01705  -0.00434  -0.00389   0.00075   0.00437
  30        6D+1       -0.01891  -0.00029  -0.00613   0.00224  -0.00200
  31        6D-1        0.00604   0.01228   0.00578  -0.00406  -0.00171
  32        6D+2        0.00724  -0.00200  -0.00520  -0.00333  -0.00452
  33        6D-2       -0.00704  -0.00462   0.00266   0.00403   0.00725
  34 4   H  1S         -0.00083   0.00158   0.01499   0.01667  -0.00100
  35        2S          0.00594  -0.01271   0.51205   0.14100   1.11974
  36        3PX         0.00252  -0.00704  -0.00193   0.00244   0.00183
  37        3PY        -0.00099   0.00315   0.00383   0.00314   0.00086
  38        3PZ        -0.00702   0.01866   0.00282  -0.00304  -0.00369
  39 5   C  1S         -0.00046   0.00006   0.01765   0.00253   0.04520
  40        2S          0.00029  -0.00153  -0.04168  -0.00194  -0.10614
  41        3S         -0.01100   0.04868  -0.60334  -0.70248  -0.81152
  42        4PX         0.07070   0.09668  -0.02854  -0.07456  -0.11160
  43        4PY        -0.03223  -0.04552  -0.03708  -0.01254   0.01110
  44        4PZ        -0.19597  -0.26402  -0.09299   0.04493   0.03128
  45        5PX         0.10975   0.13249  -0.03265   0.07032  -0.56179
  46        5PY        -0.05247  -0.06759  -0.09431  -0.05419   0.05158
  47        5PZ        -0.28091  -0.42541  -0.18025   0.18444  -0.06224
  48        6D 0        0.00377  -0.01122   0.00124   0.00392   0.00124
  49        6D+1       -0.00520  -0.00745  -0.00119   0.00121   0.00493
  50        6D-1       -0.02136   0.01541  -0.00156   0.00374   0.00366
  51        6D+2        0.00526   0.00119   0.00837   0.00222   0.00557
  52        6D-2        0.00752  -0.00795  -0.00058  -0.00105   0.00035
  53 6   H  1S         -0.00081   0.00086   0.00758  -0.00943   0.01477
  54        2S         -0.00198   0.00642   0.55814   0.29223   1.24941
  55        3PX         0.00385   0.00614   0.00306  -0.00310   0.00300
  56        3PY        -0.00164  -0.00294  -0.00170  -0.00039   0.00152
  57        3PZ        -0.01099  -0.01613  -0.00418   0.00327   0.00576
  58 7   C  1S         -0.00076  -0.00050   0.03410   0.03996   0.00971
  59        2S          0.00576   0.00048  -0.08230  -0.09815  -0.01434
  60        3S          0.00099  -0.02653  -0.34110  -0.11690  -0.44216
  61        4PX        -0.11319  -0.00248  -0.07580  -0.01796   0.00348
  62        4PY         0.05198  -0.00200   0.07292   0.07039  -0.00139
  63        4PZ         0.30307  -0.00087   0.06609  -0.10296  -0.08650
  64        5PX        -0.16350   0.00855  -0.39609  -0.48707   0.21139
  65        5PY         0.07321  -0.01045   0.43342   0.55741   0.05178
  66        5PZ         0.43724  -0.00087  -0.03034  -0.43978  -0.09441
  67        6D 0        0.00333  -0.01184   0.00266  -0.00285  -0.00213
  68        6D+1        0.00030  -0.02263   0.00025  -0.00293   0.00055
  69        6D-1       -0.00940  -0.01593  -0.00609   0.00591  -0.00018
  70        6D+2        0.00123   0.01187  -0.00178  -0.00216  -0.00164
  71        6D-2        0.00342   0.00132   0.00220   0.00248  -0.01372
  72 8   H  1S          0.00240  -0.00039  -0.00417  -0.01999   0.02892
  73        2S         -0.00363  -0.00689   0.95405   1.20579   0.28113
  74        3PX        -0.00630   0.00006  -0.00281   0.00076   0.00577
  75        3PY         0.00279  -0.00016  -0.00299  -0.00579  -0.00257
  76        3PZ         0.01735  -0.00080   0.00733  -0.00517  -0.00423
  77 9   C  1S         -0.00044   0.00000   0.00919   0.00353   0.01331
  78        2S         -0.00035   0.00275  -0.03029  -0.01797  -0.01823
  79        3S          0.01943  -0.06173  -0.24920  -0.45136   0.15385
  80        4PX         0.04562  -0.11342   0.01981  -0.04116  -0.00215
  81        4PY        -0.01834   0.04891  -0.01630  -0.00062   0.03062
  82        4PZ        -0.12163   0.30661  -0.06805   0.05731   0.06709
  83        5PX         0.04014  -0.11395  -0.17850  -0.48599   0.15666
  84        5PY        -0.03190   0.06092  -0.24368  -0.38343   0.03914
  85        5PZ        -0.16414   0.42761  -0.12248  -0.02885   0.14757
  86        6D 0        0.01614   0.00638   0.00661  -0.00406  -0.00985
  87        6D+1        0.02018   0.00812   0.00178  -0.00476  -0.00377
  88        6D-1       -0.00161  -0.00111  -0.01086   0.01102   0.01092
  89        6D+2       -0.00803  -0.00307  -0.00230  -0.00147  -0.00579
  90        6D-2        0.00507   0.00197   0.01123  -0.00380   0.00594
  91 10  C  1S          0.00112   0.00125   0.01502   0.01247   0.00354
  92        2S         -0.00725  -0.00957  -0.04080  -0.02695  -0.01171
  93        3S          0.02004   0.00763   0.35225   0.21509  -0.01005
  94        4PX         0.06454   0.06887   0.03873  -0.02975  -0.02737
  95        4PY        -0.02679  -0.03645  -0.00584   0.03041   0.00792
  96        4PZ        -0.17376  -0.18972  -0.11139   0.08408   0.07486
  97        5PX         0.13028   0.08173  -0.04083   0.33557  -0.24072
  98        5PY         0.02879  -0.10942  -0.08519   0.29884  -0.11763
  99        5PZ        -0.20512  -0.25892  -0.20848   0.23435   0.07863
 100        6D 0       -0.00107   0.00928  -0.01037   0.00679   0.00844
 101        6D+1        0.00840   0.00258  -0.00985   0.01004   0.01399
 102        6D-1        0.02193  -0.01972   0.00373  -0.00209  -0.00046
 103        6D+2       -0.00732   0.00146   0.00927  -0.00530   0.00635
 104        6D-2       -0.00686   0.00819  -0.00227   0.00623   0.00101
 105 11  C  1S         -0.00095  -0.00104   0.00562   0.00011  -0.00876
 106        2S          0.00122   0.00385  -0.00267   0.00919   0.01211
 107        3S          0.11219  -0.00219  -0.30552   0.25884  -0.05463
 108        4PX         0.03528  -0.02077  -0.06041   0.07301   0.08073
 109        4PY        -0.01796   0.00471   0.04448  -0.02241  -0.00963
 110        4PZ        -0.10166   0.04606   0.22090  -0.17991  -0.16542
 111        5PX         0.10558  -0.01792  -0.45686   0.25958   0.05316
 112        5PY        -0.08267   0.02369   0.28151  -0.08285   0.02488
 113        5PZ        -0.09209   0.05950   0.16116  -0.20000  -0.31307
 114        6D 0       -0.00386  -0.00228  -0.00444   0.00648   0.00467
 115        6D+1       -0.00998  -0.00792  -0.00418   0.00259  -0.00248
 116        6D-1       -0.01193  -0.01315   0.00938  -0.01079  -0.00468
 117        6D+2        0.00584   0.00585  -0.00106   0.00043  -0.00079
 118        6D-2        0.00269   0.00374  -0.00836  -0.00146   0.00666
 119 12  C  1S         -0.00202  -0.00092   0.00702  -0.00490  -0.00323
 120        2S          0.01229   0.01043  -0.01566   0.02336   0.01774
 121        3S         -0.12005  -0.02533   0.16789  -0.23928   0.15172
 122        4PX        -0.08957  -0.04747   0.11924  -0.00823  -0.08840
 123        4PY         0.03479   0.01820  -0.01629   0.02487   0.00475
 124        4PZ         0.22733   0.11472  -0.16850   0.18758   0.13208
 125        5PX        -0.13612  -0.07797   0.40348  -0.01534  -0.22766
 126        5PY        -0.00899   0.00759   0.15595   0.00744   0.03967
 127        5PZ         0.25287   0.12909  -0.23666   0.29484   0.20238
 128        6D 0       -0.00034  -0.00846  -0.00146   0.00229   0.00083
 129        6D+1       -0.00335  -0.00704   0.00184  -0.00431  -0.00058
 130        6D-1       -0.00798   0.00758   0.01227  -0.00670  -0.00857
 131        6D+2        0.00255   0.00174  -0.00090   0.00034   0.00455
 132        6D-2        0.00245  -0.00461   0.00011   0.00872   0.00241
 133 13  H  1S          0.00743   0.00474  -0.00877   0.00106   0.01837
 134        2S         -0.02976  -0.02722   0.35383   0.17931  -0.23231
 135        3PX        -0.00501  -0.00323   0.00232  -0.00137  -0.00526
 136        3PY         0.00249   0.00135  -0.00625  -0.00413   0.00301
 137        3PZ         0.01355   0.00767  -0.01316   0.01355   0.00907
 138 14  C  1S         -0.00199   0.00104   0.01142  -0.01838   0.02848
 139        2S         -0.00376   0.00086   0.01687   0.01988  -0.03119
 140        3S          0.18168  -0.05844  -0.79406   0.47947  -0.66578
 141        4PX        -0.00544  -0.00727  -0.01464   0.02829  -0.04187
 142        4PY        -0.00103  -0.01445  -0.02782   0.00562  -0.03548
 143        4PZ         0.00081   0.00040   0.05752  -0.03162   0.00908
 144        5PX        -0.01141  -0.03158  -0.16632   0.12518  -0.07097
 145        5PY         0.00265  -0.06508   0.03701   0.01034  -0.19040
 146        5PZ         0.00938  -0.00003   0.12300  -0.13232  -0.01449
 147        6D 0       -0.00277   0.00097   0.00837  -0.00575  -0.00543
 148        6D+1       -0.00432   0.00105   0.01494  -0.01223  -0.00662
 149        6D-1        0.00162  -0.00242  -0.00235   0.00492   0.00676
 150        6D+2        0.00168  -0.00009  -0.00529   0.00588   0.00437
 151        6D-2       -0.00257   0.00095   0.01213  -0.00807  -0.00403
 152 15  H  1S         -0.01253   0.00189   0.05903  -0.03344  -0.01798
 153        2S         -0.07503  -0.05456   0.38094  -0.28430  -0.00313
 154        3PX         0.00006  -0.00182  -0.00358   0.00250  -0.00200
 155        3PY         0.00052   0.00119  -0.00392   0.00129  -0.00164
 156        3PZ         0.00054  -0.00041  -0.00291   0.00266  -0.00119
 157 16  H  1S         -0.01141   0.00441   0.01426  -0.02486  -0.02765
 158        2S         -0.07821   0.13733   0.41577  -0.38365   0.44357
 159        3PX         0.00086   0.00128   0.00223   0.00041   0.00412
 160        3PY        -0.00066  -0.00120   0.00683  -0.00580   0.00372
 161        3PZ        -0.00024  -0.00022   0.00130   0.00032   0.00137
 162 17  C  1S         -0.00488   0.00459   0.02885  -0.02402  -0.01426
 163        2S          0.01674  -0.00711  -0.05665   0.04416   0.02590
 164        3S         -0.05502  -0.05855  -0.34718   0.36293   0.21880
 165        4PX         0.02089  -0.00494  -0.02058   0.01903   0.05225
 166        4PY         0.00278   0.00679   0.01896  -0.01064  -0.01666
 167        4PZ        -0.01614  -0.00084   0.07746  -0.06478  -0.03427
 168        5PX        -0.00622   0.00298   0.07257  -0.06367   0.15730
 169        5PY         0.01426   0.00812  -0.02505  -0.01235  -0.03803
 170        5PZ        -0.00568  -0.01872   0.16479  -0.14450  -0.10232
 171        6D 0        0.00094   0.00009  -0.00236   0.00105   0.00305
 172        6D+1       -0.00047   0.00128  -0.00076  -0.00005   0.00011
 173        6D-1        0.00064   0.00037   0.00069   0.00011   0.00199
 174        6D+2       -0.00096   0.00041   0.00315  -0.00104  -0.00359
 175        6D-2        0.00073  -0.00086  -0.00534   0.00349   0.00154
 176 18  H  1S         -0.00623   0.00643   0.01453  -0.01004  -0.01373
 177        2S         -0.01283   0.02364   0.34739  -0.30202   0.00582
 178        3PX         0.00121  -0.00044  -0.00347   0.00247   0.00238
 179        3PY        -0.00007   0.00036   0.00318  -0.00150  -0.00039
 180        3PZ        -0.00096   0.00008   0.00232  -0.00108  -0.00102
 181 19  C  1S          0.00137   0.00242   0.00345  -0.00174   0.00268
 182        2S         -0.00671  -0.01286  -0.00692   0.00293  -0.00818
 183        3S          0.03804   0.05832   0.00064  -0.03386   0.01181
 184        4PX        -0.00392  -0.00464  -0.01751   0.00028   0.01971
 185        4PY        -0.00011  -0.00311  -0.00292   0.00582  -0.02147
 186        4PZ         0.00369   0.00460   0.01299  -0.00132  -0.00623
 187        5PX         0.00552   0.01089  -0.04475   0.02474   0.00565
 188        5PY        -0.00146   0.00461  -0.00123   0.00082  -0.01609
 189        5PZ        -0.00594  -0.00063  -0.00131   0.03282   0.00116
 190        6D 0        0.00062   0.00051  -0.00385   0.00341   0.00190
 191        6D+1        0.00003  -0.00045   0.00006   0.00080  -0.00114
 192        6D-1        0.00157   0.00100   0.00106  -0.00016   0.00044
 193        6D+2        0.00108   0.00064  -0.00087   0.00055   0.00185
 194        6D-2        0.00033  -0.00028  -0.00112   0.00034   0.00128
 195 20  N  1S         -0.00184   0.00896  -0.03207   0.02317  -0.01346
 196        2S         -0.00101   0.01635  -0.05142   0.03700  -0.01494
 197        3S         -0.03527   0.08919  -0.39096   0.29058  -0.23274
[...]
 004328,-0.00052950,0.00038975,0.00040701,-0.00146780,-0.00008892,-0.00
 020889,-0.00066071,0.00071499,0.00032726,0.00204059,-0.00208724,0.0020
 3181,0.00162728,0.00095720,-0.00260301,-0.00089279,0.00455857,0.008359
 48,-0.00003163,-0.00316560,-0.00476960,-0.00035723,0.00023306,-0.00189
 711,-0.07794661,0.02858814,0.01161125,0.00810468,-0.02468282,-0.004018
 30,0.97438370,-0.00029577,0.00031675,-0.00020643,0.00034173,-0.0000610
 7,0.00015635,0.00010876,0.00014705,-0.00020844,-0.00000440,0.00003539,
 0.00002209,0.00007136,-0.00035588,0.00004671,-0.00002843,-0.00000951,0
 .00008864,-0.00053923,-0.00040595,0.00013367,-0.00008578,-0.00000340,0
 .00012750,0.00040885,-0.00058807,0.00048334,0.00006880,-0.00130143,0.0
 0071383,0.00053550,0.00150045,-0.00026315,0.00089052,0.00232837,0.0009
 5517,0.00019094,0.00040849,0.00081285,0.00065014,-0.00149083,-0.015477
 43,0.00027168,0.00027828,0.00078311,-0.00165625,0.00198001,0.00482965,
 0.03660431,-0.14490584,-0.00326784,0.01093702,-0.01943141,-0.00885603,
 0.04452814,0.61435874,-0.00019120,0.00015552,0.00003275,-0.00001060,0.
 00000676,-0.00001972,-0.00000824,0.00007785,-0.00005555,-0.00000919,0.
 00000482,0.00000744,-0.00003392,-0.00008254,0.00002195,-0.00000769,0.0
 0000861,0.00002381,-0.00008841,-0.00007564,-0.00005493,-0.00002522,-0.
 00000328,0.00004410,-0.00012958,-0.00030866,0.00046462,0.00014474,-0.0
 0031286,0.00000870,0.00162794,-0.00140226,-0.00039864,0.00072738,0.000
 72571,-0.00094923,0.00033692,0.00033717,-0.00114123,0.01616041,-0.0346
 6151,-0.01277359,-0.00010529,-0.00035229,0.00050964,-0.00024933,-0.000
 69662,-0.00725684,0.01810082,-0.00918318,-0.08934334,-0.00689664,0.014
 17608,0.00578717,0.13814392,0.10447349,0.31843629,0.00037089,-0.000018
 46,-0.00000459,-0.00020767,-0.00036036,-0.00035294,0.00039545,0.000039
 17,0.00008849,0.00004630,-0.00004104,-0.00010458,0.00027770,0.00006713
 ,-0.00000680,-0.00000310,-0.00002326,-0.00002559,-0.00013349,-0.000023
 68,0.00010040,0.00001575,-0.00000659,-0.00003405,0.00003414,0.00106188
 ,-0.00045884,-0.00069095,0.00008678,0.00004309,0.00093961,-0.00073554,
 0.00046294,-0.00003471,0.00009433,0.00005375,-0.00006261,-0.00013376,0
 .00025231,-0.00227468,0.00296259,-0.00198672,0.00096383,0.00100324,0.0
 0134158,0.00152866,-0.00061296,0.00208767,-0.18299676,-0.02523488,-0.0
 2385592,-0.03519344,0.00613523,-0.02140099,-0.02945789,0.00219794,-0.0
 1485700,0.55624600,-0.00008947,0.00001875,0.00049938,-0.00000508,-0.00
 036591,-0.00014886,0.00017654,0.00002635,0.00009953,-0.00001665,-0.000
 01149,-0.00002170,0.00004358,-0.00005490,0.00000339,-0.00001182,-0.000
 02784,-0.00001487,-0.00006558,0.00002948,0.00006752,0.00000893,-0.0000
 0766,-0.00001879,-0.00003523,0.00039078,-0.00023846,-0.00014267,0.0002
 8672,-0.00032850,0.00037616,-0.00003915,0.00052096,0.00016077,-0.00016
 237,0.00010420,-0.00003325,-0.00001185,-0.00015955,-0.00252825,-0.0005
 4971,-0.00093873,0.00077728,0.00062396,-0.00040565,-0.00084259,0.00047
 969,0.00102067,0.01842786,-0.06307131,0.01008766,-0.02007757,0.0064219
 6,-0.01249166,0.02528940,-0.00575357,0.00895544,-0.39057595,0.38887048
 ,-0.00004189,0.00017237,0.00005168,-0.00020903,0.00022797,-0.00001342,
 -0.00009294,-0.00016370,0.00008281,0.00009385,-0.00002220,-0.00005608,
 0.00031272,0.00020234,-0.00010356,0.00002988,0.00001634,-0.00002120,-0
 .00006771,0.00004982,-0.00003151,0.00004265,0.00003476,-0.00003681,0.0
 0009541,-0.00007700,-0.00021500,-0.00057066,0.00015388,-0.00033621,-0.
 00048003,-0.00076382,0.00279492,-0.00010710,-0.00042470,-0.00003899,0.
 00009658,-0.00011186,-0.00005887,-0.04060646,0.00154050,-0.02202292,0.
 00154468,-0.00096201,-0.00821882,-0.00019492,0.00103479,0.00394955,-0.
 03411855,-0.01722714,-0.11842604,0.00165929,-0.00233724,0.00421858,0.0
 0153647,0.00211303,0.00386507,-0.31644214,-0.02765008,1.18643608,0.000
 01762,0.00007279,-0.00003081,0.00013506,-0.00023996,-0.00013681,0.0000
 9757,-0.00000462,0.00003488,-0.00001528,0.00001270,0.00001978,-0.00002
 712,-0.00007993,0.00000908,-0.00000701,-0.00001732,0.00000800,-0.00007
 209,-0.00003746,0.00003968,-0.00000491,-0.00000479,0.00000237,0.000012
 09,0.00029694,-0.00012082,-0.00008228,0.00001768,0.00000634,-0.0002952
 2,-0.00025361,0.00057120,0.00010053,0.00019169,0.00000605,-0.00000373,
 -0.00004043,-0.00002105,-0.00701533,0.00053641,-0.00268764,0.00023748,
 -0.00036389,-0.00199884,0.00011294,-0.00013585,0.00040723,0.00042923,0
 .01257889,-0.04038313,0.00263637,-0.00094056,0.00059865,-0.00036885,-0
 .00048822,-0.00090000,0.01286853,-0.00363897,0.08999621,-0.00726016,0.
 00016147,-0.00008535,-0.00017576,-0.00000505,0.00000209,-0.00001114,-0
 .00000183,0.00004820,-0.00004724,-0.00001165,0.00000903,0.00001058,-0.
 00005547,-0.00003846,0.00000952,-0.00000578,0.00000382,0.00001259,0.00
 002075,-0.00003094,0.00000334,-0.00001040,-0.00000768,0.00001318,-0.00
 003699,0.00006626,-0.00001317,0.00020299,-0.00008868,-0.00005319,-0.00
 003982,0.00000512,-0.00018467,0.00000088,0.00034759,-0.00001990,-0.000
 01209,-0.00001005,0.00001369,-0.00161186,-0.00034905,-0.00194525,-0.00
 009272,0.00037929,-0.00048784,-0.00018374,0.00020809,0.00017706,-0.006
 62061,-0.00330442,-0.00447843,0.00152248,0.00107414,-0.00019438,0.0026
 3361,0.00261665,0.00220886,-0.00410018,-0.05173696,0.36022871,0.007644
 45,0.04677496,0.00005018,-0.00003047,-0.00010234,-0.00002826,0.0000854
 4,0.00005972,-0.00001919,-0.00001472,-0.00001203,0.00000312,0.00000273
 ,-0.00000377,-0.00001360,0.00001585,-0.00000316,-0.00000118,0.00000295
 ,0.00000615,0.00002885,-0.00001562,-0.00000979,-0.00000134,-0.00000293
 ,0.00000214,-0.00002527,-0.00001540,-0.00000007,0.00007383,-0.00005155
 ,0.00011889,-0.00030007,-0.00019914,0.00024635,-0.00000283,0.00010439,
 0.00003187,0.00000090,-0.00000911,-0.00001124,-0.00352947,-0.00014030,
 -0.00037164,0.00018828,0.00002350,-0.00099826,0.00008019,0.00018897,0.
 00022410,0.00697111,0.00641990,-0.01104695,0.00184388,-0.00112567,0.00
 292676,-0.00036816,0.00030087,-0.00013866,0.07552248,0.29769290,-0.813
 32983,-0.07807797,-0.31777875,0.84366247,-0.00024909,-0.00024357,0.000
 08971,0.00002155,0.00041771,0.00063566,-0.00025206,-0.00003898,-0.0000
 8950,-0.00002111,0.00000235,0.00004166,-0.00009570,0.00004023,0.000000
 69,0.00000755,0.00001999,0.00000308,0.00008626,0.00005314,-0.00006626,
 -0.00000682,0.00000595,0.00000917,0.00005043,-0.00040551,0.00020017,0.
 00039972,0.00012363,-0.00016564,0.00035036,0.00037115,-0.00085431,-0.0
 0016130,-0.00004913,-0.00000126,-0.00000337,0.00002298,0.00005413,0.00
 456763,0.00039496,0.00244662,-0.00000468,-0.00062767,0.00124758,0.0001
 1779,-0.00074758,-0.00200890,-0.02336857,0.02260593,0.01723247,-0.0017
 4323,0.00019067,-0.00033174,-0.00398664,-0.00428631,-0.00243368,-0.322
 42873,0.35407177,0.29149124,-0.00119126,0.00269496,-0.00208253,0.34881
 709,-0.00005604,-0.00013414,-0.00024529,-0.00005089,0.00086404,0.00038
 747,-0.00040025,-0.00019838,-0.00011541,0.00000804,0.00000320,0.000030
 66,-0.00011234,0.00022938,-0.00003256,0.00002408,0.00004342,0.00000689
 ,0.00029092,0.00009999,-0.00015523,0.00001240,0.00001528,-0.00000152,0
 .00000657,-0.00079580,0.00024120,0.00040197,0.00003784,0.00028567,0.00
 033601,-0.00012901,-0.00022912,-0.00027061,-0.00024119,-0.00012116,0.0
 0004978,0.00007173,-0.00010562,0.00012121,0.00198268,0.00020230,-0.000
 11587,-0.00010584,-0.00007232,0.00011207,-0.00013090,0.00022020,-0.009
 69243,-0.00642234,-0.00127125,-0.00190249,0.00027960,-0.00103442,-0.00
 006514,0.00033597,0.00115196,0.39886092,-0.27028994,-0.31261218,-0.014
 96575,0.00658756,0.01503332,-0.37625805,0.27041475,0.00011406,0.000398
 25,-0.00041121,0.00057598,-0.00041611,-0.00052009,0.00017532,-0.000035
 57,0.00009559,-0.00005603,0.00000677,0.00002111,-0.00009718,-0.0001271
 9,0.00004387,-0.00001559,-0.00003267,0.00001978,-0.00008290,-0.0000629
 5,0.00006903,-0.00001282,-0.00001280,0.00001462,0.00006846,0.00022329,
 -0.00003940,-0.00002504,0.00004593,-0.00027924,0.00013422,0.00026698,-
 0.00000619,0.00006567,0.00031961,-0.00001704,-0.00002758,-0.00003871,0
 .00003280,-0.00149827,0.00193893,0.00101485,0.00021820,-0.00011051,0.0
 0003900,0.00020011,-0.00088483,0.00024819,-0.01764331,0.01335182,0.009
 45791,-0.00049188,-0.00007988,-0.00054564,-0.00395772,-0.00199372,-0.0
 0234905,0.29695180,-0.27809071,-0.24243720,0.03211358,-0.03376290,-0.0
 2081427,-0.30625989,0.29713825,0.25522012,0.01096928,-0.00615192,0.000
 96909,0.00014046,0.00026776,-0.00008921,-0.00995618,0.00358736,0.00032
 492,0.00043596,-0.00019565,-0.00009696,0.00753571,-0.00360886,0.001246
 86,-0.00106285,0.00110510,0.00001683,-0.04214312,0.01889851,0.00020543
 ,0.00321088,-0.00005932,-0.00155771,-0.30443480,0.11182388,-0.00937429
 ,-0.03078249,0.03759584,-0.01008983,0.01365205,-0.02499502,0.00751624,
 -0.24198789,-0.07998823,0.08698527,-0.00854062,-0.03042553,0.01568332,
 -0.00079895,0.00463596,0.00275597,-0.00010532,-0.00113345,-0.00007641,
 -0.00019871,-0.00038499,-0.00035829,-0.00167983,-0.00148418,-0.0005182
 1,0.00003981,0.00003230,0.00113827,0.00015102,-0.00288523,-0.00081485,
 0.00065934,0.00032472,0.00055976,0.00011573,-0.00009842,-0.00001619,-0
 .00029033,-0.00024349,-0.00009787,0.59772747,0.00353017,-0.00369665,0.
 00273227,0.00156803,-0.00114287,-0.00018237,-0.00324051,-0.00795095,0.
 00432053,-0.00006775,-0.00002119,-0.00018363,-0.00797223,0.00831544,0.
 00039747,-0.00069436,0.00142726,0.00017501,0.00471348,0.01558839,-0.00
 789050,0.00149909,-0.00005089,-0.00241070,0.10178603,-0.17334785,0.038
 19824,0.01402679,-0.04693624,0.02595263,0.00187391,-0.06065528,0.03697
 214,-0.09677686,-0.19228243,0.09483215,0.00718505,0.01045387,-0.006868
 23,0.00428439,-0.00047231,0.00277042,0.00006648,-0.00038595,-0.0002371
 5,-0.00073540,-0.00093353,0.00094086,-0.00093180,-0.00100769,0.0000880
 2,-0.00003280,0.00008781,0.00082059,0.00150423,-0.00343364,-0.00058747
 ,-0.00023930,0.00028301,0.00096397,-0.00010193,-0.00029909,-0.00005359
 ,-0.00004851,0.00032365,-0.00042846,-0.22671644,1.38382343,-0.00350428
 ,0.00454749,0.00074847,-0.00101013,0.00025068,-0.00043042,0.00362148,0
 .00315371,-0.00293924,-0.00013583,-0.00014449,-0.00026377,0.00389505,-
 0.00078745,0.00521507,0.00090702,-0.00021721,0.00136134,0.00635969,-0.
 01064046,0.00678935,-0.00228908,-0.00202501,-0.00255389,-0.00059081,0.
 03453123,-0.07875149,0.00070196,0.02280870,-0.00064517,-0.00051765,0.0
 4503731,-0.00575819,0.08914218,0.08831904,-0.11503763,-0.00216453,0.00
 062473,-0.00131549,-0.00225261,0.00218512,0.00334986,0.00046124,0.0005
 0605,0.00006264,0.00100187,0.00118398,-0.00066803,0.00049533,-0.000491
 72,0.00059001,-0.00001163,0.00002604,-0.00035246,-0.00070874,0.0018322
 3,0.00015182,0.00003703,-0.00013960,-0.00044239,0.00001613,0.00012225,
 0.00002074,0.00008000,-0.00005007,0.00021666,-0.01656857,-0.70418287,0
 .31379675,0.00204470,0.00111250,-0.00070728,-0.00046507,0.00027600,-0.
 00000262,-0.00051934,-0.00059765,0.00035899,-0.00002796,-0.00006728,0.
 00004161,-0.00008010,0.00073797,-0.00043131,0.00002728,-0.00001789,0.0
 0005814,0.00227248,-0.00187437,-0.00000406,-0.00099248,-0.00044467,0.0
 0045510,0.00504609,0.03145346,-0.01827342,-0.00769454,0.00298774,0.000
 87474,-0.00433079,-0.00392276,0.00323424,0.01534233,-0.02730312,0.0097
 6416,0.00017225,0.00123419,-0.00111392,0.00122068,-0.00056306,0.000497
 38,0.00004842,0.00009478,-0.00008631,-0.00018489,-0.00034216,0.0002490
 5,-0.00018838,-0.00017172,-0.00006977,-0.00000075,0.00000830,0.0001507
 0,0.00045094,-0.00031535,-0.00005322,0.00001681,0.00004037,0.00009602,
 0.00001191,-0.00002097,-0.00000256,-0.00003738,0.00000279,-0.00002555,
 0.00717743,0.19645109,-0.07771617,-0.01882989,-0.00059179,-0.00000868,
 0.00091578,0.00011725,0.00003288,0.00002160,-0.00002755,0.00072506,-0.
 00048401,0.00000671,0.00000311,0.00000365,0.00013665,-0.00086249,0.000
 27329,-0.00002239,0.00006515,0.00009725,-0.00180748,0.00050948,-0.0011
 2554,0.00032049,-0.00022986,0.00009779,-0.00313956,-0.00426864,0.00051
 129,0.00298473,0.00169798,0.00037954,-0.00313284,0.00125742,0.00151000
 ,0.00663383,-0.00777723,-0.00034222,-0.00018330,0.00027192,-0.00126888
 ,0.00056310,0.00040245,0.00062330,0.00003892,0.00019128,-0.00005484,0.
 00008126,0.00005560,-0.00000974,-0.00002852,-0.00023160,0.00009545,0.0
 0001282,0.00002134,0.00000785,-0.00013627,0.00029414,0.00003785,0.0000
 2302,-0.00000083,-0.00013612,0.00001101,0.00003797,0.00000816,-0.00000
 872,-0.00004890,0.00004297,0.19715508,-0.93196327,0.51535345,-0.199153
 46,0.94030774,0.00020000,0.00052891,0.00115881,0.00005977,-0.00000353,
 0.00008243,0.00006399,-0.00040130,-0.00005690,0.00000476,0.00002267,0.
 00000904,-0.00014426,0.00018239,-0.00036793,0.00005785,0.00009653,0.00
 017985,0.00010468,-0.00110819,-0.00189645,0.00003103,0.00027736,-0.000
 01671,-0.00047769,-0.00642008,-0.00114237,0.00079122,0.00040807,0.0032
 6595,0.00318593,0.00116795,0.00123515,-0.00768161,0.00772949,-0.007832
 64,-0.00056834,-0.00169184,-0.00138520,-0.00037425,0.00129995,0.001740
 95,-0.00003682,0.00005849,-0.00002220,0.00037441,0.00036522,-0.0002713
 4,-0.00008895,-0.00046355,0.00007807,-0.00002795,0.00000633,0.00011487
 ,0.00027452,0.00042674,0.00019395,-0.00004369,-0.00006844,-0.00001369,
 -0.00002019,0.00001191,-0.00000093,0.00003429,0.00004322,-0.00002026,-
 0.07801626,0.51466510,-0.12347956,0.08277291,-0.51639926,0.12843081,0.
 00014824,0.00003316,0.00002994,0.00009989,-0.00015762,-0.00015215,0.00
 005508,0.00008338,0.00009205,-0.00002771,-0.00000175,-0.00005905,-0.00
 012606,-0.00001018,0.00009548,-0.00004508,-0.00003960,-0.00002002,0.00
 012201,-0.00006398,0.00015632,-0.00003021,-0.00005722,-0.00002689,0.00
 030283,-0.00024048,-0.00027869,0.00062708,-0.00005122,0.00000831,0.000
 46815,0.00022472,0.00017575,-0.00099432,0.00130511,-0.00107668,-0.0010
 6688,-0.00053757,0.00111400,-0.00035102,-0.00146366,-0.00407814,-0.000
 05229,0.00107336,0.00224112,0.00040253,0.00007718,0.00118603,-0.032962
 75,0.01405401,-0.00494825,0.00049935,0.00317924,-0.00081392,-0.6288738
 9,0.07573095,-0.07940678,-0.00380857,0.00585494,0.00230259,-0.00039551
 ,-0.00072191,-0.00001964,-0.00151295,0.00265058,-0.00114384,-0.0002737
 8,-0.00098254,0.00070369,-0.00031411,0.00010435,-0.00025783,0.75724247
 ,0.00006114,-0.00011957,0.00005778,-0.00013614,0.00007990,0.00001544,-
 0.00010104,-0.00007217,0.00004997,-0.00000469,-0.00001075,0.00000628,-
 0.00004766,0.00013526,-0.00002824,0.00001501,0.00001677,-0.00002149,0.
 00016942,0.00018967,-0.00011625,0.00004365,0.00001020,-0.00004278,-0.0
 0013362,0.00002032,-0.00001730,-0.00013249,0.00065472,-0.00032785,-0.0
 0037503,-0.00103789,0.00042662,0.00000604,-0.00112778,0.00041308,0.000
 32831,-0.00027508,-0.00123965,0.00142210,-0.00101425,0.00141564,0.0000
 3382,-0.00006960,0.00086380,0.00049547,-0.00029253,-0.00101551,0.03329
 994,-0.00334863,0.00001768,-0.00103547,0.00456805,0.00098347,0.0772105
 6,-0.11606571,0.00377227,0.00783393,-0.00360456,-0.00262963,-0.0000002
 1,-0.00098153,-0.00016965,0.00220165,-0.00095181,0.00188770,0.00083005
 ,0.00165964,-0.00060759,0.00023485,-0.00016076,-0.00014753,-0.05638810
 ,0.09970855,0.00003129,0.00002837,-0.00002063,-0.00003194,-0.00003835,
 -0.00003213,0.00017169,0.00007467,-0.00002314,0.00003752,-0.00000940,-
 0.00002256,0.00027726,-0.00009838,0.00001131,0.00001805,-0.00002045,-0
 .00002001,-0.00019125,-0.00001070,0.00013439,0.00000328,0.00001285,-0.
 00003788,0.00045400,0.00039832,-0.00049445,-0.00003455,-0.00014832,0.0
 0027243,-0.00003388,-0.00024330,0.00005644,-0.00096261,0.00081376,-0.0
 0017776,-0.00065314,-0.00057096,0.00147917,-0.00251964,0.00321719,-0.0
 0027820,0.00031353,0.00116152,0.00143898,0.00064778,0.00015544,0.00147
 880,-0.00108248,-0.00215467,0.01876908,0.00115874,-0.00266059,-0.00102
 366,-0.07737262,0.00266601,-0.08769907,0.00193192,-0.00088410,0.001344
 97,0.00046143,-0.00062507,-0.00003312,0.00007188,0.00011924,0.00041496
 ,0.00034542,-0.00047663,0.00002548,-0.00010419,-0.00006274,-0.00007552
 ,0.11633637,0.01107872,0.04198196,0.00024162,-0.00012076,0.00005205,-0
 .00003153,-0.00009990,-0.00015263,0.00004481,0.00004290,0.00010562,-0.
 00001636,-0.00001432,-0.00005010,-0.00002630,0.00005776,0.00004889,-0.
 00002189,-0.00002494,-0.00003499,0.00017511,0.00006813,0.00010428,-0.0
 0000191,-0.00003826,-0.00005788,0.00025057,0.00006839,-0.00055323,0.00
 051877,0.00024076,-0.00019047,-0.00024033,0.00013190,0.00088228,-0.000
 95979,0.00064892,-0.00019351,-0.00076362,-0.00045351,0.00055494,0.0000
 4114,-0.00126209,0.00145845,-0.00011797,0.00089400,0.00148670,0.000538
 86,-0.00027180,-0.00055101,0.00037089,-0.00157337,-0.00623976,0.000475
 14,0.00320887,0.00042086,-0.24203264,-0.16295169,-0.06902127,0.0029296
 0,0.01251077,0.00307410,-0.00003633,-0.00125210,-0.00027456,0.00093485
 ,0.00125603,0.00081809,0.00043975,0.00005170,0.00004734,-0.00016564,0.
 00004267,-0.00021753,-0.08913251,-0.06583149,-0.03927384,0.32658570,0.
 00006585,-0.00011880,0.00013040,-0.00024849,0.00007507,-0.00004186,-0.
 00004359,-0.00006204,0.00012096,-0.00000604,-0.00002169,-0.00002499,-0
 .00006113,0.00022149,0.00001156,0.00001842,0.00000025,-0.00006752,0.00
 044089,0.00029836,-0.00007999,0.00006555,-0.00000540,-0.00012021,-0.00
 004998,0.00008654,-0.00043986,0.00033584,0.00081246,-0.00035038,-0.001
 48244,-0.00050163,0.00218763,-0.00146069,-0.00149506,-0.00059617,-0.00
 058406,-0.00053687,0.00013393,0.00096392,-0.00528290,0.00258126,-0.000
 05403,0.00024667,0.00025927,0.00090000,0.00000966,-0.00263220,-0.01955
 207,-0.04883141,-0.01985146,0.00283043,-0.00563675,-0.00168683,-0.1565
 5693,-0.33079399,-0.08842608,0.00173980,-0.00174311,-0.00162082,-0.000
 04906,-0.00122856,-0.00027206,-0.00050304,-0.00184085,0.00045654,0.002
 11418,0.00261731,-0.00119556,0.00016043,-0.00032125,-0.00058659,-0.043
 65514,0.02208955,-0.01172240,0.21467141,0.37196295,-0.00004982,0.00014
 188,-0.00003338,-0.00001433,-0.00004525,-0.00002551,0.00024351,0.00001
 620,-0.00001931,0.00006463,-0.00002171,-0.00002579,0.00051129,-0.00012
 089,-0.00003147,0.00003525,-0.00001126,-0.00000839,-0.00050288,-0.0000
 3991,0.00009043,0.00000532,0.00003929,-0.00003201,0.00025277,0.0008515
 7,-0.00013661,-0.00119266,-0.00054170,0.00038075,-0.00000792,0.0002070
 7,-0.00117829,0.00035960,-0.00092829,-0.00034426,0.00008534,0.00011389
 ,0.00053289,-0.00107173,0.00428629,0.00072937,0.00000696,-0.00027419,0
 .00014460,0.00052664,0.00004737,0.00091761,-0.01202883,-0.01806501,0.0
 1546592,0.00243033,-0.00444766,-0.00133523,-0.06665788,-0.09069223,-0.
 12736747,0.00070037,0.00254803,0.00305887,0.00008666,-0.00303401,-0.00
 042314,0.00065534,0.00118575,0.00053107,-0.00007274,-0.00032782,0.0003
 0952,0.00003735,-0.00009586,0.00009182,-0.03215978,-0.01462497,0.02253
 014,0.10775717,0.12383342,0.08617785\\0.02612426,0.15978197,-0.0832334
 4,-0.02104207,-0.15982844,0.08492712,-0.14419866,0.07848187,-0.0126975
 7,0.14413991,-0.11068859,0.02718535,-0.15834750,-0.02919983,0.04974885
 ,0.16754486,0.04761956,-0.05963835,-0.04658074,-0.14435684,0.08180260,
 0.02542886,0.15976456,-0.08675711,0.02940491,0.00336479,-0.00536871,-0
 .01580359,-0.00964055,0.00487025,0.00258293,-0.00937572,0.00542891,0.1
 5938901,-0.05732868,-0.00551601,-0.17391414,0.05011188,0.01404574,0.05
 739547,0.11914407,0.06471468,-0.11701881,-0.00865058,-0.04456011,0.062
 77809,-0.11016931,-0.02180959,0.08626730,0.08470531,-0.02937512,-0.070
 77794,-0.08313538,0.03754177,0.02481998,0.06120289,0.02103950,-0.08447
 580,0.12141526,-0.07743567,-0.01261990,-0.04505856,0.14126603,0.092968
 57,-0.08819499,-0.07624841,0.03986235,-0.18417403,0.08798292,-0.038476
 53,0.20081124,-0.09559167,-0.02489487,-0.02057664,-0.01376725,-0.01055
 596,-0.02602526,-0.00855471\\\@
 The archive entry for this job was punched.

 Writing a WFNX file to "YIGWOB_Complex_5_Ligand_2_ON_Cu_oriented.wfx"


 SUCCESS IS NEVER CERTAIN,
 FAILURE IS NEVER FINAL.
 Job cpu time:       0 days  0 hours 25 minutes 18.5 seconds.
 Elapsed time:       0 days  0 hours 25 minutes 26.3 seconds.
 File lengths (MBytes):  RWF=    436 Int=      0 D2E=      0 Chk=     12 Scr=      8
 Normal termination of Gaussian 16 at Mon Mar  6 10:47:15 2023.
