 Entering Gaussian System, Link 0=g16
 Initial command:
 /ssoft/spack/external/gaussian/g16-C.01/avx2/g16/l1.exe "/scratch/lcmd/2316217/Gau-4008811.inp" -scrdir="/scratch/lcmd/2316217/"
 Entering Link 1 = /ssoft/spack/external/gaussian/g16-C.01/avx2/g16/l1.exe PID=   4008812.
  
 Copyright (c) 1988-2019, Gaussian, Inc.  All Rights Reserved.
  
 This is part of the Gaussian(R) 16 program.  It is based on
 the Gaussian(R) 09 system (copyright 2009, Gaussian, Inc.),
 the Gaussian(R) 03 system (copyright 2003, Gaussian, Inc.),
 the Gaussian(R) 98 system (copyright 1998, Gaussian, Inc.),
 the Gaussian(R) 94 system (copyright 1995, Gaussian, Inc.),
 the Gaussian 92(TM) system (copyright 1992, Gaussian, Inc.),
 the Gaussian 90(TM) system (copyright 1990, Gaussian, Inc.),
 the Gaussian 88(TM) system (copyright 1988, Gaussian, Inc.),
 the Gaussian 86(TM) system (copyright 1986, Carnegie Mellon
 University), and the Gaussian 82(TM) system (copyright 1983,
 Carnegie Mellon University). Gaussian is a federally registered
 trademark of Gaussian, Inc.
  
 This software contains proprietary and confidential information,
 including trade secrets, belonging to Gaussian, Inc.
  
 This software is provided under written license and may be
 used, copied, transmitted, or stored only in accord with that
 written license.
  
 The following legend is applicable only to US Government
 contracts under FAR:
  
                    RESTRICTED RIGHTS LEGEND
  
 Use, reproduction and disclosure by the US Government is
 subject to restrictions as set forth in subparagraphs (a)
 and (c) of the Commercial Computer Software - Restricted
 Rights clause in FAR 52.227-19.
  
 Gaussian, Inc.
 340 Quinnipiac St., Bldg. 40, Wallingford CT 06492
  
  
 ---------------------------------------------------------------
 Warning -- This program may not be used in any manner that
 competes with the business of Gaussian, Inc. or will provide
 assistance to any competitor of Gaussian, Inc.  The licensee
 of this program is prohibited from giving any competitor of
 Gaussian, Inc. access to this program.  By using this program,
 the user acknowledges that Gaussian, Inc. is engaged in the
 business of creating and licensing software in the field of
 computational chemistry and represents and warrants to the
 licensee that it is not a competitor of Gaussian, Inc. and that
 it will not use this program in any manner prohibited above.
 ---------------------------------------------------------------
  

 Cite this work as:
 Gaussian 16, Revision C.01,
 M. J. Frisch, G. W. Trucks, H. B. Schlegel, G. E. Scuseria, 
 M. A. Robb, J. R. Cheeseman, G. Scalmani, V. Barone, 
 G. A. Petersson, H. Nakatsuji, X. Li, M. Caricato, A. V. Marenich, 
 J. Bloino, B. G. Janesko, R. Gomperts, B. Mennucci, H. P. Hratchian, 
 J. V. Ortiz, A. F. Izmaylov, J. L. Sonnenberg, D. Williams-Young, 
 F. Ding, F. Lipparini, F. Egidi, J. Goings, B. Peng, A. Petrone, 
 T. Henderson, D. Ranasinghe, V. G. Zakrzewski, J. Gao, N. Rega, 
 G. Zheng, W. Liang, M. Hada, M. Ehara, K. Toyota, R. Fukuda, 
 J. Hasegawa, M. Ishida, T. Nakajima, Y. Honda, O. Kitao, H. Nakai, 
 T. Vreven, K. Throssell, J. A. Montgomery, Jr., J. E. Peralta, 
 F. Ogliaro, M. J. Bearpark, J. J. Heyd, E. N. Brothers, K. N. Kudin, 
 V. N. Staroverov, T. A. Keith, R. Kobayashi, J. Normand, 
 K. Raghavachari, A. P. Rendell, J. C. Burant, S. S. Iyengar, 
 J. Tomasi, M. Cossi, J. M. Millam, M. Klene, C. Adamo, R. Cammi, 
 J. W. Ochterski, R. L. Martin, K. Morokuma, O. Farkas, 
 J. B. Foresman, and D. J. Fox, Gaussian, Inc., Wallingford CT, 2019.
 
 ******************************************
 Gaussian 16:  ES64L-G16RevC.01  3-Jul-2019
                 4-Mar-2023 
 ******************************************
 %nprocshared=1
 Will use up to    1 processors via shared memory.
 %mem=8000MB
 %chk=YUHCEK_Complex_10_Ligand_1_NN_Cu_oriented.chk
 ----------------------------------------------------------------------
 #p pop=(regular,nbo,savenbos) freq=noraman def2svp empiricaldispersion
 =gd3bj output=wfx pbe1pbe
 ----------------------------------------------------------------------
 1/10=4,30=1,38=1/1,3;
 2/12=2,17=6,18=5,40=1/2;
 3/5=43,7=101,11=2,25=1,30=1,71=2,74=-13,124=41,140=1/1,2,3;
 4//1;
 5/5=2,38=5,98=1/2;
 8/6=4,10=90,11=11/1;
 11/6=1,8=1,9=11,15=111,16=1/1,2,10;
 10/6=1/2;
 6/28=1,40=1,73=1/1,7;
 7/8=1,10=1,25=1/1,2,3,16;
 1/10=4,30=1/3;
 99/6=200/99;
 Leave Link    1 at Sat Mar  4 11:42:55 2023, MaxMem=  1048576000 cpu:               0.0 elap:               0.1
 (Enter /ssoft/spack/external/gaussian/g16-C.01/avx2/g16/l101.exe)
 -----------------------------------------
 YUHCEK_Complex_10_Ligand_1_NN_Cu_oriented
 -----------------------------------------
 Symbolic Z-matrix:
 Charge =  0 Multiplicity = 1
 O                     1.58262   7.08334  -2.63766 
 O                     2.59714   6.35497   3.0577 
 N                    -0.81376   1.81497   0. 
 N                     1.68198   1.05193   0. 
 N                     2.46775   5.35804  -1.3879 
 H                     3.11431   5.11598  -1.93539 
 N                     0.57323   6.28136  -0.7262 
 H                    -0.11242   6.83245  -0.71081 
 N                     3.00561   5.4176    0.99417 
 H                     3.88315   5.48974   1.00126 
 N                     0.90272   5.7103    1.61481 
 H                     0.21958   5.87146   2.14601 
 C                    -2.11626   2.11717  -0.05283 
 C                    -2.56038   3.42868   0.00221 
 H                    -3.4902    3.61883  -0.04018 
 C                    -1.64768   4.46028   0.11957 
 H                    -1.94144   5.36208   0.17523 
 C                    -0.28195   4.14898   0.15424 
 C                     0.08588   2.81785   0.08442 
 C                     1.48798   2.38188   0.017 
 C                     2.52412   3.2922   -0.10328 
 C                     3.82027   2.79338  -0.28706 
 H                     4.55565   3.38648  -0.38054 
 C                     4.01114   1.42563  -0.3287 
 H                     4.88137   1.06719  -0.45989 
 C                     2.92126   0.57613  -0.17765 
 H                     3.05943  -0.36346  -0.20189 
 C                     2.2576    4.78025  -0.08259 
 C                     0.77915   5.23169   0.25501 
 C                     1.54851   6.3219   -1.67248 
 C                     2.20965   5.88351   1.97365 
 H                    -2.75258   1.41634  -0.1301 
 
 ITRead=  0  0  0  0  0  0  0  0  0  0  0  0  0  0  0  0  0  0  0  0
 ITRead=  0  0  0  0  0  0  0  0  0  0  0  0
 MicOpt= -1 -1 -1 -1 -1 -1 -1 -1 -1 -1 -1 -1 -1 -1 -1 -1 -1 -1 -1 -1
 MicOpt= -1 -1 -1 -1 -1 -1 -1 -1 -1 -1 -1 -1
 NAtoms=     32 NQM=       32 NQMF=       0 NMMI=      0 NMMIF=      0
                NMic=       0 NMicF=      0.
                    Isotopes and Nuclear Properties:
 (Nuclear quadrupole moments (NQMom) in fm**2, nuclear magnetic moments (NMagM)
  in nuclear magnetons)

  Atom         1           2           3           4           5           6           7           8           9          10
 IAtWgt=          16          16          14          14          14           1          14           1          14           1
 AtmWgt=  15.9949146  15.9949146  14.0030740  14.0030740  14.0030740   1.0078250  14.0030740   1.0078250  14.0030740   1.0078250
 NucSpn=           0           0           2           2           2           1           2           1           2           1
 AtZEff=  -0.0000000  -0.0000000  -0.0000000  -0.0000000  -0.0000000  -0.0000000  -0.0000000  -0.0000000  -0.0000000  -0.0000000
 NQMom=    0.0000000   0.0000000   2.0440000   2.0440000   2.0440000   0.0000000   2.0440000   0.0000000   2.0440000   0.0000000
 NMagM=    0.0000000   0.0000000   0.4037610   0.4037610   0.4037610   2.7928460   0.4037610   2.7928460   0.4037610   2.7928460
 AtZNuc=   8.0000000   8.0000000   7.0000000   7.0000000   7.0000000   1.0000000   7.0000000   1.0000000   7.0000000   1.0000000

  Atom        11          12          13          14          15          16          17          18          19          20
 IAtWgt=          14           1          12          12           1          12           1          12          12          12
 AtmWgt=  14.0030740   1.0078250  12.0000000  12.0000000   1.0078250  12.0000000   1.0078250  12.0000000  12.0000000  12.0000000
 NucSpn=           2           1           0           0           1           0           1           0           0           0
 AtZEff=  -0.0000000  -0.0000000  -0.0000000  -0.0000000  -0.0000000  -0.0000000  -0.0000000  -0.0000000  -0.0000000  -0.0000000
 NQMom=    2.0440000   0.0000000   0.0000000   0.0000000   0.0000000   0.0000000   0.0000000   0.0000000   0.0000000   0.0000000
 NMagM=    0.4037610   2.7928460   0.0000000   0.0000000   2.7928460   0.0000000   2.7928460   0.0000000   0.0000000   0.0000000
 AtZNuc=   7.0000000   1.0000000   6.0000000   6.0000000   1.0000000   6.0000000   1.0000000   6.0000000   6.0000000   6.0000000

  Atom        21          22          23          24          25          26          27          28          29          30
 IAtWgt=          12          12           1          12           1          12           1          12          12          12
 AtmWgt=  12.0000000  12.0000000   1.0078250  12.0000000   1.0078250  12.0000000   1.0078250  12.0000000  12.0000000  12.0000000
 NucSpn=           0           0           1           0           1           0           1           0           0           0
 AtZEff=  -0.0000000  -0.0000000  -0.0000000  -0.0000000  -0.0000000  -0.0000000  -0.0000000  -0.0000000  -0.0000000  -0.0000000
 NQMom=    0.0000000   0.0000000   0.0000000   0.0000000   0.0000000   0.0000000   0.0000000   0.0000000   0.0000000   0.0000000
 NMagM=    0.0000000   0.0000000   2.7928460   0.0000000   2.7928460   0.0000000   2.7928460   0.0000000   0.0000000   0.0000000
 AtZNuc=   6.0000000   6.0000000   1.0000000   6.0000000   1.0000000   6.0000000   1.0000000   6.0000000   6.0000000   6.0000000

  Atom        31          32
 IAtWgt=          12           1
 AtmWgt=  12.0000000   1.0078250
 NucSpn=           0           1
 AtZEff=  -0.0000000  -0.0000000
 NQMom=    0.0000000   0.0000000
 NMagM=    0.0000000   2.7928460
 AtZNuc=   6.0000000   1.0000000
 Leave Link  101 at Sat Mar  4 11:42:55 2023, MaxMem=  1048576000 cpu:               0.1 elap:               0.1
 (Enter /ssoft/spack/external/gaussian/g16-C.01/avx2/g16/l103.exe)

 GradGradGradGradGradGradGradGradGradGradGradGradGradGradGradGradGradGrad
 Berny optimization.
 Initialization pass.
 Trust Radius=3.00D-01 FncErr=1.00D-07 GrdErr=1.00D-07 EigMax=2.50D+02 EigMin=1.00D-04
 Number of steps in this run=      2 maximum allowed number of steps=      2.
 GradGradGradGradGradGradGradGradGradGradGradGradGradGradGradGradGradGrad

 Leave Link  103 at Sat Mar  4 11:42:55 2023, MaxMem=  1048576000 cpu:               0.0 elap:               0.0
 (Enter /ssoft/spack/external/gaussian/g16-C.01/avx2/g16/l202.exe)
                          Input orientation:                          
 ---------------------------------------------------------------------
 Center     Atomic      Atomic             Coordinates (Angstroms)
 Number     Number       Type             X           Y           Z
 ---------------------------------------------------------------------
      1          8           0        1.582623    7.083337   -2.637661
      2          8           0        2.597142    6.354972    3.057695
      3          7           0       -0.813757    1.814968    0.000000
      4          7           0        1.681979    1.051926    0.000000
      5          7           0        2.467749    5.358037   -1.387900
      6          1           0        3.114311    5.115982   -1.935387
      7          7           0        0.573226    6.281359   -0.726198
      8          1           0       -0.112424    6.832449   -0.710808
      9          7           0        3.005613    5.417601    0.994170
     10          1           0        3.883152    5.489745    1.001257
     11          7           0        0.902720    5.710297    1.614810
     12          1           0        0.219583    5.871460    2.146013
     13          6           0       -2.116263    2.117170   -0.052829
     14          6           0       -2.560376    3.428678    0.002205
     15          1           0       -3.490204    3.618831   -0.040182
     16          6           0       -1.647684    4.460278    0.119572
     17          1           0       -1.941445    5.362082    0.175229
     18          6           0       -0.281953    4.148982    0.154240
     19          6           0        0.085880    2.817853    0.084424
     20          6           0        1.487978    2.381880    0.017005
     21          6           0        2.524121    3.292200   -0.103284
     22          6           0        3.820265    2.793384   -0.287059
     23          1           0        4.555655    3.386478   -0.380544
     24          6           0        4.011135    1.425626   -0.328701
     25          1           0        4.881373    1.067187   -0.459888
     26          6           0        2.921260    0.576133   -0.177646
     27          1           0        3.059435   -0.363461   -0.201893
     28          6           0        2.257602    4.780251   -0.082587
     29          6           0        0.779148    5.231691    0.255012
     30          6           0        1.548505    6.321898   -1.672481
     31          6           0        2.209645    5.883509    1.973646
     32          1           0       -2.752581    1.416340   -0.130102
 ---------------------------------------------------------------------
                    Distance matrix (angstroms):
                    1          2          3          4          5
     1  O    0.000000
     2  O    5.830682   0.000000
     3  N    6.360472   6.449447   0.000000
     4  N    6.583696   6.189452   2.609777   0.000000
     5  N    2.306949   4.557843   5.024728   4.591981   0.000000
     6  H    2.590317   5.170438   5.483807   4.723754   0.881121
     7  N    2.305589   4.291796   4.732835   5.394781   2.208980
     8  H    2.578544   4.665978   5.115880   6.094225   3.047890
     9  N    4.241435   2.302965   5.343681   4.668993   2.442765
    10  H    4.590609   2.575146   6.047103   5.053900   2.780069
    11  N    4.520068   2.317022   4.552746   4.991520   3.404360
    12  H    5.119576   2.591860   4.704072   5.474658   4.219762
    13  C    6.710137   7.060490   1.338147   3.945146   5.770512
    14  C    6.122898   6.670773   2.377970   4.862771   5.562092
    15  H    6.669579   7.357928   3.227833   5.774262   6.351251
    16  C    4.991759   5.499180   2.776220   4.766321   4.473839
    17  H    4.826398   5.467469   3.726178   5.633591   4.678074
    18  C    4.458900   4.646034   2.398797   3.670501   3.376518
    19  C    5.276774   5.259087   1.349908   2.381839   3.780684
    20  C    5.399991   5.124598   2.370583   1.344137   3.433834
    21  C    4.656416   4.402010   3.651618   2.395558   2.433331
    22  C    5.379226   5.036697   4.744878   2.772606   3.101386
    23  H    5.253595   4.946637   5.607588   3.721956   3.043215
    24  C    6.575611   6.145365   4.851723   2.381735   4.355204
    25  H    7.198508   6.749205   5.762394   3.232313   5.009809
    26  C    7.084301   6.630796   3.939114   1.339311   4.953483
    27  H    7.973001   7.481709   4.448363   1.985312   5.873010
    28  C    3.505453   3.529364   4.270008   3.773403   1.442858
    29  C    3.527283   3.524472   3.778408   4.283756   2.359342
    30  C    1.229848   4.845132   5.356294   5.530607   1.361992
    31  C    4.805923   1.244024   5.439601   5.245750   3.412144
    32  H    7.562850   7.948061   1.983650   4.451410   6.661147
                    6          7          8          9         10
     6  H    0.000000
     7  N    3.045875   0.000000
     8  H    3.854564   0.879802   0.000000
     9  N    2.947048   3.101976   3.825036   0.000000
    10  H    3.058545   3.816591   4.549577   0.880528   0.000000
    11  N    4.224718   2.432077   2.774571   2.212018   3.050912
    12  H    5.060437   2.922786   3.032352   3.048720   3.857189
    13  C    6.316312   5.002724   5.165478   6.182448   6.962639
    14  C    6.229232   4.299747   4.252825   5.993334   6.838506
    15  H    7.032274   4.906234   4.710253   6.819171   7.677975
    16  C    5.227753   2.994011   2.945123   4.830586   5.694498
    17  H    5.484152   2.825103   2.508457   5.014691   5.884262
    18  C    4.103199   2.460392   2.824543   3.622564   4.456813
    19  C    4.304931   3.590333   4.097402   4.013872   4.732743
    20  C    3.732573   4.073703   4.785244   3.531808   4.045297
    21  C    2.651624   3.623408   4.455762   2.439994   2.810014
    22  C    2.934249   4.785611   5.653287   3.031785   2.988992
    23  H    2.736091   4.935540   5.811604   2.901367   2.604873
    24  C    4.123647   5.962832   6.810542   4.323995   4.278111
    25  H    4.657505   6.768947   7.631462   4.955690   4.763445
    26  C    4.872079   6.193849   6.973448   4.981975   5.143795
    27  H    5.747374   7.114054   7.880406   5.903740   6.032089
    28  C    2.068703   2.346206   3.197374   1.457786   2.078584
    29  C    3.203782   1.451544   2.071264   2.353309   3.202860
    30  C    1.993765   1.359509   1.985991   3.170480   3.645810
    31  C    4.085101   3.182029   3.674069   1.345365   1.975149
    32  H    7.167065   5.923236   6.053254   7.101470   7.868008
                   11         12         13         14         15
    11  N    0.000000
    12  H    0.880242   0.000000
    13  C    4.980547   4.938196   0.000000
    14  C    4.449642   4.276830   1.385756   0.000000
    15  H    5.139165   4.859661   2.035402   0.950018   0.000000
    16  C    3.209804   3.095898   2.395714   1.382383   2.031855
    17  H    3.206699   2.968754   3.257611   2.037416   2.341790
    18  C    2.444263   2.680602   2.745147   2.394403   3.257566
    19  C    3.372765   3.686807   2.315001   2.717083   3.666807
    20  C    3.738164   4.280032   3.614624   4.181528   5.129875
    21  C    3.380529   4.125871   4.787108   5.087422   6.023518
    22  C    4.542857   5.325345   5.979506   6.418712   7.361065
    23  H    4.767127   5.600013   6.799487   7.126442   8.056406
    24  C    5.638961   6.345512   6.172467   6.877971   7.820709
    25  H    6.456975   7.183596   7.087670   7.821113   8.761869
    26  C    5.800607   6.382706   5.269441   6.182046   7.098153
    27  H    6.696444   7.242352   5.741393   6.782643   7.666979
    28  C    2.362593   3.211062   5.120897   5.004683   5.864126
    29  C    1.446853   2.073235   4.263615   3.803576   4.573382
    30  C    3.405492   4.068148   5.808058   5.296999   5.946391
    31  C    1.366316   1.997549   6.083206   5.715407   6.455428
    32  H    5.902882   5.819154   0.949755   2.025821   2.324466
                   16         17         18         19         20
    16  C    0.000000
    17  H    0.950076   0.000000
    18  C    1.401187   2.055714   0.000000
    19  C    2.388313   3.254442   1.382781   0.000000
    20  C    3.763327   4.546161   2.504824   1.469863   0.000000
    21  C    4.337975   4.929833   2.945241   2.491035   1.384464
    22  C    5.730825   6.325284   4.342878   3.752896   2.387751
    23  H    6.315423   6.813530   4.926445   4.529726   3.252368
    24  C    6.436792   7.154218   5.106908   4.185283   2.720341
    25  H    7.380882   8.087047   6.044382   5.133990   3.670282
    26  C    6.004179   6.831963   4.809987   3.623998   2.313635
    27  H    6.747500   7.611364   5.626176   4.364030   3.170850
    28  C    3.923584   4.246997   2.627533   2.931770   2.520798
    29  C    2.550085   2.724883   1.519325   2.517208   2.946270
    30  C    4.110074   4.063869   3.377728   4.183816   4.287396
    31  C    4.510229   4.553870   3.539334   4.180644   4.075616
    32  H    3.247875   4.039808   3.694886   3.172873   4.351580
                   21         22         23         24         25
    21  C    0.000000
    22  C    1.400922   0.000000
    23  H    2.052533   0.949367   0.000000
    24  C    2.397107   1.381640   2.035714   0.000000
    25  H    3.261056   2.033612   2.343395   0.950264   0.000000
    26  C    2.745955   2.395075   3.257369   1.390066   2.040303
    27  H    3.695963   3.248352   4.041365   2.030430   2.330831
    28  C    1.511872   2.536014   2.704150   3.793278   4.562168
    29  C    2.633426   3.935426   4.250970   5.027185   5.889179
    30  C    3.548700   4.419355   4.396446   5.643028   6.339588
    31  C    3.335777   4.153763   4.157058   5.330937   6.021393
    32  H    5.600281   6.717380   7.573274   6.766637   7.649047
                   26         27         28         29         30
    26  C    0.000000
    27  H    0.950009   0.000000
    28  C    4.257239   5.207201   0.000000
    29  C    5.142961   6.059224   1.582276   0.000000
    30  C    6.093668   7.009961   2.325351   2.344289   0.000000
    31  C    5.770848   6.669313   2.334003   2.329140   3.731425
    32  H    5.735911   6.078846   6.034906   5.213283   6.703937
                   31         32
    31  C    0.000000
    32  H    7.000360   0.000000
 Stoichiometry    C14H10N6O2
 Framework group  C1[X(C14H10N6O2)]
 Deg. of freedom    90
 Full point group                 C1      NOp   1
 Largest Abelian subgroup         C1      NOp   1
 Largest concise Abelian subgroup C1      NOp   1
                         Standard orientation:                         
 ---------------------------------------------------------------------
 Center     Atomic      Atomic             Coordinates (Angstroms)
 Number     Number       Type             X           Y           Z
 ---------------------------------------------------------------------
      1          8           0        2.831471    0.648962   -2.783775
      2          8           0        2.686235   -0.686848    2.889969
      3          7           0       -2.793531    1.282304    0.116887
      4          7           0       -2.774527   -1.326478    0.047386
      5          7           0        1.505433   -0.745987   -1.511866
      6          1           0        1.444437   -1.420767   -2.075183
      7          7           0        1.847560    1.320290   -0.809698
      8          1           0        2.168504    2.139139   -0.786593
      9          7           0        1.825822   -1.303570    0.844732
     10          1           0        2.157338   -2.118803    0.816047
     11          7           0        1.502714    0.773071    1.534791
     12          1           0        1.474958    1.458860    2.085927
     13          6           0       -2.897264    2.616358    0.103592
     14          6           0       -1.777501    3.432235    0.131811
     15          1           0       -1.876141    4.377025    0.118503
     16          6           0       -0.516106    2.868729    0.180011
     17          1           0        0.258095    3.418189    0.216765
     18          6           0       -0.402917    1.472138    0.173066
     19          6           0       -1.564834    0.723488    0.133638
     20          6           0       -1.564022   -0.742538    0.027501
     21          6           0       -0.391570   -1.453925   -0.162310
     22          6           0       -0.487370   -2.834740   -0.378534
     23          1           0        0.293896   -3.355340   -0.519589
     24          6           0       -1.735912   -3.426400   -0.381878
     25          1           0       -1.823001   -4.360348   -0.534059
     26          6           0       -2.865122   -2.646322   -0.161321
     27          1           0       -3.720521   -3.059610   -0.159533
     28          6           0        0.948114   -0.753458   -0.181009
     29          6           0        0.950866    0.782913    0.197350
     30          6           0        2.137054    0.427439   -1.793200
     31          6           0        2.074160   -0.430466    1.837719
     32          1           0       -3.758967    3.014630    0.073924
 ---------------------------------------------------------------------
 Rotational constants (GHZ):           0.3650912           0.3208190           0.2425200
 Leave Link  202 at Sat Mar  4 11:42:55 2023, MaxMem=  1048576000 cpu:               0.0 elap:               0.0
 (Enter /ssoft/spack/external/gaussian/g16-C.01/avx2/g16/l301.exe)
 Standard basis: def2SVP (5D, 7F)
 Ernie: Thresh=  0.10000D-02 Tol=  0.10000D-05 Strict=F.
 There are   380 symmetry adapted cartesian basis functions of A   symmetry.
 There are   358 symmetry adapted basis functions of A   symmetry.
   358 basis functions,   620 primitive gaussians,   380 cartesian basis functions
    76 alpha electrons       76 beta electrons
       nuclear repulsion energy      1823.8056060671 Hartrees.
 IExCor= 1009 DFT=T Ex+Corr=PBE1PBE ExCW=0 ScaHFX=  0.250000
 ScaDFX=  0.750000  0.750000  1.000000  1.000000 ScalE2=  1.000000  1.000000
 IRadAn=      5 IRanWt=     -1 IRanGd=            0 ICorTp=0 IEmpDi=141
 NAtoms=   32 NActive=   32 NUniq=   32 SFac= 1.00D+00 NAtFMM=   60 NAOKFM=F Big=F
 Integral buffers will be    131072 words long.
 Raffenetti 2 integral format.
 Two-electron integral symmetry is turned on.
 R6Disp:  Grimme-D3(BJ) Dispersion energy=       -0.0447697917 Hartrees.
 Nuclear repulsion after empirical dispersion term =     1823.7608362754 Hartrees.
 Leave Link  301 at Sat Mar  4 11:42:55 2023, MaxMem=  1048576000 cpu:               0.0 elap:               0.0
 (Enter /ssoft/spack/external/gaussian/g16-C.01/avx2/g16/l302.exe)
 NPDir=0 NMtPBC=     1 NCelOv=     1 NCel=       1 NClECP=     1 NCelD=      1
         NCelK=      1 NCelE2=     1 NClLst=     1 CellRange=     0.0.
 One-electron integrals computed using PRISM.
 One-electron integral symmetry used in STVInt
   1 Symmetry operations used in ECPInt.
 ECPInt:  NShTT=   13203 NPrTT=   49771 LenC2=   12412 LenP2D=   32725.
 LDataN:  DoStor=T MaxTD1= 4 Len=   56
 NBasis=   358 RedAO= T EigKep=  1.20D-04  NBF=   358
 NBsUse=   358 1.00D-06 EigRej= -1.00D+00 NBFU=   358
 Precomputing XC quadrature grid using
 IXCGrd= 4 IRadAn=           5 IRanWt=          -1 IRanGd=           0 AccXCQ= 0.00D+00.
 Generated NRdTot=       0 NPtTot=           0 NUsed=           0 NTot=          32
 NSgBfM=   378   378   378   378   378 MxSgAt=    32 MxSgA2=    32.
 Leave Link  302 at Sat Mar  4 11:42:56 2023, MaxMem=  1048576000 cpu:               1.0 elap:               1.0
 (Enter /ssoft/spack/external/gaussian/g16-C.01/avx2/g16/l303.exe)
 DipDrv:  MaxL=1.
 Leave Link  303 at Sat Mar  4 11:42:56 2023, MaxMem=  1048576000 cpu:               0.0 elap:               0.1
 (Enter /ssoft/spack/external/gaussian/g16-C.01/avx2/g16/l401.exe)
 ExpMin= 1.22D-01 ExpMax= 2.27D+03 ExpMxC= 3.41D+02 IAcc=3 IRadAn=         5 AccDes= 0.00D+00
 Harris functional with IExCor= 1009 and IRadAn=       5 diagonalized for initial guess.
 HarFok:  IExCor= 1009 AccDes= 0.00D+00 IRadAn=         5 IDoV= 1 UseB2=F ITyADJ=14
 ICtDFT=  3500011 ScaDFX=  1.000000  1.000000  1.000000  1.000000
 FoFCou: FMM=F IPFlag=           0 FMFlag=      100000 FMFlg1=           0
         NFxFlg=           0 DoJE=T BraDBF=F KetDBF=T FulRan=T
         wScrn=  0.000000 ICntrl=       500 IOpCl=  0 I1Cent=   200000004 NGrid=           0
         NMat0=    1 NMatS0=      1 NMatT0=    0 NMatD0=    1 NMtDS0=    0 NMtDT0=    0
 Petite list used in FoFCou.
 Harris En= -1016.70822607826    
 JPrj=0 DoOrth=F DoCkMO=F.
 Leave Link  401 at Sat Mar  4 11:43:05 2023, MaxMem=  1048576000 cpu:               8.9 elap:               8.9
 (Enter /ssoft/spack/external/gaussian/g16-C.01/avx2/g16/l502.exe)
 Integral symmetry usage will be decided dynamically.
 Closed shell SCF:
 Using DIIS extrapolation, IDIIS=  1040.
 NGot=  1048576000 LenX=  1048280226 LenY=  1048135385
 Requested convergence on RMS density matrix=1.00D-08 within 128 cycles.
 Requested convergence on MAX density matrix=1.00D-06.
 Requested convergence on             energy=1.00D-06.
 No special actions if energy rises.
 Fock matrices will be formed incrementally for  20 cycles.
 Integral accuracy reduced to 1.0D-05 until final iterations.

 Cycle   1  Pass 0  IDiag  1:
 FoFJK:  IHMeth= 1 ICntrl=       0 DoSepK=F KAlg= 0 I1Cent=           0 FoldK=F
 IRaf= 880000000 NMat=       1 IRICut=       1 DoRegI=T DoRafI=F ISym2E= 0 IDoP0=0 IntGTp=1.
 FoFCou: FMM=F IPFlag=           0 FMFlag=      100000 FMFlg1=           0
         NFxFlg=           0 DoJE=F BraDBF=F KetDBF=F FulRan=T
         wScrn=  0.000000 ICntrl=         0 IOpCl=  0 I1Cent=           0 NGrid=           0
         NMat0=    1 NMatS0=      1 NMatT0=    0 NMatD0=    1 NMtDS0=    0 NMtDT0=    0
 Symmetry not used in FoFCou.
 E= -1016.10614056408    
 DIIS: error= 3.15D-02 at cycle   1 NSaved=   1.
 NSaved= 1 IEnMin= 1 EnMin= -1016.10614056408     IErMin= 1 ErrMin= 3.15D-02
 ErrMax= 3.15D-02  0.00D+00 EMaxC= 1.00D-01 BMatC= 4.68D-01 BMatP= 4.68D-01
 IDIUse=3 WtCom= 6.85D-01 WtEn= 3.15D-01
 Coeff-Com:  0.100D+01
 Coeff-En:   0.100D+01
 Coeff:      0.100D+01
 Gap=     0.239 Goal=   None    Shift=    0.000
 GapD=    0.239 DampG=1.000 DampE=0.500 DampFc=0.5000 IDamp=-1.
 Damping current iteration by 5.00D-01
 RMSDP=6.78D-03 MaxDP=3.67D-01              OVMax= 3.18D-01

 Cycle   2  Pass 0  IDiag  1:
 RMSU=  3.37D-03    CP:  9.84D-01
 E= -1016.19151354369     Delta-E=       -0.085372979605 Rises=F Damp=T
 DIIS: error= 1.95D-02 at cycle   2 NSaved=   2.
 NSaved= 2 IEnMin= 2 EnMin= -1016.19151354369     IErMin= 2 ErrMin= 1.95D-02
 ErrMax= 1.95D-02  0.00D+00 EMaxC= 1.00D-01 BMatC= 9.94D-02 BMatP= 4.68D-01
 IDIUse=3 WtCom= 8.05D-01 WtEn= 1.95D-01
 Coeff-Com:  0.240D+00 0.760D+00
 Coeff-En:   0.386D+00 0.614D+00
 Coeff:      0.269D+00 0.731D+00
 Gap=     0.247 Goal=   None    Shift=    0.000
 RMSDP=2.69D-03 MaxDP=1.29D-01 DE=-8.54D-02 OVMax= 2.34D-01

 Cycle   3  Pass 0  IDiag  1:
 RMSU=  2.43D-03    CP:  9.51D-01  7.22D-01
 E= -1016.45228775845     Delta-E=       -0.260774214767 Rises=F Damp=F
 DIIS: error= 1.90D-02 at cycle   3 NSaved=   3.
 NSaved= 3 IEnMin= 3 EnMin= -1016.45228775845     IErMin= 3 ErrMin= 1.90D-02
 ErrMax= 1.90D-02  0.00D+00 EMaxC= 1.00D-01 BMatC= 7.23D-02 BMatP= 9.94D-02
 IDIUse=3 WtCom= 8.10D-01 WtEn= 1.90D-01
 Coeff-Com:  0.513D-01 0.450D+00 0.499D+00
 Coeff-En:   0.000D+00 0.000D+00 0.100D+01
 Coeff:      0.415D-01 0.364D+00 0.594D+00
 Gap=     0.201 Goal=   None    Shift=    0.000
 RMSDP=1.55D-03 MaxDP=4.08D-02 DE=-2.61D-01 OVMax= 8.18D-02

 Cycle   4  Pass 0  IDiag  1:
 RMSU=  9.39D-04    CP:  9.60D-01  9.34D-01  5.93D-01
 E= -1016.50292079823     Delta-E=       -0.050633039775 Rises=F Damp=F
 DIIS: error= 9.29D-03 at cycle   4 NSaved=   4.
 NSaved= 4 IEnMin= 4 EnMin= -1016.50292079823     IErMin= 4 ErrMin= 9.29D-03
 ErrMax= 9.29D-03  0.00D+00 EMaxC= 1.00D-01 BMatC= 1.76D-02 BMatP= 7.23D-02
 IDIUse=3 WtCom= 9.07D-01 WtEn= 9.29D-02
 Coeff-Com:  0.170D-01 0.815D-01 0.340D+00 0.561D+00
 Coeff-En:   0.000D+00 0.000D+00 0.223D+00 0.777D+00
 Coeff:      0.154D-01 0.740D-01 0.329D+00 0.581D+00
 Gap=     0.193 Goal=   None    Shift=    0.000
 RMSDP=5.51D-04 MaxDP=1.56D-02 DE=-5.06D-02 OVMax= 2.96D-02

 Cycle   5  Pass 0  IDiag  1:
 RMSU=  2.35D-04    CP:  9.57D-01  8.41D-01  7.04D-01  7.07D-01
 E= -1016.51767937210     Delta-E=       -0.014758573876 Rises=F Damp=F
 DIIS: error= 1.32D-03 at cycle   5 NSaved=   5.
 NSaved= 5 IEnMin= 5 EnMin= -1016.51767937210     IErMin= 5 ErrMin= 1.32D-03
 ErrMax= 1.32D-03  0.00D+00 EMaxC= 1.00D-01 BMatC= 7.55D-04 BMatP= 1.76D-02
 IDIUse=3 WtCom= 9.87D-01 WtEn= 1.32D-02
 Coeff-Com:  0.398D-02 0.112D-01 0.134D+00 0.311D+00 0.540D+00
 Coeff-En:   0.000D+00 0.000D+00 0.000D+00 0.000D+00 0.100D+01
 Coeff:      0.393D-02 0.111D-01 0.132D+00 0.307D+00 0.546D+00
 Gap=     0.189 Goal=   None    Shift=    0.000
 RMSDP=1.35D-04 MaxDP=4.06D-03 DE=-1.48D-02 OVMax= 1.06D-02

 Cycle   6  Pass 0  IDiag  1:
 RMSU=  7.55D-05    CP:  9.57D-01  8.52D-01  7.06D-01  7.31D-01  5.63D-01
 E= -1016.51833526917     Delta-E=       -0.000655897064 Rises=F Damp=F
 DIIS: error= 5.68D-04 at cycle   6 NSaved=   6.
 NSaved= 6 IEnMin= 6 EnMin= -1016.51833526917     IErMin= 6 ErrMin= 5.68D-04
 ErrMax= 5.68D-04  0.00D+00 EMaxC= 1.00D-01 BMatC= 1.41D-04 BMatP= 7.55D-04
 IDIUse=3 WtCom= 9.94D-01 WtEn= 5.68D-03
 Coeff-Com:  0.519D-03-0.226D-02 0.442D-01 0.126D+00 0.352D+00 0.480D+00
 Coeff-En:   0.000D+00 0.000D+00 0.000D+00 0.000D+00 0.160D+00 0.840D+00
 Coeff:      0.516D-03-0.224D-02 0.439D-01 0.125D+00 0.351D+00 0.482D+00
 Gap=     0.189 Goal=   None    Shift=    0.000
 RMSDP=5.00D-05 MaxDP=1.81D-03 DE=-6.56D-04 OVMax= 4.01D-03

 Cycle   7  Pass 0  IDiag  1:
 RMSU=  2.66D-05    CP:  9.57D-01  8.50D-01  7.08D-01  7.22D-01  6.76D-01
                    CP:  6.01D-01
 E= -1016.51847676730     Delta-E=       -0.000141498134 Rises=F Damp=F
 DIIS: error= 1.30D-04 at cycle   7 NSaved=   7.
 NSaved= 7 IEnMin= 7 EnMin= -1016.51847676730     IErMin= 7 ErrMin= 1.30D-04
 ErrMax= 1.30D-04  0.00D+00 EMaxC= 1.00D-01 BMatC= 8.30D-06 BMatP= 1.41D-04
 IDIUse=3 WtCom= 9.99D-01 WtEn= 1.30D-03
 Coeff-Com: -0.188D-03-0.231D-02 0.101D-01 0.335D-01 0.134D+00 0.264D+00
 Coeff-Com:  0.561D+00
 Coeff-En:   0.000D+00 0.000D+00 0.000D+00 0.000D+00 0.000D+00 0.000D+00
 Coeff-En:   0.100D+01
 Coeff:     -0.187D-03-0.231D-02 0.101D-01 0.335D-01 0.133D+00 0.264D+00
 Coeff:      0.562D+00
 Gap=     0.189 Goal=   None    Shift=    0.000
 RMSDP=1.28D-05 MaxDP=4.09D-04 DE=-1.41D-04 OVMax= 6.76D-04

 Cycle   8  Pass 0  IDiag  1:
 RMSU=  5.94D-06    CP:  9.57D-01  8.51D-01  7.08D-01  7.27D-01  6.67D-01
                    CP:  6.04D-01  6.27D-01
 E= -1016.51848428646     Delta-E=       -0.000007519152 Rises=F Damp=F
 DIIS: error= 2.72D-05 at cycle   8 NSaved=   8.
 NSaved= 8 IEnMin= 8 EnMin= -1016.51848428646     IErMin= 8 ErrMin= 2.72D-05
 ErrMax= 2.72D-05  0.00D+00 EMaxC= 1.00D-01 BMatC= 4.45D-07 BMatP= 8.30D-06
 IDIUse=1 WtCom= 1.00D+00 WtEn= 0.00D+00
 Coeff-Com: -0.127D-03-0.976D-03 0.253D-02 0.888D-02 0.469D-01 0.108D+00
 Coeff-Com:  0.275D+00 0.560D+00
 Coeff:     -0.127D-03-0.976D-03 0.253D-02 0.888D-02 0.469D-01 0.108D+00
 Coeff:      0.275D+00 0.560D+00
 Gap=     0.189 Goal=   None    Shift=    0.000
 RMSDP=3.09D-06 MaxDP=1.03D-04 DE=-7.52D-06 OVMax= 2.24D-04

 Initial convergence to 1.0D-05 achieved.  Increase integral accuracy.
 Cycle   9  Pass 1  IDiag  1:
 E= -1016.51847838856     Delta-E=        0.000005897891 Rises=F Damp=F
 DIIS: error= 1.16D-04 at cycle   1 NSaved=   1.
 NSaved= 1 IEnMin= 1 EnMin= -1016.51847838856     IErMin= 1 ErrMin= 1.16D-04
 ErrMax= 1.16D-04  0.00D+00 EMaxC= 1.00D-01 BMatC= 2.08D-06 BMatP= 2.08D-06
 IDIUse=3 WtCom= 9.99D-01 WtEn= 1.16D-03
 Coeff-Com:  0.100D+01
 Coeff-En:   0.100D+01
 Coeff:      0.100D+01
 Gap=     0.189 Goal=   None    Shift=    0.000
 RMSDP=3.09D-06 MaxDP=1.03D-04 DE= 5.90D-06 OVMax= 2.64D-04

 Cycle  10  Pass 1  IDiag  1:
 RMSU=  1.05D-04    CP:  1.00D+00
 E= -1016.51847996824     Delta-E=       -0.000001579672 Rises=F Damp=F
 DIIS: error= 3.56D-05 at cycle   2 NSaved=   2.
 NSaved= 2 IEnMin= 2 EnMin= -1016.51847996824     IErMin= 2 ErrMin= 3.56D-05
 ErrMax= 3.56D-05  0.00D+00 EMaxC= 1.00D-01 BMatC= 3.30D-07 BMatP= 2.08D-06
 IDIUse=1 WtCom= 1.00D+00 WtEn= 0.00D+00
 Coeff-Com:  0.176D+00 0.824D+00
 Coeff:      0.176D+00 0.824D+00
 Gap=     0.189 Goal=   None    Shift=    0.000
 RMSDP=5.70D-06 MaxDP=1.43D-04 DE=-1.58D-06 OVMax= 4.19D-04

 Cycle  11  Pass 1  IDiag  1:
 RMSU=  5.35D-06    CP:  1.00D+00  1.02D+00
 E= -1016.51847951584     Delta-E=        0.000000452398 Rises=F Damp=F
 DIIS: error= 5.28D-05 at cycle   3 NSaved=   3.
 NSaved= 3 IEnMin= 2 EnMin= -1016.51847996824     IErMin= 2 ErrMin= 3.56D-05
 ErrMax= 5.28D-05  0.00D+00 EMaxC= 1.00D-01 BMatC= 7.49D-07 BMatP= 3.30D-07
 IDIUse=1 WtCom= 1.00D+00 WtEn= 0.00D+00
 Coeff-Com: -0.535D-02 0.604D+00 0.402D+00
 Coeff:     -0.535D-02 0.604D+00 0.402D+00
 Gap=     0.189 Goal=   None    Shift=    0.000
 RMSDP=3.26D-06 MaxDP=8.71D-05 DE= 4.52D-07 OVMax= 2.57D-04

 Cycle  12  Pass 1  IDiag  1:
 RMSU=  6.33D-07    CP:  1.00D+00  1.02D+00  4.08D-01
 E= -1016.51848031422     Delta-E=       -0.000000798377 Rises=F Damp=F
 DIIS: error= 3.69D-06 at cycle   4 NSaved=   4.
 NSaved= 4 IEnMin= 4 EnMin= -1016.51848031422     IErMin= 4 ErrMin= 3.69D-06
 ErrMax= 3.69D-06  0.00D+00 EMaxC= 1.00D-01 BMatC= 5.34D-09 BMatP= 3.30D-07
 IDIUse=1 WtCom= 1.00D+00 WtEn= 0.00D+00
 Coeff-Com: -0.493D-02 0.357D+00 0.242D+00 0.406D+00
 Coeff:     -0.493D-02 0.357D+00 0.242D+00 0.406D+00
 Gap=     0.189 Goal=   None    Shift=    0.000
 RMSDP=2.62D-07 MaxDP=8.56D-06 DE=-7.98D-07 OVMax= 1.50D-05

 Cycle  13  Pass 1  IDiag  1:
 RMSU=  2.05D-07    CP:  1.00D+00  1.02D+00  4.24D-01  7.87D-01
 E= -1016.51848031903     Delta-E=       -0.000000004814 Rises=F Damp=F
 DIIS: error= 8.90D-07 at cycle   5 NSaved=   5.
 NSaved= 5 IEnMin= 5 EnMin= -1016.51848031903     IErMin= 5 ErrMin= 8.90D-07
 ErrMax= 8.90D-07  0.00D+00 EMaxC= 1.00D-01 BMatC= 1.74D-10 BMatP= 5.34D-09
 IDIUse=1 WtCom= 1.00D+00 WtEn= 0.00D+00
 Coeff-Com: -0.235D-02 0.158D+00 0.108D+00 0.222D+00 0.514D+00
 Coeff:     -0.235D-02 0.158D+00 0.108D+00 0.222D+00 0.514D+00
 Gap=     0.189 Goal=   None    Shift=    0.000
 RMSDP=6.60D-08 MaxDP=2.53D-06 DE=-4.81D-09 OVMax= 2.87D-06

 Cycle  14  Pass 1  IDiag  1:
 RMSU=  5.59D-08    CP:  1.00D+00  1.02D+00  4.21D-01  8.00D-01  8.64D-01
 E= -1016.51848031917     Delta-E=       -0.000000000141 Rises=F Damp=F
 DIIS: error= 2.75D-07 at cycle   6 NSaved=   6.
 NSaved= 6 IEnMin= 6 EnMin= -1016.51848031917     IErMin= 6 ErrMin= 2.75D-07
 ErrMax= 2.75D-07  0.00D+00 EMaxC= 1.00D-01 BMatC= 1.95D-11 BMatP= 1.74D-10
 IDIUse=1 WtCom= 1.00D+00 WtEn= 0.00D+00
 Coeff-Com: -0.603D-03 0.367D-01 0.251D-01 0.671D-01 0.279D+00 0.593D+00
 Coeff:     -0.603D-03 0.367D-01 0.251D-01 0.671D-01 0.279D+00 0.593D+00
 Gap=     0.189 Goal=   None    Shift=    0.000
 RMSDP=2.16D-08 MaxDP=7.28D-07 DE=-1.41D-10 OVMax= 1.25D-06

 Cycle  15  Pass 1  IDiag  1:
 RMSU=  1.88D-08    CP:  1.00D+00  1.02D+00  4.21D-01  8.08D-01  8.86D-01
                    CP:  8.78D-01
 E= -1016.51848031916     Delta-E=        0.000000000006 Rises=F Damp=F
 DIIS: error= 7.76D-08 at cycle   7 NSaved=   7.
 NSaved= 7 IEnMin= 6 EnMin= -1016.51848031917     IErMin= 7 ErrMin= 7.76D-08
 ErrMax= 7.76D-08  0.00D+00 EMaxC= 1.00D-01 BMatC= 3.16D-12 BMatP= 1.95D-11
 IDIUse=1 WtCom= 1.00D+00 WtEn= 0.00D+00
 Coeff-Com:  0.919D-04-0.821D-02-0.556D-02-0.200D-02 0.595D-01 0.332D+00
 Coeff-Com:  0.624D+00
 Coeff:      0.919D-04-0.821D-02-0.556D-02-0.200D-02 0.595D-01 0.332D+00
 Coeff:      0.624D+00
 Gap=     0.189 Goal=   None    Shift=    0.000
 RMSDP=9.88D-09 MaxDP=2.75D-07 DE= 5.91D-12 OVMax= 7.70D-07

 SCF Done:  E(RPBE1PBE) =  -1016.51848032     A.U. after   15 cycles
            NFock= 15  Conv=0.99D-08     -V/T= 2.0067
 KE= 1.009798958218D+03 PE=-6.014510429118D+03 EE= 2.164432154305D+03
 Leave Link  502 at Sat Mar  4 11:48:31 2023, MaxMem=  1048576000 cpu:             324.4 elap:             326.1
 (Enter /ssoft/spack/external/gaussian/g16-C.01/avx2/g16/l801.exe)
 DoSCS=F DFT=T ScalE2(SS,OS)=  1.000000  1.000000
 Range of M.O.s used for correlation:     1   358
 NBasis=   358 NAE=    76 NBE=    76 NFC=     0 NFV=     0
 NROrb=    358 NOA=    76 NOB=    76 NVA=   282 NVB=   282

 **** Warning!!: The largest alpha MO coefficient is  0.19906725D+02

 Leave Link  801 at Sat Mar  4 11:48:31 2023, MaxMem=  1048576000 cpu:               0.0 elap:               0.0
 (Enter /ssoft/spack/external/gaussian/g16-C.01/avx2/g16/l1101.exe)
 Using compressed storage, NAtomX=    32.
 Will process     33 centers per pass.
   1 Symmetry operations used in ECPInt.
 ECPInt:  NShTT=   13203 NPrTT=   49771 LenC2=   12412 LenP2D=   32725.
 LDataN:  DoStor=T MaxTD1= 5 Len=  102
 R6Disp: Adding Grimme-D3(BJ) dispersion energy 1st derivatives to the gradient.
 Leave Link 1101 at Sat Mar  4 11:48:32 2023, MaxMem=  1048576000 cpu:               0.5 elap:               0.5
 (Enter /ssoft/spack/external/gaussian/g16-C.01/avx2/g16/l1102.exe)
 Symmetrizing basis deriv contribution to polar:
 IMax=3 JMax=2 DiffMx= 0.00D+00
 Leave Link 1102 at Sat Mar  4 11:48:32 2023, MaxMem=  1048576000 cpu:               0.1 elap:               0.1
 (Enter /ssoft/spack/external/gaussian/g16-C.01/avx2/g16/l1110.exe)
 Forming Gx(P) for the SCF density, NAtomX=    32.
 Integral derivatives from FoFJK, PRISM(SPDF).
 Do as many integral derivatives as possible in FoFJK.
 G2DrvN: MDV=    1048572568.
 G2DrvN: will do    33 centers at a time, making    1 passes.
 Calling FoFCou, ICntrl=  3107 FMM=F I1Cent=   0 AccDes= 0.00D+00.
 FoFJK:  IHMeth= 1 ICntrl=    3107 DoSepK=F KAlg= 0 I1Cent=           0 FoldK=F
 IRaf=         0 NMat=       1 IRICut=       1 DoRegI=T DoRafI=F ISym2E= 0 IDoP0=0 IntGTp=1.
 FoFCou: FMM=F IPFlag=           0 FMFlag=      100000 FMFlg1=           0
         NFxFlg=           0 DoJE=F BraDBF=F KetDBF=F FulRan=T
         wScrn=  0.000000 ICntrl=      3107 IOpCl=  0 I1Cent=           0 NGrid=           0
         NMat0=    1 NMatS0=      1 NMatT0=    0 NMatD0=    1 NMtDS0=    0 NMtDT0=    0
 Symmetry not used in FoFCou.
 End of G2Drv F.D. properties file   721 does not exist.
 End of G2Drv F.D. properties file   722 does not exist.
 End of G2Drv F.D. properties file   788 does not exist.
 Leave Link 1110 at Sat Mar  4 12:02:28 2023, MaxMem=  1048576000 cpu:             831.9 elap:             836.2
 (Enter /ssoft/spack/external/gaussian/g16-C.01/avx2/g16/l1002.exe)
 Minotr:  Closed shell wavefunction.
          IDoAtm=11111111111111111111111111111111
          Direct CPHF calculation.
          Differentiating once with respect to electric field.
                with respect to dipole field.
          Differentiating once with respect to nuclear coordinates.
          Requested convergence is 1.0D-08 RMS, and 1.0D-07 maximum.
          Secondary convergence is 1.0D-12 RMS, and 1.0D-12 maximum.
          NewPWx=T KeepS1=F KeepF1=F KeepIn=T MapXYZ=F SortEE=F KeepMc=T.
         9649 words used for storage of precomputed grid.
 Two-electron integrals replicated using symmetry.
          MDV=    1048576000 using IRadAn=       1.
          Solving linear equations simultaneously, MaxMat=     384.
 FoF2E skips out because all densities are zero.
 CalDSu exits because no D1Ps are significant.
 FoFJK:  IHMeth= 1 ICntrl=       0 DoSepK=F KAlg= 0 I1Cent=           0 FoldK=F
 IRaf= 860000000 NMat=      96 IRICut=     240 DoRegI=T DoRafI=T ISym2E= 2 IDoP0=3 IntGTp=3.
 FoFCou: FMM=F IPFlag=           0 FMFlag=      100000 FMFlg1=           0
         NFxFlg=           0 DoJE=F BraDBF=F KetDBF=F FulRan=T
         wScrn=  0.000000 ICntrl=         0 IOpCl=  0 I1Cent=           0 NGrid=           0
         NMat0=   96 NMatS0=     96 NMatT0=    0 NMatD0=   96 NMtDS0=    0 NMtDT0=    0
 Integrals replicated using symmetry in FoFCou.
 Raff kept on since  81.91% of shell-pairs survive, threshold=   0.20 IRatSp=82.
          There are    99 degrees of freedom in the 1st order CPHF.  IDoFFX=6 NUNeed=     3.
     96 vectors produced by pass  0 Test12= 2.16D-14 1.01D-09 XBig12= 2.49D+02 8.88D+00.
 AX will form    96 AO Fock derivatives at one time.
     96 vectors produced by pass  1 Test12= 2.16D-14 1.01D-09 XBig12= 4.79D+01 1.43D+00.
     96 vectors produced by pass  2 Test12= 2.16D-14 1.01D-09 XBig12= 3.98D-01 7.48D-02.
     96 vectors produced by pass  3 Test12= 2.16D-14 1.01D-09 XBig12= 3.71D-03 4.90D-03.
     96 vectors produced by pass  4 Test12= 2.16D-14 1.01D-09 XBig12= 1.16D-05 3.25D-04.
     95 vectors produced by pass  5 Test12= 2.16D-14 1.01D-09 XBig12= 1.74D-08 9.70D-06.
     41 vectors produced by pass  6 Test12= 2.16D-14 1.01D-09 XBig12= 2.36D-11 4.33D-07.
      3 vectors produced by pass  7 Test12= 2.16D-14 1.01D-09 XBig12= 2.34D-14 1.19D-08.
      1 vectors produced by pass  8 Test12= 2.16D-14 1.01D-09 XBig12= 8.08D-16 2.58D-09.
 InvSVY:  IOpt=1 It=  1 EMax= 1.07D-14
 Solved reduced A of dimension   620 with    99 vectors.
 FullF1:  Do perturbations      1 to       3.
 Isotropic polarizability for W=    0.000000      170.01 Bohr**3.
 End of Minotr F.D. properties file   721 does not exist.
 End of Minotr F.D. properties file   722 does not exist.
 End of Minotr F.D. properties file   788 does not exist.
 Leave Link 1002 at Sat Mar  4 12:28:27 2023, MaxMem=  1048576000 cpu:            1550.4 elap:            1558.3
 (Enter /ssoft/spack/external/gaussian/g16-C.01/avx2/g16/l601.exe)
 Copying SCF densities to generalized density rwf, IOpCl= 0 IROHF=0.

 **********************************************************************

            Population analysis using the SCF Density.

 **********************************************************************

 Orbital symmetries:
       Occupied  (A) (A) (A) (A) (A) (A) (A) (A) (A) (A) (A) (A)
                 (A) (A) (A) (A) (A) (A) (A) (A) (A) (A) (A) (A)
                 (A) (A) (A) (A) (A) (A) (A) (A) (A) (A) (A) (A)
                 (A) (A) (A) (A) (A) (A) (A) (A) (A) (A) (A) (A)
                 (A) (A) (A) (A) (A) (A) (A) (A) (A) (A) (A) (A)
                 (A) (A) (A) (A) (A) (A) (A) (A) (A) (A) (A) (A)
                 (A) (A) (A) (A)
       Virtual   (A) (A) (A) (A) (A) (A) (A) (A) (A) (A) (A) (A)
                 (A) (A) (A) (A) (A) (A) (A) (A) (A) (A) (A) (A)
                 (A) (A) (A) (A) (A) (A) (A) (A) (A) (A) (A) (A)
                 (A) (A) (A) (A) (A) (A) (A) (A) (A) (A) (A) (A)
                 (A) (A) (A) (A) (A) (A) (A) (A) (A) (A) (A) (A)
                 (A) (A) (A) (A) (A) (A) (A) (A) (A) (A) (A) (A)
                 (A) (A) (A) (A) (A) (A) (A) (A) (A) (A) (A) (A)
                 (A) (A) (A) (A) (A) (A) (A) (A) (A) (A) (A) (A)
                 (A) (A) (A) (A) (A) (A) (A) (A) (A) (A) (A) (A)
                 (A) (A) (A) (A) (A) (A) (A) (A) (A) (A) (A) (A)
                 (A) (A) (A) (A) (A) (A) (A) (A) (A) (A) (A) (A)
                 (A) (A) (A) (A) (A) (A) (A) (A) (A) (A) (A) (A)
                 (A) (A) (A) (A) (A) (A) (A) (A) (A) (A) (A) (A)
                 (A) (A) (A) (A) (A) (A) (A) (A) (A) (A) (A) (A)
                 (A) (A) (A) (A) (A) (A) (A) (A) (A) (A) (A) (A)
                 (A) (A) (A) (A) (A) (A) (A) (A) (A) (A) (A) (A)
                 (A) (A) (A) (A) (A) (A) (A) (A) (A) (A) (A) (A)
                 (A) (A) (A) (A) (A) (A) (A) (A) (A) (A) (A) (A)
                 (A) (A) (A) (A) (A) (A) (A) (A) (A) (A) (A) (A)
                 (A) (A) (A) (A) (A) (A) (A) (A) (A) (A) (A) (A)
                 (A) (A) (A) (A) (A) (A) (A) (A) (A) (A) (A) (A)
                 (A) (A) (A) (A) (A) (A) (A) (A) (A) (A) (A) (A)
                 (A) (A) (A) (A) (A) (A) (A) (A) (A) (A) (A) (A)
                 (A) (A) (A) (A) (A) (A)
 The electronic state is 1-A.
 Alpha  occ. eigenvalues --  -19.17390 -19.16908 -14.42562 -14.42397 -14.42394
 Alpha  occ. eigenvalues --  -14.42331 -14.40167 -14.40144 -10.36770 -10.36548
 Alpha  occ. eigenvalues --  -10.36299 -10.36249 -10.29542 -10.29516 -10.28020
 Alpha  occ. eigenvalues --  -10.27998 -10.27550 -10.27441 -10.26897 -10.26890
 Alpha  occ. eigenvalues --  -10.25313 -10.25212  -1.10645  -1.07196  -1.01674
 Alpha  occ. eigenvalues --   -0.99488  -0.98573  -0.97100  -0.96824  -0.92879
 Alpha  occ. eigenvalues --   -0.86815  -0.85097  -0.85044  -0.79986  -0.77675
 Alpha  occ. eigenvalues --   -0.73363  -0.71248  -0.70500  -0.69694  -0.68441
 Alpha  occ. eigenvalues --   -0.66313  -0.63932  -0.60231  -0.59646  -0.57447
 Alpha  occ. eigenvalues --   -0.56616  -0.55876  -0.55703  -0.55521  -0.54267
 Alpha  occ. eigenvalues --   -0.51528  -0.50193  -0.49928  -0.46463  -0.46376
 Alpha  occ. eigenvalues --   -0.46109  -0.45847  -0.45133  -0.45006  -0.43238
 Alpha  occ. eigenvalues --   -0.42845  -0.42433  -0.42380  -0.39753  -0.33953
 Alpha  occ. eigenvalues --   -0.32734  -0.32300  -0.32124  -0.30115  -0.29629
 Alpha  occ. eigenvalues --   -0.28760  -0.28478  -0.27792  -0.27300  -0.26691
 Alpha  occ. eigenvalues --   -0.26234
 Alpha virt. eigenvalues --   -0.07362  -0.05609  -0.04000   0.00723   0.04872
 Alpha virt. eigenvalues --    0.05221   0.05819   0.06920   0.09395   0.09896
 Alpha virt. eigenvalues --    0.10348   0.10968   0.12716   0.12893   0.14018
 Alpha virt. eigenvalues --    0.14575   0.15047   0.15814   0.16474   0.17406
 Alpha virt. eigenvalues --    0.18681   0.19060   0.19344   0.20129   0.22717
 Alpha virt. eigenvalues --    0.23918   0.24936   0.25146   0.26326   0.26985
 Alpha virt. eigenvalues --    0.27173   0.29790   0.30571   0.31366   0.32948
 Alpha virt. eigenvalues --    0.33155   0.35406   0.36149   0.36955   0.38986
 Alpha virt. eigenvalues --    0.39460   0.40601   0.41729   0.41866   0.42924
 Alpha virt. eigenvalues --    0.43249   0.44130   0.44434   0.46149   0.46635
 Alpha virt. eigenvalues --    0.47164   0.47342   0.48619   0.48911   0.49938
 Alpha virt. eigenvalues --    0.50528   0.50827   0.52383   0.53001   0.53950
 Alpha virt. eigenvalues --    0.54980   0.55705   0.55985   0.58747   0.59020
 Alpha virt. eigenvalues --    0.59659   0.60442   0.60942   0.61979   0.62502
 Alpha virt. eigenvalues --    0.63359   0.63836   0.65974   0.66259   0.67221
 Alpha virt. eigenvalues --    0.67902   0.69352   0.69900   0.71187   0.72267
 Alpha virt. eigenvalues --    0.72360   0.73068   0.74356   0.74565   0.74750
 Alpha virt. eigenvalues --    0.75254   0.75480   0.77212   0.77460   0.77820
 Alpha virt. eigenvalues --    0.78684   0.79819   0.80262   0.80960   0.81525
 Alpha virt. eigenvalues --    0.82670   0.83450   0.84985   0.85892   0.87781
 Alpha virt. eigenvalues --    0.88800   0.90234   0.90635   0.91282   0.92199
 Alpha virt. eigenvalues --    0.93799   0.95489   0.97290   0.99056   0.99509
 Alpha virt. eigenvalues --    1.01264   1.03324   1.06299   1.06430   1.07325
 Alpha virt. eigenvalues --    1.08087   1.08359   1.09610   1.11202   1.11757
 Alpha virt. eigenvalues --    1.13422   1.14613   1.16491   1.16854   1.18605
 Alpha virt. eigenvalues --    1.19808   1.20702   1.21441   1.23125   1.23729
 Alpha virt. eigenvalues --    1.25320   1.25710   1.28417   1.30322   1.31191
 Alpha virt. eigenvalues --    1.31831   1.32188   1.34004   1.34847   1.35590
 Alpha virt. eigenvalues --    1.36193   1.37611   1.38686   1.40050   1.43429
 Alpha virt. eigenvalues --    1.45164   1.45978   1.48115   1.49994   1.51959
 Alpha virt. eigenvalues --    1.53366   1.55156   1.58162   1.58175   1.61365
 Alpha virt. eigenvalues --    1.62066   1.65870   1.67009   1.67754   1.69692
 Alpha virt. eigenvalues --    1.70763   1.73087   1.73346   1.75897   1.76138
 Alpha virt. eigenvalues --    1.78122   1.78878   1.79113   1.80421   1.81457
 Alpha virt. eigenvalues --    1.82817   1.82947   1.83407   1.84161   1.85864
 Alpha virt. eigenvalues --    1.87076   1.88290   1.89284   1.89927   1.91995
 Alpha virt. eigenvalues --    1.94086   1.94935   1.95063   1.97494   1.97830
 Alpha virt. eigenvalues --    1.99352   1.99603   2.00526   2.02422   2.04074
 Alpha virt. eigenvalues --    2.04114   2.05104   2.05431   2.05912   2.10450
 Alpha virt. eigenvalues --    2.11052   2.11470   2.13079   2.13680   2.16639
 Alpha virt. eigenvalues --    2.17742   2.19361   2.20067   2.22250   2.22937
 Alpha virt. eigenvalues --    2.24037   2.24768   2.27063   2.29468   2.30564
 Alpha virt. eigenvalues --    2.30842   2.32986   2.33611   2.38006   2.38660
 Alpha virt. eigenvalues --    2.40217   2.41921   2.42479   2.43956   2.45940
 Alpha virt. eigenvalues --    2.47859   2.49554   2.50554   2.50623   2.53224
 Alpha virt. eigenvalues --    2.56639   2.57103   2.58894   2.59472   2.60342
 Alpha virt. eigenvalues --    2.60614   2.61697   2.62113   2.65431   2.65800
 Alpha virt. eigenvalues --    2.70178   2.70735   2.71378   2.72112   2.72565
 Alpha virt. eigenvalues --    2.73151   2.76709   2.77250   2.78211   2.80416
 Alpha virt. eigenvalues --    2.81572   2.83040   2.84874   2.86385   2.88364
 Alpha virt. eigenvalues --    2.90194   2.97297   2.98498   2.98970   3.00065
 Alpha virt. eigenvalues --    3.02226   3.05726   3.10701   3.11323   3.11739
 Alpha virt. eigenvalues --    3.13849   3.14371   3.15559   3.19250   3.21389
 Alpha virt. eigenvalues --    3.22429   3.23344   3.31410   3.31727   3.35666
 Alpha virt. eigenvalues --    3.36246   3.45791   3.52113   3.53178   3.55263
 Alpha virt. eigenvalues --    3.56590   3.61653   3.65156   3.75476   3.81973
 Alpha virt. eigenvalues --    3.83231   3.86327
     Molecular Orbital Coefficients:
                          72        73        74        75        76
                           O         O         O         O         O
     Eigenvalues --    -0.28478  -0.27792  -0.27300  -0.26691  -0.26234
   1 1   O  1S         -0.00019   0.00027  -0.00014   0.00052  -0.00009
   2        2S         -0.00064   0.00133  -0.00062   0.00161  -0.00054
   3        3S          0.00242  -0.00665  -0.00062   0.00259   0.00136
   4        4PX         0.09917  -0.14828  -0.05841  -0.02951  -0.02627
   5        4PY         0.29718   0.32507  -0.24350  -0.10018  -0.08282
   6        4PZ         0.11489  -0.01302  -0.09767  -0.02814  -0.03752
   7        5PX         0.06776  -0.11045  -0.04056  -0.02090  -0.01876
   8        5PY         0.20154   0.22393  -0.16735  -0.06938  -0.05782
   9        5PZ         0.07721  -0.01532  -0.06669  -0.02048  -0.02546
  10        6D 0        0.00579  -0.00149  -0.00450  -0.00130  -0.00157
  11        6D+1        0.00041  -0.00388   0.00001   0.00015   0.00002
  12        6D-1        0.00730   0.00889  -0.00587  -0.00213  -0.00178
  13        6D+2       -0.00031   0.00517  -0.00054   0.00040   0.00006
  14        6D-2       -0.00644  -0.00512   0.00444   0.00247   0.00172
  15 2   O  1S          0.00011  -0.00017  -0.00012   0.00036  -0.00019
  16        2S          0.00065  -0.00078  -0.00039   0.00135  -0.00050
  17        3S         -0.00261   0.00338  -0.00174   0.00141  -0.00149
  18        4PX        -0.23471   0.26136  -0.02259   0.00066   0.04619
  19        4PY         0.14139   0.19223   0.44741  -0.01888  -0.17462
  20        4PZ         0.16812  -0.09273   0.12738  -0.01612  -0.06278
  21        5PX        -0.16874   0.19207  -0.01234   0.00021   0.03240
  22        5PY         0.09175   0.13420   0.30602  -0.01254  -0.12144
  23        5PZ         0.11928  -0.07057   0.08532  -0.00992  -0.04362
  24        6D 0       -0.00912   0.00574  -0.00597   0.00068   0.00290
  25        6D+1        0.00434  -0.00657  -0.00129  -0.00007  -0.00009
  26        6D-1       -0.00237  -0.00639  -0.01172   0.00057   0.00405
  27        6D+2        0.00369  -0.00615  -0.00296   0.00043   0.00017
  28        6D-2       -0.00440  -0.00148  -0.00696  -0.00007   0.00331
  29 3   N  1S         -0.04999  -0.00838  -0.01281  -0.01938  -0.06122
  30        2S         -0.10680  -0.01823  -0.02759  -0.04101  -0.13116
  31        3S         -0.10995  -0.01665  -0.02698  -0.03246  -0.11843
  32        4PX        -0.18683  -0.02719  -0.04501  -0.10219  -0.26728
  33        4PY        -0.14558  -0.02305  -0.03585  -0.05580  -0.17566
  34        4PZ         0.00187  -0.05412   0.00182   0.05203  -0.03888
  35        5PX         0.12975   0.01608   0.02695   0.06921   0.18021
  36        5PY         0.09643   0.01055   0.02036   0.03679   0.10651
  37        5PZ        -0.00266   0.03913  -0.00171  -0.03783   0.02932
  38        6D 0       -0.00679  -0.00105  -0.00167  -0.00337  -0.00874
  39        6D+1        0.00073   0.00022  -0.00116  -0.00744   0.00375
  40        6D-1       -0.00080   0.00374   0.00130   0.00540  -0.00167
  41        6D+2        0.00216   0.00038   0.00043   0.00160   0.00225
  42        6D-2        0.00632   0.00142   0.00206   0.00335   0.00972
  43 4   N  1S          0.01314   0.01562   0.01736   0.02030   0.06100
  44        2S          0.02927   0.03387   0.03718   0.04433   0.13059
  45        3S          0.03608   0.03154   0.03525   0.02823   0.12020
  46        4PX         0.02697   0.05504   0.07535   0.08464   0.27520
  47        4PY        -0.03453  -0.03755  -0.04508  -0.04763  -0.17234
  48        4PZ         0.03441  -0.05016  -0.02682  -0.06507  -0.01685
  49        5PX        -0.00338  -0.03899  -0.05164  -0.05870  -0.18459
  50        5PY         0.00999   0.02248   0.02559   0.02939   0.10362
  51        5PZ        -0.02626   0.03619   0.02000   0.04745   0.01303
  52        6D 0        0.00172   0.00110   0.00235   0.00345   0.00842
  53        6D+1       -0.00028  -0.00011   0.00185   0.00836  -0.00041
  54        6D-1        0.00179  -0.00418  -0.00027   0.00499  -0.00379
  55        6D+2       -0.00025  -0.00132  -0.00093   0.00039  -0.00330
  56        6D-2        0.00336   0.00175   0.00234   0.00261   0.00962
  57 5   N  1S          0.01313   0.02107  -0.00537   0.00020  -0.00269
  58        2S          0.02556   0.04243  -0.00663   0.00299  -0.00313
  59        3S          0.09055   0.14733  -0.08757  -0.03342  -0.03962
  60        4PX        -0.07514  -0.12378  -0.06620   0.19307   0.03521
  61        4PY        -0.05666  -0.00730   0.10740  -0.04590   0.00930
  62        4PZ         0.06310  -0.03615  -0.11798   0.03628  -0.01172
  63        5PX         0.07769   0.11193   0.05575  -0.16857  -0.03105
  64        5PY         0.05138   0.02109  -0.09786   0.03493  -0.00623
  65        5PZ        -0.06383   0.01886   0.10260  -0.03404   0.00490
  66        6D 0       -0.00130  -0.00011   0.00013   0.00127   0.00097
  67        6D+1        0.00180   0.00130  -0.00170   0.00046   0.00052
  68        6D-1        0.00117   0.00047   0.00161  -0.00147   0.00097
  69        6D+2        0.00110   0.00016   0.00020  -0.00109  -0.00059
  70        6D-2       -0.00103   0.00136   0.00058  -0.00092  -0.00039
  71 6   H  1S          0.00128  -0.01254   0.00265  -0.00102   0.00517
  72        2S         -0.02222  -0.02261   0.01822   0.00314   0.01072
  73        3PX         0.00123   0.00344   0.00502  -0.00787  -0.00156
  74        3PY         0.00100  -0.00254  -0.00382   0.00365  -0.00036
  75        3PZ        -0.00057   0.00257   0.00317  -0.00259  -0.00013
  76 7   N  1S         -0.02415  -0.00507   0.00897   0.00449  -0.00126
  77        2S         -0.04328  -0.01326   0.01261   0.00848  -0.00481
  78        3S         -0.21390   0.01267   0.12689   0.03092   0.01875
  79        4PX         0.08567  -0.08061   0.04117  -0.16245  -0.05754
  80        4PY        -0.06521   0.03658  -0.01001   0.07118   0.01303
  81        4PZ        -0.00680  -0.18393   0.13852  -0.08603   0.01876
  82        5PX        -0.07558   0.04565  -0.03861   0.14246   0.05667
  83        5PY         0.08295  -0.05102  -0.00491  -0.05771  -0.02110
  84        5PZ         0.01212   0.18715  -0.12353   0.07707  -0.01788
  85        6D 0        0.00175   0.00054   0.00092  -0.00143  -0.00085
  86        6D+1       -0.00138  -0.00293   0.00130  -0.00042  -0.00021
  87        6D-1        0.00096  -0.00088  -0.00036   0.00065   0.00047
  88        6D+2        0.00088  -0.00134  -0.00059   0.00141   0.00070
  89        6D-2       -0.00063  -0.00073   0.00032  -0.00200  -0.00012
  90 8   H  1S          0.00232  -0.00241  -0.00164  -0.00531   0.00564
  91        2S          0.01942   0.01264  -0.01615  -0.01625   0.00113
  92        3PX        -0.00255   0.00544  -0.00360   0.00729   0.00176
  93        3PY         0.00141  -0.00156   0.00128  -0.00323  -0.00135
  94        3PZ        -0.00198   0.00345  -0.00340   0.00434   0.00056
  95 9   N  1S          0.01106   0.00404   0.02063   0.00169  -0.00233
  96        2S          0.01874   0.01394   0.03641   0.00484  -0.00132
  97        3S          0.10949  -0.04652   0.20041  -0.00631  -0.05174
  98        4PX        -0.22018   0.08646   0.06208  -0.09679   0.12967
  99        4PY        -0.10042   0.03473   0.00893  -0.05136   0.04838
 100        4PZ         0.07070  -0.09376  -0.18965   0.09029   0.00157
 101        5PX         0.19623  -0.05589  -0.04826   0.07901  -0.12011
 102        5PY         0.10189  -0.05143   0.00677   0.03338  -0.04847
 103        5PZ        -0.05228   0.10388   0.18152  -0.08386  -0.00319
 104        6D 0       -0.00206  -0.00127  -0.00042  -0.00048   0.00144
 105        6D+1       -0.00112  -0.00109  -0.00286   0.00066  -0.00027
 106        6D-1       -0.00092   0.00128  -0.00035   0.00039  -0.00074
 107        6D+2       -0.00059   0.00179  -0.00029   0.00092  -0.00149
 108        6D-2        0.00076  -0.00071  -0.00091   0.00192  -0.00125
 109 10  H  1S          0.00294   0.00062  -0.00086  -0.01011  -0.00143
 110        2S         -0.00892  -0.00634  -0.02682  -0.01108   0.01215
 111        3PX         0.00865  -0.00415  -0.00523   0.00510  -0.00483
 112        3PY         0.00411  -0.00126  -0.00161   0.00183  -0.00274
 113        3PZ        -0.00501   0.00166   0.00342  -0.00300   0.00196
 114 11  N  1S         -0.01699  -0.01293  -0.02030   0.00372   0.00313
 115        2S         -0.03127  -0.03016  -0.03680   0.00754   0.00221
 116        3S         -0.13354  -0.04465  -0.18666   0.01308   0.06654
 117        4PX         0.00705   0.21935  -0.01676   0.13458  -0.12675
 118        4PY        -0.04572   0.06441  -0.11792   0.04559   0.00864
 119        4PZ         0.02415  -0.11003   0.10917  -0.04687  -0.01134
 120        5PX        -0.01208  -0.19525   0.00506  -0.11447   0.11210
 121        5PY         0.04881  -0.04910   0.11664  -0.03382  -0.01099
 122        5PZ        -0.01570   0.07351  -0.10236   0.04060   0.00643
 123        6D 0        0.00140  -0.00005   0.00071   0.00022  -0.00167
 124        6D+1        0.00010   0.00075   0.00276  -0.00044   0.00042
 125        6D-1       -0.00209  -0.00101   0.00014  -0.00165  -0.00021
 126        6D+2       -0.00113  -0.00008   0.00004  -0.00037   0.00110
 127        6D-2       -0.00114   0.00179  -0.00071   0.00066  -0.00088
 128 12  H  1S          0.00328   0.00779   0.00580  -0.00425  -0.00454
 129        2S          0.01534   0.01086   0.03292  -0.00863  -0.01344
 130        3PX         0.00054  -0.00882   0.00404  -0.00580   0.00481
 131        3PY         0.00048  -0.00496   0.00232  -0.00300   0.00092
 132        3PZ        -0.00026   0.00519  -0.00186   0.00223  -0.00111
 133 13  C  1S         -0.01512  -0.00221  -0.00323  -0.00666  -0.02081
 134        2S          0.03706   0.00587   0.00905   0.01627   0.05395
 135        3S          0.00848  -0.00089   0.00754  -0.00026   0.03160
 136        4PX        -0.04684  -0.00768  -0.01180  -0.02368  -0.05160
 137        4PY        -0.07333  -0.00882  -0.01683  -0.02287  -0.08490
 138        4PZ        -0.01921   0.05973   0.02927   0.14499  -0.05572
 139        5PX         0.00165  -0.00051   0.00320   0.00102   0.01837
 140        5PY         0.01515   0.00261   0.00761   0.01451   0.03392
 141        5PZ        -0.01299   0.04564   0.01964   0.09704  -0.03587
 142        6D 0       -0.00113  -0.00015  -0.00026  -0.00025  -0.00144
 143        6D+1       -0.00016   0.00010   0.00090   0.00539  -0.00197
 144        6D-1       -0.00044  -0.00304   0.00068   0.00696  -0.00427
 145        6D+2        0.00114   0.00006   0.00017   0.00078   0.00274
 146        6D-2       -0.01517  -0.00242  -0.00390  -0.00809  -0.02140
 147 14  C  1S          0.01590   0.00414   0.00536   0.00705   0.01899
 148        2S         -0.04203  -0.01087  -0.01300  -0.02003  -0.04980
 149        3S         -0.05349  -0.01915  -0.01931  -0.02975  -0.09068
 150        4PX         0.06096   0.00377   0.00848   0.02412   0.08669
 151        4PY         0.05588   0.01125   0.01729   0.02182   0.05926
 152        4PZ        -0.00847  -0.00692   0.02702   0.16942  -0.07236
 153        5PX         0.05664   0.00122   0.01603   0.02200   0.09272
 154        5PY         0.00596  -0.00109   0.01004  -0.00308   0.01407
 155        5PZ        -0.00460  -0.00820   0.02200   0.12741  -0.05619
 156        6D 0       -0.00082  -0.00046  -0.00033  -0.00066  -0.00097
 157        6D+1        0.00092  -0.00437  -0.00124  -0.00564   0.00188
 158        6D-1        0.00015  -0.00022  -0.00057  -0.00288   0.00111
 159        6D+2       -0.00315  -0.00041  -0.00103  -0.00022  -0.00284
 160        6D-2       -0.00061  -0.00008  -0.00026   0.00021   0.00011
 161 15  H  1S          0.03682   0.00705   0.01137   0.01044   0.03564
 162        2S          0.04084   0.01059   0.00939   0.01850   0.04598
 163        3PX         0.00178   0.00019   0.00014   0.00064   0.00231
 164        3PY         0.00036   0.00012   0.00011   0.00029   0.00055
 165        3PZ        -0.00036  -0.00013   0.00099   0.00670  -0.00279
 166 16  C  1S          0.00334  -0.00064   0.00004   0.00098   0.00399
 167        2S         -0.00839   0.00296  -0.00193  -0.00020  -0.00775
 168        3S         -0.03553  -0.00708   0.00917  -0.04274  -0.04188
 169        4PX        -0.01493   0.00781   0.00047  -0.00219  -0.01643
 170        4PY        -0.00684  -0.00042  -0.00693   0.00962   0.00862
 171        4PZ         0.00884  -0.06237  -0.00631  -0.01821   0.00132
 172        5PX        -0.00331  -0.00006   0.00575  -0.00790  -0.00872
 173        5PY         0.00096   0.01737  -0.01900   0.03128   0.00768
 174        5PZ         0.00435  -0.03969  -0.00628  -0.00981   0.00518
 175        6D 0       -0.00009  -0.00011   0.00003  -0.00029   0.00020
 176        6D+1        0.00012   0.00068  -0.00101  -0.00613   0.00293
 177        6D-1       -0.00117   0.00186   0.00164   0.01111  -0.00499
 178        6D+2       -0.00174  -0.00048  -0.00077  -0.00062  -0.00213
 179        6D-2       -0.00234   0.00095   0.00018  -0.00217  -0.00491
 180 17  H  1S         -0.02180   0.00506  -0.00286  -0.00511  -0.02525
 181        2S         -0.00758  -0.00950   0.00794  -0.01475  -0.01744
 182        3PX         0.00083   0.00061  -0.00020  -0.00036  -0.00066
 183        3PY         0.00001  -0.00000  -0.00010   0.00041   0.00094
 184        3PZ         0.00027  -0.00238  -0.00013  -0.00022  -0.00001
 185 18  C  1S          0.02212   0.00585   0.00930  -0.00230   0.00384
 186        2S         -0.05586  -0.01697  -0.02114   0.00182  -0.01335
 187        3S         -0.05980   0.00466  -0.07630   0.00502  -0.11565
 188        4PX         0.01673  -0.01226  -0.01509   0.05592   0.10264
 189        4PY         0.04898   0.01398   0.02031   0.00451   0.02002
 190        4PZ         0.02346  -0.05115  -0.03071  -0.19635   0.08118
 191        5PX         0.04846   0.00954  -0.00301   0.05862   0.11905
 192        5PY         0.03785   0.01074   0.01080   0.03147   0.03839
 193        5PZ         0.01709  -0.03133  -0.03379  -0.13650   0.05760
 194        6D 0       -0.00059   0.00021   0.00042   0.00007  -0.00152
 195        6D+1       -0.00091   0.00277   0.00211   0.00868  -0.00293
 196        6D-1       -0.00011  -0.00212   0.00027   0.00221  -0.00067
 197        6D+2        0.00355   0.00089   0.00031   0.00192   0.00347
 198        6D-2       -0.00054   0.00003  -0.00022  -0.00195  -0.00441
 199 19  C  1S         -0.01608   0.00097  -0.00144   0.00118   0.00021
 200        2S          0.04265  -0.00471   0.00469  -0.00409   0.00237
 201        3S         -0.05898  -0.02904  -0.04046  -0.00837  -0.14537
 202        4PX        -0.06311  -0.00418  -0.00966  -0.03802  -0.10218
 203        4PY         0.01511   0.01992   0.01618   0.02492   0.04547
 204        4PZ         0.01836  -0.04087  -0.03289  -0.17528   0.06825
 205        5PX         0.02741   0.01462   0.01460   0.03170   0.06543
 206        5PY         0.11433   0.04841   0.06236   0.05839   0.22680
 207        5PZ         0.01910  -0.01898  -0.01665  -0.12885   0.06285
 208        6D 0       -0.00037   0.00009  -0.00029  -0.00165  -0.00088
 209        6D+1        0.00096  -0.00437  -0.00109  -0.00435   0.00033
 210        6D-1        0.00004   0.00184  -0.00140  -0.01242   0.00519
 211        6D+2       -0.01166  -0.00178  -0.00298  -0.00297  -0.00971
 212        6D-2       -0.00802  -0.00111  -0.00236  -0.00575  -0.01469
 213 20  C  1S         -0.00159   0.00315   0.00138   0.00034  -0.00014
 214        2S          0.00589  -0.00797  -0.00327  -0.00241  -0.00118
 215        3S          0.07209   0.03820   0.03318   0.02278   0.14213
 216        4PX        -0.02452   0.01537   0.02857   0.04551   0.09622
 217        4PY         0.06087   0.01415   0.01396  -0.00237   0.05482
 218        4PZ         0.01777  -0.05687   0.01696   0.17225  -0.07292
 219        5PX        -0.02322  -0.01197  -0.02038  -0.02037  -0.07106
 220        5PY         0.13408   0.04335   0.06337   0.03123   0.23074
 221        5PZ         0.01887  -0.02678   0.01757   0.13599  -0.02825
 222        6D 0       -0.00026   0.00070  -0.00003  -0.00223   0.00248
 223        6D+1        0.00255  -0.00472  -0.00089   0.00353  -0.00423
 224        6D-1        0.00039  -0.00130  -0.00205  -0.01232   0.00411
 225        6D+2        0.00316   0.00351   0.00272   0.00253   0.01092
 226        6D-2       -0.00096  -0.00183  -0.00352  -0.00556  -0.01412
 227 21  C  1S         -0.02201  -0.00545  -0.00024  -0.00297  -0.00387
 228        2S          0.05867   0.01208   0.00291   0.00479   0.01416
 229        3S          0.05471   0.02734  -0.00904   0.09276   0.10124
 230        4PX         0.08825  -0.01030  -0.03039  -0.00660  -0.11650
 231        4PY         0.02185   0.02711  -0.00112  -0.02215   0.03286
 232        4PZ         0.02761  -0.06003   0.01956   0.20168  -0.06296
 233        5PX         0.00497  -0.01134  -0.05125   0.00221  -0.13264
 234        5PY         0.01172   0.00240   0.00109   0.00764   0.04442
 235        5PZ         0.02302  -0.04770   0.03134   0.14251  -0.03589
 236        6D 0       -0.00171   0.00037   0.00099   0.00192   0.00064
 237        6D+1       -0.00061   0.00319  -0.00093  -0.00832   0.00350
 238        6D-1       -0.00043   0.00102   0.00070   0.00157  -0.00098
 239        6D+2       -0.00376  -0.00007  -0.00213  -0.00097  -0.00312
 240        6D-2        0.00288  -0.00118  -0.00076  -0.00072  -0.00505
 241 22  C  1S         -0.00472   0.00067  -0.00207  -0.00139  -0.00311
 242        2S          0.01418  -0.00260   0.00305   0.00521   0.00459
 243        3S         -0.00039  -0.01467   0.01396   0.01799   0.04686
 244        4PX         0.00072  -0.00378   0.00478   0.00764   0.01578
 245        4PY        -0.00269   0.00285   0.00936  -0.00593   0.00702
 246        4PZ         0.04432  -0.05121  -0.00600   0.02409   0.00406
 247        5PX         0.00055   0.00056   0.01187  -0.00328   0.01059
 248        5PY        -0.00360   0.00145   0.02135  -0.01781   0.01144
 249        5PZ         0.02475  -0.03348   0.00019   0.01537   0.00679
 250        6D 0        0.00034  -0.00057   0.00041   0.00235  -0.00091
 251        6D+1       -0.00041  -0.00026   0.00076   0.00585  -0.00332
 252        6D-1        0.00037  -0.00267   0.00103   0.01099  -0.00426
 253        6D+2        0.00042   0.00027   0.00066   0.00324   0.00139
 254        6D-2        0.00347  -0.00063  -0.00136  -0.00147  -0.00505
 255 23  H  1S         -0.00697   0.00301   0.00550   0.00934   0.02546
 256        2S         -0.01601   0.00904   0.01368  -0.00646   0.01994
 257        3PX        -0.00097  -0.00042  -0.00049   0.00051   0.00070
 258        3PY        -0.00058   0.00035   0.00045   0.00012   0.00083
 259        3PZ         0.00161  -0.00180  -0.00046   0.00068   0.00054
 260 24  C  1S         -0.00604  -0.00564  -0.00507  -0.00703  -0.01910
 261        2S          0.01408   0.01469   0.01399   0.01808   0.05055
 262        3S          0.02656   0.03052   0.03182   0.02335   0.09014
 263        4PX         0.00014  -0.01454  -0.02812  -0.03902  -0.08003
 264        4PY         0.01449   0.01548   0.01942   0.05034   0.04558
 265        4PZ         0.01711   0.01872  -0.02040  -0.16020   0.08478
 266        5PX         0.00080  -0.01500  -0.01920  -0.04570  -0.08618
 267        5PY         0.00691   0.00424   0.00282   0.02835   0.00180
 268        5PZ         0.01506   0.01140  -0.01934  -0.12208   0.06071
 269        6D 0       -0.00007   0.00089   0.00006  -0.00123   0.00139
 270        6D+1        0.00266  -0.00412   0.00020   0.00590  -0.00140
 271        6D-1       -0.00008   0.00012  -0.00059  -0.00286   0.00012
 272        6D+2        0.00125   0.00085   0.00051   0.00118   0.00272
 273        6D-2       -0.00057   0.00059   0.00006  -0.00134   0.00047
 274 25  H  1S         -0.01118  -0.01221  -0.00902  -0.01464  -0.03561
 275        2S         -0.00917  -0.01434  -0.01493  -0.01501  -0.04673
 276        3PX        -0.00015  -0.00039  -0.00093  -0.00104  -0.00202
 277        3PY         0.00010  -0.00006   0.00028   0.00124   0.00004
 278        3PZ         0.00045   0.00067  -0.00081  -0.00645   0.00300
 279 26  C  1S          0.00128   0.00489   0.00588   0.00609   0.02094
 280        2S         -0.00579  -0.01196  -0.01473  -0.01560  -0.05409
 281        3S          0.00054  -0.00906  -0.00423  -0.00916  -0.03043
 282        4PX         0.00582   0.01882   0.01511   0.00715   0.05760
 283        4PY        -0.00411  -0.03312  -0.02014  -0.00183  -0.08923
 284        4PZ        -0.03556   0.06092  -0.01907  -0.15674   0.02609
 285        5PX        -0.00552   0.00019  -0.00313  -0.01528  -0.01486
 286        5PY         0.00718  -0.00322   0.00726   0.03095   0.02811
 287        5PZ        -0.02546   0.04927  -0.00726  -0.09844   0.03456
 288        6D 0       -0.00043   0.00083   0.00098   0.00326   0.00051
 289        6D+1       -0.00026  -0.00001  -0.00160  -0.00620  -0.00115
 290        6D-1       -0.00224   0.00185   0.00160   0.00674  -0.00187
 291        6D+2       -0.00049   0.00025  -0.00041   0.00012  -0.00230
 292        6D-2       -0.00323  -0.00455  -0.00575  -0.00569  -0.02203
 293 27  H  1S         -0.00907  -0.01560  -0.02175  -0.02467  -0.07404
 294        2S         -0.00804  -0.00889  -0.01300  -0.01587  -0.04483
 295        3PX         0.00044   0.00066   0.00050   0.00027   0.00242
 296        3PY        -0.00014  -0.00123  -0.00078  -0.00019  -0.00362
 297        3PZ        -0.00119   0.00219  -0.00077  -0.00624   0.00113
 298 28  C  1S          0.00251   0.01413   0.00361   0.01056   0.00429
 299        2S         -0.00613  -0.05392  -0.01269  -0.02243  -0.00983
 300        3S          0.01199   0.17709   0.04172  -0.08307   0.00146
 301        4PX        -0.07078  -0.01234  -0.00371   0.03036   0.07210
 302        4PY         0.02203  -0.00759   0.05406  -0.04000   0.03111
 303        4PZ         0.02648   0.01129  -0.05673  -0.02773   0.00780
 304        5PX        -0.04343   0.03627  -0.01809   0.02968   0.03618
 305        5PY        -0.00440   0.05059   0.02926  -0.02147   0.01037
 306        5PZ        -0.01601   0.07400  -0.02535  -0.02256  -0.00946
 307        6D 0       -0.01119   0.00084   0.00543   0.00494   0.00475
 308        6D+1        0.00171  -0.00421  -0.01007  -0.00004   0.00256
 309        6D-1        0.00305  -0.00076   0.00516  -0.00422  -0.00314
 310        6D+2        0.00917  -0.00096  -0.00262   0.00280  -0.00224
 311        6D-2        0.00430   0.00215   0.00181  -0.00123  -0.00580
 312 29  C  1S         -0.01363  -0.00835  -0.00863   0.00573  -0.00845
 313        2S          0.03180   0.04054   0.02422  -0.01461   0.01937
 314        3S          0.06776  -0.22721  -0.00231  -0.01162   0.02198
 315        4PX         0.01985   0.03078   0.00364  -0.02827  -0.07301
 316        4PY         0.03558   0.01907  -0.03308   0.05086   0.01347
 317        4PZ         0.00324  -0.01409   0.06292   0.02069  -0.01897
 318        5PX         0.06270  -0.04301  -0.01402  -0.01639  -0.03650
 319        5PY         0.00689   0.05582  -0.00819   0.01193   0.00258
 320        5PZ        -0.00214   0.04588   0.04392   0.00707  -0.01496
 321        6D 0        0.00073   0.00053   0.00515   0.00036  -0.00742
 322        6D+1        0.00118  -0.01142   0.00793   0.00093  -0.00018
 323        6D-1       -0.00076  -0.00346   0.00527  -0.00127   0.00373
 324        6D+2       -0.00532   0.00148  -0.00360   0.00529   0.00053
 325        6D-2        0.00289   0.00354  -0.00064  -0.00234  -0.00526
 326 30  C  1S         -0.00243   0.00186   0.00101   0.00091   0.00028
 327        2S          0.00371  -0.00128  -0.00166  -0.00512   0.00010
 328        3S          0.04464  -0.03519  -0.02045   0.02901  -0.01885
 329        4PX        -0.00410  -0.00646   0.00375   0.00531   0.00269
 330        4PY        -0.00232  -0.00524   0.02053   0.01082   0.01104
 331        4PZ         0.01250  -0.01870   0.00573  -0.00214   0.00409
 332        5PX         0.02181   0.00541  -0.01533  -0.01588  -0.00444
 333        5PY         0.11937   0.12388  -0.09319  -0.03655  -0.02868
 334        5PZ         0.06917   0.00147  -0.04551   0.00398  -0.01799
 335        6D 0       -0.01989   0.00769   0.00941   0.01082   0.00536
 336        6D+1        0.00010   0.00973  -0.00381   0.00393   0.00110
 337        6D-1       -0.01989  -0.02654   0.01299   0.01095   0.00621
 338        6D+2       -0.00329  -0.01228  -0.00431   0.00897   0.00071
 339        6D-2        0.01437   0.01660  -0.02128   0.00609  -0.00262
 340 31  C  1S         -0.00152  -0.00103   0.00047   0.00005  -0.00076
 341        2S          0.00543  -0.00047  -0.00103  -0.00295   0.00305
 342        3S         -0.01258   0.02739  -0.01853   0.03996   0.00057
 343        4PX        -0.03294   0.02545   0.00491   0.00268  -0.00544
 344        4PY        -0.00420   0.01078  -0.01442  -0.00137   0.02020
 345        4PZ         0.01581  -0.01999  -0.00721   0.00298   0.00363
 346        5PX        -0.04973   0.03082  -0.01948  -0.00708   0.01611
 347        5PY         0.07928   0.06698   0.18259  -0.00821  -0.06491
 348        5PZ         0.05793  -0.02076   0.06923  -0.02338  -0.02181
 349        6D 0        0.02754  -0.01612   0.01275   0.00342  -0.01198
 350        6D+1       -0.01427   0.01425   0.00693  -0.00308   0.00308
 351        6D-1        0.01015   0.02074   0.02942   0.00167  -0.01420
 352        6D+2       -0.00506   0.01866   0.00286   0.00611  -0.00549
 353        6D-2        0.00393   0.00002   0.02835  -0.00988  -0.00128
 354 32  H  1S          0.05356   0.00776   0.01240   0.02799   0.07361
 355        2S          0.02969   0.00503   0.00748   0.01789   0.04467
 356        3PX        -0.00136  -0.00032  -0.00053  -0.00085  -0.00219
 357        3PY        -0.00276  -0.00031  -0.00067  -0.00104  -0.00343
 358        3PZ        -0.00069   0.00208   0.00115   0.00579  -0.00227
                          77        78        79        80        81
                           V         V         V         V         V
     Eigenvalues --    -0.07362  -0.05609  -0.04000   0.00723   0.04872
   1 1   O  1S         -0.00122   0.00433   0.00067   0.00087  -0.00394
   2        2S         -0.00205   0.00744   0.00096   0.00370  -0.00702
   3        3S         -0.01158   0.03596   0.00947  -0.00817  -0.04174
   4        4PX        -0.01249   0.02139   0.00131  -0.01784   0.27683
   5        4PY         0.01227  -0.02605  -0.01538  -0.00574  -0.07969
   6        4PZ        -0.01261   0.03453   0.00204  -0.00993   0.15706
   7        5PX        -0.01316   0.01504   0.00158  -0.01650   0.31111
   8        5PY         0.01024  -0.02497  -0.01629  -0.00352  -0.09072
   9        5PZ        -0.01433   0.03607   0.00327  -0.01361   0.17192
  10        6D 0       -0.00009   0.00026   0.00003   0.00023  -0.00570
  11        6D+1        0.00008  -0.00047  -0.00001   0.00018  -0.00276
  12        6D-1       -0.00004  -0.00018  -0.00008  -0.00005   0.00269
  13        6D+2        0.00005   0.00040   0.00017  -0.00003   0.00356
  14        6D-2        0.00008   0.00000   0.00022   0.00006   0.00026
  15 2   O  1S          0.00135  -0.00457   0.00057   0.00090  -0.00679
  16        2S          0.00253  -0.00765   0.00128   0.00335  -0.01219
  17        3S          0.01197  -0.03952   0.00449  -0.00526  -0.06934
  18        4PX         0.01388  -0.03134   0.00111  -0.02562   0.12057
[...]
 05910,-0.00006918,-0.00003417,-0.00001757,0.00004582,0.00002983,0.0000
 9356,0.00004630,0.00000537,0.00000087,-0.00000956,-0.00000058,-0.00004
 351,0.00007090,-0.00000312,-0.00003578,-0.00006191,-0.00001697,0.00000
 023,0.00000162,0.00000022,0.00006428,0.00014598,0.00001453,-0.00004085
 ,0.00000206,0.00000190,-0.00045519,0.00001927,-0.00002353,0.00065202,0
 .00110111,0.00005020,-0.00399599,0.00362332,0.00238225,-0.00105341,0.0
 0040542,0.00012363,-0.00468619,-0.00350570,0.00180570,0.00048535,-0.00
 156773,-0.00019072,0.00730775,-0.03198968,0.00060044,0.00101639,0.0013
 1954,-0.00083373,-0.00443152,0.10144617,0.00526079,0.01421433,-0.00002
 333,0.00000666,0.00000646,-0.00001948,0.00000072,-0.00000695,0.0001463
 4,-0.00009593,0.00001599,0.00601600,-0.00149882,-0.00077676,-0.0000116
 0,0.00012830,0.00000321,-0.00002680,-0.00000246,-0.00001536,-0.0000479
 2,-0.00002430,0.00001911,0.00000452,0.00000433,0.00000224,-0.00001214,
 0.00008241,0.00001358,-0.00001151,0.00002106,0.00001365,-0.00004704,-0
 .00002807,-0.00001057,0.00000366,0.00000548,0.00000192,-0.00005826,-0.
 00003277,-0.00001198,0.00001247,-0.00002900,-0.00000556,0.00000064,-0.
 00000810,0.00000046,0.00002541,-0.00002363,0.00000492,0.00000885,0.000
 00030,0.00000009,0.00004035,0.00009260,-0.00001968,-0.00016986,-0.0000
 3569,-0.00003720,-0.00093827,0.00298409,0.00013930,-0.00046003,0.00017
 724,0.00009503,-0.00277984,-0.00052562,0.00036949,0.00034113,-0.000607
 18,-0.00006480,0.00645429,-0.01051912,-0.00095445,0.00007615,0.0007359
 8,0.00000561,0.10114697,-0.77735291,-0.01810232,-0.10986660,0.78669451
 ,-0.00007548,0.00005244,-0.00006169,0.00001639,-0.00000433,-0.00011088
 ,-0.00022177,0.00002399,0.00030085,0.00009753,-0.00534946,-0.00631730,
 -0.00015269,0.00061826,-0.00018019,-0.00001884,0.00001436,0.00002012,-
 0.00004063,-0.00003052,0.00004288,-0.00000030,-0.00000215,0.00000650,-
 0.00010354,-0.00058427,-0.00024879,0.00002728,-0.00005881,-0.00000915,
 0.00005322,0.00003757,0.00001698,0.00000321,-0.00000097,0.00000906,0.0
 0006480,0.00002535,-0.00001108,0.00000202,0.00005195,-0.00007876,-0.00
 000137,0.00000726,0.00000117,-0.00004335,-0.00003197,-0.00006091,0.000
 00593,-0.00000163,0.00003962,0.00012613,-0.00000270,-0.00013608,-0.000
 16590,-0.00024260,0.00029085,0.00246173,-0.00074305,0.01346740,0.00053
 068,0.00002088,-0.00032470,0.00166772,0.00072835,0.00766376,-0.0001818
 5,0.00023446,-0.00054180,0.00025940,0.00402878,0.01171899,-0.00083335,
 -0.00014959,-0.00452041,0.00604089,-0.01808527,0.02671744,-0.00933736,
 0.01936903,-0.04579089,-0.00264959,0.00662163,-0.00037012,-0.00517822,
 0.00525986,0.01140499,-0.00034246,0.00080134,0.00022170,-0.00318589,-0
 .00624856,0.00119889,-0.10859523,0.01552845,0.03694830,0.00332019,-0.0
 1938933,0.01728320,-0.01669429,0.01575769,-0.00622154,0.00080040,0.000
 09534,0.00125357,-0.15560212,-0.02225547,-0.02160126,-0.00107162,-0.01
 217540,-0.02892426,-0.01373472,0.00232230,0.01353187,-0.00145549,-0.00
 068345,-0.00223933,0.00048004,-0.00005562,0.00007846,-0.00012883,0.000
 72442,-0.00001927,0.00006205,0.00000711,-0.00001691,0.00068647,-0.0007
 4458,0.00052208,-0.00004280,-0.00001987,0.00000729,-0.01894764,-0.0031
 0744,0.00136079,-0.00038336,0.00088038,-0.00044020,0.01469955,-0.01959
 533,-0.00149002,-0.10483283,0.01860486,0.01006064,0.00046732,0.0346841
 9,-0.00036719,0.00066067,-0.00022899,-0.00026981,-0.00662183,0.0019460
 1,0.00136350,0.00028299,0.00186747,0.00007357,-0.00261533,0.00003799,0
 .00038525,0.00012423,-0.00004506,-0.00020523,0.48594058,0.00457863,0.0
 0169174,0.00011755,0.00068608,0.00695918,0.00184550,0.00135073,-0.0003
 5911,-0.00029486,-0.00085971,0.00180031,0.00010476,0.01238878,-0.10444
 082,0.04972183,-0.00306858,0.00498725,-0.01099873,0.02563512,-0.023045
 92,0.00502958,0.00017579,-0.00146727,0.00511219,-0.03113752,-0.0970271
 4,-0.04803395,0.00265787,-0.00258771,0.00191205,0.00427611,-0.00499528
 ,-0.00727766,-0.00114160,-0.00116875,-0.00114189,0.00008100,-0.0007477
 6,0.00000229,-0.00011257,0.00106446,-0.00029954,-0.00022855,-0.0003784
 5,-0.00011202,-0.00280929,-0.00466037,-0.00025737,0.00051049,-0.000037
 35,0.00016021,-0.01525028,0.01210157,0.00519866,-0.00185800,0.00179885
 ,0.00045470,-0.00418937,-0.02116347,0.00040380,0.02929772,-0.20834468,
 -0.00094969,0.01003632,-0.01510878,-0.00248828,-0.00187426,0.00071512,
 0.00026535,0.00121690,0.00521040,-0.00021329,-0.00029713,0.00032695,0.
 00031245,-0.00198026,0.00047085,-0.00000617,0.00001675,-0.00019717,0.0
 0011876,-0.04144733,0.56711629,0.00681972,-0.00903763,0.00791884,-0.00
 041982,0.00271311,0.00948956,0.00012093,0.00001043,-0.00036322,0.00193
 756,-0.00045733,0.00697157,0.04415733,0.04179050,-0.18270527,-0.007189
 05,0.00740688,-0.00878945,-0.00231594,0.00407012,-0.00893780,0.0008955
 2,0.00171612,-0.00442601,-0.03368024,-0.04657817,-0.11641067,0.0023923
 5,0.00643976,0.00445622,0.01482094,-0.01275313,-0.02594826,-0.00247937
 ,-0.00540381,-0.00331758,-0.00034961,0.00010435,0.00049713,-0.00061570
 ,-0.00008836,-0.00013936,-0.00010651,-0.00016046,-0.00006630,-0.000740
 73,-0.00182135,-0.00003956,0.00010101,0.00004821,0.00018489,-0.0048515
 4,0.00530168,0.00020571,0.00007342,-0.00006352,-0.00197462,-0.00192871
 ,0.00484316,0.00177515,0.00869439,0.00365829,-0.06156253,0.00109112,-0
 .00639411,0.00015459,-0.00084160,0.00013962,-0.00299072,0.00226554,0.0
 0063464,0.00672602,0.00007573,-0.00024477,0.00059933,-0.00063017,0.000
 20687,0.00019328,-0.00037715,-0.00002870,-0.00212563,-0.01485074,-0.00
 572924,0.50241331,-0.00483042,0.00124051,0.00841909,-0.00666809,-0.000
 30562,-0.00119023,0.00152377,0.00644905,0.00032205,-0.00129308,-0.0000
 9343,0.00015933,-0.01456516,0.00263413,0.01649659,-0.00061391,-0.00002
 436,-0.00124080,-0.11389572,0.02954866,0.01166492,0.00425830,0.0118230
 9,-0.02428490,-0.03777782,-0.00401606,-0.00899636,-0.00004984,-0.00069
 250,-0.00212156,-0.11955624,-0.00068537,0.00344822,0.01438024,0.009881
 04,0.02217104,-0.00087023,0.00073144,0.00016806,-0.00437003,0.00461650
 ,-0.00076347,-0.00038517,-0.00133797,-0.00023822,-0.02457112,-0.027385
 73,-0.00306364,0.00170369,-0.00045282,0.00053183,-0.15470792,-0.045432
 98,-0.00122871,0.01487995,-0.00455491,0.00001739,0.00065988,-0.0002403
 6,0.00047694,0.00019183,0.01141859,-0.00099125,0.00054421,-0.00307352,
 -0.00043188,-0.00029436,0.00019325,-0.00002256,0.00003982,-0.00009828,
 0.00015173,0.00004891,-0.00029520,0.00012667,0.00011156,-0.00047595,-0
 .00010745,-0.00004640,0.00006727,-0.00003050,-0.11580673,0.00139377,0.
 00768336,0.54436973,0.00776200,0.00699370,-0.00748209,0.00097572,0.005
 39471,0.00038151,0.00109965,-0.00305724,-0.00015591,-0.00062373,0.0005
 0740,-0.00001883,0.00062955,-0.00503204,0.00025296,0.00038514,-0.00279
 026,0.00224642,0.04097923,-0.15630905,0.05498786,-0.00666308,-0.007330
 36,0.01363368,-0.01415283,-0.00136811,-0.00009363,-0.00099633,-0.00001
 191,-0.00445797,0.00063018,-0.08198515,-0.05136013,-0.00363386,-0.0062
 7874,-0.00149962,0.00273429,-0.00124543,0.00006394,0.00515263,0.002798
 07,0.00033280,0.00086068,0.00103509,-0.00005036,-0.00349129,0.01071693
 ,0.00143308,0.00120776,-0.00034885,0.00000334,-0.05573750,-0.14666021,
 -0.01126595,-0.01985954,-0.02145292,-0.00233531,0.00255499,0.00099722,
 -0.00023251,0.02429470,-0.00515357,-0.00545411,-0.00068354,-0.00497588
 ,-0.00017738,-0.00036518,0.00019506,-0.00004958,0.00096945,0.00111878,
 0.00007277,-0.00003252,-0.00036825,0.00004584,-0.00076642,-0.00037522,
 0.00004189,-0.00017886,0.00006508,0.00001063,0.02610149,-0.07560685,-0
 .00710402,0.04320659,0.50050083,-0.00197436,-0.00233866,0.00864214,0.0
 0995127,0.00243757,0.00855711,0.00062581,-0.00034325,0.00722047,0.0000
 5890,-0.00005268,-0.00037420,0.01976925,0.00404731,-0.02498179,0.00160
 559,0.00605527,-0.00250712,0.00089444,0.06044784,-0.11104474,-0.002426
 87,-0.00768270,0.00374108,-0.00607939,-0.00208543,-0.00977189,-0.00026
 316,-0.00135716,-0.00486877,0.01269089,-0.05030275,-0.18619426,-0.0096
 0143,-0.00110789,-0.00821950,-0.00040041,0.00009863,0.00007683,0.00006
 564,-0.00074207,0.00717949,0.00005216,0.00008643,0.00056886,0.00042805
 ,0.00130532,0.00100013,-0.00036559,0.00041708,-0.00328088,-0.00244224,
 -0.01259388,-0.06358572,-0.00224147,-0.00215205,0.00123950,-0.00014911
 ,0.00051650,-0.00201817,-0.00484552,-0.00188565,-0.00062187,0.00023533
 ,0.00137486,0.00017698,0.00007840,-0.00008639,0.00009858,-0.00028813,0
 .00044764,0.00006821,-0.00001097,0.00014199,-0.00006483,-0.00032064,0.
 00000552,0.00057323,-0.00000146,0.00000934,0.00002538,0.01152115,0.000
 62707,-0.05456865,0.00128414,0.00148804,0.50160847,-0.11806247,0.00144
 380,0.01802540,-0.00569081,0.00067131,0.00135951,-0.00050648,0.0016458
 1,0.00084302,-0.00127273,-0.00036450,-0.00084101,-0.21837375,0.1273434
 3,0.00772033,-0.01219179,0.01276675,-0.01320996,-0.23552938,0.04327802
 ,0.12039308,-0.01213473,-0.00878690,0.01728744,-0.00767402,0.00259652,
 0.01870828,-0.00048907,0.00170077,-0.00162373,-0.01680767,0.00680616,-
 0.01755815,-0.00064930,-0.00128639,0.00061342,-0.00005539,0.00101237,0
 .00019010,-0.00141296,-0.00035391,-0.00000730,0.00007322,0.00003772,0.
 00002083,0.00064939,0.00003760,-0.00010854,-0.00098926,0.00001431,0.00
 029967,-0.00409970,0.00423712,-0.00437023,0.00501835,-0.00180455,-0.00
 016046,0.00399709,-0.00169828,-0.00001359,-0.00515591,0.00003760,0.007
 45866,0.00059255,-0.00018003,0.00031357,-0.00053138,0.00023639,0.00006
 003,-0.00121674,0.00082167,-0.00029272,0.00003566,-0.00005386,-0.00005
 349,-0.00027675,-0.00114486,-0.00008567,-0.00003825,0.00009344,0.00026
 423,0.01344875,0.00840831,-0.03834384,0.01925736,-0.03397788,0.0310091
 9,0.57411654,-0.00045389,-0.31176686,0.25868670,0.00119830,-0.00299856
 ,-0.00402920,0.00023301,-0.00055340,-0.00057616,0.00078437,0.00038712,
 0.00001008,0.12659432,-0.18628638,0.03521939,-0.00133716,0.00138391,-0
 .00048195,0.03871855,-0.10462507,0.02397768,0.01354885,0.00795512,-0.0
 2443995,0.00348053,-0.00202373,-0.01625638,0.00071807,-0.00053461,0.00
 112073,0.00556076,-0.00137422,0.00126282,-0.00025888,-0.00019520,0.000
 03042,0.00035521,-0.00071040,-0.00008157,0.00078537,0.00064611,0.00007
 091,0.00003909,0.00007923,0.00000338,-0.00033715,0.00029844,-0.0000724
 5,0.00000577,0.00007803,-0.00022034,0.00262868,-0.00548527,0.00380999,
 -0.00230114,-0.00004472,0.00033406,-0.00190805,0.00042176,0.00010555,0
 .00135713,-0.00186353,0.00078714,0.00003782,0.00001983,-0.00037419,0.0
 0076803,-0.00033816,0.00005783,0.00062019,0.00028778,-0.00017638,-0.00
 000991,0.00010462,0.00005843,-0.00041873,0.00024136,0.00014603,0.00002
 349,-0.00001612,-0.00004775,0.00025253,-0.02720431,0.04552534,-0.02101
 035,-0.00392795,0.01587492,-0.16019121,0.63193341,0.01744069,0.2590502
 8,-0.43576344,0.00251066,0.00094058,0.00232206,-0.00064261,-0.00163266
 ,-0.00091439,0.00043536,-0.00062050,0.00009054,0.00672971,0.04085789,-
 0.12660661,0.01269748,-0.02415911,0.01567534,0.12249509,0.02183733,-0.
 19621264,-0.00707216,-0.00426674,0.00921896,0.00268478,-0.00224358,-0.
 00298998,-0.00069803,-0.00006729,0.00007530,0.00448508,-0.00099985,0.0
 0472316,0.00049874,0.00082464,-0.00089952,0.00007299,-0.00058465,-0.00
 010545,0.00048254,0.00007456,-0.00009607,-0.00014053,-0.00011716,0.000
 06468,-0.00061667,-0.00055689,0.00021883,0.00112114,0.00002034,-0.0002
 7934,0.00215622,-0.00339769,0.00388304,-0.00209773,0.00100933,0.000401
 54,-0.00110703,0.00080298,0.00046652,0.00278601,0.00122945,-0.00304521
 ,-0.00035189,-0.00072025,0.00019619,-0.00023938,0.00011339,-0.00000819
 ,0.00041327,-0.00045601,0.00010241,0.00001204,-0.00011197,0.00004330,0
 .00027524,0.00025271,-0.00006383,0.00002613,-0.00003720,-0.00003345,-0
 .01903966,0.03017028,-0.01619872,0.00465307,0.02897757,-0.04406109,-0.
 14151293,-0.34621875,0.79379816,-0.00589316,0.00076767,0.00323695,-0.1
 7192003,-0.05364261,-0.12006980,-0.00122216,0.00100828,-0.00045628,-0.
 00114891,-0.00116402,0.00080456,-0.01699438,0.00661746,-0.01547120,0.0
 0017053,0.00094600,0.00049256,-0.00955428,-0.00027846,0.02506772,-0.00
 158904,-0.00084112,-0.00221166,-0.24897685,0.04398423,0.10870075,-0.00
 876541,0.01696351,0.03019303,-0.31703899,-0.01187355,-0.02323534,-0.01
 291465,-0.00243911,-0.01129698,0.00089292,0.00074123,-0.00004416,-0.00
 119330,0.00060448,-0.00057437,0.00011022,0.00008844,-0.00005677,0.0000
 1278,0.00000807,0.00023754,-0.00076165,0.00009953,0.00001863,-0.004920
 07,0.00122130,0.00582135,0.00464556,-0.00099624,-0.00016780,0.00540017
 ,-0.00163998,-0.00040917,-0.00775360,-0.00168234,-0.00558190,0.0006765
 1,-0.00042185,-0.00026630,-0.00055831,0.00035397,0.00035971,-0.0009508
 9,0.00150991,0.00042621,0.00004488,-0.00001880,0.00001561,-0.00091003,
 -0.00100754,0.00025631,-0.00013456,0.00007700,-0.00020735,0.03686885,0
 .00335561,0.01858893,-0.00173872,-0.01820575,-0.05897080,0.02606948,-0
 .00952854,-0.00846987,0.74016870,0.00041320,-0.00284192,0.00163687,-0.
 05282408,-0.17333086,-0.15687707,0.00006583,-0.00004466,0.00041136,0.0
 0042557,-0.00003271,0.00014237,0.00498556,-0.00147090,0.00837973,-0.00
 010904,-0.00091549,-0.00035861,0.00071738,-0.00126899,0.00242342,0.000
 12854,0.00048809,0.00001641,0.05001351,-0.09122239,-0.08494479,-0.0022
 8843,0.00138056,0.00901457,-0.01210626,-0.06862933,-0.02712250,0.00928
 003,-0.00041637,0.00761955,0.00006433,-0.00058385,-0.00002886,0.000429
 10,0.00034163,0.00045773,0.00000624,0.00002775,-0.00001911,-0.00046098
 ,0.00001389,0.00005462,-0.00019883,0.00003984,-0.00015994,0.00087416,-
 0.00164050,-0.00485606,-0.00099918,-0.00003875,-0.00017811,-0.00107214
 ,-0.00019870,-0.00031587,-0.00156322,-0.00199961,-0.00134831,0.0001350
 3,0.00009614,0.00013756,0.00036430,-0.00014627,0.00001823,0.00029481,0
 .00031506,-0.00009623,-0.00000812,0.00008772,-0.00000959,-0.00037511,0
 .00010825,0.00003101,0.00001980,-0.00000576,0.00000120,-0.00544821,-0.
 01568454,-0.02874076,-0.01289418,-0.00593044,-0.01283275,-0.00337320,0
 .00610890,0.00006903,0.02545659,0.35736532,0.00123385,-0.00278662,0.00
 233383,-0.12099053,-0.15461224,-0.46231906,0.00064541,0.00034748,0.000
 07186,0.00025429,0.00176825,-0.00075319,0.00407380,-0.00259344,0.00504
 505,-0.00010310,-0.00097272,-0.00098890,0.00333407,0.00042373,-0.00207
 560,-0.00058026,0.00042892,0.00001232,0.11116094,-0.08336721,-0.231795
 00,-0.00393919,0.00592593,0.01191778,-0.02527553,-0.03114744,-0.134162
 13,0.02457443,0.00969805,0.01811095,0.00018467,-0.00043900,-0.00005439
 ,0.00059993,0.00028525,0.00026600,0.00006696,0.00008425,0.00005017,-0.
 00013843,0.00067435,0.00015598,-0.00027943,0.00001452,-0.00005280,0.00
 166328,-0.00233490,-0.00321362,-0.00128362,-0.00006587,0.00051079,-0.0
 0224509,-0.00002338,0.00041997,0.00323072,0.00067922,0.00361661,-0.000
 11251,0.00079539,0.00026767,0.00080314,-0.00053216,-0.00030785,0.00032
 946,-0.00022494,-0.00026842,-0.00004110,0.00016789,0.00008057,0.000226
 29,0.00049241,-0.00010034,0.00005498,0.00000060,0.00017591,-0.01113443
 ,-0.02382474,-0.05106764,-0.03317933,-0.01227148,-0.02243391,-0.006220
 03,0.00580238,-0.00415770,0.05303175,0.28759528,0.87074384,0.00002308,
 -0.00002212,0.00002389,0.00002396,-0.00001442,-0.00002081,-0.02772237,
 -0.02190193,-0.00237890,0.00000700,0.00015347,-0.00003949,0.00004847,-
 0.00009081,0.00000267,0.00000318,0.00000925,-0.00000350,0.00005303,-0.
 00005319,0.00001242,-0.00003504,-0.00002875,0.00001201,0.00005281,-0.0
 0008007,-0.00004521,0.00000230,0.00001310,-0.00000246,0.00010507,0.000
 02817,0.00001010,-0.00002248,-0.00000296,-0.00001137,-0.33657501,-0.39
 388611,-0.04394793,0.01365760,0.01621735,0.00109717,0.00037908,-0.0010
 7769,0.00022909,-0.00060456,0.00365082,-0.00026416,0.00072685,0.000667
 22,0.00012472,-0.00071216,0.00022069,-0.00005173,-0.00331564,0.0006120
 4,-0.00083111,0.00000494,-0.00116060,-0.00013251,-0.00033600,0.0002581
 6,0.00004466,-0.00003612,-0.00014600,0.00001789,-0.00003490,0.00002044
 ,0.00000144,-0.00000658,0.00005964,0.00000817,-0.00000320,-0.00000405,
 -0.00000277,-0.00005183,-0.00005697,0.00001516,-0.00002038,0.00000325,
 -0.00000166,0.00004689,0.00018845,0.00000286,0.00007171,-0.00017575,0.
 00011133,-0.00009984,0.00004497,0.00001223,-0.00012160,0.00004698,0.00
 005461,0.35449174,-0.00000321,-0.00000082,0.00000778,0.00002336,-0.000
 00170,0.00001312,0.01132524,0.01713559,0.00208444,-0.00021632,-0.00008
 638,-0.00003135,-0.00001342,0.00001162,0.00000549,-0.00000296,0.000002
 34,-0.00000240,-0.00002207,0.00004055,-0.00000223,0.00004891,0.0000375
 7,-0.00001699,0.00000205,-0.00001195,-0.00000797,-0.00000283,-0.000001
 79,-0.00000041,0.00009996,0.00014173,0.00002841,0.00003367,-0.00002118
 ,0.00001848,-0.39327059,-0.44155557,-0.04973061,-0.02271359,-0.0169683
 3,-0.00295222,0.00014413,0.00150726,0.00037832,0.00286589,-0.00478003,
 -0.00065718,-0.00124190,-0.00083003,-0.00009149,0.00105525,-0.00025834
 ,0.00002089,0.00517162,0.00202013,-0.00037502,0.00014094,0.00063595,-0
 .00003732,0.00023651,-0.00005460,-0.00002852,-0.00001427,0.00008627,-0
 .00000235,0.00001365,-0.00000755,-0.00000504,-0.00002625,-0.00005617,0
 .00001588,-0.00000385,-0.00000494,0.00000216,0.00007073,-0.00003662,-0
 .00000962,0.00001156,0.00000389,-0.00000820,-0.00004844,-0.00001725,-0
 .00000371,-0.00013429,-0.00011441,0.00018197,0.00002649,0.00000287,-0.
 00004007,-0.00006338,0.00002887,0.00001226,0.39650741,0.44315302,0.000
 02363,0.00000174,-0.00009228,-0.00008921,0.00000985,-0.00007380,-0.000
 05125,-0.00006768,-0.00617481,-0.00003202,0.00000947,0.00030477,0.0000
 2033,-0.00006666,0.00000732,0.00000575,-0.00000115,0.00000935,0.000197
 67,0.00049182,-0.00015019,0.00004599,0.00003286,0.00000398,-0.00000149
 ,0.00004057,0.00004112,0.00000157,0.00000349,0.00000732,-0.00052047,-0
 .00040354,-0.00025392,-0.00003263,0.00000862,0.00001903,-0.04428079,-0
 .04929097,0.02208873,-0.00126236,-0.00146169,0.01175318,0.00030014,0.0
 0034553,-0.00469218,0.00008078,-0.00032920,0.00796481,0.00002078,0.000
 07617,-0.00056887,0.00005248,0.00006599,-0.00034647,-0.00045077,-0.000
 64530,0.01374713,-0.00006999,-0.00011581,0.00024853,-0.00005082,-0.000
 00017,-0.00013348,-0.00001371,0.00000058,-0.00005118,0.00000147,0.0000
 0029,0.00004075,-0.00001101,-0.00000287,-0.00008110,-0.00000124,-0.000
 00115,-0.00000029,-0.00000702,-0.00001366,-0.00001199,0.00000685,0.000
 00149,0.00005482,-0.00002528,0.00007039,0.00004637,0.00011643,0.000036
 58,-0.00217906,-0.00016512,0.00009129,0.00015560,0.00023813,-0.0001203
 6,-0.00002876,0.04595320,0.05123348,-0.04165445\\0.00099892,0.02043267
 ,-0.02478218,0.01574123,0.01632262,0.04354486,0.01189251,-0.00843730,0
 .00192657,-0.01429941,0.00425616,0.00244476,0.13270866,-0.03985218,-0.
 13091577,-0.13240395,0.04669635,0.11354545,-0.14627074,0.12558045,-0.0
 1226942,0.14192669,-0.11654426,-0.00001799,0.18728670,0.02123712,0.028
 02410,-0.18150399,-0.01450693,-0.00547976,-0.14300882,0.04138815,0.129
 85681,0.13965596,-0.03402827,-0.11224721,-0.12143387,-0.11185263,-0.01
 489637,-0.13256526,0.02062920,-0.00736718,0.14696685,-0.03008894,0.006
 43807,-0.05704544,0.13878036,0.00719458,0.04686669,-0.14246873,-0.0070
 3846,-0.00047811,-0.01350122,0.00088200,0.01700731,0.02838614,0.002212
 38,-0.00041052,0.02277460,0.00055199,-0.00685071,-0.00554135,0.0019676
 0,0.12232676,0.08449009,-0.01715437,-0.11801367,-0.09399849,0.01466519
 ,0.12451889,-0.05370221,-0.01809712,-0.13716523,0.05636467,0.02060352,
 0.03626700,-0.16348392,-0.00749624,-0.01536401,0.15127489,0.00237947,-
 0.00608611,0.00043254,0.00601599,0.00609601,-0.00176700,-0.00802182,0.
 00143385,-0.03668324,0.04810756,-0.01573510,-0.02970310,-0.07670838,0.
 09694088,0.11711375,0.01213138\\\@
 The archive entry for this job was punched.

 Writing a WFNX file to "YUHCEK_Complex_10_Ligand_1_NN_Cu_oriented.wfx"


 Age does not diminish the extreme disappointment of
 having a scoop of ice cream fall from the cone.
 -- Jim Fiebig
 Job cpu time:       0 days  1 hours  7 minutes 12.3 seconds.
 Elapsed time:       0 days  1 hours  7 minutes 31.7 seconds.
 File lengths (MBytes):  RWF=    600 Int=      0 D2E=      0 Chk=     16 Scr=      8
 Normal termination of Gaussian 16 at Sat Mar  4 12:50:27 2023.
