 Entering Gaussian System, Link 0=g16
 Initial command:
 /ssoft/spack/external/gaussian/g16-C.01/avx2/g16/l1.exe "/scratch/lcmd/2316218/Gau-916847.inp" -scrdir="/scratch/lcmd/2316218/"
 Entering Link 1 = /ssoft/spack/external/gaussian/g16-C.01/avx2/g16/l1.exe PID=    916850.
  
 Copyright (c) 1988-2019, Gaussian, Inc.  All Rights Reserved.
  
 This is part of the Gaussian(R) 16 program.  It is based on
 the Gaussian(R) 09 system (copyright 2009, Gaussian, Inc.),
 the Gaussian(R) 03 system (copyright 2003, Gaussian, Inc.),
 the Gaussian(R) 98 system (copyright 1998, Gaussian, Inc.),
 the Gaussian(R) 94 system (copyright 1995, Gaussian, Inc.),
 the Gaussian 92(TM) system (copyright 1992, Gaussian, Inc.),
 the Gaussian 90(TM) system (copyright 1990, Gaussian, Inc.),
 the Gaussian 88(TM) system (copyright 1988, Gaussian, Inc.),
 the Gaussian 86(TM) system (copyright 1986, Carnegie Mellon
 University), and the Gaussian 82(TM) system (copyright 1983,
 Carnegie Mellon University). Gaussian is a federally registered
 trademark of Gaussian, Inc.
  
 This software contains proprietary and confidential information,
 including trade secrets, belonging to Gaussian, Inc.
  
 This software is provided under written license and may be
 used, copied, transmitted, or stored only in accord with that
 written license.
  
 The following legend is applicable only to US Government
 contracts under FAR:
  
                    RESTRICTED RIGHTS LEGEND
  
 Use, reproduction and disclosure by the US Government is
 subject to restrictions as set forth in subparagraphs (a)
 and (c) of the Commercial Computer Software - Restricted
 Rights clause in FAR 52.227-19.
  
 Gaussian, Inc.
 340 Quinnipiac St., Bldg. 40, Wallingford CT 06492
  
  
 ---------------------------------------------------------------
 Warning -- This program may not be used in any manner that
 competes with the business of Gaussian, Inc. or will provide
 assistance to any competitor of Gaussian, Inc.  The licensee
 of this program is prohibited from giving any competitor of
 Gaussian, Inc. access to this program.  By using this program,
 the user acknowledges that Gaussian, Inc. is engaged in the
 business of creating and licensing software in the field of
 computational chemistry and represents and warrants to the
 licensee that it is not a competitor of Gaussian, Inc. and that
 it will not use this program in any manner prohibited above.
 ---------------------------------------------------------------
  

 Cite this work as:
 Gaussian 16, Revision C.01,
 M. J. Frisch, G. W. Trucks, H. B. Schlegel, G. E. Scuseria, 
 M. A. Robb, J. R. Cheeseman, G. Scalmani, V. Barone, 
 G. A. Petersson, H. Nakatsuji, X. Li, M. Caricato, A. V. Marenich, 
 J. Bloino, B. G. Janesko, R. Gomperts, B. Mennucci, H. P. Hratchian, 
 J. V. Ortiz, A. F. Izmaylov, J. L. Sonnenberg, D. Williams-Young, 
 F. Ding, F. Lipparini, F. Egidi, J. Goings, B. Peng, A. Petrone, 
 T. Henderson, D. Ranasinghe, V. G. Zakrzewski, J. Gao, N. Rega, 
 G. Zheng, W. Liang, M. Hada, M. Ehara, K. Toyota, R. Fukuda, 
 J. Hasegawa, M. Ishida, T. Nakajima, Y. Honda, O. Kitao, H. Nakai, 
 T. Vreven, K. Throssell, J. A. Montgomery, Jr., J. E. Peralta, 
 F. Ogliaro, M. J. Bearpark, J. J. Heyd, E. N. Brothers, K. N. Kudin, 
 V. N. Staroverov, T. A. Keith, R. Kobayashi, J. Normand, 
 K. Raghavachari, A. P. Rendell, J. C. Burant, S. S. Iyengar, 
 J. Tomasi, M. Cossi, J. M. Millam, M. Klene, C. Adamo, R. Cammi, 
 J. W. Ochterski, R. L. Martin, K. Morokuma, O. Farkas, 
 J. B. Foresman, and D. J. Fox, Gaussian, Inc., Wallingford CT, 2019.
 
 ******************************************
 Gaussian 16:  ES64L-G16RevC.01  3-Jul-2019
                 4-Mar-2023 
 ******************************************
 %nprocshared=1
 Will use up to    1 processors via shared memory.
 %mem=8000MB
 %chk=ZALRIQ_Complex_3_Ligand_6_NN_Cu_oriented.chk
 ----------------------------------------------------------------------
 #p pop=(regular,nbo,savenbos) freq=noraman def2svp empiricaldispersion
 =gd3bj output=wfx pbe1pbe
 ----------------------------------------------------------------------
 1/10=4,30=1,38=1/1,3;
 2/12=2,17=6,18=5,40=1/2;
 3/5=43,7=101,11=2,25=1,30=1,71=2,74=-13,124=41,140=1/1,2,3;
 4//1;
 5/5=2,38=5,98=1/2;
 8/6=4,10=90,11=11/1;
 11/6=1,8=1,9=11,15=111,16=1/1,2,10;
 10/6=1/2;
 6/28=1,40=1,73=1/1,7;
 7/8=1,10=1,25=1/1,2,3,16;
 1/10=4,30=1/3;
 99/6=200/99;
 Leave Link    1 at Sat Mar  4 11:42:55 2023, MaxMem=  1048576000 cpu:               0.0 elap:               0.1
 (Enter /ssoft/spack/external/gaussian/g16-C.01/avx2/g16/l101.exe)
 ----------------------------------------
 ZALRIQ_Complex_3_Ligand_6_NN_Cu_oriented
 ----------------------------------------
 Symbolic Z-matrix:
 Charge =  0 Multiplicity = 1
 N                     0.35783  -1.98412   0. 
 H                     0.98199  -2.18937   0.61527 
 H                     0.65442  -2.24805  -0.80773 
 C                    -0.93625  -2.66058   0.32527 
 H                    -1.10372  -2.44876   1.26772 
 C                    -0.91316  -4.07151   0.26595 
 H                    -0.16766  -4.40159   0.77267 
 H                    -1.72885  -4.4205    0.63238 
 H                    -0.82851  -4.3511   -0.64883 
 C                    -1.98483  -1.88618  -0.44446 
 H                    -2.86597  -2.25425  -0.27609 
 H                    -1.80635  -1.93603  -1.39716 
 N                    -1.9221   -0.53029   0. 
 H                    -2.2657   -0.45684   0.8284 
 H                    -2.39242   0.00189  -0.5535 
 
 ITRead=  0  0  0  0  0  0  0  0  0  0  0  0  0  0  0
 MicOpt= -1 -1 -1 -1 -1 -1 -1 -1 -1 -1 -1 -1 -1 -1 -1
 NAtoms=     15 NQM=       15 NQMF=       0 NMMI=      0 NMMIF=      0
                NMic=       0 NMicF=      0.
                    Isotopes and Nuclear Properties:
 (Nuclear quadrupole moments (NQMom) in fm**2, nuclear magnetic moments (NMagM)
  in nuclear magnetons)

  Atom         1           2           3           4           5           6           7           8           9          10
 IAtWgt=          14           1           1          12           1          12           1           1           1          12
 AtmWgt=  14.0030740   1.0078250   1.0078250  12.0000000   1.0078250  12.0000000   1.0078250   1.0078250   1.0078250  12.0000000
 NucSpn=           2           1           1           0           1           0           1           1           1           0
 AtZEff=  -0.0000000  -0.0000000  -0.0000000  -0.0000000  -0.0000000  -0.0000000  -0.0000000  -0.0000000  -0.0000000  -0.0000000
 NQMom=    2.0440000   0.0000000   0.0000000   0.0000000   0.0000000   0.0000000   0.0000000   0.0000000   0.0000000   0.0000000
 NMagM=    0.4037610   2.7928460   2.7928460   0.0000000   2.7928460   0.0000000   2.7928460   2.7928460   2.7928460   0.0000000
 AtZNuc=   7.0000000   1.0000000   1.0000000   6.0000000   1.0000000   6.0000000   1.0000000   1.0000000   1.0000000   6.0000000

  Atom        11          12          13          14          15
 IAtWgt=           1           1          14           1           1
 AtmWgt=   1.0078250   1.0078250  14.0030740   1.0078250   1.0078250
 NucSpn=           1           1           2           1           1
 AtZEff=  -0.0000000  -0.0000000  -0.0000000  -0.0000000  -0.0000000
 NQMom=    0.0000000   0.0000000   2.0440000   0.0000000   0.0000000
 NMagM=    2.7928460   2.7928460   0.4037610   2.7928460   2.7928460
 AtZNuc=   1.0000000   1.0000000   7.0000000   1.0000000   1.0000000
 Leave Link  101 at Sat Mar  4 11:42:55 2023, MaxMem=  1048576000 cpu:               0.1 elap:               0.1
 (Enter /ssoft/spack/external/gaussian/g16-C.01/avx2/g16/l103.exe)

 GradGradGradGradGradGradGradGradGradGradGradGradGradGradGradGradGradGrad
 Berny optimization.
 Initialization pass.
 Trust Radius=3.00D-01 FncErr=1.00D-07 GrdErr=1.00D-07 EigMax=2.50D+02 EigMin=1.00D-04
 Number of steps in this run=      2 maximum allowed number of steps=      2.
 GradGradGradGradGradGradGradGradGradGradGradGradGradGradGradGradGradGrad

 Leave Link  103 at Sat Mar  4 11:42:55 2023, MaxMem=  1048576000 cpu:               0.0 elap:               0.0
 (Enter /ssoft/spack/external/gaussian/g16-C.01/avx2/g16/l202.exe)
                          Input orientation:                          
 ---------------------------------------------------------------------
 Center     Atomic      Atomic             Coordinates (Angstroms)
 Number     Number       Type             X           Y           Z
 ---------------------------------------------------------------------
      1          7           0        0.357829   -1.984122    0.000000
      2          1           0        0.981987   -2.189365    0.615267
      3          1           0        0.654424   -2.248048   -0.807735
      4          6           0       -0.936247   -2.660580    0.325266
      5          1           0       -1.103720   -2.448765    1.267718
      6          6           0       -0.913157   -4.071507    0.265948
      7          1           0       -0.167656   -4.401585    0.772672
      8          1           0       -1.728849   -4.420496    0.632378
      9          1           0       -0.828515   -4.351097   -0.648828
     10          6           0       -1.984827   -1.886181   -0.444458
     11          1           0       -2.865969   -2.254252   -0.276090
     12          1           0       -1.806355   -1.936033   -1.397156
     13          7           0       -1.922096   -0.530290    0.000000
     14          1           0       -2.265697   -0.456844    0.828405
     15          1           0       -2.392417    0.001895   -0.553502
 ---------------------------------------------------------------------
                    Distance matrix (angstroms):
                    1          2          3          4          5
     1  N    0.000000
     2  H    0.900140   0.000000
     3  H    0.900034   1.461395   0.000000
     4  C    1.496003   1.996439   1.996023   0.000000
     5  H    1.989756   2.200717   2.727428   0.980372   0.000000
     6  C    2.458314   2.693706   2.633459   1.412362   1.916546
     7  H    2.591772   2.498074   2.794856   1.954995   2.221440
     8  H    3.269564   3.510965   3.531777   1.954442   2.163832
     9  H    2.725979   3.090136   2.578211   1.954051   2.714361
    10  C    2.386456   3.164953   2.688599   1.513832   2.006090
    11  H    3.246856   3.950380   3.560317   2.061688   2.350894
    12  H    2.576441   3.448025   2.549550   2.061260   2.803238
    13  N    2.704013   3.400703   3.200248   2.369774   2.440777
    14  H    3.146700   3.687073   3.796376   2.622411   2.347538
    15  H    3.437220   4.189779   3.796066   3.159341   3.314108
                    6          7          8          9         10
     6  C    0.000000
     7  H    0.959944   0.000000
     8  H    0.959906   1.567598   0.000000
     9  H    0.960286   1.568421   1.567453   0.000000
    10  C    2.535508   3.333283   2.765476   2.730318   0.000000
    11  H    2.722075   3.604419   2.609784   2.947357   0.969658
    12  H    2.850256   3.670481   3.208983   2.710848   0.970552
    13  N    3.691734   4.319954   3.946004   4.026843   1.428257
    14  H    3.900193   4.468318   4.004644   4.406009   1.934444
    15  H    4.410477   5.108711   4.626465   4.626382   1.934645
                   11         12         13         14         15
    11  H    0.000000
    12  H    1.575067   0.000000
    13  N    1.984733   1.985334   0.000000
    14  H    2.193379   2.711478   0.899839   0.000000
    15  H    2.321941   2.193350   0.900437   1.461562   0.000000
 Stoichiometry    C3H10N2
 Framework group  C1[X(C3H10N2)]
 Deg. of freedom    39
 Full point group                 C1      NOp   1
 Largest Abelian subgroup         C1      NOp   1
 Largest concise Abelian subgroup C1      NOp   1
                         Standard orientation:                         
 ---------------------------------------------------------------------
 Center     Atomic      Atomic             Coordinates (Angstroms)
 Number     Number       Type             X           Y           Z
 ---------------------------------------------------------------------
      1          7           0       -0.434800    1.392049    0.119392
      2          1           0       -0.975853    1.864224   -0.423344
      3          1           0       -0.706939    1.511055    0.969003
      4          6           0       -0.473956   -0.059445   -0.240689
      5          1           0       -0.323128   -0.085076   -1.209050
      6          6           0       -1.719071   -0.697482   -0.047391
      7          1           0       -2.412801   -0.178842   -0.461208
      8          1           0       -1.694919   -1.572268   -0.441835
      9          1           0       -1.894764   -0.775981    0.893417
     10          6           0        0.781519   -0.645977    0.368778
     11          1           0        0.842626   -1.592567    0.167608
     12          1           0        0.769381   -0.535462    1.332940
     13          7           0        1.892748    0.052117   -0.194918
     14          1           0        2.016412   -0.196639   -1.050802
     15          1           0        2.643398   -0.130174    0.267770
 ---------------------------------------------------------------------
 Rotational constants (GHZ):           8.4563519           3.7553871           2.8957087
 Leave Link  202 at Sat Mar  4 11:42:55 2023, MaxMem=  1048576000 cpu:               0.0 elap:               0.0
 (Enter /ssoft/spack/external/gaussian/g16-C.01/avx2/g16/l301.exe)
 Standard basis: def2SVP (5D, 7F)
 Ernie: Thresh=  0.10000D-02 Tol=  0.10000D-05 Strict=F.
 There are   125 symmetry adapted cartesian basis functions of A   symmetry.
 There are   120 symmetry adapted basis functions of A   symmetry.
   120 basis functions,   195 primitive gaussians,   125 cartesian basis functions
    21 alpha electrons       21 beta electrons
       nuclear repulsion energy       204.7575245176 Hartrees.
 IExCor= 1009 DFT=T Ex+Corr=PBE1PBE ExCW=0 ScaHFX=  0.250000
 ScaDFX=  0.750000  0.750000  1.000000  1.000000 ScalE2=  1.000000  1.000000
 IRadAn=      5 IRanWt=     -1 IRanGd=            0 ICorTp=0 IEmpDi=141
 NAtoms=   15 NActive=   15 NUniq=   15 SFac= 1.00D+00 NAtFMM=   60 NAOKFM=F Big=F
 Integral buffers will be    131072 words long.
 Raffenetti 2 integral format.
 Two-electron integral symmetry is turned on.
 R6Disp:  Grimme-D3(BJ) Dispersion energy=       -0.0094265052 Hartrees.
 Nuclear repulsion after empirical dispersion term =      204.7480980124 Hartrees.
 Leave Link  301 at Sat Mar  4 11:42:55 2023, MaxMem=  1048576000 cpu:               0.0 elap:               0.0
 (Enter /ssoft/spack/external/gaussian/g16-C.01/avx2/g16/l302.exe)
 NPDir=0 NMtPBC=     1 NCelOv=     1 NCel=       1 NClECP=     1 NCelD=      1
         NCelK=      1 NCelE2=     1 NClLst=     1 CellRange=     0.0.
 One-electron integrals computed using PRISM.
 One-electron integral symmetry used in STVInt
   1 Symmetry operations used in ECPInt.
 ECPInt:  NShTT=    1830 NPrTT=    6200 LenC2=    1829 LenP2D=    5436.
 LDataN:  DoStor=T MaxTD1= 4 Len=   56
 NBasis=   120 RedAO= T EigKep=  1.36D-03  NBF=   120
 NBsUse=   120 1.00D-06 EigRej= -1.00D+00 NBFU=   120
 Precomputing XC quadrature grid using
 IXCGrd= 4 IRadAn=           5 IRanWt=          -1 IRanGd=           0 AccXCQ= 0.00D+00.
 Generated NRdTot=       0 NPtTot=           0 NUsed=           0 NTot=          32
 NSgBfM=   125   125   125   125   125 MxSgAt=    15 MxSgA2=    15.
 Leave Link  302 at Sat Mar  4 11:42:55 2023, MaxMem=  1048576000 cpu:               0.3 elap:               0.3
 (Enter /ssoft/spack/external/gaussian/g16-C.01/avx2/g16/l303.exe)
 DipDrv:  MaxL=1.
 Leave Link  303 at Sat Mar  4 11:42:55 2023, MaxMem=  1048576000 cpu:               0.0 elap:               0.0
 (Enter /ssoft/spack/external/gaussian/g16-C.01/avx2/g16/l401.exe)
 ExpMin= 1.22D-01 ExpMax= 1.71D+03 ExpMxC= 2.58D+02 IAcc=3 IRadAn=         5 AccDes= 0.00D+00
 Harris functional with IExCor= 1009 and IRadAn=       5 diagonalized for initial guess.
 HarFok:  IExCor= 1009 AccDes= 0.00D+00 IRadAn=         5 IDoV= 1 UseB2=F ITyADJ=14
 ICtDFT=  3500011 ScaDFX=  1.000000  1.000000  1.000000  1.000000
 FoFCou: FMM=F IPFlag=           0 FMFlag=      100000 FMFlg1=           0
         NFxFlg=           0 DoJE=T BraDBF=F KetDBF=T FulRan=T
         wScrn=  0.000000 ICntrl=       500 IOpCl=  0 I1Cent=   200000004 NGrid=           0
         NMat0=    1 NMatS0=      1 NMatT0=    0 NMatD0=    1 NMtDS0=    0 NMtDT0=    0
 Petite list used in FoFCou.
 Harris En= -229.427207059025    
 JPrj=0 DoOrth=F DoCkMO=F.
 Leave Link  401 at Sat Mar  4 11:42:57 2023, MaxMem=  1048576000 cpu:               1.5 elap:               1.5
 (Enter /ssoft/spack/external/gaussian/g16-C.01/avx2/g16/l502.exe)
 Keep R1 ints in memory in canonical form, NReq=27358866.
 FoFCou: FMM=F IPFlag=           0 FMFlag=           0 FMFlg1=           0
         NFxFlg=           0 DoJE=F BraDBF=F KetDBF=F FulRan=T
         wScrn=  0.000000 ICntrl=       600 IOpCl=  0 I1Cent=           0 NGrid=           0
         NMat0=    1 NMatS0=   7260 NMatT0=    0 NMatD0=    1 NMtDS0=    0 NMtDT0=    0
 Symmetry not used in FoFCou.
 Two-electron integral symmetry not used.
 Closed shell SCF:
 Using DIIS extrapolation, IDIIS=  1040.
 NGot=  1048576000 LenX=  1022184664 LenY=  1022168598
 Requested convergence on RMS density matrix=1.00D-08 within 128 cycles.
 Requested convergence on MAX density matrix=1.00D-06.
 Requested convergence on             energy=1.00D-06.
 No special actions if energy rises.
 Integral accuracy reduced to 1.0D-05 until final iterations.

 Cycle   1  Pass 0  IDiag  1:
 E= -228.972935247754    
 DIIS: error= 3.82D-02 at cycle   1 NSaved=   1.
 NSaved= 1 IEnMin= 1 EnMin= -228.972935247754     IErMin= 1 ErrMin= 3.82D-02
 ErrMax= 3.82D-02  0.00D+00 EMaxC= 1.00D-01 BMatC= 2.65D-01 BMatP= 2.65D-01
 IDIUse=3 WtCom= 6.18D-01 WtEn= 3.82D-01
 Coeff-Com:  0.100D+01
 Coeff-En:   0.100D+01
 Coeff:      0.100D+01
 Gap=     0.172 Goal=   None    Shift=    0.000
 GapD=    0.172 DampG=1.000 DampE=0.500 DampFc=0.5000 IDamp=-1.
 Damping current iteration by 5.00D-01
 RMSDP=1.01D-02 MaxDP=1.70D-01              OVMax= 1.64D-01

 Cycle   2  Pass 0  IDiag  1:
 E= -229.098026792111     Delta-E=       -0.125091544357 Rises=F Damp=T
 DIIS: error= 5.86D-03 at cycle   2 NSaved=   2.
 NSaved= 2 IEnMin= 2 EnMin= -229.098026792111     IErMin= 2 ErrMin= 5.86D-03
 ErrMax= 5.86D-03  0.00D+00 EMaxC= 1.00D-01 BMatC= 6.49D-03 BMatP= 2.65D-01
 IDIUse=3 WtCom= 9.41D-01 WtEn= 5.86D-02
 Coeff-Com:  0.197D-02 0.998D+00
 Coeff-En:   0.000D+00 0.100D+01
 Coeff:      0.185D-02 0.998D+00
 Gap=     0.296 Goal=   None    Shift=    0.000
 RMSDP=2.13D-03 MaxDP=7.20D-02 DE=-1.25D-01 OVMax= 9.30D-02

 Cycle   3  Pass 0  IDiag  1:
 E= -229.227481613798     Delta-E=       -0.129454821687 Rises=F Damp=F
 DIIS: error= 2.94D-03 at cycle   3 NSaved=   3.
 NSaved= 3 IEnMin= 3 EnMin= -229.227481613798     IErMin= 3 ErrMin= 2.94D-03
 ErrMax= 2.94D-03  0.00D+00 EMaxC= 1.00D-01 BMatC= 2.12D-03 BMatP= 6.49D-03
 IDIUse=3 WtCom= 9.71D-01 WtEn= 2.94D-02
 Coeff-Com: -0.199D-01 0.338D+00 0.682D+00
 Coeff-En:   0.000D+00 0.000D+00 0.100D+01
 Coeff:     -0.193D-01 0.328D+00 0.692D+00
 Gap=     0.286 Goal=   None    Shift=    0.000
 RMSDP=5.53D-04 MaxDP=9.02D-03 DE=-1.29D-01 OVMax= 1.14D-02

 Cycle   4  Pass 0  IDiag  1:
 E= -229.228985882707     Delta-E=       -0.001504268908 Rises=F Damp=F
 DIIS: error= 1.02D-03 at cycle   4 NSaved=   4.
 NSaved= 4 IEnMin= 4 EnMin= -229.228985882707     IErMin= 4 ErrMin= 1.02D-03
 ErrMax= 1.02D-03  0.00D+00 EMaxC= 1.00D-01 BMatC= 3.26D-04 BMatP= 2.12D-03
 IDIUse=3 WtCom= 9.90D-01 WtEn= 1.02D-02
 Coeff-Com: -0.783D-02 0.589D-01 0.305D+00 0.644D+00
 Coeff-En:   0.000D+00 0.000D+00 0.605D-01 0.939D+00
 Coeff:     -0.775D-02 0.583D-01 0.302D+00 0.647D+00
 Gap=     0.290 Goal=   None    Shift=    0.000
 RMSDP=1.80D-04 MaxDP=4.12D-03 DE=-1.50D-03 OVMax= 3.65D-03

 Cycle   5  Pass 0  IDiag  1:
 E= -229.229269337396     Delta-E=       -0.000283454689 Rises=F Damp=F
 DIIS: error= 1.92D-04 at cycle   5 NSaved=   5.
 NSaved= 5 IEnMin= 5 EnMin= -229.229269337396     IErMin= 5 ErrMin= 1.92D-04
 ErrMax= 1.92D-04  0.00D+00 EMaxC= 1.00D-01 BMatC= 1.07D-05 BMatP= 3.26D-04
 IDIUse=3 WtCom= 9.98D-01 WtEn= 1.92D-03
 Coeff-Com: -0.178D-02 0.284D-02 0.668D-01 0.227D+00 0.705D+00
 Coeff-En:   0.000D+00 0.000D+00 0.000D+00 0.000D+00 0.100D+01
 Coeff:     -0.177D-02 0.283D-02 0.666D-01 0.226D+00 0.706D+00
 Gap=     0.290 Goal=   None    Shift=    0.000
 RMSDP=3.17D-05 MaxDP=6.32D-04 DE=-2.83D-04 OVMax= 7.30D-04

 Cycle   6  Pass 0  IDiag  1:
 E= -229.229277552057     Delta-E=       -0.000008214661 Rises=F Damp=F
 DIIS: error= 7.19D-05 at cycle   6 NSaved=   6.
 NSaved= 6 IEnMin= 6 EnMin= -229.229277552057     IErMin= 6 ErrMin= 7.19D-05
 ErrMax= 7.19D-05  0.00D+00 EMaxC= 1.00D-01 BMatC= 1.07D-06 BMatP= 1.07D-05
 IDIUse=1 WtCom= 1.00D+00 WtEn= 0.00D+00
 Coeff-Com: -0.475D-03-0.101D-02 0.194D-01 0.832D-01 0.345D+00 0.554D+00
 Coeff:     -0.475D-03-0.101D-02 0.194D-01 0.832D-01 0.345D+00 0.554D+00
 Gap=     0.290 Goal=   None    Shift=    0.000
 RMSDP=8.46D-06 MaxDP=3.10D-04 DE=-8.21D-06 OVMax= 2.13D-04

 Initial convergence to 1.0D-05 achieved.  Increase integral accuracy.
 Cycle   7  Pass 1  IDiag  1:
 E= -229.229263991519     Delta-E=        0.000013560539 Rises=F Damp=F
 DIIS: error= 7.43D-06 at cycle   1 NSaved=   1.
 NSaved= 1 IEnMin= 1 EnMin= -229.229263991519     IErMin= 1 ErrMin= 7.43D-06
 ErrMax= 7.43D-06  0.00D+00 EMaxC= 1.00D-01 BMatC= 1.32D-08 BMatP= 1.32D-08
 IDIUse=1 WtCom= 1.00D+00 WtEn= 0.00D+00
 Coeff-Com:  0.100D+01
 Coeff:      0.100D+01
 Gap=     0.290 Goal=   None    Shift=    0.000
 RMSDP=8.46D-06 MaxDP=3.10D-04 DE= 1.36D-05 OVMax= 4.06D-05

 Cycle   8  Pass 1  IDiag  1:
 E= -229.229263995619     Delta-E=       -0.000000004100 Rises=F Damp=F
 DIIS: error= 7.01D-06 at cycle   2 NSaved=   2.
 NSaved= 2 IEnMin= 2 EnMin= -229.229263995619     IErMin= 2 ErrMin= 7.01D-06
 ErrMax= 7.01D-06  0.00D+00 EMaxC= 1.00D-01 BMatC= 1.07D-08 BMatP= 1.32D-08
 IDIUse=1 WtCom= 1.00D+00 WtEn= 0.00D+00
 Coeff-Com:  0.472D+00 0.528D+00
 Coeff:      0.472D+00 0.528D+00
 Gap=     0.290 Goal=   None    Shift=    0.000
 RMSDP=9.90D-07 MaxDP=2.78D-05 DE=-4.10D-09 OVMax= 2.23D-05

 Cycle   9  Pass 1  IDiag  1:
 E= -229.229264005067     Delta-E=       -0.000000009448 Rises=F Damp=F
 DIIS: error= 1.50D-06 at cycle   3 NSaved=   3.
 NSaved= 3 IEnMin= 3 EnMin= -229.229264005067     IErMin= 3 ErrMin= 1.50D-06
 ErrMax= 1.50D-06  0.00D+00 EMaxC= 1.00D-01 BMatC= 2.98D-10 BMatP= 1.07D-08
 IDIUse=1 WtCom= 1.00D+00 WtEn= 0.00D+00
 Coeff-Com:  0.950D-01 0.182D+00 0.723D+00
 Coeff:      0.950D-01 0.182D+00 0.723D+00
 Gap=     0.290 Goal=   None    Shift=    0.000
 RMSDP=1.85D-07 MaxDP=3.89D-06 DE=-9.45D-09 OVMax= 3.92D-06

 Cycle  10  Pass 1  IDiag  1:
 E= -229.229264005305     Delta-E=       -0.000000000238 Rises=F Damp=F
 DIIS: error= 3.97D-07 at cycle   4 NSaved=   4.
 NSaved= 4 IEnMin= 4 EnMin= -229.229264005305     IErMin= 4 ErrMin= 3.97D-07
 ErrMax= 3.97D-07  0.00D+00 EMaxC= 1.00D-01 BMatC= 2.31D-11 BMatP= 2.98D-10
 IDIUse=1 WtCom= 1.00D+00 WtEn= 0.00D+00
 Coeff-Com: -0.732D-02 0.204D-01 0.251D+00 0.736D+00
 Coeff:     -0.732D-02 0.204D-01 0.251D+00 0.736D+00
 Gap=     0.290 Goal=   None    Shift=    0.000
 RMSDP=7.12D-08 MaxDP=2.03D-06 DE=-2.38D-10 OVMax= 1.28D-06

 Cycle  11  Pass 1  IDiag  1:
 E= -229.229264005324     Delta-E=       -0.000000000019 Rises=F Damp=F
 DIIS: error= 1.18D-07 at cycle   5 NSaved=   5.
 NSaved= 5 IEnMin= 5 EnMin= -229.229264005324     IErMin= 5 ErrMin= 1.18D-07
 ErrMax= 1.18D-07  0.00D+00 EMaxC= 1.00D-01 BMatC= 2.73D-12 BMatP= 2.31D-11
 IDIUse=1 WtCom= 1.00D+00 WtEn= 0.00D+00
 Coeff-Com: -0.907D-02 0.755D-04 0.838D-01 0.353D+00 0.573D+00
 Coeff:     -0.907D-02 0.755D-04 0.838D-01 0.353D+00 0.573D+00
 Gap=     0.290 Goal=   None    Shift=    0.000
 RMSDP=1.58D-08 MaxDP=2.86D-07 DE=-1.91D-11 OVMax= 3.33D-07

 Cycle  12  Pass 1  IDiag  1:
 E= -229.229264005327     Delta-E=       -0.000000000003 Rises=F Damp=F
 DIIS: error= 1.12D-08 at cycle   6 NSaved=   6.
 NSaved= 6 IEnMin= 6 EnMin= -229.229264005327     IErMin= 6 ErrMin= 1.12D-08
 ErrMax= 1.12D-08  0.00D+00 EMaxC= 1.00D-01 BMatC= 4.90D-14 BMatP= 2.73D-12
 IDIUse=1 WtCom= 1.00D+00 WtEn= 0.00D+00
 Coeff-Com: -0.241D-02-0.551D-03 0.170D-01 0.791D-01 0.181D+00 0.726D+00
 Coeff:     -0.241D-02-0.551D-03 0.170D-01 0.791D-01 0.181D+00 0.726D+00
 Gap=     0.290 Goal=   None    Shift=    0.000
 RMSDP=3.28D-09 MaxDP=5.12D-08 DE=-3.47D-12 OVMax= 7.18D-08

 SCF Done:  E(RPBE1PBE) =  -229.229264005     A.U. after   12 cycles
            NFock= 12  Conv=0.33D-08     -V/T= 1.9994
 KE= 2.293632010453D+02 PE=-9.436665331034D+02 EE= 2.803259700403D+02
 Leave Link  502 at Sat Mar  4 11:43:13 2023, MaxMem=  1048576000 cpu:              16.2 elap:              16.2
 (Enter /ssoft/spack/external/gaussian/g16-C.01/avx2/g16/l801.exe)
 DoSCS=F DFT=T ScalE2(SS,OS)=  1.000000  1.000000
 Range of M.O.s used for correlation:     1   120
 NBasis=   120 NAE=    21 NBE=    21 NFC=     0 NFV=     0
 NROrb=    120 NOA=    21 NOB=    21 NVA=    99 NVB=    99
 Leave Link  801 at Sat Mar  4 11:43:13 2023, MaxMem=  1048576000 cpu:               0.0 elap:               0.0
 (Enter /ssoft/spack/external/gaussian/g16-C.01/avx2/g16/l1101.exe)
 Using compressed storage, NAtomX=    15.
 Will process     16 centers per pass.
   1 Symmetry operations used in ECPInt.
 ECPInt:  NShTT=    1830 NPrTT=    6200 LenC2=    1829 LenP2D=    5436.
 LDataN:  DoStor=T MaxTD1= 5 Len=  102
 R6Disp: Adding Grimme-D3(BJ) dispersion energy 1st derivatives to the gradient.
 Leave Link 1101 at Sat Mar  4 11:43:13 2023, MaxMem=  1048576000 cpu:               0.1 elap:               0.1
 (Enter /ssoft/spack/external/gaussian/g16-C.01/avx2/g16/l1102.exe)
 Symmetrizing basis deriv contribution to polar:
 IMax=3 JMax=2 DiffMx= 0.00D+00
 Leave Link 1102 at Sat Mar  4 11:43:13 2023, MaxMem=  1048576000 cpu:               0.0 elap:               0.0
 (Enter /ssoft/spack/external/gaussian/g16-C.01/avx2/g16/l1110.exe)
 Forming Gx(P) for the SCF density, NAtomX=    15.
 Integral derivatives from FoFJK, PRISM(SPDF).
 Do as many integral derivatives as possible in FoFJK.
 G2DrvN: MDV=    1048574319.
 G2DrvN: will do    16 centers at a time, making    1 passes.
 Calling FoFCou, ICntrl=  3107 FMM=F I1Cent=   0 AccDes= 0.00D+00.
 FoFJK:  IHMeth= 1 ICntrl=    3107 DoSepK=F KAlg= 0 I1Cent=           0 FoldK=F
 IRaf=         0 NMat=       1 IRICut=       1 DoRegI=T DoRafI=F ISym2E= 0 IDoP0=0 IntGTp=1.
 FoFCou: FMM=F IPFlag=           0 FMFlag=      100000 FMFlg1=           0
         NFxFlg=           0 DoJE=F BraDBF=F KetDBF=F FulRan=T
         wScrn=  0.000000 ICntrl=      3107 IOpCl=  0 I1Cent=           0 NGrid=           0
         NMat0=    1 NMatS0=      1 NMatT0=    0 NMatD0=    1 NMtDS0=    0 NMtDT0=    0
 Symmetry not used in FoFCou.
 End of G2Drv F.D. properties file   721 does not exist.
 End of G2Drv F.D. properties file   722 does not exist.
 End of G2Drv F.D. properties file   788 does not exist.
 Leave Link 1110 at Sat Mar  4 11:44:00 2023, MaxMem=  1048576000 cpu:              46.3 elap:              46.4
 (Enter /ssoft/spack/external/gaussian/g16-C.01/avx2/g16/l1002.exe)
 Minotr:  Closed shell wavefunction.
          IDoAtm=111111111111111
          Direct CPHF calculation.
          Differentiating once with respect to electric field.
                with respect to dipole field.
          Differentiating once with respect to nuclear coordinates.
          Requested convergence is 1.0D-08 RMS, and 1.0D-07 maximum.
          Secondary convergence is 1.0D-12 RMS, and 1.0D-12 maximum.
          NewPWx=T KeepS1=F KeepF1=F KeepIn=T MapXYZ=F SortEE=F KeepMc=T.
         4450 words used for storage of precomputed grid.
 Keep R1 ints in memory in canonical form, NReq=27365140.
 FoFCou: FMM=F IPFlag=           0 FMFlag=           0 FMFlg1=           0
         NFxFlg=           0 DoJE=F BraDBF=F KetDBF=F FulRan=T
         wScrn=  0.000000 ICntrl=       600 IOpCl=  0 I1Cent=           0 NGrid=           0
         NMat0=    1 NMatS0=   7260 NMatT0=    0 NMatD0=    1 NMtDS0=    0 NMtDT0=    0
 Symmetry not used in FoFCou.
 Two-electron integral symmetry not used.
          MDV=    1048576000 using IRadAn=       1.
          Solving linear equations simultaneously, MaxMat=       0.
          There are    48 degrees of freedom in the 1st order CPHF.  IDoFFX=6 NUNeed=     3.
     45 vectors produced by pass  0 Test12= 4.33D-15 2.08D-09 XBig12= 1.94D+01 1.64D+00.
 AX will form    45 AO Fock derivatives at one time.
     45 vectors produced by pass  1 Test12= 4.33D-15 2.08D-09 XBig12= 1.15D+00 1.99D-01.
     45 vectors produced by pass  2 Test12= 4.33D-15 2.08D-09 XBig12= 1.10D-02 1.77D-02.
     45 vectors produced by pass  3 Test12= 4.33D-15 2.08D-09 XBig12= 2.65D-05 7.25D-04.
     45 vectors produced by pass  4 Test12= 4.33D-15 2.08D-09 XBig12= 4.05D-08 2.51D-05.
     21 vectors produced by pass  5 Test12= 4.33D-15 2.08D-09 XBig12= 3.29D-11 8.38D-07.
      3 vectors produced by pass  6 Test12= 4.33D-15 2.08D-09 XBig12= 2.49D-14 1.89D-08.
 InvSVY:  IOpt=1 It=  1 EMax= 5.33D-15
 Solved reduced A of dimension   249 with    48 vectors.
 FullF1:  Do perturbations      1 to       3.
 Isotropic polarizability for W=    0.000000       40.05 Bohr**3.
 End of Minotr F.D. properties file   721 does not exist.
 End of Minotr F.D. properties file   722 does not exist.
 End of Minotr F.D. properties file   788 does not exist.
 Leave Link 1002 at Sat Mar  4 11:44:37 2023, MaxMem=  1048576000 cpu:              37.0 elap:              37.1
 (Enter /ssoft/spack/external/gaussian/g16-C.01/avx2/g16/l601.exe)
 Copying SCF densities to generalized density rwf, IOpCl= 0 IROHF=0.

 **********************************************************************

            Population analysis using the SCF Density.

 **********************************************************************

 Orbital symmetries:
       Occupied  (A) (A) (A) (A) (A) (A) (A) (A) (A) (A) (A) (A)
                 (A) (A) (A) (A) (A) (A) (A) (A) (A)
       Virtual   (A) (A) (A) (A) (A) (A) (A) (A) (A) (A) (A) (A)
                 (A) (A) (A) (A) (A) (A) (A) (A) (A) (A) (A) (A)
                 (A) (A) (A) (A) (A) (A) (A) (A) (A) (A) (A) (A)
                 (A) (A) (A) (A) (A) (A) (A) (A) (A) (A) (A) (A)
                 (A) (A) (A) (A) (A) (A) (A) (A) (A) (A) (A) (A)
                 (A) (A) (A) (A) (A) (A) (A) (A) (A) (A) (A) (A)
                 (A) (A) (A) (A) (A) (A) (A) (A) (A) (A) (A) (A)
                 (A) (A) (A) (A) (A) (A) (A) (A) (A) (A) (A) (A)
                 (A) (A) (A)
 The electronic state is 1-A.
 Alpha  occ. eigenvalues --  -14.31848 -14.31718 -10.21916 -10.20765 -10.17074
 Alpha  occ. eigenvalues --   -0.92834  -0.89101  -0.79258  -0.70461  -0.61503
 Alpha  occ. eigenvalues --   -0.52660  -0.51798  -0.48494  -0.46463  -0.45228
 Alpha  occ. eigenvalues --   -0.41555  -0.39452  -0.36069  -0.33804  -0.23647
 Alpha  occ. eigenvalues --   -0.21248
 Alpha virt. eigenvalues --    0.07727   0.10467   0.12108   0.13366   0.16233
 Alpha virt. eigenvalues --    0.16806   0.17887   0.18758   0.20484   0.22736
 Alpha virt. eigenvalues --    0.25444   0.26282   0.28129   0.30129   0.46070
 Alpha virt. eigenvalues --    0.47252   0.48634   0.53788   0.55089   0.55614
 Alpha virt. eigenvalues --    0.60556   0.67785   0.71049   0.72316   0.72910
 Alpha virt. eigenvalues --    0.73470   0.75175   0.76302   0.77517   0.78407
 Alpha virt. eigenvalues --    0.80178   0.81282   0.82634   0.85470   0.89984
 Alpha virt. eigenvalues --    0.90890   0.91524   0.93139   0.96072   0.97075
 Alpha virt. eigenvalues --    1.08868   1.15842   1.22522   1.24652   1.25749
 Alpha virt. eigenvalues --    1.26720   1.35794   1.40409   1.46081   1.56908
 Alpha virt. eigenvalues --    1.60780   1.65190   1.67006   1.74790   1.77307
 Alpha virt. eigenvalues --    1.81185   1.86085   1.87350   1.89314   1.91370
 Alpha virt. eigenvalues --    1.92561   1.96215   1.97305   2.01370   2.04605
 Alpha virt. eigenvalues --    2.05345   2.09188   2.11399   2.17572   2.22924
 Alpha virt. eigenvalues --    2.28442   2.32884   2.35593   2.41308   2.42779
 Alpha virt. eigenvalues --    2.46601   2.50362   2.51629   2.62457   2.68200
 Alpha virt. eigenvalues --    2.72280   2.78332   2.83496   2.90445   2.97739
 Alpha virt. eigenvalues --    2.99749   3.06348   3.08924   3.12996   3.18654
 Alpha virt. eigenvalues --    3.21349   3.22391   3.28970   3.35041   3.40602
 Alpha virt. eigenvalues --    3.45585   3.49411   3.64163   3.64855
     Molecular Orbital Coefficients:
                          17        18        19        20        21
                           O         O         O         O         O
     Eigenvalues --    -0.39452  -0.36069  -0.33804  -0.23647  -0.21248
   1 1   N  1S         -0.03926   0.02476   0.00240  -0.05713   0.05563
   2        2S         -0.08861   0.05787   0.00546  -0.11780   0.12605
   3        3S         -0.12371   0.09683   0.01455  -0.19715   0.09724
   4        4PX         0.14005  -0.00507   0.01839   0.36877  -0.36060
   5        4PY        -0.20275   0.27379  -0.02668   0.09845  -0.14285
   6        4PZ        -0.02559   0.07778   0.09712  -0.03399   0.04537
   7        5PX        -0.06818  -0.00719  -0.00844  -0.30007   0.29042
   8        5PY         0.10514  -0.15069   0.01012  -0.09501   0.15443
   9        5PZ         0.02783  -0.03315  -0.02481   0.02746  -0.02770
  10        6D 0       -0.00080  -0.00604  -0.00822  -0.00528   0.00530
  11        6D+1        0.00157   0.00288   0.00653  -0.00178   0.00329
  12        6D-1       -0.00501   0.00041  -0.00973  -0.00224  -0.00029
  13        6D+2        0.00967  -0.00631  -0.00024   0.00832  -0.01183
  14        6D-2       -0.00187   0.01291  -0.00416   0.00266  -0.00744
  15 2   H  1S          0.12027  -0.07628   0.09497   0.07503  -0.03088
  16        2S          0.05128  -0.04816   0.05349   0.02751  -0.00780
  17        3PX        -0.00048  -0.00241   0.00197  -0.01445   0.01689
  18        3PY         0.00178  -0.00809  -0.00022  -0.00788   0.00974
  19        3PZ         0.00878  -0.00819   0.00017   0.00730  -0.00684
  20 3   H  1S          0.03800  -0.09079  -0.09640   0.04924  -0.05529
  21        2S          0.01848  -0.05957  -0.05825   0.01126  -0.03395
  22        3PX        -0.00579  -0.00082  -0.00260  -0.01760   0.01848
  23        3PY         0.00723  -0.01160   0.00097  -0.00424   0.00731
  24        3PZ        -0.00443   0.00359   0.00023  -0.00403   0.00458
  25 4   C  1S         -0.00942   0.00352  -0.01658  -0.02578  -0.01336
  26        2S          0.01915  -0.00635   0.04710   0.05135   0.02912
  27        3S         -0.05909   0.06610   0.06552   0.14078   0.23698
  28        4PX        -0.23938  -0.22713   0.08208   0.15390   0.00841
  29        4PY        -0.21281   0.20509  -0.11513   0.02675  -0.08396
  30        4PZ         0.03187   0.13404   0.33267   0.02550   0.03801
  31        5PX        -0.06174  -0.10155   0.02520   0.00406   0.01641
  32        5PY        -0.04109   0.08607  -0.06436  -0.02656  -0.03790
  33        5PZ         0.01172   0.04843   0.09345   0.05915   0.09582
  34        6D 0        0.00101  -0.01718  -0.02318   0.00648  -0.00228
  35        6D+1       -0.00039  -0.00071   0.01037   0.00219   0.00466
  36        6D-1       -0.00480   0.00812  -0.00263   0.00262  -0.00334
  37        6D+2        0.01634  -0.01752   0.00534  -0.00039   0.00399
  38        6D-2        0.00523   0.00970  -0.00613  -0.01934   0.01723
  39 5   H  1S         -0.04180  -0.17406  -0.29803   0.04534  -0.02460
  40        2S         -0.01141  -0.08175  -0.17933   0.01171  -0.02181
  41        3PX        -0.00686  -0.00497   0.00483   0.00529  -0.00117
  42        3PY        -0.00618   0.00399  -0.00304  -0.00135  -0.00208
  43        3PZ        -0.00203  -0.00528  -0.00502   0.00164   0.00078
  44 6   C  1S         -0.01440  -0.01140  -0.00771   0.02821  -0.02203
  45        2S          0.03791   0.02943   0.01796  -0.06643   0.05844
  46        3S          0.11630  -0.00064   0.00524  -0.21662   0.01167
  47        4PX         0.26418   0.18900  -0.00429  -0.10897   0.04707
  48        4PY         0.13730  -0.13683   0.08335  -0.09321   0.06922
  49        4PZ        -0.03537  -0.10239  -0.19221  -0.00077  -0.01259
  50        5PX         0.13082   0.07147   0.00180  -0.08858  -0.01465
  51        5PY         0.07215  -0.05173   0.03393  -0.03497  -0.03676
  52        5PZ        -0.02236  -0.02838  -0.04251   0.00455  -0.05369
  53        6D 0       -0.00437  -0.00853  -0.01579  -0.00103   0.00038
  54        6D+1       -0.00297   0.00049   0.01660   0.00154   0.00153
  55        6D-1       -0.00159   0.01031   0.00356   0.00316  -0.00219
  56        6D+2        0.00763  -0.01263   0.00449  -0.00250   0.00598
  57        6D-2        0.00670   0.01006  -0.00669  -0.00166  -0.00205
  58 7   H  1S         -0.07710  -0.14865   0.14885   0.00118   0.03955
  59        2S         -0.04154  -0.07085   0.09345   0.05581  -0.01472
  60        3PX         0.00374   0.00043   0.00383  -0.00279   0.00120
  61        3PY         0.00704   0.00039  -0.00236  -0.00205   0.00117
  62        3PZ        -0.00316  -0.00806  -0.00414   0.00019   0.00120
  63 8   H  1S         -0.08462   0.18426   0.01438   0.05898  -0.05229
  64        2S         -0.04922   0.09351   0.01683   0.06856  -0.10477
  65        3PX         0.00799   0.00456  -0.00161  -0.00499   0.00318
  66        3PY        -0.00045   0.00386   0.00305  -0.00123   0.00159
  67        3PZ        -0.00310   0.00120  -0.00748   0.00127  -0.00153
  68 9   H  1S         -0.07024  -0.11050  -0.19637  -0.00798   0.00167
  69        2S         -0.03743  -0.06167  -0.13365   0.03839  -0.00462
  70        3PX         0.00723   0.00583  -0.00082  -0.00338   0.00144
  71        3PY         0.00349  -0.00549   0.00298  -0.00310   0.00342
  72        3PZ         0.00380   0.00228   0.00243  -0.00008   0.00022
  73 10  C  1S         -0.00447   0.01425  -0.02501  -0.02259   0.00454
  74        2S          0.01724  -0.03000   0.06630   0.05595  -0.01473
  75        3S          0.02700  -0.07147   0.10827   0.06208  -0.09864
  76        4PX         0.10703   0.22332  -0.20769  -0.06196   0.03441
  77        4PY         0.20524  -0.08899   0.05625   0.14770   0.07390
  78        4PZ         0.07838  -0.01025  -0.22591  -0.01717   0.01694
  79        5PX         0.02760   0.10290  -0.10787   0.00614   0.08813
  80        5PY         0.04886  -0.04158   0.05300   0.03509   0.01643
  81        5PZ         0.00643   0.01518  -0.07286  -0.05055   0.01188
  82        6D 0        0.00694  -0.00899  -0.01859   0.00816   0.00383
  83        6D+1       -0.00802  -0.01343   0.00096  -0.00141  -0.00575
  84        6D-1       -0.00442   0.00180  -0.00002  -0.00078   0.00292
  85        6D+2        0.01147  -0.00302   0.00432   0.02134   0.01998
  86        6D-2        0.01344   0.00157  -0.00208  -0.00885  -0.00848
  87 11  H  1S         -0.18966   0.08373   0.01565  -0.15484  -0.11540
  88        2S         -0.10227   0.06402   0.00754  -0.12332  -0.05370
  89        3PX         0.00290   0.00620  -0.00607  -0.00108   0.00253
  90        3PY        -0.00534   0.00139   0.00096   0.00082   0.00108
  91        3PZ         0.00062   0.00013  -0.00830  -0.00158  -0.00134
  92 12  H  1S          0.09521  -0.04658  -0.19302   0.04575   0.02926
  93        2S          0.04950  -0.02318  -0.13207   0.02023   0.02526
  94        3PX         0.00273   0.00477  -0.00633  -0.00479  -0.00132
  95        3PY         0.00596  -0.00224   0.00347   0.00441   0.00287
  96        3PZ        -0.00252   0.00107   0.00218   0.00005   0.00074
  97 13  N  1S          0.03218  -0.00099   0.01439  -0.04631  -0.06276
  98        2S          0.07610  -0.00131   0.03401  -0.09271  -0.13436
  99        3S          0.08162   0.03477   0.02059  -0.19205  -0.20594
 100        4PX         0.22447   0.11286  -0.02821  -0.07765  -0.08034
 101        4PY         0.00660   0.12425  -0.05271   0.33068   0.41152
 102        4PZ         0.01744   0.00575  -0.07002   0.01105   0.02479
 103        5PX        -0.09872  -0.05424   0.02137   0.05937   0.05209
 104        5PY         0.00155  -0.08716   0.03465  -0.27450  -0.33325
 105        5PZ         0.01667   0.00657   0.01927  -0.01509  -0.01469
 106        6D 0        0.00578  -0.00139  -0.00669  -0.00455  -0.00613
 107        6D+1       -0.00848  -0.00363   0.00566   0.00071   0.00017
 108        6D-1        0.00049  -0.00139  -0.00011   0.00195   0.00204
 109        6D+2       -0.00118  -0.01034   0.00706  -0.00567  -0.01242
 110        6D-2        0.00800   0.00535  -0.00078  -0.00429  -0.00822
 111 14  H  1S          0.03189   0.01290  -0.07177   0.04454   0.06036
 112        2S          0.00805  -0.00094  -0.04354   0.01029   0.03791
 113        3PX        -0.00960  -0.00537   0.00182   0.00477   0.00537
 114        3PY         0.00130  -0.00517   0.00021  -0.01485  -0.01984
 115        3PZ        -0.00091   0.00191  -0.00023   0.00427   0.00650
 116 15  H  1S         -0.15186  -0.08488   0.07138   0.06544   0.04955
 117        2S         -0.06780  -0.04756   0.03714   0.02439   0.02133
 118        3PX         0.00093  -0.00052  -0.00081  -0.00118  -0.00057
 119        3PY        -0.00206  -0.00656   0.00412  -0.01457  -0.02156
 120        3PZ         0.00695   0.00330  -0.00010  -0.00484  -0.00622
                          22        23        24        25        26
                           V         V         V         V         V
     Eigenvalues --     0.07727   0.10467   0.12108   0.13366   0.16233
   1 1   N  1S          0.04829   0.02109   0.01218  -0.07885   0.06309
   2        2S          0.08876   0.01448   0.01160  -0.11224   0.10777
   3        3S          0.48102   0.52017   0.30464  -1.27502   0.75720
   4        4PX         0.07500   0.09077  -0.01644  -0.07910   0.02257
   5        4PY        -0.03169  -0.02998   0.00132   0.07041   0.06516
   6        4PZ        -0.02836  -0.01994  -0.12147  -0.02414  -0.08930
   7        5PX        -0.15793  -0.15898   0.02361   0.22208  -0.05201
   8        5PY         0.15341   0.04219  -0.04521  -0.13582  -0.09256
   9        5PZ         0.08727   0.02512   0.21856   0.04353   0.25243
  10        6D 0        0.00202  -0.00257   0.00199  -0.00032   0.00568
  11        6D+1       -0.00270  -0.00056  -0.00530  -0.00362  -0.00435
  12        6D-1        0.00509  -0.00262  -0.00229   0.00327  -0.00110
  13        6D+2        0.00066   0.00218  -0.00187  -0.00317   0.00529
  14        6D-2       -0.00283  -0.00442   0.00060   0.00508  -0.00037
  15 2   H  1S         -0.02958   0.00457  -0.01241   0.02503  -0.00816
  16        2S         -0.47601  -0.29118   0.30968   1.05249  -0.07022
  17        3PX         0.00297  -0.00014   0.00057  -0.00154  -0.00356
  18        3PY        -0.00197   0.00137  -0.00106   0.00040  -0.00981
  19        3PZ         0.00222   0.00282  -0.00058   0.00258  -0.00168
  20 3   H  1S          0.00778  -0.02082  -0.00702   0.04481  -0.02400
  21        2S         -0.39833  -0.35999  -0.63115   0.64173  -0.93586
  22        3PX         0.00032  -0.00005   0.00032  -0.00330   0.00041
  23        3PY         0.00237   0.00011   0.00174   0.00678  -0.00313
  24        3PZ        -0.00324  -0.00225  -0.00122   0.00050   0.00019
  25 4   C  1S         -0.03430  -0.00108   0.02453  -0.01162   0.00247
  26        2S          0.04466   0.01160  -0.00858   0.05509  -0.03273
  27        3S          0.69947  -0.02945  -1.11578  -0.32034   0.72866
  28        4PX         0.01019   0.02665  -0.02463   0.02826   0.00942
  29        4PY        -0.01992  -0.01883  -0.00289   0.06744  -0.15240
  30        4PZ        -0.11391   0.04159   0.12204   0.03639  -0.02890
  31        5PX         0.14786   0.17446  -0.26325   0.17137  -0.11589
  32        5PY         0.12351  -0.21975  -0.05879   0.33962  -0.21761
  33        5PZ        -0.41163   0.12808   0.40833   0.10350  -0.10333
  34        6D 0       -0.00392  -0.00638   0.00721   0.00021  -0.00680
  35        6D+1        0.00110  -0.00602  -0.00066  -0.00039  -0.00131
  36        6D-1       -0.00059   0.00607  -0.00203  -0.00691   0.00075
  37        6D+2       -0.00278   0.00830  -0.00311   0.00298  -0.01423
  38        6D-2       -0.00117   0.00142   0.00028   0.00356   0.00482
  39 5   H  1S          0.00632  -0.01031   0.06740   0.00236  -0.02102
  40        2S         -0.84178   0.14467   1.26153   0.07710  -0.27963
  41        3PX        -0.00236   0.00961  -0.00185   0.00063   0.00036
  42        3PY        -0.00209  -0.00107   0.00194   0.00991  -0.00695
  43        3PZ         0.00624   0.00099  -0.00328  -0.00279   0.00437
  44 6   C  1S         -0.06343  -0.05607   0.00956  -0.04746   0.04024
  45        2S          0.05612   0.06268  -0.02233   0.04606  -0.02484
  46        3S          1.84378   1.47555  -0.16937   1.73213  -1.68712
  47        4PX        -0.07661  -0.04857   0.00684   0.03334   0.13800
  48        4PY        -0.04551   0.03130  -0.00355  -0.15492  -0.13103
  49        4PZ         0.00615   0.03815   0.13871   0.01212   0.04545
  50        5PX        -0.25452  -0.26876   0.04542   0.22297   0.39461
  51        5PY        -0.16784   0.18989  -0.01146  -0.50945  -0.74957
  52        5PZ         0.04786   0.16033   0.42741   0.00815   0.21130
  53        6D 0       -0.00218  -0.00163   0.00168  -0.00176   0.00035
  54        6D+1       -0.00589  -0.00036   0.00306   0.00235   0.00032
  55        6D-1       -0.00464   0.00274  -0.00020   0.00324  -0.00899
  56        6D+2        0.00609   0.00014   0.00108  -0.00680   0.01348
  57        6D-2        0.00423   0.00109  -0.00015   0.00447  -0.00813
  58 7   H  1S         -0.00300   0.00515  -0.00467  -0.02965   0.04618
  59        2S         -0.77203  -0.80898   0.48101   0.08914   2.04111
  60        3PX         0.00348   0.00487  -0.00080   0.00543  -0.00696
  61        3PY        -0.00712  -0.00522   0.00038   0.00229   0.00372
  62        3PZ         0.00483   0.00301  -0.00318   0.00166  -0.00517
  63 8   H  1S         -0.01670   0.01148  -0.01542   0.05974  -0.08503
  64        2S         -0.84958  -0.21932   0.38292  -1.31878  -0.50992
  65        3PX        -0.00361   0.00150  -0.00028  -0.00686   0.00308
  66        3PY         0.00908   0.00409   0.00046   0.00316   0.00185
  67        3PZ         0.00544   0.00113  -0.00122   0.00260   0.00032
  68 9   H  1S          0.01957  -0.00009   0.01241  -0.00618   0.00718
  69        2S         -0.70045  -0.86228  -0.71935  -0.70363   0.31533
  70        3PX        -0.00341  -0.00073  -0.00200   0.00077  -0.00124
  71        3PY        -0.00306  -0.00152  -0.00263   0.00445  -0.00546
  72        3PZ        -0.00960  -0.00647  -0.00120  -0.00429   0.00348
  73 10  C  1S         -0.05091   0.01093  -0.03427  -0.03369   0.01353
  74        2S          0.05797   0.01788   0.00877   0.06338  -0.02571
  75        3S          1.23067  -0.79002   1.51668   0.93795  -0.11597
  76        4PX         0.00093   0.04688   0.01198   0.04508   0.05101
  77        4PY        -0.08150   0.10206   0.00333  -0.08746  -0.06344
  78        4PZ         0.05326  -0.01499   0.16550  -0.02692  -0.02629
  79        5PX         0.06985   0.29385  -0.02420   0.19698   0.15154
  80        5PY        -0.28575   0.33286   0.18136  -0.38047  -0.32144
  81        5PZ         0.21032  -0.01813   0.49895  -0.05748  -0.05857
  82        6D 0        0.00258   0.00700  -0.00528  -0.00513   0.00191
  83        6D+1        0.00380   0.01035  -0.00160   0.00088   0.00560
  84        6D-1       -0.00511   0.00332   0.00248  -0.00065  -0.00498
  85        6D+2        0.00239  -0.00350   0.00487  -0.00465   0.00687
  86        6D-2        0.00139  -0.00666   0.00261  -0.00914   0.00454
  87 11  H  1S         -0.00064  -0.00112   0.01089   0.03961  -0.05890
  88        2S         -0.83513   0.66376  -0.13423  -0.93914  -0.53882
  89        3PX         0.00004   0.00526  -0.00313   0.00720  -0.00177
  90        3PY         0.00663  -0.00163   0.00283   0.00080   0.00115
  91        3PZ         0.00502  -0.00528  -0.00149   0.00145   0.00393
  92 12  H  1S          0.02476   0.01981  -0.02276  -0.02403  -0.00164
  93        2S         -0.62279   0.17471  -1.45334  -0.24592   0.34679
  94        3PX         0.00370   0.00925  -0.00005   0.00071   0.00638
  95        3PY        -0.00498   0.00169  -0.00220   0.00556  -0.00554
  96        3PZ        -0.00607   0.00447  -0.00565  -0.00232   0.00060
  97 13  N  1S          0.03089  -0.08820   0.00954  -0.03655  -0.01411
  98        2S          0.06005  -0.13045   0.02769  -0.05498  -0.01526
  99        3S          0.30832  -1.30364  -0.02785  -0.53853  -0.29715
 100        4PX        -0.05248   0.07146  -0.05082   0.00594   0.10456
 101        4PY        -0.00745  -0.09161   0.00628  -0.03075  -0.02044
 102        4PZ         0.05338  -0.03223  -0.09869   0.02327   0.06783
 103        5PX         0.14635  -0.18256   0.17632  -0.02584  -0.27231
 104        5PY         0.02456   0.16237   0.01052   0.12327   0.06744
 105        5PZ        -0.12194   0.06737   0.15762  -0.05254  -0.16453
 106        6D 0        0.00140  -0.00004   0.00251  -0.00248   0.00301
 107        6D+1       -0.00248  -0.00199  -0.00177   0.00008  -0.00142
 108        6D-1       -0.00066  -0.00126  -0.00626  -0.00194   0.00165
 109        6D+2        0.00239  -0.00223  -0.00071  -0.00176  -0.00461
 110        6D-2        0.00061   0.00357  -0.00383   0.00202   0.00627
 111 14  H  1S         -0.00299   0.03658   0.01393   0.00004   0.00766
 112        2S         -0.35137   0.84985   0.39289   0.16924  -0.18926
 113        3PX         0.00092   0.00270  -0.00205   0.00230   0.00158
 114        3PY         0.00429  -0.00168   0.00063   0.00275   0.00104
 115        3PZ         0.00208  -0.00393  -0.00181  -0.00066  -0.00217
 116 15  H  1S         -0.01770   0.02767  -0.01317   0.01337   0.00876
 117        2S         -0.27434   0.83098  -0.58857   0.38320   0.77498
 118        3PX        -0.00052   0.00232  -0.00053   0.00189  -0.00414
 119        3PY         0.00183   0.00056  -0.00123  -0.00139  -0.00055
 120        3PZ        -0.00107   0.00007   0.00129  -0.00162   0.00106
     Density Matrix:
                           1         2         3         4         5
   1 1   N  1S          2.10669
   2        2S          0.20134   0.58437
   3        3S          0.18170   0.24134   0.19827
   4        4PX        -0.04752  -0.10218  -0.22680   0.63897
   5        4PY        -0.01254  -0.02179   0.02921   0.05569   0.45071
   6        4PZ         0.00607   0.01482   0.03424  -0.01763  -0.01664
   7        5PX         0.07701   0.16724   0.19549  -0.46516  -0.10731
   8        5PY        -0.00426   0.02274   0.00719  -0.13357  -0.24807
   9        5PZ        -0.01409  -0.02593  -0.03126   0.03186  -0.00253
  10        6D 0       -0.00071   0.00552   0.00309  -0.00814  -0.00706
  11        6D+1        0.00059   0.00250   0.00159   0.00011  -0.00412
  12        6D-1        0.00150   0.00053   0.00253  -0.00420   0.00462
  13        6D+2       -0.00493  -0.00980  -0.01034   0.01963  -0.00826
  14        6D-2        0.00019  -0.00539  -0.00089   0.00497   0.01656
  15 2   H  1S          0.11676   0.19505  -0.01404   0.23659  -0.20955
  16        2S         -0.00149   0.00760  -0.02727   0.06644  -0.07885
  17        3PX         0.01583   0.02056   0.01249  -0.01817  -0.01373
  18        3PY        -0.01062  -0.01315  -0.00151  -0.01777  -0.00776
  19        3PZ         0.01513   0.01717  -0.00117   0.02036  -0.01213
  20 3   H  1S          0.11514   0.19285   0.01331   0.11101  -0.04748
  21        2S         -0.00434   0.00234  -0.01876   0.03620  -0.03007
  22        3PX         0.00831   0.01192   0.01286  -0.03024  -0.00383
  23        3PY        -0.00089  -0.00206  -0.00141  -0.00411  -0.01857
  24        3PZ        -0.02268  -0.02734  -0.00475  -0.01447   0.00584
  25 4   C  1S         -0.01322  -0.02151  -0.00338   0.00069  -0.07415
  26        2S          0.02283   0.03103   0.03106  -0.00651   0.14595
  27        3S         -0.01417   0.03926   0.00749  -0.08274   0.05573
  28        4PX        -0.00076   0.00310  -0.03412  -0.00172  -0.00622
  29        4PY         0.06672   0.13538   0.08274   0.01129   0.31139
  30        4PZ         0.02278   0.04951   0.00682  -0.00129   0.08774
  31        5PX        -0.00169  -0.00434  -0.00906  -0.05226  -0.03951
  32        5PY         0.01406   0.05306   0.02601  -0.01194   0.11829
  33        5PZ         0.00839   0.02253  -0.00320  -0.03796   0.05154
  34        6D 0       -0.00574  -0.00980  -0.00828   0.00396  -0.00669
  35        6D+1        0.00054   0.00099   0.00053  -0.00365  -0.00041
  36        6D-1        0.00416   0.00674   0.00369   0.00118   0.01203
  37        6D+2       -0.01014  -0.01665  -0.00999  -0.00081  -0.01609
  38        6D-2        0.00258   0.00577   0.01138  -0.02854  -0.00411
  39 5   H  1S         -0.01698  -0.04541  -0.02231   0.01903  -0.01876
  40        2S         -0.00712  -0.02597  -0.01896   0.00474  -0.00599
  41        3PX         0.00011   0.00041  -0.00173   0.00279   0.00038
  42        3PY         0.00108   0.00297   0.00271  -0.00116   0.00624
  43        3PZ         0.00022   0.00039   0.00178  -0.00091   0.00271
  44 6   C  1S          0.00119   0.00279  -0.00566   0.02602   0.01747
  45        2S         -0.00213  -0.01080   0.02892  -0.07146  -0.03859
  46        3S          0.02245   0.04271   0.06055  -0.14234  -0.09325
  47        4PX         0.00016  -0.00329   0.03411  -0.03545  -0.03642
  48        4PY        -0.01193  -0.02990  -0.02689  -0.05292  -0.05504
  49        4PZ        -0.00425  -0.00769  -0.04138   0.00515  -0.00765
  50        5PX         0.00212  -0.00138   0.01601  -0.01453  -0.02885
  51        5PY        -0.00732  -0.01902  -0.02242   0.03272  -0.02638
  52        5PZ        -0.00393  -0.00550  -0.01841   0.05048   0.00203
  53        6D 0       -0.00033  -0.00056  -0.00158  -0.00239  -0.00322
  54        6D+1        0.00053   0.00126   0.00008  -0.00052   0.00198
  55        6D-1        0.00036   0.00119   0.00133   0.00249   0.00384
  56        6D+2       -0.00080  -0.00198  -0.00237  -0.00319  -0.00909
  57        6D-2        0.00075   0.00042   0.00115   0.00197   0.00628
  58 7   H  1S         -0.00550  -0.01424  -0.00890  -0.03627  -0.03288
  59        2S         -0.01068  -0.02698  -0.03163   0.04936  -0.00345
  60        3PX        -0.00046  -0.00209   0.00047  -0.00085  -0.00063
  61        3PY        -0.00022  -0.00127  -0.00125  -0.00038  -0.00043
  62        3PZ        -0.00055  -0.00147  -0.00186  -0.00114  -0.00115
  63 8   H  1S          0.01108   0.02485   0.04528   0.04030   0.06078
  64        2S         -0.00173  -0.00094  -0.00518   0.11090   0.07667
  65        3PX         0.00017   0.00057   0.00189  -0.00378  -0.00265
  66        3PY         0.00032   0.00103   0.00280  -0.00194  -0.00215
  67        3PZ         0.00018   0.00029  -0.00002   0.00093   0.00072
  68 9   H  1S         -0.00454  -0.01078  -0.02601  -0.02054  -0.02356
  69        2S         -0.00911  -0.02453  -0.03017   0.01518   0.00406
  70        3PX         0.00014  -0.00052   0.00072  -0.00139  -0.00075
  71        3PY        -0.00042  -0.00207  -0.00116  -0.00318  -0.00194
  72        3PZ         0.00034   0.00084   0.00050   0.00004   0.00050
  73 10  C  1S          0.00601   0.01170   0.02603  -0.01676   0.00937
  74        2S         -0.01290  -0.03447  -0.04523   0.04799  -0.02085
  75        3S         -0.01624  -0.02785  -0.04409   0.12812  -0.00616
  76        4PX         0.01271   0.02820   0.04533  -0.03249   0.02957
  77        4PY        -0.01605  -0.03312  -0.09187   0.03008  -0.03204
  78        4PZ        -0.00001   0.00043  -0.03098  -0.01612  -0.00059
  79        5PX         0.00972   0.02550   0.02782  -0.05114   0.02139
  80        5PY        -0.00901  -0.00943  -0.01789  -0.00070  -0.01589
  81        5PZ         0.00209   0.00637   0.01545  -0.04543  -0.00671
  82        6D 0       -0.00150  -0.00353  -0.00759   0.00289  -0.00457
  83        6D+1       -0.00049  -0.00174   0.00057   0.00076  -0.00186
  84        6D-1        0.00016   0.00096   0.00183  -0.00134  -0.00062
  85        6D+2       -0.00151  -0.00324  -0.00739   0.00326  -0.00592
  86        6D-2       -0.00133  -0.00342  -0.00112   0.00262  -0.00588
  87 11  H  1S          0.01281   0.02508   0.08581  -0.02048   0.04110
  88        2S          0.01305   0.03173   0.07192  -0.06103   0.03800
  89        3PX         0.00060   0.00076   0.00102  -0.00204   0.00134
  90        3PY        -0.00031  -0.00039   0.00030   0.00063  -0.00106
  91        3PZ        -0.00003   0.00007  -0.00065  -0.00005   0.00084
  92 12  H  1S         -0.00960  -0.02181  -0.06708   0.01677  -0.02404
  93        2S         -0.00173  -0.00900  -0.03159  -0.00194  -0.01505
  94        3PX         0.00016   0.00058   0.00175  -0.00163  -0.00001
  95        3PY         0.00034  -0.00072  -0.00236   0.00087  -0.00141
  96        3PZ         0.00051   0.00096   0.00196  -0.00045   0.00062
  97 13  N  1S         -0.00361  -0.00803  -0.00456   0.01338  -0.00091
  98        2S         -0.00768  -0.01866  -0.01833   0.03497  -0.00102
  99        3S         -0.00684  -0.02644   0.01538   0.02206  -0.00191
 100        4PX        -0.00688  -0.01618  -0.01564   0.01957  -0.00951
 101        4PY         0.00912   0.02974  -0.03486  -0.03334  -0.01155
 102        4PZ         0.00215   0.00918  -0.04099  -0.00713   0.00440
 103        5PX         0.00537   0.01150   0.00065  -0.00664   0.00751
 104        5PY        -0.00846  -0.02105   0.02996   0.02654   0.01036
 105        5PZ        -0.00055  -0.00406   0.01068   0.00444  -0.00869
 106        6D 0       -0.00059  -0.00128  -0.00241   0.00158  -0.00029
 107        6D+1        0.00029   0.00046   0.00218  -0.00048   0.00022
 108        6D-1        0.00008   0.00024  -0.00212  -0.00031  -0.00023
 109        6D+2       -0.00066  -0.00216  -0.00088   0.00264  -0.00040
 110        6D-2       -0.00114  -0.00216  -0.00108   0.00415   0.00005
 111 14  H  1S          0.00105   0.00769  -0.04971  -0.00311  -0.00152
 112        2S          0.00330   0.00886  -0.01117  -0.01675  -0.00784
 113        3PX        -0.00026   0.00060   0.00079  -0.00142   0.00035
 114        3PY        -0.00020  -0.00163   0.00017   0.00275   0.00089
 115        3PZ         0.00014   0.00106  -0.00201  -0.00084  -0.00023
 116 15  H  1S          0.00056   0.00288   0.01689  -0.00200   0.00123
 117        2S          0.00069   0.00188   0.00801  -0.00822  -0.00355
 118        3PX         0.00025   0.00050  -0.00060  -0.00101   0.00005
 119        3PY        -0.00066  -0.00244   0.00120   0.00385   0.00104
 120        3PZ         0.00009  -0.00085   0.00115   0.00122   0.00012
                           6         7         8         9        10
   6        4PZ         0.46969
   7        5PX         0.03760   0.36677
   8        5PY         0.00585   0.13126   0.15863
   9        5PZ        -0.14967  -0.03247  -0.00060   0.05065
  10        6D 0       -0.01225   0.00691   0.00492   0.00348   0.00068
  11        6D+1        0.02346   0.00204   0.00194  -0.00737  -0.00059
  12        6D-1       -0.00348   0.00214  -0.00214   0.00057   0.00021
  13        6D+2       -0.00244  -0.01393   0.00107   0.00209  -0.00007
  14        6D-2       -0.00472  -0.00621  -0.00946   0.00139  -0.00022
  15 2   H  1S          0.25466  -0.09107   0.06794  -0.07212  -0.00527
  16        2S          0.07629  -0.03109   0.03139  -0.01915  -0.00203
  17        3PX         0.01460   0.01854   0.00990  -0.00568   0.00016
  18        3PY        -0.01250   0.01059   0.00750   0.00391   0.00052
  19        3PZ        -0.00672  -0.00977   0.00283   0.00261   0.00026
  20 3   H  1S         -0.38583  -0.05608   0.00800   0.12094   0.01186
  21        2S         -0.12231  -0.02621   0.00961   0.03983   0.00399
  22        3PX        -0.00800   0.02302   0.00702   0.00108   0.00069
  23        3PY         0.00742   0.00543   0.01040  -0.00205   0.00013
  24        3PZ         0.01550   0.00531  -0.00054  -0.00475  -0.00051
  25 4   C  1S         -0.01756   0.00756   0.03150   0.01091   0.00297
  26        2S          0.03708  -0.01247  -0.06893  -0.02478  -0.00490
  27        3S          0.05187   0.05824   0.00256  -0.02184  -0.00305
  28        4PX        -0.00128  -0.02893   0.00155   0.00201   0.00071
  29        4PY         0.07476  -0.02834  -0.17266  -0.03242  -0.00366
  30        4PZ         0.03241   0.00003  -0.02911  -0.00588  -0.00759
  31        5PX        -0.00656   0.02821   0.03109   0.00315   0.00134
  32        5PY         0.07262   0.00348  -0.05800  -0.02364  -0.00231
  33        5PZ        -0.02897   0.02092  -0.00632   0.00891  -0.00170
  34        6D 0       -0.01153  -0.00437   0.00310   0.00407   0.00062
  35        6D+1        0.00197   0.00256   0.00090  -0.00024  -0.00010
  36        6D-1       -0.01420  -0.00204  -0.00683   0.00409   0.00028
  37        6D+2       -0.00760  -0.00011   0.00986   0.00362   0.00018
  38        6D-2        0.00087   0.02216   0.00676  -0.00156   0.00040
  39 5   H  1S         -0.05292  -0.02744  -0.00135   0.00936   0.00559
  40        2S         -0.06439  -0.01200   0.00086   0.01825   0.00394
  41        3PX         0.00061  -0.00268  -0.00056  -0.00003  -0.00008
  42        3PY         0.00198   0.00049  -0.00347  -0.00098  -0.00005
  43        3PZ         0.00279   0.00002  -0.00166  -0.00161  -0.00003
  44 6   C  1S         -0.00291  -0.02871  -0.01585   0.00343   0.00008
  45        2S          0.01182   0.06373   0.03318  -0.00750  -0.00042
  46        3S          0.01571   0.12332   0.07143  -0.00751   0.00243
  47        4PX         0.00766   0.04815   0.02884  -0.00946  -0.00121
  48        4PY        -0.00612   0.04926   0.05827   0.00703  -0.00106
  49        4PZ         0.01071  -0.00884   0.01711  -0.00883   0.00050
  50        5PX         0.01752   0.02293   0.01779  -0.00658  -0.00060
  51        5PY        -0.03093  -0.01989   0.01315   0.01364  -0.00013
  52        5PZ         0.02271  -0.03671  -0.00883  -0.00792  -0.00098
  53        6D 0       -0.00126   0.00152   0.00237   0.00013   0.00028
  54        6D+1        0.00223   0.00021  -0.00059  -0.00025  -0.00027
  55        6D-1        0.00036  -0.00213  -0.00299  -0.00021  -0.00011
  56        6D+2       -0.00096   0.00315   0.00634   0.00042   0.00005
  57        6D-2        0.00077  -0.00143  -0.00346  -0.00072  -0.00015
  58 7   H  1S         -0.00281   0.02572   0.02622   0.00849  -0.00032
  59        2S          0.01473  -0.04035  -0.00504   0.00134  -0.00180
  60        3PX         0.00013   0.00112   0.00053   0.00007  -0.00009
  61        3PY         0.00097   0.00035   0.00093  -0.00034  -0.00005
  62        3PZ        -0.00034   0.00059   0.00139   0.00011   0.00003
  63 8   H  1S          0.00655  -0.03265  -0.05958  -0.00529  -0.00044
  64        2S         -0.00631  -0.08883  -0.06903   0.00346  -0.00181
  65        3PX         0.00008   0.00360   0.00213  -0.00037   0.00005
  66        3PY         0.00015   0.00223   0.00075  -0.00023   0.00003
  67        3PZ        -0.00045  -0.00082  -0.00066  -0.00019   0.00005
  68 9   H  1S          0.00432   0.01198   0.02455  -0.00734   0.00150
  69        2S         -0.02562  -0.01924  -0.00073   0.00669   0.00158
  70        3PX         0.00080   0.00160   0.00092  -0.00052  -0.00008
  71        3PY         0.00031   0.00243   0.00236   0.00005  -0.00005
  72        3PZ        -0.00069  -0.00013  -0.00048   0.00040   0.00006
  73 10  C  1S         -0.00419   0.01944  -0.00883  -0.00035   0.00099
  74        2S          0.01792  -0.04242   0.00700   0.00381  -0.00248
  75        3S         -0.00274  -0.09867  -0.02053   0.00746  -0.00219
  76        4PX        -0.01010   0.03516  -0.01554  -0.00012   0.00277
  77        4PY         0.00309  -0.03322   0.03357   0.01063  -0.00218
  78        4PZ         0.00669   0.02561   0.01061   0.00387   0.00207
  79        5PX        -0.03232   0.04058  -0.00168   0.00578   0.00236
  80        5PY        -0.03503  -0.00512   0.01166   0.01372   0.00030
  81        5PZ         0.01668   0.04098   0.00895  -0.00632   0.00095
  82        6D 0       -0.00217  -0.00215   0.00326   0.00161   0.00028
  83        6D+1       -0.00075  -0.00097  -0.00023  -0.00019   0.00007
  84        6D-1       -0.00052   0.00174   0.00021  -0.00012   0.00007
  85        6D+2       -0.00060  -0.00228   0.00460   0.00058  -0.00010
  86        6D-2       -0.00162  -0.00113   0.00216   0.00094   0.00007
  87 11  H  1S          0.00002   0.01785  -0.04053  -0.00830   0.00056
  88        2S         -0.00887   0.04538  -0.02345  -0.00446   0.00095
  89        3PX         0.00041   0.00167  -0.00026  -0.00021   0.00006
  90        3PY        -0.00001  -0.00047   0.00027   0.00002  -0.00001
  91        3PZ        -0.00116   0.00024  -0.00032   0.00055   0.00010
  92 12  H  1S          0.00458  -0.00516   0.02264   0.00971   0.00128
  93        2S         -0.01088   0.00381   0.01582   0.00774   0.00166
  94        3PX         0.00042   0.00161  -0.00008  -0.00027   0.00009
  95        3PY         0.00135  -0.00079   0.00123  -0.00017  -0.00011
  96        3PZ        -0.00118   0.00018  -0.00052  -0.00015   0.00007
  97 13  N  1S         -0.00177  -0.01136  -0.00244   0.00195  -0.00041
  98        2S         -0.00728  -0.02583  -0.00434   0.00593  -0.00111
  99        3S          0.03149  -0.01217  -0.01351  -0.00711  -0.00190
 100        4PX        -0.00433  -0.01811   0.00599   0.01169  -0.00078
 101        4PY         0.00564   0.02630   0.03752  -0.00386   0.00092
 102        4PZ         0.00250   0.00370   0.01972   0.00745   0.00066
 103        5PX        -0.00996   0.00410  -0.00207  -0.00026   0.00052
 104        5PY        -0.01192  -0.02021  -0.03027   0.00519  -0.00045
 105        5PZ         0.01007  -0.00076  -0.00220  -0.00489  -0.00052
 106        6D 0       -0.00067  -0.00094   0.00036   0.00073   0.00005
 107        6D+1        0.00002   0.00024  -0.00078  -0.00060  -0.00001
 108        6D-1       -0.00029  -0.00001   0.00118   0.00045   0.00001
 109        6D+2        0.00042  -0.00247  -0.00088  -0.00001  -0.00013
 110        6D-2       -0.00074  -0.00333  -0.00090   0.00073  -0.00006
 111 14  H  1S          0.00151   0.00301   0.02449   0.00679   0.00060
 112        2S          0.00615   0.01516   0.01429  -0.00011   0.00060
 113        3PX         0.00061   0.00123  -0.00020  -0.00070   0.00002
 114        3PY         0.00021  -0.00211  -0.00169   0.00026  -0.00006
 115        3PZ         0.00058   0.00074   0.00154  -0.00007  -0.00000
 116 15  H  1S         -0.00033   0.00328  -0.00909  -0.01022  -0.00011
 117        2S          0.00320   0.00512  -0.00020  -0.00476  -0.00005
 118        3PX         0.00065   0.00045   0.00063   0.00017   0.00000
 119        3PY        -0.00059  -0.00307  -0.00264   0.00024  -0.00008
 120        3PZ        -0.00069  -0.00109  -0.00098   0.00040  -0.00002
                          11        12        13        14        15
  11        6D+1        0.00122
  12        6D-1       -0.00026   0.00038
  13        6D+2       -0.00004  -0.00022   0.00098
  14        6D-2       -0.00035   0.00021  -0.00012   0.00089
  15 2   H  1S          0.01556  -0.00645   0.00841  -0.01051   0.43168
  16        2S          0.00469  -0.00264   0.00322  -0.00378   0.11659
  17        3PX         0.00084  -0.00009  -0.00057  -0.00078   0.01366
  18        3PY        -0.00064   0.00007  -0.00016  -0.00017  -0.01665
  19        3PZ        -0.00014  -0.00021   0.00071  -0.00042   0.01918
  20 3   H  1S         -0.01805   0.00227   0.00388   0.00059  -0.05276
  21        2S         -0.00596   0.00136   0.00243   0.00004  -0.03382
  22        3PX        -0.00041   0.00026  -0.00096  -0.00023  -0.01250
  23        3PY         0.00048  -0.00016   0.00027  -0.00074   0.01010
  24        3PZ         0.00059   0.00009  -0.00031   0.00020  -0.01271
  25 4   C  1S         -0.00060  -0.00285   0.00630  -0.00240   0.01917
  26        2S          0.00102   0.00367  -0.00846   0.00431  -0.04084
  27        3S          0.00294  -0.00287  -0.00710   0.00031  -0.01637
  28        4PX        -0.00109  -0.00034  -0.00103  -0.00905   0.01497
  29        4PY         0.00129   0.00493  -0.00716   0.00972  -0.05860
  30        4PZ         0.00284  -0.00968  -0.00338   0.00192   0.01308
  31        5PX        -0.00061  -0.00064  -0.00080  -0.00489  -0.00590
  32        5PY         0.00261   0.00170  -0.00292   0.00385  -0.00696
  33        5PZ        -0.00112  -0.00288  -0.00365   0.00135  -0.04164
  34        6D 0       -0.00064   0.00045   0.00044  -0.00017  -0.00545
  35        6D+1        0.00014  -0.00018  -0.00018  -0.00023   0.00070
  36        6D-1       -0.00077   0.00028  -0.00023   0.00052  -0.01030
  37        6D+2       -0.00028  -0.00021   0.00053  -0.00037  -0.00288
  38        6D-2        0.00005   0.00018  -0.00083  -0.00007  -0.00954
  39 5   H  1S         -0.00420   0.01005   0.00023  -0.00067  -0.04232
  40        2S         -0.00402   0.00485   0.00069   0.00039  -0.04634
  41        3PX         0.00002  -0.00014   0.00007  -0.00020   0.00208
  42        3PY         0.00004   0.00012  -0.00018   0.00019  -0.00158
  43        3PZ         0.00007   0.00042  -0.00031   0.00001  -0.00056
  44 6   C  1S         -0.00043   0.00040   0.00051  -0.00018   0.00387
  45        2S          0.00115  -0.00087  -0.00145   0.00081  -0.01500
  46        3S          0.00129   0.00014  -0.00186  -0.00250  -0.00190
  47        4PX         0.00164  -0.00139  -0.00169   0.00348  -0.00044
  48        4PY         0.00053  -0.00058  -0.00074   0.00206  -0.01580
  49        4PZ        -0.00033   0.00074   0.00045  -0.00041   0.00397
  50        5PX         0.00144  -0.00067   0.00016   0.00112   0.01345
  51        5PY        -0.00114  -0.00043   0.00200   0.00096   0.00397
  52        5PZ         0.00089  -0.00025   0.00178   0.00006   0.03147
  53        6D 0       -0.00013   0.00021   0.00007  -0.00015  -0.00102
  54        6D+1        0.00015  -0.00035  -0.00007  -0.00005   0.00128
  55        6D-1        0.00002  -0.00015  -0.00001   0.00005   0.00033
  56        6D+2        0.00002  -0.00010   0.00001  -0.00027   0.00172
  57        6D-2        0.00002   0.00013  -0.00015   0.00044  -0.00192
  58 7   H  1S          0.00020  -0.00087   0.00010  -0.00177  -0.00413
  59        2S          0.00091  -0.00145   0.00174  -0.00097   0.02724
  60        3PX         0.00004   0.00000  -0.00001   0.00018  -0.00095
  61        3PY         0.00005  -0.00000  -0.00003   0.00009  -0.00011
  62        3PZ        -0.00004   0.00005   0.00001  -0.00002  -0.00087
  63 8   H  1S          0.00012  -0.00034   0.00014   0.00028   0.00612
  64        2S         -0.00062  -0.00035   0.00222   0.00227   0.01436
  65        3PX         0.00004   0.00000  -0.00011   0.00004  -0.00049
  66        3PY         0.00005  -0.00003  -0.00003  -0.00006   0.00065
  67        3PZ        -0.00005   0.00005   0.00002   0.00000  -0.00018
  68 9   H  1S         -0.00064   0.00150   0.00033  -0.00094  -0.00613
  69        2S         -0.00193   0.00203   0.00077   0.00021  -0.02143
  70        3PX         0.00007  -0.00009  -0.00006   0.00012  -0.00015
  71        3PY         0.00004  -0.00004  -0.00006   0.00005  -0.00124
  72        3PZ        -0.00003   0.00006  -0.00003  -0.00001  -0.00024
  73 10  C  1S         -0.00045   0.00107  -0.00053   0.00127  -0.01351
  74        2S          0.00138  -0.00284   0.00140  -0.00354   0.04001
  75        3S          0.00006  -0.00083   0.00430  -0.00095   0.05507
  76        4PX        -0.00081   0.00398   0.00033   0.00535  -0.03977
  77        4PY         0.00086  -0.00288   0.00051  -0.00474   0.03226
  78        4PZ         0.00062   0.00142  -0.00006   0.00180  -0.00431
  79        5PX        -0.00177   0.00228  -0.00187   0.00261  -0.04894
  80        5PY        -0.00148  -0.00074   0.00013  -0.00178  -0.01039
  81        5PZ         0.00095   0.00044  -0.00101   0.00037  -0.00833
  82        6D 0       -0.00012   0.00019   0.00022  -0.00015   0.00102
  83        6D+1       -0.00006   0.00015  -0.00001  -0.00022   0.00027
  84        6D-1       -0.00000  -0.00003  -0.00004   0.00009  -0.00039
  85        6D+2        0.00008  -0.00026   0.00002  -0.00030   0.00357
  86        6D-2       -0.00003  -0.00003   0.00040  -0.00004   0.00164
  87 11  H  1S         -0.00065   0.00153  -0.00042   0.00317  -0.02787
  88        2S         -0.00093   0.00125  -0.00206   0.00215  -0.04467
  89        3PX         0.00001   0.00010  -0.00005   0.00015  -0.00148
  90        3PY         0.00001  -0.00004   0.00002  -0.00007   0.00072
  91        3PZ        -0.00007   0.00011   0.00001   0.00010  -0.00115
  92 12  H  1S          0.00067   0.00032   0.00105  -0.00077   0.01799
  93        2S         -0.00056   0.00123   0.00040  -0.00007  -0.00362
  94        3PX         0.00001   0.00013   0.00002   0.00011  -0.00080
  95        3PY         0.00009  -0.00012   0.00001  -0.00015   0.00194
  96        3PZ        -0.00010   0.00012  -0.00001   0.00011  -0.00131
  97 13  N  1S         -0.00011  -0.00024   0.00134  -0.00009   0.00201
  98        2S         -0.00025  -0.00067   0.00287   0.00050   0.00611
  99        3S          0.00161  -0.00085   0.00299   0.00113   0.01663
 100        4PX        -0.00017  -0.00037   0.00268   0.00042   0.00461
 101        4PY         0.00080  -0.00045  -0.00387  -0.00073   0.00395
 102        4PZ        -0.00029  -0.00009  -0.00017   0.00100  -0.00075
 103        5PX        -0.00054   0.00002  -0.00139  -0.00041  -0.00606
 104        5PY        -0.00103   0.00069   0.00331   0.00107  -0.00815
 105        5PZ         0.00073  -0.00032   0.00042  -0.00050   0.01025
 106        6D 0       -0.00004   0.00004   0.00015   0.00010  -0.00001
 107        6D+1       -0.00001   0.00002  -0.00007  -0.00005  -0.00020
 108        6D-1       -0.00003  -0.00004  -0.00002  -0.00001   0.00003
 109        6D+2        0.00002  -0.00008   0.00012  -0.00018   0.00132
 110        6D-2       -0.00004  -0.00001   0.00025   0.00008   0.00060
 111 14  H  1S         -0.00009  -0.00026  -0.00003   0.00082   0.00291
 112        2S          0.00030   0.00009  -0.00051  -0.00002   0.00222
 113        3PX         0.00004  -0.00000  -0.00016  -0.00005  -0.00017
 114        3PY        -0.00002   0.00002   0.00023   0.00007   0.00037
 115        3PZ         0.00003  -0.00005  -0.00004   0.00002   0.00037
 116 15  H  1S          0.00020  -0.00003  -0.00137  -0.00114   0.00049
 117        2S          0.00017  -0.00005  -0.00084  -0.00107   0.00139
 118        3PX         0.00001  -0.00003  -0.00004  -0.00003   0.00017
 119        3PY        -0.00005   0.00001   0.00025   0.00005   0.00012
 120        3PZ        -0.00004   0.00002   0.00011   0.00002  -0.00020
                          16        17        18        19        20
  16        2S          0.03896
  17        3PX         0.00291   0.00180
  18        3PY        -0.00293  -0.00022   0.00145
  19        3PZ         0.00415   0.00025  -0.00078   0.00195
  20 3   H  1S         -0.03606  -0.00605   0.00209   0.01883   0.43007
  21        2S         -0.01196  -0.00337   0.00236   0.00436   0.11814
  22        3PX        -0.00421   0.00087   0.00089  -0.00053   0.00506
  23        3PY         0.00396   0.00071   0.00027   0.00023  -0.00503
  24        3PZ        -0.00120  -0.00028   0.00074  -0.00203  -0.02771
  25 4   C  1S          0.00624   0.00029   0.00093   0.00108   0.01747
  26        2S         -0.01087  -0.00090  -0.00395  -0.00341  -0.03870
  27        3S         -0.00035   0.00323   0.00098  -0.00497  -0.06678
  28        4PX         0.01932  -0.00101   0.00126   0.00009   0.00679
  29        4PY        -0.05017  -0.00187  -0.01193  -0.00538  -0.04491
  30        4PZ         0.01772  -0.00048  -0.00080  -0.00211  -0.05006
  31        5PX         0.00784   0.00121   0.00299  -0.00109  -0.00176
  32        5PY        -0.01489   0.00092  -0.00553  -0.00347  -0.05727
  33        5PZ        -0.00647  -0.00070   0.00181  -0.00225   0.00508
  34        6D 0       -0.00129  -0.00051   0.00045   0.00019   0.00913
  35        6D+1        0.00114   0.00014   0.00008  -0.00013  -0.00262
  36        6D-1       -0.00440  -0.00053  -0.00004   0.00014   0.01304
  37        6D+2        0.00183  -0.00031   0.00100  -0.00003   0.00147
  38        6D-2       -0.00326   0.00092   0.00077  -0.00081  -0.00438
  39 5   H  1S         -0.02130  -0.00199   0.00016   0.00132   0.06104
  40        2S         -0.01887  -0.00217   0.00127   0.00070   0.05850
  41        3PX         0.00097  -0.00008  -0.00006   0.00009   0.00007
  42        3PY        -0.00119   0.00001  -0.00022  -0.00016  -0.00143
  43        3PZ        -0.00037   0.00008  -0.00017  -0.00009  -0.00181
  44 6   C  1S          0.00027  -0.00076  -0.00134   0.00037   0.00829
  45        2S         -0.00407   0.00279   0.00340  -0.00192  -0.02902
  46        3S          0.00040   0.00701   0.00371  -0.00142  -0.01544
  47        4PX        -0.00006   0.00270   0.00139  -0.00043  -0.01657
  48        4PY         0.00531   0.00206   0.00343  -0.00124  -0.01748
  49        4PZ        -0.00310   0.00053   0.00016  -0.00022  -0.00245
  50        5PX         0.00405   0.00179   0.00013   0.00006  -0.01630
  51        5PY         0.00464  -0.00133   0.00063   0.00200   0.02743
  52        5PZ         0.00682  -0.00059  -0.00200   0.00140  -0.00737
  53        6D 0       -0.00075   0.00010   0.00014  -0.00000   0.00165
  54        6D+1        0.00112   0.00001  -0.00001  -0.00009  -0.00284
  55        6D-1       -0.00005  -0.00013  -0.00014   0.00000  -0.00016
  56        6D+2        0.00161   0.00023   0.00035   0.00011   0.00037
  57        6D-2       -0.00129  -0.00011  -0.00023  -0.00010  -0.00079
  58 7   H  1S          0.00787   0.00069   0.00258  -0.00069  -0.01209
  59        2S          0.01495  -0.00161  -0.00074   0.00093  -0.01443
  60        3PX        -0.00017  -0.00000   0.00009  -0.00006  -0.00129
  61        3PY         0.00015   0.00004   0.00000  -0.00007  -0.00132
  62        3PZ        -0.00020   0.00001   0.00012  -0.00005  -0.00020
  63 8   H  1S         -0.00667  -0.00196  -0.00283   0.00062   0.00478
  64        2S         -0.00155  -0.00476  -0.00440   0.00216   0.01891
  65        3PX        -0.00017   0.00020   0.00013  -0.00005  -0.00038
  66        3PY         0.00006   0.00012   0.00008   0.00005  -0.00001
  67        3PZ        -0.00049  -0.00004  -0.00002   0.00003   0.00090
  68 9   H  1S         -0.00748   0.00114   0.00146  -0.00055  -0.00052
  69        2S         -0.00957  -0.00164   0.00062  -0.00000   0.02172
  70        3PX        -0.00004   0.00008   0.00007  -0.00006  -0.00134
  71        3PY         0.00013   0.00008   0.00019  -0.00014  -0.00177
  72        3PZ         0.00006  -0.00001  -0.00007   0.00002   0.00089
  73 10  C  1S         -0.01125   0.00044   0.00040  -0.00009   0.00507
  74        2S          0.02780  -0.00130  -0.00053   0.00086  -0.02047
  75        3S          0.02164  -0.00385  -0.00285   0.00449   0.02068
  76        4PX        -0.03616   0.00126  -0.00141  -0.00127   0.01501
  77        4PY         0.02796  -0.00118   0.00180   0.00069  -0.01091
  78        4PZ        -0.00520   0.00122  -0.00106  -0.00058  -0.00438
  79        5PX        -0.02605   0.00088   0.00101  -0.00148   0.02485
  80        5PY         0.00407  -0.00117   0.00208   0.00063   0.02479
  81        5PZ        -0.00435   0.00197   0.00045  -0.00150  -0.01914
[...]
         Item               Value     Threshold  Converged?
 Maximum Force            0.156648     0.000450     NO 
 RMS     Force            0.079286     0.000300     NO 
 Maximum Displacement     0.098996     0.001800     NO 
 RMS     Displacement     0.044515     0.001200     NO 
 Predicted change in Energy=-1.039577D-01
 GradGradGradGradGradGradGradGradGradGradGradGradGradGradGradGradGradGrad

 Leave Link  103 at Sat Mar  4 11:46:20 2023, MaxMem=  1048576000 cpu:               0.0 elap:               0.0
 (Enter /ssoft/spack/external/gaussian/g16-C.01/avx2/g16/l9999.exe)

 ----------------------------------------------------------------------

 Electric dipole moment (input orientation):
 (Debye = 10**-18 statcoulomb cm , SI units = C m)
                  (au)            (Debye)         (10**-30 SI)
   Tot        0.707153D+00      0.179740D+01      0.599549D+01
   x         -0.417121D+00     -0.106022D+01     -0.353650D+01
   y         -0.569348D+00     -0.144714D+01     -0.482714D+01
   z          0.437864D-01      0.111294D+00      0.371236D+00

 Dipole polarizability, Alpha (input orientation).
 (esu units = cm**3 , SI units = C**2 m**2 J**-1)
 Alpha(0;0):
               (au)            (10**-24 esu)      (10**-40 SI)
   iso        0.400492D+02      0.593468D+01      0.660323D+01
   aniso      0.695326D+01      0.103037D+01      0.114644D+01
   xx         0.401599D+02      0.595108D+01      0.662147D+01
   yx        -0.140790D+01     -0.208629D+00     -0.232131D+00
   yy         0.435833D+02      0.645838D+01      0.718591D+01
   zx         0.474402D+00      0.702991D-01      0.782183D-01
   zy        -0.100791D+01     -0.149356D+00     -0.166181D+00
   zz         0.364045D+02      0.539460D+01      0.600230D+01

 ----------------------------------------------------------------------

 Dipole orientation:
     7          2.13147688         -1.76307001          2.61992187
     1          3.78378754         -1.50554583          2.30845328
     1          1.83100919         -3.43697101          2.59635823
     6          1.42152953         -0.67252100          5.12966577
     1          2.08026167          1.05886169          5.10434968
     6          2.57715722         -1.82097365          7.24367148
     1          4.36815268         -1.92304499          6.97417801
     1          2.24415989         -0.83101505          8.72675680
     1          1.90131225         -3.49013925          7.46767365
     6         -1.42321222         -0.38735947          5.03019940
     1         -2.04401653          0.34251971          6.59209654
     1         -2.21626824         -2.02439284          4.79563423
     7         -1.99398104          1.23402672          2.94933221
     1         -1.56921727          2.83887566          3.31752018
     1         -3.65829040          1.18115108          2.59911697

 Electric dipole moment (dipole orientation):
 (Debye = 10**-18 statcoulomb cm , SI units = C m)
                  (au)            (Debye)         (10**-30 SI)
   Tot        0.707153D+00      0.179740D+01      0.599549D+01
   x          0.000000D+00      0.000000D+00      0.000000D+00
   y          0.000000D+00      0.000000D+00      0.000000D+00
   z          0.707153D+00      0.179740D+01      0.599549D+01

 Dipole polarizability, Alpha (dipole orientation).
 (esu units = cm**3 , SI units = C**2 m**2 J**-1)
 Alpha(0;0):
               (au)            (10**-24 esu)      (10**-40 SI)
   iso        0.400492D+02      0.593468D+01      0.660323D+01
   aniso      0.695326D+01      0.103037D+01      0.114644D+01
   xx         0.412927D+02      0.611895D+01      0.680825D+01
   yx        -0.276727D+01     -0.410068D+00     -0.456262D+00
   yy         0.377618D+02      0.559572D+01      0.622607D+01
   zx         0.184752D+01      0.273775D+00      0.304616D+00
   zy        -0.105379D+01     -0.156156D+00     -0.173747D+00
   zz         0.410932D+02      0.608939D+01      0.677536D+01

 ----------------------------------------------------------------------
 Unable to Open any file for archive entry.
 1\1\GINC-JST020\Freq\RPBE1PBE\def2SVP\C3H10N2\LAPLAZA\04-Mar-2023\0\\#
 p pop=(regular,nbo,savenbos) freq=noraman def2svp empiricaldispersion=
 gd3bj output=wfx pbe1pbe\\ZALRIQ_Complex_3_Ligand_6_NN_Cu_oriented\\0,
 1\N,0.35782918,-1.98412205,0.\H,0.98198743,-2.18936533,0.61526704\H,0.
 65442407,-2.24804845,-0.80773474\C,-0.93624703,-2.66057984,0.32526585\
 H,-1.10371991,-2.44876475,1.26771823\C,-0.91315684,-4.07150659,0.26594
 779\H,-0.16765592,-4.40158517,0.77267175\H,-1.72884917,-4.4204964,0.63
 237817\H,-0.82851483,-4.351097,-0.64882807\C,-1.98482694,-1.88618108,-
 0.44445793\H,-2.86596934,-2.2542522,-0.27608964\H,-1.80635482,-1.93603
 328,-1.39715554\N,-1.92209601,-0.53029033,0.\H,-2.26569655,-0.45684387
 ,0.82840464\H,-2.39241695,0.00189474,-0.55350163\\Version=ES64L-G16Rev
 C.01\State=1-A\HF=-229.229264\RMSD=3.283e-09\RMSF=7.929e-02\ZeroPoint=
 0.1451745\Thermal=0.1491991\ETot=-229.0800649\HTot=-229.0791207\GTot=-
 229.1113092\Dipole=-0.4171212,-0.5693484,0.0437864\DipoleDeriv=-0.6032
 294,-0.1382435,0.0129554,-0.1338039,-0.7454742,0.0395501,0.0078659,0.0
 746735,-0.2655757,0.0694459,0.0329191,-0.0151271,0.1163322,0.2541304,0
 .100188,-0.000648,0.0740597,0.1149522,0.1112451,-0.0200089,0.007082,0.
 0358155,0.2462163,-0.1339127,0.0185998,-0.0905431,0.0912373,0.5380753,
 0.1633569,-0.0528917,0.0027962,0.4350342,-0.0505173,-0.0517376,-0.0225
 364,0.1466048,-0.0065761,0.0056414,0.0260083,-0.0067018,-0.0155117,-0.
 047804,0.0376162,-0.0415093,-0.1247227,-0.1638508,0.0446594,-0.0136287
 ,-0.037072,-0.2391135,0.0477809,-0.0101348,0.0589227,-0.0286459,-0.011
 8412,0.0711729,-0.0731899,0.029658,0.0413993,0.0068615,-0.0720008,0.02
 75719,0.0496863,-0.0427907,-0.1008097,0.0625627,-0.0558692,0.033493,0.
 0065703,0.0601222,0.0232182,0.0732403,0.0944891,0.0100331,0.0210182,0.
 0046075,0.0550922,-0.0043542,0.0233068,-0.0874,-0.0810732,0.2140745,-0
 .119071,-0.0347099,0.0504597,0.4553755,0.0679384,-0.046572,0.1009341,0
 .1265209,-0.1465369,-0.0952389,-0.0033664,-0.0635714,-0.1064677,-0.018
 7074,0.0395595,0.0106755,0.0471018,0.0593896,0.0050994,0.0505932,0.019
 0416,0.0089117,-0.009957,0.0094729,-0.0257645,-0.0948104,-0.501534,-0.
 0761362,-0.0150198,-0.0413922,-0.7236712,-0.029307,-0.0375913,-0.08358
 43,-0.2860657,0.2223494,0.0415393,0.1113918,0.0111372,0.1371332,0.0479
 963,0.0680788,0.0071686,0.0999412,0.1672903,0.1750868,-0.0836781,0.068
 5626,0.1634524,-0.0223257,-0.0459375,-0.0258866,0.1316088\Polar=40.159
 8571,-1.4078985,43.583294,0.4744017,-1.0079059,36.4045355\Quadrupole=1
 .5029273,-2.4988759,0.9959486,-3.2862404,-0.0968195,-0.148396\PG=C01 [
 X(C3H10N2)]\NImag=12\\0.74782221,-0.18603204,0.09775288,0.15054643,0.0
 8847453,1.29531421,-0.43553575,0.13783703,-0.45360231,0.44807932,0.174
 75132,0.02182664,0.18659724,-0.14570706,-0.01850700,-0.43888465,0.1440
 0497,-0.43721117,0.45797903,-0.15809436,0.45416033,-0.08869657,0.08301
 270,0.28205546,0.01328151,-0.01046304,-0.03701760,0.09136870,0.0958413
 3,-0.01514862,-0.30147055,-0.00136764,-0.00067446,0.01404532,-0.082267
 70,0.01574678,0.26314247,-0.24602937,-0.74744886,0.01753903,-0.0143586
 4,-0.02790018,-0.27986498,0.26384949,0.77575458,-0.14417441,-0.0073303
 4,0.01053222,-0.02326855,-0.01978204,0.01265402,-0.01333879,-0.0124688
 0,0.00001762,0.43338423,-0.05961267,-0.08540765,0.01007032,0.01081885,
 -0.00299386,0.00021438,0.01211830,0.00084196,-0.00452029,-0.06459689,0
 .71917646,0.01662469,0.00174210,-0.12264127,-0.02380728,-0.01351053,0.
 00993213,0.03641097,0.02166671,-0.00369997,-0.06323939,0.11827468,0.93
 736622,-0.01528191,0.00192826,0.03898662,0.00200348,0.00113411,-0.0000
 7030,-0.00685064,-0.00307634,0.00116899,-0.01864098,0.02512581,0.09750
 338,0.03409178,-0.00719485,0.00145400,0.02055274,0.00116872,0.00104758
 ,-0.00062192,-0.00335619,-0.00121552,0.00069876,0.02346267,-0.03102054
 ,-0.13646442,-0.02363122,0.05688346,0.00142785,-0.00001483,-0.00448825
 ,0.00014213,-0.00019307,0.00069653,0.00105592,0.00039811,0.00156865,0.
 10397681,-0.13729697,-0.59474503,-0.10483170,0.13933393,0.61132125,-0.
 01396642,-0.04616148,-0.00045767,0.00189016,-0.00036333,0.00162674,0.0
 0250571,0.00164915,-0.00238024,-0.07718782,0.01757669,-0.00199215,0.00
 161964,0.00659194,-0.00010135,1.04544925,-0.01120379,-0.02242877,0.003
 10733,0.00097336,0.00173287,0.00002836,0.00106140,0.00220098,-0.000278
 57,0.01603988,-0.40856798,-0.03081903,0.00060391,-0.02212838,0.0005220
 3,0.00231913,0.66297873,0.00496535,0.01553618,0.00271793,-0.00048262,-
 0.00156193,-0.00051604,-0.00105797,0.00174981,0.00163185,-0.00136682,-
 0.02335868,-0.08665739,0.00132979,-0.04610816,-0.00114129,0.00195008,-
 0.00458289,1.03945848,0.00173203,-0.00108560,0.00157467,0.00034775,0.0
 0004416,-0.00051173,0.00008238,-0.00005128,0.00009986,0.00011046,-0.00
 505991,0.00180296,0.00009469,0.00023680,0.00035768,-0.43746693,0.19324
 293,-0.30318084,0.44722259,0.00152205,0.00560936,-0.00077077,-0.001109
 01,-0.00131586,-0.00045665,-0.00015517,-0.00053223,0.00050602,0.036242
 25,-0.02025959,0.02584895,-0.00025459,0.00220467,0.00002594,0.19224193
 ,-0.06863480,0.13046801,-0.19881118,0.08213200,0.00061632,-0.00127523,
 0.00013430,0.00006504,0.00069531,0.00030975,-0.00012211,0.00041668,-0.
 00041398,0.00470920,-0.00285033,0.00165944,0.00090484,0.00033462,0.000
 96260,-0.30334035,0.12956072,-0.20084960,0.31260971,-0.13419277,0.2007
 7098,0.00144093,-0.00128905,0.00010658,0.00039056,0.00055020,0.0003156
 4,0.00010314,0.00038874,-0.00044080,0.00210446,0.00449674,-0.00210259,
 0.00078637,-0.00012671,-0.00038063,-0.52319332,-0.22192928,0.23820937,
 -0.01922928,-0.01452200,0.01653019,0.53626610,-0.00235843,-0.00982918,
 -0.00022933,0.00040832,-0.00001547,0.00021240,0.00049326,0.00006087,-0
 .00057094,-0.03969408,-0.01320567,0.01706592,-0.00033450,0.00217404,-0
 .00015863,-0.22166700,-0.08305763,0.10051837,0.01501777,0.00484141,-0.
 00789473,0.23239756,0.09339163,-0.00057156,-0.00155493,0.00210654,0.00
 039585,0.00062368,0.00005078,-0.00035174,-0.00069041,0.00026282,-0.004
 09471,-0.00271505,-0.00066572,-0.00077045,0.00010279,0.00077641,0.2390
 7787,0.10084316,-0.10228091,-0.02103689,-0.01146308,0.01000393,-0.2468
 2884,-0.10348891,0.09868372,0.00037504,0.00110243,-0.00138966,-0.00004
 346,-0.00005547,-0.00015880,0.00018625,-0.00047247,0.00034492,-0.00075
 943,0.00035111,0.00158987,0.00189462,0.00051649,-0.00014775,-0.0024040
 3,0.01758776,0.06015366,0.00570170,-0.01363314,-0.03205175,0.00078059,
 0.01487718,0.03408759,-0.00569019,0.00193631,0.00389477,0.00122100,0.0
 0008642,-0.00000381,-0.00006584,-0.00108596,-0.00049263,0.00083856,0.0
 0533199,-0.01733217,-0.04924393,0.00002441,-0.00920130,-0.00055335,0.0
 1722877,-0.04681910,-0.19680609,-0.00260668,0.00319636,0.01658457,-0.0
 0013959,0.00392122,0.01847658,-0.02009892,0.05987187,-0.00091532,0.000
 29659,0.00171072,0.00005279,-0.00003703,-0.00011899,-0.00039843,-0.000
 65471,-0.00027786,0.00107379,0.00221396,0.00113784,-0.00007391,-0.0002
 2231,0.00188172,0.06086274,-0.19595041,-0.65701260,0.00798539,-0.00813
 969,-0.01418553,-0.00515798,-0.00572214,-0.00894739,-0.06343538,0.2082
 8669,0.67421550,-0.04694178,0.00474175,-0.02434129,-0.00666103,-0.0006
 6947,0.00325894,0.00197452,0.00057628,0.00015548,-0.14012854,0.0412683
 7,-0.04735321,0.00179410,0.00021651,0.00163840,0.00489840,0.00198631,0
 .00106739,0.00086768,-0.00288947,0.00006991,0.00021773,-0.00017260,0.0
 0067809,0.00015322,-0.00062027,-0.00057066,0.84349244,-0.01068920,0.00
 174364,-0.00887776,-0.00397772,-0.00126001,0.00127275,0.00031363,0.000
 27353,-0.00027911,0.04392706,-0.10258156,0.03888015,-0.00178564,-0.000
 15173,-0.00276972,0.02482464,-0.01669781,0.01974202,-0.00083961,-0.004
 99968,-0.00077286,0.00044695,0.00115116,-0.00010568,-0.00021989,0.0025
 8974,0.00067906,0.18080582,0.50971562,0.00427909,-0.00246784,0.0044940
 6,0.00249484,0.00083774,-0.00000313,0.00180295,-0.00112366,0.00151594,
 -0.04934839,0.02815011,-0.13405721,-0.03358310,0.02045676,-0.02085636,
 0.00791357,-0.00313215,0.00343268,0.00057674,-0.00254892,0.00133490,-0
 .00034781,0.00057182,-0.00005844,0.00130515,-0.00029988,0.00164271,-0.
 18601915,0.00558788,0.96207215,-0.00392533,0.00157860,-0.00502635,-0.0
 0149836,-0.00000499,0.00083030,0.00036723,-0.00005333,0.00006505,-0.01
 964835,-0.01021204,0.00823998,0.00130488,-0.00060919,-0.00013533,0.001
 12196,-0.00070544,0.00068033,0.00029061,0.00005449,-0.00024336,0.00013
 632,0.00085410,-0.00041888,-0.00023061,0.00004325,0.00005709,-0.564109
 55,-0.22613081,0.11863853,0.57954669,0.00461751,-0.00010522,0.00393083
 ,0.00147446,0.00002241,-0.00051265,-0.00022786,-0.00008679,-0.00003398
 ,0.01904583,0.00735652,-0.00565494,-0.00113022,0.00075662,-0.00013611,
 -0.00059883,0.00092046,-0.00060588,-0.00021962,0.00029747,0.00000264,-
 0.00002221,-0.00032991,0.00022339,0.00006451,-0.00002753,-0.00011983,-
 0.22599226,-0.08195011,0.04906015,0.23700323,0.10706744,-0.00335854,0.
 00062924,-0.00136190,-0.00112433,-0.00011446,0.00067503,-0.00071930,0.
 00035741,-0.00022108,-0.02040788,-0.00612657,0.00333008,0.00078305,-0.
 00091172,0.00095153,0.00083362,-0.00066789,0.00065699,0.00014618,-0.00
 024566,-0.00021055,0.00016756,0.00033108,0.00007284,0.00006029,0.00011
 542,-0.00002308,0.11575211,0.04786308,-0.03012180,-0.11638020,-0.04469
 473,0.02345600,0.00291619,-0.00022924,0.00079924,0.00044089,-0.0003381
 6,0.00007353,-0.00067081,0.00068967,0.00010024,0.00328878,-0.00108056,
 -0.03140802,-0.00391259,0.00282162,-0.00325124,0.00093439,-0.00156139,
 0.00102593,-0.00008267,-0.00015933,0.00027067,-0.00006817,0.00001791,0
 .00003366,0.00022780,0.00043242,0.00067811,-0.02496457,0.00149123,0.13
 111123,-0.00363312,0.00209441,0.03874531,0.02372603,-0.00166326,-0.000
 14838,-0.00179120,-0.00031037,-0.00014737,0.00012333,0.00042269,0.0003
 6713,-0.00030495,-0.00493966,0.00087396,0.02311000,0.00377151,-0.00184
 260,0.00181273,-0.00111392,0.00162457,0.00005182,0.00019495,0.00005056
 ,-0.00048678,0.00006001,0.00014423,0.00003703,0.00009409,-0.00035419,-
 0.00067246,0.00203354,0.00176786,-0.02150385,-0.00116557,0.00127181,0.
 01551907,-0.00550088,0.00866491,0.00133163,0.00018976,0.00280483,0.000
 27016,-0.00016023,0.00023307,-0.00113179,0.00016873,-0.00036549,0.0040
 3234,-0.00130563,-0.01603805,-0.00259101,0.00180769,-0.00039631,-0.000
 09057,-0.00048757,0.00114100,-0.00012040,0.00004404,0.00020957,-0.0000
 0443,-0.00017746,0.00003013,-0.00004161,0.00093153,0.00006698,0.133975
 89,-0.03074696,-0.65955316,-0.00331380,-0.00115946,-0.00312560,-0.1333
 9876,0.03221676,0.67907786,-0.00446784,0.01176387,0.00146205,0.0008238
 7,0.00026448,-0.00039904,-0.00035213,0.00057309,0.00011656,-0.00144879
 ,0.02731486,0.00491073,0.00114941,-0.00074816,0.00093494,-0.00350273,0
 .00170305,-0.00195020,0.00023920,0.00109789,0.00003319,0.00019086,0.00
 032490,-0.00031448,-0.00025428,-0.00029787,-0.00017322,-0.06696866,0.0
 1116573,0.00584965,0.00838834,-0.03630035,-0.01319454,0.00039690,0.008
 19976,0.00104749,0.35154973,0.00101063,0.00056872,-0.00115508,-0.00027
 946,0.00026722,-0.00018048,0.00032954,-0.00141783,0.00046596,0.0072338
 2,-0.04206035,-0.00558142,-0.00252508,0.00116409,-0.00212529,0.0059460
 5,-0.00082878,0.00330573,-0.00005530,-0.00200350,-0.00015414,-0.000323
 08,0.00077783,-0.00029065,-0.00007666,0.00031053,-0.00006664,-0.040285
 42,-0.27323198,-0.05198288,0.00029347,-0.03845459,-0.01307451,0.001067
 98,-0.00704775,0.00029045,-0.36371355,0.64871749,0.00113170,0.00046623
 ,0.00461504,0.00011370,-0.00079553,-0.00032725,-0.00078373,0.00154146,
 -0.00047412,0.00112825,0.02297531,0.00444440,0.00096380,0.00104449,0.0
 0331584,-0.00473151,0.00218708,-0.00152690,-0.00030969,0.00136637,0.00
 024173,-0.00001331,-0.00046259,-0.00005563,-0.00026788,0.00039694,0.00
 001944,-0.01312522,-0.05716343,-0.13319316,-0.00214531,-0.00191325,0.0
 0464413,-0.00458839,-0.04607048,-0.00605294,-0.02657497,-0.20564825,1.
 26121266,-0.00129702,-0.00010193,-0.00195969,-0.00021226,0.00075077,0.
 00023170,0.00026511,-0.00066707,0.00008290,0.00074171,-0.00077598,0.00
 266574,-0.00015155,0.00116875,-0.00101198,0.00008877,-0.00008785,-0.00
 095135,-0.00001693,0.00004376,-0.00004338,-0.00003714,-0.00009821,0.00
 009575,0.00006494,-0.00030541,-0.00003243,-0.00122270,-0.00777795,-0.0
 0548245,0.00124399,0.00146512,-0.00160641,0.00059071,-0.00022868,0.000
 06677,-0.08296989,0.05209797,0.38306282,0.07606572,-0.00027182,-0.0001
 5551,0.00013285,0.00001467,0.00013069,0.00001897,-0.00020555,-0.000117
 20,-0.00001336,-0.00006810,0.00165689,-0.00222714,0.00054416,-0.000115
 78,0.00132201,-0.00024745,0.00007385,0.00054738,-0.00005874,0.00000043
 ,0.00007350,-0.00001201,-0.00018069,-0.00001936,-0.00005766,0.00030741
 ,0.00012583,0.01708046,-0.00936899,-0.04691536,-0.00050695,0.00283805,
 0.00003121,-0.00036983,-0.00818905,-0.00166152,0.04277097,0.00896360,-
 0.04635397,-0.04348777,0.00020756,-0.00031995,-0.00031326,-0.00056162,
 -0.00010536,0.00007547,0.00007216,0.00005776,-0.00005872,-0.00000105,0
 .00021546,0.00043869,0.00179528,0.00049752,0.00001896,-0.00028797,-0.0
 0015509,0.00024117,-0.00011870,-0.00003144,0.00004908,0.00000370,-0.00
 001306,-0.00007443,0.00004687,-0.00000379,-0.00003549,-0.00005537,0.00
 551023,0.00310709,-0.00844071,-0.00083293,0.00198374,0.00155156,-0.000
 66825,-0.00244817,0.00112638,0.32376331,-0.06055880,-0.78353907,-0.345
 45012,0.06382987,0.81402871,0.00000064,0.00026502,0.00071372,-0.000038
 15,-0.00011148,0.00007222,-0.00022562,0.00070638,-0.00014709,-0.001033
 97,0.00226732,0.00015431,0.00009870,-0.00051719,0.00032624,-0.00078702
 ,-0.00002998,-0.00039209,0.00010672,0.00033151,-0.00000812,0.00011085,
 -0.00006618,0.00001873,-0.00000217,0.00007114,0.00004741,-0.00240125,-
 0.01155424,0.00080916,0.00064530,-0.00127371,0.00030308,0.00081024,0.0
 0014580,-0.00003189,-0.20277399,0.33927911,-0.33386023,0.00684653,-0.0
 1512437,0.01753570,0.19864321,-0.00065310,0.00037332,0.00020786,-0.000
 03056,-0.00010957,0.00001142,0.00000995,0.00019403,0.00003042,-0.00240
 360,-0.00647642,-0.00308710,-0.00039459,-0.00000860,-0.00016679,0.0017
 7371,-0.00036820,0.00110432,0.00005132,-0.00058661,-0.00004122,0.00002
 373,0.00015615,0.00002145,0.00002065,0.00013884,-0.00001690,0.02192045
 ,-0.02699968,0.02531008,-0.00043882,0.00042337,0.00098903,0.00062416,0
 .00296433,0.00004987,0.29588134,-0.29572470,0.32842961,-0.00199551,0.0
 0394874,-0.00625522,-0.31438913,0.32207502,-0.00001550,0.00031585,-0.0
 0018456,0.00006935,-0.00000366,-0.00005302,0.00006460,-0.00019568,0.00
 006875,0.00011747,-0.00416392,-0.00116076,-0.00021752,-0.00002220,0.00
 044067,0.00098430,-0.00057134,0.00106449,0.00003782,-0.00049087,0.0000
 2877,-0.00003990,0.00007955,-0.00002595,-0.00004484,0.00015330,-0.0000
 5410,0.00930309,-0.01641651,0.01179153,-0.00001510,-0.00036993,-0.0002
 7416,0.00047674,0.00040715,0.00084173,-0.29551146,0.33675600,-0.353324
 17,-0.02966788,0.03110910,-0.02562018,0.31445886,-0.34658683,0.3664609
 6\\0.15664780,-0.05483705,-0.03768715,-0.10306607,0.03219676,-0.103531
 65,-0.04775858,0.04270602,0.13706601,-0.04763645,-0.06969834,0.0869038
 5,0.01831975,-0.03310546,-0.10943433,0.00471525,-0.06563904,0.01362019
 ,-0.10558392,0.05001457,-0.07226721,0.11717144,0.05548844,-0.05139186,
 -0.01290098,0.04831632,0.13111075,-0.08141210,-0.04165059,-0.09887296,
 0.11700302,0.05716765,-0.01967594,-0.02480431,0.00580727,0.12319497,-0
 .11884048,0.07687015,0.04883264,0.05384045,-0.01313900,-0.13877964,0.0
 7430519,-0.09049770,0.09091233\\\@
 The archive entry for this job was punched.

 Writing a WFNX file to "ZALRIQ_Complex_3_Ligand_6_NN_Cu_oriented.wfx"


 A great many people think they are thinking when they
 are merely rearranging their prejudices.
                               -- William James
 Job cpu time:       0 days  0 hours  3 minutes 24.3 seconds.
 Elapsed time:       0 days  0 hours  3 minutes 24.9 seconds.
 File lengths (MBytes):  RWF=    336 Int=      0 D2E=      0 Chk=      8 Scr=      8
 Normal termination of Gaussian 16 at Sat Mar  4 11:46:20 2023.
