 Entering Gaussian System, Link 0=g16
 Initial command:
 /ssoft/spack/external/gaussian/g16-C.01/avx2/g16/l1.exe "/scratch/lcmd/2316219/Gau-916846.inp" -scrdir="/scratch/lcmd/2316219/"
 Entering Link 1 = /ssoft/spack/external/gaussian/g16-C.01/avx2/g16/l1.exe PID=    916849.
  
 Copyright (c) 1988-2019, Gaussian, Inc.  All Rights Reserved.
  
 This is part of the Gaussian(R) 16 program.  It is based on
 the Gaussian(R) 09 system (copyright 2009, Gaussian, Inc.),
 the Gaussian(R) 03 system (copyright 2003, Gaussian, Inc.),
 the Gaussian(R) 98 system (copyright 1998, Gaussian, Inc.),
 the Gaussian(R) 94 system (copyright 1995, Gaussian, Inc.),
 the Gaussian 92(TM) system (copyright 1992, Gaussian, Inc.),
 the Gaussian 90(TM) system (copyright 1990, Gaussian, Inc.),
 the Gaussian 88(TM) system (copyright 1988, Gaussian, Inc.),
 the Gaussian 86(TM) system (copyright 1986, Carnegie Mellon
 University), and the Gaussian 82(TM) system (copyright 1983,
 Carnegie Mellon University). Gaussian is a federally registered
 trademark of Gaussian, Inc.
  
 This software contains proprietary and confidential information,
 including trade secrets, belonging to Gaussian, Inc.
  
 This software is provided under written license and may be
 used, copied, transmitted, or stored only in accord with that
 written license.
  
 The following legend is applicable only to US Government
 contracts under FAR:
  
                    RESTRICTED RIGHTS LEGEND
  
 Use, reproduction and disclosure by the US Government is
 subject to restrictions as set forth in subparagraphs (a)
 and (c) of the Commercial Computer Software - Restricted
 Rights clause in FAR 52.227-19.
  
 Gaussian, Inc.
 340 Quinnipiac St., Bldg. 40, Wallingford CT 06492
  
  
 ---------------------------------------------------------------
 Warning -- This program may not be used in any manner that
 competes with the business of Gaussian, Inc. or will provide
 assistance to any competitor of Gaussian, Inc.  The licensee
 of this program is prohibited from giving any competitor of
 Gaussian, Inc. access to this program.  By using this program,
 the user acknowledges that Gaussian, Inc. is engaged in the
 business of creating and licensing software in the field of
 computational chemistry and represents and warrants to the
 licensee that it is not a competitor of Gaussian, Inc. and that
 it will not use this program in any manner prohibited above.
 ---------------------------------------------------------------
  

 Cite this work as:
 Gaussian 16, Revision C.01,
 M. J. Frisch, G. W. Trucks, H. B. Schlegel, G. E. Scuseria, 
 M. A. Robb, J. R. Cheeseman, G. Scalmani, V. Barone, 
 G. A. Petersson, H. Nakatsuji, X. Li, M. Caricato, A. V. Marenich, 
 J. Bloino, B. G. Janesko, R. Gomperts, B. Mennucci, H. P. Hratchian, 
 J. V. Ortiz, A. F. Izmaylov, J. L. Sonnenberg, D. Williams-Young, 
 F. Ding, F. Lipparini, F. Egidi, J. Goings, B. Peng, A. Petrone, 
 T. Henderson, D. Ranasinghe, V. G. Zakrzewski, J. Gao, N. Rega, 
 G. Zheng, W. Liang, M. Hada, M. Ehara, K. Toyota, R. Fukuda, 
 J. Hasegawa, M. Ishida, T. Nakajima, Y. Honda, O. Kitao, H. Nakai, 
 T. Vreven, K. Throssell, J. A. Montgomery, Jr., J. E. Peralta, 
 F. Ogliaro, M. J. Bearpark, J. J. Heyd, E. N. Brothers, K. N. Kudin, 
 V. N. Staroverov, T. A. Keith, R. Kobayashi, J. Normand, 
 K. Raghavachari, A. P. Rendell, J. C. Burant, S. S. Iyengar, 
 J. Tomasi, M. Cossi, J. M. Millam, M. Klene, C. Adamo, R. Cammi, 
 J. W. Ochterski, R. L. Martin, K. Morokuma, O. Farkas, 
 J. B. Foresman, and D. J. Fox, Gaussian, Inc., Wallingford CT, 2019.
 
 ******************************************
 Gaussian 16:  ES64L-G16RevC.01  3-Jul-2019
                 4-Mar-2023 
 ******************************************
 %nprocshared=1
 Will use up to    1 processors via shared memory.
 %mem=8000MB
 %chk=ZAVDUX_Complex_6_Ligand_1_NN_Cu_oriented.chk
 ----------------------------------------------------------------------
 #p pop=(regular,nbo,savenbos) freq=noraman def2svp empiricaldispersion
 =gd3bj output=wfx pbe1pbe
 ----------------------------------------------------------------------
 1/10=4,30=1,38=1/1,3;
 2/12=2,17=6,18=5,40=1/2;
 3/5=43,7=101,11=2,25=1,30=1,71=2,74=-13,124=41,140=1/1,2,3;
 4//1;
 5/5=2,38=5,98=1/2;
 8/6=4,10=90,11=11/1;
 11/6=1,8=1,9=11,15=111,16=1/1,2,10;
 10/6=1/2;
 6/28=1,40=1,73=1/1,7;
 7/8=1,10=1,25=1/1,2,3,16;
 1/10=4,30=1/3;
 99/6=200/99;
 Leave Link    1 at Sat Mar  4 11:42:55 2023, MaxMem=  1048576000 cpu:               0.0 elap:               0.1
 (Enter /ssoft/spack/external/gaussian/g16-C.01/avx2/g16/l101.exe)
 ----------------------------------------
 ZAVDUX_Complex_6_Ligand_1_NN_Cu_oriented
 ----------------------------------------
 Symbolic Z-matrix:
 Charge =  0 Multiplicity = 1
 N                    -0.97148   1.77638   0. 
 N                     1.62934   1.25957   0. 
 C                    -2.29053   1.99399   0.06211 
 H                    -2.88332   1.25255   0.04829 
 C                    -2.80326   3.25162   0.14343 
 H                    -3.74198   3.37751   0.20686 
 C                    -1.95739   4.35221   0.13576 
 C                    -0.58464   4.13525   0.06411 
 C                    -0.12689   2.82983   0.00624 
 C                     1.29643   2.47069  -0.05444 
 O                     3.5645    2.27331  -1.97919 
 C                     3.01628   0.79578  -0.16576 
 H                     2.9993    0.04346  -0.82442 
 C                     3.56388   0.23714   1.14253 
 C                     3.24037   0.79118   2.37117 
 C                     3.82981   0.31843   3.51413 
 C                     4.74177  -0.71396   3.45388 
 H                     5.14777  -1.03601   4.25159 
 C                     5.06293  -1.2749    2.24502 
 H                     5.68325  -1.99367   2.20922 
 C                     4.49343  -0.80922   1.08037 
 H                     4.72909  -1.1917    0.24311 
 C                     3.98341   1.82793  -0.6946 
 H                     4.02327   2.59707  -0.07327 
 H                     4.89009   1.43407  -0.75812 
 C                     4.57458   3.04857  -2.62231 
 H                     5.431     2.55041  -2.62486 
 H                     4.71159   3.89723  -2.1319 
 C                     4.15228   3.33603  -4.02133 
 C                     3.3223    2.58114  -6.15824 
 H                     2.98097   1.88851  -6.71161 
 C                     3.69385   2.32002  -4.8511 
 H                     3.63567   1.43221  -4.51702 
 F                     3.11869   4.11401  -7.93014 
 C                     4.26218   4.61442  -4.539 
 H                     4.57713   5.31748  -3.98382 
 C                     3.91375   4.8877   -5.86889 
 H                     3.99496   5.76509  -6.22445 
 C                     3.45384   3.85236  -6.63854 
 H                     1.95904   3.14636  -0.13571 
 H                    -2.30781   5.23432   0.17816 
 H                     3.60851   0.70584   4.35228 
 H                     0.02429   4.86502   0.05632 
 H                     2.60947   1.50048   2.42096 
 
 ITRead=  0  0  0  0  0  0  0  0  0  0  0  0  0  0  0  0  0  0  0  0
 ITRead=  0  0  0  0  0  0  0  0  0  0  0  0  0  0  0  0  0  0  0  0
 ITRead=  0  0  0  0
 MicOpt= -1 -1 -1 -1 -1 -1 -1 -1 -1 -1 -1 -1 -1 -1 -1 -1 -1 -1 -1 -1
 MicOpt= -1 -1 -1 -1 -1 -1 -1 -1 -1 -1 -1 -1 -1 -1 -1 -1 -1 -1 -1 -1
 MicOpt= -1 -1 -1 -1
 NAtoms=     44 NQM=       44 NQMF=       0 NMMI=      0 NMMIF=      0
                NMic=       0 NMicF=      0.
                    Isotopes and Nuclear Properties:
 (Nuclear quadrupole moments (NQMom) in fm**2, nuclear magnetic moments (NMagM)
  in nuclear magnetons)

  Atom         1           2           3           4           5           6           7           8           9          10
 IAtWgt=          14          14          12           1          12           1          12          12          12          12
 AtmWgt=  14.0030740  14.0030740  12.0000000   1.0078250  12.0000000   1.0078250  12.0000000  12.0000000  12.0000000  12.0000000
 NucSpn=           2           2           0           1           0           1           0           0           0           0
 AtZEff=  -0.0000000  -0.0000000  -0.0000000  -0.0000000  -0.0000000  -0.0000000  -0.0000000  -0.0000000  -0.0000000  -0.0000000
 NQMom=    2.0440000   2.0440000   0.0000000   0.0000000   0.0000000   0.0000000   0.0000000   0.0000000   0.0000000   0.0000000
 NMagM=    0.4037610   0.4037610   0.0000000   2.7928460   0.0000000   2.7928460   0.0000000   0.0000000   0.0000000   0.0000000
 AtZNuc=   7.0000000   7.0000000   6.0000000   1.0000000   6.0000000   1.0000000   6.0000000   6.0000000   6.0000000   6.0000000

  Atom        11          12          13          14          15          16          17          18          19          20
 IAtWgt=          16          12           1          12          12          12          12           1          12           1
 AtmWgt=  15.9949146  12.0000000   1.0078250  12.0000000  12.0000000  12.0000000  12.0000000   1.0078250  12.0000000   1.0078250
 NucSpn=           0           0           1           0           0           0           0           1           0           1
 AtZEff=  -0.0000000  -0.0000000  -0.0000000  -0.0000000  -0.0000000  -0.0000000  -0.0000000  -0.0000000  -0.0000000  -0.0000000
 NQMom=    0.0000000   0.0000000   0.0000000   0.0000000   0.0000000   0.0000000   0.0000000   0.0000000   0.0000000   0.0000000
 NMagM=    0.0000000   0.0000000   2.7928460   0.0000000   0.0000000   0.0000000   0.0000000   2.7928460   0.0000000   2.7928460
 AtZNuc=   8.0000000   6.0000000   1.0000000   6.0000000   6.0000000   6.0000000   6.0000000   1.0000000   6.0000000   1.0000000

  Atom        21          22          23          24          25          26          27          28          29          30
 IAtWgt=          12           1          12           1           1          12           1           1          12          12
 AtmWgt=  12.0000000   1.0078250  12.0000000   1.0078250   1.0078250  12.0000000   1.0078250   1.0078250  12.0000000  12.0000000
 NucSpn=           0           1           0           1           1           0           1           1           0           0
 AtZEff=  -0.0000000  -0.0000000  -0.0000000  -0.0000000  -0.0000000  -0.0000000  -0.0000000  -0.0000000  -0.0000000  -0.0000000
 NQMom=    0.0000000   0.0000000   0.0000000   0.0000000   0.0000000   0.0000000   0.0000000   0.0000000   0.0000000   0.0000000
 NMagM=    0.0000000   2.7928460   0.0000000   2.7928460   2.7928460   0.0000000   2.7928460   2.7928460   0.0000000   0.0000000
 AtZNuc=   6.0000000   1.0000000   6.0000000   1.0000000   1.0000000   6.0000000   1.0000000   1.0000000   6.0000000   6.0000000

  Atom        31          32          33          34          35          36          37          38          39          40
 IAtWgt=           1          12           1          19          12           1          12           1          12           1
 AtmWgt=   1.0078250  12.0000000   1.0078250  18.9984032  12.0000000   1.0078250  12.0000000   1.0078250  12.0000000   1.0078250
 NucSpn=           1           0           1           1           0           1           0           1           0           1
 AtZEff=  -0.0000000  -0.0000000  -0.0000000  -0.0000000  -0.0000000  -0.0000000  -0.0000000  -0.0000000  -0.0000000  -0.0000000
 NQMom=    0.0000000   0.0000000   0.0000000   0.0000000   0.0000000   0.0000000   0.0000000   0.0000000   0.0000000   0.0000000
 NMagM=    2.7928460   0.0000000   2.7928460   2.6288670   0.0000000   2.7928460   0.0000000   2.7928460   0.0000000   2.7928460
 AtZNuc=   1.0000000   6.0000000   1.0000000   9.0000000   6.0000000   1.0000000   6.0000000   1.0000000   6.0000000   1.0000000

  Atom        41          42          43          44
 IAtWgt=           1           1           1           1
 AtmWgt=   1.0078250   1.0078250   1.0078250   1.0078250
 NucSpn=           1           1           1           1
 AtZEff=  -0.0000000  -0.0000000  -0.0000000  -0.0000000
 NQMom=    0.0000000   0.0000000   0.0000000   0.0000000
 NMagM=    2.7928460   2.7928460   2.7928460   2.7928460
 AtZNuc=   1.0000000   1.0000000   1.0000000   1.0000000
 Leave Link  101 at Sat Mar  4 11:42:55 2023, MaxMem=  1048576000 cpu:               0.1 elap:               0.1
 (Enter /ssoft/spack/external/gaussian/g16-C.01/avx2/g16/l103.exe)

 GradGradGradGradGradGradGradGradGradGradGradGradGradGradGradGradGradGrad
 Berny optimization.
 Initialization pass.
 Trust Radius=3.00D-01 FncErr=1.00D-07 GrdErr=1.00D-07 EigMax=2.50D+02 EigMin=1.00D-04
 Number of steps in this run=      2 maximum allowed number of steps=      2.
 GradGradGradGradGradGradGradGradGradGradGradGradGradGradGradGradGradGrad

 Leave Link  103 at Sat Mar  4 11:42:55 2023, MaxMem=  1048576000 cpu:               0.0 elap:               0.0
 (Enter /ssoft/spack/external/gaussian/g16-C.01/avx2/g16/l202.exe)
                          Input orientation:                          
 ---------------------------------------------------------------------
 Center     Atomic      Atomic             Coordinates (Angstroms)
 Number     Number       Type             X           Y           Z
 ---------------------------------------------------------------------
      1          7           0       -0.971479    1.776377    0.000000
      2          7           0        1.629337    1.259569    0.000000
      3          6           0       -2.290527    1.993990    0.062108
      4          1           0       -2.883317    1.252551    0.048286
      5          6           0       -2.803262    3.251623    0.143431
      6          1           0       -3.741976    3.377505    0.206860
      7          6           0       -1.957385    4.352206    0.135765
      8          6           0       -0.584636    4.135250    0.064106
      9          6           0       -0.126892    2.829826    0.006236
     10          6           0        1.296434    2.470686   -0.054442
     11          8           0        3.564502    2.273310   -1.979192
     12          6           0        3.016279    0.795782   -0.165760
     13          1           0        2.999298    0.043458   -0.824415
     14          6           0        3.563882    0.237142    1.142527
     15          6           0        3.240368    0.791183    2.371169
     16          6           0        3.829810    0.318429    3.514132
     17          6           0        4.741770   -0.713957    3.453882
     18          1           0        5.147770   -1.036007    4.251591
     19          6           0        5.062934   -1.274904    2.245015
     20          1           0        5.683248   -1.993666    2.209218
     21          6           0        4.493434   -0.809219    1.080371
     22          1           0        4.729086   -1.191700    0.243115
     23          6           0        3.983413    1.827935   -0.694602
     24          1           0        4.023268    2.597069   -0.073267
     25          1           0        4.890091    1.434068   -0.758119
     26          6           0        4.574575    3.048570   -2.622312
     27          1           0        5.431003    2.550411   -2.624863
     28          1           0        4.711587    3.897232   -2.131897
     29          6           0        4.152276    3.336030   -4.021327
     30          6           0        3.322300    2.581143   -6.158237
     31          1           0        2.980965    1.888512   -6.711607
     32          6           0        3.693852    2.320020   -4.851099
     33          1           0        3.635667    1.432210   -4.517024
     34          9           0        3.118695    4.114014   -7.930135
     35          6           0        4.262176    4.614417   -4.539002
     36          1           0        4.577135    5.317478   -3.983820
     37          6           0        3.913747    4.887701   -5.868891
     38          1           0        3.994957    5.765087   -6.224452
     39          6           0        3.453845    3.852356   -6.638538
     40          1           0        1.959043    3.146360   -0.135708
     41          1           0       -2.307813    5.234324    0.178158
     42          1           0        3.608512    0.705842    4.352279
     43          1           0        0.024294    4.865020    0.056316
     44          1           0        2.609469    1.500476    2.420963
 ---------------------------------------------------------------------
                    Distance matrix (angstroms):
                    1          2          3          4          5
     1  N    0.000000
     2  N    2.651666   0.000000
     3  C    1.338320   3.988555   0.000000
     4  H    1.982889   4.512917   0.949380   0.000000
     5  C    2.356343   4.861767   1.360570   2.002935   0.000000
     6  H    3.206565   5.777495   2.010416   2.297362   0.949239
     7  C    2.761402   4.737870   2.382770   3.236181   1.388110
     8  C    2.391243   3.629783   2.737711   3.687023   2.389433
     9  C    1.350230   2.355862   2.320142   3.176073   2.712875
    10  C    2.372438   1.257216   3.620375   4.354851   4.178101
    11  O    4.973858   2.947835   6.206955   6.835713   6.783144
    12  C    4.109897   1.471796   5.445165   5.921122   6.324066
    13  H    4.410186   2.008825   5.707254   6.068663   6.700653
    14  C    4.923831   2.468438   6.207086   6.617763   7.115181
    15  C    4.932819   2.904694   6.113044   6.565680   6.895073
    16  C    6.125938   4.251700   7.223746   7.612539   7.997681
    17  C    7.125467   5.050876   8.263795   8.579463   9.143982
    18  H    7.964342   5.977046   9.058748   9.348991   9.923692
    19  C    7.124925   4.822161   8.338114   8.623024   9.315746
    20  H    7.961109   5.647865   9.170200   9.412416  10.188296
    21  C    6.141481   3.694610   7.410599   7.728683   8.402979
    22  H    6.431565   3.959327   7.710795   7.997562   8.745817
    23  C    5.003608   2.519362   6.321591   6.930723   6.984851
    24  H    5.062253   2.743206   6.343976   7.037287   6.861261
    25  H    5.920298   3.352270   7.248970   7.817232   7.956380
    26  C    6.265279   4.330297   7.446334   8.122680   7.881817
    27  H    6.962817   4.796754   8.194599   8.829388   8.715404
    28  H    6.429638   4.582850   7.580606   8.332472   7.878254
    29  C    6.697496   5.181504   7.745013   8.390602   8.107518
    30  C    7.550369   6.522006   8.398885   8.876698   8.813800
    31  H    7.789740   6.875182   8.583879   8.971644   9.072315
    32  C    6.752335   5.377726   7.749754   8.270587   8.247770
    33  H    6.461250   4.945571   7.510248   7.960621   8.154135
    34  F    9.223943   8.558802   9.880797  10.385919  10.049665
    35  C    7.486532   6.228113   8.424653   9.132548   8.585034
    36  H    7.693981   6.405229   8.635965   9.404246   8.704724
    37  C    8.245584   7.268133   9.057778   9.717375   9.162040
    38  H    8.906127   8.039878   9.656569  10.345089   9.647964
    39  C    8.243990   7.356735   9.019423   9.572472   9.247019
    40  H    3.237782   1.920183   4.407487   5.202770   4.771640
    41  H    3.711459   5.597461   3.242458   4.025244   2.043962
    42  H    6.408174   4.813115   7.406994   7.808142   8.081228
    43  H    3.245682   3.946974   3.687986   4.637262   3.256641
    44  H    4.331325   2.622929   5.460560   5.988468   6.127913
                    6          7          8          9         10
     6  H    0.000000
     7  C    2.034665   0.000000
     8  C    3.250131   1.391634   0.000000
     9  C    3.661835   2.384350   1.384562   0.000000
    10  C    5.126030   3.763461   2.514608   1.469191   0.000000
    11  O    7.706016   6.267862   4.985703   4.228241   2.981233
    12  C    7.244180   6.121797   4.916449   3.747858   2.403239
    13  H    7.591059   6.637467   5.511517   4.269296   3.063338
    14  C    8.007054   6.959289   5.793827   4.651341   3.400407
    15  C    7.754123   6.685399   5.579962   4.592103   3.533156
    16  C    8.810672   7.821532   6.779243   5.853882   4.876979
    17  C    9.962789   9.030758   7.960904   6.938914   5.858380
    18  H   10.717581   9.821207   8.782791   7.796779   6.758077
    19  C   10.164912   9.241114   8.119186   6.985358   5.788218
    20  H   11.031490  10.146358   9.025048   7.866188   6.655729
    21  C    9.279745   8.315387   7.160124   5.978614   4.718727
    22  H    9.624856   8.686502   7.526227   6.309461   5.028390
    23  C    7.930665   6.508037   5.173627   4.288306   2.835981
    24  H    7.809389   6.236378   4.859799   4.157442   2.729825
    25  H    8.900602   7.496832   6.159958   5.263316   3.805799
    26  C    8.790759   7.209227   5.917362   5.390817   4.204059
    27  H    9.635678   8.090477   6.777181   6.155563   4.869095
    28  H    8.786502   7.058646   5.738385   5.396466   4.244304
    29  C    8.955362   7.459356   6.306176   5.898202   4.963953
    30  C    9.542151   8.403940   7.509790   7.068203   6.432157
    31  H    9.761159   8.794521   7.979451   7.461519   6.891619
    32  C    9.054985   7.806092   6.764596   6.200943   5.364535
    33  H    8.973788   7.839455   6.790003   6.047319   5.144423
    34  F   10.668737   9.533209   8.810392   8.670004   8.249104
    35  C    9.387205   7.784931   6.701477   6.565659   5.788134
    36  H    9.514878   7.784772   6.665377   6.651077   5.857238
    37  C    9.889668   8.415037   7.483454   7.421505   6.819099
    38  H   10.340331   8.824906   7.948270   8.026635   7.496941
    39  C    9.943077   8.684609   7.830376   7.617104   7.064967
    40  H    5.715978   4.106845   2.736446   2.114585   0.949837
    41  H    2.346364   0.950121   2.047025   3.250783   4.547791
    42  H    8.851664   7.877447   6.908817   6.111680   5.280110
    43  H    4.052179   2.048498   0.950484   2.041416   2.713566
    44  H    6.983291   5.848987   4.764359   3.884037   2.965299
                   11         12         13         14         15
    11  O    0.000000
    12  C    2.402534   0.000000
    13  H    2.573947   1.000054   0.000000
    14  C    3.727077   1.524323   2.055512   0.000000
    15  C    4.607320   2.546811   3.290739   1.386068   0.000000
    16  C    5.836828   3.798856   4.425873   2.387852   1.370147
    17  C    6.310944   4.284675   4.681208   2.763037   2.385775
    18  H    7.230559   5.235618   5.616674   3.714283   3.242344
    19  C    5.716559   3.779997   3.926586   2.397691   2.757966
    20  H    6.343417   4.531475   4.533915   3.256693   3.708002
    21  C    4.441377   2.512143   2.566654   1.401001   2.407825
    22  H    4.277990   2.655367   2.378530   2.051398   3.267525
    23  C    1.422679   1.510087   2.041982   2.466104   3.320531
    24  H    1.986916   2.065724   2.851958   2.694150   3.138379
    25  H    1.988098   2.066270   2.348040   2.608432   3.595460
    26  C    1.426492   3.679400   3.839874   4.806208   5.640102
    27  H    1.994368   3.867403   3.929328   4.799019   5.731850
    28  H    1.994052   4.044595   4.415090   5.043345   5.664771
    29  C    2.375956   4.754865   4.731874   6.051008   6.940592
    30  C    4.197361   6.260267   5.915559   7.671626   8.715586
    31  H    4.783757   6.636521   6.169569   8.047001   9.152499
    32  C    2.875198   4.973410   4.677534   6.346560   7.396225
    33  H    2.674529   4.440966   3.996118   5.784795   6.929241
    34  F    6.245051   8.444328   8.189929   9.876311  10.824642
    35  C    3.538384   5.937969   6.023843   7.206103   7.963145
    36  H    3.782977   6.120424   6.347180   7.288067   7.915818
    37  C    4.699657   7.076366   7.053343   8.420812   9.226781
    38  H    5.513622   7.896806   7.930244   9.220432   9.959609
    39  C    4.920888   7.171538   6.965511   8.580608   9.517939
    40  H    2.595794   2.577570   3.344316   3.559907   3.670570
    41  H    6.921405   6.940093   7.491039   7.770369   7.438623
    42  H    6.522761   4.557576   5.254337   3.244099   2.016832
    43  H    4.836664   5.055688   5.733567   5.926701   5.683117
    44  H    4.568449   2.711683   3.578735   2.035022   0.950584
                   16         17         18         19         20
    16  C    0.000000
    17  C    1.378812   0.000000
    18  H    2.028635   0.951259   0.000000
    19  C    2.381168   1.370827   2.022527   0.000000
    20  H    3.237872   2.018223   2.318434   0.950100   0.000000
    21  C    2.763183   2.388367   3.245955   1.377530   2.023083
    22  H    3.713319   3.246140   4.033289   2.031251   2.327903
    23  C    4.473885   4.924047   5.832900   4.408438   5.091782
    24  H    4.254299   4.890799   5.759179   4.631146   5.388888
    25  H    4.541033   4.730430   5.591500   4.048114   4.602559
    26  C    6.757536   7.148755   8.016412   6.528537   7.070854
    27  H    6.725536   6.934139   7.760686   6.203566   6.639322
    28  H    6.742626   7.243266   8.079358   6.784674   7.381875
    29  C    8.123610   8.522244   9.409936   7.833074   8.340816
    30  C    9.946465  10.259893  11.170526   9.408164   9.824319
    31  H   10.380339  10.640039  11.551605   9.724344  10.097264
    32  C    8.602438   8.903699   9.809983   8.071722   8.509621
    33  H    8.110343   8.328555   9.234022   7.422313   7.821224
    34  F   12.078220  12.471548  13.380371  11.677080  12.111447
    35  C    9.137583   9.618096  10.487426   9.019324   9.551161
    36  H    9.042581   9.577303  10.417024   9.082615   9.645207
    37  C   10.436782  10.907717  11.791408  10.253478  10.758261
    38  H   11.159452  11.670727  12.543179  11.064986  11.583408
    39  C   10.756705  11.151991  12.056550  10.382460  10.836466
    40  H    4.981797   5.960769   6.848983   5.903351   6.766701
    41  H    8.541965   9.788209  10.559149  10.048376  10.964766
    42  H    0.949501   2.026628   2.326691   3.237168   4.023007
    43  H    6.863668   8.057482   8.869750   8.238748   9.148788
    44  H    2.020269   3.243045   4.028389   3.708528   4.658539
                   21         22         23         24         25
    21  C    0.000000
    22  H    0.950169   0.000000
    23  C    3.219509   3.248621   0.000000
    24  H    3.626946   3.866917   0.989552   0.000000
    25  H    2.927409   2.814792   0.990571   1.604050   0.000000
    26  C    5.347802   5.120004   2.357008   2.646776   2.486238
    27  H    5.088705   4.766695   2.518610   2.914539   2.241326
    28  H    5.702363   5.615890   2.622602   2.530250   2.826005
    29  C    6.582310   6.246480   3.656496   4.018692   3.848422
    30  C    8.078587   7.562453   5.554790   6.125232   5.738904
    31  H    8.383331   7.804600   6.100239   6.756923   6.268596
    32  C    6.753800   6.273349   4.195528   4.797182   4.355271
    33  H    6.090206   5.544312   3.858553   4.610218   3.962695
    34  F   10.359409   9.876537   7.637200   8.052935   7.858611
    35  C    7.813237   7.536421   4.756217   4.906074   4.980359
    36  H    7.949180   7.762697   4.832015   4.795813   5.058059
    37  C    9.004620   8.659129   6.011679   6.232837   6.245064
    38  H    9.840245   9.527080   6.788264   6.919119   7.031342
    39  C    9.077036   8.627044   6.301515   6.708410   6.518454
    40  H    4.852689   5.160950   2.479653   2.136970   3.451142
    41  H    9.143050   9.529741   7.207269   6.863010   8.193191
    42  H    3.712664   4.662787   5.183691   4.830550   5.318733
    43  H    7.295128   7.671624   5.046027   4.599150   6.009219
    44  H    3.268211   4.060001   3.420775   3.069613   3.913082
                   26         27         28         29         30
    26  C    0.000000
    27  H    0.990777   0.000000
    28  H    0.989699   1.604525   0.000000
    29  C    1.489367   2.049988   2.048834   0.000000
    30  C    3.780139   4.114888   4.457984   2.413524   0.000000
    31  H    4.539566   4.810642   5.291856   3.271831   0.949982
    32  C    2.504786   2.833179   3.304155   1.389586   1.383780
    33  H    2.661598   2.837936   3.594825   2.033993   2.027764
    34  F    5.606046   5.994793   6.016965   4.117321   2.351759
    35  C    2.494629   3.047984   2.551564   1.383597   2.763963
    36  H    2.646064   3.198830   2.337690   2.026832   3.713519
    37  C    3.789377   4.276530   3.947493   2.424474   2.398695
    38  H    4.548718   5.035217   4.555375   3.283112   3.254896
    39  C    4.246431   4.659807   4.679074   2.757570   1.365275
    40  H    3.610231   4.313416   3.482108   4.465902   6.200709
    41  H    7.745154   8.657343   7.509737   7.935487   8.881860
    42  H    7.420685   7.443414   7.310696   8.793795  10.680338
    43  H    5.583869   6.463640   5.262661   6.000435   7.396864
    44  H    5.629641   5.875694   5.558046   6.874054   8.676327
                   31         32         33         34         35
    31  H    0.000000
    32  C    2.038601   0.000000
    33  H    2.335174   0.950367   0.000000
    34  F    2.540992   3.609665   4.371345   0.000000
    35  C    3.713795   2.384252   3.243368   3.613549   0.000000
    36  H    4.663302   3.243011   4.033110   4.375932   0.949590
    37  C    3.251982   2.770784   3.720926   2.340818   1.401675
    38  H    4.036500   3.720920   4.670998   2.530461   2.058200
    39  C    2.021296   2.366558   3.223505   1.359785   2.375329
    40  H    6.772662   5.091887   4.994528   7.939411   5.181565
    41  H    9.307765   8.355033   8.475008   9.820718   8.111760
    42  H   11.144599   9.344250   8.899038  12.755910   9.734429
    43  H    7.962806   6.635164   6.763256   8.597833   6.256149
    44  H    9.148356   7.398001   7.013801  10.688084   7.801871
                   36         37         38         39         40
    36  H    0.000000
    37  C    2.044085   0.000000
    38  H    2.357905   0.950170   0.000000
    39  C    3.233556   1.369600   2.030470   0.000000
    40  H    5.135769   6.302581   6.933648   6.709669   0.000000
    41  H    8.045587   8.683015   9.000002   9.031826   4.760690
    42  H    9.575801  11.047779  11.730837  11.433395   5.368324
    43  H    6.103751   7.087767   7.484940   7.590018   2.594980
    44  H    7.711191   9.049648   9.739080   9.397812   3.109430
                   41         42         43         44
    41  H    0.000000
    42  H    8.540102   0.000000
    43  H    2.364308   6.971419   0.000000
    44  H    6.568977   2.315062   4.857452   0.000000
 Stoichiometry    C21H19FN2O
 Framework group  C1[X(C21H19FN2O)]
 Deg. of freedom   126
 Full point group                 C1      NOp   1
 Largest Abelian subgroup         C1      NOp   1
 Largest concise Abelian subgroup C1      NOp   1
                         Standard orientation:                         
 ---------------------------------------------------------------------
 Center     Atomic      Atomic             Coordinates (Angstroms)
 Number     Number       Type             X           Y           Z
 ---------------------------------------------------------------------
      1          7           0       -1.768941    3.066089   -1.009084
      2          7           0       -1.649869    0.455648   -0.558797
      3          6           0       -1.903166    4.375551   -1.250729
      4          1           0       -2.242864    4.658977   -2.090727
      5          6           0       -1.563784    5.310921   -0.322799
      6          1           0       -1.687923    6.232827   -0.511833
      7          6           0       -1.037798    4.921188    0.901250
      8          6           0       -0.888063    3.561675    1.158054
      9          6           0       -1.273710    2.660854    0.179887
     10          6           0       -1.181752    1.203013    0.337252
     11          8           0        0.784213   -1.032784    0.182518
     12          6           0       -1.505497   -1.008981   -0.544693
     13          1           0       -1.187913   -1.283111   -1.452493
     14          6           0       -2.851243   -1.686805   -0.314296
     15          6           0       -3.808129   -1.152112    0.534030
     16          6           0       -4.964594   -1.842201    0.786357
     17          6           0       -5.189745   -3.067405    0.195338
     18          1           0       -5.994539   -3.541157    0.376329
     19          6           0       -4.253905   -3.601885   -0.651834
     20          1           0       -4.418068   -4.441118   -1.065872
     21          6           0       -3.077807   -2.933513   -0.911951
     22          1           0       -2.425766   -3.313822   -1.489039
     23          6           0       -0.512486   -1.550310    0.455934
     24          1           0       -0.786692   -1.292395    1.371086
     25          1           0       -0.493581   -2.539425    0.405697
     26          6           0        1.790045   -1.710193    0.933717
     27          1           0        1.707447   -2.688642    0.801612
     28          1           0        1.677837   -1.517474    1.897964
     29          6           0        3.131561   -1.249740    0.479258
     30          6           0        4.706319   -0.806534   -1.295228
     31          1           0        4.910637   -0.754039   -2.221492
     32          6           0        3.452943   -1.212603   -0.872143
     33          1           0        2.803280   -1.471065   -1.515830
     34          9           0        6.887893   -0.108688   -0.761828
     35          6           0        4.103806   -0.902879    1.400544
     36          1           0        3.898582   -0.926973    2.327379
     37          6           0        5.385461   -0.514553    0.986713
     38          1           0        6.053680   -0.281891    1.620885
     39          6           0        5.644171   -0.481446   -0.357823
     40          1           0       -0.771242    0.828193    1.107435
     41          1           0       -0.785196    5.568297    1.549456
     42          1           0       -5.613848   -1.473457    1.372914
     43          1           0       -0.530997    3.258410    1.985070
     44          1           0       -3.661674   -0.306074    0.941928
 ---------------------------------------------------------------------
 Rotational constants (GHZ):           0.2226882           0.1171195           0.0825977
 Leave Link  202 at Sat Mar  4 11:42:55 2023, MaxMem=  1048576000 cpu:               0.0 elap:               0.0
 (Enter /ssoft/spack/external/gaussian/g16-C.01/avx2/g16/l301.exe)
 Standard basis: def2SVP (5D, 7F)
 Ernie: Thresh=  0.10000D-02 Tol=  0.10000D-05 Strict=F.
 There are   470 symmetry adapted cartesian basis functions of A   symmetry.
 There are   445 symmetry adapted basis functions of A   symmetry.
   445 basis functions,   758 primitive gaussians,   470 cartesian basis functions
    88 alpha electrons       88 beta electrons
       nuclear repulsion energy      1961.1375508491 Hartrees.
 IExCor= 1009 DFT=T Ex+Corr=PBE1PBE ExCW=0 ScaHFX=  0.250000
 ScaDFX=  0.750000  0.750000  1.000000  1.000000 ScalE2=  1.000000  1.000000
 IRadAn=      5 IRanWt=     -1 IRanGd=            0 ICorTp=0 IEmpDi=141
 NAtoms=   44 NActive=   44 NUniq=   44 SFac= 1.00D+00 NAtFMM=   60 NAOKFM=F Big=F
 Integral buffers will be    131072 words long.
 Raffenetti 2 integral format.
 Two-electron integral symmetry is turned on.
 R6Disp:  Grimme-D3(BJ) Dispersion energy=       -0.0487239539 Hartrees.
 Nuclear repulsion after empirical dispersion term =     1961.0888268952 Hartrees.
 Leave Link  301 at Sat Mar  4 11:42:55 2023, MaxMem=  1048576000 cpu:               0.0 elap:               0.0
 (Enter /ssoft/spack/external/gaussian/g16-C.01/avx2/g16/l302.exe)
 NPDir=0 NMtPBC=     1 NCelOv=     1 NCel=       1 NClECP=     1 NCelD=      1
         NCelK=      1 NCelE2=     1 NClLst=     1 CellRange=     0.0.
 One-electron integrals computed using PRISM.
 One-electron integral symmetry used in STVInt
   1 Symmetry operations used in ECPInt.
 ECPInt:  NShTT=   21528 NPrTT=   78592 LenC2=   17816 LenP2D=   43556.
 LDataN:  DoStor=T MaxTD1= 4 Len=   56
 NBasis=   445 RedAO= T EigKep=  2.61D-04  NBF=   445
 NBsUse=   445 1.00D-06 EigRej= -1.00D+00 NBFU=   445
 Precomputing XC quadrature grid using
 IXCGrd= 4 IRadAn=           5 IRanWt=          -1 IRanGd=           0 AccXCQ= 0.00D+00.
 Generated NRdTot=       0 NPtTot=           0 NUsed=           0 NTot=          32
 NSgBfM=   453   453   453   453   453 MxSgAt=    44 MxSgA2=    44.
 Leave Link  302 at Sat Mar  4 11:42:57 2023, MaxMem=  1048576000 cpu:               1.5 elap:               1.5
 (Enter /ssoft/spack/external/gaussian/g16-C.01/avx2/g16/l303.exe)
 DipDrv:  MaxL=1.
 Leave Link  303 at Sat Mar  4 11:42:57 2023, MaxMem=  1048576000 cpu:               0.1 elap:               0.1
 (Enter /ssoft/spack/external/gaussian/g16-C.01/avx2/g16/l401.exe)
 ExpMin= 1.22D-01 ExpMax= 2.89D+03 ExpMxC= 4.35D+02 IAcc=3 IRadAn=         5 AccDes= 0.00D+00
 Harris functional with IExCor= 1009 and IRadAn=       5 diagonalized for initial guess.
 HarFok:  IExCor= 1009 AccDes= 0.00D+00 IRadAn=         5 IDoV= 1 UseB2=F ITyADJ=14
 ICtDFT=  3500011 ScaDFX=  1.000000  1.000000  1.000000  1.000000
 FoFCou: FMM=F IPFlag=           0 FMFlag=      100000 FMFlg1=           0
         NFxFlg=           0 DoJE=T BraDBF=F KetDBF=T FulRan=T
         wScrn=  0.000000 ICntrl=       500 IOpCl=  0 I1Cent=   200000004 NGrid=           0
         NMat0=    1 NMatS0=      1 NMatT0=    0 NMatD0=    1 NMtDS0=    0 NMtDT0=    0
 Petite list used in FoFCou.
 Harris En= -1094.25587012748    
 JPrj=0 DoOrth=F DoCkMO=F.
 Leave Link  401 at Sat Mar  4 11:43:08 2023, MaxMem=  1048576000 cpu:              11.4 elap:              11.4
 (Enter /ssoft/spack/external/gaussian/g16-C.01/avx2/g16/l502.exe)
 Integral symmetry usage will be decided dynamically.
 Closed shell SCF:
 Using DIIS extrapolation, IDIIS=  1040.
 NGot=  1048576000 LenX=  1048125366 LenY=  1047903996
 Requested convergence on RMS density matrix=1.00D-08 within 128 cycles.
 Requested convergence on MAX density matrix=1.00D-06.
 Requested convergence on             energy=1.00D-06.
 No special actions if energy rises.
 Fock matrices will be formed incrementally for  20 cycles.
 Integral accuracy reduced to 1.0D-05 until final iterations.

 Cycle   1  Pass 0  IDiag  1:
 FoFJK:  IHMeth= 1 ICntrl=       0 DoSepK=F KAlg= 0 I1Cent=           0 FoldK=F
 IRaf= 740000000 NMat=       1 IRICut=       1 DoRegI=T DoRafI=F ISym2E= 0 IDoP0=0 IntGTp=1.
 FoFCou: FMM=F IPFlag=           0 FMFlag=      100000 FMFlg1=           0
         NFxFlg=           0 DoJE=F BraDBF=F KetDBF=F FulRan=T
         wScrn=  0.000000 ICntrl=         0 IOpCl=  0 I1Cent=           0 NGrid=           0
         NMat0=    1 NMatS0=      1 NMatT0=    0 NMatD0=    1 NMtDS0=    0 NMtDT0=    0
 Symmetry not used in FoFCou.
 E= -1093.44966305212    
 DIIS: error= 3.53D-02 at cycle   1 NSaved=   1.
 NSaved= 1 IEnMin= 1 EnMin= -1093.44966305212     IErMin= 1 ErrMin= 3.53D-02
 ErrMax= 3.53D-02  0.00D+00 EMaxC= 1.00D-01 BMatC= 3.86D-01 BMatP= 3.86D-01
 IDIUse=3 WtCom= 6.47D-01 WtEn= 3.53D-01
 Coeff-Com:  0.100D+01
 Coeff-En:   0.100D+01
 Coeff:      0.100D+01
 Gap=     0.198 Goal=   None    Shift=    0.000
 GapD=    0.198 DampG=1.000 DampE=0.500 DampFc=0.5000 IDamp=-1.
 Damping current iteration by 5.00D-01
 RMSDP=3.95D-03 MaxDP=1.02D-01              OVMax= 1.60D-01

 Cycle   2  Pass 0  IDiag  1:
 RMSU=  1.83D-03    CP:  9.58D-01
 E= -1093.67463991513     Delta-E=       -0.224976863017 Rises=F Damp=T
 DIIS: error= 5.31D-03 at cycle   2 NSaved=   2.
 NSaved= 2 IEnMin= 2 EnMin= -1093.67463991513     IErMin= 2 ErrMin= 5.31D-03
 ErrMax= 5.31D-03  0.00D+00 EMaxC= 1.00D-01 BMatC= 2.73D-02 BMatP= 3.86D-01
 IDIUse=3 WtCom= 9.47D-01 WtEn= 5.31D-02
 Coeff-Com: -0.815D-01 0.108D+01
 Coeff-En:   0.000D+00 0.100D+01
 Coeff:     -0.771D-01 0.108D+01
 Gap=     0.213 Goal=   None    Shift=    0.000
 RMSDP=1.33D-03 MaxDP=4.77D-02 DE=-2.25D-01 OVMax= 1.38D-01

 Cycle   3  Pass 0  IDiag  1:
 RMSU=  1.15D-03    CP:  9.34D-01  1.29D+00
 E= -1093.87327769759     Delta-E=       -0.198637782456 Rises=F Damp=F
 DIIS: error= 4.57D-03 at cycle   3 NSaved=   3.
 NSaved= 3 IEnMin= 3 EnMin= -1093.87327769759     IErMin= 3 ErrMin= 4.57D-03
 ErrMax= 4.57D-03  0.00D+00 EMaxC= 1.00D-01 BMatC= 2.05D-02 BMatP= 2.73D-02
 IDIUse=3 WtCom= 9.54D-01 WtEn= 4.57D-02
 Coeff-Com: -0.906D-01 0.537D+00 0.554D+00
 Coeff-En:   0.000D+00 0.000D+00 0.100D+01
 Coeff:     -0.865D-01 0.512D+00 0.574D+00
 Gap=     0.194 Goal=   None    Shift=    0.000
 RMSDP=5.66D-04 MaxDP=2.83D-02 DE=-1.99D-01 OVMax= 5.28D-02

 Cycle   4  Pass 0  IDiag  1:
 RMSU=  4.24D-04    CP:  9.33D-01  1.32D+00  6.78D-01
 E= -1093.89079283210     Delta-E=       -0.017515134509 Rises=F Damp=F
 DIIS: error= 2.65D-03 at cycle   4 NSaved=   4.
 NSaved= 4 IEnMin= 4 EnMin= -1093.89079283210     IErMin= 4 ErrMin= 2.65D-03
 ErrMax= 2.65D-03  0.00D+00 EMaxC= 1.00D-01 BMatC= 4.02D-03 BMatP= 2.05D-02
 IDIUse=3 WtCom= 9.73D-01 WtEn= 2.65D-02
 Coeff-Com: -0.353D-01 0.156D+00 0.334D+00 0.546D+00
 Coeff-En:   0.000D+00 0.000D+00 0.178D+00 0.822D+00
 Coeff:     -0.344D-01 0.152D+00 0.330D+00 0.553D+00
 Gap=     0.190 Goal=   None    Shift=    0.000
 RMSDP=2.11D-04 MaxDP=8.51D-03 DE=-1.75D-02 OVMax= 2.40D-02

 Cycle   5  Pass 0  IDiag  1:
 RMSU=  1.14D-04    CP:  9.32D-01  1.33D+00  7.61D-01  6.52D-01
 E= -1093.89499176615     Delta-E=       -0.004198934049 Rises=F Damp=F
 DIIS: error= 7.01D-04 at cycle   5 NSaved=   5.
 NSaved= 5 IEnMin= 5 EnMin= -1093.89499176615     IErMin= 5 ErrMin= 7.01D-04
 ErrMax= 7.01D-04  0.00D+00 EMaxC= 1.00D-01 BMatC= 2.92D-04 BMatP= 4.02D-03
 IDIUse=3 WtCom= 9.93D-01 WtEn= 7.01D-03
 Coeff-Com: -0.114D-01 0.396D-01 0.132D+00 0.298D+00 0.542D+00
 Coeff-En:   0.000D+00 0.000D+00 0.000D+00 0.000D+00 0.100D+01
 Coeff:     -0.114D-01 0.393D-01 0.131D+00 0.296D+00 0.546D+00
 Gap=     0.190 Goal=   None    Shift=    0.000
 RMSDP=5.06D-05 MaxDP=3.26D-03 DE=-4.20D-03 OVMax= 6.70D-03

 Cycle   6  Pass 0  IDiag  1:
 RMSU=  3.64D-05    CP:  9.32D-01  1.33D+00  7.59D-01  6.92D-01  7.31D-01
 E= -1093.89524848155     Delta-E=       -0.000256715399 Rises=F Damp=F
 DIIS: error= 2.40D-04 at cycle   6 NSaved=   6.
 NSaved= 6 IEnMin= 6 EnMin= -1093.89524848155     IErMin= 6 ErrMin= 2.40D-04
 ErrMax= 2.40D-04  0.00D+00 EMaxC= 1.00D-01 BMatC= 2.92D-05 BMatP= 2.92D-04
 IDIUse=3 WtCom= 9.98D-01 WtEn= 2.40D-03
 Coeff-Com: -0.258D-02 0.545D-02 0.363D-01 0.103D+00 0.297D+00 0.561D+00
 Coeff-En:   0.000D+00 0.000D+00 0.000D+00 0.000D+00 0.195D-01 0.980D+00
 Coeff:     -0.257D-02 0.544D-02 0.362D-01 0.103D+00 0.296D+00 0.562D+00
 Gap=     0.190 Goal=   None    Shift=    0.000
 RMSDP=1.74D-05 MaxDP=1.07D-03 DE=-2.57D-04 OVMax= 1.78D-03

 Cycle   7  Pass 0  IDiag  1:
 RMSU=  9.59D-06    CP:  9.32D-01  1.33D+00  7.61D-01  6.90D-01  7.33D-01
                    CP:  6.11D-01
 E= -1093.89527239745     Delta-E=       -0.000023915899 Rises=F Damp=F
 DIIS: error= 7.33D-05 at cycle   7 NSaved=   7.
 NSaved= 7 IEnMin= 7 EnMin= -1093.89527239745     IErMin= 7 ErrMin= 7.33D-05
 ErrMax= 7.33D-05  0.00D+00 EMaxC= 1.00D-01 BMatC= 3.30D-06 BMatP= 2.92D-05
 IDIUse=1 WtCom= 1.00D+00 WtEn= 0.00D+00
 Coeff-Com: -0.874D-03 0.954D-03 0.141D-01 0.439D-01 0.145D+00 0.342D+00
 Coeff-Com:  0.455D+00
 Coeff:     -0.874D-03 0.954D-03 0.141D-01 0.439D-01 0.145D+00 0.342D+00
 Coeff:      0.455D+00
 Gap=     0.190 Goal=   None    Shift=    0.000
 RMSDP=5.96D-06 MaxDP=2.88D-04 DE=-2.39D-05 OVMax= 4.65D-04

 Initial convergence to 1.0D-05 achieved.  Increase integral accuracy.
 Cycle   8  Pass 1  IDiag  1:
 E= -1093.89525030390     Delta-E=        0.000022093544 Rises=F Damp=F
 DIIS: error= 8.25D-05 at cycle   1 NSaved=   1.
 NSaved= 1 IEnMin= 1 EnMin= -1093.89525030390     IErMin= 1 ErrMin= 8.25D-05
 ErrMax= 8.25D-05  0.00D+00 EMaxC= 1.00D-01 BMatC= 3.45D-06 BMatP= 3.45D-06
 IDIUse=1 WtCom= 1.00D+00 WtEn= 0.00D+00
 Coeff-Com:  0.100D+01
 Coeff:      0.100D+01
 Gap=     0.190 Goal=   None    Shift=    0.000
 RMSDP=5.96D-06 MaxDP=2.88D-04 DE= 2.21D-05 OVMax= 3.52D-04

 Cycle   9  Pass 1  IDiag  1:
 RMSU=  1.14D-04    CP:  1.00D+00
 E= -1093.89525392849     Delta-E=       -0.000003624591 Rises=F Damp=F
 DIIS: error= 2.40D-05 at cycle   2 NSaved=   2.
 NSaved= 2 IEnMin= 2 EnMin= -1093.89525392849     IErMin= 2 ErrMin= 2.40D-05
 ErrMax= 2.40D-05  0.00D+00 EMaxC= 1.00D-01 BMatC= 5.19D-07 BMatP= 3.45D-06
 IDIUse=1 WtCom= 1.00D+00 WtEn= 0.00D+00
 Coeff-Com:  0.169D+00 0.831D+00
 Coeff:      0.169D+00 0.831D+00
 Gap=     0.190 Goal=   None    Shift=    0.000
 RMSDP=4.92D-06 MaxDP=3.14D-04 DE=-3.62D-06 OVMax= 4.18D-04

 Cycle  10  Pass 1  IDiag  1:
 RMSU=  4.73D-06    CP:  1.00D+00  1.01D+00
 E= -1093.89525333135     Delta-E=        0.000000597143 Rises=F Damp=F
 DIIS: error= 3.65D-05 at cycle   3 NSaved=   3.
 NSaved= 3 IEnMin= 2 EnMin= -1093.89525392849     IErMin= 2 ErrMin= 2.40D-05
 ErrMax= 3.65D-05  0.00D+00 EMaxC= 1.00D-01 BMatC= 1.14D-06 BMatP= 5.19D-07
 IDIUse=1 WtCom= 1.00D+00 WtEn= 0.00D+00
 Coeff-Com: -0.419D-02 0.599D+00 0.405D+00
 Coeff:     -0.419D-02 0.599D+00 0.405D+00
 Gap=     0.190 Goal=   None    Shift=    0.000
 RMSDP=2.95D-06 MaxDP=2.01D-04 DE= 5.97D-07 OVMax= 2.66D-04

 Cycle  11  Pass 1  IDiag  1:
 RMSU=  6.38D-07    CP:  1.00D+00  1.02D+00  3.99D-01
 E= -1093.89525441517     Delta-E=       -0.000001083819 Rises=F Damp=F
 DIIS: error= 5.97D-06 at cycle   4 NSaved=   4.
 NSaved= 4 IEnMin= 4 EnMin= -1093.89525441517     IErMin= 4 ErrMin= 5.97D-06
 ErrMax= 5.97D-06  0.00D+00 EMaxC= 1.00D-01 BMatC= 1.18D-08 BMatP= 5.19D-07
 IDIUse=1 WtCom= 1.00D+00 WtEn= 0.00D+00
 Coeff-Com: -0.505D-02 0.348D+00 0.242D+00 0.415D+00
 Coeff:     -0.505D-02 0.348D+00 0.242D+00 0.415D+00
 Gap=     0.190 Goal=   None    Shift=    0.000
 RMSDP=2.78D-07 MaxDP=1.18D-05 DE=-1.08D-06 OVMax= 1.80D-05

 Cycle  12  Pass 1  IDiag  1:
 RMSU=  1.91D-07    CP:  1.00D+00  1.02D+00  4.12D-01  7.01D-01
 E= -1093.89525442523     Delta-E=       -0.000000010062 Rises=F Damp=F
 DIIS: error= 4.89D-07 at cycle   5 NSaved=   5.
 NSaved= 5 IEnMin= 5 EnMin= -1093.89525442523     IErMin= 5 ErrMin= 4.89D-07
 ErrMax= 4.89D-07  0.00D+00 EMaxC= 1.00D-01 BMatC= 1.32D-10 BMatP= 1.18D-08
 IDIUse=1 WtCom= 1.00D+00 WtEn= 0.00D+00
 Coeff-Com: -0.217D-02 0.140D+00 0.980D-01 0.188D+00 0.576D+00
 Coeff:     -0.217D-02 0.140D+00 0.980D-01 0.188D+00 0.576D+00
 Gap=     0.190 Goal=   None    Shift=    0.000
 RMSDP=4.64D-08 MaxDP=2.18D-06 DE=-1.01D-08 OVMax= 3.97D-06

 Cycle  13  Pass 1  IDiag  1:
 RMSU=  4.41D-08    CP:  1.00D+00  1.02D+00  4.12D-01  7.03D-01  9.35D-01
 E= -1093.89525442537     Delta-E=       -0.000000000136 Rises=F Damp=F
 DIIS: error= 1.92D-07 at cycle   6 NSaved=   6.
 NSaved= 6 IEnMin= 6 EnMin= -1093.89525442537     IErMin= 6 ErrMin= 1.92D-07
 ErrMax= 1.92D-07  0.00D+00 EMaxC= 1.00D-01 BMatC= 2.07D-11 BMatP= 1.32D-10
 IDIUse=1 WtCom= 1.00D+00 WtEn= 0.00D+00
 Coeff-Com: -0.595D-03 0.362D-01 0.253D-01 0.530D-01 0.307D+00 0.579D+00
 Coeff:     -0.595D-03 0.362D-01 0.253D-01 0.530D-01 0.307D+00 0.579D+00
 Gap=     0.190 Goal=   None    Shift=    0.000
 RMSDP=1.65D-08 MaxDP=9.51D-07 DE=-1.36D-10 OVMax= 1.87D-06

 Cycle  14  Pass 1  IDiag  1:
 RMSU=  1.22D-08    CP:  1.00D+00  1.02D+00  4.12D-01  7.06D-01  9.64D-01
                    CP:  7.90D-01
 E= -1093.89525442537     Delta-E=       -0.000000000001 Rises=F Damp=F
 DIIS: error= 7.51D-08 at cycle   7 NSaved=   7.
 NSaved= 7 IEnMin= 7 EnMin= -1093.89525442537     IErMin= 7 ErrMin= 7.51D-08
 ErrMax= 7.51D-08  0.00D+00 EMaxC= 1.00D-01 BMatC= 2.43D-12 BMatP= 2.07D-11
 IDIUse=1 WtCom= 1.00D+00 WtEn= 0.00D+00
 Coeff-Com:  0.230D-04-0.266D-02-0.191D-02-0.208D-02 0.691D-01 0.301D+00
 Coeff-Com:  0.637D+00
 Coeff:      0.230D-04-0.266D-02-0.191D-02-0.208D-02 0.691D-01 0.301D+00
 Coeff:      0.637D+00
 Gap=     0.190 Goal=   None    Shift=    0.000
 RMSDP=5.72D-09 MaxDP=1.63D-07 DE=-1.36D-12 OVMax= 6.06D-07

 SCF Done:  E(RPBE1PBE) =  -1093.89525443     A.U. after   14 cycles
            NFock= 14  Conv=0.57D-08     -V/T= 2.0051
 KE= 1.088323866241D+03 PE=-6.470694889159D+03 EE= 2.327386941598D+03
 Leave Link  502 at Sat Mar  4 11:49:12 2023, MaxMem=  1048576000 cpu:             362.4 elap:             364.4
 (Enter /ssoft/spack/external/gaussian/g16-C.01/avx2/g16/l801.exe)
 DoSCS=F DFT=T ScalE2(SS,OS)=  1.000000  1.000000
 Range of M.O.s used for correlation:     1   445
 NBasis=   445 NAE=    88 NBE=    88 NFC=     0 NFV=     0
 NROrb=    445 NOA=    88 NOB=    88 NVA=   357 NVB=   357

 **** Warning!!: The largest alpha MO coefficient is  0.13577479D+02

 Leave Link  801 at Sat Mar  4 11:49:13 2023, MaxMem=  1048576000 cpu:               0.0 elap:               0.0
 (Enter /ssoft/spack/external/gaussian/g16-C.01/avx2/g16/l1101.exe)
 Using compressed storage, NAtomX=    44.
 Will process     45 centers per pass.
   1 Symmetry operations used in ECPInt.
 ECPInt:  NShTT=   21528 NPrTT=   78592 LenC2=   17816 LenP2D=   43556.
 LDataN:  DoStor=T MaxTD1= 5 Len=  102
 R6Disp: Adding Grimme-D3(BJ) dispersion energy 1st derivatives to the gradient.
 Leave Link 1101 at Sat Mar  4 11:49:14 2023, MaxMem=  1048576000 cpu:               0.8 elap:               1.0
 (Enter /ssoft/spack/external/gaussian/g16-C.01/avx2/g16/l1102.exe)
 Symmetrizing basis deriv contribution to polar:
 IMax=3 JMax=2 DiffMx= 0.00D+00
 Leave Link 1102 at Sat Mar  4 11:49:14 2023, MaxMem=  1048576000 cpu:               0.1 elap:               0.1
 (Enter /ssoft/spack/external/gaussian/g16-C.01/avx2/g16/l1110.exe)
 Forming Gx(P) for the SCF density, NAtomX=    44.
 Integral derivatives from FoFJK, PRISM(SPDF).
 Do as many integral derivatives as possible in FoFJK.
 G2DrvN: MDV=    1048571332.
 G2DrvN: will do    45 centers at a time, making    1 passes.
 Calling FoFCou, ICntrl=  3107 FMM=F I1Cent=   0 AccDes= 0.00D+00.
 FoFJK:  IHMeth= 1 ICntrl=    3107 DoSepK=F KAlg= 0 I1Cent=           0 FoldK=F
 IRaf=         0 NMat=       1 IRICut=       1 DoRegI=T DoRafI=F ISym2E= 0 IDoP0=0 IntGTp=1.
 FoFCou: FMM=F IPFlag=           0 FMFlag=      100000 FMFlg1=           0
         NFxFlg=           0 DoJE=F BraDBF=F KetDBF=F FulRan=T
         wScrn=  0.000000 ICntrl=      3107 IOpCl=  0 I1Cent=           0 NGrid=           0
         NMat0=    1 NMatS0=      1 NMatT0=    0 NMatD0=    1 NMtDS0=    0 NMtDT0=    0
 Symmetry not used in FoFCou.
 End of G2Drv F.D. properties file   721 does not exist.
 End of G2Drv F.D. properties file   722 does not exist.
 End of G2Drv F.D. properties file   788 does not exist.
 Leave Link 1110 at Sat Mar  4 12:07:23 2023, MaxMem=  1048576000 cpu:            1084.1 elap:            1088.9
 (Enter /ssoft/spack/external/gaussian/g16-C.01/avx2/g16/l1002.exe)
 Minotr:  Closed shell wavefunction.
          IDoAtm=11111111111111111111111111111111111111111111
          Direct CPHF calculation.
          Differentiating once with respect to electric field.
                with respect to dipole field.
          Differentiating once with respect to nuclear coordinates.
          Requested convergence is 1.0D-08 RMS, and 1.0D-07 maximum.
          Secondary convergence is 1.0D-12 RMS, and 1.0D-12 maximum.
          NewPWx=T KeepS1=F KeepF1=F KeepIn=T MapXYZ=F SortEE=F KeepMc=T.
        13365 words used for storage of precomputed grid.
 Two-electron integrals replicated using symmetry.
          MDV=    1048576000 using IRadAn=       1.
          Solving linear equations simultaneously, MaxMat=     384.
 FoF2E skips out because all densities are zero.
 CalDSu exits because no D1Ps are significant.
 FoFJK:  IHMeth= 1 ICntrl=       0 DoSepK=F KAlg= 0 I1Cent=           0 FoldK=F
 IRaf= 710000000 NMat=     132 IRICut=     330 DoRegI=T DoRafI=T ISym2E= 2 IDoP0=3 IntGTp=3.
 FoFCou: FMM=F IPFlag=           0 FMFlag=      100000 FMFlg1=           0
         NFxFlg=           0 DoJE=F BraDBF=F KetDBF=F FulRan=T
         wScrn=  0.000000 ICntrl=         0 IOpCl=  0 I1Cent=           0 NGrid=           0
         NMat0=  132 NMatS0=    132 NMatT0=    0 NMatD0=  132 NMtDS0=    0 NMtDT0=    0
 Integrals replicated using symmetry in FoFCou.
 Raff kept on since  64.99% of shell-pairs survive, threshold=   0.20 IRatSp=65.
          There are   135 degrees of freedom in the 1st order CPHF.  IDoFFX=6 NUNeed=     3.
    132 vectors produced by pass  0 Test12= 3.14D-14 1.00D-09 XBig12= 2.20D+02 5.04D+00.
 AX will form   132 AO Fock derivatives at one time.
    132 vectors produced by pass  1 Test12= 3.14D-14 1.00D-09 XBig12= 4.09D+01 1.16D+00.
    132 vectors produced by pass  2 Test12= 3.14D-14 1.00D-09 XBig12= 2.88D-01 4.57D-02.
    132 vectors produced by pass  3 Test12= 3.14D-14 1.00D-09 XBig12= 1.48D-03 4.47D-03.
    132 vectors produced by pass  4 Test12= 3.14D-14 1.00D-09 XBig12= 4.95D-06 1.58D-04.
    124 vectors produced by pass  5 Test12= 3.14D-14 1.00D-09 XBig12= 6.41D-09 7.09D-06.
     32 vectors produced by pass  6 Test12= 3.14D-14 1.00D-09 XBig12= 7.32D-12 2.47D-07.
      3 vectors produced by pass  7 Test12= 3.14D-14 1.00D-09 XBig12= 7.44D-15 7.53D-09.
      2 vectors produced by pass  8 Test12= 3.14D-14 1.00D-09 XBig12= 8.58D-16 1.97D-09.
 InvSVY:  IOpt=1 It=  1 EMax= 1.60D-14
 Solved reduced A of dimension   821 with   135 vectors.
 FullF1:  Do perturbations      1 to       3.
 Isotropic polarizability for W=    0.000000      219.40 Bohr**3.
 End of Minotr F.D. properties file   721 does not exist.
 End of Minotr F.D. properties file   722 does not exist.
 End of Minotr F.D. properties file   788 does not exist.
 Leave Link 1002 at Sat Mar  4 12:50:44 2023, MaxMem=  1048576000 cpu:            2587.4 elap:            2600.9
 (Enter /ssoft/spack/external/gaussian/g16-C.01/avx2/g16/l601.exe)
 Copying SCF densities to generalized density rwf, IOpCl= 0 IROHF=0.

 **********************************************************************

            Population analysis using the SCF Density.

 **********************************************************************

 Orbital symmetries:
       Occupied  (A) (A) (A) (A) (A) (A) (A) (A) (A) (A) (A) (A)
                 (A) (A) (A) (A) (A) (A) (A) (A) (A) (A) (A) (A)
                 (A) (A) (A) (A) (A) (A) (A) (A) (A) (A) (A) (A)
                 (A) (A) (A) (A) (A) (A) (A) (A) (A) (A) (A) (A)
                 (A) (A) (A) (A) (A) (A) (A) (A) (A) (A) (A) (A)
                 (A) (A) (A) (A) (A) (A) (A) (A) (A) (A) (A) (A)
                 (A) (A) (A) (A) (A) (A) (A) (A) (A) (A) (A) (A)
                 (A) (A) (A) (A)
       Virtual   (A) (A) (A) (A) (A) (A) (A) (A) (A) (A) (A) (A)
                 (A) (A) (A) (A) (A) (A) (A) (A) (A) (A) (A) (A)
                 (A) (A) (A) (A) (A) (A) (A) (A) (A) (A) (A) (A)
                 (A) (A) (A) (A) (A) (A) (A) (A) (A) (A) (A) (A)
                 (A) (A) (A) (A) (A) (A) (A) (A) (A) (A) (A) (A)
                 (A) (A) (A) (A) (A) (A) (A) (A) (A) (A) (A) (A)
                 (A) (A) (A) (A) (A) (A) (A) (A) (A) (A) (A) (A)
                 (A) (A) (A) (A) (A) (A) (A) (A) (A) (A) (A) (A)
                 (A) (A) (A) (A) (A) (A) (A) (A) (A) (A) (A) (A)
                 (A) (A) (A) (A) (A) (A) (A) (A) (A) (A) (A) (A)
                 (A) (A) (A) (A) (A) (A) (A) (A) (A) (A) (A) (A)
                 (A) (A) (A) (A) (A) (A) (A) (A) (A) (A) (A) (A)
                 (A) (A) (A) (A) (A) (A) (A) (A) (A) (A) (A) (A)
                 (A) (A) (A) (A) (A) (A) (A) (A) (A) (A) (A) (A)
                 (A) (A) (A) (A) (A) (A) (A) (A) (A) (A) (A) (A)
                 (A) (A) (A) (A) (A) (A) (A) (A) (A) (A) (A) (A)
                 (A) (A) (A) (A) (A) (A) (A) (A) (A) (A) (A) (A)
                 (A) (A) (A) (A) (A) (A) (A) (A) (A) (A) (A) (A)
                 (A) (A) (A) (A) (A) (A) (A) (A) (A) (A) (A) (A)
                 (A) (A) (A) (A) (A) (A) (A) (A) (A) (A) (A) (A)
                 (A) (A) (A) (A) (A) (A) (A) (A) (A) (A) (A) (A)
                 (A) (A) (A) (A) (A) (A) (A) (A) (A) (A) (A) (A)
                 (A) (A) (A) (A) (A) (A) (A) (A) (A) (A) (A) (A)
                 (A) (A) (A) (A) (A) (A) (A) (A) (A) (A) (A) (A)
                 (A) (A) (A) (A) (A) (A) (A) (A) (A) (A) (A) (A)
                 (A) (A) (A) (A) (A) (A) (A) (A) (A) (A) (A) (A)
                 (A) (A) (A) (A) (A) (A) (A) (A) (A) (A) (A) (A)
                 (A) (A) (A) (A) (A) (A) (A) (A) (A) (A) (A) (A)
                 (A) (A) (A) (A) (A) (A) (A) (A) (A) (A) (A) (A)
                 (A) (A) (A) (A) (A) (A) (A) (A) (A)
 The electronic state is 1-A.
 Alpha  occ. eigenvalues --  -24.77424 -19.21476 -14.37781 -14.37290 -10.31327
 Alpha  occ. eigenvalues --  -10.26955 -10.26755 -10.25973 -10.25597 -10.25313
 Alpha  occ. eigenvalues --  -10.25091 -10.24320 -10.24254 -10.24215 -10.23549
 Alpha  occ. eigenvalues --  -10.23482 -10.23070 -10.23054 -10.22817 -10.22746
 Alpha  occ. eigenvalues --  -10.22167 -10.21876 -10.21800 -10.21724 -10.21636
 Alpha  occ. eigenvalues --   -1.22521  -1.05773  -0.96671  -0.93504  -0.89622
 Alpha  occ. eigenvalues --   -0.88527  -0.82955  -0.82390  -0.80401  -0.79142
 Alpha  occ. eigenvalues --   -0.78950  -0.77956  -0.75085  -0.71296  -0.69019
 Alpha  occ. eigenvalues --   -0.67049  -0.66560  -0.65550  -0.64375  -0.62682
 Alpha  occ. eigenvalues --   -0.62205  -0.59258  -0.57491  -0.56650  -0.56097
 Alpha  occ. eigenvalues --   -0.53974  -0.53181  -0.52281  -0.52056  -0.50745
 Alpha  occ. eigenvalues --   -0.49822  -0.49502  -0.48567  -0.48297  -0.47691
 Alpha  occ. eigenvalues --   -0.46817  -0.46515  -0.46158  -0.45656  -0.45086
 Alpha  occ. eigenvalues --   -0.44041  -0.43491  -0.42235  -0.41550  -0.40622
 Alpha  occ. eigenvalues --   -0.39489  -0.39159  -0.38140  -0.37858  -0.37044
 Alpha  occ. eigenvalues --   -0.36975  -0.36104  -0.34734  -0.33543  -0.29742
 Alpha  occ. eigenvalues --   -0.28534  -0.27797  -0.27095  -0.26696  -0.26352
 Alpha  occ. eigenvalues --   -0.25964  -0.25733  -0.23834
 Alpha virt. eigenvalues --   -0.04823  -0.01889  -0.01639  -0.00538  -0.00126
 Alpha virt. eigenvalues --    0.00235   0.05326   0.07035   0.09534   0.09885
 Alpha virt. eigenvalues --    0.10293   0.10672   0.12096   0.12574   0.13207
 Alpha virt. eigenvalues --    0.13659   0.13939   0.14663   0.15000   0.15723
 Alpha virt. eigenvalues --    0.15950   0.16439   0.16620   0.17004   0.17179
 Alpha virt. eigenvalues --    0.17216   0.18467   0.19045   0.20193   0.20487
 Alpha virt. eigenvalues --    0.21597   0.22691   0.23182   0.23700   0.24733
 Alpha virt. eigenvalues --    0.26568   0.28348   0.29134   0.30039   0.30269
 Alpha virt. eigenvalues --    0.31060   0.31264   0.31774   0.32204   0.32360
 Alpha virt. eigenvalues --    0.33557   0.34150   0.34247   0.34910   0.36038
 Alpha virt. eigenvalues --    0.36894   0.37546   0.39343   0.41499   0.42518
 Alpha virt. eigenvalues --    0.42856   0.43070   0.43763   0.44250   0.44653
 Alpha virt. eigenvalues --    0.45031   0.46704   0.47705   0.48244   0.48447
 Alpha virt. eigenvalues --    0.48707   0.49485   0.49608   0.50122   0.50395
 Alpha virt. eigenvalues --    0.50908   0.51405   0.51613   0.53144   0.53365
 Alpha virt. eigenvalues --    0.53856   0.54569   0.54787   0.55347   0.55734
 Alpha virt. eigenvalues --    0.56174   0.56401   0.56788   0.59091   0.59751
 Alpha virt. eigenvalues --    0.60005   0.60720   0.61166   0.62414   0.62565
 Alpha virt. eigenvalues --    0.63362   0.63716   0.64746   0.65167   0.65539
 Alpha virt. eigenvalues --    0.66275   0.67813   0.68170   0.69830   0.70104
 Alpha virt. eigenvalues --    0.70610   0.71099   0.71538   0.71911   0.72531
 Alpha virt. eigenvalues --    0.72931   0.73205   0.73593   0.73853   0.74229
 Alpha virt. eigenvalues --    0.74798   0.74873   0.75245   0.75546   0.75889
 Alpha virt. eigenvalues --    0.76479   0.76946   0.77158   0.77388   0.77627
 Alpha virt. eigenvalues --    0.78025   0.78396   0.79352   0.79885   0.80330
 Alpha virt. eigenvalues --    0.80673   0.80959   0.81386   0.81676   0.82503
 Alpha virt. eigenvalues --    0.83594   0.84124   0.84854   0.86136   0.87612
 Alpha virt. eigenvalues --    0.87901   0.88886   0.90813   0.91285   0.91937
 Alpha virt. eigenvalues --    0.93801   0.96844   0.98005   0.99787   1.00854
 Alpha virt. eigenvalues --    1.01427   1.03018   1.06151   1.08065   1.08765
 Alpha virt. eigenvalues --    1.09754   1.11318   1.12771   1.13987   1.15842
 Alpha virt. eigenvalues --    1.16652   1.17991   1.18474   1.19328   1.20569
 Alpha virt. eigenvalues --    1.21013   1.22873   1.24167   1.24332   1.25034
 Alpha virt. eigenvalues --    1.25873   1.26109   1.26404   1.26786   1.27543
 Alpha virt. eigenvalues --    1.28760   1.29437   1.30485   1.31414   1.31658
 Alpha virt. eigenvalues --    1.32297   1.32692   1.33939   1.35005   1.36365
 Alpha virt. eigenvalues --    1.36891   1.37263   1.39905   1.42565   1.45516
 Alpha virt. eigenvalues --    1.47057   1.48192   1.49446   1.50083   1.52201
 Alpha virt. eigenvalues --    1.52572   1.54106   1.54556   1.56192   1.59851
 Alpha virt. eigenvalues --    1.64908   1.65959   1.66741   1.67627   1.69163
 Alpha virt. eigenvalues --    1.71073   1.72557   1.73892   1.74236   1.75176
 Alpha virt. eigenvalues --    1.75447   1.76676   1.77046   1.77575   1.78274
 Alpha virt. eigenvalues --    1.78528   1.78701   1.79097   1.80792   1.81000
 Alpha virt. eigenvalues --    1.81445   1.81620   1.82043   1.82982   1.83792
 Alpha virt. eigenvalues --    1.84913   1.85050   1.85893   1.86299   1.87028
 Alpha virt. eigenvalues --    1.87837   1.88786   1.89272   1.89578   1.90609
 Alpha virt. eigenvalues --    1.91517   1.92603   1.93325   1.93887   1.95121
 Alpha virt. eigenvalues --    1.96470   1.97100   1.98013   1.99157   2.01603
 Alpha virt. eigenvalues --    2.02157   2.05734   2.06123   2.06480   2.07289
 Alpha virt. eigenvalues --    2.07881   2.08458   2.08928   2.09761   2.10893
 Alpha virt. eigenvalues --    2.11438   2.11885   2.12233   2.13207   2.15464
 Alpha virt. eigenvalues --    2.15770   2.16439   2.16962   2.17846   2.18769
 Alpha virt. eigenvalues --    2.19036   2.19889   2.20840   2.21509   2.22156
 Alpha virt. eigenvalues --    2.23193   2.24651   2.25078   2.26556   2.28015
 Alpha virt. eigenvalues --    2.28173   2.30679   2.32248   2.33097   2.33376
 Alpha virt. eigenvalues --    2.34522   2.36395   2.37684   2.38559   2.39753
 Alpha virt. eigenvalues --    2.41311   2.42272   2.43195   2.44827   2.45145
 Alpha virt. eigenvalues --    2.45951   2.46354   2.46869   2.47397   2.48106
 Alpha virt. eigenvalues --    2.49797   2.52238   2.53468   2.56065   2.57552
 Alpha virt. eigenvalues --    2.60457   2.62513   2.63359   2.65559   2.65996
 Alpha virt. eigenvalues --    2.67624   2.68662   2.69035   2.69118   2.70560
 Alpha virt. eigenvalues --    2.72654   2.73670   2.75921   2.79286   2.80953
 Alpha virt. eigenvalues --    2.81869   2.83811   2.86416   2.88821   2.90183
 Alpha virt. eigenvalues --    2.91935   3.00221   3.00634   3.01878   3.02290
 Alpha virt. eigenvalues --    3.04560   3.05702   3.06501   3.07599   3.09878
 Alpha virt. eigenvalues --    3.09944   3.12409   3.13574   3.14062   3.14475
 Alpha virt. eigenvalues --    3.15274   3.15833   3.16109   3.17115   3.17640
 Alpha virt. eigenvalues --    3.18530   3.21572   3.26550   3.28948   3.29731
 Alpha virt. eigenvalues --    3.31442   3.32724   3.33051   3.34737   3.40455
 Alpha virt. eigenvalues --    3.43339   3.46793   3.48621   3.49741   3.51438
 Alpha virt. eigenvalues --    3.55139   3.62184   3.63840   3.67471   3.89016
 Alpha virt. eigenvalues --    3.93422   3.98246
     Molecular Orbital Coefficients:
                          84        85        86        87        88
                           O         O         O         O         O
     Eigenvalues --    -0.26696  -0.26352  -0.25964  -0.25733  -0.23834
   1 1   N  1S         -0.00752   0.04747   0.03888   0.06707  -0.04144
   2        2S         -0.01536   0.09926   0.08163   0.14167  -0.09073
   3        3S         -0.01819   0.10152   0.08727   0.13652  -0.07676
   4        4PX        -0.08639  -0.00122   0.04928   0.12868  -0.04599
   5        4PY        -0.02795   0.16997   0.13804   0.23684  -0.13715
   6        4PZ         0.01026   0.17512   0.13624   0.22122  -0.17465
   7        5PX         0.06085  -0.00556  -0.03478  -0.09233   0.02371
   8        5PY         0.02228  -0.13447  -0.10763  -0.17488   0.07922
   9        5PZ        -0.00342  -0.13358  -0.09837  -0.16231   0.11001
  10        6D 0       -0.00492  -0.00553  -0.00202  -0.00125   0.00301
  11        6D+1        0.00671  -0.00002  -0.00342  -0.00857   0.00263
  12        6D-1        0.00145  -0.00364  -0.00451  -0.00838   0.00846
  13        6D+2        0.00245   0.00704   0.00400   0.00549  -0.00502
  14        6D-2       -0.00259  -0.00245  -0.00133  -0.00210   0.00372
  15 2   N  1S         -0.00996   0.04649   0.00996  -0.00418   0.07852
  16        2S         -0.02255   0.09518   0.01708  -0.01469   0.16164
  17        3S         -0.02442   0.15315   0.04299   0.02453   0.25375
  18        4PX         0.14460   0.19719   0.03618  -0.07637   0.16049
  19        4PY         0.03109  -0.08120  -0.03803  -0.03846  -0.19846
  20        4PZ        -0.13351   0.11822   0.04237   0.04321   0.37987
  21        5PX        -0.10260  -0.13765  -0.03193   0.04891  -0.11117
  22        5PY        -0.02592   0.05950   0.02281   0.04533   0.12447
  23        5PZ         0.09978  -0.09211  -0.03734  -0.04196  -0.26064
  24        6D 0        0.00763   0.00288  -0.00035  -0.00299  -0.00914
  25        6D+1       -0.00414  -0.00965  -0.00130   0.00398  -0.00931
  26        6D-1       -0.00133   0.00300  -0.00078  -0.00268   0.00687
  27        6D+2       -0.00479  -0.00112   0.00102   0.00383   0.00508
  28        6D-2       -0.00204   0.00001   0.00028   0.00110   0.00617
  29 3   C  1S         -0.00306   0.01684   0.01314   0.02237  -0.01141
  30        2S          0.00695  -0.03907  -0.03073  -0.05334   0.03071
  31        3S         -0.00062   0.00569  -0.00235  -0.00850   0.03001
  32        4PX        -0.11500  -0.05573   0.01261   0.06039   0.00950
  33        4PY        -0.01811   0.08614   0.06686   0.11314  -0.05132
  34        4PZ         0.04018   0.05673   0.02646   0.03068  -0.03909
  35        5PX        -0.06964  -0.03480   0.00389   0.02781   0.01994
  36        5PY        -0.00360  -0.01174  -0.01699  -0.02784   0.04119
  37        5PZ         0.02450   0.02393   0.00091  -0.00895   0.01532
  38        6D 0        0.00357  -0.00132  -0.00323  -0.00701   0.00435
  39        6D+1       -0.00339  -0.00452  -0.00209  -0.00232   0.00376
  40        6D-1        0.00184   0.01498   0.01112   0.01772  -0.01482
  41        6D+2       -0.00077  -0.00238  -0.00183  -0.00295   0.00307
  42        6D-2       -0.00998  -0.00140   0.00441   0.01210  -0.00377
  43 4   H  1S          0.00729  -0.04680  -0.04363  -0.07705   0.05650
  44        2S          0.00282  -0.02307  -0.02418  -0.04332   0.04173
  45        3PX        -0.00461  -0.00246   0.00038   0.00234   0.00031
  46        3PY        -0.00059   0.00289   0.00250   0.00423  -0.00249
  47        3PZ         0.00169   0.00190   0.00076   0.00075  -0.00187
  48 5   C  1S          0.00168  -0.01308  -0.01172  -0.02069   0.01607
  49        2S         -0.00465   0.03628   0.03158   0.05513  -0.04069
  50        3S         -0.00051   0.00009   0.01260   0.04019  -0.08644
  51        4PX        -0.17358  -0.13052  -0.01342   0.05032   0.04493
  52        4PY        -0.00067  -0.06434  -0.04827  -0.07888   0.05255
  53        4PZ         0.08208  -0.00620  -0.04503  -0.10741   0.03047
  54        5PX        -0.12824  -0.10877  -0.02074   0.02262   0.04824
  55        5PY        -0.00879   0.00461   0.00059  -0.00112   0.02819
  56        5PZ         0.06031  -0.02614  -0.05674  -0.11385   0.05288
  57        6D 0       -0.00155   0.00153   0.00158   0.00296  -0.00060
  58        6D+1        0.00161   0.00125   0.00010  -0.00026  -0.00060
  59        6D-1       -0.00172   0.00044   0.00094   0.00205  -0.00000
  60        6D+2        0.00014   0.00264   0.00180   0.00293  -0.00188
  61        6D-2        0.00360   0.00294   0.00046  -0.00058  -0.00075
  62 6   H  1S          0.00475  -0.03692  -0.02837  -0.04743   0.02514
  63        2S          0.00603  -0.04401  -0.03494  -0.05910   0.03503
  64        3PX        -0.00656  -0.00485  -0.00039   0.00210   0.00158
  65        3PY        -0.00019  -0.00104  -0.00064  -0.00101   0.00069
  66        3PZ         0.00307   0.00020  -0.00121  -0.00335   0.00057
  67 7   C  1S         -0.00121  -0.00009  -0.00059  -0.00139   0.00584
  68        2S          0.00283   0.00048   0.00142   0.00331  -0.01372
  69        3S         -0.01494   0.10289   0.06994   0.10521  -0.01517
  70        4PX        -0.04401  -0.02781   0.00146   0.02328  -0.00357
  71        4PY        -0.00813   0.01963   0.01160   0.01725   0.01479
  72        4PZ         0.01526   0.02562   0.01150   0.01053  -0.00751
  73        5PX        -0.03012  -0.02811  -0.00939   0.00372   0.00162
  74        5PY         0.00370  -0.01958  -0.00916  -0.01726  -0.00234
  75        5PZ         0.01099  -0.00749  -0.01638  -0.02317   0.00730
  76        6D 0       -0.00522  -0.00289   0.00045   0.00298   0.00010
  77        6D+1        0.00592   0.00394   0.00004  -0.00239  -0.00121
  78        6D-1        0.00255   0.00724   0.00371   0.00452  -0.00229
  79        6D+2        0.00377   0.00200  -0.00014  -0.00163  -0.00154
  80        6D-2       -0.00791  -0.00249   0.00188   0.00615   0.00083
  81 8   C  1S          0.00346  -0.01392  -0.01141  -0.01956   0.00667
  82        2S         -0.00847   0.03819   0.03135   0.05502  -0.02235
  83        3S         -0.00710  -0.00861  -0.00486   0.03306  -0.06343
  84        4PX         0.14333   0.05761  -0.02480  -0.09709  -0.01830
  85        4PY         0.01733  -0.05576  -0.04369  -0.07345   0.01468
  86        4PZ        -0.04453  -0.09928  -0.04777  -0.05547   0.03677
  87        5PX         0.10437   0.05941  -0.00125  -0.05579  -0.01011
  88        5PY         0.02695  -0.07882  -0.04378  -0.08627  -0.00645
  89        5PZ        -0.03545  -0.03100   0.00004  -0.00354   0.03397
  90        6D 0        0.00315   0.00119  -0.00138  -0.00406   0.00365
  91        6D+1       -0.00401  -0.00323  -0.00095  -0.00012   0.00296
  92        6D-1        0.00196   0.00306   0.00133   0.00150  -0.00169
  93        6D+2       -0.00199  -0.00116  -0.00044  -0.00035   0.00303
  94        6D-2       -0.00602  -0.00316   0.00040   0.00324  -0.00017
  95 9   C  1S         -0.00772   0.02883   0.01640   0.02335   0.01861
  96        2S          0.01962  -0.07526  -0.04400  -0.06299  -0.04490
  97        3S          0.03488  -0.04910   0.01543   0.04453  -0.21784
  98        4PX         0.16105   0.13120   0.02342  -0.02384  -0.04985
  99        4PY        -0.02367   0.07889   0.03271   0.03680   0.10568
 100        4PZ        -0.07914   0.02698   0.06187   0.13389  -0.05819
 101        5PX         0.12090   0.07352   0.00008  -0.05392  -0.02720
 102        5PY        -0.01476   0.04786   0.00298  -0.05125   0.20966
 103        5PZ        -0.03790  -0.04515   0.01392   0.00800  -0.01064
 104        6D 0       -0.00207   0.00750   0.00537   0.00860  -0.00222
 105        6D+1       -0.00011   0.00348   0.00197   0.00313   0.00073
 106        6D-1       -0.00524   0.00729   0.00917   0.01811  -0.00970
 107        6D+2       -0.00091   0.00551   0.00412   0.00683  -0.00279
 108        6D-2        0.00771   0.00983   0.00395   0.00225  -0.00766
 109 10  C  1S         -0.00159   0.02684   0.01586   0.01697   0.01288
 110        2S          0.00374  -0.07263  -0.04239  -0.04453  -0.04015
 111        3S         -0.01151  -0.02283  -0.05204  -0.11437   0.16006
 112        4PX        -0.10751  -0.03277   0.01171   0.07248   0.10300
 113        4PY         0.01877  -0.05039  -0.03912  -0.07590   0.03734
 114        4PZ         0.02906   0.11483   0.02444  -0.01229   0.08433
 115        5PX        -0.07139  -0.05583   0.00372   0.06167   0.01931
 116        5PY        -0.00564  -0.00507  -0.03239  -0.07429   0.15837
 117        5PZ         0.02561   0.04271  -0.01578   0.00704  -0.03715
 118        6D 0       -0.01012   0.00690   0.00359   0.00645   0.02179
 119        6D+1        0.00266   0.00981   0.00284  -0.00029   0.01144
 120        6D-1       -0.00448  -0.00654   0.00008   0.00396  -0.00947
 121        6D+2        0.00077   0.01134   0.00332   0.00009   0.01737
 122        6D-2        0.01251   0.00683  -0.00031  -0.00472  -0.00744
 123 11  O  1S          0.00280   0.00388  -0.01549  -0.00029  -0.00971
 124        2S          0.00644   0.00831  -0.03294   0.00078  -0.01793
 125        3S          0.00183   0.02099  -0.05553  -0.00681  -0.04137
 126        4PX         0.02424  -0.00621  -0.05578   0.04571   0.01057
 127        4PY         0.12871  -0.05318   0.11134  -0.05502  -0.04368
 128        4PZ         0.11215  -0.01561   0.10082  -0.02718   0.03300
 129        5PX         0.01518  -0.00714  -0.04136   0.03386   0.00614
 130        5PY         0.09622  -0.04442   0.08720  -0.04160  -0.03488
 131        5PZ         0.08618  -0.00683   0.07488  -0.02062   0.03005
 132        6D 0        0.00325  -0.00007   0.00066  -0.00057  -0.00044
 133        6D+1        0.00093   0.00005  -0.00165   0.00211   0.00208
 134        6D-1        0.00024  -0.00009  -0.00010  -0.00009  -0.00035
 135        6D+2        0.00263  -0.00038   0.00263  -0.00106   0.00072
 136        6D-2       -0.00075   0.00014   0.00050  -0.00121  -0.00140
 137 12  C  1S         -0.00609   0.01696   0.00413   0.00118   0.02544
 138        2S          0.01096  -0.04287  -0.00633   0.00263  -0.05399
 139        3S          0.07611  -0.06099  -0.01520  -0.02751  -0.15563
 140        4PX         0.06361   0.03896   0.00760  -0.00432   0.04613
 141        4PY         0.01965  -0.07124  -0.03256  -0.02708  -0.13951
 142        4PZ         0.01075  -0.02869   0.02451   0.05362   0.09859
 143        5PX        -0.01351   0.00048   0.00199  -0.00218  -0.01664
 144        5PY        -0.02210  -0.02683  -0.02781  -0.00275  -0.04055
 145        5PZ         0.01072  -0.01894  -0.00406   0.02657  -0.03643
 146        6D 0        0.00052   0.00572  -0.00151  -0.00195   0.00046
 147        6D+1        0.00421  -0.00503   0.00291   0.00693   0.00941
 148        6D-1        0.00727  -0.00666  -0.00154  -0.00088  -0.01998
 149        6D+2        0.00222  -0.00193   0.00306   0.00521   0.00765
 150        6D-2       -0.01052  -0.00666  -0.00191   0.00201  -0.00766
 151 13  H  1S          0.01971   0.04084  -0.02384  -0.05095  -0.09929
 152        2S         -0.00264   0.04549  -0.02384  -0.01621  -0.05082
 153        3PX         0.00108   0.00208   0.00008  -0.00032   0.00328
 154        3PY        -0.00040  -0.00036  -0.00072  -0.00122  -0.00259
 155        3PZ         0.00099   0.00143  -0.00029  -0.00071   0.00001
 156 14  C  1S          0.01358   0.01177  -0.00140  -0.00807  -0.00011
 157        2S         -0.02977  -0.03450   0.00307   0.02138  -0.00537
 158        3S         -0.11235  -0.00857  -0.00312   0.00856   0.05177
 159        4PX        -0.12104   0.04976  -0.01325  -0.04785  -0.02451
 160        4PY         0.02647  -0.11830   0.02614   0.10055   0.03123
 161        4PZ        -0.10337   0.17683  -0.03478  -0.14636  -0.05118
 162        5PX        -0.11321   0.04224  -0.00682  -0.02375  -0.01322
 163        5PY         0.00731  -0.08525   0.01679   0.06773   0.03834
 164        5PZ        -0.06868   0.11239  -0.02886  -0.10859  -0.02606
 165        6D 0        0.00804   0.00324   0.00096  -0.00162  -0.00091
 166        6D+1        0.00228  -0.00272   0.00120   0.00364   0.00504
 167        6D-1        0.00543  -0.00201   0.00120   0.00255   0.00211
 168        6D+2        0.00161  -0.00171   0.00153   0.00388   0.00479
 169        6D-2        0.00331  -0.00087   0.00056  -0.00029  -0.00274
 170 15  C  1S          0.00134   0.00076   0.00007  -0.00048   0.00048
 171        2S         -0.00435  -0.00491  -0.00054   0.00251  -0.00490
 172        3S         -0.00680   0.00295   0.00315   0.01123  -0.00979
 173        4PX         0.04410   0.06926   0.00129  -0.05029  -0.01747
 174        4PY        -0.04572  -0.07593  -0.00435   0.05267   0.01643
 175        4PZ         0.04952   0.09178   0.00414  -0.07222  -0.02869
 176        5PX         0.05168   0.05664   0.00596  -0.03820  -0.02478
 177        5PY        -0.01410  -0.04720  -0.00349   0.02079   0.02456
 178        5PZ         0.03140   0.05205  -0.00577  -0.06015  -0.03202
 179        6D 0        0.00703  -0.00724   0.00207   0.00678   0.00351
 180        6D+1       -0.00654   0.00385  -0.00213  -0.00401  -0.00215
 181        6D-1       -0.00330   0.00100  -0.00129  -0.00165  -0.00133
 182        6D+2       -0.00769   0.00143  -0.00134  -0.00164  -0.00205
 183        6D-2        0.00400  -0.00509   0.00134   0.00425   0.00141
 184 16  C  1S          0.00111   0.00121  -0.00028  -0.00079   0.00007
 185        2S         -0.00245  -0.00227   0.00084   0.00171   0.00001
 186        3S          0.02961   0.00627   0.00008  -0.01718  -0.00355
 187        4PX         0.08935  -0.03608   0.02661   0.04048   0.02521
 188        4PY        -0.10414   0.03012  -0.02385  -0.03529  -0.02537
 189        4PZ         0.17692  -0.04478   0.04331   0.05914   0.04405
 190        5PX         0.07192  -0.02207   0.01966   0.02285   0.01999
 191        5PY        -0.07428   0.01652  -0.01354  -0.01631  -0.02336
 192        5PZ         0.11848  -0.02983   0.03451   0.04999   0.03875
 193        6D 0       -0.00368   0.00344  -0.00113  -0.00309  -0.00154
 194        6D+1       -0.00076   0.00492  -0.00044  -0.00418  -0.00199
 195        6D-1       -0.00129   0.00660  -0.00086  -0.00556  -0.00245
 196        6D+2       -0.00010   0.00809  -0.00075  -0.00651  -0.00254
 197        6D-2       -0.00311   0.00084  -0.00061  -0.00114  -0.00075
 198 17  C  1S          0.00184   0.00151  -0.00009  -0.00114  -0.00071
 199        2S         -0.00373  -0.00315   0.00011   0.00227   0.00113
 200        3S         -0.01485  -0.01771   0.00544   0.02215   0.00397
 201        4PX         0.06393  -0.08861   0.02079   0.07940   0.03934
 202        4PY        -0.06679   0.08625  -0.02266  -0.07950  -0.03905
 203        4PZ         0.10883  -0.15744   0.03623   0.13807   0.06368
 204        5PX         0.04160  -0.06557   0.01607   0.06135   0.03151
 205        5PY        -0.05246   0.06323  -0.01287  -0.05155  -0.02574
 206        5PZ         0.07619  -0.11023   0.02697   0.10052   0.04712
 207        6D 0        0.00802   0.00286   0.00164  -0.00100   0.00110
 208        6D+1        0.00203  -0.00223   0.00055   0.00183   0.00070
 209        6D-1        0.00493  -0.00101   0.00099   0.00127   0.00099
 210        6D+2        0.00339  -0.00181   0.00110   0.00194   0.00105
 211        6D-2        0.00401   0.00151   0.00105  -0.00045   0.00054
 212 18  H  1S         -0.00385  -0.00012   0.00101   0.00061  -0.00065
 213        2S         -0.00252   0.00130   0.00096   0.00011   0.00038
 214        3PX         0.00238  -0.00338   0.00082   0.00304   0.00148
 215        3PY        -0.00248   0.00330  -0.00090  -0.00316  -0.00162
 216        3PZ         0.00418  -0.00596   0.00138   0.00528   0.00262
 217 19  C  1S          0.00345   0.00133  -0.00056  -0.00141  -0.00012
 218        2S         -0.00733  -0.00291   0.00146   0.00325   0.00065
 219        3S         -0.00077  -0.00962  -0.00459  -0.00705  -0.02535
 220        4PX        -0.05119  -0.06273  -0.00269   0.04210   0.00287
 221        4PY         0.02516   0.05585   0.00769  -0.03343  -0.00152
 222        4PZ        -0.06042  -0.09690  -0.00903   0.06333   0.00691
 223        5PX        -0.03140  -0.05300  -0.00558   0.02742  -0.00977
 224        5PY         0.02095   0.04173   0.00297  -0.02877  -0.00619
 225        5PZ        -0.04436  -0.06268  -0.00668   0.04314   0.00568
 226        6D 0        0.00696  -0.00762   0.00229   0.00724   0.00394
 227        6D+1       -0.00623   0.00414  -0.00204  -0.00469  -0.00310
[...]
 ,-0.00086821,-0.00050872,-0.00017148,-0.00061607,0.00049563,0.00000975
 ,-0.00314045,-0.00438164,0.00049362,0.00072210,-0.00116108,-0.00016492
 ,0.01368486,-0.02588010,-0.00107426,0.00117743,0.00158710,-0.00031957,
 -0.10354530,0.27232323,0.01437531,-0.00571727,0.03402872,0.00180170,-0
 .00668437,-0.00006835,0.00075368,0.00062164,0.00126003,-0.00001341,-0.
 00002835,-0.00003369,0.00005516,0.00003334,0.00001240,-0.00002573,-0.0
 0003496,0.00001111,0.00000489,-0.00002627,-0.00000720,0.00005331,-0.00
 000317,0.00000427,-0.00001328,0.00000014,-0.00000153,0.00000302,-0.000
 00575,0.00000484,-0.00000813,-0.00000059,0.00000107,-0.00000049,-0.000
 00293,0.00000729,-0.00000023,-0.00000151,0.00000155,-0.00000327,-0.000
 00510,0.00000213,-0.00002772,0.00000208,-0.00000395,0.00000175,-0.0000
 2554,0.00003905,-0.00004039,0.00001481,-0.00000572,0.00000502,-0.00001
 233,-0.00001377,0.00001555,0.00003008,0.00003822,-0.00002682,-0.000005
 10,-0.00000637,0.00000292,-0.00000712,-0.00000578,-0.00000153,-0.00000
 476,-0.00000260,-0.00000916,-0.00000051,-0.00000239,-0.00000224,-0.000
 00048,0.00000059,0.00000053,0.00000311,0.00000036,0.00000332,-0.000000
 25,-0.00000120,-0.00000349,0.00000055,-0.00000294,0.00000030,0.0000048
 3,0.00000424,0.00000101,-0.00000572,0.00000169,-0.00000085,0.00000473,
 -0.00000678,0.00000333,-0.00000241,0.00000112,0.00000392,0.00000036,0.
 00000298,0.00000412,-0.00003695,-0.00002909,0.00000052,0.10225140,-0.0
 0065612,0.00045232,0.00017951,0.00001664,-0.00002845,0.00000627,-0.004
 17378,-0.00226146,-0.00015493,0.00073107,-0.00083974,-0.00007469,0.013
 97056,-0.01446416,-0.00138896,0.00015173,0.00157528,0.00020503,0.27204
 347,-0.68096255,-0.03378520,-0.00508650,0.00480510,0.00018893,-0.00042
 973,0.00177433,-0.00018102,-0.00027952,0.00014137,-0.00000899,0.000005
 29,0.00000064,-0.00000985,-0.00004059,0.00001954,0.00000608,0.00000832
 ,0.00000034,-0.00000068,0.00000483,0.00000557,-0.00001308,0.00000161,-
 0.00000298,0.00000312,-0.00000103,0.00000025,-0.00000160,0.00000164,-0
 .00000194,0.00000193,0.00000039,-0.00000018,0.00000009,0.00000076,-0.0
 0000158,0.00000060,0.00000033,-0.00000040,0.00000082,-0.00000013,0.000
 00138,0.00000641,-0.00000050,0.00000098,-0.00000050,-0.00001041,0.0000
 0786,0.00001312,-0.00000550,0.00000021,-0.00000261,0.00000244,0.000002
 97,-0.00000206,-0.00000503,-0.00000241,0.00000857,0.00000108,0.0000003
 1,-0.00000129,-0.00000023,0.00000005,-0.00000074,0.00000114,-0.0000009
 4,0.00000153,-0.00000115,0.00000033,-0.00000204,0.00000069,-0.00000033
 ,-0.00000027,-0.00000056,0.00000004,0.00000084,0.00000024,0.00000023,0
 .00000121,-0.00000281,0.00000105,-0.00000770,0.00000035,0.00000003,-0.
 00000038,-0.00000093,-0.00000018,0.00000033,-0.00000063,-0.00000054,-0
 .00000155,0.00000018,0.00000040,0.00000046,0.00000276,-0.00000056,0.00
 000774,-0.00001718,0.00002118,0.00000355,-0.27669491,0.68922676,0.0001
 1123,0.00030657,-0.00451438,0.00001931,-0.00012710,-0.00022275,0.00050
 125,-0.00007998,0.01027611,-0.00008458,0.00010013,-0.00054572,-0.00000
 727,0.00011768,0.00844635,-0.00049459,0.00021523,-0.00640607,0.0146701
 8,-0.03340414,0.02462487,0.00018939,-0.00165168,0.00808807,0.00086337,
 -0.00055411,0.01019863,-0.00013220,-0.00002144,-0.00025885,0.00000050,
 0.00002406,-0.00004321,0.00002187,0.00002499,0.00007842,-0.00001510,0.
 00000055,-0.00000287,0.00002227,-0.00000722,-0.00000742,-0.00000483,0.
 00000178,-0.00000445,0.00000041,-0.00000187,0.00000182,-0.00000004,0.0
 0000035,-0.00000213,-0.00000011,0.00000043,0.00000037,0.00000186,-0.00
 000376,-0.00000038,0.00000008,-0.00000069,0.00000071,0.00000227,0.0000
 0142,0.00000302,0.00000070,-0.00000055,-0.00000041,0.00000932,-0.00001
 426,0.00003721,-0.00000291,-0.00000104,-0.00000417,0.00000036,0.000001
 99,-0.00000501,-0.00000751,-0.00001209,0.00001676,0.00000101,0.0000044
 2,-0.00000260,0.00000418,-0.00000008,0.00000024,0.00000195,-0.00000140
 ,0.00000827,-0.00000440,0.00000103,-0.00000135,0.00000326,-0.00000183,
 -0.00000151,-0.00000445,-0.00000080,-0.00000037,0.00000202,-0.00000024
 ,0.00000191,-0.00000556,0.00000322,-0.00000620,-0.00000385,0.00000124,
 0.00000182,0.00000478,-0.00000129,0.00000074,-0.00000689,0.00000451,-0
 .00000307,0.00000507,-0.00000011,-0.00000247,0.00000474,-0.00000305,0.
 00000258,0.00002013,-0.00000728,0.00006605,-0.01526841,0.03484362,-0.0
 4349297,-0.00001607,-0.00001561,0.00002888,-0.00000114,0.00002437,0.00
 005398,-0.00001138,0.00001605,-0.00000257,-0.00000421,0.00000026,-0.00
 000290,-0.00001630,-0.00000886,0.,-0.00000046,0.00000074,-0.00000247,0
 .00000559,0.00000225,0.00000403,-0.00001818,0.00000578,0.00000272,0.00
 003103,0.00000430,-0.00001804,0.00002498,0.00000279,0.00002757,-0.0000
 0664,0.00008486,-0.00009431,0.00049291,-0.00054569,-0.00060478,-0.0000
 7367,0.00002217,-0.00013364,0.00373702,0.00526214,-0.00399550,0.010218
 16,-0.00509417,-0.01790771,-0.02686285,0.08693732,0.16152213,0.0017573
 2,0.01050196,0.02235119,-0.00254089,-0.00436782,0.00007215,0.00176081,
 0.00772734,-0.00080209,-0.00005815,0.00038967,0.00112206,-0.00114927,0
 .00009709,-0.00060832,-0.00080537,-0.00074633,0.00012228,-0.00006641,-
 0.00006077,0.00005700,0.00002824,0.00000101,0.00000429,-0.00001281,0.0
 0000470,-0.00001783,-0.00002470,0.00000599,0.00002020,0.00000347,0.000
 00104,0.00000094,0.00000832,0.00000177,-0.00000305,0.00000468,-0.00000
 192,0.00000622,-0.00000062,0.00000080,-0.00000246,0.00000040,0.0000004
 2,-0.00000087,-0.00000138,0.00000146,-0.00000132,0.00000054,0.00000141
 ,0.00000324,-0.00000370,0.00000193,-0.00001206,-0.00000154,-0.00000082
 ,-0.00000276,0.00000108,-0.00000145,0.00000083,-0.00000216,-0.00000031
 ,-0.00000275,0.00000048,0.,-0.00000050,0.00000321,-0.00000092,0.000010
 51,0.00000131,0.00000179,0.00000018,-0.00000150,0.00000109,-0.00000212
 ,0.01661622,-0.00000104,-0.00000956,0.00000183,-0.00014279,0.00007601,
 -0.00008841,-0.00000412,0.00000931,0.00000135,-0.00000227,0.00000101,-
 0.00000107,-0.00000068,-0.00000746,-0.00000110,-0.00000055,0.00000040,
 0.00000023,0.00000517,-0.00000251,-0.00000210,-0.00000014,-0.00000168,
 -0.00000504,0.00000338,-0.00000383,0.00000095,0.00005137,-0.00003237,-
 0.00002839,-0.00004060,-0.00002657,-0.00001130,-0.00006044,0.00026761,
 0.00065195,0.00003710,-0.00012360,0.00016350,0.00510527,0.00339741,0.0
 0209810,-0.00065133,0.01183581,0.01616755,0.08678589,-0.11798611,-0.28
 753214,0.00621144,-0.00318562,-0.02539847,-0.00423295,-0.00155213,0.00
 109572,0.00768430,0.00005919,-0.00003037,0.00018345,-0.00027911,-0.001
 21663,-0.00003853,-0.00072854,0.00086962,-0.00075547,-0.00064599,0.000
 05598,0.00007275,0.00008039,0.00003157,-0.00000680,-0.00004016,0.00001
 706,-0.00000658,0.00000898,-0.00001414,0.00000884,0.00000857,0.0000052
 3,-0.00000065,0.00000064,0.00000100,-0.00000113,-0.00000623,0.00000164
 ,-0.00000232,-0.00000511,0.00000243,-0.00000079,-0.00000064,-0.0000019
 8,0.00000019,0.00000035,-0.00000035,-0.00000019,0.00000199,-0.00000058
 ,0.00000067,0.00000042,-0.00000009,-0.00000202,0.00000050,-0.00000671,
 0.00000059,0.00000136,0.00000029,-0.00000040,-0.00000077,0.00000084,-0
 .00000021,-0.00000217,-0.00000070,0.00000014,0.00000023,0.00000056,0.0
 0000199,-0.00000031,0.00000690,-0.00000889,-0.00000864,0.00002550,0.00
 000190,-0.00000004,0.00000165,-0.09631100,0.11133477,-0.00002653,-0.00
 000608,0.00001697,0.00011047,0.00001124,0.00005027,-0.00000290,0.00001
 882,-0.00000101,-0.00000337,-0.00000068,-0.00000139,-0.00002286,-0.000
 00791,0.00000041,-0.00000043,0.00000070,-0.00000177,0.00000832,0.00000
 499,0.00000294,-0.00003422,0.00000633,0.00000324,0.00004894,0.00000156
 ,-0.00000446,-0.00000327,-0.00002358,0.00006563,0.00008502,0.00012408,
 -0.00011039,0.00048619,-0.00079541,-0.00062691,-0.00010500,0.00015337,
 -0.00026524,-0.00325007,0.00204265,-0.00266212,0.00926138,-0.01451081,
 -0.01700925,0.16110806,-0.28727259,-0.61368328,-0.00475351,0.00515662,
 0.00678424,0.00100379,0.00004423,0.00050318,-0.00114862,0.00008773,0.0
 0174252,-0.00012556,0.00017092,0.00022959,-0.00053685,0.00081773,0.000
 32186,0.00015399,0.00008447,-0.00005201,-0.00017917,-0.00015918,0.0000
 0950,0.00000431,0.00003254,0.00000705,0.00000459,-0.00001098,-0.000006
 00,-0.00006167,-0.00003043,0.00002573,0.00000671,0.00000066,-0.0000030
 8,0.00000871,0.00001219,-0.00000360,0.00001365,0.00000833,0.00000465,0
 .00000125,0.00000383,-0.00000155,-0.00000021,-0.00000015,0.00000002,-0
 .00000166,-0.00000069,-0.00000070,-0.00000050,0.00000165,0.00000586,-0
 .00000401,0.00000435,-0.00001671,-0.00000191,-0.00000590,-0.00000532,0
 .00000043,-0.00000127,0.00000102,-0.00000219,0.00000312,-0.00000554,-0
 .00000059,-0.00000039,-0.00000141,0.00000334,-0.00000327,0.00001503,0.
 00000714,0.00000677,-0.00001654,-0.00000386,0.00000093,-0.00000180,-0.
 16281325,0.29351077,0.62300359,0.00078420,0.00500619,0.00057711,0.0001
 0934,-0.00088247,0.00010490,-0.00117560,0.00090999,0.00004635,0.000127
 91,-0.00004060,-0.00013091,-0.00563438,0.00240044,0.00088044,-0.000535
 84,-0.00150626,0.00000440,-0.01349893,-0.02857077,0.00005145,-0.319071
 86,-0.38826847,0.00510825,0.01437543,0.01302440,-0.00007919,0.00056923
 ,0.00065455,-0.00035907,0.00005294,-0.00002310,-0.00008860,-0.00006846
 ,0.00014012,0.00002756,0.00000781,-0.00001112,-0.00000632,0.00000308,0
 .00001074,-0.00004598,-0.00000103,-0.00000449,0.00002002,-0.00000220,-
 0.00000325,-0.00000689,0.00000599,-0.00000605,0.00000840,0.00000183,-0
 .00000080,0.00000061,0.00000320,-0.00000671,0.00000107,0.00000214,-0.0
 0000128,0.00000254,0.00000158,-0.00000125,0.00002195,-0.00000105,0.000
 00515,-0.00000164,0.00003043,0.00002890,0.00005101,-0.00001263,-0.0000
 0686,-0.00001976,0.00001445,-0.00000088,-0.00002080,-0.00004328,-0.000
 01249,0.00006551,0.00000888,-0.00000009,-0.00001089,-0.00000650,-0.000
 00391,-0.00000400,0.00000929,-0.00000720,0.00001616,-0.00000286,0.0000
 0332,-0.00000871,0.00000145,-0.00000041,-0.00000168,-0.00000196,0.0000
 0631,-0.00000225,0.00000077,0.00000248,0.00000688,-0.00001169,0.000009
 02,-0.00003691,0.00000051,-0.00000249,-0.00000346,-0.00000148,-0.00000
 593,0.00000578,-0.00000514,0.00000019,-0.00000803,0.00000275,-0.000000
 55,-0.00000254,0.00000908,-0.00000939,0.00003219,-0.00029749,-0.000237
 61,0.00004006,0.00222759,0.00046035,-0.00041740,0.00000190,0.00000131,
 0.00000196,0.32202083,0.00150377,-0.00685321,-0.00058398,0.00025695,0.
 00012115,-0.00003497,0.00214496,-0.00026507,-0.00006212,-0.00021907,-0
 .00000291,0.00006083,0.00282884,0.00118288,-0.00035882,0.00043500,0.00
 059742,-0.00002267,0.01079410,0.01235198,-0.00029544,-0.38913935,-0.46
 289822,0.00408596,-0.02389653,-0.01319134,0.00078432,-0.00158339,0.001
 52164,0.00023821,-0.00009957,0.00003876,0.00009110,0.00010709,0.000025
 12,-0.00005273,-0.00004181,0.00000609,0.00001154,-0.00002312,-0.000001
 70,0.00005133,0.00000679,0.00000484,-0.00001534,0.00000374,0.00000626,
 0.00000808,-0.00000967,0.00001004,-0.00000944,-0.00000317,0.00000140,-
 0.00000091,-0.00000649,0.00001261,-0.00000423,-0.00000271,0.00000226,-
 0.00000347,-0.00000569,-0.00000155,-0.00002347,-0.00000015,-0.00000539
 ,0.00000314,-0.00000690,-0.00005979,-0.00002702,0.00002100,0.00000687,
 0.00001958,-0.00001175,0.00001625,0.00001907,0.00007290,0.00003080,-0.
 00007866,-0.00001418,-0.00000140,0.00001199,0.00000793,-0.00000050,0.0
 0000330,-0.00001292,0.00000451,-0.00001446,-0.00000168,-0.00000607,0.0
 0000784,-0.00000003,-0.00000093,0.00000102,-0.00000162,-0.00001099,0.0
 0000218,0.00000080,-0.00000500,-0.00000902,0.00001305,-0.00001108,0.00
 004836,-0.00000065,0.00001233,0.00000711,0.00000354,0.00000717,-0.0000
 0594,0.00000189,0.00000134,0.00000847,0.,0.00000136,0.00000269,-0.0000
 0958,0.00001107,-0.00004661,0.00096455,-0.00018292,-0.00011067,-0.0010
 1500,0.00053035,0.00023637,-0.00000184,-0.00000354,-0.00000173,0.39694
 990,0.46701395,0.00040843,-0.00045148,0.00910612,-0.00008112,0.0002343
 7,-0.00012309,-0.00009489,-0.00001969,-0.00036401,-0.00011597,0.000146
 50,-0.00265940,0.00077668,-0.00061234,0.01001302,0.00005871,0.00005501
 ,0.00035595,0.00146963,0.00149958,0.00661567,0.00506763,0.00455992,0.0
 2938993,-0.00112082,-0.00177196,0.00344941,-0.00030427,0.00000308,-0.0
 0394271,-0.00004034,0.00007531,-0.00009535,0.00006073,0.00002808,0.000
 46924,-0.00008052,0.00000578,-0.00000666,0.00011692,-0.00004448,-0.000
 00667,-0.00002448,0.00001275,-0.00001416,0.00000162,-0.00000792,-0.000
 00381,-0.00000046,-0.00000033,-0.00000714,0.00000095,0.00000027,0.0000
 0020,0.00000586,-0.00001226,0.00000028,0.00000007,-0.00000146,0.000001
 21,0.00000453,0.00000088,0.00000513,0.00000484,-0.00000424,-0.00000019
 ,-0.00000215,-0.00002849,0.00011841,-0.00000331,-0.00000916,-0.0000050
 6,-0.00001353,-0.00000520,-0.00001176,0.00001046,-0.00002090,0.0000022
 0,-0.00000365,0.00001216,0.00000229,0.00001952,0.00000032,0.00000747,-
 0.00000336,-0.00000155,0.00001678,-0.00000705,-0.00000185,0.00000626,0
 .00000433,-0.00000291,-0.00000251,-0.00001278,-0.00000898,-0.00000621,
 0.00000523,-0.00000245,0.00000032,0.00000361,-0.00000264,0.00003031,-0
 .00001323,0.00000962,0.00000613,0.00001873,0.00000154,-0.00000168,-0.0
 0001436,0.00001435,-0.00000259,0.00000859,-0.00000004,-0.00000568,-0.0
 0000256,0.00000374,-0.00004071,0.00012452,0.00011488,0.00018723,-0.000
 42925,0.00016242,-0.00632793,-0.00000483,0.00000647,-0.00000672,-0.005
 79601,-0.00395017,-0.04616097,-0.00000704,-0.00005868,0.00011501,0.000
 28587,-0.00044210,-0.00097754,-0.00003441,-0.00002245,-0.00000520,0.00
 000067,0.00000218,0.00000029,0.00001184,0.00000578,-0.00000407,0.00000
 178,-0.00000175,-0.00000217,-0.00000732,-0.00000951,-0.00000466,0.0000
 3447,0.00003051,0.00001064,-0.00005281,0.00003189,-0.00004098,-0.00007
 694,0.00040534,-0.00038248,-0.00018353,-0.00022853,-0.00006042,-0.0028
 4584,-0.00202212,-0.00061861,-0.00021176,0.00014997,-0.00027111,0.0013
 7474,0.00389848,-0.00270651,-0.32944214,0.40230579,0.02673100,-0.00095
 997,0.01047513,0.00420691,0.00469031,0.00411115,-0.00308370,-0.0002043
 4,0.00042792,0.00018440,-0.00018139,-0.00091756,-0.00003955,-0.0008645
 9,-0.00070484,0.00010786,0.00499176,0.00349303,0.00033798,0.00006716,0
 .00020529,-0.00010860,0.00029760,0.00016461,0.00069824,-0.00009967,-0.
 00023284,0.00016878,0.00002984,0.00000233,0.00000478,0.00001404,-0.000
 01569,0.00005772,-0.00000181,0.00000757,0.00000142,0.00000236,-0.00001
 729,0.00001081,-0.00001070,-0.00001652,0.00001061,-0.00000235,-0.00000
 154,-0.00000420,0.00000146,0.00000052,-0.00000201,-0.00000361,0.000004
 46,-0.00000496,0.00000174,0.00000232,0.00000444,-0.00000552,0.00000183
 ,-0.00001472,0.00000086,0.00000089,0.00000094,0.00000055,-0.00000224,0
 .00000259,-0.00000178,-0.00000287,-0.00000369,0.00000109,0.00000023,-0
 .00000019,0.00000519,0.00000019,0.00001270,-0.00000384,-0.00009774,-0.
 00005500,0.00000393,0.00000030,0.00000069,-0.00301828,-0.00388384,0.00
 076397,-0.00000024,-0.00000993,-0.00000264,0.32640260,0.00002858,-0.00
 003553,0.00006380,-0.00016108,0.00001913,0.00088487,-0.00003924,-0.000
 00603,-0.00000602,-0.00000273,0.00000340,0.00000094,0.00001019,-0.0000
 0754,-0.00000496,0.00000057,-0.00000227,-0.00000115,0.00000624,-0.0000
 0911,-0.00001511,0.00001824,-0.00000088,-0.00002783,-0.00004682,0.0000
 8908,0.00007947,0.00000514,0.00032327,0.00052462,-0.00013246,-0.000161
 73,0.00005644,-0.00153277,-0.00247235,0.00113573,-0.00013205,0.0001697
 2,-0.00026613,0.00817225,-0.00218038,0.00153523,0.40082677,-0.42426900
 ,-0.03190198,0.00658070,-0.00016386,-0.00510703,0.00434874,0.00450488,
 0.00135385,0.00028792,-0.00013788,-0.00019789,-0.00096296,0.00008790,-
 0.00002207,-0.00075648,-0.00070977,0.00012326,0.00384810,0.00360028,-0
 .00255620,0.00036472,-0.00020828,0.00018784,0.00024800,0.00003134,0.00
 029074,-0.00004005,-0.00005913,0.00004498,0.00000768,0.00001637,0.0000
 3900,0.00002105,-0.00001409,0.00002051,-0.00000497,0.00000160,0.000001
 94,-0.00000389,-0.00001041,0.00000600,-0.00001004,-0.00000872,0.000003
 48,-0.00000160,-0.00000045,-0.00000155,0.00000120,0.,-0.00000085,-0.00
 000214,0.00000034,-0.00000195,0.00000161,0.00000004,0.00000227,-0.0000
 0260,0.00000058,-0.00000571,0.00000105,0.00000161,0.00000245,-0.000000
 07,-0.00000057,0.00000103,-0.00000026,-0.00000176,-0.00000151,0.000000
 74,0.00000018,0.00000029,0.00000274,0.00000042,0.00000528,0.00003033,-
 0.00008251,-0.00013169,0.00000327,-0.00000041,0.00000476,-0.00394500,-
 0.00243223,0.00052047,0.00000107,-0.00001684,0.00001347,-0.41703969,0.
 42414158,0.00020126,0.00002386,0.00000525,0.00005529,-0.00016775,-0.00
 017949,0.00000468,-0.00011103,-0.00001436,0.00002180,0.00000367,0.0000
 0401,0.00011619,0.00005749,-0.00000249,0.00000708,-0.00000400,0.000006
 33,-0.00004804,-0.00002535,-0.00001192,0.00018195,-0.00001689,-0.00001
 963,-0.00035434,0.00017050,-0.00001706,-0.00088278,0.00103639,-0.00042
 777,-0.00009279,0.00003058,0.00020214,0.00094549,0.00024341,0.00130269
 ,-0.00007902,-0.00014019,0.00040459,0.02203142,-0.02469041,0.00361838,
 0.02669382,-0.03363120,0.00254196,-0.02288733,0.02547882,0.00644291,-0
 .00331085,0.00144955,-0.00498585,-0.00103390,0.00115835,0.00034624,-0.
 00011065,0.00007464,-0.00150091,0.00011917,0.00010830,0.00003270,0.000
 68377,-0.00293009,-0.00571882,0.00115058,-0.00127610,0.00023704,-0.000
 12919,-0.00006067,-0.00041584,0.00011171,0.00011982,-0.00003147,-0.000
 07673,-0.00001915,0.00014020,0.00011495,0.00007673,-0.00011770,-0.0000
 2692,-0.00000696,0.00001453,-0.00001002,-0.00001120,0.00000049,-0.0000
 1227,0.00000226,-0.00001196,-0.00000606,-0.00000442,0.00000743,0.00000
 323,-0.00000164,-0.00000033,-0.00000146,-0.00000633,0.00000532,0.00000
 669,-0.00000802,-0.00001264,0.00001073,-0.00000988,0.00004870,-0.00000
 144,0.00001228,0.00000814,0.00000448,0.00000416,-0.00000500,0.00000090
 ,0.00000008,0.00001298,0.00000310,0.00000039,0.00000116,-0.00000844,0.
 00000753,-0.00004733,0.00002485,0.00009025,-0.00025781,0.00001574,-0.0
 0000498,0.00000414,0.00162572,-0.00037912,0.00169351,-0.00002357,0.000
 00941,0.00001146,-0.02503879,0.03334691,-0.00331388\\0.00616039,-0.002
 53861,0.00054823,-0.01418020,0.03479378,0.00343331,-0.12232850,-0.1011
 6828,-0.00068421,0.08964061,0.12448573,0.00217213,-0.12517358,-0.01192
 258,0.00729693,0.14998297,-0.02054085,-0.00907153,-0.05855913,0.136586
 11,0.00659026,0.09506126,0.10042100,-0.00096316,0.01838654,0.02896944,
 -0.00288514,0.09010532,0.09916110,-0.01302036,-0.00864392,0.00179633,-
 0.00148954,0.01463303,-0.07333875,-0.06669950,0.00676137,0.06629194,0.
 05855147,-0.00330042,0.00233408,0.01654528,-0.08520133,0.09754648,0.01
 975563,-0.03495634,0.05749801,0.11140595,0.05796297,-0.04753884,0.1027
 1563,-0.06290568,0.05049536,-0.12420637,0.08328144,-0.09583493,0.00201
 377,-0.09850305,0.11329545,0.00597682,0.04595489,-0.06767648,-0.122382
 87,-0.03614312,0.06064633,0.13226211,0.09011437,0.02723710,0.06504747,
 -0.00545850,-0.08093206,-0.06646185,-0.09248411,0.04254440,0.00572757,
 0.10850314,0.03986554,0.03922300,-0.08817618,0.05373020,-0.00004241,-0
 .01432656,-0.08895630,-0.05094152,-0.00267114,0.00055572,0.00264952,-0
 .04865302,-0.08677728,-0.08611896,0.05237432,0.10844881,0.08827621,-0.
 00806607,-0.12807575,0.04737598,0.01158998,0.13897262,-0.05332599,-0.0
 0308794,0.00496616,-0.01594809,0.05055388,0.09928686,0.09330529,-0.049
 70540,-0.11299539,-0.08708802,0.00475854,0.12585877,-0.07017807,-0.012
 09996,-0.13694033,0.05676572,0.00705647,-0.01627808,0.03220477,-0.1021
 1769,-0.11865965,0.01756074,0.05503804,-0.13909656,-0.00709054,0.03539
 411,-0.06138197,-0.13327400,-0.09599978,-0.11470787,0.00122441,0.09942
 795,-0.11042676,-0.00675604\\\@
 The archive entry for this job was punched.

 Writing a WFNX file to "ZAVDUX_Complex_6_Ligand_1_NN_Cu_oriented.wfx"


 Time has a wonderful way of weeding out the trivial.
                                -- Richard Ben Sapir
 Job cpu time:       0 days  1 hours 34 minutes 26.3 seconds.
 Elapsed time:       0 days  1 hours 34 minutes 52.9 seconds.
 File lengths (MBytes):  RWF=   1180 Int=      0 D2E=      0 Chk=     20 Scr=      8
 Normal termination of Gaussian 16 at Sat Mar  4 13:17:48 2023.
