 Entering Gaussian System, Link 0=g16
 Initial command:
 /ssoft/spack/external/gaussian/g16-C.01/avx2/g16/l1.exe "/scratch/lcmd/2387877/Gau-1723047.inp" -scrdir="/scratch/lcmd/2387877/"
 Entering Link 1 = /ssoft/spack/external/gaussian/g16-C.01/avx2/g16/l1.exe PID=   1723060.
  
 Copyright (c) 1988-2019, Gaussian, Inc.  All Rights Reserved.
  
 This is part of the Gaussian(R) 16 program.  It is based on
 the Gaussian(R) 09 system (copyright 2009, Gaussian, Inc.),
 the Gaussian(R) 03 system (copyright 2003, Gaussian, Inc.),
 the Gaussian(R) 98 system (copyright 1998, Gaussian, Inc.),
 the Gaussian(R) 94 system (copyright 1995, Gaussian, Inc.),
 the Gaussian 92(TM) system (copyright 1992, Gaussian, Inc.),
 the Gaussian 90(TM) system (copyright 1990, Gaussian, Inc.),
 the Gaussian 88(TM) system (copyright 1988, Gaussian, Inc.),
 the Gaussian 86(TM) system (copyright 1986, Carnegie Mellon
 University), and the Gaussian 82(TM) system (copyright 1983,
 Carnegie Mellon University). Gaussian is a federally registered
 trademark of Gaussian, Inc.
  
 This software contains proprietary and confidential information,
 including trade secrets, belonging to Gaussian, Inc.
  
 This software is provided under written license and may be
 used, copied, transmitted, or stored only in accord with that
 written license.
  
 The following legend is applicable only to US Government
 contracts under FAR:
  
                    RESTRICTED RIGHTS LEGEND
  
 Use, reproduction and disclosure by the US Government is
 subject to restrictions as set forth in subparagraphs (a)
 and (c) of the Commercial Computer Software - Restricted
 Rights clause in FAR 52.227-19.
  
 Gaussian, Inc.
 340 Quinnipiac St., Bldg. 40, Wallingford CT 06492
  
  
 ---------------------------------------------------------------
 Warning -- This program may not be used in any manner that
 competes with the business of Gaussian, Inc. or will provide
 assistance to any competitor of Gaussian, Inc.  The licensee
 of this program is prohibited from giving any competitor of
 Gaussian, Inc. access to this program.  By using this program,
 the user acknowledges that Gaussian, Inc. is engaged in the
 business of creating and licensing software in the field of
 computational chemistry and represents and warrants to the
 licensee that it is not a competitor of Gaussian, Inc. and that
 it will not use this program in any manner prohibited above.
 ---------------------------------------------------------------
  

 Cite this work as:
 Gaussian 16, Revision C.01,
 M. J. Frisch, G. W. Trucks, H. B. Schlegel, G. E. Scuseria, 
 M. A. Robb, J. R. Cheeseman, G. Scalmani, V. Barone, 
 G. A. Petersson, H. Nakatsuji, X. Li, M. Caricato, A. V. Marenich, 
 J. Bloino, B. G. Janesko, R. Gomperts, B. Mennucci, H. P. Hratchian, 
 J. V. Ortiz, A. F. Izmaylov, J. L. Sonnenberg, D. Williams-Young, 
 F. Ding, F. Lipparini, F. Egidi, J. Goings, B. Peng, A. Petrone, 
 T. Henderson, D. Ranasinghe, V. G. Zakrzewski, J. Gao, N. Rega, 
 G. Zheng, W. Liang, M. Hada, M. Ehara, K. Toyota, R. Fukuda, 
 J. Hasegawa, M. Ishida, T. Nakajima, Y. Honda, O. Kitao, H. Nakai, 
 T. Vreven, K. Throssell, J. A. Montgomery, Jr., J. E. Peralta, 
 F. Ogliaro, M. J. Bearpark, J. J. Heyd, E. N. Brothers, K. N. Kudin, 
 V. N. Staroverov, T. A. Keith, R. Kobayashi, J. Normand, 
 K. Raghavachari, A. P. Rendell, J. C. Burant, S. S. Iyengar, 
 J. Tomasi, M. Cossi, J. M. Millam, M. Klene, C. Adamo, R. Cammi, 
 J. W. Ochterski, R. L. Martin, K. Morokuma, O. Farkas, 
 J. B. Foresman, and D. J. Fox, Gaussian, Inc., Wallingford CT, 2019.
 
 ******************************************
 Gaussian 16:  ES64L-G16RevC.01  3-Jul-2019
                 6-Mar-2023 
 ******************************************
 %nprocshared=1
 Will use up to    1 processors via shared memory.
 %mem=8000MB
 %chk=ZIVZUC_Complex_3_Ligand_2_ON_Cu_oriented.chk
 ----------------------------------------------------------------------
 #p pop=(regular,nbo,savenbos) freq=noraman def2svp empiricaldispersion
 =gd3bj output=wfx pbe1pbe
 ----------------------------------------------------------------------
 1/10=4,30=1,38=1/1,3;
 2/12=2,17=6,18=5,40=1/2;
 3/5=43,7=101,11=2,25=1,30=1,71=2,74=-13,124=41,140=1/1,2,3;
 4//1;
 5/5=2,38=5,98=1/2;
 8/6=4,10=90,11=11/1;
 11/6=1,8=1,9=11,15=111,16=1/1,2,10;
 10/6=1/2;
 6/28=1,40=1,73=1/1,7;
 7/8=1,10=1,25=1/1,2,3,16;
 1/10=4,30=1/3;
 99/6=200/99;
 Leave Link    1 at Mon Mar  6 10:21:49 2023, MaxMem=  1048576000 cpu:               0.0 elap:               0.2
 (Enter /ssoft/spack/external/gaussian/g16-C.01/avx2/g16/l101.exe)
 ----------------------------------------
 ZIVZUC_Complex_3_Ligand_2_ON_Cu_oriented
 ----------------------------------------
 Symbolic Z-matrix:
 Charge = -1 Multiplicity = 1
 O                    -0.11706  -1.93909   0. 
 N                    -1.99551  -0.10369   0. 
 C                    -2.36024  -1.39521  -0.64796 
 H                    -2.49135   0.46761  -0.45275 
 H                    -2.20796  -0.12728   0.85646 
 C                    -1.23571  -2.39264  -0.39019 
 O                    -1.48265  -3.58507  -0.61981 
 C                     0.36907   1.39089  -3.96953 
 C                    -0.91957   1.87341  -3.65342 
 H                    -1.15168   2.78     -3.81938 
 C                    -1.83027   1.01052  -3.10318 
 H                    -2.70356   1.33248  -2.91213 
 C                    -1.53228  -0.31572  -2.81291 
 C                    -0.26608  -0.77915  -3.11784 
 H                    -0.03619  -1.68307  -2.93627 
 C                     0.67828   0.07905  -3.69011 
 C                    -2.58346  -1.19648  -2.14988 
 H                    -2.58377  -2.08237  -2.59342 
 H                    -3.47559  -0.78995  -2.28961 
 O                     1.31148   2.18353  -4.54487 
 H                     0.92445   2.926    -4.45935 
 H                    -3.20352  -1.74089  -0.23577 
 H                     1.54679  -0.24923  -3.89009 
 
 ITRead=  0  0  0  0  0  0  0  0  0  0  0  0  0  0  0  0  0  0  0  0
 ITRead=  0  0  0
 MicOpt= -1 -1 -1 -1 -1 -1 -1 -1 -1 -1 -1 -1 -1 -1 -1 -1 -1 -1 -1 -1
 MicOpt= -1 -1 -1
 NAtoms=     23 NQM=       23 NQMF=       0 NMMI=      0 NMMIF=      0
                NMic=       0 NMicF=      0.
                    Isotopes and Nuclear Properties:
 (Nuclear quadrupole moments (NQMom) in fm**2, nuclear magnetic moments (NMagM)
  in nuclear magnetons)

  Atom         1           2           3           4           5           6           7           8           9          10
 IAtWgt=          16          14          12           1           1          12          16          12          12           1
 AtmWgt=  15.9949146  14.0030740  12.0000000   1.0078250   1.0078250  12.0000000  15.9949146  12.0000000  12.0000000   1.0078250
 NucSpn=           0           2           0           1           1           0           0           0           0           1
 AtZEff=  -0.0000000  -0.0000000  -0.0000000  -0.0000000  -0.0000000  -0.0000000  -0.0000000  -0.0000000  -0.0000000  -0.0000000
 NQMom=    0.0000000   2.0440000   0.0000000   0.0000000   0.0000000   0.0000000   0.0000000   0.0000000   0.0000000   0.0000000
 NMagM=    0.0000000   0.4037610   0.0000000   2.7928460   2.7928460   0.0000000   0.0000000   0.0000000   0.0000000   2.7928460
 AtZNuc=   8.0000000   7.0000000   6.0000000   1.0000000   1.0000000   6.0000000   8.0000000   6.0000000   6.0000000   1.0000000

  Atom        11          12          13          14          15          16          17          18          19          20
 IAtWgt=          12           1          12          12           1          12          12           1           1          16
 AtmWgt=  12.0000000   1.0078250  12.0000000  12.0000000   1.0078250  12.0000000  12.0000000   1.0078250   1.0078250  15.9949146
 NucSpn=           0           1           0           0           1           0           0           1           1           0
 AtZEff=  -0.0000000  -0.0000000  -0.0000000  -0.0000000  -0.0000000  -0.0000000  -0.0000000  -0.0000000  -0.0000000  -0.0000000
 NQMom=    0.0000000   0.0000000   0.0000000   0.0000000   0.0000000   0.0000000   0.0000000   0.0000000   0.0000000   0.0000000
 NMagM=    0.0000000   2.7928460   0.0000000   0.0000000   2.7928460   0.0000000   0.0000000   2.7928460   2.7928460   0.0000000
 AtZNuc=   6.0000000   1.0000000   6.0000000   6.0000000   1.0000000   6.0000000   6.0000000   1.0000000   1.0000000   8.0000000

  Atom        21          22          23
 IAtWgt=           1           1           1
 AtmWgt=   1.0078250   1.0078250   1.0078250
 NucSpn=           1           1           1
 AtZEff=  -0.0000000  -0.0000000  -0.0000000
 NQMom=    0.0000000   0.0000000   0.0000000
 NMagM=    2.7928460   2.7928460   2.7928460
 AtZNuc=   1.0000000   1.0000000   1.0000000
 Leave Link  101 at Mon Mar  6 10:21:49 2023, MaxMem=  1048576000 cpu:               0.1 elap:               0.1
 (Enter /ssoft/spack/external/gaussian/g16-C.01/avx2/g16/l103.exe)

 GradGradGradGradGradGradGradGradGradGradGradGradGradGradGradGradGradGrad
 Berny optimization.
 Initialization pass.
 Trust Radius=3.00D-01 FncErr=1.00D-07 GrdErr=1.00D-07 EigMax=2.50D+02 EigMin=1.00D-04
 Number of steps in this run=      2 maximum allowed number of steps=      2.
 GradGradGradGradGradGradGradGradGradGradGradGradGradGradGradGradGradGrad

 Leave Link  103 at Mon Mar  6 10:21:49 2023, MaxMem=  1048576000 cpu:               0.0 elap:               0.0
 (Enter /ssoft/spack/external/gaussian/g16-C.01/avx2/g16/l202.exe)
                          Input orientation:                          
 ---------------------------------------------------------------------
 Center     Atomic      Atomic             Coordinates (Angstroms)
 Number     Number       Type             X           Y           Z
 ---------------------------------------------------------------------
      1          8           0       -0.117062   -1.939087    0.000000
      2          7           0       -1.995507   -0.103689    0.000000
      3          6           0       -2.360238   -1.395212   -0.647965
      4          1           0       -2.491348    0.467608   -0.452749
      5          1           0       -2.207960   -0.127277    0.856456
      6          6           0       -1.235710   -2.392635   -0.390189
      7          8           0       -1.482654   -3.585072   -0.619809
      8          6           0        0.369071    1.390891   -3.969527
      9          6           0       -0.919573    1.873407   -3.653418
     10          1           0       -1.151677    2.780002   -3.819381
     11          6           0       -1.830275    1.010524   -3.103181
     12          1           0       -2.703559    1.332483   -2.912133
     13          6           0       -1.532282   -0.315722   -2.812910
     14          6           0       -0.266085   -0.779154   -3.117837
     15          1           0       -0.036187   -1.683071   -2.936271
     16          6           0        0.678278    0.079047   -3.690109
     17          6           0       -2.583461   -1.196480   -2.149882
     18          1           0       -2.583765   -2.082368   -2.593424
     19          1           0       -3.475594   -0.789950   -2.289605
     20          8           0        1.311482    2.183533   -4.544865
     21          1           0        0.924452    2.926000   -4.459345
     22          1           0       -3.203520   -1.740887   -0.235774
     23          1           0        1.546792   -0.249231   -3.890091
 ---------------------------------------------------------------------
                    Distance matrix (angstroms):
                    1          2          3          4          5
     1  O    0.000000
     2  N    2.626261   0.000000
     3  C    2.397395   1.490275   0.000000
     4  H    3.410923   0.881600   1.877604   0.000000
     5  H    2.896209   0.882728   1.973354   1.465679   0.000000
     6  C    1.268593   2.443116   1.525079   3.124345   2.762470
     7  O    2.226718   3.573123   2.359329   4.179663   3.829069
     8  C    5.204058   4.856145   5.122916   4.626249   5.677678
     9  C    5.341029   4.291154   4.668204   3.832888   5.099180
    10  H    6.158564   4.859568   5.380605   4.298384   5.606377
    11  C    4.611403   3.301289   3.478004   2.785062   4.137145
    12  H    5.086615   3.323318   3.561550   2.615648   4.071705
    13  C    3.542686   2.858671   2.556912   2.665291   3.735813
    14  C    3.329949   3.628783   3.296252   3.689025   4.471110
    15  H    2.948520   3.867179   3.274206   4.101356   4.639167
    16  C    4.280460   4.560639   4.545401   4.547309   5.389266
    17  C    3.355083   2.482312   1.531365   2.378641   3.212828
    18  H    3.582039   3.314674   2.075321   3.330677   3.983124
    19  H    4.224044   2.811388   2.074932   2.433975   3.455970
    20  O    6.300200   6.068225   6.440091   5.843914   6.848400
    21  H    6.681286   6.131145   6.632396   5.810697   6.884203
    22  H    3.101789   2.048244   1.000258   2.330604   2.188114
    23  H    4.555966   5.263257   5.204761   5.351239   6.053324
                    6          7          8          9         10
     6  C    0.000000
     7  O    1.239198   0.000000
     8  C    5.449959   6.277714   0.000000
     9  C    5.380309   6.270154   1.411861   0.000000
    10  H    6.206658   7.131688   2.065151   0.950438   0.000000
    11  C    4.392645   5.235215   2.394233   1.369929   2.025954
    12  H    4.731943   5.561268   3.250007   2.006167   2.307975
    13  C    3.204856   3.937106   2.804538   2.423665   3.277401
    14  C    3.314145   3.948843   2.416173   2.783877   3.734171
    15  H    2.902563   3.328043   3.268194   3.734060   4.684360
    16  C    4.545552   5.246155   1.376451   2.402957   3.265058
    17  C    2.518678   3.042741   4.327012   3.801756   4.544188
    18  H    2.601492   2.713986   4.761977   4.420552   5.215026
    19  H    3.345663   3.817425   4.728599   3.935314   4.526076
    20  O    6.685120   7.515987   1.359203   2.422491   2.636144
    21  H    7.036492   7.932859   1.704386   2.271101   2.177425
    22  H    2.078676   2.551446   6.042544   5.473557   6.122968
    23  H    4.958408   5.567775   2.020726   3.262600   4.057461
                   11         12         13         14         15
    11  C    0.000000
    12  H    0.950148   0.000000
    13  C    1.389959   2.024429   0.000000
    14  C    2.376942   3.231501   1.382391   0.000000
    15  H    3.240689   4.026043   2.030557   0.950203   0.000000
    16  C    2.739520   3.689603   2.410788   1.398509   2.045432
    17  C    2.519312   2.644069   1.523259   2.545846   2.709942
    18  H    3.223908   3.431782   2.067566   2.710170   2.601373
    19  H    2.571126   2.342712   2.067656   3.314670   3.611837
    20  O    3.650347   4.417086   4.163284   3.647278   4.399365
    21  H    3.618943   4.253895   4.388058   4.116453   4.948345
    22  H    4.204532   4.105905   3.386113   4.226079   4.162694
    23  H    3.689280   4.639364   3.262734   2.040519   2.339122
                   16         17         18         19         20
    16  C    0.000000
    17  C    3.825992   0.000000
    18  H    4.063910   0.990721   0.000000
    19  H    4.468918   0.990298   1.599378   0.000000
    20  O    2.358053   5.686036   6.097457   6.069917   0.000000
    21  H    2.959301   5.885058   6.393200   6.154385   0.841643
    22  H    5.505720   2.084385   2.461547   2.279589   7.372555
    23  H    0.949776   4.580895   4.701408   5.298896   2.530304
                   21         22         23
    21  H    0.000000
    22  H    7.527187   0.000000
    23  H    3.285338   6.176126   0.000000
 Stoichiometry    C9H10NO3(1-)
 Framework group  C1[X(C9H10NO3)]
 Deg. of freedom    63
 Full point group                 C1      NOp   1
 Largest Abelian subgroup         C1      NOp   1
 Largest concise Abelian subgroup C1      NOp   1
                         Standard orientation:                         
 ---------------------------------------------------------------------
 Center     Atomic      Atomic             Coordinates (Angstroms)
 Number     Number       Type             X           Y           Z
 ---------------------------------------------------------------------
      1          8           0       -2.167972   -1.321284    1.144363
      2          7           0       -1.582567    1.230215    1.355078
      3          6           0       -2.155733    0.809353    0.045393
      4          1           0       -1.073951    1.909302    1.115560
      5          1           0       -2.231270    1.473311    1.902160
      6          6           0       -2.606244   -0.642645    0.166255
      7          8           0       -3.345015   -1.075114   -0.729735
      8          6           0        2.835140   -0.345137    0.096402
      9          6           0        2.507276    1.027911    0.072013
     10          1           0        3.145847    1.683185    0.329257
     11          6           0        1.251312    1.399028   -0.329895
     12          1           0        1.040867    2.324855   -0.366491
     13          6           0        0.271755    0.479863   -0.687092
     14          6           0        0.597395   -0.863201   -0.653264
     15          1           0       -0.050323   -1.513838   -0.898248
     16          6           0        1.876257   -1.267260   -0.256934
     17          6           0       -1.118563    0.970770   -1.069641
     18          1           0       -1.425738    0.470102   -1.867452
     19          1           0       -1.062605    1.927702   -1.318319
     20          8           0        4.071171   -0.782002    0.455307
     21          1           0        4.381319   -0.058794    0.753874
     22          1           0       -2.949848    1.380899   -0.162531
     23          1           0        2.086625   -2.193118   -0.232276
 ---------------------------------------------------------------------
 Rotational constants (GHZ):           1.7166254           0.4614620           0.4230132
 Leave Link  202 at Mon Mar  6 10:21:49 2023, MaxMem=  1048576000 cpu:               0.0 elap:               0.0
 (Enter /ssoft/spack/external/gaussian/g16-C.01/avx2/g16/l301.exe)
 Standard basis: def2SVP (5D, 7F)
 Ernie: Thresh=  0.10000D-02 Tol=  0.10000D-05 Strict=F.
 There are   245 symmetry adapted cartesian basis functions of A   symmetry.
 There are   232 symmetry adapted basis functions of A   symmetry.
   232 basis functions,   395 primitive gaussians,   245 cartesian basis functions
    48 alpha electrons       48 beta electrons
       nuclear repulsion energy       781.5331917127 Hartrees.
 IExCor= 1009 DFT=T Ex+Corr=PBE1PBE ExCW=0 ScaHFX=  0.250000
 ScaDFX=  0.750000  0.750000  1.000000  1.000000 ScalE2=  1.000000  1.000000
 IRadAn=      5 IRanWt=     -1 IRanGd=            0 ICorTp=0 IEmpDi=141
 NAtoms=   23 NActive=   23 NUniq=   23 SFac= 1.00D+00 NAtFMM=   60 NAOKFM=F Big=F
 Integral buffers will be    131072 words long.
 Raffenetti 2 integral format.
 Two-electron integral symmetry is turned on.
 R6Disp:  Grimme-D3(BJ) Dispersion energy=       -0.0238028813 Hartrees.
 Nuclear repulsion after empirical dispersion term =      781.5093888314 Hartrees.
 Leave Link  301 at Mon Mar  6 10:21:49 2023, MaxMem=  1048576000 cpu:               0.0 elap:               0.1
 (Enter /ssoft/spack/external/gaussian/g16-C.01/avx2/g16/l302.exe)
 NPDir=0 NMtPBC=     1 NCelOv=     1 NCel=       1 NClECP=     1 NCelD=      1
         NCelK=      1 NCelE2=     1 NClLst=     1 CellRange=     0.0.
 One-electron integrals computed using PRISM.
 One-electron integral symmetry used in STVInt
   1 Symmetry operations used in ECPInt.
 ECPInt:  NShTT=    5886 NPrTT=   21520 LenC2=    5663 LenP2D=   15630.
 LDataN:  DoStor=T MaxTD1= 4 Len=   56
 NBasis=   232 RedAO= T EigKep=  2.46D-04  NBF=   232
 NBsUse=   232 1.00D-06 EigRej= -1.00D+00 NBFU=   232
 Precomputing XC quadrature grid using
 IXCGrd= 4 IRadAn=           5 IRanWt=          -1 IRanGd=           0 AccXCQ= 0.00D+00.
 Generated NRdTot=       0 NPtTot=           0 NUsed=           0 NTot=          32
 NSgBfM=   244   244   244   244   244 MxSgAt=    23 MxSgA2=    23.
 Leave Link  302 at Mon Mar  6 10:21:49 2023, MaxMem=  1048576000 cpu:               0.5 elap:               0.5
 (Enter /ssoft/spack/external/gaussian/g16-C.01/avx2/g16/l303.exe)
 DipDrv:  MaxL=1.
 Leave Link  303 at Mon Mar  6 10:21:49 2023, MaxMem=  1048576000 cpu:               0.0 elap:               0.0
 (Enter /ssoft/spack/external/gaussian/g16-C.01/avx2/g16/l401.exe)
 ExpMin= 1.22D-01 ExpMax= 2.27D+03 ExpMxC= 3.41D+02 IAcc=3 IRadAn=         5 AccDes= 0.00D+00
 Harris functional with IExCor= 1009 and IRadAn=       5 diagonalized for initial guess.
 HarFok:  IExCor= 1009 AccDes= 0.00D+00 IRadAn=         5 IDoV= 1 UseB2=F ITyADJ=14
 ICtDFT=  3500011 ScaDFX=  1.000000  1.000000  1.000000  1.000000
 FoFCou: FMM=F IPFlag=           0 FMFlag=      100000 FMFlg1=           0
         NFxFlg=           0 DoJE=T BraDBF=F KetDBF=T FulRan=T
         wScrn=  0.000000 ICntrl=       500 IOpCl=  0 I1Cent=   200000004 NGrid=           0
         NMat0=    1 NMatS0=      1 NMatT0=    0 NMatD0=    1 NMtDS0=    0 NMtDT0=    0
 Petite list used in FoFCou.
 Harris En= -628.558666683820    
 JPrj=0 DoOrth=F DoCkMO=F.
 Leave Link  401 at Mon Mar  6 10:21:53 2023, MaxMem=  1048576000 cpu:               3.9 elap:               4.0
 (Enter /ssoft/spack/external/gaussian/g16-C.01/avx2/g16/l502.exe)
 Keep R1 ints in memory in canonical form, NReq=372715378.
 FoFCou: FMM=F IPFlag=           0 FMFlag=           0 FMFlg1=           0
         NFxFlg=           0 DoJE=F BraDBF=F KetDBF=F FulRan=T
         wScrn=  0.000000 ICntrl=       600 IOpCl=  0 I1Cent=           0 NGrid=           0
         NMat0=    1 NMatS0=  27028 NMatT0=    0 NMatD0=    1 NMtDS0=    0 NMtDT0=    0
 Symmetry not used in FoFCou.
 Two-electron integral symmetry not used.
 Closed shell SCF:
 Using DIIS extrapolation, IDIIS=  1040.
 NGot=  1048576000 LenX=   683181356 LenY=   683120890
 Requested convergence on RMS density matrix=1.00D-08 within 128 cycles.
 Requested convergence on MAX density matrix=1.00D-06.
 Requested convergence on             energy=1.00D-06.
 No special actions if energy rises.
 Integral accuracy reduced to 1.0D-05 until final iterations.

 Cycle   1  Pass 0  IDiag  1:
 E= -627.718441152770    
 DIIS: error= 3.15D-02 at cycle   1 NSaved=   1.
 NSaved= 1 IEnMin= 1 EnMin= -627.718441152770     IErMin= 1 ErrMin= 3.15D-02
 ErrMax= 3.15D-02  0.00D+00 EMaxC= 1.00D-01 BMatC= 4.35D-01 BMatP= 4.35D-01
 IDIUse=3 WtCom= 6.85D-01 WtEn= 3.15D-01
 Coeff-Com:  0.100D+01
 Coeff-En:   0.100D+01
 Coeff:      0.100D+01
 Gap=     0.250 Goal=   None    Shift=    0.000
 GapD=    0.250 DampG=1.000 DampE=0.500 DampFc=0.5000 IDamp=-1.
 Damping current iteration by 5.00D-01
 RMSDP=3.03D-02 MaxDP=1.82D+00              OVMax= 9.90D-01

 Cycle   2  Pass 0  IDiag  1:
 E= -627.435625718749     Delta-E=        0.282815434021 Rises=F Damp=T
 DIIS: error= 2.18D-02 at cycle   2 NSaved=   2.
 NSaved= 2 IEnMin= 1 EnMin= -627.718441152770     IErMin= 2 ErrMin= 2.18D-02
 ErrMax= 2.18D-02  0.00D+00 EMaxC= 1.00D-01 BMatC= 1.48D-01 BMatP= 4.35D-01
 IDIUse=3 WtCom= 7.82D-01 WtEn= 2.18D-01
 Coeff-Com:  0.313D+00 0.687D+00
 Coeff-En:   0.702D+00 0.298D+00
 Coeff:      0.398D+00 0.602D+00
 Gap=    -0.413 Goal=   None    Shift=    0.000
 RMSDP=1.50D-02 MaxDP=9.02D-01 DE= 2.83D-01 OVMax= 7.38D-01

 Cycle   3  Pass 0  IDiag  1:
 E= -627.938495219706     Delta-E=       -0.502869500956 Rises=F Damp=F
 DIIS: error= 2.53D-02 at cycle   3 NSaved=   3.
 NSaved= 3 IEnMin= 3 EnMin= -627.938495219706     IErMin= 2 ErrMin= 2.18D-02
 ErrMax= 2.53D-02  0.00D+00 EMaxC= 1.00D-01 BMatC= 1.86D-01 BMatP= 1.48D-01
 IDIUse=2 WtCom= 0.00D+00 WtEn= 1.00D+00
 EnCoef did     2 forward-backward iterations
 Coeff-En:   0.578D-01 0.117D+00 0.825D+00
 Coeff:      0.578D-01 0.117D+00 0.825D+00
 Gap=     0.453 Goal=   None    Shift=    0.000
 RMSDP=8.14D-03 MaxDP=3.14D-01 DE=-5.03D-01 OVMax= 9.56D-01

 Cycle   4  Pass 0  IDiag  1:
 E= -626.048597575875     Delta-E=        1.889897643831 Rises=F Damp=F
 DIIS: error= 7.49D-02 at cycle   4 NSaved=   4.
 NSaved= 4 IEnMin= 3 EnMin= -627.938495219706     IErMin= 2 ErrMin= 2.18D-02
 ErrMax= 7.49D-02  0.00D+00 EMaxC= 1.00D-01 BMatC= 1.22D+00 BMatP= 1.48D-01
 IDIUse=2 WtCom= 0.00D+00 WtEn= 1.00D+00
 Coeff-En:   0.000D+00 0.000D+00 0.865D+00 0.135D+00
 Coeff:      0.000D+00 0.000D+00 0.865D+00 0.135D+00
 Gap=     0.025 Goal=   None    Shift=    0.000
 RMSDP=7.28D-03 MaxDP=2.56D-01 DE= 1.89D+00 OVMax= 9.95D-01

 Cycle   5  Pass 0  IDiag  1:
 E= -628.032805025365     Delta-E=       -1.984207449490 Rises=F Damp=F
 DIIS: error= 1.94D-02 at cycle   5 NSaved=   5.
 NSaved= 5 IEnMin= 5 EnMin= -628.032805025365     IErMin= 5 ErrMin= 1.94D-02
 ErrMax= 1.94D-02  0.00D+00 EMaxC= 1.00D-01 BMatC= 1.03D-01 BMatP= 1.48D-01
 IDIUse=3 WtCom= 8.06D-01 WtEn= 1.94D-01
 Coeff-Com:  0.485D-01 0.206D+00 0.401D+00 0.203D-01 0.324D+00
 Coeff-En:   0.000D+00 0.000D+00 0.339D+00 0.000D+00 0.661D+00
 Coeff:      0.391D-01 0.166D+00 0.389D+00 0.163D-01 0.390D+00
 Gap=     0.159 Goal=   None    Shift=    0.000
 RMSDP=2.27D-03 MaxDP=5.03D-02 DE=-1.98D+00 OVMax= 1.25D-01

 Cycle   6  Pass 0  IDiag  1:
 E= -628.110981167224     Delta-E=       -0.078176141859 Rises=F Damp=F
 DIIS: error= 5.65D-03 at cycle   6 NSaved=   6.
 NSaved= 6 IEnMin= 6 EnMin= -628.110981167224     IErMin= 6 ErrMin= 5.65D-03
 ErrMax= 5.65D-03  0.00D+00 EMaxC= 1.00D-01 BMatC= 1.17D-02 BMatP= 1.03D-01
 IDIUse=3 WtCom= 9.44D-01 WtEn= 5.65D-02
 Coeff-Com: -0.300D-01 0.821D-01 0.585D-01-0.634D-02 0.231D+00 0.665D+00
 Coeff-En:   0.000D+00 0.000D+00 0.000D+00 0.000D+00 0.120D+00 0.880D+00
 Coeff:     -0.283D-01 0.775D-01 0.552D-01-0.598D-02 0.225D+00 0.677D+00
 Gap=     0.134 Goal=   None    Shift=    0.000
 RMSDP=7.19D-04 MaxDP=1.42D-02 DE=-7.82D-02 OVMax= 4.71D-02

 Cycle   7  Pass 0  IDiag  1:
 E= -628.123480972096     Delta-E=       -0.012499804871 Rises=F Damp=F
 DIIS: error= 1.38D-03 at cycle   7 NSaved=   7.
 NSaved= 7 IEnMin= 7 EnMin= -628.123480972096     IErMin= 7 ErrMin= 1.38D-03
 ErrMax= 1.38D-03  0.00D+00 EMaxC= 1.00D-01 BMatC= 6.72D-04 BMatP= 1.17D-02
 IDIUse=3 WtCom= 9.86D-01 WtEn= 1.38D-02
 Coeff-Com: -0.223D-01 0.421D-01-0.219D-01-0.614D-02 0.737D-01 0.357D+00
 Coeff-Com:  0.577D+00
 Coeff-En:   0.000D+00 0.000D+00 0.000D+00 0.000D+00 0.000D+00 0.000D+00
 Coeff-En:   0.100D+01
 Coeff:     -0.220D-01 0.415D-01-0.216D-01-0.605D-02 0.727D-01 0.352D+00
 Coeff:      0.583D+00
 Gap=     0.129 Goal=   None    Shift=    0.000
 RMSDP=1.82D-04 MaxDP=8.75D-03 DE=-1.25D-02 OVMax= 6.55D-03

 Cycle   8  Pass 0  IDiag  1:
 E= -628.124025729102     Delta-E=       -0.000544757007 Rises=F Damp=F
 DIIS: error= 6.40D-04 at cycle   8 NSaved=   8.
 NSaved= 8 IEnMin= 8 EnMin= -628.124025729102     IErMin= 8 ErrMin= 6.40D-04
 ErrMax= 6.40D-04  0.00D+00 EMaxC= 1.00D-01 BMatC= 1.11D-04 BMatP= 6.72D-04
 IDIUse=3 WtCom= 9.94D-01 WtEn= 6.40D-03
 Coeff-Com: -0.896D-02 0.144D-01-0.266D-01-0.223D-02-0.802D-02 0.592D-01
 Coeff-Com:  0.284D+00 0.688D+00
 Coeff-En:   0.000D+00 0.000D+00 0.000D+00 0.000D+00 0.000D+00 0.000D+00
 Coeff-En:   0.000D+00 0.100D+01
 Coeff:     -0.890D-02 0.144D-01-0.264D-01-0.222D-02-0.797D-02 0.588D-01
 Coeff:      0.282D+00 0.690D+00
 Gap=     0.126 Goal=   None    Shift=    0.000
 RMSDP=9.33D-05 MaxDP=2.68D-03 DE=-5.45D-04 OVMax= 5.51D-03

 Cycle   9  Pass 0  IDiag  1:
 E= -628.124155767404     Delta-E=       -0.000130038302 Rises=F Damp=F
 DIIS: error= 2.11D-04 at cycle   9 NSaved=   9.
 NSaved= 9 IEnMin= 9 EnMin= -628.124155767404     IErMin= 9 ErrMin= 2.11D-04
 ErrMax= 2.11D-04  0.00D+00 EMaxC= 1.00D-01 BMatC= 2.01D-05 BMatP= 1.11D-04
 IDIUse=3 WtCom= 9.98D-01 WtEn= 2.11D-03
 Coeff-Com: -0.307D-02 0.448D-02-0.968D-02-0.630D-04-0.873D-02-0.460D-02
 Coeff-Com:  0.195D-01 0.296D+00 0.706D+00
 Coeff-En:   0.000D+00 0.000D+00 0.000D+00 0.000D+00 0.000D+00 0.000D+00
 Coeff-En:   0.000D+00 0.000D+00 0.100D+01
 Coeff:     -0.306D-02 0.447D-02-0.966D-02-0.629D-04-0.871D-02-0.459D-02
 Coeff:      0.194D-01 0.296D+00 0.706D+00
 Gap=     0.126 Goal=   None    Shift=    0.000
 RMSDP=2.69D-05 MaxDP=6.60D-04 DE=-1.30D-04 OVMax= 1.18D-03

 Cycle  10  Pass 0  IDiag  1:
 E= -628.124172499870     Delta-E=       -0.000016732466 Rises=F Damp=F
 DIIS: error= 1.03D-04 at cycle  10 NSaved=  10.
 NSaved=10 IEnMin=10 EnMin= -628.124172499870     IErMin=10 ErrMin= 1.03D-04
 ErrMax= 1.03D-04  0.00D+00 EMaxC= 1.00D-01 BMatC= 3.03D-06 BMatP= 2.01D-05
 IDIUse=3 WtCom= 9.99D-01 WtEn= 1.03D-03
 Coeff-Com: -0.575D-03 0.135D-02-0.217D-02-0.191D-04-0.261D-02-0.851D-02
 Coeff-Com: -0.405D-01 0.433D-01 0.329D+00 0.681D+00
 Coeff-En:   0.000D+00 0.000D+00 0.000D+00 0.000D+00 0.000D+00 0.000D+00
 Coeff-En:   0.000D+00 0.000D+00 0.000D+00 0.100D+01
 Coeff:     -0.575D-03 0.134D-02-0.216D-02-0.190D-04-0.261D-02-0.850D-02
 Coeff:     -0.405D-01 0.432D-01 0.329D+00 0.681D+00
 Gap=     0.125 Goal=   None    Shift=    0.000
 RMSDP=1.48D-05 MaxDP=7.77D-04 DE=-1.67D-05 OVMax= 5.06D-04

 Cycle  11  Pass 0  IDiag  1:
 E= -628.124175627714     Delta-E=       -0.000003127844 Rises=F Damp=F
 DIIS: error= 2.56D-05 at cycle  11 NSaved=  11.
 NSaved=11 IEnMin=11 EnMin= -628.124175627714     IErMin=11 ErrMin= 2.56D-05
 ErrMax= 2.56D-05  0.00D+00 EMaxC= 1.00D-01 BMatC= 2.53D-07 BMatP= 3.03D-06
 IDIUse=1 WtCom= 1.00D+00 WtEn= 0.00D+00
 Coeff-Com: -0.202D-04 0.112D-03-0.819D-04 0.908D-05 0.418D-04-0.330D-02
 Coeff-Com: -0.223D-01-0.151D-01 0.592D-01 0.249D+00 0.732D+00
 Coeff:     -0.202D-04 0.112D-03-0.819D-04 0.908D-05 0.418D-04-0.330D-02
 Coeff:     -0.223D-01-0.151D-01 0.592D-01 0.249D+00 0.732D+00
 Gap=     0.125 Goal=   None    Shift=    0.000
 RMSDP=5.25D-06 MaxDP=1.49D-04 DE=-3.13D-06 OVMax= 2.38D-04

 Initial convergence to 1.0D-05 achieved.  Increase integral accuracy.
 Cycle  12  Pass 1  IDiag  1:
 E= -628.124192514636     Delta-E=       -0.000016886922 Rises=F Damp=F
 DIIS: error= 1.03D-05 at cycle   1 NSaved=   1.
 NSaved= 1 IEnMin= 1 EnMin= -628.124192514636     IErMin= 1 ErrMin= 1.03D-05
 ErrMax= 1.03D-05  0.00D+00 EMaxC= 1.00D-01 BMatC= 2.00D-08 BMatP= 2.00D-08
 IDIUse=1 WtCom= 1.00D+00 WtEn= 0.00D+00
 Coeff-Com:  0.100D+01
 Coeff:      0.100D+01
 Gap=     0.125 Goal=   None    Shift=    0.000
 RMSDP=5.25D-06 MaxDP=1.49D-04 DE=-1.69D-05 OVMax= 7.53D-05

 Cycle  13  Pass 1  IDiag  1:
 E= -628.124192508642     Delta-E=        0.000000005994 Rises=F Damp=F
 DIIS: error= 1.62D-05 at cycle   2 NSaved=   2.
 NSaved= 2 IEnMin= 1 EnMin= -628.124192514636     IErMin= 1 ErrMin= 1.03D-05
 ErrMax= 1.62D-05  0.00D+00 EMaxC= 1.00D-01 BMatC= 3.51D-08 BMatP= 2.00D-08
 IDIUse=1 WtCom= 1.00D+00 WtEn= 0.00D+00
 Coeff-Com:  0.576D+00 0.424D+00
 Coeff:      0.576D+00 0.424D+00
 Gap=     0.125 Goal=   None    Shift=    0.000
 RMSDP=9.65D-07 MaxDP=4.51D-05 DE= 5.99D-09 OVMax= 4.72D-05

 Cycle  14  Pass 1  IDiag  1:
 E= -628.124192536602     Delta-E=       -0.000000027960 Rises=F Damp=F
 DIIS: error= 1.84D-06 at cycle   3 NSaved=   3.
 NSaved= 3 IEnMin= 3 EnMin= -628.124192536602     IErMin= 3 ErrMin= 1.84D-06
 ErrMax= 1.84D-06  0.00D+00 EMaxC= 1.00D-01 BMatC= 7.99D-10 BMatP= 2.00D-08
 IDIUse=1 WtCom= 1.00D+00 WtEn= 0.00D+00
 Coeff-Com:  0.110D+00 0.148D+00 0.741D+00
 Coeff:      0.110D+00 0.148D+00 0.741D+00
 Gap=     0.125 Goal=   None    Shift=    0.000
 RMSDP=2.65D-07 MaxDP=7.87D-06 DE=-2.80D-08 OVMax= 1.47D-05

 Cycle  15  Pass 1  IDiag  1:
 E= -628.124192536895     Delta-E=       -0.000000000293 Rises=F Damp=F
 DIIS: error= 1.78D-06 at cycle   4 NSaved=   4.
 NSaved= 4 IEnMin= 4 EnMin= -628.124192536895     IErMin= 4 ErrMin= 1.78D-06
 ErrMax= 1.78D-06  0.00D+00 EMaxC= 1.00D-01 BMatC= 4.59D-10 BMatP= 7.99D-10
 IDIUse=1 WtCom= 1.00D+00 WtEn= 0.00D+00
 Coeff-Com: -0.287D-02 0.399D-01 0.476D+00 0.487D+00
 Coeff:     -0.287D-02 0.399D-01 0.476D+00 0.487D+00
 Gap=     0.125 Goal=   None    Shift=    0.000
 RMSDP=1.29D-07 MaxDP=4.27D-06 DE=-2.93D-10 OVMax= 9.59D-06

 Cycle  16  Pass 1  IDiag  1:
 E= -628.124192537241     Delta-E=       -0.000000000346 Rises=F Damp=F
 DIIS: error= 4.93D-07 at cycle   5 NSaved=   5.
 NSaved= 5 IEnMin= 5 EnMin= -628.124192537241     IErMin= 5 ErrMin= 4.93D-07
 ErrMax= 4.93D-07  0.00D+00 EMaxC= 1.00D-01 BMatC= 4.46D-11 BMatP= 4.59D-10
 IDIUse=1 WtCom= 1.00D+00 WtEn= 0.00D+00
 Coeff-Com: -0.143D-01 0.914D-02 0.223D+00 0.308D+00 0.474D+00
 Coeff:     -0.143D-01 0.914D-02 0.223D+00 0.308D+00 0.474D+00
 Gap=     0.125 Goal=   None    Shift=    0.000
 RMSDP=4.32D-08 MaxDP=1.40D-06 DE=-3.46D-10 OVMax= 2.40D-06

 Cycle  17  Pass 1  IDiag  1:
 E= -628.124192537274     Delta-E=       -0.000000000033 Rises=F Damp=F
 DIIS: error= 4.56D-08 at cycle   6 NSaved=   6.
 NSaved= 6 IEnMin= 6 EnMin= -628.124192537274     IErMin= 6 ErrMin= 4.56D-08
 ErrMax= 4.56D-08  0.00D+00 EMaxC= 1.00D-01 BMatC= 1.62D-12 BMatP= 4.46D-11
 IDIUse=1 WtCom= 1.00D+00 WtEn= 0.00D+00
 Coeff-Com: -0.622D-02 0.162D-02 0.707D-01 0.114D+00 0.228D+00 0.592D+00
 Coeff:     -0.622D-02 0.162D-02 0.707D-01 0.114D+00 0.228D+00 0.592D+00
 Gap=     0.125 Goal=   None    Shift=    0.000
 RMSDP=9.22D-09 MaxDP=1.99D-07 DE=-3.30D-11 OVMax= 4.15D-07

 SCF Done:  E(RPBE1PBE) =  -628.124192537     A.U. after   17 cycles
            NFock= 17  Conv=0.92D-08     -V/T= 2.0048
 KE= 6.251424250375D+02 PE=-3.047131673509D+03 EE= 1.012355667103D+03
 Leave Link  502 at Mon Mar  6 10:23:08 2023, MaxMem=  1048576000 cpu:              73.7 elap:              74.2
 (Enter /ssoft/spack/external/gaussian/g16-C.01/avx2/g16/l801.exe)
 DoSCS=F DFT=T ScalE2(SS,OS)=  1.000000  1.000000
 Range of M.O.s used for correlation:     1   232
 NBasis=   232 NAE=    48 NBE=    48 NFC=     0 NFV=     0
 NROrb=    232 NOA=    48 NOB=    48 NVA=   184 NVB=   184

 **** Warning!!: The largest alpha MO coefficient is  0.11666585D+02

 Leave Link  801 at Mon Mar  6 10:23:08 2023, MaxMem=  1048576000 cpu:               0.0 elap:               0.0
 (Enter /ssoft/spack/external/gaussian/g16-C.01/avx2/g16/l1101.exe)
 Using compressed storage, NAtomX=    23.
 Will process     24 centers per pass.
   1 Symmetry operations used in ECPInt.
 ECPInt:  NShTT=    5886 NPrTT=   21520 LenC2=    5663 LenP2D=   15630.
 LDataN:  DoStor=T MaxTD1= 5 Len=  102
 R6Disp: Adding Grimme-D3(BJ) dispersion energy 1st derivatives to the gradient.
 Leave Link 1101 at Mon Mar  6 10:23:08 2023, MaxMem=  1048576000 cpu:               0.2 elap:               0.2
 (Enter /ssoft/spack/external/gaussian/g16-C.01/avx2/g16/l1102.exe)
 Symmetrizing basis deriv contribution to polar:
 IMax=3 JMax=2 DiffMx= 0.00D+00
 Leave Link 1102 at Mon Mar  6 10:23:08 2023, MaxMem=  1048576000 cpu:               0.0 elap:               0.0
 (Enter /ssoft/spack/external/gaussian/g16-C.01/avx2/g16/l1110.exe)
 Forming Gx(P) for the SCF density, NAtomX=    23.
 Integral derivatives from FoFJK, PRISM(SPDF).
 Do as many integral derivatives as possible in FoFJK.
 G2DrvN: MDV=    1048573495.
 G2DrvN: will do    24 centers at a time, making    1 passes.
 Calling FoFCou, ICntrl=  3107 FMM=F I1Cent=   0 AccDes= 0.00D+00.
 FoFJK:  IHMeth= 1 ICntrl=    3107 DoSepK=F KAlg= 0 I1Cent=           0 FoldK=F
 IRaf=         0 NMat=       1 IRICut=       1 DoRegI=T DoRafI=F ISym2E= 0 IDoP0=0 IntGTp=1.
 FoFCou: FMM=F IPFlag=           0 FMFlag=      100000 FMFlg1=           0
         NFxFlg=           0 DoJE=F BraDBF=F KetDBF=F FulRan=T
         wScrn=  0.000000 ICntrl=      3107 IOpCl=  0 I1Cent=           0 NGrid=           0
         NMat0=    1 NMatS0=      1 NMatT0=    0 NMatD0=    1 NMtDS0=    0 NMtDT0=    0
 Symmetry not used in FoFCou.
 End of G2Drv F.D. properties file   721 does not exist.
 End of G2Drv F.D. properties file   722 does not exist.
 End of G2Drv F.D. properties file   788 does not exist.
 Leave Link 1110 at Mon Mar  6 10:27:04 2023, MaxMem=  1048576000 cpu:             235.5 elap:             236.5
 (Enter /ssoft/spack/external/gaussian/g16-C.01/avx2/g16/l1002.exe)
 Minotr:  Closed shell wavefunction.
          IDoAtm=11111111111111111111111
          Direct CPHF calculation.
          Differentiating once with respect to electric field.
                with respect to dipole field.
          Differentiating once with respect to nuclear coordinates.
          Requested convergence is 1.0D-08 RMS, and 1.0D-07 maximum.
          Secondary convergence is 1.0D-12 RMS, and 1.0D-12 maximum.
          NewPWx=T KeepS1=F KeepF1=F KeepIn=T MapXYZ=F SortEE=F KeepMc=T.
         6883 words used for storage of precomputed grid.
 Keep R1 ints in memory in canonical form, NReq=372725093.
 FoFCou: FMM=F IPFlag=           0 FMFlag=           0 FMFlg1=           0
         NFxFlg=           0 DoJE=F BraDBF=F KetDBF=F FulRan=T
         wScrn=  0.000000 ICntrl=       600 IOpCl=  0 I1Cent=           0 NGrid=           0
         NMat0=    1 NMatS0=  27028 NMatT0=    0 NMatD0=    1 NMtDS0=    0 NMtDT0=    0
 Symmetry not used in FoFCou.
 Two-electron integral symmetry not used.
          MDV=    1048576000 using IRadAn=       1.
          Solving linear equations simultaneously, MaxMat=       0.
          There are    72 degrees of freedom in the 1st order CPHF.  IDoFFX=6 NUNeed=     3.
     69 vectors produced by pass  0 Test12= 1.23D-14 1.39D-09 XBig12= 1.22D+02 6.32D+00.
 AX will form    69 AO Fock derivatives at one time.
     69 vectors produced by pass  1 Test12= 1.23D-14 1.39D-09 XBig12= 2.16D+01 1.03D+00.
     69 vectors produced by pass  2 Test12= 1.23D-14 1.39D-09 XBig12= 2.16D-01 5.14D-02.
     69 vectors produced by pass  3 Test12= 1.23D-14 1.39D-09 XBig12= 9.91D-04 5.51D-03.
     69 vectors produced by pass  4 Test12= 1.23D-14 1.39D-09 XBig12= 2.74D-06 2.23D-04.
     64 vectors produced by pass  5 Test12= 1.23D-14 1.39D-09 XBig12= 3.82D-09 5.57D-06.
     20 vectors produced by pass  6 Test12= 1.23D-14 1.39D-09 XBig12= 4.40D-12 2.10D-07.
      3 vectors produced by pass  7 Test12= 1.23D-14 1.39D-09 XBig12= 4.80D-15 5.51D-09.
 InvSVY:  IOpt=1 It=  1 EMax= 6.22D-15
 Solved reduced A of dimension   432 with    72 vectors.
 FullF1:  Do perturbations      1 to       3.
 Isotropic polarizability for W=    0.000000      100.82 Bohr**3.
 End of Minotr F.D. properties file   721 does not exist.
 End of Minotr F.D. properties file   722 does not exist.
 End of Minotr F.D. properties file   788 does not exist.
 Leave Link 1002 at Mon Mar  6 10:30:50 2023, MaxMem=  1048576000 cpu:             224.5 elap:             225.8
 (Enter /ssoft/spack/external/gaussian/g16-C.01/avx2/g16/l601.exe)
 Copying SCF densities to generalized density rwf, IOpCl= 0 IROHF=0.

 **********************************************************************

            Population analysis using the SCF Density.

 **********************************************************************

 Orbital symmetries:
       Occupied  (A) (A) (A) (A) (A) (A) (A) (A) (A) (A) (A) (A)
                 (A) (A) (A) (A) (A) (A) (A) (A) (A) (A) (A) (A)
                 (A) (A) (A) (A) (A) (A) (A) (A) (A) (A) (A) (A)
                 (A) (A) (A) (A) (A) (A) (A) (A) (A) (A) (A) (A)
       Virtual   (A) (A) (A) (A) (A) (A) (A) (A) (A) (A) (A) (A)
                 (A) (A) (A) (A) (A) (A) (A) (A) (A) (A) (A) (A)
                 (A) (A) (A) (A) (A) (A) (A) (A) (A) (A) (A) (A)
                 (A) (A) (A) (A) (A) (A) (A) (A) (A) (A) (A) (A)
                 (A) (A) (A) (A) (A) (A) (A) (A) (A) (A) (A) (A)
                 (A) (A) (A) (A) (A) (A) (A) (A) (A) (A) (A) (A)
                 (A) (A) (A) (A) (A) (A) (A) (A) (A) (A) (A) (A)
                 (A) (A) (A) (A) (A) (A) (A) (A) (A) (A) (A) (A)
                 (A) (A) (A) (A) (A) (A) (A) (A) (A) (A) (A) (A)
                 (A) (A) (A) (A) (A) (A) (A) (A) (A) (A) (A) (A)
                 (A) (A) (A) (A) (A) (A) (A) (A) (A) (A) (A) (A)
                 (A) (A) (A) (A) (A) (A) (A) (A) (A) (A) (A) (A)
                 (A) (A) (A) (A) (A) (A) (A) (A) (A) (A) (A) (A)
                 (A) (A) (A) (A) (A) (A) (A) (A) (A) (A) (A) (A)
                 (A) (A) (A) (A) (A) (A) (A) (A) (A) (A) (A) (A)
                 (A) (A) (A) (A)
 The electronic state is 1-A.
 Alpha  occ. eigenvalues --  -19.12968 -18.92454 -18.91698 -14.17886 -10.17753
 Alpha  occ. eigenvalues --  -10.11084 -10.10773 -10.10381 -10.09683 -10.09507
 Alpha  occ. eigenvalues --  -10.08777 -10.07553 -10.07531  -1.01364  -0.82117
 Alpha  occ. eigenvalues --   -0.77161  -0.75814  -0.71729  -0.67141  -0.66371
 Alpha  occ. eigenvalues --   -0.60507  -0.54710  -0.51579  -0.48810  -0.46839
 Alpha  occ. eigenvalues --   -0.40160  -0.39342  -0.38671  -0.36043  -0.34049
 Alpha  occ. eigenvalues --   -0.32798  -0.32297  -0.31458  -0.29357  -0.27249
 Alpha  occ. eigenvalues --   -0.26250  -0.24328  -0.23247  -0.22739  -0.21619
 Alpha  occ. eigenvalues --   -0.18199  -0.16982  -0.15028  -0.11581  -0.09067
 Alpha  occ. eigenvalues --   -0.03580  -0.03225  -0.01245
 Alpha virt. eigenvalues --    0.11270   0.13447   0.17618   0.19671   0.22846
 Alpha virt. eigenvalues --    0.24570   0.25421   0.26592   0.27138   0.29395
 Alpha virt. eigenvalues --    0.30622   0.31920   0.32489   0.33173   0.34952
 Alpha virt. eigenvalues --    0.36701   0.39292   0.40637   0.43163   0.44961
 Alpha virt. eigenvalues --    0.45134   0.46751   0.48492   0.50943   0.53219
 Alpha virt. eigenvalues --    0.55122   0.56810   0.59760   0.60607   0.61041
 Alpha virt. eigenvalues --    0.62248   0.63081   0.65481   0.66358   0.67372
 Alpha virt. eigenvalues --    0.68191   0.71185   0.72686   0.74081   0.76416
 Alpha virt. eigenvalues --    0.77281   0.77605   0.78472   0.80148   0.82910
 Alpha virt. eigenvalues --    0.83257   0.83686   0.84183   0.84926   0.86294
 Alpha virt. eigenvalues --    0.87049   0.88239   0.89475   0.89505   0.90760
 Alpha virt. eigenvalues --    0.91059   0.92082   0.93162   0.94019   0.97974
 Alpha virt. eigenvalues --    0.98464   1.00058   1.00261   1.01623   1.03554
 Alpha virt. eigenvalues --    1.05012   1.06519   1.09019   1.10975   1.12008
 Alpha virt. eigenvalues --    1.13633   1.16926   1.17322   1.19891   1.22375
 Alpha virt. eigenvalues --    1.22939   1.28547   1.29595   1.31084   1.33881
 Alpha virt. eigenvalues --    1.36816   1.36911   1.38249   1.39681   1.41954
 Alpha virt. eigenvalues --    1.44184   1.45653   1.47450   1.49585   1.52023
 Alpha virt. eigenvalues --    1.54628   1.57883   1.60346   1.61993   1.63230
 Alpha virt. eigenvalues --    1.67981   1.71760   1.74267   1.78707   1.80837
 Alpha virt. eigenvalues --    1.83124   1.86413   1.87653   1.88309   1.89581
 Alpha virt. eigenvalues --    1.91414   1.92221   1.92637   1.94643   1.96746
 Alpha virt. eigenvalues --    1.98163   1.98918   2.00815   2.01781   2.03184
 Alpha virt. eigenvalues --    2.03854   2.05222   2.08919   2.10369   2.11871
 Alpha virt. eigenvalues --    2.13359   2.14989   2.20901   2.22532   2.23912
 Alpha virt. eigenvalues --    2.27822   2.28960   2.31933   2.32430   2.34578
 Alpha virt. eigenvalues --    2.36213   2.36487   2.39671   2.41618   2.43610
 Alpha virt. eigenvalues --    2.44725   2.48515   2.51552   2.55727   2.57899
 Alpha virt. eigenvalues --    2.58937   2.59206   2.59514   2.63795   2.64754
 Alpha virt. eigenvalues --    2.68864   2.70825   2.78733   2.79101   2.82345
 Alpha virt. eigenvalues --    2.85282   2.90204   2.92006   2.93950   2.95443
 Alpha virt. eigenvalues --    2.96730   2.97181   3.02913   3.08544   3.10224
 Alpha virt. eigenvalues --    3.14105   3.15372   3.17292   3.20244   3.22604
 Alpha virt. eigenvalues --    3.26236   3.27414   3.28599   3.30958   3.33533
 Alpha virt. eigenvalues --    3.37790   3.42543   3.45050   3.48976   3.51435
 Alpha virt. eigenvalues --    3.61461   3.64317   3.65146   3.69960   3.78591
 Alpha virt. eigenvalues --    3.87984   3.90394   3.95444   4.12360
     Molecular Orbital Coefficients:
                          44        45        46        47        48
                           O         O         O         O         O
     Eigenvalues --    -0.11581  -0.09067  -0.03580  -0.03225  -0.01245
   1 1   O  1S         -0.00512  -0.01153   0.00052   0.00216  -0.00275
   2        2S         -0.01169  -0.02253   0.00493   0.00021  -0.00569
   3        3S         -0.00755  -0.05022  -0.02392   0.07301  -0.04171
   4        4PX         0.03986   0.01342  -0.31375   0.20840   0.28419
   5        4PY        -0.00139  -0.02410   0.22533   0.27480   0.35310
   6        4PZ        -0.02705  -0.02838   0.21779  -0.11993   0.25729
   7        5PX         0.03034   0.02200  -0.25693   0.15332   0.20842
   8        5PY         0.00171  -0.01159   0.16571   0.21012   0.25596
   9        5PZ        -0.01800  -0.00676   0.17578  -0.11466   0.19354
  10        6D 0        0.00128   0.00141  -0.01007   0.00298  -0.00754
  11        6D+1       -0.00090   0.00084   0.00582  -0.00335  -0.00752
  12        6D-1       -0.00007   0.00197   0.00002  -0.00711  -0.00462
  13        6D+2       -0.00020   0.00025  -0.00038  -0.00465  -0.00867
  14        6D-2        0.00126   0.00227  -0.00859   0.00089   0.00087
  15 2   N  1S          0.00985   0.07751   0.00322   0.01605  -0.03080
  16        2S          0.02024   0.16357  -0.00180   0.02267  -0.06710
  17        3S          0.04670   0.25139   0.10553   0.16429  -0.16018
  18        4PX        -0.03933  -0.29448  -0.01611  -0.00225   0.02247
  19        4PY         0.07292   0.36734   0.03448   0.08250  -0.09375
  20        4PZ        -0.01486  -0.20891   0.00189   0.00383   0.00364
  21        5PX         0.03360   0.25421  -0.00562   0.00238  -0.02569
  22        5PY        -0.05169  -0.26540  -0.05962  -0.08559   0.03405
  23        5PZ         0.01289   0.18758  -0.03865  -0.02691   0.01375
  24        6D 0       -0.00084   0.00633   0.00181   0.00493  -0.00430
  25        6D+1        0.00105  -0.00350   0.00038  -0.00008   0.00018
  26        6D-1        0.00085   0.01023  -0.00117  -0.00235  -0.00341
  27        6D+2        0.00275   0.00542   0.00081   0.00225  -0.00479
  28        6D-2        0.00175   0.01322   0.00108  -0.00252  -0.00128
  29 3   C  1S          0.02252  -0.00831   0.01961   0.05365   0.00336
  30        2S         -0.05134   0.01757  -0.02866  -0.12741  -0.00807
  31        3S         -0.09280   0.15710  -0.33861  -0.40444  -0.07736
  32        4PX        -0.11210  -0.09270   0.01008   0.07519  -0.00357
  33        4PY         0.02810   0.04535   0.08940   0.24660   0.03386
  34        4PZ         0.06198  -0.08197  -0.01083  -0.03276  -0.02296
  35        5PX        -0.07049  -0.02986  -0.08088   0.10725   0.05305
  36        5PY        -0.01417  -0.08130   0.14446   0.21701   0.13543
  37        5PZ         0.05948  -0.03863  -0.06649  -0.09188   0.01770
  38        6D 0       -0.00131  -0.00058   0.00116   0.00300  -0.00286
  39        6D+1        0.00591   0.01003   0.00163   0.00497  -0.00486
  40        6D-1       -0.00195  -0.01810  -0.00130  -0.00246  -0.00219
  41        6D+2        0.00229   0.01276   0.00143   0.00451  -0.00319
  42        6D-2       -0.00657  -0.01343  -0.00068  -0.00437  -0.00301
  43 4   H  1S         -0.01435  -0.06740  -0.00565  -0.05234   0.04008
  44        2S          0.00413  -0.05791  -0.00833  -0.05574   0.06124
  45        3PX         0.00593   0.02194   0.00154   0.00106  -0.00529
  46        3PY        -0.00235  -0.01439  -0.00122  -0.00206   0.00524
  47        3PZ         0.00031   0.00752  -0.00038  -0.00277   0.00143
  48 5   H  1S         -0.02545  -0.07709  -0.01904  -0.00449   0.00379
  49        2S         -0.01694  -0.03442   0.03559  -0.00003   0.04903
  50        3PX        -0.00108   0.00654   0.00127  -0.00011   0.00050
  51        3PY        -0.00373  -0.02022  -0.00289  -0.00420   0.00617
  52        3PZ         0.00157   0.01528   0.00091   0.00066  -0.00315
  53 6   C  1S          0.00217   0.02098   0.00001   0.00341  -0.00410
  54        2S         -0.00587  -0.05083  -0.00502  -0.02488   0.00734
  55        3S         -0.01824  -0.12932   0.09099   0.05606   0.10362
  56        4PX         0.00864  -0.01227  -0.02174  -0.02279  -0.01548
  57        4PY        -0.02670  -0.10045  -0.03457  -0.12255   0.01565
  58        4PZ        -0.01382  -0.01325   0.01716   0.01319  -0.03106
  59        5PX         0.01523  -0.00588   0.06010   0.05299   0.09858
  60        5PY        -0.02053  -0.12053   0.10152   0.19243   0.09104
  61        5PZ        -0.01223   0.03630   0.06702  -0.02809   0.08918
  62        6D 0       -0.00105  -0.00537   0.04875   0.01819   0.00173
  63        6D+1        0.00212  -0.00038  -0.00996   0.03153   0.01217
  64        6D-1        0.00365   0.00541   0.00390  -0.00889   0.03305
  65        6D+2       -0.00084  -0.00493  -0.01098   0.03218   0.01467
  66        6D-2       -0.00383   0.00142   0.00409  -0.02229   0.01753
  67 7   O  1S         -0.00266  -0.00162  -0.00028   0.00227   0.01199
  68        2S         -0.00534  -0.00295  -0.00789   0.00186   0.02523
  69        3S         -0.00772   0.00213   0.06722   0.05378   0.08249
  70        4PX         0.03487   0.03961   0.34992  -0.04126   0.07184
  71        4PY        -0.01344  -0.13440   0.03577   0.43634  -0.28307
  72        4PZ         0.00130   0.06786  -0.24867  -0.01148   0.24452
  73        5PX         0.02312   0.02874   0.29629  -0.03048   0.06055
  74        5PY        -0.00744  -0.08821   0.02416   0.32692  -0.22160
  75        5PZ         0.00060   0.04378  -0.18853   0.01239   0.19917
  76        6D 0       -0.00054   0.00228  -0.00910  -0.00145   0.00657
  77        6D+1        0.00095   0.00264   0.00255  -0.00086   0.00406
  78        6D-1       -0.00060  -0.00297  -0.00326   0.00767  -0.00232
  79        6D+2        0.00118   0.00287   0.00690  -0.00499   0.00551
  80        6D-2       -0.00015  -0.00288   0.00542   0.00509  -0.00479
  81 8   C  1S         -0.00007  -0.00043  -0.00086  -0.00059   0.00014
  82        2S         -0.00078  -0.00008   0.00365  -0.00032  -0.00031
  83        3S         -0.00020   0.05794  -0.01388   0.01113  -0.00195
  84        4PX         0.09001  -0.01871  -0.00204  -0.00564  -0.00003
  85        4PY         0.02204  -0.00204  -0.00036  -0.00047  -0.00125
  86        4PZ        -0.27339   0.05618   0.00176   0.01608  -0.00036
  87        5PX         0.05477  -0.04105   0.00390  -0.01295   0.00143
  88        5PY         0.01179   0.00072  -0.04501   0.02001   0.00451
  89        5PZ        -0.16966   0.03144  -0.00348   0.01407  -0.00102
  90        6D 0        0.00793  -0.00131  -0.00043  -0.00002   0.00022
  91        6D+1        0.01391  -0.00218  -0.00038  -0.00036   0.00023
  92        6D-1       -0.00633   0.00079  -0.00172   0.00067   0.00074
  93        6D+2       -0.00668   0.00153   0.00024   0.00016   0.00005
  94        6D-2       -0.00030  -0.00023   0.00073  -0.00010  -0.00016
  95 9   C  1S         -0.00168  -0.00102  -0.00088   0.00041   0.00070
  96        2S          0.00315   0.00299   0.00215  -0.00179  -0.00301
  97        3S          0.01636  -0.11498   0.05858  -0.05536   0.00851
  98        4PX         0.06431  -0.01582   0.00466  -0.00264  -0.00093
  99        4PY         0.00388   0.00017   0.00214  -0.00042  -0.00064
 100        4PZ        -0.17701   0.02258  -0.02348   0.00949   0.00940
 101        5PX         0.04475   0.04601   0.00706   0.01026  -0.01475
 102        5PY         0.01440   0.00872  -0.02974   0.00770  -0.00415
 103        5PZ        -0.15709   0.03717  -0.02358   0.01318   0.00823
 104        6D 0       -0.00327   0.00169  -0.00024   0.00054  -0.00003
 105        6D+1       -0.00764   0.00178  -0.00003   0.00060   0.00026
 106        6D-1        0.01302  -0.00324  -0.00015  -0.00103   0.00014
 107        6D+2        0.00329  -0.00161  -0.00013  -0.00047   0.00027
 108        6D-2       -0.00401   0.00011  -0.00011  -0.00003   0.00031
 109 10  H  1S         -0.00003  -0.00631  -0.00099  -0.00102   0.00201
 110        2S         -0.00570  -0.01091  -0.00107  -0.00035   0.00723
 111        3PX         0.00264  -0.00161   0.00016  -0.00039   0.00019
 112        3PY         0.00011   0.00039   0.00063  -0.00008  -0.00013
 113        3PZ        -0.00717   0.00084  -0.00122   0.00041   0.00046
 114 11  C  1S          0.00136   0.00533   0.00108  -0.00196  -0.00227
 115        2S         -0.00326  -0.02676  -0.00265   0.00478   0.00989
 116        3S          0.00855   0.17118  -0.08182   0.05580  -0.03354
 117        4PX        -0.05357   0.03012   0.00346   0.00233  -0.00500
 118        4PY        -0.00355   0.01323   0.00247   0.00537  -0.00497
 119        4PZ         0.15163  -0.04359   0.00227  -0.01585  -0.00386
 120        5PX        -0.05768   0.05268   0.02132   0.02383   0.00309
 121        5PY        -0.01758  -0.04604   0.04831  -0.01704   0.00807
 122        5PZ         0.12202  -0.00972   0.01233  -0.01046  -0.00839
 123        6D 0       -0.00940   0.00180  -0.00058   0.00043   0.00071
 124        6D+1       -0.01347   0.00299  -0.00152   0.00067   0.00029
 125        6D-1       -0.00559   0.00180  -0.00035   0.00055   0.00027
 126        6D+2        0.00432   0.00039   0.00134   0.00013  -0.00054
 127        6D-2        0.00238  -0.00063  -0.00012   0.00024  -0.00008
 128 12  H  1S          0.00224  -0.00467  -0.00300   0.00294   0.00012
 129        2S          0.00479  -0.00896  -0.01408  -0.00459   0.00024
 130        3PX        -0.00183   0.00134  -0.00035   0.00037  -0.00043
 131        3PY         0.00018   0.00021  -0.00049  -0.00030   0.00006
 132        3PZ         0.00593  -0.00283   0.00003  -0.00062   0.00036
 133 13  C  1S         -0.00285  -0.00228  -0.00449  -0.00299   0.00106
 134        2S          0.01009  -0.01281   0.00872  -0.00278  -0.00269
 135        3S         -0.00295   0.10183   0.07332   0.10345  -0.00636
 136        4PX        -0.09731  -0.00813  -0.02003  -0.00871   0.00564
 137        4PY        -0.01603   0.01103  -0.00084   0.01182   0.00592
 138        4PZ         0.29120  -0.08318   0.01310  -0.01827  -0.00754
 139        5PX        -0.09916  -0.14043   0.06060  -0.08459   0.00083
 140        5PY        -0.01596   0.03062   0.01628   0.00628   0.02506
 141        5PZ         0.19746  -0.07660   0.04286  -0.02285  -0.00459
 142        6D 0        0.00406   0.00103   0.00008  -0.00027  -0.00043
 143        6D+1        0.00922  -0.00341   0.00054  -0.00124  -0.00007
 144        6D-1       -0.00242   0.00005   0.00042   0.00169   0.00035
 145        6D+2       -0.00307   0.00148  -0.00115   0.00226   0.00120
 146        6D-2       -0.00017  -0.00111   0.00037   0.00038   0.00139
 147 14  C  1S         -0.00066   0.00402  -0.00486   0.00398   0.00272
 148        2S          0.00545  -0.01604   0.02775  -0.02290  -0.01510
 149        3S         -0.02897   0.05522  -0.10621   0.07701   0.07569
 150        4PX        -0.04540   0.02170  -0.01122   0.01246   0.00255
 151        4PY        -0.00413  -0.00632  -0.00696  -0.00771  -0.00563
 152        4PZ         0.15158  -0.04363   0.00193  -0.01815  -0.00056
 153        5PX        -0.03532   0.06005  -0.00727   0.00554   0.00042
 154        5PY        -0.00009   0.02182  -0.00505  -0.02576   0.00771
 155        5PZ         0.10775  -0.00983  -0.04345   0.00189   0.01171
 156        6D 0       -0.00384   0.00091   0.00099  -0.00034  -0.00056
 157        6D+1       -0.00756   0.00097   0.00155  -0.00011  -0.00064
 158        6D-1        0.01399  -0.00384  -0.00000  -0.00077  -0.00039
 159        6D+2        0.00322  -0.00041  -0.00024   0.00013   0.00057
 160        6D-2       -0.00419   0.00006  -0.00118   0.00054   0.00010
 161 15  H  1S         -0.00257  -0.00583   0.01454  -0.00892  -0.00324
 162        2S          0.00785   0.02596  -0.01122  -0.04702  -0.01943
 163        3PX        -0.00214   0.00076   0.00127   0.00011   0.00018
 164        3PY        -0.00058  -0.00013   0.00019  -0.00067  -0.00019
 165        3PZ         0.00552  -0.00161  -0.00153  -0.00084  -0.00008
 166 16  C  1S          0.00184  -0.00174  -0.00034  -0.00113  -0.00018
 167        2S         -0.00759   0.00301   0.00006   0.00291   0.00076
 168        3S          0.01740  -0.07231   0.03030  -0.02237  -0.01680
 169        4PX         0.04796  -0.01509  -0.00666  -0.00321   0.00215
 170        4PY         0.00473   0.00207  -0.00074   0.00222   0.00139
 171        4PZ        -0.17303   0.02647   0.02168  -0.00358  -0.00869
 172        5PX         0.03146   0.00288  -0.05602   0.02602   0.01551
 173        5PY         0.01297  -0.02796  -0.00328   0.00316  -0.00923
 174        5PZ        -0.13368   0.02276   0.01910  -0.00245  -0.00567
 175        6D 0       -0.00798   0.00234  -0.00024   0.00097   0.00025
 176        6D+1       -0.01175   0.00296  -0.00012   0.00126  -0.00003
 177        6D-1       -0.00662   0.00114   0.00041   0.00022  -0.00004
 178        6D+2        0.00397  -0.00074   0.00015  -0.00002   0.00006
 179        6D-2        0.00258  -0.00011   0.00020   0.00011   0.00031
 180 17  C  1S          0.00363   0.00762   0.00257  -0.00370  -0.00633
 181        2S         -0.01559  -0.01254  -0.01751   0.02009   0.01725
 182        3S          0.01376  -0.17086   0.08168  -0.13471   0.03607
 183        4PX         0.03879   0.01715   0.00413  -0.02239  -0.01950
 184        4PY        -0.00058   0.00589   0.00306  -0.02815  -0.02201
 185        4PZ        -0.09761  -0.00508   0.02487   0.02726   0.00139
 186        5PX        -0.01457  -0.05630  -0.00855  -0.04595  -0.02458
 187        5PY         0.01810   0.07617  -0.04155   0.05060  -0.05476
 188        5PZ        -0.03976  -0.04475   0.11470   0.01516  -0.05014
 189        6D 0        0.00312  -0.00347   0.00068   0.00293   0.00040
 190        6D+1        0.01312  -0.00291   0.00007   0.00012  -0.00035
 191        6D-1       -0.00030   0.00010   0.00236   0.00721   0.00169
 192        6D+2       -0.00462   0.00495   0.00225   0.00343   0.00075
 193        6D-2       -0.00010  -0.00319  -0.00198  -0.00596  -0.00124
 194 18  H  1S          0.07311  -0.02309  -0.00883   0.02768   0.01100
 195        2S          0.04145  -0.00942   0.11096   0.08515  -0.08851
 196        3PX         0.00175   0.00255  -0.00168  -0.00082   0.00188
 197        3PY         0.00265  -0.00192  -0.00035  -0.00279   0.00053
 198        3PZ        -0.00079  -0.00037   0.00180   0.00127  -0.00056
 199 19  H  1S          0.02399  -0.01326  -0.01128  -0.05567  -0.01650
 200        2S          0.00339  -0.03580   0.00409  -0.08021   0.00417
 201        3PX         0.00053   0.00131  -0.00014  -0.00154  -0.00100
 202        3PY        -0.00157  -0.00013  -0.00063   0.00078   0.00043
 203        3PZ        -0.00356  -0.00078  -0.00024   0.00117   0.00172
 204 20  O  1S         -0.00292   0.00104   0.00005   0.00017  -0.00007
 205        2S         -0.00558   0.00194   0.00051  -0.00021  -0.00001
 206        3S         -0.01481   0.01073  -0.00493   0.00674  -0.00070
 207        4PX        -0.09092   0.01527   0.00108   0.00406  -0.00023
 208        4PY        -0.04012   0.00700   0.00057   0.00076  -0.00028
 209        4PZ         0.24486  -0.04355  -0.00102  -0.00956  -0.00001
 210        5PX        -0.07975   0.01474   0.00372   0.00231  -0.00043
 211        5PY        -0.03717   0.00786   0.00370   0.00022  -0.00062
 212        5PZ         0.20868  -0.03802   0.00067  -0.00983   0.00028
 213        6D 0        0.00393  -0.00081  -0.00008  -0.00023   0.00003
 214        6D+1        0.00270  -0.00072  -0.00009  -0.00023   0.00002
 215        6D-1        0.00515  -0.00085  -0.00012  -0.00012   0.00007
 216        6D+2       -0.00013   0.00002  -0.00006   0.00011   0.00002
 217        6D-2       -0.00181   0.00028   0.00005   0.00004   0.00002
 218 21  H  1S          0.01431  -0.00374  -0.00056  -0.00119   0.00018
 219        2S          0.00533  -0.00573  -0.00198  -0.00060   0.00142
 220        3PX        -0.00429   0.00078  -0.00003   0.00028  -0.00007
 221        3PY        -0.00407   0.00085   0.00024   0.00009   0.00004
 222        3PZ         0.01266  -0.00211  -0.00031  -0.00035   0.00008
 223 22  H  1S          0.07756   0.16821   0.01598   0.04362   0.02397
 224        2S          0.06606   0.08592  -0.02904   0.15081  -0.01270
 225        3PX        -0.00045   0.00244   0.00079   0.00192   0.00055
 226        3PY         0.00024   0.00077   0.00439   0.00434   0.00181
 227        3PZ         0.00177  -0.00351   0.00022  -0.00093   0.00015
 228 23  H  1S          0.00015  -0.00386  -0.00117  -0.00254  -0.00203
 229        2S          0.00609  -0.00915  -0.00648   0.00062  -0.00511
 230        3PX         0.00228  -0.00087   0.00095  -0.00083  -0.00020
 231        3PY         0.00039   0.00014  -0.00002   0.00002   0.00013
 232        3PZ        -0.00628   0.00103   0.00082  -0.00010  -0.00045
                          49        50        51        52        53
                           V         V         V         V         V
     Eigenvalues --     0.11270   0.13447   0.17618   0.19671   0.22846
   1 1   O  1S         -0.00400  -0.00019  -0.00034   0.00712   0.00589
   2        2S         -0.00845  -0.00195  -0.00193   0.01715   0.01054
   3        3S         -0.01925   0.01085   0.01089   0.00874   0.04090
   4        4PX        -0.04558   0.02040  -0.00028   0.02848   0.03814
   5        4PY         0.00818  -0.01427  -0.00289   0.01107   0.01950
   6        4PZ         0.01734  -0.00529  -0.00131  -0.01546  -0.02513
   7        5PX        -0.03203   0.01552  -0.00035   0.02310   0.03513
   8        5PY         0.00586  -0.00862  -0.00139   0.01243   0.02525
   9        5PZ         0.01885  -0.00848  -0.00340  -0.01307  -0.03138
  10        6D 0       -0.00127   0.00026   0.00013  -0.00005  -0.00054
  11        6D+1        0.00024  -0.00022   0.00002   0.00029   0.00066
  12        6D-1        0.00032  -0.00005   0.00007  -0.00096  -0.00061
  13        6D+2        0.00129  -0.00014  -0.00001  -0.00059  -0.00056
  14        6D-2       -0.00066   0.00028   0.00008  -0.00047  -0.00156
  15 2   N  1S          0.01054  -0.00829  -0.00680   0.03852   0.03179
  16        2S          0.01713  -0.01856  -0.00530   0.04811   0.04769
  17        3S          0.09844  -0.02438  -0.14530   0.64503   0.47067
  18        4PX        -0.02288   0.00228   0.00041  -0.01094   0.02076
  19        4PY        -0.01786  -0.01604   0.01726  -0.09183  -0.04651
  20        4PZ         0.00780   0.00689  -0.00674   0.00922  -0.02785
  21        5PX         0.02111   0.00322  -0.01013   0.05031  -0.02495
  22        5PY         0.03333   0.02493  -0.03287   0.16406   0.07671
  23        5PZ        -0.00280  -0.01989   0.02136  -0.02026   0.07738
  24        6D 0       -0.00000  -0.00303   0.00031  -0.00149  -0.00059
  25        6D+1        0.00026  -0.00087   0.00066  -0.00197  -0.00092
  26        6D-1       -0.00047  -0.00028   0.00045  -0.00096   0.00041
  27        6D+2       -0.00207   0.00073   0.00055  -0.00228   0.00086
  28        6D-2        0.00059  -0.00072  -0.00057   0.00254   0.00172
  29 3   C  1S          0.00047   0.02855   0.00186  -0.01366  -0.02255
  30        2S         -0.00615  -0.06242  -0.00214   0.01610   0.01769
  31        3S          0.07590  -0.26671  -0.01922   0.22416   0.64034
  32        4PX         0.00609  -0.06743   0.00366  -0.06279  -0.08894
  33        4PY         0.00938  -0.01788   0.00000   0.01900   0.05745
  34        4PZ        -0.01101   0.06508   0.01088  -0.03107  -0.03083
  35        5PX         0.04347  -0.05978   0.04337  -0.32624  -0.43523
  36        5PY         0.01050  -0.04330   0.01160   0.01186   0.12886
  37        5PZ        -0.04165   0.12570   0.03698  -0.03625  -0.03038
  38        6D 0       -0.00014  -0.00337  -0.00160   0.00270   0.00211
  39        6D+1        0.00084  -0.00019  -0.00061   0.00203  -0.00062
  40        6D-1        0.00050   0.00071   0.00024  -0.00123  -0.00149
  41        6D+2        0.00076   0.00361   0.00107  -0.00026   0.00293
  42        6D-2       -0.00192  -0.00306  -0.00104   0.00447   0.00383
  43 4   H  1S          0.00447   0.00669   0.00079   0.00089   0.00674
  44        2S         -0.12162  -0.02372   0.13300  -0.57691  -0.24992
  45        3PX        -0.00357   0.00145  -0.00047   0.00088   0.00068
  46        3PY        -0.00002   0.00106  -0.00048  -0.00283  -0.00208
  47        3PZ         0.00150  -0.00113   0.00050  -0.00012  -0.00024
  48 5   H  1S         -0.01490   0.00170   0.00131  -0.01131  -0.01392
  49        2S         -0.01007   0.03190   0.02957  -0.28540  -0.46084
  50        3PX         0.00135  -0.00201  -0.00012   0.00070   0.00015
  51        3PY         0.00053   0.00088   0.00028  -0.00056  -0.00232
  52        3PZ        -0.00055  -0.00072   0.00024  -0.00078   0.00074
  53 6   C  1S          0.00309  -0.00014   0.00098  -0.00454   0.00141
  54        2S         -0.01428  -0.00183  -0.00150   0.01040  -0.00372
  55        3S          0.03319   0.01632   0.00875  -0.09336  -0.15862
  56        4PX        -0.00961  -0.01007   0.00060  -0.01804  -0.05905
  57        4PY        -0.00880   0.00697  -0.00404   0.02342   0.01775
  58        4PZ         0.00482   0.00525  -0.00110   0.01394   0.03839
  59        5PX        -0.00155  -0.01279  -0.01368   0.03648  -0.02397
  60        5PY        -0.01006   0.00804   0.00677  -0.02108  -0.01912
  61        5PZ         0.00371  -0.01796  -0.01730   0.03181   0.02915
  62        6D 0        0.00244  -0.00215  -0.00005   0.00069   0.00161
  63        6D+1       -0.00172  -0.00023   0.00005   0.00225   0.00185
  64        6D-1       -0.00116   0.00305   0.00055  -0.00152  -0.00020
  65        6D+2        0.00057  -0.00049   0.00038  -0.00412  -0.00323
  66        6D-2        0.00091  -0.00208  -0.00009  -0.00225  -0.00499
  67 7   O  1S         -0.00002  -0.00226   0.00024   0.00464   0.00469
  68        2S          0.00171  -0.00435   0.00174   0.00665   0.00638
  69        3S         -0.01260  -0.01788  -0.01144   0.05302   0.05064
  70        4PX         0.00576   0.00974   0.00090   0.02475   0.02987
  71        4PY         0.00760  -0.01183   0.00506  -0.01898  -0.00397
  72        4PZ        -0.01139  -0.00093  -0.00089  -0.02163  -0.03152
  73        5PX         0.00254   0.00762   0.00039   0.02343   0.03969
  74        5PY         0.00699  -0.01247   0.00244  -0.00769  -0.00100
  75        5PZ        -0.01435  -0.00353  -0.00279  -0.00800  -0.02215
  76        6D 0       -0.00018   0.00013  -0.00005  -0.00025   0.00038
  77        6D+1       -0.00018  -0.00016  -0.00001   0.00085   0.00040
  78        6D-1       -0.00008  -0.00012  -0.00003   0.00061   0.00131
  79        6D+2       -0.00004   0.00014   0.00010  -0.00053  -0.00082
  80        6D-2        0.00013  -0.00040  -0.00005   0.00066   0.00045
  81 8   C  1S          0.00058   0.00143   0.00593  -0.01516   0.00445
  82        2S         -0.00169  -0.00256  -0.02388   0.02777   0.00609
  83        3S         -0.03422  -0.01850  -0.66188  -0.26570  -0.19679
  84        4PX         0.01839  -0.12047   0.04606   0.05400  -0.12817
  85        4PY         0.00047  -0.02512  -0.03493  -0.01773   0.06716
  86        4PZ        -0.05348   0.39079   0.00154   0.04874  -0.00357
  87        5PX         0.01677  -0.12564   0.16311   0.03600   0.28533
  88        5PY        -0.01551  -0.02602  -0.39250  -0.10869   0.20554
  89        5PZ        -0.06239   0.50677  -0.00197   0.04954   0.16899
  90        6D 0        0.00803   0.00298   0.00509   0.00497  -0.00402
  91        6D+1        0.00727   0.00429  -0.00395  -0.00554   0.00864
  92        6D-1        0.02957   0.00445  -0.00193   0.00275  -0.00481
  93        6D+2       -0.00154  -0.00056   0.00005  -0.00998   0.01784
  94        6D-2       -0.01051  -0.00064  -0.00233   0.00986  -0.01479
  95 9   C  1S          0.00049   0.00212   0.05956  -0.00480   0.04030
  96        2S          0.00280  -0.00834  -0.14487   0.02005  -0.07180
  97        3S         -0.01353  -0.03418  -0.37713   0.71125  -0.86580
  98        4PX        -0.10104   0.04126  -0.10145   0.02899  -0.05216
  99        4PY        -0.02169   0.00910  -0.09796   0.03636  -0.07816
 100        4PZ         0.29647  -0.11901  -0.05173  -0.01680  -0.03085
 101        5PX        -0.13580   0.07011  -0.50288   0.04079  -0.68548
 102        5PY        -0.04314   0.00331  -0.79689  -0.06387  -0.29750
 103        5PZ         0.46558  -0.18098  -0.22044  -0.05274  -0.28724
 104        6D 0        0.00942   0.00608   0.00189  -0.00155  -0.00419
 105        6D+1        0.01509   0.01399   0.00240   0.00152  -0.00195
 106        6D-1       -0.00327  -0.02573  -0.00263  -0.00741   0.00399
 107        6D+2       -0.00510  -0.00597   0.00979   0.00670  -0.01314
 108        6D-2        0.00019   0.00779  -0.00708  -0.01514   0.01499
 109 10  H  1S          0.00051   0.00051  -0.03755  -0.04689   0.05956
 110        2S          0.00415   0.01583   1.44363  -0.44128   1.54972
 111        3PX        -0.00565   0.00285   0.00978   0.00439   0.00053
 112        3PY        -0.00097   0.00036  -0.00240  -0.00566   0.01017
 113        3PZ         0.01824  -0.00840   0.00314  -0.00048  -0.00074
 114 11  C  1S         -0.00150  -0.00082  -0.00312  -0.05823   0.03366
 115        2S         -0.00460   0.00191   0.02224   0.13420  -0.08169
 116        3S          0.03803   0.03499  -0.60816   0.80108  -1.08261
 117        4PX         0.09867   0.06038   0.05205   0.00567  -0.02681
 118        4PY         0.01143  -0.00197  -0.06109   0.13906  -0.03400
 119        4PZ        -0.29268  -0.18185   0.01817   0.02970  -0.00231
 120        5PX         0.14950   0.10460   0.09757  -0.31367   0.00106
 121        5PY         0.02158  -0.04429   0.13887   0.86261   0.00100
 122        5PZ        -0.43380  -0.26157   0.04224  -0.03107   0.01022
 123        6D 0        0.00928  -0.01370   0.00280  -0.00286  -0.00438
 124        6D+1        0.01467  -0.01967  -0.00627   0.00077  -0.00106
 125        6D-1       -0.00536  -0.01230  -0.00037  -0.00003  -0.00006
 126        6D+2       -0.00620   0.00582  -0.00805   0.00211  -0.00891
 127        6D-2        0.00029   0.00532  -0.00329   0.00464   0.00019
 128 12  H  1S          0.00106   0.00037   0.00298  -0.00633   0.02910
 129        2S         -0.00939   0.04660   0.26702  -1.54692   0.67897
 130        3PX         0.00620   0.00359   0.00085   0.00955   0.00650
 131        3PY         0.00009   0.00092   0.00145  -0.00647   0.00174
 132        3PZ        -0.01689  -0.01150   0.00155   0.00073   0.00147
 133 13  C  1S         -0.00131   0.00091   0.01216  -0.01313  -0.00387
 134        2S          0.00199   0.00828  -0.02638   0.04321   0.01241
 135        3S          0.08767  -0.11585   0.31668   0.18363   0.36897
 136        4PX        -0.00453  -0.10412  -0.00744  -0.03215   0.02039
 137        4PY        -0.00679  -0.02064  -0.02254   0.00990   0.00571
 138        4PZ        -0.00894   0.35385  -0.00349   0.00885   0.01295
 139        5PX         0.01507  -0.20807   0.07128   0.40043   0.24285
 140        5PY        -0.02096   0.03083   0.07688  -0.37402  -0.12823
 141        5PZ         0.02428   0.46330   0.02099   0.18084   0.10909
 142        6D 0       -0.00722  -0.00517  -0.00110  -0.00116  -0.00351
 143        6D+1       -0.00593  -0.00504   0.00330   0.00186   0.00659
 144        6D-1       -0.02971   0.00196   0.00064   0.00017  -0.00289
 145        6D+2        0.00136   0.00380   0.00888  -0.00946   0.00216
 146        6D-2        0.01052  -0.00025  -0.00168  -0.00208  -0.00693
 147 14  C  1S         -0.00285   0.00235  -0.00065  -0.02881   0.01645
 148        2S          0.02379  -0.00925   0.00926   0.07314  -0.02984
 149        3S         -0.13972   0.06705  -0.17306  -0.27693  -0.76652
 150        4PX        -0.11014   0.04966   0.03260   0.00373  -0.02578
 151        4PY        -0.02426   0.01562  -0.01725   0.00864   0.03177
 152        4PZ         0.31906  -0.14481  -0.00522  -0.00850   0.01002
 153        5PX        -0.17529   0.07918  -0.06469  -0.10777  -0.04813
 154        5PY        -0.07073   0.06791  -0.02101  -0.25100  -0.14003
 155        5PZ         0.38314  -0.19275  -0.04341  -0.07200  -0.00804
 156        6D 0       -0.00758  -0.00631   0.00024   0.00255  -0.00144
 157        6D+1       -0.01071  -0.01392   0.00012  -0.00225   0.00005
 158        6D-1        0.00443   0.02372   0.00023  -0.00041   0.00430
 159        6D+2        0.00408   0.00580  -0.00174   0.00037  -0.00267
 160        6D-2       -0.00068  -0.00614   0.00158  -0.00481   0.00972
 161 15  H  1S          0.00986  -0.00301  -0.00658  -0.01652   0.03498
 162        2S         -0.04502   0.04456  -0.00633  -0.24298   0.29815
 163        3PX        -0.00582   0.00234   0.00165   0.00394   0.00146
 164        3PY        -0.00134   0.00024  -0.00248   0.00318  -0.00200
 165        3PZ         0.01594  -0.00817  -0.00036   0.00154   0.00050
 166 16  C  1S          0.00112   0.00022   0.02085  -0.00142   0.03091
 167        2S         -0.00833  -0.00531  -0.05620  -0.00630  -0.05798
 168        3S          0.08122   0.02303   0.01284   0.25393  -0.08845
 169        4PX         0.07997   0.06696  -0.03714   0.00806   0.00737
 170        4PY         0.01161   0.01211  -0.01031  -0.00919   0.05756
 171        4PZ        -0.26231  -0.18637   0.00494  -0.01364  -0.02030
 172        5PX         0.07646   0.09604  -0.13754   0.02783  -0.09355
 173        5PY         0.04697   0.02425   0.10025   0.03475   0.56210
 174        5PZ        -0.37204  -0.28673  -0.00520  -0.01091  -0.05833
 175        6D 0       -0.01091   0.01410   0.00009   0.00280  -0.00548
 176        6D+1       -0.01761   0.01953   0.00163   0.00389  -0.00241
 177        6D-1        0.00306   0.01268  -0.00128   0.00027   0.00331
 178        6D+2        0.00719  -0.00657   0.00344   0.00974  -0.01763
 179        6D-2        0.00025  -0.00550  -0.00145  -0.00185   0.00037
 180 17  C  1S          0.00061  -0.00409  -0.00551  -0.03806  -0.04738
 181        2S          0.00415   0.00824   0.03617   0.00623   0.05981
 182        3S         -0.06767  -0.00730  -0.16040   1.60663   1.23000
 183        4PX         0.00061   0.00728   0.03179  -0.01685   0.01555
 184        4PY        -0.01509  -0.01268  -0.02685   0.12246   0.05481
 185        4PZ        -0.00948  -0.00589   0.01569  -0.05846  -0.02386
 186        5PX         0.01808  -0.06583  -0.02370   0.13535   0.08684
 187        5PY        -0.05765  -0.01997  -0.08734   0.40613   0.25937
 188        5PZ        -0.08170   0.04814  -0.00739  -0.04961  -0.05885
 189        6D 0       -0.00100   0.00649   0.00099  -0.00394  -0.00197
 190        6D+1       -0.00172   0.01998  -0.00068  -0.00024  -0.00312
 191        6D-1       -0.00367  -0.00327   0.00055  -0.00426   0.00197
 192        6D+2        0.00066  -0.00921  -0.00318   0.00746   0.00364
 193        6D-2        0.00018   0.00149  -0.00040  -0.00283   0.00137
 194 18  H  1S         -0.01283   0.06143  -0.00096  -0.01943   0.00404
 195        2S         -0.10168   0.10995  -0.01795  -0.29408  -0.32569
 196        3PX        -0.00311  -0.00225   0.00277  -0.00160   0.00065
 197        3PY         0.00116   0.00116  -0.00199   0.00567  -0.00046
 198        3PZ         0.00067  -0.00121  -0.00063   0.00468   0.00461
 199 19  H  1S          0.00147   0.02683   0.00870  -0.00489  -0.01019
 200        2S          0.08955   0.09683   0.12922  -1.07490  -0.94234
 201        3PX         0.00203  -0.00065   0.00232  -0.00349   0.00384
 202        3PY        -0.00074   0.00048   0.00232  -0.00982  -0.00272
 203        3PZ        -0.00112  -0.00158   0.00195  -0.00602  -0.00010
 204 20  O  1S         -0.00292   0.00223  -0.06541  -0.04016   0.04805
 205        2S         -0.00381   0.00439  -0.10681  -0.08278   0.10667
 206        3S         -0.03314   0.00722  -0.71740  -0.31915   0.29425
 207        4PX        -0.01129   0.05945  -0.09025   0.02551  -0.03784
 208        4PY        -0.00927   0.01932  -0.14660  -0.07287   0.08424
 209        4PZ         0.01417  -0.15797  -0.06398  -0.02008  -0.00220
 210        5PX        -0.01942   0.07530  -0.13903  -0.00871   0.02097
 211        5PY        -0.01669   0.02293  -0.20458  -0.09864   0.09088
 212        5PZ         0.01363  -0.18408  -0.10443  -0.04606   0.02079
 213        6D 0        0.00155  -0.00642   0.00406   0.00072  -0.00105
 214        6D+1        0.00186  -0.00932  -0.00104  -0.00015  -0.00306
 215        6D-1        0.00218  -0.00043  -0.00385  -0.00230   0.00226
 216        6D+2        0.00010   0.00325   0.00561   0.00500  -0.00693
 217        6D-2       -0.00079   0.00045  -0.00047  -0.00120   0.00101
 218 21  H  1S          0.01421  -0.01570   0.06900   0.01646  -0.01610
 219        2S          0.05495  -0.02162   1.20614   0.55066  -0.68416
 220        3PX        -0.00349   0.00041   0.00340   0.00244  -0.00376
 221        3PY        -0.00058   0.00254   0.00441  -0.00169   0.00226
 222        3PZ         0.00635  -0.00775   0.00208   0.00017  -0.00267
 223 22  H  1S          0.00758   0.02335   0.00806  -0.01650  -0.01371
 224        2S          0.01013   0.13884   0.05551  -0.47677  -0.87081
 225        3PX        -0.00022  -0.00334  -0.00109   0.00210   0.00018
 226        3PY         0.00025  -0.00010   0.00004  -0.00224  -0.00302
 227        3PZ         0.00012   0.00228   0.00035  -0.00220  -0.00164
 228 23  H  1S         -0.00348  -0.00182  -0.01409  -0.02727   0.06179
 229        2S          0.00735   0.00471   0.14533  -0.12979   0.90902
 230        3PX         0.00527   0.00381   0.00338   0.00227  -0.00092
 231        3PY         0.00084   0.00083  -0.00082   0.00264  -0.00928
 232        3PZ        -0.01413  -0.01144   0.00200  -0.00034  -0.00291
     Density Matrix:
                           1         2         3         4         5
   1 1   O  1S          2.13554
   2        2S          0.27437   0.71614
   3        3S          0.32681   0.50022   0.43232
   4        4PX         0.01606   0.02321   0.10231   0.63635
   5        4PY        -0.02672  -0.04943  -0.10664   0.07849   0.68959
   6        4PZ         0.03705   0.06884   0.11567   0.02203   0.06805
   7        5PX         0.01405   0.03550   0.07830   0.45784   0.05957
   8        5PY        -0.02161  -0.06480  -0.08120   0.07461   0.48185
   9        5PZ         0.03118   0.09160   0.08468  -0.01651   0.06933
  10        6D 0        0.00060   0.00121  -0.00035   0.00552  -0.00781
  11        6D+1       -0.00052  -0.00058  -0.00430  -0.01760  -0.00010
  12        6D-1       -0.00104  -0.00213   0.00259  -0.00189  -0.01666
  13        6D+2        0.00039   0.00086   0.00138  -0.00805  -0.01259
  14        6D-2       -0.00130  -0.00270   0.00094   0.01302  -0.00771
  15 2   N  1S         -0.00218  -0.00492   0.00188  -0.00576  -0.01786
  16        2S         -0.00634  -0.01760  -0.00324  -0.01481  -0.04887
  17        3S          0.00676   0.03490   0.05763  -0.05744  -0.02867
  18        4PX         0.00171   0.00633  -0.00543   0.01214  -0.00726
  19        4PY        -0.00710  -0.01471  -0.02743  -0.01649  -0.02927
  20        4PZ         0.00210   0.00085   0.03538   0.00329  -0.01280
  21        5PX        -0.00451  -0.01167  -0.01503  -0.00312  -0.01785
  22        5PY        -0.00142  -0.00396  -0.00084   0.00199  -0.02949
  23        5PZ        -0.00641  -0.02208  -0.04150   0.01850   0.00079
  24        6D 0       -0.00030  -0.00004   0.00075  -0.00160  -0.00217
  25        6D+1        0.00001   0.00003   0.00103   0.00043  -0.00068
  26        6D-1       -0.00062  -0.00112  -0.00291  -0.00132  -0.00302
  27        6D+2       -0.00058  -0.00052  -0.00088  -0.00200  -0.00369
  28        6D-2       -0.00020  -0.00063  -0.00021  -0.00180   0.00001
  29 3   C  1S          0.00549   0.01194   0.00475   0.00585   0.03572
  30        2S         -0.01112  -0.02720  -0.01997  -0.03006  -0.07999
  31        3S         -0.02526  -0.04412  -0.07027   0.02803  -0.42826
  32        4PX         0.00208   0.00609   0.00432  -0.00517   0.02892
[...]
 ,0.00069315,-0.00005383,0.03745054,-0.00855017,-0.00846285,0.00179900,
 -0.00615391,0.00341454,0.12249277,-0.16261962,-0.01661013,-0.19402628,
 1.13006074,-0.00132593,-0.00053104,-0.00002678,-0.00016187,-0.00026053
 ,-0.00071733,-0.00020318,-0.00022221,0.00060782,0.00006492,0.00024436,
 -0.00003913,0.00003930,-0.00003193,0.00009000,0.00290671,-0.00034300,0
 .00065456,-0.00136749,-0.00012277,-0.00021904,-0.01412235,0.03346308,-
 0.00141050,0.01952081,0.00135788,-0.01237129,0.00036068,-0.00024866,-0
 .00093400,-0.00982999,-0.01864777,0.01640308,0.00133327,0.00332639,0.0
 0603127,0.05845248,0.00229083,-0.09179606,-0.14041329,-0.23246474,0.19
 467551,-0.00108916,-0.00011338,0.00006902,-0.00006525,-0.00017672,-0.0
 0011440,-0.00010749,0.00034511,0.00035163,0.00008822,0.00003211,-0.000
 04380,0.00001555,-0.00004069,0.00000440,0.00087371,0.00122329,0.000744
 57,0.00008850,-0.00059613,-0.00091633,-0.00245313,-0.00174193,0.004367
 57,-0.00113171,-0.00062824,0.00023467,-0.00007904,-0.00006579,-0.00035
 593,-0.00498004,0.00293939,0.00382744,-0.00021442,0.00160273,-0.000511
 83,-0.00222876,0.03210593,-0.00606431,-0.03989147,0.18526591,-0.029275
 17,0.03896773,-0.00108892,-0.00062012,0.00042258,-0.00005376,-0.000088
 77,0.00011020,0.00022242,0.00018003,-0.00003083,0.00003415,0.00000897,
 -0.00002500,-0.00001696,-0.00001232,0.00000209,0.00092508,0.00183906,0
 .00107058,0.00032933,-0.00087465,-0.00105874,-0.00174703,0.00099191,0.
 00325596,-0.00021840,0.00096085,-0.00051141,-0.00009980,-0.00013339,-0
 .00029608,0.00200145,0.00103177,0.00168406,-0.00007890,-0.00015720,-0.
 00002640,-0.00331171,-0.00085154,0.00352485,0.18664137,-0.71453872,0.1
 4851505,-0.19074907,0.72110654,-0.00123081,0.00001995,0.00056605,-0.00
 004912,0.00023725,0.00001941,0.00107882,0.00001616,-0.00010878,-0.0000
 7484,0.00004354,0.00005431,0.00002824,-0.00005793,-0.00001355,0.002053
 87,0.00110082,-0.00100104,-0.00020099,-0.00060239,-0.00017178,0.004249
 53,0.00275685,0.00666671,0.00022435,0.00003403,-0.00096963,-0.00030815
 ,-0.00024753,-0.00087007,0.00414044,0.00069452,0.00623345,0.00004626,-
 0.00068751,-0.00012364,0.00276588,-0.00840056,0.00865857,-0.03022691,0
 .14981370,-0.00295837,0.02516290,-0.15579732,-0.01098790,0.00081489,0.
 00019740,-0.00049057,0.00019876,-0.00012372,0.00002600,-0.00032487,-0.
 00045463,0.00052983,0.00024838,0.00004096,-0.00031870,-0.00005780,-0.0
 0010239,0.00002733,-0.00077442,0.00006250,0.00003785,0.00035257,0.0000
 3950,-0.00013067,-0.14908632,0.11874094,-0.00845918,0.00399580,0.03154
 885,-0.00696764,-0.00545384,0.00245572,0.00333948,-0.00727706,-0.01215
 084,0.00339514,0.00069637,-0.00089759,-0.00020380,-0.04253704,-0.00383
 619,0.01976845,-0.23166484,-0.12110768,0.09085650,0.01015563,0.0086356
 8,-0.00323939,1.06591437,-0.00022489,0.00006622,-0.00002056,0.00008191
 ,-0.00047269,0.00043967,-0.00000550,-0.00061484,0.00064553,0.00036035,
 0.00024161,-0.00068691,-0.00019612,-0.00028764,0.00002642,0.00053754,-
 0.00023360,0.00051025,-0.00023450,-0.00007550,0.00026502,0.03744203,-0
 .35757348,0.06976975,0.07254094,-0.00621199,-0.01971046,0.00228123,0.0
 0161480,0.00053552,-0.01640621,-0.05717067,0.01964269,-0.00037607,-0.0
 0127612,0.00003618,-0.04564687,0.06073719,0.00008282,-0.04655760,-0.21
 958875,0.06043936,-0.02744513,-0.00876453,0.01381370,-0.23442957,0.719
 03592,0.00044683,0.00044933,-0.00026040,0.00005473,0.00022891,-0.00015
 132,-0.00143705,-0.00045604,-0.00003882,-0.00014451,-0.00009769,0.0002
 4996,0.00001178,0.00008137,-0.00001611,-0.00050998,-0.00030428,-0.0005
 7658,0.00019107,0.00030663,0.00024929,0.01512759,0.04370733,-0.0932031
 6,-0.01850760,-0.00584159,0.01804739,0.00341320,0.00015483,0.00459403,
 0.00549549,0.01815343,-0.01197282,-0.00042994,0.00036524,-0.00096824,0
 .03023728,-0.01292859,0.00181878,0.06882171,0.08441197,-0.11927933,0.0
 0695281,0.00212739,0.00394378,-0.27144402,-0.11027945,0.19476887,-0.00
 486078,0.00095550,0.00329364,-0.00037448,0.00317598,-0.00633333,-0.084
 17201,0.00544322,-0.03175743,0.00246048,0.00005123,0.00070972,-0.00030
 840,-0.00086005,-0.00017200,-0.00203035,0.00271596,-0.02938474,0.00038
 126,-0.00116822,0.00227789,-0.00119209,-0.00004723,-0.00002774,0.00117
 275,0.00331135,0.00051488,0.00061730,0.00064194,-0.00002394,0.00550480
 ,-0.00130243,-0.00152191,0.00043013,0.00181330,-0.00156745,-0.14827043
 ,-0.04379786,0.03832313,-0.02216322,-0.01901668,0.01503453,0.00163361,
 -0.00109250,-0.00137875,-0.00217653,0.00420898,0.00199852,0.75035575,0
 .00212035,-0.00045559,-0.00148274,-0.00512395,-0.00083644,-0.03851813,
 0.00138003,-0.08213908,0.02292241,-0.00026184,0.00382599,-0.00180163,-
 0.00263643,-0.00648954,-0.00268841,0.00038087,-0.00226164,0.02201997,0
 .00188139,-0.00066073,-0.00246722,0.00023522,-0.00098403,-0.00007132,0
 .00347712,-0.00196504,0.00225772,-0.00089026,-0.00062597,0.00061687,-0
 .02376550,-0.02237774,0.01730528,-0.00224683,0.00137303,-0.00165154,-0
 .03596610,-0.13087067,0.02781428,0.00306585,0.01145860,-0.00442537,0.0
 0013566,0.00031709,-0.00048256,0.00444525,-0.00015052,-0.00034521,-0.1
 8183214,0.84004033,0.00197644,0.00043343,0.00040155,-0.00117381,-0.002
 46680,-0.02186267,-0.00460079,0.01266045,-0.17728918,-0.00051033,0.001
 58679,-0.00006335,-0.00121577,-0.00274892,-0.00031666,-0.01139546,0.01
 117140,-0.00980440,-0.00024247,-0.00493697,-0.00092595,-0.00076571,0.0
 0058837,-0.00030809,0.00185621,0.00096441,0.00641745,0.00009029,-0.000
 03667,0.00020447,0.00579781,0.00812316,0.00293141,-0.00103477,-0.00192
 522,-0.00456716,0.02598515,0.02468549,-0.09186933,0.00901928,0.0035207
 9,0.00050177,-0.00179757,-0.00074358,-0.00378861,0.00033515,0.00009814
 ,0.00643138,0.05472309,0.16220273,0.44378055,0.00053141,0.00037763,0.0
 0005125,0.00030422,0.00026634,-0.00231219,-0.00153492,-0.00578148,-0.0
 0425998,-0.00039403,-0.00028884,0.00006818,0.00029061,-0.00060031,-0.0
 0022718,-0.00016572,-0.00189372,-0.00110699,-0.00069661,0.00068122,0.0
 0093903,0.00028201,-0.00002970,-0.00034583,0.00050866,-0.00033732,0.00
 081075,-0.00015200,-0.00015306,0.00019754,-0.00263546,-0.00141860,0.00
 142886,-0.00000900,-0.00031101,-0.00017713,-0.00020486,-0.02550629,-0.
 01137975,0.00134596,0.00016386,0.00029045,-0.00064150,0.00022493,-0.00
 017848,0.00046447,0.00003039,0.00022885,-0.01038523,0.00433445,0.00279
 858,0.01161381,-0.00061428,-0.00040484,0.00010844,0.00093266,0.0006013
 2,0.00213663,-0.00025975,0.00758652,0.00340904,0.00008038,-0.00019685,
 0.00018449,0.00005945,0.00029449,0.00027369,0.00118575,0.00049273,0.00
 060529,0.00023049,-0.00024663,-0.00011909,-0.00007654,0.00035833,-0.00
 006752,0.00044637,-0.00031432,0.00055546,-0.00011561,-0.00011000,0.000
 09584,-0.00265824,-0.00121435,0.00079219,-0.00025877,0.00012353,-0.000
 42255,-0.00010963,-0.01596970,-0.00521711,0.00243236,0.00183646,-0.000
 04342,-0.00068517,-0.00001642,-0.00057874,0.00006743,-0.00038809,0.000
 77433,0.00593417,-0.49375923,-0.24508832,-0.00288654,0.51160111,0.0009
 5505,0.00171824,0.00016975,0.00004993,0.00144493,-0.00808299,-0.002465
 97,-0.03062767,-0.01465123,-0.00004524,0.00126067,0.00019926,-0.000821
 22,-0.00191483,-0.00078696,-0.00093538,-0.00709243,0.00018270,0.001558
 33,0.00254038,0.00242543,-0.00022732,0.00019768,0.00009174,0.00001075,
 0.00051877,-0.00101755,0.00010580,0.00011455,-0.00014495,0.00220972,0.
 00142988,-0.00107867,0.00026018,-0.00001089,0.00049131,0.00171378,0.01
 976192,0.00557453,-0.00076399,-0.00028734,0.00052300,0.00007312,-0.000
 24428,0.00029436,-0.00029592,-0.00005146,-0.00024726,0.00263914,-0.245
 58433,-0.11911513,-0.00419104,0.24916692,0.13231149,-0.00013352,-0.000
 15115,0.00000915,0.00023075,-0.00046874,-0.00001586,-0.00245739,0.0017
 8817,0.00080856,-0.00053561,-0.00040476,-0.00060294,0.00010053,-0.0001
 2692,0.00001710,0.00226230,-0.00039509,-0.00049816,-0.00034832,0.00030
 968,0.00012376,0.00070833,-0.00012851,-0.00019396,-0.00030744,-0.00033
 769,0.00060541,-0.00003883,-0.00001316,-0.00003380,0.00213479,0.003286
 98,-0.00091578,0.00044524,-0.00135009,-0.00025249,-0.02085322,0.010894
 48,-0.00281152,-0.00240599,-0.00380996,0.00205019,0.00024219,-0.000095
 08,-0.00028375,-0.00050213,0.00118687,0.00026058,-0.49287654,0.2259346
 4,-0.07134578,0.00182817,-0.00338238,-0.00065369,0.51130181,0.00114581
 ,0.00020489,0.00035434,0.00014031,0.00121665,0.00011362,0.00209363,-0.
 00314699,0.00041154,0.00010944,-0.00004560,0.00004931,0.00003205,0.000
 05512,0.00008180,-0.00182371,0.00025396,0.00066041,0.00044801,0.000015
 28,0.00063143,0.00008413,-0.00008045,-0.00016501,-0.00020439,0.0002709
 7,-0.00007830,0.00008942,0.00008315,-0.00002830,-0.00109732,0.00129390
 ,-0.00027042,0.00049069,-0.00007289,0.00015163,-0.02410374,0.00756007,
 -0.00211270,-0.00228140,-0.00256880,0.00222650,-0.00024268,-0.00010822
 ,-0.00016502,-0.00054711,0.00085862,0.00049478,0.22429210,-0.11356492,
 0.02874820,0.03335531,-0.01035294,0.00736573,-0.23165519,0.11821178,-0
 .00292695,0.00056867,0.00079634,0.00107517,0.00149734,0.00210873,-0.03
 530217,0.02021350,-0.01271504,0.00017227,-0.00142798,0.00020245,0.0002
 6654,0.00016649,0.00003445,0.00362326,-0.00407236,-0.00670856,-0.00039
 994,0.00170595,0.00136378,-0.00002340,-0.00018401,0.00010893,-0.000047
 76,-0.00004336,-0.00015241,-0.00002313,-0.00001746,-0.00002568,-0.0000
 0778,-0.00107492,0.00002580,-0.00029043,0.00018498,0.00035300,0.016290
 22,-0.00586068,-0.00052697,0.00209535,0.00270932,-0.00027008,-0.000345
 25,0.00010002,0.00002232,0.00072466,-0.00020620,-0.00028183,-0.0764054
 3,0.03096422,-0.01140973,0.01691588,-0.00593428,0.00216382,0.07355200,
 -0.03904634,0.02242716,0.00071749,-0.00044141,0.00057055,0.00009837,0.
 00015344,0.00098495,-0.00029208,-0.00033404,-0.00056318,0.00019961,-0.
 00008478,-0.00043946,-0.00025069,-0.00009749,-0.00003579,-0.00097338,0
 .00125348,-0.00014557,0.00032891,-0.00094968,0.00019677,-0.21426447,-0
 .06506493,0.08440904,-0.03469958,-0.03481139,0.02637372,0.00331240,-0.
 00039913,-0.00284233,-0.00133912,0.00930228,0.00122626,-0.00142641,-0.
 00162146,0.00104760,0.00108502,-0.00370089,-0.00134395,-0.00491378,0.0
 0340841,0.00246454,0.00033385,0.00025816,-0.00016104,0.01406869,0.0001
 9450,-0.00306402,0.00073113,-0.00063289,0.00039130,-0.00043154,-0.0000
 8711,0.00013509,-0.00024229,-0.00003634,0.00004791,0.43815722,0.000425
 86,-0.00043313,0.00060641,0.00007907,0.00009404,0.00105755,-0.00021442
 ,-0.00036893,-0.00057452,0.00021137,-0.00006046,-0.00050789,-0.0002574
 8,-0.00013651,-0.00002100,-0.00062113,0.00115677,-0.00003590,0.0001708
 9,-0.00090690,0.00023875,-0.12023451,-0.18416480,0.08259365,0.00275187
 ,0.00883673,-0.00119189,-0.00031273,0.00224628,-0.00126339,-0.00005176
 ,-0.00726603,0.00394865,0.00004351,0.00014135,0.00015919,-0.00571920,0
 .00439527,-0.00121744,0.01062616,-0.00168452,-0.00137405,-0.00160502,-
 0.00071807,0.00068853,-0.04147870,-0.03984304,0.02764963,0.00041855,-0
 .00006103,0.00055023,-0.00030211,-0.00003297,0.00001184,-0.00035700,-0
 .00011519,0.00012348,-0.40150519,1.14189331,-0.00026954,0.00039779,-0.
 00032891,0.00000984,0.00000980,-0.00065036,0.00025909,0.00030599,0.000
 34870,-0.00019235,0.00004032,0.00029501,0.00014997,0.00006742,0.000017
 75,0.00043297,-0.00097753,-0.00004731,-0.00013518,0.00078138,-0.000071
 65,0.09110155,0.05285316,-0.10204028,0.01274678,0.01148330,0.00149903,
 -0.00269380,-0.00181894,-0.00385982,0.00332578,0.00238353,0.00567865,0
 .00055105,0.00067223,0.00011342,0.00160687,-0.00126091,-0.00043969,0.0
 0012395,0.00017736,0.00611614,0.00022634,0.00003607,-0.00002425,0.0095
 0887,0.01482113,0.00241432,-0.00052798,0.00003469,-0.00132663,0.000293
 75,-0.00006075,0.00001637,0.00013147,0.00012335,-0.00001413,-0.1856731
 9,0.02036623,0.00895107,-0.00003190,0.00005447,-0.00010586,-0.00000475
 ,-0.00003160,-0.00007350,-0.00003079,0.00001187,0.00003856,-0.00002993
 ,-0.00000599,0.00003133,0.00002348,0.00001246,0.00000829,0.00001779,-0
 .00010361,0.00000497,-0.00001543,0.00009277,-0.00002639,0.00672477,-0.
 04602409,0.00788378,0.00070895,-0.00312117,-0.00012342,-0.00092654,0.0
 0171317,0.00029092,-0.00109258,-0.00105322,0.00023899,0.00009958,0.000
 03713,-0.00004614,-0.00087294,0.00093326,-0.00009151,0.00184655,-0.000
 12830,0.00033198,-0.00020629,-0.00018229,0.00000506,-0.00381334,-0.004
 06193,0.00353252,-0.00008594,0.00013052,0.00010116,0.00000338,0.000018
 35,-0.00003376,-0.00001991,-0.00003103,-0.00000136,-0.20027156,0.55822
 445,0.07062757,0.19801317,-0.00005350,0.00012090,-0.00015039,0.0000036
 9,-0.00004026,-0.00022823,0.00005426,0.00008953,0.00012112,-0.00005285
 ,0.00001557,0.00010993,0.00005056,0.00003241,0.00000652,0.00009806,-0.
 00028821,-0.00001408,-0.00002669,0.00022773,-0.00003517,0.00949978,-0.
 05492675,0.00571130,0.00411189,0.00931498,-0.00388942,-0.00136676,-0.0
 0045448,0.00034598,0.00133973,-0.00180825,0.00039658,0.00038226,0.0003
 8854,-0.00026796,-0.00037703,0.00054210,0.00029845,0.00161611,-0.00088
 713,0.00035951,-0.00029979,-0.00012993,0.00003609,-0.00511037,-0.00098
 006,0.00259126,-0.00015297,0.00005721,-0.00021633,0.00006054,0.0000047
 9,-0.00001378,0.00003197,0.00000139,-0.00000243,0.49677145,-0.92622018
 ,-0.09872412,-0.50635982,0.97454761,-0.00004739,-0.00013223,0.00002340
 ,-0.00007604,-0.00009473,0.00005327,-0.00000813,0.00001613,0.00000322,
 0.00007859,0.00002523,-0.00003477,0.00000153,-0.00000022,-0.00000236,0
 .00002401,0.00023890,0.00004211,-0.00001416,-0.00020896,-0.00002390,0.
 00166697,0.03404769,0.00202605,-0.00068024,-0.00039549,-0.00116341,0.0
 0070499,-0.00009998,0.00122595,-0.00019873,-0.00024014,-0.00127664,-0.
 00007679,-0.00006858,-0.00004728,-0.00007438,-0.00003825,0.00019104,-0
 .00016360,0.00132675,0.00073980,0.00013937,0.00003717,-0.00031293,0.00
 395036,0.00221558,0.00037721,0.00008875,-0.00003092,0.00005820,-0.0000
 3595,-0.00002556,0.00000417,-0.00001945,-0.00001468,0.00000273,0.07731
 418,-0.13025728,0.08793101,-0.08238115,0.09405080,-0.08951298,-0.00299
 134,0.00433201,-0.00334327,-0.00204142,-0.00556503,-0.00222311,-0.4135
 3023,-0.15957812,0.20619200,0.00018723,-0.00025768,-0.00011923,0.00101
 168,-0.00058285,-0.00053113,-0.02113492,-0.01564410,0.01214780,0.00497
 591,0.00160872,-0.00247246,0.00002064,0.00009226,-0.00007580,0.0000523
 7,0.00001940,0.00013106,-0.00000285,-0.00000058,-0.00002305,0.00001144
 ,0.00026707,0.00010386,-0.00003672,0.00000689,-0.00009836,0.00032887,-
 0.00040459,-0.00180083,0.00031276,0.00021123,-0.00021167,-0.00000101,-
 0.00003385,-0.00017444,0.00010662,-0.00007252,0.00016422,0.00612006,0.
 00520019,-0.00890573,0.00003581,-0.00025735,0.00074400,0.00169285,-0.0
 0009204,0.00091186,-0.00003108,-0.00004038,0.00002620,0.00000799,0.000
 01259,-0.00001893,0.42489671,0.00357244,-0.00148671,0.00323434,-0.0305
 5947,-0.02877160,0.00272693,-0.15823491,-0.06781396,0.07720129,-0.0010
 2914,0.00001104,-0.00007163,0.00159074,0.00259413,0.00183188,0.0187536
 4,0.00872902,-0.01111941,-0.00162108,0.00013298,0.00208257,0.00005880,
 0.00006909,-0.00005062,0.00001816,0.00012020,0.00003105,-0.00000175,0.
 00000404,-0.00003067,-0.00005736,-0.00001693,-0.00025205,-0.00005678,-
 0.00001965,-0.00000702,0.00011286,0.00073760,0.00050254,0.00012339,-0.
 00009055,0.00005315,-0.00002037,-0.00000645,0.00009984,-0.00003694,-0.
 00004889,-0.00002768,-0.00280857,-0.00055348,0.00282605,-0.00003373,0.
 00010646,0.00034836,-0.00050277,0.00021289,-0.00049442,-0.00003492,-0.
 00003736,0.00005811,-0.00000051,0.00001026,-0.00002668,0.17076756,0.08
 612104,-0.00099785,0.00058872,-0.00121969,-0.01859579,-0.01729627,0.00
 469968,0.20079772,0.08201095,-0.10698417,-0.00017373,0.00080660,-0.000
 58121,-0.00001674,0.00070291,0.00295361,-0.00836195,-0.00030612,0.0054
 0994,0.00040621,-0.00137037,-0.00079920,-0.00055250,-0.00006347,0.0001
 1211,0.00054120,0.00041423,0.00012644,0.00007763,0.00009573,-0.0000438
 9,0.00061221,0.00002162,0.00018903,-0.00017806,-0.00001480,-0.00021465
 ,-0.00339979,-0.00107006,-0.00609825,0.00050758,0.00043890,0.00020723,
 -0.00007243,-0.00008119,-0.00027182,0.00011325,0.00001275,0.00039166,0
 .02901352,0.01374498,-0.01820880,0.00021071,-0.00048633,0.00065110,-0.
 00006248,0.00035610,0.00273610,0.00049311,0.00046921,-0.00034682,-0.00
 001673,-0.00010298,0.00003007,-0.20039954,-0.07890547,0.11730065,0.000
 16182,-0.00003269,-0.00000618,0.00003050,0.00001948,0.00007013,0.00000
 149,-0.00003836,-0.00006846,0.,-0.00003030,-0.00002610,-0.00001862,0.0
 0000600,0.00000046,-0.00018137,0.00013269,-0.00008194,0.00006961,-0.00
 009150,0.00001489,-0.00019753,-0.00492171,0.00442842,0.00175293,0.0013
 3749,0.00098455,0.00001666,-0.00002733,0.00012758,0.00067607,-0.000749
 36,-0.00023053,-0.00015214,-0.00006024,-0.00027059,-0.00020121,-0.0025
 4947,0.00365898,-0.01235961,0.01139732,0.00320457,0.00069027,-0.000504
 30,-0.00224869,-0.65334835,0.25679217,0.15859996,-0.00051128,0.0006344
 1,-0.00008627,0.00004237,0.00000396,-0.00002137,-0.00022575,-0.0001659
 5,0.00009849,0.00010330,-0.00025209,-0.00163000,-0.00004376,-0.0002330
 8,-0.00017379,0.00000863,0.00000073,0.00005445,0.66368597,0.00013803,-
 0.00007822,-0.00005885,0.00000715,-0.00001622,0.00005883,0.00002817,-0
 .00000779,-0.00002834,0.00001072,-0.00002173,-0.00003024,-0.00001227,0
 .00000399,0.00000474,-0.00013733,0.00015550,-0.00001993,0.00008514,-0.
 00010786,-0.00004964,0.03384101,-0.00529829,-0.00775189,0.00141420,-0.
 00581054,0.00292793,0.00166564,-0.00032374,-0.00039446,-0.00107925,-0.
 00134741,0.00050517,-0.00007909,-0.00005207,-0.00023856,-0.00300193,-0
 .00169318,0.00423674,-0.02427011,0.01316591,0.00643937,0.00075998,0.00
 058410,-0.00233544,0.25404149,-0.08887394,-0.05121590,-0.00088365,0.00
 068341,0.00000318,0.00004803,0.00000060,-0.00005286,-0.00025430,-0.000
 18266,0.00013046,-0.00154005,0.00328539,-0.00176959,-0.00012489,0.0003
 8224,-0.00032456,0.00001119,-0.00000318,0.00003437,-0.26066787,0.08555
 569,-0.00036935,-0.00009206,0.00002309,-0.00008633,-0.00001682,-0.0000
 7280,0.00005488,0.00012982,-0.00002294,-0.00000547,-0.00000624,0.00002
 715,0.00003813,0.00000368,0.00000717,0.00033524,0.00000972,0.00010444,
 -0.00016127,-0.00008350,-0.00003772,-0.00657490,0.00563789,0.00891772,
 0.00110273,0.00281760,0.00497001,-0.00034313,0.00018137,0.00045479,-0.
 00023544,0.00037798,-0.00084248,-0.00024620,-0.00025594,-0.00081193,0.
 00379012,0.00378977,0.00597774,0.01382856,-0.00525853,0.00347171,-0.00
 265680,-0.00207117,-0.00485656,0.15893700,-0.05239946,-0.00629080,0.00
 048388,-0.00033378,0.00012891,-0.00001930,-0.00005865,0.00002570,0.000
 13146,0.00011203,-0.00024118,-0.00138648,-0.00202000,-0.00423161,-0.00
 019530,-0.00038267,-0.00033396,-0.00002346,-0.00001049,-0.00003913,-0.
 16639855,0.04992945,-0.00632731\\0.02643818,0.00176130,0.00810355,-0.1
 2162593,0.12080922,0.10894412,-0.09070794,-0.05064332,0.01441918,0.101
 68831,-0.13391290,0.08195182,0.04007693,0.00449434,-0.17517353,-0.0542
 4745,0.00604063,-0.01374514,0.01855747,0.01386349,0.00934470,0.0133041
 4,0.00909774,-0.00615460,-0.06210821,0.13224721,-0.01334289,0.03706943
 ,-0.14336693,0.02760626,-0.11813953,0.05322095,0.02216697,0.13817234,-
 0.05157633,-0.03145104,0.01622229,0.00784935,-0.00866254,0.02580593,-0
 .13959241,0.03026393,-0.03743591,0.14143329,-0.03068459,0.13188362,-0.
 03302085,-0.03231551,-0.09318475,-0.05154810,-0.04907319,-0.00064964,0
 .09131224,0.03857040,0.09036515,-0.04390383,0.01569001,-0.07269661,0.1
 5935448,0.01192508,0.07194796,-0.18296241,-0.00850934,0.07683617,0.038
 37841,-0.03186333,-0.13757196,0.05066443,0.03198969\\\@
 The archive entry for this job was punched.

 Writing a WFNX file to "ZIVZUC_Complex_3_Ligand_2_ON_Cu_oriented.wfx"


 IT CANNOT BE MY BEAUTY, FOR I HAVE NONE; AND IT CANNOT BE MY WIT,
 FOR HE HAS NOT ENOUGH TO KNOW THAT I HAVE ANY.
 -- CATHARINE SEDLEY, PUZZLED ABOUT WHY SHE WAS MISTRESS TO JAMES II
 Job cpu time:       0 days  0 hours 16 minutes 26.0 seconds.
 Elapsed time:       0 days  0 hours 16 minutes 30.5 seconds.
 File lengths (MBytes):  RWF=    400 Int=      0 D2E=      0 Chk=     12 Scr=      8
 Normal termination of Gaussian 16 at Mon Mar  6 10:38:19 2023.
