 Entering Gaussian System, Link 0=g16
 Initial command:
 /ssoft/spack/external/gaussian/g16-C.01/avx2/g16/l1.exe "/scratch/lcmd/2387878/Gau-1723080.inp" -scrdir="/scratch/lcmd/2387878/"
 Entering Link 1 = /ssoft/spack/external/gaussian/g16-C.01/avx2/g16/l1.exe PID=   1723085.
  
 Copyright (c) 1988-2019, Gaussian, Inc.  All Rights Reserved.
  
 This is part of the Gaussian(R) 16 program.  It is based on
 the Gaussian(R) 09 system (copyright 2009, Gaussian, Inc.),
 the Gaussian(R) 03 system (copyright 2003, Gaussian, Inc.),
 the Gaussian(R) 98 system (copyright 1998, Gaussian, Inc.),
 the Gaussian(R) 94 system (copyright 1995, Gaussian, Inc.),
 the Gaussian 92(TM) system (copyright 1992, Gaussian, Inc.),
 the Gaussian 90(TM) system (copyright 1990, Gaussian, Inc.),
 the Gaussian 88(TM) system (copyright 1988, Gaussian, Inc.),
 the Gaussian 86(TM) system (copyright 1986, Carnegie Mellon
 University), and the Gaussian 82(TM) system (copyright 1983,
 Carnegie Mellon University). Gaussian is a federally registered
 trademark of Gaussian, Inc.
  
 This software contains proprietary and confidential information,
 including trade secrets, belonging to Gaussian, Inc.
  
 This software is provided under written license and may be
 used, copied, transmitted, or stored only in accord with that
 written license.
  
 The following legend is applicable only to US Government
 contracts under FAR:
  
                    RESTRICTED RIGHTS LEGEND
  
 Use, reproduction and disclosure by the US Government is
 subject to restrictions as set forth in subparagraphs (a)
 and (c) of the Commercial Computer Software - Restricted
 Rights clause in FAR 52.227-19.
  
 Gaussian, Inc.
 340 Quinnipiac St., Bldg. 40, Wallingford CT 06492
  
  
 ---------------------------------------------------------------
 Warning -- This program may not be used in any manner that
 competes with the business of Gaussian, Inc. or will provide
 assistance to any competitor of Gaussian, Inc.  The licensee
 of this program is prohibited from giving any competitor of
 Gaussian, Inc. access to this program.  By using this program,
 the user acknowledges that Gaussian, Inc. is engaged in the
 business of creating and licensing software in the field of
 computational chemistry and represents and warrants to the
 licensee that it is not a competitor of Gaussian, Inc. and that
 it will not use this program in any manner prohibited above.
 ---------------------------------------------------------------
  

 Cite this work as:
 Gaussian 16, Revision C.01,
 M. J. Frisch, G. W. Trucks, H. B. Schlegel, G. E. Scuseria, 
 M. A. Robb, J. R. Cheeseman, G. Scalmani, V. Barone, 
 G. A. Petersson, H. Nakatsuji, X. Li, M. Caricato, A. V. Marenich, 
 J. Bloino, B. G. Janesko, R. Gomperts, B. Mennucci, H. P. Hratchian, 
 J. V. Ortiz, A. F. Izmaylov, J. L. Sonnenberg, D. Williams-Young, 
 F. Ding, F. Lipparini, F. Egidi, J. Goings, B. Peng, A. Petrone, 
 T. Henderson, D. Ranasinghe, V. G. Zakrzewski, J. Gao, N. Rega, 
 G. Zheng, W. Liang, M. Hada, M. Ehara, K. Toyota, R. Fukuda, 
 J. Hasegawa, M. Ishida, T. Nakajima, Y. Honda, O. Kitao, H. Nakai, 
 T. Vreven, K. Throssell, J. A. Montgomery, Jr., J. E. Peralta, 
 F. Ogliaro, M. J. Bearpark, J. J. Heyd, E. N. Brothers, K. N. Kudin, 
 V. N. Staroverov, T. A. Keith, R. Kobayashi, J. Normand, 
 K. Raghavachari, A. P. Rendell, J. C. Burant, S. S. Iyengar, 
 J. Tomasi, M. Cossi, J. M. Millam, M. Klene, C. Adamo, R. Cammi, 
 J. W. Ochterski, R. L. Martin, K. Morokuma, O. Farkas, 
 J. B. Foresman, and D. J. Fox, Gaussian, Inc., Wallingford CT, 2019.
 
 ******************************************
 Gaussian 16:  ES64L-G16RevC.01  3-Jul-2019
                 6-Mar-2023 
 ******************************************
 %nprocshared=1
 Will use up to    1 processors via shared memory.
 %mem=8000MB
 %chk=ZIXTIM_Complex_4_Ligand_1_ON_Cu_oriented.chk
 ----------------------------------------------------------------------
 #p pop=(regular,nbo,savenbos) freq=noraman def2svp empiricaldispersion
 =gd3bj output=wfx pbe1pbe
 ----------------------------------------------------------------------
 1/10=4,30=1,38=1/1,3;
 2/12=2,17=6,18=5,40=1/2;
 3/5=43,7=101,11=2,25=1,30=1,71=2,74=-13,124=41,140=1/1,2,3;
 4//1;
 5/5=2,38=5,98=1/2;
 8/6=4,10=90,11=11/1;
 11/6=1,8=1,9=11,15=111,16=1/1,2,10;
 10/6=1/2;
 6/28=1,40=1,73=1/1,7;
 7/8=1,10=1,25=1/1,2,3,16;
 1/10=4,30=1/3;
 99/6=200/99;
 Leave Link    1 at Mon Mar  6 10:21:49 2023, MaxMem=  1048576000 cpu:               0.0 elap:               0.2
 (Enter /ssoft/spack/external/gaussian/g16-C.01/avx2/g16/l101.exe)
 ----------------------------------------
 ZIXTIM_Complex_4_Ligand_1_ON_Cu_oriented
 ----------------------------------------
 Symbolic Z-matrix:
 Charge = -1 Multiplicity = 1
 O                    -3.3077    2.40535   0.12618 
 O                    -1.47434  -1.25662   0. 
 N                    -1.28476   1.47327   0. 
 N                    -3.29949   0.15952  -0.18987 
 C                    -0.63583   2.69401  -2.52379 
 H                    -1.03371   1.8313   -2.50299 
 C                    -0.20171   3.16803  -3.67425 
 H                    -0.29168   2.63741  -4.45684 
 C                     0.37189   4.3959   -3.77264 
 H                     0.68657   4.71294  -4.61329 
 C                     0.49449   5.19014  -2.63454 
 H                     0.8751    6.05859  -2.6882 
 C                     0.05646   4.69212  -1.43242 
 H                     0.15259   5.22657  -0.65295 
 C                    -0.5299    3.42691  -1.31787 
 C                    -0.99957   2.89104   0.03041 
 H                    -0.3259    3.09544   0.74093 
 C                    -2.36284   3.46875   0.40709 
 H                    -2.38526   3.71389   1.36562 
 H                    -2.56427   4.27145  -0.13433 
 C                    -2.55784   1.29988   0.00985 
 C                    -2.68154  -1.00008  -0.16735 
 C                    -3.5703   -2.19536  -0.37993 
 C                    -3.06953  -3.47119  -0.13523 
 H                    -2.18298  -3.55797   0.19526 
 C                    -4.912    -2.07724  -0.76247 
 H                    -5.29126  -1.21491  -0.89058 
 O                    -5.41317  -6.75495  -0.76459 
 O                    -7.12267  -5.53041  -1.25805 
 N                    -5.94665  -5.67335  -0.93434 
 C                    -3.80253  -4.60356  -0.35194 
 H                    -3.4248   -5.46718  -0.23922 
 C                    -5.13278  -4.43317  -0.74695 
 C                    -5.68943  -3.20646  -0.95553 
 H                    -6.59537  -3.12754  -1.23102 
 
 ITRead=  0  0  0  0  0  0  0  0  0  0  0  0  0  0  0  0  0  0  0  0
 ITRead=  0  0  0  0  0  0  0  0  0  0  0  0  0  0  0
 MicOpt= -1 -1 -1 -1 -1 -1 -1 -1 -1 -1 -1 -1 -1 -1 -1 -1 -1 -1 -1 -1
 MicOpt= -1 -1 -1 -1 -1 -1 -1 -1 -1 -1 -1 -1 -1 -1 -1
 NAtoms=     35 NQM=       35 NQMF=       0 NMMI=      0 NMMIF=      0
                NMic=       0 NMicF=      0.
                    Isotopes and Nuclear Properties:
 (Nuclear quadrupole moments (NQMom) in fm**2, nuclear magnetic moments (NMagM)
  in nuclear magnetons)

  Atom         1           2           3           4           5           6           7           8           9          10
 IAtWgt=          16          16          14          14          12           1          12           1          12           1
 AtmWgt=  15.9949146  15.9949146  14.0030740  14.0030740  12.0000000   1.0078250  12.0000000   1.0078250  12.0000000   1.0078250
 NucSpn=           0           0           2           2           0           1           0           1           0           1
 AtZEff=  -0.0000000  -0.0000000  -0.0000000  -0.0000000  -0.0000000  -0.0000000  -0.0000000  -0.0000000  -0.0000000  -0.0000000
 NQMom=    0.0000000   0.0000000   2.0440000   2.0440000   0.0000000   0.0000000   0.0000000   0.0000000   0.0000000   0.0000000
 NMagM=    0.0000000   0.0000000   0.4037610   0.4037610   0.0000000   2.7928460   0.0000000   2.7928460   0.0000000   2.7928460
 AtZNuc=   8.0000000   8.0000000   7.0000000   7.0000000   6.0000000   1.0000000   6.0000000   1.0000000   6.0000000   1.0000000

  Atom        11          12          13          14          15          16          17          18          19          20
 IAtWgt=          12           1          12           1          12          12           1          12           1           1
 AtmWgt=  12.0000000   1.0078250  12.0000000   1.0078250  12.0000000  12.0000000   1.0078250  12.0000000   1.0078250   1.0078250
 NucSpn=           0           1           0           1           0           0           1           0           1           1
 AtZEff=  -0.0000000  -0.0000000  -0.0000000  -0.0000000  -0.0000000  -0.0000000  -0.0000000  -0.0000000  -0.0000000  -0.0000000
 NQMom=    0.0000000   0.0000000   0.0000000   0.0000000   0.0000000   0.0000000   0.0000000   0.0000000   0.0000000   0.0000000
 NMagM=    0.0000000   2.7928460   0.0000000   2.7928460   0.0000000   0.0000000   2.7928460   0.0000000   2.7928460   2.7928460
 AtZNuc=   6.0000000   1.0000000   6.0000000   1.0000000   6.0000000   6.0000000   1.0000000   6.0000000   1.0000000   1.0000000

  Atom        21          22          23          24          25          26          27          28          29          30
 IAtWgt=          12          12          12          12           1          12           1          16          16          14
 AtmWgt=  12.0000000  12.0000000  12.0000000  12.0000000   1.0078250  12.0000000   1.0078250  15.9949146  15.9949146  14.0030740
 NucSpn=           0           0           0           0           1           0           1           0           0           2
 AtZEff=  -0.0000000  -0.0000000  -0.0000000  -0.0000000  -0.0000000  -0.0000000  -0.0000000  -0.0000000  -0.0000000  -0.0000000
 NQMom=    0.0000000   0.0000000   0.0000000   0.0000000   0.0000000   0.0000000   0.0000000   0.0000000   0.0000000   2.0440000
 NMagM=    0.0000000   0.0000000   0.0000000   0.0000000   2.7928460   0.0000000   2.7928460   0.0000000   0.0000000   0.4037610
 AtZNuc=   6.0000000   6.0000000   6.0000000   6.0000000   1.0000000   6.0000000   1.0000000   8.0000000   8.0000000   7.0000000

  Atom        31          32          33          34          35
 IAtWgt=          12           1          12          12           1
 AtmWgt=  12.0000000   1.0078250  12.0000000  12.0000000   1.0078250
 NucSpn=           0           1           0           0           1
 AtZEff=  -0.0000000  -0.0000000  -0.0000000  -0.0000000  -0.0000000
 NQMom=    0.0000000   0.0000000   0.0000000   0.0000000   0.0000000
 NMagM=    0.0000000   2.7928460   0.0000000   0.0000000   2.7928460
 AtZNuc=   6.0000000   1.0000000   6.0000000   6.0000000   1.0000000
 Leave Link  101 at Mon Mar  6 10:21:49 2023, MaxMem=  1048576000 cpu:               0.1 elap:               0.1
 (Enter /ssoft/spack/external/gaussian/g16-C.01/avx2/g16/l103.exe)

 GradGradGradGradGradGradGradGradGradGradGradGradGradGradGradGradGradGrad
 Berny optimization.
 Initialization pass.
 Trust Radius=3.00D-01 FncErr=1.00D-07 GrdErr=1.00D-07 EigMax=2.50D+02 EigMin=1.00D-04
 Number of steps in this run=      2 maximum allowed number of steps=      2.
 GradGradGradGradGradGradGradGradGradGradGradGradGradGradGradGradGradGrad

 Leave Link  103 at Mon Mar  6 10:21:49 2023, MaxMem=  1048576000 cpu:               0.0 elap:               0.0
 (Enter /ssoft/spack/external/gaussian/g16-C.01/avx2/g16/l202.exe)
                          Input orientation:                          
 ---------------------------------------------------------------------
 Center     Atomic      Atomic             Coordinates (Angstroms)
 Number     Number       Type             X           Y           Z
 ---------------------------------------------------------------------
      1          8           0       -3.307703    2.405355    0.126176
      2          8           0       -1.474338   -1.256622    0.000000
      3          7           0       -1.284759    1.473269    0.000000
      4          7           0       -3.299490    0.159521   -0.189872
      5          6           0       -0.635831    2.694012   -2.523794
      6          1           0       -1.033713    1.831303   -2.502989
      7          6           0       -0.201710    3.168032   -3.674249
      8          1           0       -0.291683    2.637414   -4.456844
      9          6           0        0.371886    4.395897   -3.772636
     10          1           0        0.686567    4.712938   -4.613290
     11          6           0        0.494495    5.190143   -2.634544
     12          1           0        0.875096    6.058594   -2.688196
     13          6           0        0.056464    4.692121   -1.432419
     14          1           0        0.152593    5.226575   -0.652949
     15          6           0       -0.529900    3.426910   -1.317868
     16          6           0       -0.999573    2.891037    0.030414
     17          1           0       -0.325904    3.095442    0.740926
     18          6           0       -2.362839    3.468745    0.407095
     19          1           0       -2.385262    3.713885    1.365617
     20          1           0       -2.564272    4.271454   -0.134325
     21          6           0       -2.557841    1.299883    0.009845
     22          6           0       -2.681539   -1.000075   -0.167347
     23          6           0       -3.570296   -2.195356   -0.379928
     24          6           0       -3.069529   -3.471191   -0.135229
     25          1           0       -2.182981   -3.557967    0.195259
     26          6           0       -4.912001   -2.077240   -0.762470
     27          1           0       -5.291260   -1.214909   -0.890580
     28          8           0       -5.413173   -6.754951   -0.764591
     29          8           0       -7.122667   -5.530407   -1.258051
     30          7           0       -5.946652   -5.673353   -0.934345
     31          6           0       -3.802527   -4.603557   -0.351940
     32          1           0       -3.424803   -5.467175   -0.239217
     33          6           0       -5.132784   -4.433166   -0.746948
     34          6           0       -5.689434   -3.206456   -0.955533
     35          1           0       -6.595373   -3.127542   -1.231021
 ---------------------------------------------------------------------
                    Distance matrix (angstroms):
                    1          2          3          4          5
     1  O    0.000000
     2  O    4.097221   0.000000
     3  N    2.230921   2.736466   0.000000
     4  N    2.267978   2.317907   2.412701   0.000000
     5  C    3.774197   4.762367   2.877648   4.354987   0.000000
     6  H    3.523219   3.999298   2.540899   3.644051   0.950268
     7  C    4.967101   5.890437   4.188714   5.548717   1.317840
     8  H    5.491293   6.035367   4.712207   5.778746   1.964261
     9  C    5.718599   7.042180   5.051634   6.652976   2.339127
    10  H    6.613748   7.847777   5.971936   7.495924   3.192302
    11  C    5.461989   7.237257   4.890983   6.758542   2.742366
    12  H    6.225966   8.139940   5.737297   7.646428   3.691929
    13  C    4.356161   6.307354   3.769842   5.775016   2.379667
    14  H    4.532104   6.716032   4.071809   6.148687   3.245851
    15  C    3.293179   4.956230   2.474531   4.429316   1.415139
    16  C    2.360619   4.174854   1.446486   3.577615   2.587490
    17  H    3.121740   4.561615   2.024801   4.281148   3.303876
    18  C    1.449994   4.825376   2.304324   3.490652   3.488965
    19  H    2.024689   5.234561   2.845413   3.986084   4.384993
    20  H    2.025555   5.636100   3.079779   4.177514   3.452068
    21  C    1.340856   2.776651   1.284873   1.374902   3.472326
    22  C    3.474938   1.245454   2.845423   1.314167   4.835705
    23  C    4.635907   2.327791   4.338990   2.378004   6.092058
    24  C    5.887177   2.732625   5.258457   3.638397   7.045414
    25  H    6.068853   2.415883   5.114515   3.900594   6.991006
    26  C    4.843255   3.615564   5.132675   2.816231   6.644752
    27  H    4.251423   3.919665   4.906270   2.519365   6.294447
    28  O    9.441275   6.806662   9.237532   7.253129  10.733158
    29  O    8.913268   7.193855   9.204094   6.937792  10.550934
    30  N    8.564711   6.354692   8.583732   6.448575  10.037129
    31  C    7.042606   4.092225   6.587172   4.792309   8.246177
    32  H    7.881875   4.646536   7.266827   5.628307   8.922031
    33  C    7.131524   4.902305   7.088809   4.976352   8.612574
    34  C    6.191539   4.741511   6.497232   4.198555   7.925520
    35  H    6.577515   5.589343   7.133407   4.769865   8.430770
                    6          7          8          9         10
     6  H    0.000000
     7  C    1.962377   0.000000
     8  H    2.240084   0.949793   0.000000
     9  C    3.188237   1.358803   2.000182   0.000000
    10  H    3.964411   2.014341   2.299836   0.951965   0.000000
    11  C    3.692496   2.377944   3.233462   1.393238   2.044518
    12  H    4.641965   3.238389   4.024172   2.047875   2.356337
    13  C    3.243283   2.723106   3.672898   2.379886   3.242747
    14  H    4.044482   3.673062   4.622851   3.235825   4.029051
    15  C    2.050439   2.393169   3.245493   2.788913   3.740784
    16  C    2.746330   3.799715   4.549826   4.313779   5.265584
    17  H    3.552749   4.417518   5.218024   4.748720   5.684102
    18  C    3.593936   4.627988   5.351514   5.080205   6.004262
    19  H    4.509646   5.519610   6.280359   5.871000   6.795702
    20  H    3.729278   4.396623   5.149652   4.676945   5.551936
    21  C    2.986588   4.755406   5.184185   5.698752   6.599129
    22  C    4.023339   5.985067   6.110853   7.172031   7.984301
    23  C    5.211106   7.139037   7.122234   8.396183   9.152418
    24  C    6.153639   8.051604   7.981719   9.325510  10.056900
    25  H    6.135600   8.008595   7.975075   9.248540   9.988209
    26  C    5.774706   7.627461   7.564635   8.881557   9.606211
    27  H    5.477771   7.270660   7.249441   8.476946   9.205018
    28  O    9.794154  11.579769  11.317196  12.917301  13.547390
    29  O    9.634314  11.375434  11.117910  12.689483  13.310442
    30  N    9.105903  10.894105  10.651550  12.221686  12.861153
    31  C    7.328081   9.187014   9.033711  10.493668  11.185175
    32  H    8.006857   9.836390   9.658633  11.143612  11.818231
    33  C    7.689580   9.521701   9.337703  10.835522  11.509330
    34  C    7.032024   8.839718   8.691703  10.122818  10.805062
    35  H    7.559107   9.299598   9.131109  10.564310  11.222277
                   11         12         13         14         15
    11  C    0.000000
    12  H    0.949707   0.000000
    13  C    1.372954   2.028395   0.000000
    14  H    2.011205   2.314411   0.949976   0.000000
    15  C    2.427346   3.282921   1.399179   2.036346   0.000000
    16  C    3.823627   4.575876   2.549313   2.692435   1.524998
    17  H    4.056430   4.688449   2.723787   2.591056   2.095261
    18  C    4.514325   5.174202   3.276200   3.246699   2.517323
    19  H    5.145252   5.706223   3.840308   3.578204   3.275029
    20  H    4.056000   4.641700   2.954702   2.926190   2.500540
    21  C    5.607466   6.458314   4.519070   4.817122   3.224844
    22  C    7.381940   8.296333   6.441906   6.858519   5.054844
    23  C    8.726478   9.654911   7.854837   8.307798   6.460157
    24  C    9.693685  10.625183   8.837092   9.289845   7.445277
    25  H    9.576329  10.494970   8.702207   9.129213   7.335581
    26  C    9.249308  10.168122   8.423700   8.888634   7.057404
    27  H    8.805740   9.703567   7.986535   8.437104   6.663303
    28  O   13.456690  14.402414  12.704266  13.211630  11.305873
    29  O   13.222937  14.153249  12.492814  13.000316  11.122126
    30  N   12.743413  13.683962  11.988683  12.493534  10.597315
    31  C   10.935778  11.875173  10.122691  10.600240   8.725338
    32  H   11.605038  12.543125  10.805288  11.283848   9.415344
    33  C   11.306518  12.245003  10.519935  11.011569   9.126516
    34  C   10.562335  11.486354   9.779073  10.263373   8.411517
    35  H   11.019073  11.929642  10.268136  10.754556   8.930753
                   16         17         18         19         20
    16  C    0.000000
    17  H    1.000219   0.000000
    18  C    1.527786   2.097594   0.000000
    19  H    2.092840   2.239121   0.989626   0.000000
    20  H    2.093077   2.675698   0.988965   1.610203   0.000000
    21  C    2.227195   2.956358   2.213549   2.774042   2.975073
    22  C    4.243686   4.811157   4.516848   4.965801   5.272936
    23  C    5.713878   6.306737   5.844605   6.274581   6.549201
    24  C    6.692541   7.170480   6.996874   7.371979   7.759113
    25  H    6.558756   6.929238   7.032205   7.368208   7.845625
    26  C    6.373345   7.074540   6.214826   6.667105   6.797963
    27  H    6.010458   6.774636   5.674172   6.150469   6.173213
    28  O   10.637527  11.188258  10.733189  11.104169  11.405922
    29  O   10.491575  11.162310  10.315688  10.713710  10.868219
    30  N    9.937461  10.549460   9.910658  10.300173  10.534690
    31  C    8.010724   8.517972   8.234738   8.610372   8.963618
    32  H    8.707132   9.158726   9.021982   9.378060   9.777137
    33  C    8.445809   9.055374   8.452492   8.853602   9.096316
    34  C    7.755405   8.447445   7.581642   8.012266   8.146173
    35  H    8.314294   9.050985   8.006795   8.442315   8.496920
                   21         22         23         24         25
    21  C    0.000000
    22  C    2.310088   0.000000
    23  C    3.659738   1.504585   0.000000
    24  C    4.800626   2.501596   1.392264   0.000000
    25  H    4.875818   2.631132   2.027854   0.950116   0.000000
    26  C    4.188495   2.547433   1.400165   2.393999   3.249207
    27  H    3.821848   2.716591   2.045424   3.255373   4.041085
    28  O    8.580968   6.398212   4.932957   4.083117   4.645014
    29  O    8.312524   6.437170   4.951061   4.682844   5.513903
    30  N    7.810349   5.752284   4.248636   3.710248   4.462744
    31  C    6.044066   3.778330   2.419535   1.366201   2.003900
    32  H    6.826912   4.529082   3.278074   2.030021   2.318613
    33  C    6.330159   4.258011   2.753882   2.357248   3.217929
    34  C    5.571886   3.812713   2.417517   2.758058   3.707167
    35  H    6.119109   4.579914   3.277868   3.708157   4.657117
                   26         27         28         29         30
    26  C    0.000000
    27  H    0.950718   0.000000
    28  O    4.704483   5.542815   0.000000
    29  O    4.130013   4.702405   2.159949   0.000000
    30  N    3.745941   4.506571   1.217896   1.228100   0.000000
    31  C    2.789579   3.740241   2.718999   3.564185   2.465954
    32  H    3.738611   4.689318   2.426520   3.836172   2.624011
    33  C    2.366300   3.225357   2.338720   2.329119   1.495179
    34  C    1.384487   2.031999   3.564351   2.747076   2.480361
    35  H    2.038729   2.339824   3.843598   2.460189   2.643862
                   31         32         33         34         35
    31  C    0.000000
    32  H    0.949324   0.000000
    33  C    1.398087   2.060137   0.000000
    34  C    2.424177   3.279102   1.363153   0.000000
    35  H    3.278931   4.063258   2.019442   0.950182   0.000000
 Stoichiometry    C16H12N3O4(1-)
 Framework group  C1[X(C16H12N3O4)]
 Deg. of freedom    99
 Full point group                 C1      NOp   1
 Largest Abelian subgroup         C1      NOp   1
 Largest concise Abelian subgroup C1      NOp   1
                         Standard orientation:                         
 ---------------------------------------------------------------------
 Center     Atomic      Atomic             Coordinates (Angstroms)
 Number     Number       Type             X           Y           Z
 ---------------------------------------------------------------------
      1          8           0       -1.926221   -1.865278   -1.081249
      2          8           0        0.356548   -0.140608    1.851617
      3          7           0       -2.107758   -0.851838    0.897891
      4          7           0       -0.010851   -0.942105   -0.292051
      5          6           0       -3.742568    1.294880   -0.102038
      6          1           0       -2.798148    1.394550   -0.068167
      7          6           0       -4.483039    2.340204   -0.411396
      8          1           0       -4.058939    3.171050   -0.590114
      9          6           0       -5.837816    2.262976   -0.481822
     10          1           0       -6.352168    3.034295   -0.698035
     11          6           0       -6.470216    1.045747   -0.237822
     12          1           0       -7.414649    0.968793   -0.301601
     13          6           0       -5.701672   -0.040860    0.099263
     14          1           0       -6.132405   -0.868022    0.280171
     15          6           0       -4.306596    0.028250    0.181051
     16          6           0       -3.474795   -1.190085    0.567556
     17          1           0       -3.905173   -1.680008    1.325967
     18          6           0       -3.278595   -2.123142   -0.626195
     19          1           0       -3.382090   -3.068160   -0.351258
     20          1           0       -3.934554   -1.922403   -1.338567
     21          6           0       -1.340176   -1.211985   -0.067517
     22          6           0        0.700349   -0.440845    0.692818
     23          6           0        2.147246   -0.190043    0.365156
     24          6           0        3.039041    0.105837    1.392559
     25          1           0        2.719612    0.109482    2.287361
     26          6           0        2.654265   -0.298432   -0.935476
     27          1           0        2.075079   -0.545028   -1.647936
     28          8           0        6.961974    0.866769    0.553857
     29          8           0        6.673880    0.430883   -1.541945
     30          7           0        6.262537    0.547526   -0.390676
     31          6           0        4.355482    0.391581    1.164880
     32          1           0        4.934945    0.652003    1.870301
     33          6           0        4.810247    0.283328   -0.152739
     34          6           0        3.991900   -0.048979   -1.191038
     35          1           0        4.333207   -0.106348   -2.075948
 ---------------------------------------------------------------------
 Rotational constants (GHZ):           0.7962544           0.0865691           0.0843663
 Leave Link  202 at Mon Mar  6 10:21:49 2023, MaxMem=  1048576000 cpu:               0.0 elap:               0.0
 (Enter /ssoft/spack/external/gaussian/g16-C.01/avx2/g16/l301.exe)
 Standard basis: def2SVP (5D, 7F)
 Ernie: Thresh=  0.10000D-02 Tol=  0.10000D-05 Strict=F.
 There are   405 symmetry adapted cartesian basis functions of A   symmetry.
 There are   382 symmetry adapted basis functions of A   symmetry.
   382 basis functions,   659 primitive gaussians,   405 cartesian basis functions
    81 alpha electrons       81 beta electrons
       nuclear repulsion energy      1722.7131690676 Hartrees.
 IExCor= 1009 DFT=T Ex+Corr=PBE1PBE ExCW=0 ScaHFX=  0.250000
 ScaDFX=  0.750000  0.750000  1.000000  1.000000 ScalE2=  1.000000  1.000000
 IRadAn=      5 IRanWt=     -1 IRanGd=            0 ICorTp=0 IEmpDi=141
 NAtoms=   35 NActive=   35 NUniq=   35 SFac= 1.00D+00 NAtFMM=   60 NAOKFM=F Big=F
 Integral buffers will be    131072 words long.
 Raffenetti 2 integral format.
 Two-electron integral symmetry is turned on.
 R6Disp:  Grimme-D3(BJ) Dispersion energy=       -0.0397357163 Hartrees.
 Nuclear repulsion after empirical dispersion term =     1722.6734333513 Hartrees.
 Leave Link  301 at Mon Mar  6 10:21:49 2023, MaxMem=  1048576000 cpu:               0.0 elap:               0.1
 (Enter /ssoft/spack/external/gaussian/g16-C.01/avx2/g16/l302.exe)
 NPDir=0 NMtPBC=     1 NCelOv=     1 NCel=       1 NClECP=     1 NCelD=      1
         NCelK=      1 NCelE2=     1 NClLst=     1 CellRange=     0.0.
 One-electron integrals computed using PRISM.
 One-electron integral symmetry used in STVInt
   1 Symmetry operations used in ECPInt.
 ECPInt:  NShTT=   15225 NPrTT=   56951 LenC2=   12244 LenP2D=   31081.
 LDataN:  DoStor=T MaxTD1= 4 Len=   56
 NBasis=   382 RedAO= T EigKep=  2.60D-04  NBF=   382
 NBsUse=   382 1.00D-06 EigRej= -1.00D+00 NBFU=   382
 Precomputing XC quadrature grid using
 IXCGrd= 4 IRadAn=           5 IRanWt=          -1 IRanGd=           0 AccXCQ= 0.00D+00.
 Generated NRdTot=       0 NPtTot=           0 NUsed=           0 NTot=          32
 NSgBfM=   388   388   388   388   388 MxSgAt=    35 MxSgA2=    35.
 Leave Link  302 at Mon Mar  6 10:21:50 2023, MaxMem=  1048576000 cpu:               0.9 elap:               0.9
 (Enter /ssoft/spack/external/gaussian/g16-C.01/avx2/g16/l303.exe)
 DipDrv:  MaxL=1.
 Leave Link  303 at Mon Mar  6 10:21:50 2023, MaxMem=  1048576000 cpu:               0.0 elap:               0.1
 (Enter /ssoft/spack/external/gaussian/g16-C.01/avx2/g16/l401.exe)
 ExpMin= 1.22D-01 ExpMax= 2.27D+03 ExpMxC= 3.41D+02 IAcc=3 IRadAn=         5 AccDes= 0.00D+00
 Harris functional with IExCor= 1009 and IRadAn=       5 diagonalized for initial guess.
 HarFok:  IExCor= 1009 AccDes= 0.00D+00 IRadAn=         5 IDoV= 1 UseB2=F ITyADJ=14
 ICtDFT=  3500011 ScaDFX=  1.000000  1.000000  1.000000  1.000000
 FoFCou: FMM=F IPFlag=           0 FMFlag=      100000 FMFlg1=           0
         NFxFlg=           0 DoJE=T BraDBF=F KetDBF=T FulRan=T
         wScrn=  0.000000 ICntrl=       500 IOpCl=  0 I1Cent=   200000004 NGrid=           0
         NMat0=    1 NMatS0=      1 NMatT0=    0 NMatD0=    1 NMtDS0=    0 NMtDT0=    0
 Petite list used in FoFCou.
 Harris En= -1080.37587147020    
 JPrj=0 DoOrth=F DoCkMO=F.
 Leave Link  401 at Mon Mar  6 10:21:57 2023, MaxMem=  1048576000 cpu:               7.1 elap:               7.2
 (Enter /ssoft/spack/external/gaussian/g16-C.01/avx2/g16/l502.exe)
 Integral symmetry usage will be decided dynamically.
 Closed shell SCF:
 Using DIIS extrapolation, IDIIS=  1040.
 NGot=  1048576000 LenX=  1048240478 LenY=  1048076012
 Requested convergence on RMS density matrix=1.00D-08 within 128 cycles.
 Requested convergence on MAX density matrix=1.00D-06.
 Requested convergence on             energy=1.00D-06.
 No special actions if energy rises.
 Fock matrices will be formed incrementally for  20 cycles.
 Integral accuracy reduced to 1.0D-05 until final iterations.

 Cycle   1  Pass 0  IDiag  1:
 FoFJK:  IHMeth= 1 ICntrl=       0 DoSepK=F KAlg= 0 I1Cent=           0 FoldK=F
 IRaf= 720000000 NMat=       1 IRICut=       1 DoRegI=T DoRafI=F ISym2E= 0 IDoP0=0 IntGTp=1.
 FoFCou: FMM=F IPFlag=           0 FMFlag=      100000 FMFlg1=           0
         NFxFlg=           0 DoJE=F BraDBF=F KetDBF=F FulRan=T
         wScrn=  0.000000 ICntrl=         0 IOpCl=  0 I1Cent=           0 NGrid=           0
         NMat0=    1 NMatS0=      1 NMatT0=    0 NMatD0=    1 NMtDS0=    0 NMtDT0=    0
 Symmetry not used in FoFCou.
 E= -1079.30375417962    
 DIIS: error= 3.95D-02 at cycle   1 NSaved=   1.
 NSaved= 1 IEnMin= 1 EnMin= -1079.30375417962     IErMin= 1 ErrMin= 3.95D-02
 ErrMax= 3.95D-02  0.00D+00 EMaxC= 1.00D-01 BMatC= 6.20D-01 BMatP= 6.20D-01
 IDIUse=3 WtCom= 6.05D-01 WtEn= 3.95D-01
 Coeff-Com:  0.100D+01
 Coeff-En:   0.100D+01
 Coeff:      0.100D+01
 Gap=     0.051 Goal=   None    Shift=    0.000
 GapD=    0.051 DampG=0.500 DampE=0.500 DampFc=0.2500 IDamp=-1.
 Damping current iteration by 2.50D-01
 RMSDP=6.69D-03 MaxDP=4.59D-01              OVMax= 6.89D-01

 Cycle   2  Pass 0  IDiag  1:
 RMSU=  1.63D-03    CP:  9.82D-01
 E= -1079.42066634077     Delta-E=       -0.116912161147 Rises=F Damp=T
 DIIS: error= 2.30D-02 at cycle   2 NSaved=   2.
 NSaved= 2 IEnMin= 2 EnMin= -1079.42066634077     IErMin= 2 ErrMin= 2.30D-02
 ErrMax= 2.30D-02  0.00D+00 EMaxC= 1.00D-01 BMatC= 1.46D-01 BMatP= 6.20D-01
 IDIUse=3 WtCom= 7.70D-01 WtEn= 2.30D-01
 Coeff-Com: -0.254D+00 0.125D+01
 Coeff-En:   0.285D+00 0.715D+00
 Coeff:     -0.131D+00 0.113D+01
 Gap=    -0.062 Goal=   None    Shift=    0.000
 RMSDP=3.21D-03 MaxDP=1.13D-01 DE=-1.17D-01 OVMax= 4.99D-01

 Cycle   3  Pass 0  IDiag  1:
 RMSU=  3.07D-03    CP:  9.39D-01  1.24D+00
 E= -1079.53425067582     Delta-E=       -0.113584335054 Rises=F Damp=F
 DIIS: error= 3.27D-02 at cycle   3 NSaved=   3.
 NSaved= 3 IEnMin= 3 EnMin= -1079.53425067582     IErMin= 2 ErrMin= 2.30D-02
 ErrMax= 3.27D-02  0.00D+00 EMaxC= 1.00D-01 BMatC= 3.57D-01 BMatP= 1.46D-01
 IDIUse=2 WtCom= 0.00D+00 WtEn= 1.00D+00
 Coeff-En:   0.000D+00 0.400D+00 0.600D+00
 Coeff:      0.000D+00 0.400D+00 0.600D+00
 Gap=     0.375 Goal=   None    Shift=    0.000
 RMSDP=4.69D-03 MaxDP=4.14D-01 DE=-1.14D-01 OVMax= 7.86D-01

 Cycle   4  Pass 0  IDiag  1:
 RMSU=  2.00D-03    CP:  9.35D-01  2.76D+00 -1.26D-01
 E= -1077.61136086848     Delta-E=        1.922889807339 Rises=F Damp=F
 DIIS: error= 5.20D-02 at cycle   4 NSaved=   4.
 NSaved= 4 IEnMin= 3 EnMin= -1079.53425067582     IErMin= 2 ErrMin= 2.30D-02
 ErrMax= 5.20D-02  0.00D+00 EMaxC= 1.00D-01 BMatC= 1.39D+00 BMatP= 1.46D-01
 IDIUse=2 WtCom= 0.00D+00 WtEn= 1.00D+00
 EnCoef did     2 forward-backward iterations
 Coeff-En:   0.429D-01 0.000D+00 0.744D+00 0.213D+00
 Coeff:      0.429D-01 0.000D+00 0.744D+00 0.213D+00
 Gap=    -0.034 Goal=   None    Shift=    0.000
 RMSDP=3.93D-03 MaxDP=3.28D-01 DE= 1.92D+00 OVMax= 9.93D-01

 Cycle   5  Pass 0  IDiag  1:
 RMSU=  1.91D-03    CP:  9.50D-01  1.20D+00  3.90D-01  1.66D-01
 E= -1079.83003527293     Delta-E=       -2.218674404450 Rises=F Damp=F
 DIIS: error= 1.38D-02 at cycle   5 NSaved=   5.
 NSaved= 5 IEnMin= 5 EnMin= -1079.83003527293     IErMin= 5 ErrMin= 1.38D-02
 ErrMax= 1.38D-02  0.00D+00 EMaxC= 1.00D-01 BMatC= 7.68D-02 BMatP= 1.46D-01
 IDIUse=3 WtCom= 8.62D-01 WtEn= 1.38D-01
 Coeff-Com: -0.268D+00 0.526D+00 0.291D+00-0.199D-01 0.471D+00
 Coeff-En:   0.000D+00 0.000D+00 0.887D-01 0.000D+00 0.911D+00
 Coeff:     -0.231D+00 0.453D+00 0.263D+00-0.171D-01 0.532D+00
 Gap=     0.133 Goal=   None    Shift=    0.000
 RMSDP=9.46D-04 MaxDP=5.32D-02 DE=-2.22D+00 OVMax= 1.04D-01

 Cycle   6  Pass 0  IDiag  1:
 RMSU=  6.05D-04    CP:  9.47D-01  1.33D+00  5.36D-01  1.92D-02  7.73D-01
 E= -1079.87586780868     Delta-E=       -0.045832535745 Rises=F Damp=F
 DIIS: error= 7.17D-03 at cycle   6 NSaved=   6.
 NSaved= 6 IEnMin= 6 EnMin= -1079.87586780868     IErMin= 6 ErrMin= 7.17D-03
 ErrMax= 7.17D-03  0.00D+00 EMaxC= 1.00D-01 BMatC= 1.75D-02 BMatP= 7.68D-02
 IDIUse=3 WtCom= 9.28D-01 WtEn= 7.17D-02
 Coeff-Com: -0.173D+00 0.262D+00 0.677D-01-0.137D-01 0.332D+00 0.524D+00
 Coeff-En:   0.000D+00 0.000D+00 0.000D+00 0.000D+00 0.192D+00 0.808D+00
 Coeff:     -0.161D+00 0.243D+00 0.628D-01-0.127D-01 0.322D+00 0.545D+00
 Gap=     0.110 Goal=   None    Shift=    0.000
 RMSDP=4.28D-04 MaxDP=1.96D-02 DE=-4.58D-02 OVMax= 4.08D-02

 Cycle   7  Pass 0  IDiag  1:
 RMSU=  2.19D-04    CP:  9.47D-01  1.37D+00  4.78D-01  2.00D-02  9.09D-01
                    CP:  7.13D-01
 E= -1079.89152967048     Delta-E=       -0.015661861803 Rises=F Damp=F
 DIIS: error= 1.85D-03 at cycle   7 NSaved=   7.
 NSaved= 7 IEnMin= 7 EnMin= -1079.89152967048     IErMin= 7 ErrMin= 1.85D-03
 ErrMax= 1.85D-03  0.00D+00 EMaxC= 1.00D-01 BMatC= 1.73D-03 BMatP= 1.75D-02
 IDIUse=3 WtCom= 9.82D-01 WtEn= 1.85D-02
 Coeff-Com: -0.790D-01 0.108D+00-0.191D-01-0.381D-02 0.114D+00 0.356D+00
 Coeff-Com:  0.523D+00
 Coeff-En:   0.000D+00 0.000D+00 0.000D+00 0.000D+00 0.000D+00 0.000D+00
 Coeff-En:   0.100D+01
 Coeff:     -0.775D-01 0.106D+00-0.187D-01-0.374D-02 0.112D+00 0.349D+00
 Coeff:      0.532D+00
 Gap=     0.104 Goal=   None    Shift=    0.000
 RMSDP=1.44D-04 MaxDP=6.81D-03 DE=-1.57D-02 OVMax= 1.48D-02

 Cycle   8  Pass 0  IDiag  1:
 RMSU=  9.30D-05    CP:  9.47D-01  1.39D+00  4.65D-01  1.79D-02  9.34D-01
                    CP:  8.34D-01  7.67D-01
 E= -1079.89303835978     Delta-E=       -0.001508689295 Rises=F Damp=F
 DIIS: error= 1.23D-03 at cycle   8 NSaved=   8.
 NSaved= 8 IEnMin= 8 EnMin= -1079.89303835978     IErMin= 8 ErrMin= 1.23D-03
 ErrMax= 1.23D-03  0.00D+00 EMaxC= 1.00D-01 BMatC= 4.66D-04 BMatP= 1.73D-03
 IDIUse=3 WtCom= 9.88D-01 WtEn= 1.23D-02
 Coeff-Com: -0.297D-01 0.377D-01-0.350D-01-0.552D-04 0.679D-02 0.149D+00
 Coeff-Com:  0.386D+00 0.486D+00
 Coeff-En:   0.000D+00 0.000D+00 0.000D+00 0.000D+00 0.000D+00 0.000D+00
 Coeff-En:   0.000D+00 0.100D+01
 Coeff:     -0.293D-01 0.373D-01-0.346D-01-0.545D-04 0.671D-02 0.147D+00
 Coeff:      0.381D+00 0.492D+00
 Gap=     0.101 Goal=   None    Shift=    0.000
 RMSDP=7.28D-05 MaxDP=5.29D-03 DE=-1.51D-03 OVMax= 8.36D-03

 Cycle   9  Pass 0  IDiag  1:
 RMSU=  4.85D-05    CP:  9.48D-01  1.39D+00  4.59D-01  1.43D-02  9.51D-01
                    CP:  8.74D-01  8.69D-01  8.52D-01
 E= -1079.89342934615     Delta-E=       -0.000390986377 Rises=F Damp=F
 DIIS: error= 5.21D-04 at cycle   9 NSaved=   9.
 NSaved= 9 IEnMin= 9 EnMin= -1079.89342934615     IErMin= 9 ErrMin= 5.21D-04
 ErrMax= 5.21D-04  0.00D+00 EMaxC= 1.00D-01 BMatC= 7.18D-05 BMatP= 4.66D-04
 IDIUse=3 WtCom= 9.95D-01 WtEn= 5.21D-03
 Coeff-Com: -0.951D-02 0.137D-01-0.166D-01 0.136D-03-0.156D-01 0.164D-01
 Coeff-Com:  0.107D+00 0.292D+00 0.613D+00
 Coeff-En:   0.000D+00 0.000D+00 0.000D+00 0.000D+00 0.000D+00 0.000D+00
 Coeff-En:   0.000D+00 0.000D+00 0.100D+01
 Coeff:     -0.946D-02 0.136D-01-0.166D-01 0.136D-03-0.155D-01 0.163D-01
 Coeff:      0.106D+00 0.290D+00 0.615D+00
 Gap=     0.100 Goal=   None    Shift=    0.000
 RMSDP=2.99D-05 MaxDP=1.72D-03 DE=-3.91D-04 OVMax= 3.68D-03

 Cycle  10  Pass 0  IDiag  1:
 RMSU=  2.31D-05    CP:  9.48D-01  1.40D+00  4.56D-01  1.20D-02  9.56D-01
                    CP:  8.82D-01  9.09D-01  9.11D-01  9.09D-01
 E= -1079.89348270731     Delta-E=       -0.000053361159 Rises=F Damp=F
 DIIS: error= 2.62D-04 at cycle  10 NSaved=  10.
 NSaved=10 IEnMin=10 EnMin= -1079.89348270731     IErMin=10 ErrMin= 2.62D-04
 ErrMax= 2.62D-04  0.00D+00 EMaxC= 1.00D-01 BMatC= 2.12D-05 BMatP= 7.18D-05
 IDIUse=3 WtCom= 9.97D-01 WtEn= 2.62D-03
 Coeff-Com: -0.280D-02 0.525D-02-0.748D-03-0.124D-03-0.551D-02-0.220D-01
 Coeff-Com: -0.407D-01 0.370D-01 0.445D+00 0.585D+00
 Coeff-En:   0.000D+00 0.000D+00 0.000D+00 0.000D+00 0.000D+00 0.000D+00
 Coeff-En:   0.000D+00 0.000D+00 0.526D-01 0.947D+00
 Coeff:     -0.279D-02 0.524D-02-0.746D-03-0.123D-03-0.550D-02-0.219D-01
 Coeff:     -0.406D-01 0.369D-01 0.443D+00 0.586D+00
 Gap=     0.100 Goal=   None    Shift=    0.000
 RMSDP=1.49D-05 MaxDP=6.98D-04 DE=-5.34D-05 OVMax= 2.30D-03

 Cycle  11  Pass 0  IDiag  1:
 RMSU=  8.51D-06    CP:  9.48D-01  1.40D+00  4.55D-01  1.20D-02  9.58D-01
                    CP:  8.83D-01  9.06D-01  9.61D-01  9.79D-01  6.10D-01
 E= -1079.89350386362     Delta-E=       -0.000021156310 Rises=F Damp=F
 DIIS: error= 7.98D-05 at cycle  11 NSaved=  11.
 NSaved=11 IEnMin=11 EnMin= -1079.89350386362     IErMin=11 ErrMin= 7.98D-05
 ErrMax= 7.98D-05  0.00D+00 EMaxC= 1.00D-01 BMatC= 2.25D-06 BMatP= 2.12D-05
 IDIUse=1 WtCom= 1.00D+00 WtEn= 0.00D+00
 Coeff-Com: -0.832D-03 0.167D-02 0.831D-03-0.636D-04-0.137D-02-0.142D-01
 Coeff-Com: -0.378D-01-0.146D-01 0.195D+00 0.347D+00 0.525D+00
 Coeff:     -0.832D-03 0.167D-02 0.831D-03-0.636D-04-0.137D-02-0.142D-01
 Coeff:     -0.378D-01-0.146D-01 0.195D+00 0.347D+00 0.525D+00
 Gap=     0.100 Goal=   None    Shift=    0.000
 RMSDP=5.42D-06 MaxDP=3.94D-04 DE=-2.12D-05 OVMax= 3.73D-04

 Initial convergence to 1.0D-05 achieved.  Increase integral accuracy.
 Cycle  12  Pass 1  IDiag  1:
 E= -1079.89351226709     Delta-E=       -0.000008403470 Rises=F Damp=F
 DIIS: error= 8.28D-05 at cycle   1 NSaved=   1.
 NSaved= 1 IEnMin= 1 EnMin= -1079.89351226709     IErMin= 1 ErrMin= 8.28D-05
 ErrMax= 8.28D-05  0.00D+00 EMaxC= 1.00D-01 BMatC= 2.03D-06 BMatP= 2.03D-06
 IDIUse=1 WtCom= 1.00D+00 WtEn= 0.00D+00
 Coeff-Com:  0.100D+01
 Coeff:      0.100D+01
 Gap=     0.099 Goal=   None    Shift=    0.000
 RMSDP=5.42D-06 MaxDP=3.94D-04 DE=-8.40D-06 OVMax= 4.72D-04

 Cycle  13  Pass 1  IDiag  1:
 RMSU=  1.04D-04    CP:  1.00D+00
 E= -1079.89351423622     Delta-E=       -0.000001969125 Rises=F Damp=F
 DIIS: error= 3.65D-05 at cycle   2 NSaved=   2.
 NSaved= 2 IEnMin= 2 EnMin= -1079.89351423622     IErMin= 2 ErrMin= 3.65D-05
 ErrMax= 3.65D-05  0.00D+00 EMaxC= 1.00D-01 BMatC= 3.95D-07 BMatP= 2.03D-06
 IDIUse=1 WtCom= 1.00D+00 WtEn= 0.00D+00
 Coeff-Com:  0.209D+00 0.791D+00
 Coeff:      0.209D+00 0.791D+00
 Gap=     0.100 Goal=   None    Shift=    0.000
 RMSDP=5.25D-06 MaxDP=2.21D-04 DE=-1.97D-06 OVMax= 4.84D-04

 Cycle  14  Pass 1  IDiag  1:
 RMSU=  5.05D-06    CP:  1.00D+00  1.01D+00
 E= -1079.89351399019     Delta-E=        0.000000246024 Rises=F Damp=F
 DIIS: error= 4.72D-05 at cycle   3 NSaved=   3.
 NSaved= 3 IEnMin= 2 EnMin= -1079.89351423622     IErMin= 2 ErrMin= 3.65D-05
 ErrMax= 4.72D-05  0.00D+00 EMaxC= 1.00D-01 BMatC= 6.48D-07 BMatP= 3.95D-07
 IDIUse=1 WtCom= 1.00D+00 WtEn= 0.00D+00
 Coeff-Com:  0.346D-02 0.562D+00 0.435D+00
 Coeff:      0.346D-02 0.562D+00 0.435D+00
 Gap=     0.100 Goal=   None    Shift=    0.000
 RMSDP=2.62D-06 MaxDP=1.12D-04 DE= 2.46D-07 OVMax= 2.89D-04

 Cycle  15  Pass 1  IDiag  1:
 RMSU=  9.11D-07    CP:  1.00D+00  1.02D+00  5.25D-01
 E= -1079.89351463252     Delta-E=       -0.000000642322 Rises=F Damp=F
 DIIS: error= 8.90D-06 at cycle   4 NSaved=   4.
 NSaved= 4 IEnMin= 4 EnMin= -1079.89351463252     IErMin= 4 ErrMin= 8.90D-06
 ErrMax= 8.90D-06  0.00D+00 EMaxC= 1.00D-01 BMatC= 1.83D-08 BMatP= 3.95D-07
 IDIUse=1 WtCom= 1.00D+00 WtEn= 0.00D+00
 Coeff-Com: -0.434D-02 0.321D+00 0.266D+00 0.417D+00
 Coeff:     -0.434D-02 0.321D+00 0.266D+00 0.417D+00
 Gap=     0.100 Goal=   None    Shift=    0.000
 RMSDP=4.54D-07 MaxDP=3.30D-05 DE=-6.42D-07 OVMax= 6.23D-05

 Cycle  16  Pass 1  IDiag  1:
 RMSU=  2.62D-07    CP:  1.00D+00  1.02D+00  5.01D-01  6.19D-01
 E= -1079.89351464666     Delta-E=       -0.000000014141 Rises=F Damp=F
 DIIS: error= 4.19D-06 at cycle   5 NSaved=   5.
 NSaved= 5 IEnMin= 5 EnMin= -1079.89351464666     IErMin= 5 ErrMin= 4.19D-06
 ErrMax= 4.19D-06  0.00D+00 EMaxC= 1.00D-01 BMatC= 2.07D-09 BMatP= 1.83D-08
 IDIUse=1 WtCom= 1.00D+00 WtEn= 0.00D+00
 Coeff-Com: -0.334D-02 0.202D+00 0.169D+00 0.300D+00 0.331D+00
 Coeff:     -0.334D-02 0.202D+00 0.169D+00 0.300D+00 0.331D+00
 Gap=     0.100 Goal=   None    Shift=    0.000
 RMSDP=1.10D-07 MaxDP=1.00D-05 DE=-1.41D-08 OVMax= 2.14D-05

 Cycle  17  Pass 1  IDiag  1:
 RMSU=  9.17D-08    CP:  1.00D+00  1.02D+00  5.02D-01  6.17D-01  7.66D-01
 E= -1079.89351464835     Delta-E=       -0.000000001693 Rises=F Damp=F
 DIIS: error= 3.38D-07 at cycle   6 NSaved=   6.
 NSaved= 6 IEnMin= 6 EnMin= -1079.89351464835     IErMin= 6 ErrMin= 3.38D-07
 ErrMax= 3.38D-07  0.00D+00 EMaxC= 1.00D-01 BMatC= 2.80D-11 BMatP= 2.07D-09
 IDIUse=1 WtCom= 1.00D+00 WtEn= 0.00D+00
 Coeff-Com: -0.863D-03 0.458D-01 0.388D-01 0.740D-01 0.128D+00 0.714D+00
 Coeff:     -0.863D-03 0.458D-01 0.388D-01 0.740D-01 0.128D+00 0.714D+00
 Gap=     0.100 Goal=   None    Shift=    0.000
 RMSDP=3.23D-08 MaxDP=1.25D-06 DE=-1.69D-09 OVMax= 2.47D-06

 Cycle  18  Pass 1  IDiag  1:
 RMSU=  2.93D-08    CP:  1.00D+00  1.02D+00  5.03D-01  6.27D-01  7.91D-01
                    CP:  9.82D-01
 E= -1079.89351464836     Delta-E=       -0.000000000014 Rises=F Damp=F
 DIIS: error= 1.41D-07 at cycle   7 NSaved=   7.
 NSaved= 7 IEnMin= 7 EnMin= -1079.89351464836     IErMin= 7 ErrMin= 1.41D-07
 ErrMax= 1.41D-07  0.00D+00 EMaxC= 1.00D-01 BMatC= 1.39D-11 BMatP= 2.80D-11
 IDIUse=1 WtCom= 1.00D+00 WtEn= 0.00D+00
 Coeff-Com:  0.304D-04-0.533D-02-0.398D-02-0.424D-02 0.224D-01 0.455D+00
 Coeff-Com:  0.536D+00
 Coeff:      0.304D-04-0.533D-02-0.398D-02-0.424D-02 0.224D-01 0.455D+00
 Coeff:      0.536D+00
 Gap=     0.100 Goal=   None    Shift=    0.000
 RMSDP=1.48D-08 MaxDP=7.24D-07 DE=-1.36D-11 OVMax= 1.66D-06

 Cycle  19  Pass 1  IDiag  1:
 RMSU=  1.19D-08    CP:  1.00D+00  1.02D+00  5.03D-01  6.29D-01  8.05D-01
                    CP:  1.01D+00  7.65D-01
 E= -1079.89351464839     Delta-E=       -0.000000000021 Rises=F Damp=F
 DIIS: error= 6.88D-08 at cycle   8 NSaved=   8.
 NSaved= 8 IEnMin= 8 EnMin= -1079.89351464839     IErMin= 8 ErrMin= 6.88D-08
 ErrMax= 6.88D-08  0.00D+00 EMaxC= 1.00D-01 BMatC= 1.89D-12 BMatP= 1.39D-11
 IDIUse=1 WtCom= 1.00D+00 WtEn= 0.00D+00
 Coeff-Com:  0.138D-03-0.983D-02-0.788D-02-0.130D-01-0.622D-02 0.163D+00
 Coeff-Com:  0.325D+00 0.548D+00
 Coeff:      0.138D-03-0.983D-02-0.788D-02-0.130D-01-0.622D-02 0.163D+00
 Coeff:      0.325D+00 0.548D+00
 Gap=     0.100 Goal=   None    Shift=    0.000
 RMSDP=6.69D-09 MaxDP=3.05D-07 DE=-2.14D-11 OVMax= 6.89D-07

 SCF Done:  E(RPBE1PBE) =  -1079.89351465     A.U. after   19 cycles
            NFock= 19  Conv=0.67D-08     -V/T= 2.0057
 KE= 1.073821392759D+03 PE=-5.986127914155D+03 EE= 2.109739573397D+03
 Leave Link  502 at Mon Mar  6 10:26:54 2023, MaxMem=  1048576000 cpu:             294.7 elap:             297.2
 (Enter /ssoft/spack/external/gaussian/g16-C.01/avx2/g16/l801.exe)
 DoSCS=F DFT=T ScalE2(SS,OS)=  1.000000  1.000000
 Range of M.O.s used for correlation:     1   382
 NBasis=   382 NAE=    81 NBE=    81 NFC=     0 NFV=     0
 NROrb=    382 NOA=    81 NOB=    81 NVA=   301 NVB=   301

 **** Warning!!: The largest alpha MO coefficient is  0.13069555D+02


 **** Warning!!: The smallest alpha delta epsilon is  0.99539024D-01

 Leave Link  801 at Mon Mar  6 10:26:54 2023, MaxMem=  1048576000 cpu:               0.0 elap:               0.0
 (Enter /ssoft/spack/external/gaussian/g16-C.01/avx2/g16/l1101.exe)
 Using compressed storage, NAtomX=    35.
 Will process     36 centers per pass.
   1 Symmetry operations used in ECPInt.
 ECPInt:  NShTT=   15225 NPrTT=   56951 LenC2=   12244 LenP2D=   31081.
 LDataN:  DoStor=T MaxTD1= 5 Len=  102
 R6Disp: Adding Grimme-D3(BJ) dispersion energy 1st derivatives to the gradient.
 Leave Link 1101 at Mon Mar  6 10:26:55 2023, MaxMem=  1048576000 cpu:               0.5 elap:               0.6
 (Enter /ssoft/spack/external/gaussian/g16-C.01/avx2/g16/l1102.exe)
 Symmetrizing basis deriv contribution to polar:
 IMax=3 JMax=2 DiffMx= 0.00D+00
 Leave Link 1102 at Mon Mar  6 10:26:55 2023, MaxMem=  1048576000 cpu:               0.1 elap:               0.1
 (Enter /ssoft/spack/external/gaussian/g16-C.01/avx2/g16/l1110.exe)
 Forming Gx(P) for the SCF density, NAtomX=    35.
 Integral derivatives from FoFJK, PRISM(SPDF).
 Do as many integral derivatives as possible in FoFJK.
 G2DrvN: MDV=    1048572259.
 G2DrvN: will do    36 centers at a time, making    1 passes.
 Calling FoFCou, ICntrl=  3107 FMM=F I1Cent=   0 AccDes= 0.00D+00.
 FoFJK:  IHMeth= 1 ICntrl=    3107 DoSepK=F KAlg= 0 I1Cent=           0 FoldK=F
 IRaf=         0 NMat=       1 IRICut=       1 DoRegI=T DoRafI=F ISym2E= 0 IDoP0=0 IntGTp=1.
 FoFCou: FMM=F IPFlag=           0 FMFlag=      100000 FMFlg1=           0
         NFxFlg=           0 DoJE=F BraDBF=F KetDBF=F FulRan=T
         wScrn=  0.000000 ICntrl=      3107 IOpCl=  0 I1Cent=           0 NGrid=           0
         NMat0=    1 NMatS0=      1 NMatT0=    0 NMatD0=    1 NMtDS0=    0 NMtDT0=    0
 Symmetry not used in FoFCou.
 End of G2Drv F.D. properties file   721 does not exist.
 End of G2Drv F.D. properties file   722 does not exist.
 End of G2Drv F.D. properties file   788 does not exist.
 Leave Link 1110 at Mon Mar  6 10:36:31 2023, MaxMem=  1048576000 cpu:             573.8 elap:             576.2
 (Enter /ssoft/spack/external/gaussian/g16-C.01/avx2/g16/l1002.exe)
 Minotr:  Closed shell wavefunction.
          IDoAtm=11111111111111111111111111111111111
          Direct CPHF calculation.
          Differentiating once with respect to electric field.
                with respect to dipole field.
          Differentiating once with respect to nuclear coordinates.
          Requested convergence is 1.0D-08 RMS, and 1.0D-07 maximum.
          Secondary convergence is 1.0D-12 RMS, and 1.0D-12 maximum.
          NewPWx=T KeepS1=F KeepF1=F KeepIn=T MapXYZ=F SortEE=F KeepMc=T.
        10655 words used for storage of precomputed grid.
 Two-electron integrals replicated using symmetry.
          MDV=    1048576000 using IRadAn=       1.
          Solving linear equations simultaneously, MaxMat=     384.
 FoF2E skips out because all densities are zero.
 CalDSu exits because no D1Ps are significant.
 FoFJK:  IHMeth= 1 ICntrl=       0 DoSepK=F KAlg= 0 I1Cent=           0 FoldK=F
 IRaf= 690000000 NMat=     105 IRICut=     262 DoRegI=T DoRafI=T ISym2E= 2 IDoP0=3 IntGTp=3.
 FoFCou: FMM=F IPFlag=           0 FMFlag=      100000 FMFlg1=           0
         NFxFlg=           0 DoJE=F BraDBF=F KetDBF=F FulRan=T
         wScrn=  0.000000 ICntrl=         0 IOpCl=  0 I1Cent=           0 NGrid=           0
         NMat0=  105 NMatS0=    105 NMatT0=    0 NMatD0=  105 NMtDS0=    0 NMtDT0=    0
 Integrals replicated using symmetry in FoFCou.
 Raff kept on since  63.56% of shell-pairs survive, threshold=   0.20 IRatSp=64.
          There are   108 degrees of freedom in the 1st order CPHF.  IDoFFX=6 NUNeed=     3.
    105 vectors produced by pass  0 Test12= 2.44D-14 1.00D-09 XBig12= 3.82D+02 9.06D+00.
 AX will form   105 AO Fock derivatives at one time.
    105 vectors produced by pass  1 Test12= 2.44D-14 1.00D-09 XBig12= 6.96D+01 2.42D+00.
    105 vectors produced by pass  2 Test12= 2.44D-14 1.00D-09 XBig12= 7.26D-01 1.36D-01.
    105 vectors produced by pass  3 Test12= 2.44D-14 1.00D-09 XBig12= 4.57D-03 8.56D-03.
    105 vectors produced by pass  4 Test12= 2.44D-14 1.00D-09 XBig12= 1.73D-05 4.86D-04.
    105 vectors produced by pass  5 Test12= 2.44D-14 1.00D-09 XBig12= 3.34D-08 2.51D-05.
     42 vectors produced by pass  6 Test12= 2.44D-14 1.00D-09 XBig12= 4.48D-11 9.23D-07.
      3 vectors produced by pass  7 Test12= 2.44D-14 1.00D-09 XBig12= 5.02D-14 2.12D-08.
 InvSVY:  IOpt=1 It=  1 EMax= 5.33D-15
 Solved reduced A of dimension   675 with   108 vectors.
 FullF1:  Do perturbations      1 to       3.
 Isotropic polarizability for W=    0.000000      208.25 Bohr**3.
 End of Minotr F.D. properties file   721 does not exist.
 End of Minotr F.D. properties file   722 does not exist.
 End of Minotr F.D. properties file   788 does not exist.
 Leave Link 1002 at Mon Mar  6 10:59:02 2023, MaxMem=  1048576000 cpu:            1345.2 elap:            1350.3
 (Enter /ssoft/spack/external/gaussian/g16-C.01/avx2/g16/l601.exe)
 Copying SCF densities to generalized density rwf, IOpCl= 0 IROHF=0.

 **********************************************************************

            Population analysis using the SCF Density.

 **********************************************************************

 Orbital symmetries:
       Occupied  (A) (A) (A) (A) (A) (A) (A) (A) (A) (A) (A) (A)
                 (A) (A) (A) (A) (A) (A) (A) (A) (A) (A) (A) (A)
                 (A) (A) (A) (A) (A) (A) (A) (A) (A) (A) (A) (A)
                 (A) (A) (A) (A) (A) (A) (A) (A) (A) (A) (A) (A)
                 (A) (A) (A) (A) (A) (A) (A) (A) (A) (A) (A) (A)
                 (A) (A) (A) (A) (A) (A) (A) (A) (A) (A) (A) (A)
                 (A) (A) (A) (A) (A) (A) (A) (A) (A)
       Virtual   (A) (A) (A) (A) (A) (A) (A) (A) (A) (A) (A) (A)
                 (A) (A) (A) (A) (A) (A) (A) (A) (A) (A) (A) (A)
                 (A) (A) (A) (A) (A) (A) (A) (A) (A) (A) (A) (A)
                 (A) (A) (A) (A) (A) (A) (A) (A) (A) (A) (A) (A)
                 (A) (A) (A) (A) (A) (A) (A) (A) (A) (A) (A) (A)
                 (A) (A) (A) (A) (A) (A) (A) (A) (A) (A) (A) (A)
                 (A) (A) (A) (A) (A) (A) (A) (A) (A) (A) (A) (A)
                 (A) (A) (A) (A) (A) (A) (A) (A) (A) (A) (A) (A)
                 (A) (A) (A) (A) (A) (A) (A) (A) (A) (A) (A) (A)
                 (A) (A) (A) (A) (A) (A) (A) (A) (A) (A) (A) (A)
                 (A) (A) (A) (A) (A) (A) (A) (A) (A) (A) (A) (A)
                 (A) (A) (A) (A) (A) (A) (A) (A) (A) (A) (A) (A)
                 (A) (A) (A) (A) (A) (A) (A) (A) (A) (A) (A) (A)
                 (A) (A) (A) (A) (A) (A) (A) (A) (A) (A) (A) (A)
                 (A) (A) (A) (A) (A) (A) (A) (A) (A) (A) (A) (A)
                 (A) (A) (A) (A) (A) (A) (A) (A) (A) (A) (A) (A)
                 (A) (A) (A) (A) (A) (A) (A) (A) (A) (A) (A) (A)
                 (A) (A) (A) (A) (A) (A) (A) (A) (A) (A) (A) (A)
                 (A) (A) (A) (A) (A) (A) (A) (A) (A) (A) (A) (A)
                 (A) (A) (A) (A) (A) (A) (A) (A) (A) (A) (A) (A)
                 (A) (A) (A) (A) (A) (A) (A) (A) (A) (A) (A) (A)
                 (A) (A) (A) (A) (A) (A) (A) (A) (A) (A) (A) (A)
                 (A) (A) (A) (A) (A) (A) (A) (A) (A) (A) (A) (A)
                 (A) (A) (A) (A) (A) (A) (A) (A) (A) (A) (A) (A)
                 (A) (A) (A) (A) (A) (A) (A) (A) (A) (A) (A) (A)
                 (A)
 The electronic state is 1-A.
 Alpha  occ. eigenvalues --  -19.14255 -19.13885 -19.10614 -18.99980 -14.52581
 Alpha  occ. eigenvalues --  -14.20280 -14.19800 -10.18518 -10.18366 -10.15694
 Alpha  occ. eigenvalues --  -10.15083 -10.14070 -10.13805 -10.13600 -10.13587
 Alpha  occ. eigenvalues --  -10.13073 -10.12970 -10.12583 -10.12545 -10.12191
 Alpha  occ. eigenvalues --  -10.11795 -10.11551 -10.11096  -1.15529  -0.97990
 Alpha  occ. eigenvalues --   -0.97677  -0.87251  -0.80128  -0.79767  -0.77485
 Alpha  occ. eigenvalues --   -0.74906  -0.71143  -0.69299  -0.68804  -0.68066
 Alpha  occ. eigenvalues --   -0.64800  -0.60997  -0.56339  -0.54799  -0.54284
 Alpha  occ. eigenvalues --   -0.51993  -0.51545  -0.50085  -0.47724  -0.46622
 Alpha  occ. eigenvalues --   -0.45797  -0.43372  -0.43067  -0.41709  -0.39637
 Alpha  occ. eigenvalues --   -0.39030  -0.38256  -0.37901  -0.37562  -0.36485
 Alpha  occ. eigenvalues --   -0.36198  -0.33952  -0.33353  -0.32193  -0.30727
 Alpha  occ. eigenvalues --   -0.29874  -0.29664  -0.28376  -0.27615  -0.27246
 Alpha  occ. eigenvalues --   -0.26356  -0.25920  -0.24905  -0.23951  -0.22997
 Alpha  occ. eigenvalues --   -0.22538  -0.21181  -0.18132  -0.17811  -0.16516
 Alpha  occ. eigenvalues --   -0.15982  -0.14914  -0.13050  -0.11558  -0.08481
 Alpha  occ. eigenvalues --   -0.08152
 Alpha virt. eigenvalues --    0.01802   0.08969   0.09367   0.09864   0.10389
 Alpha virt. eigenvalues --    0.17333   0.18421   0.19312   0.20970   0.21383
 Alpha virt. eigenvalues --    0.22548   0.23609   0.23810   0.24086   0.25016
 Alpha virt. eigenvalues --    0.26030   0.26876   0.27362   0.28283   0.28647
 Alpha virt. eigenvalues --    0.29605   0.30335   0.31334   0.32835   0.36210
 Alpha virt. eigenvalues --    0.37214   0.37380   0.37664   0.39121   0.39950
 Alpha virt. eigenvalues --    0.40396   0.41088   0.41542   0.42861   0.43071
 Alpha virt. eigenvalues --    0.44391   0.44644   0.45983   0.46582   0.46613
 Alpha virt. eigenvalues --    0.47910   0.51893   0.52933   0.53281   0.54138
 Alpha virt. eigenvalues --    0.54188   0.55794   0.55923   0.57198   0.57503
 Alpha virt. eigenvalues --    0.57865   0.58631   0.58933   0.59735   0.60971
 Alpha virt. eigenvalues --    0.61898   0.62154   0.62923   0.63311   0.63829
 Alpha virt. eigenvalues --    0.64741   0.64965   0.65047   0.66312   0.68623
 Alpha virt. eigenvalues --    0.69652   0.69861   0.70785   0.71277   0.71991
 Alpha virt. eigenvalues --    0.72176   0.73320   0.74619   0.75990   0.76197
 Alpha virt. eigenvalues --    0.77483   0.79286   0.79421   0.80221   0.81159
 Alpha virt. eigenvalues --    0.81584   0.81689   0.82335   0.82692   0.83230
 Alpha virt. eigenvalues --    0.83577   0.83854   0.84014   0.84644   0.84795
 Alpha virt. eigenvalues --    0.85624   0.86238   0.86341   0.87269   0.87585
 Alpha virt. eigenvalues --    0.88284   0.88570   0.89312   0.90102   0.90539
 Alpha virt. eigenvalues --    0.91652   0.92695   0.93631   0.94316   0.95442
 Alpha virt. eigenvalues --    0.96924   0.98009   0.99047   1.00236   1.01634
 Alpha virt. eigenvalues --    1.03196   1.04134   1.04607   1.06839   1.08412
 Alpha virt. eigenvalues --    1.09513   1.10277   1.11169   1.12296   1.12562
 Alpha virt. eigenvalues --    1.13679   1.15950   1.18622   1.19555   1.20420
 Alpha virt. eigenvalues --    1.21850   1.24377   1.25642   1.27681   1.28677
 Alpha virt. eigenvalues --    1.30080   1.30532   1.31433   1.32585   1.33620
 Alpha virt. eigenvalues --    1.34110   1.34682   1.35371   1.35938   1.37476
 Alpha virt. eigenvalues --    1.38500   1.39635   1.40639   1.42338   1.42882
 Alpha virt. eigenvalues --    1.43644   1.44154   1.45257   1.45895   1.46883
 Alpha virt. eigenvalues --    1.48032   1.51210   1.53161   1.53397   1.55260
 Alpha virt. eigenvalues --    1.58781   1.59304   1.60814   1.61580   1.63501
 Alpha virt. eigenvalues --    1.65305   1.67408   1.70938   1.75262   1.75793
 Alpha virt. eigenvalues --    1.78923   1.79508   1.80225   1.80865   1.81677
 Alpha virt. eigenvalues --    1.83905   1.84651   1.85437   1.86287   1.86520
 Alpha virt. eigenvalues --    1.87059   1.87346   1.88492   1.89787   1.89956
 Alpha virt. eigenvalues --    1.90529   1.91422   1.92260   1.92348   1.93084
 Alpha virt. eigenvalues --    1.94234   1.95552   1.96400   1.98536   1.99653
 Alpha virt. eigenvalues --    1.99987   2.01695   2.04159   2.05104   2.06039
 Alpha virt. eigenvalues --    2.06360   2.08478   2.11794   2.14090   2.14586
 Alpha virt. eigenvalues --    2.16018   2.17505   2.18164   2.19814   2.20284
 Alpha virt. eigenvalues --    2.20378   2.20832   2.23088   2.24800   2.25537
 Alpha virt. eigenvalues --    2.26881   2.27738   2.28089   2.29773   2.29940
 Alpha virt. eigenvalues --    2.31183   2.31603   2.33293   2.33581   2.36419
 Alpha virt. eigenvalues --    2.37841   2.38617   2.40246   2.40778   2.42711
 Alpha virt. eigenvalues --    2.46183   2.46267   2.47056   2.48293   2.48993
 Alpha virt. eigenvalues --    2.50344   2.51356   2.52029   2.55557   2.56197
 Alpha virt. eigenvalues --    2.58054   2.58436   2.59371   2.61311   2.62407
 Alpha virt. eigenvalues --    2.64594   2.65602   2.68717   2.71026   2.72626
 Alpha virt. eigenvalues --    2.73305   2.76049   2.77073   2.78022   2.78657
 Alpha virt. eigenvalues --    2.79458   2.79902   2.81302   2.83642   2.85717
 Alpha virt. eigenvalues --    2.86184   2.87732   2.90594   2.91660   2.93020
 Alpha virt. eigenvalues --    2.95472   2.96022   2.97697   3.02859   3.06474
 Alpha virt. eigenvalues --    3.10697   3.13560   3.14434   3.15619   3.17169
 Alpha virt. eigenvalues --    3.17190   3.19077   3.19423   3.21317   3.22277
 Alpha virt. eigenvalues --    3.23325   3.24580   3.25254   3.26017   3.26944
 Alpha virt. eigenvalues --    3.31534   3.33450   3.35077   3.36521   3.38503
 Alpha virt. eigenvalues --    3.38774   3.43500   3.49269   3.50541   3.52014
 Alpha virt. eigenvalues --    3.55243   3.57451   3.60871   3.64598   3.74332
 Alpha virt. eigenvalues --    3.77494   3.84289   3.88767   3.90639   3.99467
 Alpha virt. eigenvalues --    4.03955
     Molecular Orbital Coefficients:
                          77        78        79        80        81
                           O         O         O         O         O
     Eigenvalues --    -0.14914  -0.13050  -0.11558  -0.08481  -0.08152
   1 1   O  1S         -0.00832  -0.00404   0.00030   0.01824  -0.00598
   2        2S         -0.01672  -0.00703   0.00365   0.03807  -0.01413
   3        3S         -0.07712  -0.03948   0.00860   0.10392  -0.01957
   4        4PX         0.01870  -0.11280  -0.03744   0.01729  -0.01023
   5        4PY        -0.13361   0.31850   0.01979   0.03148  -0.05281
   6        4PZ        -0.06935  -0.17644   0.09725   0.07095   0.00700
   7        5PX         0.00457  -0.08685  -0.02905   0.01516  -0.01990
   8        5PY        -0.10759   0.25384   0.01155   0.02223  -0.05052
   9        5PZ        -0.05999  -0.14831   0.07224   0.06424   0.01173
  10        6D 0        0.00063  -0.00516   0.00155   0.00148  -0.00090
  11        6D+1        0.00145   0.00006  -0.00510  -0.00079  -0.00059
  12        6D-1       -0.00161   0.00492  -0.00039   0.00057   0.00043
  13        6D+2       -0.00094  -0.00023   0.00171  -0.00045   0.00079
  14        6D-2        0.00172  -0.00445  -0.00122  -0.00151  -0.00084
  15 2   O  1S         -0.00046  -0.00039  -0.00915  -0.01104   0.00413
  16        2S         -0.00069  -0.00019  -0.02141  -0.02395   0.00902
  17        3S          0.02781  -0.00073   0.01797  -0.04693   0.01691
  18        4PX         0.26372  -0.00150  -0.02372   0.46982  -0.20061
  19        4PY        -0.02351   0.24137  -0.09425   0.22022   0.23038
  20        4PZ        -0.07394  -0.10103  -0.12459   0.07064  -0.12583
  21        5PX         0.18953  -0.00045  -0.02551   0.33219  -0.14572
  22        5PY        -0.01864   0.17864  -0.07041   0.16721   0.19395
  23        5PZ        -0.05608  -0.07174  -0.08981   0.05324  -0.09942
  24        6D 0        0.00046   0.00516   0.00155  -0.00446   0.00568
  25        6D+1       -0.00808  -0.00111  -0.00031  -0.01089   0.00360
  26        6D-1        0.00145  -0.00829   0.00303  -0.00593  -0.00515
  27        6D+2        0.00167   0.00174   0.00003   0.00710  -0.00109
  28        6D-2       -0.00278   0.00419  -0.00075  -0.00045   0.00372
  29 3   N  1S         -0.03890  -0.00084   0.08884   0.04615  -0.00678
  30        2S         -0.07970   0.00251   0.17776   0.10049  -0.01852
  31        3S         -0.05012  -0.03420   0.33548   0.10404   0.04959
  32        4PX         0.01900  -0.04306  -0.17460  -0.04091   0.03463
  33        4PY         0.12002   0.26312  -0.14583  -0.19010  -0.26309
  34        4PZ         0.28582  -0.09563  -0.26276  -0.13079   0.19167
  35        5PX        -0.01267   0.04023   0.10195  -0.00906  -0.01318
  36        5PY        -0.08973  -0.18507   0.08738   0.14227   0.21087
  37        5PZ        -0.21119   0.07627   0.17744   0.08375  -0.16588
  38        6D 0        0.01270  -0.01040  -0.00666  -0.00176   0.01245
  39        6D+1        0.00103  -0.00082  -0.00679  -0.00520   0.00319
  40        6D-1        0.00938   0.01053  -0.00985  -0.00973  -0.00693
  41        6D+2       -0.00367  -0.00627  -0.00290   0.00172   0.00627
  42        6D-2        0.00145  -0.00497  -0.00508  -0.00366   0.00085
  43 4   N  1S          0.08262   0.02172   0.06192  -0.00159   0.00362
  44        2S          0.16967   0.04301   0.13424  -0.00428   0.00699
  45        3S          0.22389   0.09050   0.01803   0.10825  -0.04876
  46        4PX        -0.14564  -0.07082  -0.16303  -0.04732  -0.09982
  47        4PY         0.00308   0.17119   0.04580   0.01662   0.35962
  48        4PZ         0.22137   0.00966   0.33108  -0.21886  -0.03390
  49        5PX         0.08513   0.04894   0.13240   0.04407   0.10941
  50        5PY         0.00219  -0.13559  -0.03089  -0.01958  -0.31228
  51        5PZ        -0.14161  -0.00068  -0.26829   0.19384   0.04343
  52        6D 0       -0.00500   0.00172  -0.00938   0.00779   0.00435
  53        6D+1        0.00655  -0.00034   0.00969  -0.00253   0.00415
  54        6D-1       -0.00239  -0.00660  -0.00354  -0.00017  -0.01143
  55        6D+2       -0.00436  -0.00268  -0.00283  -0.00098   0.00284
  56        6D-2       -0.00239   0.00736   0.00074  -0.00065   0.00307
  57 5   C  1S         -0.00322  -0.00122  -0.00038   0.00188   0.00380
  58        2S          0.00913  -0.00042  -0.00010  -0.00723  -0.01042
  59        3S          0.01083   0.05811   0.01228  -0.02441  -0.06904
  60        4PX         0.00774   0.02558  -0.02147  -0.01573  -0.02115
  61        4PY        -0.01029   0.02183  -0.00718  -0.00515  -0.01134
  62        4PZ        -0.01406  -0.00919   0.01546   0.00115  -0.01174
  63        5PX         0.02245  -0.00986  -0.03204   0.01293   0.03014
  64        5PY         0.01554   0.02697  -0.05694  -0.02429  -0.02755
  65        5PZ        -0.03298  -0.02184   0.04554   0.02455  -0.00617
  66        6D 0       -0.00125  -0.00003   0.00100   0.00026  -0.00062
  67        6D+1       -0.00022  -0.00016   0.00031   0.00069   0.00069
  68        6D-1        0.00242   0.00047  -0.00144  -0.00043   0.00062
  69        6D+2       -0.00080  -0.00239  -0.00079   0.00116   0.00215
  70        6D-2       -0.00043  -0.00115   0.00006   0.00029  -0.00017
  71 6   H  1S          0.00543   0.00655  -0.01495  -0.00883  -0.00787
  72        2S         -0.03462  -0.03149   0.03949   0.00639   0.01782
  73        3PX        -0.00008  -0.00277   0.00018   0.00148   0.00256
  74        3PY        -0.00042   0.00324  -0.00015  -0.00111  -0.00293
  75        3PZ        -0.00100  -0.00099   0.00110   0.00099   0.00093
  76 7   C  1S          0.00109  -0.00157  -0.00057  -0.00034  -0.00006
  77        2S         -0.00291   0.00318   0.00218   0.00180   0.00253
  78        3S         -0.00772  -0.05305   0.02267   0.04425   0.06701
  79        4PX        -0.00433  -0.00031   0.00765   0.00331   0.00146
  80        4PY         0.01029  -0.00937  -0.00416  -0.00126   0.00408
  81        4PZ         0.02791   0.01482  -0.01502  -0.00919   0.00057
  82        5PX        -0.01449   0.01142   0.02690  -0.00161  -0.01381
  83        5PY         0.00610   0.01408  -0.00961  -0.01671  -0.01146
  84        5PZ         0.02730   0.01167  -0.01781  -0.01140   0.00370
  85        6D 0       -0.00040  -0.00002   0.00031  -0.00012  -0.00038
  86        6D+1       -0.00208  -0.00020   0.00124   0.00003  -0.00130
  87        6D-1        0.00044   0.00069  -0.00065  -0.00027  -0.00001
  88        6D+2        0.00007   0.00228  -0.00105  -0.00114  -0.00187
  89        6D-2       -0.00039  -0.00153   0.00068   0.00040   0.00072
  90 8   H  1S          0.00053  -0.01485   0.00531   0.00549   0.00910
  91        2S          0.00647  -0.01087  -0.00332   0.00464   0.00511
  92        3PX        -0.00003  -0.00000  -0.00015   0.00011   0.00027
  93        3PY         0.00030  -0.00041  -0.00004   0.00015   0.00043
  94        3PZ         0.00089   0.00044  -0.00037  -0.00020  -0.00004
  95 9   C  1S         -0.00046  -0.00385   0.00107   0.00178   0.00352
  96        2S          0.00102   0.00852  -0.00199  -0.00407  -0.00743
  97        3S         -0.00942   0.05343   0.00318  -0.02357  -0.04718
  98        4PX        -0.00116   0.00613  -0.00586  -0.00408  -0.00632
  99        4PY         0.00952   0.00264  -0.00676  -0.00024   0.00590
 100        4PZ         0.04170   0.01455  -0.02567  -0.00488   0.01348
 101        5PX        -0.00592   0.01090   0.00712  -0.00758  -0.01814
 102        5PY         0.00907  -0.00759  -0.00043   0.00147   0.00560
 103        5PZ         0.02941   0.01353  -0.01958  -0.00332   0.01120
 104        6D 0        0.00008   0.00006   0.00005   0.00003  -0.00018
 105        6D+1        0.00105   0.00058  -0.00060  -0.00051   0.00007
 106        6D-1        0.00014   0.00014  -0.00041  -0.00038  -0.00003
 107        6D+2       -0.00023  -0.00047  -0.00029   0.00014   0.00026
 108        6D-2        0.00038  -0.00036  -0.00048  -0.00020  -0.00011
 109 10  H  1S         -0.00078   0.00158   0.00317   0.00122   0.00073
 110        2S         -0.00157  -0.00146   0.00359   0.00367   0.00525
 111        3PX        -0.00003   0.00015  -0.00026  -0.00002  -0.00007
 112        3PY         0.00044   0.00022  -0.00045  -0.00007   0.00032
 113        3PZ         0.00177   0.00062  -0.00116  -0.00026   0.00062
 114 11  C  1S         -0.00115  -0.00527  -0.00237   0.00115   0.00446
 115        2S          0.00265   0.01228   0.00533  -0.00242  -0.00905
 116        3S          0.02192   0.00016   0.00033  -0.00184   0.00648
 117        4PX         0.00283   0.01611   0.00770  -0.00366  -0.01204
 118        4PY        -0.00238  -0.01858  -0.00528   0.00524   0.01241
 119        4PZ         0.00170   0.00126   0.00667   0.00796  -0.00221
 120        5PX         0.00689   0.00192   0.00113  -0.00293  -0.00261
 121        5PY        -0.00645  -0.02438   0.00696   0.00619   0.00516
 122        5PZ         0.00227   0.00100   0.00338   0.00790  -0.00071
 123        6D 0       -0.00122  -0.00017   0.00095   0.00013  -0.00075
 124        6D+1       -0.00015  -0.00045  -0.00001   0.00010   0.00026
 125        6D-1        0.00260   0.00084  -0.00196  -0.00035   0.00120
 126        6D+2       -0.00079  -0.00179  -0.00066   0.00038   0.00137
 127        6D-2       -0.00020   0.00038   0.00029  -0.00013  -0.00069
 128 12  H  1S         -0.00145  -0.01139  -0.00684   0.00209   0.00941
 129        2S         -0.00256  -0.01162  -0.00720   0.00202   0.00984
 130        3PX        -0.00005   0.00042   0.00019  -0.00008  -0.00046
 131        3PY         0.00004  -0.00041  -0.00043   0.00015   0.00057
 132        3PZ         0.00006   0.00000   0.00028   0.00036  -0.00006
 133 13  C  1S          0.00248   0.00530   0.00632  -0.00063  -0.00610
 134        2S         -0.00599  -0.00993  -0.01493   0.00091   0.01320
 135        3S         -0.03405   0.00580  -0.01994   0.01565   0.02082
 136        4PX        -0.00306  -0.02841  -0.02560   0.00492   0.03000
 137        4PY        -0.00648   0.00128   0.01045   0.00205  -0.00419
 138        4PZ        -0.03973  -0.02028   0.02210   0.00591  -0.01063
 139        5PX        -0.00077  -0.00376  -0.02428   0.01262   0.03413
 140        5PY        -0.01749   0.00460   0.02046   0.00204  -0.02551
 141        5PZ        -0.02763  -0.01135   0.01469   0.00401  -0.00428
 142        6D 0        0.00022  -0.00005  -0.00053  -0.00051  -0.00002
 143        6D+1       -0.00124   0.00077   0.00042  -0.00069  -0.00121
 144        6D-1       -0.00033  -0.00053   0.00015   0.00040  -0.00012
 145        6D+2       -0.00010   0.00072  -0.00044  -0.00020  -0.00037
 146        6D-2       -0.00081  -0.00409  -0.00034   0.00078   0.00251
 147 14  H  1S         -0.00331  -0.00938  -0.00014   0.00213   0.00521
 148        2S          0.00202  -0.01664   0.00945   0.00962   0.00881
 149        3PX        -0.00009  -0.00118  -0.00030   0.00033   0.00086
 150        3PY        -0.00028   0.00031  -0.00034  -0.00026  -0.00029
 151        3PZ        -0.00143  -0.00096   0.00110   0.00027  -0.00028
 152 15  C  1S         -0.00186  -0.02900  -0.00098   0.01073   0.02587
 153        2S          0.00639   0.07393  -0.00244  -0.02869  -0.06205
 154        3S          0.01178   0.13179  -0.01875  -0.06325  -0.20373
 155        4PX         0.01212   0.06674   0.01493  -0.02096  -0.05744
 156        4PY        -0.00996  -0.09386   0.00031   0.02416   0.06321
 157        4PZ        -0.03088   0.01608   0.00939  -0.01336  -0.02893
 158        5PX        -0.01178   0.08483  -0.00717  -0.00781  -0.06828
 159        5PY         0.02145  -0.11079  -0.05351   0.03296   0.15478
 160        5PZ        -0.01830   0.02713   0.00675  -0.02301  -0.03683
 161        6D 0        0.00113   0.00024  -0.00081  -0.00046   0.00064
 162        6D+1        0.00145   0.00065  -0.00201  -0.00020   0.00091
 163        6D-1       -0.00324  -0.00135   0.00229   0.00141  -0.00152
 164        6D+2       -0.00005  -0.00150  -0.00537  -0.00126   0.00249
 165        6D-2        0.00111  -0.00181   0.00045   0.00062   0.00178
 166 16  C  1S         -0.01050   0.00800   0.03403   0.01519  -0.00541
 167        2S          0.01853  -0.00941  -0.08444  -0.04077  -0.00429
 168        3S          0.06345  -0.10507  -0.16139  -0.05609   0.19670
 169        4PX         0.00349  -0.01772  -0.14771  -0.05359   0.00292
 170        4PY         0.01063   0.08385  -0.05476  -0.03605  -0.04237
 171        4PZ         0.06572  -0.00489  -0.08191  -0.03215   0.03032
 172        5PX        -0.02562   0.04634  -0.06776  -0.05350  -0.05569
 173        5PY        -0.00905  -0.03360   0.00146   0.02281   0.05848
 174        5PZ        -0.03062   0.04869   0.01395   0.02253  -0.07167
 175        6D 0       -0.00582  -0.00441   0.00810   0.00497  -0.00061
 176        6D+1       -0.01047   0.00656   0.00682   0.00420  -0.01318
 177        6D-1       -0.00954  -0.00328   0.00671   0.00560  -0.00053
 178        6D+2        0.00846   0.00226  -0.00999  -0.00707  -0.00215
 179        6D-2       -0.00083  -0.01558   0.00045   0.00794   0.01622
 180 17  H  1S          0.07662  -0.06852  -0.02976  -0.00758   0.08895
 181        2S          0.04021  -0.05001   0.00507   0.00196   0.07717
 182        3PX         0.00037  -0.00195  -0.00338  -0.00091   0.00015
 183        3PY         0.00192   0.00232  -0.00242  -0.00232  -0.00155
 184        3PZ         0.00023   0.00154  -0.00269  -0.00195  -0.00171
 185 18  C  1S          0.02621   0.00782  -0.02427  -0.01052  -0.00136
 186        2S         -0.06349  -0.02083   0.05622   0.02439   0.00518
 187        3S         -0.13218  -0.02098   0.17485   0.10096  -0.06757
 188        4PX        -0.01190   0.02930   0.02213  -0.02389   0.00661
 189        4PY        -0.05524  -0.09025   0.07164   0.03862   0.00659
 190        4PZ        -0.09392   0.00771   0.07871   0.06260  -0.00538
 191        5PX         0.03223   0.00046  -0.01796  -0.05086  -0.00055
 192        5PY        -0.06829   0.01883   0.07103   0.04940  -0.01394
 193        5PZ        -0.06458  -0.03008   0.09548   0.06219  -0.02007
 194        6D 0        0.00245  -0.00142  -0.00426  -0.00193   0.00169
 195        6D+1        0.00346  -0.00502  -0.00608  -0.00303  -0.00224
 196        6D-1        0.00110  -0.00821  -0.00007  -0.00031   0.00101
 197        6D+2        0.00257  -0.01203   0.00409   0.00106   0.00155
 198        6D-2       -0.00291   0.01166  -0.00165  -0.00040   0.00091
 199 19  H  1S         -0.01450   0.11577  -0.02235  -0.00469  -0.00936
 200        2S         -0.00178   0.11075  -0.03511  -0.01051  -0.00071
 201        3PX        -0.00115  -0.00015   0.00138  -0.00012  -0.00008
 202        3PY        -0.00128  -0.00043   0.00079   0.00114   0.00095
 203        3PZ        -0.00319   0.00037   0.00231   0.00215   0.00027
 204 20  H  1S          0.04309  -0.07533  -0.03657  -0.01673  -0.00135
 205        2S          0.06602  -0.05789  -0.05794  -0.04225   0.00282
 206        3PX         0.00002   0.00080  -0.00009  -0.00094   0.00049
 207        3PY        -0.00198  -0.00308   0.00308   0.00144  -0.00032
 208        3PZ        -0.00183  -0.00204   0.00163   0.00201  -0.00046
 209 21  C  1S         -0.00272  -0.00034   0.05654   0.01577  -0.00189
 210        2S          0.00198  -0.00054  -0.14344  -0.03700   0.00707
 211        3S         -0.02210   0.01731  -0.01498  -0.03117  -0.01871
 212        4PX        -0.18870   0.01174  -0.05320   0.03508  -0.03007
 213        4PY         0.03433  -0.17306  -0.02570   0.00397   0.04536
 214        4PZ         0.06861   0.10071  -0.04322  -0.01759  -0.01473
 215        5PX        -0.05560  -0.02245   0.10108   0.01252   0.03960
 216        5PY        -0.03271  -0.11825   0.01253   0.04047   0.01253
 217        5PZ        -0.09708   0.03708  -0.03804   0.05854  -0.08001
 218        6D 0       -0.00726   0.01858   0.01734   0.00049  -0.01528
 219        6D+1       -0.02381   0.00034  -0.00560   0.01749   0.00278
 220        6D-1       -0.00599  -0.01732   0.00751   0.01217   0.01403
 221        6D+2        0.00420   0.01644  -0.01359  -0.00688   0.00558
 222        6D-2       -0.00736  -0.00329  -0.00214  -0.00293  -0.03016
 223 22  C  1S          0.02040   0.00723   0.01967  -0.00810   0.00483
 224        2S         -0.06146  -0.01950  -0.05231   0.01461  -0.01487
 225        3S          0.05551  -0.02690   0.10244   0.03330  -0.03919
 226        4PX        -0.03955  -0.01764   0.02102  -0.05721   0.02949
 227        4PY         0.00587   0.07976   0.02243  -0.03933  -0.05383
 228        4PZ         0.10896   0.00564   0.09785  -0.01630   0.03225
 229        5PX         0.07339  -0.01778   0.03812   0.14283  -0.05892
 230        5PY        -0.01583   0.04940  -0.03226   0.06661  -0.04107
 231        5PZ        -0.05699  -0.01317  -0.09635   0.09128  -0.01993
 232        6D 0        0.02841  -0.00569   0.01835   0.00779  -0.01974
 233        6D+1        0.01142  -0.00407  -0.01096   0.03500  -0.02100
 234        6D-1        0.00897   0.02134   0.00098   0.02148   0.02457
 235        6D+2       -0.01506  -0.01130  -0.00644  -0.01532  -0.01102
 236        6D-2       -0.00260  -0.00150  -0.00721   0.00792  -0.00119
 237 23  C  1S          0.03861   0.00840   0.01531   0.03839  -0.00831
 238        2S         -0.09539  -0.02399  -0.03705  -0.09821   0.01570
 239        3S         -0.26374   0.00379  -0.16074  -0.23148   0.19387
 240        4PX         0.15627   0.03924   0.05117   0.13860  -0.02999
 241        4PY         0.05097  -0.02932   0.02845   0.01351   0.00776
 242        4PZ        -0.04445  -0.00098  -0.00193  -0.05157   0.00956
 243        5PX         0.14297   0.01131   0.08986   0.14507  -0.01115
 244        5PY         0.06228  -0.01615   0.04737   0.00199  -0.00042
 245        5PZ         0.06097   0.03039   0.08983  -0.10205   0.08425
 246        6D 0        0.00397  -0.00039   0.00088   0.00345  -0.00117
 247        6D+1       -0.00070   0.00039   0.00169  -0.00442   0.00030
 248        6D-1        0.00052   0.00234   0.00028   0.00163   0.00137
 249        6D+2       -0.00136   0.00128  -0.00090  -0.00072  -0.00236
 250        6D-2        0.00030  -0.00413   0.00133  -0.00077   0.00496
 251 24  C  1S         -0.00301  -0.00205  -0.00692   0.00899  -0.00385
 252        2S          0.00238   0.00308   0.01186  -0.02148   0.00866
 253        3S         -0.05646   0.02538  -0.02028  -0.06429  -0.01886
 254        4PX        -0.02440   0.00392  -0.02444   0.01469  -0.01481
 255        4PY         0.00154  -0.05064   0.01068  -0.00891   0.02874
 256        4PZ        -0.02228   0.00258  -0.00375  -0.03050   0.01172
 257        5PX        -0.02954   0.03494   0.00974  -0.09693   0.07780
 258        5PY         0.00127  -0.01474   0.01405  -0.01081   0.07582
 259        5PZ         0.00736   0.01379   0.04248  -0.05690   0.06751
 260        6D 0        0.00535   0.00090   0.00272   0.00244  -0.00001
 261        6D+1       -0.00135  -0.00063  -0.00022  -0.00245   0.00063
 262        6D-1       -0.00010   0.00179  -0.00044   0.00063  -0.00060
 263        6D+2       -0.00157  -0.00049  -0.00146   0.00055  -0.00011
 264        6D-2       -0.00248  -0.00095  -0.00088  -0.00197  -0.00155
 265 25  H  1S          0.00882   0.00402   0.01124  -0.01123   0.00781
 266        2S          0.02994  -0.01055  -0.02884   0.09587  -0.05214
 267        3PX        -0.00272  -0.00032   0.00044  -0.00486   0.00062
 268        3PY        -0.00005  -0.00151   0.00029  -0.00039   0.00090
 269        3PZ         0.00013  -0.00001  -0.00055   0.00126  -0.00097
 270 26  C  1S         -0.00427  -0.00030   0.00867  -0.01845   0.00371
 271        2S          0.01044   0.00173  -0.01870   0.03949  -0.00634
 272        3S          0.04994   0.00874  -0.00507   0.06291  -0.01705
 273        4PX        -0.01835   0.00605   0.01967  -0.04214  -0.00041
 274        4PY         0.03263  -0.02986   0.02669  -0.00512   0.03868
 275        4PZ         0.05362   0.01438   0.01958   0.04056  -0.01538
 276        5PX        -0.05789   0.00500  -0.05415   0.00399  -0.01629
 277        5PY         0.02143  -0.03383   0.01662  -0.01081   0.01063
 278        5PZ         0.11520   0.03059   0.10716  -0.02817   0.00015
 279        6D 0        0.00229   0.00102  -0.00113   0.00422  -0.00111
 280        6D+1        0.00249   0.00085  -0.00035   0.00491  -0.00161
 281        6D-1        0.00192  -0.00158   0.00053   0.00137  -0.00015
 282        6D+2       -0.00141  -0.00066   0.00093  -0.00316  -0.00061
 283        6D-2        0.00022   0.00163   0.00067   0.00047   0.00231
 284 27  H  1S         -0.00565  -0.00048  -0.02049   0.02353  -0.00498
 285        2S          0.07415   0.02016   0.08408  -0.03603   0.00074
 286        3PX        -0.00291  -0.00045  -0.00314   0.00007   0.00004
 287        3PY         0.00034  -0.00129  -0.00035   0.00013   0.00065
 288        3PZ         0.00088   0.00040   0.00002   0.00122  -0.00020
 289 28  O  1S         -0.00086  -0.00020  -0.00052  -0.00033   0.00011
 290        2S         -0.00207  -0.00014  -0.00103  -0.00124   0.00106
[...]
 59,0.00263998,0.00741039,-0.00049262,-0.00037065,0.00104648,-0.0019295
 2,0.00286738,0.00876939,0.00000904,0.00021899,0.00134933,-0.03898621,0
 .05645357,-0.09447684,-0.11711700,0.00560935,-0.11808616,0.16680729,-0
 .05954484,0.29870597,-0.00004281,0.00040782,0.00004938,-0.00027768,0.0
 0014477,0.00101782,-0.00009982,0.00023890,0.00003559,0.00003087,0.0004
 7060,0.00005234,0.00000530,-0.00001313,-0.00003491,-0.00001133,-0.0000
 1350,0.00004643,-0.00000046,0.00000326,0.00001892,-0.00000267,-0.00000
 529,-0.00000615,0.00001459,0.00001929,-0.00002783,0.00000284,0.0000058
 6,-0.00000781,0.00001589,0.00002075,0.00000004,0.00000408,0.00000955,-
 0.00000766,0.00001762,0.00000474,-0.00006041,-0.00000835,-0.00000534,0
 .00000999,-0.00002690,0.00006388,0.00009697,-0.00004813,-0.00011654,-0
 .00007567,0.00001773,0.00004387,0.00000829,-0.00005892,-0.00002762,-0.
 00007238,0.00002170,0.00001262,0.00001808,-0.00000252,0.00003787,0.000
 00190,0.00035611,0.00006311,0.00043789,0.00033863,0.00132169,-0.002931
 44,0.05761358,-0.03381860,0.01462767,-0.21910009,-0.09357420,-0.050207
 91,-0.00761739,-0.03358422,-0.00348513,-0.04780160,-0.02621868,-0.0107
 1210,-0.00106589,-0.00030810,0.00010273,-0.00726860,0.00735788,-0.0025
 1629,0.00506984,0.00081124,0.00036539,-0.02435609,-0.02777059,-0.00634
 977,0.68798525,-0.00022272,0.00001371,-0.00003194,-0.00207488,0.002326
 37,-0.00028370,-0.00039533,0.00006262,0.00001634,-0.00154962,-0.002450
 02,-0.00022935,-0.00000142,-0.00000073,-0.00001227,0.00000781,-0.00000
 998,0.00002235,-0.00000538,0.00000304,0.00000417,0.00000398,-0.0000034
 5,-0.00000241,0.00000336,0.00000884,-0.00001024,0.00000298,0.00000123,
 -0.00000226,0.00000440,0.00000984,-0.00000130,0.00000273,0.00000274,-0
 .00000298,0.00000205,-0.00000041,-0.00002227,0.,-0.00000215,0.00000466
 ,-0.00002346,0.00002128,0.00003172,-0.00003560,-0.00012044,0.00004591,
 -0.00000482,0.00003993,0.00000541,0.00004402,0.00001258,-0.00000995,-0
 .00000354,-0.00000993,0.00000173,-0.00001675,0.00000261,-0.00000591,0.
 00073210,-0.00002557,-0.00028744,0.00830711,-0.00052027,0.00279500,0.0
 0594103,-0.05515390,0.00211841,-0.17533573,-0.34376625,-0.05230943,0.0
 0498202,0.00516473,0.00276321,-0.01696455,-0.00945685,-0.00447467,-0.0
 0085738,0.00068088,0.00002242,-0.00473520,0.00043417,-0.00121652,-0.00
 538332,-0.00538922,-0.00107056,-0.03589366,-0.00316309,-0.01079123,-0.
 18226975,1.18090556,0.00000404,0.00010686,0.00002316,0.00012708,-0.000
 43125,-0.00002509,0.00007305,0.00011895,0.00005189,-0.00000138,0.00088
 279,0.00029945,-0.00000103,-0.00000630,-0.00000924,-0.00000183,-0.0000
 0516,0.00001191,-0.00000022,0.00000046,0.00000383,-0.00000146,-0.00000
 265,0.00000007,0.00000394,0.00000556,-0.00000611,0.00000077,0.00000135
 ,-0.00000256,0.00000475,0.00000637,-0.00000092,0.00000129,0.00000312,-
 0.00000191,0.00000394,0.00000073,-0.00001209,-0.00000243,-0.00000096,0
 .00000354,-0.00001198,0.00000402,0.00002231,0.00000592,-0.00003711,0.0
 0006183,0.00001064,0.00003787,0.00000096,-0.00001252,-0.00001900,0.000
 00247,0.00001158,0.00001279,0.00000710,-0.00000325,0.00000869,-0.00000
 081,0.00014882,0.00001234,-0.00075130,-0.00269103,0.00052329,0.0057637
 1,0.01523421,-0.00686474,0.01215000,-0.04550292,-0.02879675,-0.0861194
 7,-0.00599266,-0.01100332,0.00797868,-0.01248666,-0.00780534,-0.009496
 79,-0.00001568,-0.00011483,-0.00085229,-0.00229042,0.00208194,0.001126
 90,0.00045812,0.00060729,0.00404162,-0.00502387,-0.00781919,-0.0052251
 9,0.18654047,-0.06002204,0.13403677,-0.00002500,-0.00006239,-0.0000099
 0,-0.00035592,0.00019943,-0.00019030,-0.00007373,-0.00004847,-0.000012
 26,-0.00024356,-0.00044226,-0.00001059,-0.00000247,0.00000089,0.000005
 12,0.00000385,-0.00000068,-0.00000699,-0.00000129,0.00000059,-0.000002
 85,0.00000124,-0.00000082,0.00000237,-0.00000323,-0.00000223,0.0000046
 4,0.00000045,-0.00000108,0.00000075,-0.00000235,-0.00000137,-0.0000005
 8,0.00000012,-0.00000108,0.00000126,-0.00000384,-0.00000048,0.00000926
 ,0.00000194,0.00000066,-0.00000082,0.00000286,-0.00001060,-0.00001408,
 0.00000331,0.00001622,0.00001188,-0.00000397,-0.00000894,-0.00000138,0
 .00001243,0.00000462,0.00000709,-0.00000488,-0.00000414,-0.00000164,-0
 .00000113,-0.00000579,-0.00000118,0.00010024,0.00005284,-0.00003448,0.
 00119170,-0.00032671,0.00061394,-0.00167729,-0.00375753,-0.00304994,0.
 01403643,-0.02423384,0.00213571,0.00033811,0.00146438,0.00236938,-0.00
 050187,-0.00079989,0.00011912,-0.00004537,0.00000124,0.00029531,0.0011
 9871,-0.00304040,0.00042783,0.00157920,-0.00086665,0.00033967,-0.00074
 139,0.00511019,0.00111476,-0.11891337,0.29328646,-0.04565409,0.1154401
 8,-0.00001549,-0.00004523,-0.00000778,-0.00029709,0.00022994,-0.000056
 21,-0.00004672,-0.00003106,-0.00000640,-0.00020032,-0.00039017,-0.0000
 3677,-0.00000118,-0.00000024,0.00000247,0.00000127,-0.00000076,-0.0000
 0400,-0.00000013,0.00000018,-0.00000142,-0.00000012,-0.00000081,0.0000
 0158,-0.00000120,-0.00000104,0.00000235,0.00000007,-0.00000031,0.00000
 002,-0.00000061,-0.00000020,-0.00000027,-0.00000002,-0.00000017,0.0000
 0064,-0.00000147,-0.00000006,0.00000462,0.00000070,0.00000041,-0.00000
 021,0.00000140,-0.00000515,-0.00000651,0.00000069,0.00000427,0.0000026
 9,-0.00000200,-0.00000514,-0.00000039,0.00000501,-0.00000296,0.0000051
 1,-0.00000281,-0.00000304,-0.00000119,-0.00000161,-0.00000366,-0.00000
 130,0.00007142,0.00002395,-0.00001630,0.00134683,-0.00019065,0.0003815
 2,-0.00310277,-0.00241012,-0.00108762,0.01358668,-0.01440998,0.0047639
 2,0.00011013,0.00180522,0.00014629,-0.00123356,0.00005590,-0.00034758,
 0.00001253,-0.00008003,-0.00001045,-0.00306510,-0.00201644,-0.00088912
 ,0.00064201,-0.00002635,0.00018381,0.00035835,-0.00079306,0.00018073,0
 .29290334,-0.65241992,0.08878949,-0.29595279,0.66401192,-0.00000516,-0
 .00001971,0.00000367,-0.00009983,0.00017419,0.00026973,-0.00002647,-0.
 00000301,0.00000763,-0.00008051,-0.00018697,-0.00022083,0.00000180,0.0
 0000180,-0.00000361,-0.00000054,0.00000173,0.00000390,0.00000006,-0.00
 000005,0.00000225,0.00000034,0.00000104,-0.00000218,0.00000106,0.00000
 056,-0.00000309,0.00000009,0.00000058,0.00000005,-0.00000052,-0.000001
 07,0.00000076,-0.00000010,-0.00000017,-0.00000023,0.00000125,0.0000002
 4,-0.00000439,-0.00000043,-0.00000117,-0.00000033,-0.00000334,0.000002
 63,0.00000775,-0.00000331,-0.00000140,-0.00002095,-0.00000054,-0.00000
 442,-0.00000045,0.00000125,-0.00000035,0.00000672,-0.00000022,-0.00000
 142,-0.00000239,-0.00000160,-0.00000139,-0.00000072,0.00006122,0.00001
 994,0.00002439,0.00062346,-0.00015075,-0.00028648,-0.00304520,-0.00124
 638,0.00833445,0.00187312,-0.00492617,0.01018896,0.00291859,0.00002640
 ,-0.00670615,-0.00050600,-0.00049992,-0.00131423,0.00026646,-0.0000332
 6,-0.00092506,0.00043845,-0.00085813,-0.00007246,0.00040490,-0.0002123
 6,0.00055522,0.00121115,0.00120486,-0.00446627,-0.04635965,0.08709046,
 0.01578166,0.04922767,-0.09026463,-0.03092944,0.00015579,-0.00069849,-
 0.00005894,0.00066915,-0.00219315,-0.00048491,-0.00027741,-0.00066019,
 -0.00009388,0.00048020,-0.00104235,-0.00036305,-0.00000827,0.00001925,
 0.00006550,0.00001592,0.00002097,-0.00009311,0.00000431,-0.00000472,-0
 .00003575,0.00000201,0.00000841,0.00001355,-0.00002672,-0.00003840,0.0
 0005238,-0.00000636,-0.00000983,0.00001330,-0.00002711,-0.00003625,0.0
 0000167,-0.00000863,-0.00001645,0.00001424,-0.00002917,-0.00000654,0.0
 0010958,0.00001387,0.00001017,-0.00001907,0.00005714,-0.00011749,-0.00
 016106,0.00007101,0.00035980,-0.00001598,-0.00004367,-0.00013384,-0.00
 001601,0.00009826,0.00010463,0.00010457,-0.00005241,-0.00003094,-0.000
 03329,0.00001589,-0.00006647,0.00000282,-0.00007137,0.00144705,0.00036
 046,-0.00314545,0.00208493,-0.00044913,-0.03841016,0.03189903,-0.00965
 254,-0.03509221,-0.07340765,-0.00968482,0.00160019,-0.00240697,-0.0024
 5690,0.05049871,0.00754604,0.01158277,-0.00157342,-0.00334100,-0.00285
 139,0.01914983,0.01117713,-0.00009055,-0.05601363,-0.03340591,-0.01947
 149,-0.10424665,0.00880599,-0.00564488,-0.30919374,0.08003767,-0.07197
 596,-0.00554004,-0.00408104,-0.00309580,0.66745745,0.00022969,-0.00140
 955,-0.00008947,-0.00004682,0.00009888,-0.00019000,-0.00107249,-0.0015
 6536,-0.00020821,-0.00186598,-0.00271246,-0.00124989,-0.00002472,0.000
 02297,0.00014059,0.00004014,0.00002719,-0.00019979,0.00001125,-0.00000
 484,-0.00007458,0.00000065,0.00001442,0.00003347,-0.00005594,-0.000085
 11,0.00011336,-0.00001440,-0.00001944,0.00002621,-0.00005538,-0.000073
 06,0.00000392,-0.00001979,-0.00003282,0.00003098,-0.00005886,-0.000014
 59,0.00024049,0.00002877,0.00002234,-0.00004036,0.00012067,-0.00026521
 ,-0.00032711,0.00003475,0.00088589,-0.00017360,-0.00009473,-0.00035311
 ,-0.00003617,0.00020012,0.00027895,0.00021328,-0.00012451,-0.00007164,
 -0.00006900,0.00003042,-0.00014407,0.00000887,0.00065038,0.00382825,0.
 00122753,0.00196554,-0.00201082,0.00006752,0.03228341,-0.01854626,0.01
 050758,-0.02387117,0.03110985,-0.00827726,-0.00236039,-0.00426451,-0.0
 0065651,-0.04506194,-0.06325163,-0.01060504,-0.00307261,-0.00132911,-0
 .00073340,-0.00420710,-0.06885612,0.00101631,-0.01881373,0.01056612,-0
 .00499818,0.01169983,-0.09504954,0.00388707,0.02262334,-0.12726232,0.0
 0753027,0.02884376,0.00455269,0.00890991,-0.15834013,0.67801715,0.0000
 3777,-0.00015382,-0.00001867,0.00024193,-0.00075777,-0.00019601,-0.000
 02821,-0.00011949,-0.00002454,0.00028982,-0.00014170,0.00004015,-0.000
 00264,0.00000347,0.00001582,0.00000356,0.00000386,-0.00002264,0.000001
 18,-0.00000119,-0.00000941,0.00000017,0.00000156,0.00000409,-0.0000067
 2,-0.00000902,0.00001362,-0.00000149,-0.00000259,0.00000307,-0.0000063
 1,-0.00000822,-0.00000022,-0.00000187,-0.00000381,0.00000353,-0.000008
 33,-0.00000107,0.00002876,0.00000368,0.00000274,-0.00000414,0.00001474
 ,-0.00003413,-0.00004351,0.00002885,0.00007938,0.00004737,-0.00000939,
 -0.00001957,-0.00000374,0.00002407,0.00002372,0.00001422,-0.00001259,-
 0.00000776,-0.00000639,0.00000493,-0.00001364,0.00000128,-0.00001730,0
 .00025448,-0.00002877,-0.00108043,0.00074542,-0.00068765,-0.01036242,0
 .01043642,-0.01073793,-0.01363616,-0.02437888,0.00572240,-0.00287152,-
 0.00026512,0.00850918,0.01448215,0.00449603,0.01203832,-0.00273917,-0.
 00079025,0.00796947,0.00049931,0.00502572,0.01763666,-0.01973840,-0.00
 880421,0.01329374,-0.00654485,0.00331335,-0.08348278,-0.06861179,0.026
 38244,-0.09238531,-0.00407425,-0.00124931,0.00408283,0.15824112,-0.063
 66680,0.18839676,0.00007242,-0.00007204,-0.00001300,-0.00291121,-0.002
 25065,0.00031568,0.00007973,0.00018702,0.00005567,0.00130912,-0.000618
 10,0.00067696,0.00000634,0.00000152,-0.00000196,-0.00001054,0.00000702
 ,-0.00000174,0.00000360,-0.00000257,0.00000008,-0.00000264,0.00000101,
 -0.00000150,0.00000240,0.00000061,-0.00000271,-0.00000109,0.00000073,-
 0.00000062,0.00000242,0.00000096,0.00000185,-0.00000046,0.00000106,-0.
 00000113,0.00000575,0.00000176,-0.00000942,-0.00000222,-0.00000003,0.0
 0000057,-0.00000303,0.00001275,0.00001304,0.00006548,-0.00001232,-0.00
 001233,0.00000530,0.00002829,-0.00000044,-0.00001665,-0.00005840,-0.00
 003166,-0.00000505,-0.00000155,0.00000143,0.00000690,0.00000272,-0.000
 00005,0.00024534,-0.00027156,-0.00005029,-0.00153259,0.00724907,-0.002
 85574,-0.03093236,-0.02693471,-0.01221364,-0.00126996,0.00066513,0.001
 52180,0.00055077,-0.00010011,0.00091110,-0.21029089,-0.15470168,-0.034
 86999,0.01210763,0.01238026,0.00095446,-0.00215982,-0.00828771,-0.0016
 0672,-0.00123124,-0.00244248,-0.00083367,0.01458526,-0.01984051,0.0062
 9925,-0.01754797,0.03061316,-0.00962145,-0.00564118,-0.00089892,-0.003
 37473,-0.18160964,0.16362150,-0.04081502,1.13904088,-0.00014275,0.0007
 3336,0.00001194,0.00060393,-0.00109881,-0.00015122,0.00050227,0.000908
 95,0.00011958,0.00115930,0.00059370,0.00055262,0.00001771,-0.00000875,
 -0.00008073,-0.00002671,-0.00001173,0.00011659,-0.00000645,0.00000155,
 0.00004077,-0.00000033,-0.00000805,-0.00002018,0.00003261,0.00005080,-
 0.00006575,0.00000866,0.00001095,-0.00001503,0.00003245,0.00004372,-0.
 00000289,0.00001212,0.00001888,-0.00001849,0.00003239,0.00000785,-0.00
 014231,-0.00001590,-0.00001265,0.00002431,-0.00007432,0.00015508,0.000
 18545,0.00000956,-0.00056350,0.00019902,0.00004772,0.00024530,0.000023
 75,-0.00007576,-0.00015871,-0.00012802,0.00006827,0.00003403,0.0000375
 9,-0.00002221,0.00008120,-0.00000738,-0.00027093,-0.00188486,-0.000959
 14,-0.00069692,0.00326174,0.00074278,-0.06498828,0.04068908,-0.0208587
 5,-0.00934681,-0.06143508,-0.00121346,0.00025730,-0.00134039,0.0000885
 0,-0.07210632,-0.30793768,-0.01427673,-0.02610965,-0.01505548,-0.00616
 547,-0.00188966,0.00311466,-0.00065594,0.01070892,-0.00508168,0.003082
 56,-0.01471177,-0.04466724,-0.00196455,0.06931728,0.01621009,0.0213394
 0,-0.00104856,0.00180706,0.00042028,0.10463650,-0.34438154,0.04016092,
 -0.06458890,0.71516287,-0.00000276,-0.00009587,0.00004433,-0.00123113,
 -0.00098968,-0.00187030,0.00000290,-0.00003880,-0.00002012,0.00069708,
 -0.00017697,-0.00035908,0.00000018,-0.00000503,0.00001055,-0.00000528,
 0.00000067,-0.00000965,0.00000210,-0.00000210,-0.00000276,-0.00000358,
 0.00000007,0.00000293,-0.00000085,-0.00000173,0.00000739,-0.00000120,-
 0.00000042,0.00000031,0.00000169,0.00000149,-0.00000195,0.00000003,-0.
 00000044,0.00000041,-0.00000379,-0.00000183,0.00000642,0.00000077,0.00
 000308,-0.00000039,0.00001040,0.00001250,-0.00001547,-0.00000243,0.000
 00380,-0.00005069,-0.00000809,-0.00001477,0.00000372,0.00002056,-0.000
 00527,0.00005346,0.00000692,0.00000551,-0.00000073,-0.00001057,-0.0000
 1179,-0.00000285,-0.00006940,0.00009810,-0.00003778,-0.00268825,0.0025
 1820,0.00710705,-0.00809698,-0.00892977,0.00679919,0.00172465,0.001941
 71,-0.00553016,0.00051004,-0.00002688,-0.00064218,-0.03849478,-0.03765
 108,-0.08430117,0.00196771,0.00440090,0.00857472,-0.00165366,-0.002494
 83,0.00355398,-0.00132009,-0.00026797,0.00138288,0.00622112,-0.0044386
 7,-0.00246857,-0.01051891,0.00884817,0.00790378,-0.00314978,-0.0004145
 0,0.00455387,-0.03973370,0.05866367,-0.07582636,0.32071394,-0.04174684
 ,0.17222305,0.00000310,-0.00001602,0.00000328,-0.00028974,-0.00017489,
 -0.00001794,-0.00001447,-0.00000671,-0.00001483,0.00012823,-0.00014910
 ,0.00003113,-0.00000011,-0.00000123,0.00000213,-0.00000122,0.00000006,
 -0.00000351,0.00000084,-0.00000047,-0.00000148,-0.00000130,-0.00000063
 ,0.00000152,-0.00000042,-0.00000045,0.00000212,-0.00000018,-0.00000019
 ,-0.00000027,0.00000035,0.00000082,-0.00000051,0.00000013,0.00000022,0
 .00000028,-0.00000107,0.00000017,0.00000308,0.00000029,0.00000061,0.00
 000029,0.00000169,-0.00000391,-0.00000464,0.00000790,0.00000166,0.0000
 1867,-0.00000113,0.00000308,0.00000032,0.00000075,-0.00000405,0.000000
 28,-0.00000012,-0.00000054,0.00000074,-0.00000059,-0.00000101,-0.00000
 067,0.00003277,0.00002204,-0.00004456,-0.00021538,0.00092485,0.0000804
 0,0.00073247,-0.00268915,-0.00235983,0.00048156,-0.00074080,0.00053803
 ,-0.00015169,-0.00002835,0.00022986,-0.00742405,0.00545253,-0.00506625
 ,0.00062692,0.00021161,0.00228238,0.00029500,0.00018280,-0.00008971,0.
 00055948,-0.00297429,0.00029620,-0.00295141,-0.00052407,0.00094750,0.0
 0195031,0.00180222,-0.00133779,-0.00012888,-0.00013547,-0.00042695,-0.
 00491370,-0.00322352,-0.00330441,-0.71292082,0.06867528,-0.22488487,0.
 72419445,0.00005154,-0.00009074,0.00000128,-0.00069304,-0.00051655,-0.
 00010979,-0.00002391,-0.00004788,-0.00000370,0.00025862,-0.00039745,0.
 00007444,0.00000250,0.00000061,0.00000362,-0.00000325,0.00000393,-0.00
 000784,0.00000298,-0.00000152,-0.00000112,-0.00000284,0.00000084,0.000
 00142,-0.00000004,-0.00000300,0.00000390,-0.00000153,0.00000003,0.0000
 0002,0.00000006,-0.00000210,0.00000048,-0.00000120,-0.00000006,0.00000
 074,-0.00000008,-0.00000068,0.00000609,-0.00000056,0.00000107,-0.00000
 093,0.00000502,-0.00000815,-0.00000762,0.00001094,0.00002420,-0.000009
 54,-0.00000142,-0.00000743,-0.00000116,-0.00000376,-0.00001242,-0.0000
 0120,-0.00000493,-0.00000268,-0.00000194,0.00000003,-0.00000648,0.0000
 0064,0.00002839,0.00014482,0.00003921,-0.00063572,0.00173614,-0.000247
 92,-0.00330931,-0.00498675,-0.00055201,-0.00037999,-0.00140942,-0.0001
 1828,-0.00004064,-0.00000126,-0.00004101,-0.03143252,0.00836653,-0.009
 05691,0.00161320,0.00163576,0.00012587,-0.00132429,0.00149031,-0.00034
 749,-0.00309331,-0.00070316,-0.00086989,0.00391493,0.00136409,0.000801
 30,0.00184390,-0.00614572,0.00085504,0.00163542,0.00034505,0.00055811,
 0.03188024,0.00227842,0.00949886,0.06630767,0.00051527,0.02081739,-0.0
 6660310,-0.00356363,0.00001654,-0.00000192,-0.00001587,-0.00002602,-0.
 00011025,-0.00010540,-0.00001494,-0.00002203,0.00004731,0.00002641,-0.
 00011499,0.00000360,0.00000067,0.00000346,-0.00000380,0.00000156,0.000
 00042,0.00000411,-0.00000131,0.00000055,0.00000202,0.00000210,0.000000
 27,-0.00000217,0.00000034,0.00000096,-0.00000406,0.00000067,0.00000037
 ,0.00000016,-0.00000055,-0.00000093,0.00000145,0.,-0.00000015,-0.00000
 036,0.00000261,0.00000073,-0.00000678,-0.00000068,-0.00000126,-0.00000
 045,-0.00000294,0.00001032,0.00001029,-0.00000075,-0.00000660,-0.00006
 151,0.00000130,-0.00000845,-0.00000096,-0.00000610,-0.00000852,-0.0000
 0045,-0.00000267,-0.00000174,-0.00000297,0.00000317,0.00000056,-0.0000
 0007,-0.00005311,0.00001537,0.00015058,0.00017338,0.00020530,-0.000522
 71,-0.00285837,-0.00008075,0.00784156,0.00061171,-0.00017324,-0.000925
 15,0.00031864,-0.00005589,-0.00091325,-0.00314036,0.00226656,0.0084764
 0,0.00205169,-0.00010349,-0.00639845,0.00000586,-0.00002900,0.00058897
 ,0.00036780,-0.00079899,0.00001074,0.00054584,-0.00044859,-0.00559636,
 -0.00144410,0.00063405,0.00561743,-0.00047063,-0.00006328,0.00113541,-
 0.00407977,-0.00102563,0.00565680,-0.22514800,0.02132682,-0.04108786,0
 .23312000,-0.02141005,0.02610179\\-0.00019528,-0.03959316,-0.00946685,
 0.01137426,0.00332244,-0.00091262,-0.02185869,0.00464767,0.00210209,0.
 00338573,-0.03853833,-0.00935382,-0.02867655,-0.09850671,-0.07973402,0
 .06190104,0.13657993,-0.00928655,-0.02581823,-0.08133937,-0.05434109,0
 .01403469,0.08443644,0.12426274,0.03039610,0.01044825,-0.12140114,-0.0
 4844472,-0.05010861,0.12996230,0.05513365,0.13375826,0.01064806,-0.061
 27421,-0.13725236,0.00817133,0.02266031,0.08669161,0.09381481,-0.01543
 352,-0.08489579,-0.12510570,-0.00917459,0.00285604,0.01318393,0.069648
 42,0.03030958,0.06953004,-0.06265271,-0.02058688,-0.05988311,-0.008209
 66,0.09651799,0.04352445,0.00644685,-0.01980640,-0.10009716,0.02853457
 ,-0.07898174,0.05630955,0.00573717,0.04140034,0.01755438,-0.03639548,0
 .01831195,-0.00090493,0.01836538,-0.00536539,-0.00361690,0.11373617,-0
 .01739202,0.04657944,-0.14211749,0.00876075,-0.04772283,-0.06266821,0.
 12653216,-0.01783578,0.05588544,-0.13640566,0.01989819,0.00229129,-0.0
 0933924,0.00033259,-0.01749053,0.00209824,-0.00529155,0.00873253,-0.01
 303962,0.00533131,0.07495446,-0.12594189,0.02042104,-0.05597470,0.1366
 6740,-0.02004650,-0.00681519,0.04682916,-0.00111873,-0.12211961,-0.002
 51812,-0.03747602,0.14210128,-0.01055692,0.04196905\\\@
 The archive entry for this job was punched.

 Writing a WFNX file to "ZIXTIM_Complex_4_Ligand_1_ON_Cu_oriented.wfx"


 THE ENLIGHTENED ONE, BECAUSE HE SAW MANKIND DROWNING  
 IN THE GREAT SEA OF BIRTH, DEATH, AND SORROW, LONGED TO SAVE 
 THEM, FOR THIS HE WAS MOVED TO PITY.                         
 BECAUSE HE SAW MEN OF THE WORLD STRAYING IN FALSE PATHS, AND 
 NONE TO GUIDE THEM, FOR THIS HE WAS MOVED TO PITY.           
                     ..................                       
 BECAUSE HE SAW THE MEN OF THE WORLD PLOUGHING THEIR FIELDS,  
 SOWING THE SEED, TRAFFICKING, HUCKSTERING, BUYING, SELLING,  
 AND AT THE END WINNOWING NOTHING BUT BITTERNESS,             
 FOR THIS HE WAS MOVED TO PITY......                   
                   BUDAH'S PITY - UPSAKA SILA SUTRA           
 Job cpu time:       0 days  0 hours 52 minutes 15.8 seconds.
 Elapsed time:       0 days  0 hours 52 minutes 28.6 seconds.
 File lengths (MBytes):  RWF=    920 Int=      0 D2E=      0 Chk=     16 Scr=      8
 Normal termination of Gaussian 16 at Mon Mar  6 11:14:17 2023.
