 Entering Gaussian System, Link 0=g16
 Initial command:
 /ssoft/spack/external/gaussian/g16-C.01/avx2/g16/l1.exe "/scratch/lcmd/2387879/Gau-1723158.inp" -scrdir="/scratch/lcmd/2387879/"
 Entering Link 1 = /ssoft/spack/external/gaussian/g16-C.01/avx2/g16/l1.exe PID=   1723161.
  
 Copyright (c) 1988-2019, Gaussian, Inc.  All Rights Reserved.
  
 This is part of the Gaussian(R) 16 program.  It is based on
 the Gaussian(R) 09 system (copyright 2009, Gaussian, Inc.),
 the Gaussian(R) 03 system (copyright 2003, Gaussian, Inc.),
 the Gaussian(R) 98 system (copyright 1998, Gaussian, Inc.),
 the Gaussian(R) 94 system (copyright 1995, Gaussian, Inc.),
 the Gaussian 92(TM) system (copyright 1992, Gaussian, Inc.),
 the Gaussian 90(TM) system (copyright 1990, Gaussian, Inc.),
 the Gaussian 88(TM) system (copyright 1988, Gaussian, Inc.),
 the Gaussian 86(TM) system (copyright 1986, Carnegie Mellon
 University), and the Gaussian 82(TM) system (copyright 1983,
 Carnegie Mellon University). Gaussian is a federally registered
 trademark of Gaussian, Inc.
  
 This software contains proprietary and confidential information,
 including trade secrets, belonging to Gaussian, Inc.
  
 This software is provided under written license and may be
 used, copied, transmitted, or stored only in accord with that
 written license.
  
 The following legend is applicable only to US Government
 contracts under FAR:
  
                    RESTRICTED RIGHTS LEGEND
  
 Use, reproduction and disclosure by the US Government is
 subject to restrictions as set forth in subparagraphs (a)
 and (c) of the Commercial Computer Software - Restricted
 Rights clause in FAR 52.227-19.
  
 Gaussian, Inc.
 340 Quinnipiac St., Bldg. 40, Wallingford CT 06492
  
  
 ---------------------------------------------------------------
 Warning -- This program may not be used in any manner that
 competes with the business of Gaussian, Inc. or will provide
 assistance to any competitor of Gaussian, Inc.  The licensee
 of this program is prohibited from giving any competitor of
 Gaussian, Inc. access to this program.  By using this program,
 the user acknowledges that Gaussian, Inc. is engaged in the
 business of creating and licensing software in the field of
 computational chemistry and represents and warrants to the
 licensee that it is not a competitor of Gaussian, Inc. and that
 it will not use this program in any manner prohibited above.
 ---------------------------------------------------------------
  

 Cite this work as:
 Gaussian 16, Revision C.01,
 M. J. Frisch, G. W. Trucks, H. B. Schlegel, G. E. Scuseria, 
 M. A. Robb, J. R. Cheeseman, G. Scalmani, V. Barone, 
 G. A. Petersson, H. Nakatsuji, X. Li, M. Caricato, A. V. Marenich, 
 J. Bloino, B. G. Janesko, R. Gomperts, B. Mennucci, H. P. Hratchian, 
 J. V. Ortiz, A. F. Izmaylov, J. L. Sonnenberg, D. Williams-Young, 
 F. Ding, F. Lipparini, F. Egidi, J. Goings, B. Peng, A. Petrone, 
 T. Henderson, D. Ranasinghe, V. G. Zakrzewski, J. Gao, N. Rega, 
 G. Zheng, W. Liang, M. Hada, M. Ehara, K. Toyota, R. Fukuda, 
 J. Hasegawa, M. Ishida, T. Nakajima, Y. Honda, O. Kitao, H. Nakai, 
 T. Vreven, K. Throssell, J. A. Montgomery, Jr., J. E. Peralta, 
 F. Ogliaro, M. J. Bearpark, J. J. Heyd, E. N. Brothers, K. N. Kudin, 
 V. N. Staroverov, T. A. Keith, R. Kobayashi, J. Normand, 
 K. Raghavachari, A. P. Rendell, J. C. Burant, S. S. Iyengar, 
 J. Tomasi, M. Cossi, J. M. Millam, M. Klene, C. Adamo, R. Cammi, 
 J. W. Ochterski, R. L. Martin, K. Morokuma, O. Farkas, 
 J. B. Foresman, and D. J. Fox, Gaussian, Inc., Wallingford CT, 2019.
 
 ******************************************
 Gaussian 16:  ES64L-G16RevC.01  3-Jul-2019
                 6-Mar-2023 
 ******************************************
 %nprocshared=1
 Will use up to    1 processors via shared memory.
 %mem=8000MB
 %chk=ZODPIR_Complex_3_Ligand_1_ON_Cu_oriented.chk
 ----------------------------------------------------------------------
 #p pop=(regular,nbo,savenbos) freq=noraman def2svp empiricaldispersion
 =gd3bj output=wfx pbe1pbe
 ----------------------------------------------------------------------
 1/10=4,30=1,38=1/1,3;
 2/12=2,17=6,18=5,40=1/2;
 3/5=43,7=101,11=2,25=1,30=1,71=2,74=-13,124=41,140=1/1,2,3;
 4//1;
 5/5=2,38=5,98=1/2;
 8/6=4,10=90,11=11/1;
 11/6=1,8=1,9=11,15=111,16=1/1,2,10;
 10/6=1/2;
 6/28=1,40=1,73=1/1,7;
 7/8=1,10=1,25=1/1,2,3,16;
 1/10=4,30=1/3;
 99/6=200/99;
 Leave Link    1 at Mon Mar  6 10:21:52 2023, MaxMem=  1048576000 cpu:               0.0 elap:               0.1
 (Enter /ssoft/spack/external/gaussian/g16-C.01/avx2/g16/l101.exe)
 ----------------------------------------
 ZODPIR_Complex_3_Ligand_1_ON_Cu_oriented
 ----------------------------------------
 Symbolic Z-matrix:
 Charge = -1 Multiplicity = 1
 N                     0.89123  -1.80169   0. 
 C                     1.95433  -1.91722  -1.02682 
 C                     2.68383  -3.24056  -0.98791 
 C                     3.39446  -3.5992    0.12937 
 C                     4.04057  -4.82118   0.19962 
 C                     3.99137  -5.6813   -0.83111 
 C                     3.28753  -5.35146  -1.9641 
 C                     2.63276  -4.11908  -2.05652 
 H                     1.31243  -1.85605   0.90597 
 H                     2.58538  -1.22142  -0.88724 
 H                     3.44354  -3.001     0.86513 
 H                     4.52355  -5.05293   0.98369 
 H                     4.44172  -6.51643  -0.77633 
 O                    -1.64562  -1.00676   0. 
 C                    -1.53897  -2.26048  -0.13569 
 C                    -0.14396  -2.85967  -0.10914 
 H                    -0.01285  -3.30856  -0.93614 
 C                    -0.03243  -3.89577   0.99137 
 H                     0.81939  -4.31316   0.94822 
 H                    -0.13479  -3.47234   1.83644 
 O                    -2.49958  -3.03621  -0.29968 
 H                     1.55732  -1.81657  -1.88396 
 H                     2.15738  -3.88817  -2.84594 
 H                     3.2451   -5.96432  -2.68886 
 H                    -0.7124   -4.54971   0.88041 
 
 ITRead=  0  0  0  0  0  0  0  0  0  0  0  0  0  0  0  0  0  0  0  0
 ITRead=  0  0  0  0  0
 MicOpt= -1 -1 -1 -1 -1 -1 -1 -1 -1 -1 -1 -1 -1 -1 -1 -1 -1 -1 -1 -1
 MicOpt= -1 -1 -1 -1 -1
 NAtoms=     25 NQM=       25 NQMF=       0 NMMI=      0 NMMIF=      0
                NMic=       0 NMicF=      0.
                    Isotopes and Nuclear Properties:
 (Nuclear quadrupole moments (NQMom) in fm**2, nuclear magnetic moments (NMagM)
  in nuclear magnetons)

  Atom         1           2           3           4           5           6           7           8           9          10
 IAtWgt=          14          12          12          12          12          12          12          12           1           1
 AtmWgt=  14.0030740  12.0000000  12.0000000  12.0000000  12.0000000  12.0000000  12.0000000  12.0000000   1.0078250   1.0078250
 NucSpn=           2           0           0           0           0           0           0           0           1           1
 AtZEff=  -0.0000000  -0.0000000  -0.0000000  -0.0000000  -0.0000000  -0.0000000  -0.0000000  -0.0000000  -0.0000000  -0.0000000
 NQMom=    2.0440000   0.0000000   0.0000000   0.0000000   0.0000000   0.0000000   0.0000000   0.0000000   0.0000000   0.0000000
 NMagM=    0.4037610   0.0000000   0.0000000   0.0000000   0.0000000   0.0000000   0.0000000   0.0000000   2.7928460   2.7928460
 AtZNuc=   7.0000000   6.0000000   6.0000000   6.0000000   6.0000000   6.0000000   6.0000000   6.0000000   1.0000000   1.0000000

  Atom        11          12          13          14          15          16          17          18          19          20
 IAtWgt=           1           1           1          16          12          12           1          12           1           1
 AtmWgt=   1.0078250   1.0078250   1.0078250  15.9949146  12.0000000  12.0000000   1.0078250  12.0000000   1.0078250   1.0078250
 NucSpn=           1           1           1           0           0           0           1           0           1           1
 AtZEff=  -0.0000000  -0.0000000  -0.0000000  -0.0000000  -0.0000000  -0.0000000  -0.0000000  -0.0000000  -0.0000000  -0.0000000
 NQMom=    0.0000000   0.0000000   0.0000000   0.0000000   0.0000000   0.0000000   0.0000000   0.0000000   0.0000000   0.0000000
 NMagM=    2.7928460   2.7928460   2.7928460   0.0000000   0.0000000   0.0000000   2.7928460   0.0000000   2.7928460   2.7928460
 AtZNuc=   1.0000000   1.0000000   1.0000000   8.0000000   6.0000000   6.0000000   1.0000000   6.0000000   1.0000000   1.0000000

  Atom        21          22          23          24          25
 IAtWgt=          16           1           1           1           1
 AtmWgt=  15.9949146   1.0078250   1.0078250   1.0078250   1.0078250
 NucSpn=           0           1           1           1           1
 AtZEff=  -0.0000000  -0.0000000  -0.0000000  -0.0000000  -0.0000000
 NQMom=    0.0000000   0.0000000   0.0000000   0.0000000   0.0000000
 NMagM=    0.0000000   2.7928460   2.7928460   2.7928460   2.7928460
 AtZNuc=   8.0000000   1.0000000   1.0000000   1.0000000   1.0000000
 Leave Link  101 at Mon Mar  6 10:21:52 2023, MaxMem=  1048576000 cpu:               0.1 elap:               0.1
 (Enter /ssoft/spack/external/gaussian/g16-C.01/avx2/g16/l103.exe)

 GradGradGradGradGradGradGradGradGradGradGradGradGradGradGradGradGradGrad
 Berny optimization.
 Initialization pass.
 Trust Radius=3.00D-01 FncErr=1.00D-07 GrdErr=1.00D-07 EigMax=2.50D+02 EigMin=1.00D-04
 Number of steps in this run=      2 maximum allowed number of steps=      2.
 GradGradGradGradGradGradGradGradGradGradGradGradGradGradGradGradGradGrad

 Leave Link  103 at Mon Mar  6 10:21:52 2023, MaxMem=  1048576000 cpu:               0.0 elap:               0.0
 (Enter /ssoft/spack/external/gaussian/g16-C.01/avx2/g16/l202.exe)
                          Input orientation:                          
 ---------------------------------------------------------------------
 Center     Atomic      Atomic             Coordinates (Angstroms)
 Number     Number       Type             X           Y           Z
 ---------------------------------------------------------------------
      1          7           0        0.891230   -1.801686    0.000000
      2          6           0        1.954333   -1.917216   -1.026816
      3          6           0        2.683831   -3.240556   -0.987912
      4          6           0        3.394465   -3.599201    0.129366
      5          6           0        4.040568   -4.821184    0.199624
      6          6           0        3.991374   -5.681299   -0.831110
      7          6           0        3.287533   -5.351458   -1.964105
      8          6           0        2.632762   -4.119080   -2.056516
      9          1           0        1.312426   -1.856055    0.905970
     10          1           0        2.585378   -1.221419   -0.887235
     11          1           0        3.443538   -3.000997    0.865131
     12          1           0        4.523549   -5.052933    0.983687
     13          1           0        4.441717   -6.516430   -0.776332
     14          8           0       -1.645618   -1.006764    0.000000
     15          6           0       -1.538975   -2.260475   -0.135688
     16          6           0       -0.143956   -2.859667   -0.109141
     17          1           0       -0.012850   -3.308555   -0.936138
     18          6           0       -0.032432   -3.895769    0.991368
     19          1           0        0.819387   -4.313155    0.948221
     20          1           0       -0.134785   -3.472344    1.836437
     21          8           0       -2.499579   -3.036214   -0.299681
     22          1           0        1.557325   -1.816569   -1.883958
     23          1           0        2.157381   -3.888174   -2.845945
     24          1           0        3.245104   -5.964321   -2.688859
     25          1           0       -0.712400   -4.549712    0.880411
 ---------------------------------------------------------------------
                    Distance matrix (angstroms):
                    1          2          3          4          5
     1  N    0.000000
     2  C    1.482527   0.000000
     3  C    2.501947   1.511592   0.000000
     4  C    3.084474   2.497961   1.371836   0.000000
     5  C    4.367556   3.780154   2.397782   1.384062   0.000000
     6  C    5.035179   4.284409   2.773351   2.369377   1.343365
     7  C    4.711779   3.801310   2.402772   2.732116   2.351590
     8  C    3.554224   2.523640   1.384314   2.372455   2.750460
     9  H    1.000572   2.037509   2.717423   2.824280   4.090681
    10  H    1.998508   0.949649   2.024042   2.709602   4.032015
    11  H    2.949759   2.640412   2.017006   0.949529   2.027911
    12  H    4.973127   4.525010   3.249073   2.029294   0.949597
    13  H    5.952938   5.234749   3.723745   3.229126   1.996815
    14  O    2.658477   3.852651   4.970908   5.669206   6.849990
    15  C    2.476851   3.621482   4.418024   5.118717   6.148248
    16  C    1.484199   2.476521   2.985581   3.622736   4.631752
    17  H    1.991073   2.411194   2.698035   3.581838   4.473052
    18  C    2.494223   3.454703   3.424170   3.546071   4.251185
    19  H    2.685473   3.305964   2.893999   2.794867   3.345818
    20  H    2.686318   3.870536   3.996908   3.922472   4.683172
    21  O    3.620974   4.649539   5.232892   5.936395   6.797716
    22  H    1.998300   0.949968   2.024761   3.256736   4.419901
    23  H    3.749130   2.689821   2.036871   3.235174   3.700323
    24  H    5.486185   4.561529   3.259930   3.682186   3.206690
    25  H    3.301273   4.204642   4.091321   4.281808   4.809145
                    6          7          8          9         10
     6  C    0.000000
     7  C    1.373996   0.000000
     8  C    2.405820   1.398578   0.000000
     9  H    4.982640   4.935202   3.954857   0.000000
    10  H    4.676591   4.325493   3.125044   2.288833   0.000000
    11  H    3.218908   3.681518   3.231638   2.419546   2.640857
    12  H    1.992873   3.210348   3.699999   4.531819   4.683733
    13  H    0.950397   2.024872   3.264732   5.860179   5.612080
    14  O    7.370054   6.860762   5.676294   3.208130   4.328348
    15  C    6.539908   6.016017   4.954531   3.062530   4.319114
    16  C    5.058042   4.628718   3.617811   2.039298   3.276973
    17  H    4.655614   4.015307   2.985207   2.694341   3.333064
    18  C    4.764509   4.677180   4.054963   2.444662   4.187389
    19  H    3.885786   3.956192   3.514888   2.506435   4.005803
    20  H    5.387065   5.448619   4.820028   2.360631   4.459186
    21  O    7.029321   6.451459   5.531726   4.168663   5.430975
    22  H    4.687134   3.936431   2.547136   2.800934   1.550662
    23  H    3.261653   2.048434   0.950002   4.349750   3.336362
    24  H    2.021943   0.950090   2.044440   5.791018   5.116269
    25  H    5.131791   4.973282   4.472259   3.369921   5.007739
                   11         12         13         14         15
    11  H    0.000000
    12  H    2.321835   0.000000
    13  H    4.006124   2.290456   0.000000
    14  O    5.533980   7.442966   8.247106   0.000000
    15  C    5.135703   6.767940   7.368327   1.265534   0.000000
    16  C    3.720120   5.271650   5.903004   2.387499   1.518490
    17  H    3.909703   5.225657   5.491736   2.973303   2.016990
    18  C    3.591507   4.700643   5.478196   3.454205   2.492813
    19  H    2.935104   3.777479   4.577093   4.231737   3.309112
    20  H    3.737646   4.992547   6.085836   3.425522   2.707333
    21  O    6.056292   7.418795   7.779505   2.222099   1.245562
    22  H    3.538101   5.243656   5.624522   3.803147   3.583374
    23  H    4.026582   4.649892   4.050829   5.555603   4.863943
    24  H    4.631577   3.994077   2.322599   7.465018   6.566929
    25  H    4.435152   5.261090   5.760009   3.768090   2.637477
                   16         17         18         19         20
    16  C    0.000000
    17  H    0.950060   0.000000
    18  C    1.515607   2.015064   0.000000
    19  H    2.039282   2.291865   0.949562   0.000000
    20  H    2.039786   2.780084   0.950740   1.551237   0.000000
    21  O    2.369902   2.581293   2.914183   3.768736   3.216436
    22  H    2.670653   2.364283   3.888175   3.846912   4.409780
    23  H    3.720762   2.948426   4.418179   4.045556   5.229879
    24  H    5.270631   4.554051   5.344644   4.673200   6.173484
    25  H    2.039263   2.308613   0.949900   1.551428   1.551885
                   21         22         23         24         25
    21  O    0.000000
    22  H    4.522824   0.000000
    23  H    5.375553   2.361575   0.000000
    24  H    6.876290   4.549760   2.349086   0.000000
    25  H    2.622461   4.501496   4.749632   5.513860   0.000000
 Stoichiometry    C10H12NO2(1-)
 Framework group  C1[X(C10H12NO2)]
 Deg. of freedom    69
 Full point group                 C1      NOp   1
 Largest Abelian subgroup         C1      NOp   1
 Largest concise Abelian subgroup C1      NOp   1
                         Standard orientation:                         
 ---------------------------------------------------------------------
 Center     Atomic      Atomic             Coordinates (Angstroms)
 Number     Number       Type             X           Y           Z
 ---------------------------------------------------------------------
      1          7           0        1.065364    1.159917   -0.403884
      2          6           0       -0.079695    1.640810    0.405726
      3          6           0       -1.312959    0.777055    0.271940
      4          6           0       -1.926228    0.641613   -0.947687
      5          6           0       -3.035542   -0.171986   -1.099696
      6          6           0       -3.541076   -0.842400   -0.051073
      7          6           0       -2.949236   -0.727853    1.183621
      8          6           0       -1.831040    0.093738    1.358677
      9          1           0        0.811199    1.192789   -1.371078
     10          1           0       -0.297588    2.521937    0.126491
     11          1           0       -1.584756    1.112243   -1.698361
     12          1           0       -3.443093   -0.256164   -1.953248
     13          1           0       -4.305872   -1.395351   -0.163260
     14          8           0        3.653024    0.755111    0.051795
     15          6           0        2.971255   -0.299977    0.205277
     16          6           0        1.479103   -0.224848   -0.066108
     17          1           0        1.032784   -0.472902    0.735068
     18          6           0        1.083001   -1.225088   -1.133669
     19          1           0        0.139375   -1.218341   -1.239467
     20          1           0        1.495348   -0.989174   -1.957211
     21          8           0        3.438657   -1.394191    0.573593
     22          1           0        0.181724    1.654220    1.318918
     23          1           0       -1.431377    0.181113    2.216078
     24          1           0       -3.301469   -1.209890    1.922703
     25          1           0        1.367230   -2.093652   -0.874593
 ---------------------------------------------------------------------
 Rotational constants (GHZ):           1.8208217           0.4198192           0.4047295
 Leave Link  202 at Mon Mar  6 10:21:52 2023, MaxMem=  1048576000 cpu:               0.0 elap:               0.0
 (Enter /ssoft/spack/external/gaussian/g16-C.01/avx2/g16/l301.exe)
 Standard basis: def2SVP (5D, 7F)
 Ernie: Thresh=  0.10000D-02 Tol=  0.10000D-05 Strict=F.
 There are   255 symmetry adapted cartesian basis functions of A   symmetry.
 There are   242 symmetry adapted basis functions of A   symmetry.
   242 basis functions,   409 primitive gaussians,   255 cartesian basis functions
    48 alpha electrons       48 beta electrons
       nuclear repulsion energy       775.8010041962 Hartrees.
 IExCor= 1009 DFT=T Ex+Corr=PBE1PBE ExCW=0 ScaHFX=  0.250000
 ScaDFX=  0.750000  0.750000  1.000000  1.000000 ScalE2=  1.000000  1.000000
 IRadAn=      5 IRanWt=     -1 IRanGd=            0 ICorTp=0 IEmpDi=141
 NAtoms=   25 NActive=   25 NUniq=   25 SFac= 1.00D+00 NAtFMM=   60 NAOKFM=F Big=F
 Integral buffers will be    131072 words long.
 Raffenetti 2 integral format.
 Two-electron integral symmetry is turned on.
 R6Disp:  Grimme-D3(BJ) Dispersion energy=       -0.0257933166 Hartrees.
 Nuclear repulsion after empirical dispersion term =      775.7752108796 Hartrees.
 Leave Link  301 at Mon Mar  6 10:21:52 2023, MaxMem=  1048576000 cpu:               0.0 elap:               0.0
 (Enter /ssoft/spack/external/gaussian/g16-C.01/avx2/g16/l302.exe)
 NPDir=0 NMtPBC=     1 NCelOv=     1 NCel=       1 NClECP=     1 NCelD=      1
         NCelK=      1 NCelE2=     1 NClLst=     1 CellRange=     0.0.
 One-electron integrals computed using PRISM.
 One-electron integral symmetry used in STVInt
   1 Symmetry operations used in ECPInt.
 ECPInt:  NShTT=    6555 NPrTT=   23641 LenC2=    6312 LenP2D=   17326.
 LDataN:  DoStor=T MaxTD1= 4 Len=   56
 NBasis=   242 RedAO= T EigKep=  2.53D-04  NBF=   242
 NBsUse=   242 1.00D-06 EigRej= -1.00D+00 NBFU=   242
 Precomputing XC quadrature grid using
 IXCGrd= 4 IRadAn=           5 IRanWt=          -1 IRanGd=           0 AccXCQ= 0.00D+00.
 Generated NRdTot=       0 NPtTot=           0 NUsed=           0 NTot=          32
 NSgBfM=   254   254   254   254   254 MxSgAt=    25 MxSgA2=    25.
 Leave Link  302 at Mon Mar  6 10:21:52 2023, MaxMem=  1048576000 cpu:               0.5 elap:               0.5
 (Enter /ssoft/spack/external/gaussian/g16-C.01/avx2/g16/l303.exe)
 DipDrv:  MaxL=1.
 Leave Link  303 at Mon Mar  6 10:21:52 2023, MaxMem=  1048576000 cpu:               0.0 elap:               0.0
 (Enter /ssoft/spack/external/gaussian/g16-C.01/avx2/g16/l401.exe)
 ExpMin= 1.22D-01 ExpMax= 2.27D+03 ExpMxC= 3.41D+02 IAcc=3 IRadAn=         5 AccDes= 0.00D+00
 Harris functional with IExCor= 1009 and IRadAn=       5 diagonalized for initial guess.
 HarFok:  IExCor= 1009 AccDes= 0.00D+00 IRadAn=         5 IDoV= 1 UseB2=F ITyADJ=14
 ICtDFT=  3500011 ScaDFX=  1.000000  1.000000  1.000000  1.000000
 FoFCou: FMM=F IPFlag=           0 FMFlag=      100000 FMFlg1=           0
         NFxFlg=           0 DoJE=T BraDBF=F KetDBF=T FulRan=T
         wScrn=  0.000000 ICntrl=       500 IOpCl=  0 I1Cent=   200000004 NGrid=           0
         NMat0=    1 NMatS0=      1 NMatT0=    0 NMatD0=    1 NMtDS0=    0 NMtDT0=    0
 Petite list used in FoFCou.
 Harris En= -592.705830510748    
 JPrj=0 DoOrth=F DoCkMO=F.
 Leave Link  401 at Mon Mar  6 10:21:57 2023, MaxMem=  1048576000 cpu:               4.4 elap:               4.4
 (Enter /ssoft/spack/external/gaussian/g16-C.01/avx2/g16/l502.exe)
 Keep R1 ints in memory in canonical form, NReq=440673653.
 FoFCou: FMM=F IPFlag=           0 FMFlag=           0 FMFlg1=           0
         NFxFlg=           0 DoJE=F BraDBF=F KetDBF=F FulRan=T
         wScrn=  0.000000 ICntrl=       600 IOpCl=  0 I1Cent=           0 NGrid=           0
         NMat0=    1 NMatS0=  29403 NMatT0=    0 NMatD0=    1 NMtDS0=    0 NMtDT0=    0
 Symmetry not used in FoFCou.
 Two-electron integral symmetry not used.
 Closed shell SCF:
 Using DIIS extrapolation, IDIIS=  1040.
 NGot=  1048576000 LenX=   616158112 LenY=   616092646
 Requested convergence on RMS density matrix=1.00D-08 within 128 cycles.
 Requested convergence on MAX density matrix=1.00D-06.
 Requested convergence on             energy=1.00D-06.
 No special actions if energy rises.
 Integral accuracy reduced to 1.0D-05 until final iterations.

 Cycle   1  Pass 0  IDiag  1:
 E= -591.802966105734    
 DIIS: error= 4.03D-02 at cycle   1 NSaved=   1.
 NSaved= 1 IEnMin= 1 EnMin= -591.802966105734     IErMin= 1 ErrMin= 4.03D-02
 ErrMax= 4.03D-02  0.00D+00 EMaxC= 1.00D-01 BMatC= 4.14D-01 BMatP= 4.14D-01
 IDIUse=3 WtCom= 5.97D-01 WtEn= 4.03D-01
 Coeff-Com:  0.100D+01
 Coeff-En:   0.100D+01
 Coeff:      0.100D+01
 Gap=     0.140 Goal=   None    Shift=    0.000
 GapD=    0.140 DampG=1.000 DampE=0.500 DampFc=0.5000 IDamp=-1.
 Damping current iteration by 5.00D-01
 RMSDP=1.10D-02 MaxDP=5.54D-01              OVMax= 9.08D-01

 Cycle   2  Pass 0  IDiag  1:
 E= -591.755003940055     Delta-E=        0.047962165679 Rises=F Damp=T
 DIIS: error= 2.05D-02 at cycle   2 NSaved=   2.
 NSaved= 2 IEnMin= 1 EnMin= -591.802966105734     IErMin= 2 ErrMin= 2.05D-02
 ErrMax= 2.05D-02  0.00D+00 EMaxC= 1.00D-01 BMatC= 1.11D-01 BMatP= 4.14D-01
 IDIUse=3 WtCom= 7.95D-01 WtEn= 2.05D-01
 Coeff-Com:  0.244D+00 0.756D+00
 Coeff-En:   0.554D+00 0.446D+00
 Coeff:      0.308D+00 0.692D+00
 Gap=    -0.116 Goal=   None    Shift=    0.000
 RMSDP=4.99D-03 MaxDP=1.89D-01 DE= 4.80D-02 OVMax= 6.19D-01

 Cycle   3  Pass 0  IDiag  1:
 E= -592.040825001659     Delta-E=       -0.285821061604 Rises=F Damp=F
 DIIS: error= 2.05D-02 at cycle   3 NSaved=   3.
 NSaved= 3 IEnMin= 3 EnMin= -592.040825001659     IErMin= 3 ErrMin= 2.05D-02
 ErrMax= 2.05D-02  0.00D+00 EMaxC= 1.00D-01 BMatC= 1.77D-01 BMatP= 1.11D-01
 IDIUse=2 WtCom= 0.00D+00 WtEn= 1.00D+00
 Coeff-En:   0.000D+00 0.216D+00 0.784D+00
 Coeff:      0.000D+00 0.216D+00 0.784D+00
 Gap=     0.479 Goal=   None    Shift=    0.000
 RMSDP=6.91D-03 MaxDP=3.11D-01 DE=-2.86D-01 OVMax= 9.92D-01

 Cycle   4  Pass 0  IDiag  1:
 E= -590.334399502719     Delta-E=        1.706425498940 Rises=F Damp=F
 DIIS: error= 7.31D-02 at cycle   4 NSaved=   4.
 NSaved= 4 IEnMin= 3 EnMin= -592.040825001659     IErMin= 3 ErrMin= 2.05D-02
 ErrMax= 7.31D-02  0.00D+00 EMaxC= 1.00D-01 BMatC= 1.06D+00 BMatP= 1.11D-01
 IDIUse=2 WtCom= 0.00D+00 WtEn= 1.00D+00
 Coeff-En:   0.000D+00 0.000D+00 0.844D+00 0.156D+00
 Coeff:      0.000D+00 0.000D+00 0.844D+00 0.156D+00
 Gap=     0.019 Goal=   None    Shift=    0.000
 RMSDP=6.27D-03 MaxDP=2.31D-01 DE= 1.71D+00 OVMax= 9.78D-01

 Cycle   5  Pass 0  IDiag  1:
 E= -592.191509613700     Delta-E=       -1.857110110981 Rises=F Damp=F
 DIIS: error= 6.44D-03 at cycle   5 NSaved=   5.
 NSaved= 5 IEnMin= 5 EnMin= -592.191509613700     IErMin= 5 ErrMin= 6.44D-03
 ErrMax= 6.44D-03  0.00D+00 EMaxC= 1.00D-01 BMatC= 3.01D-02 BMatP= 1.11D-01
 IDIUse=3 WtCom= 9.36D-01 WtEn= 6.44D-02
 Coeff-Com:  0.497D-02 0.119D+00 0.324D+00 0.254D-01 0.527D+00
 Coeff-En:   0.000D+00 0.000D+00 0.607D-01 0.000D+00 0.939D+00
 Coeff:      0.465D-02 0.111D+00 0.307D+00 0.238D-01 0.553D+00
 Gap=     0.117 Goal=   None    Shift=    0.000
 RMSDP=1.18D-03 MaxDP=3.64D-02 DE=-1.86D+00 OVMax= 4.11D-02

 Cycle   6  Pass 0  IDiag  1:
 E= -592.212740200254     Delta-E=       -0.021230586553 Rises=F Damp=F
 DIIS: error= 5.10D-03 at cycle   6 NSaved=   6.
 NSaved= 6 IEnMin= 6 EnMin= -592.212740200254     IErMin= 6 ErrMin= 5.10D-03
 ErrMax= 5.10D-03  0.00D+00 EMaxC= 1.00D-01 BMatC= 6.47D-03 BMatP= 3.01D-02
 IDIUse=3 WtCom= 9.49D-01 WtEn= 5.10D-02
 Coeff-Com: -0.319D-01 0.674D-01 0.455D-01-0.314D-02 0.292D+00 0.631D+00
 Coeff-En:   0.000D+00 0.000D+00 0.000D+00 0.000D+00 0.133D+00 0.867D+00
 Coeff:     -0.303D-01 0.640D-01 0.432D-01-0.298D-02 0.284D+00 0.643D+00
 Gap=     0.097 Goal=   None    Shift=    0.000
 RMSDP=4.72D-04 MaxDP=2.21D-02 DE=-2.12D-02 OVMax= 2.35D-02

 Cycle   7  Pass 0  IDiag  1:
 E= -592.218194906175     Delta-E=       -0.005454705921 Rises=F Damp=F
 DIIS: error= 8.62D-04 at cycle   7 NSaved=   7.
 NSaved= 7 IEnMin= 7 EnMin= -592.218194906175     IErMin= 7 ErrMin= 8.62D-04
 ErrMax= 8.62D-04  0.00D+00 EMaxC= 1.00D-01 BMatC= 2.25D-04 BMatP= 6.47D-03
 IDIUse=3 WtCom= 9.91D-01 WtEn= 8.62D-03
 Coeff-Com: -0.125D-01 0.235D-01-0.273D-01-0.270D-02 0.364D-01 0.263D+00
 Coeff-Com:  0.720D+00
 Coeff-En:   0.000D+00 0.000D+00 0.000D+00 0.000D+00 0.000D+00 0.000D+00
 Coeff-En:   0.100D+01
 Coeff:     -0.124D-01 0.233D-01-0.271D-01-0.267D-02 0.361D-01 0.260D+00
 Coeff:      0.722D+00
 Gap=     0.093 Goal=   None    Shift=    0.000
 RMSDP=1.46D-04 MaxDP=6.40D-03 DE=-5.45D-03 OVMax= 5.01D-03

 Cycle   8  Pass 0  IDiag  1:
 E= -592.218417236854     Delta-E=       -0.000222330680 Rises=F Damp=F
 DIIS: error= 6.46D-04 at cycle   8 NSaved=   8.
 NSaved= 8 IEnMin= 8 EnMin= -592.218417236854     IErMin= 8 ErrMin= 6.46D-04
 ErrMax= 6.46D-04  0.00D+00 EMaxC= 1.00D-01 BMatC= 6.54D-05 BMatP= 2.25D-04
 IDIUse=3 WtCom= 9.94D-01 WtEn= 6.46D-03
 Coeff-Com: -0.443D-02 0.219D-02-0.256D-01 0.944D-03-0.166D-01 0.802D-01
 Coeff-Com:  0.405D+00 0.558D+00
 Coeff-En:   0.000D+00 0.000D+00 0.000D+00 0.000D+00 0.000D+00 0.000D+00
 Coeff-En:   0.000D+00 0.100D+01
 Coeff:     -0.440D-02 0.218D-02-0.255D-01 0.938D-03-0.165D-01 0.797D-01
 Coeff:      0.403D+00 0.561D+00
 Gap=     0.093 Goal=   None    Shift=    0.000
 RMSDP=4.44D-05 MaxDP=1.25D-03 DE=-2.22D-04 OVMax= 2.57D-03

 Cycle   9  Pass 0  IDiag  1:
 E= -592.218474109168     Delta-E=       -0.000056872314 Rises=F Damp=F
 DIIS: error= 1.10D-04 at cycle   9 NSaved=   9.
 NSaved= 9 IEnMin= 9 EnMin= -592.218474109168     IErMin= 9 ErrMin= 1.10D-04
 ErrMax= 1.10D-04  0.00D+00 EMaxC= 1.00D-01 BMatC= 2.94D-06 BMatP= 6.54D-05
 IDIUse=3 WtCom= 9.99D-01 WtEn= 1.10D-03
 Coeff-Com: -0.105D-02 0.270D-03-0.766D-02 0.509D-03-0.690D-02 0.111D-01
 Coeff-Com:  0.843D-01 0.194D+00 0.725D+00
 Coeff-En:   0.000D+00 0.000D+00 0.000D+00 0.000D+00 0.000D+00 0.000D+00
 Coeff-En:   0.000D+00 0.000D+00 0.100D+01
 Coeff:     -0.105D-02 0.270D-03-0.766D-02 0.509D-03-0.689D-02 0.111D-01
 Coeff:      0.842D-01 0.194D+00 0.726D+00
 Gap=     0.092 Goal=   None    Shift=    0.000
 RMSDP=1.47D-05 MaxDP=3.29D-04 DE=-5.69D-05 OVMax= 9.43D-04

 Cycle  10  Pass 0  IDiag  1:
 E= -592.218476627175     Delta-E=       -0.000002518007 Rises=F Damp=F
 DIIS: error= 7.47D-05 at cycle  10 NSaved=  10.
 NSaved=10 IEnMin=10 EnMin= -592.218476627175     IErMin=10 ErrMin= 7.47D-05
 ErrMax= 7.47D-05  0.00D+00 EMaxC= 1.00D-01 BMatC= 1.16D-06 BMatP= 2.94D-06
 IDIUse=1 WtCom= 1.00D+00 WtEn= 0.00D+00
 Coeff-Com:  0.600D-04 0.282D-03-0.125D-02 0.286D-04-0.257D-02-0.702D-02
 Coeff-Com: -0.842D-02 0.339D-01 0.459D+00 0.526D+00
 Coeff:      0.600D-04 0.282D-03-0.125D-02 0.286D-04-0.257D-02-0.702D-02
 Coeff:     -0.842D-02 0.339D-01 0.459D+00 0.526D+00
 Gap=     0.092 Goal=   None    Shift=    0.000
 RMSDP=7.61D-06 MaxDP=2.61D-04 DE=-2.52D-06 OVMax= 3.89D-04

 Initial convergence to 1.0D-05 achieved.  Increase integral accuracy.
 Cycle  11  Pass 1  IDiag  1:
 E= -592.218464591138     Delta-E=        0.000012036037 Rises=F Damp=F
 DIIS: error= 8.70D-06 at cycle   1 NSaved=   1.
 NSaved= 1 IEnMin= 1 EnMin= -592.218464591138     IErMin= 1 ErrMin= 8.70D-06
 ErrMax= 8.70D-06  0.00D+00 EMaxC= 1.00D-01 BMatC= 3.20D-08 BMatP= 3.20D-08
 IDIUse=1 WtCom= 1.00D+00 WtEn= 0.00D+00
 Coeff-Com:  0.100D+01
 Coeff:      0.100D+01
 Gap=     0.092 Goal=   None    Shift=    0.000
 RMSDP=7.61D-06 MaxDP=2.61D-04 DE= 1.20D-05 OVMax= 1.70D-04

 Cycle  12  Pass 1  IDiag  1:
 E= -592.218464566424     Delta-E=        0.000000024714 Rises=F Damp=F
 DIIS: error= 1.74D-05 at cycle   2 NSaved=   2.
 NSaved= 2 IEnMin= 1 EnMin= -592.218464591138     IErMin= 1 ErrMin= 8.70D-06
 ErrMax= 1.74D-05  0.00D+00 EMaxC= 1.00D-01 BMatC= 7.77D-08 BMatP= 3.20D-08
 IDIUse=1 WtCom= 1.00D+00 WtEn= 0.00D+00
 Coeff-Com:  0.618D+00 0.382D+00
 Coeff:      0.618D+00 0.382D+00
 Gap=     0.092 Goal=   None    Shift=    0.000
 RMSDP=1.46D-06 MaxDP=5.95D-05 DE= 2.47D-08 OVMax= 9.33D-05

 Cycle  13  Pass 1  IDiag  1:
 E= -592.218464630742     Delta-E=       -0.000000064318 Rises=F Damp=F
 DIIS: error= 4.35D-06 at cycle   3 NSaved=   3.
 NSaved= 3 IEnMin= 3 EnMin= -592.218464630742     IErMin= 3 ErrMin= 4.35D-06
 ErrMax= 4.35D-06  0.00D+00 EMaxC= 1.00D-01 BMatC= 2.60D-09 BMatP= 3.20D-08
 IDIUse=1 WtCom= 1.00D+00 WtEn= 0.00D+00
 Coeff-Com:  0.211D+00 0.183D+00 0.606D+00
 Coeff:      0.211D+00 0.183D+00 0.606D+00
 Gap=     0.092 Goal=   None    Shift=    0.000
 RMSDP=4.19D-07 MaxDP=1.38D-05 DE=-6.43D-08 OVMax= 2.82D-05

 Cycle  14  Pass 1  IDiag  1:
 E= -592.218464632505     Delta-E=       -0.000000001763 Rises=F Damp=F
 DIIS: error= 2.03D-06 at cycle   4 NSaved=   4.
 NSaved= 4 IEnMin= 4 EnMin= -592.218464632505     IErMin= 4 ErrMin= 2.03D-06
 ErrMax= 2.03D-06  0.00D+00 EMaxC= 1.00D-01 BMatC= 8.13D-10 BMatP= 2.60D-09
 IDIUse=1 WtCom= 1.00D+00 WtEn= 0.00D+00
 Coeff-Com:  0.141D-01 0.324D-01 0.379D+00 0.575D+00
 Coeff:      0.141D-01 0.324D-01 0.379D+00 0.575D+00
 Gap=     0.092 Goal=   None    Shift=    0.000
 RMSDP=1.90D-07 MaxDP=6.04D-06 DE=-1.76D-09 OVMax= 1.02D-05

 Cycle  15  Pass 1  IDiag  1:
 E= -592.218464633139     Delta-E=       -0.000000000633 Rises=F Damp=F
 DIIS: error= 4.64D-07 at cycle   5 NSaved=   5.
 NSaved= 5 IEnMin= 5 EnMin= -592.218464633139     IErMin= 5 ErrMin= 4.64D-07
 ErrMax= 4.64D-07  0.00D+00 EMaxC= 1.00D-01 BMatC= 6.89D-11 BMatP= 8.13D-10
 IDIUse=1 WtCom= 1.00D+00 WtEn= 0.00D+00
 Coeff-Com: -0.119D-01-0.155D-02 0.152D+00 0.309D+00 0.553D+00
 Coeff:     -0.119D-01-0.155D-02 0.152D+00 0.309D+00 0.553D+00
 Gap=     0.092 Goal=   None    Shift=    0.000
 RMSDP=5.90D-08 MaxDP=1.51D-06 DE=-6.33D-10 OVMax= 3.47D-06

 Cycle  16  Pass 1  IDiag  1:
 E= -592.218464633213     Delta-E=       -0.000000000075 Rises=F Damp=F
 DIIS: error= 1.26D-07 at cycle   6 NSaved=   6.
 NSaved= 6 IEnMin= 6 EnMin= -592.218464633213     IErMin= 6 ErrMin= 1.26D-07
 ErrMax= 1.26D-07  0.00D+00 EMaxC= 1.00D-01 BMatC= 6.35D-12 BMatP= 6.89D-11
 IDIUse=1 WtCom= 1.00D+00 WtEn= 0.00D+00
 Coeff-Com: -0.795D-02-0.480D-02 0.360D-01 0.863D-01 0.281D+00 0.609D+00
 Coeff:     -0.795D-02-0.480D-02 0.360D-01 0.863D-01 0.281D+00 0.609D+00
 Gap=     0.092 Goal=   None    Shift=    0.000
 RMSDP=2.04D-08 MaxDP=3.38D-07 DE=-7.48D-11 OVMax= 1.49D-06

 Cycle  17  Pass 1  IDiag  1:
 E= -592.218464633219     Delta-E=       -0.000000000006 Rises=F Damp=F
 DIIS: error= 3.50D-08 at cycle   7 NSaved=   7.
 NSaved= 7 IEnMin= 7 EnMin= -592.218464633219     IErMin= 7 ErrMin= 3.50D-08
 ErrMax= 3.50D-08  0.00D+00 EMaxC= 1.00D-01 BMatC= 5.28D-13 BMatP= 6.35D-12
 IDIUse=1 WtCom= 1.00D+00 WtEn= 0.00D+00
 Coeff-Com: -0.222D-02-0.196D-02-0.191D-03 0.392D-02 0.736D-01 0.276D+00
 Coeff-Com:  0.651D+00
 Coeff:     -0.222D-02-0.196D-02-0.191D-03 0.392D-02 0.736D-01 0.276D+00
 Coeff:      0.651D+00
 Gap=     0.092 Goal=   None    Shift=    0.000
 RMSDP=7.00D-09 MaxDP=1.35D-07 DE=-5.91D-12 OVMax= 6.19D-07

 SCF Done:  E(RPBE1PBE) =  -592.218464633     A.U. after   17 cycles
            NFock= 17  Conv=0.70D-08     -V/T= 2.0041
 KE= 5.898104584627D+02 PE=-2.948284075433D+03 EE= 9.904799414578D+02
 Leave Link  502 at Mon Mar  6 10:23:29 2023, MaxMem=  1048576000 cpu:              92.0 elap:              92.7
 (Enter /ssoft/spack/external/gaussian/g16-C.01/avx2/g16/l801.exe)
 DoSCS=F DFT=T ScalE2(SS,OS)=  1.000000  1.000000
 Range of M.O.s used for correlation:     1   242
 NBasis=   242 NAE=    48 NBE=    48 NFC=     0 NFV=     0
 NROrb=    242 NOA=    48 NOB=    48 NVA=   194 NVB=   194

 **** Warning!!: The largest alpha MO coefficient is  0.13765526D+02


 **** Warning!!: The smallest alpha delta epsilon is  0.92201961D-01

 Leave Link  801 at Mon Mar  6 10:23:30 2023, MaxMem=  1048576000 cpu:               0.0 elap:               0.0
 (Enter /ssoft/spack/external/gaussian/g16-C.01/avx2/g16/l1101.exe)
 Using compressed storage, NAtomX=    25.
 Will process     26 centers per pass.
   1 Symmetry operations used in ECPInt.
 ECPInt:  NShTT=    6555 NPrTT=   23641 LenC2=    6312 LenP2D=   17326.
 LDataN:  DoStor=T MaxTD1= 5 Len=  102
 R6Disp: Adding Grimme-D3(BJ) dispersion energy 1st derivatives to the gradient.
 Leave Link 1101 at Mon Mar  6 10:23:30 2023, MaxMem=  1048576000 cpu:               0.2 elap:               0.3
 (Enter /ssoft/spack/external/gaussian/g16-C.01/avx2/g16/l1102.exe)
 Symmetrizing basis deriv contribution to polar:
 IMax=3 JMax=2 DiffMx= 0.00D+00
 Leave Link 1102 at Mon Mar  6 10:23:30 2023, MaxMem=  1048576000 cpu:               0.1 elap:               0.0
 (Enter /ssoft/spack/external/gaussian/g16-C.01/avx2/g16/l1110.exe)
 Forming Gx(P) for the SCF density, NAtomX=    25.
 Integral derivatives from FoFJK, PRISM(SPDF).
 Do as many integral derivatives as possible in FoFJK.
 G2DrvN: MDV=    1048573289.
 G2DrvN: will do    26 centers at a time, making    1 passes.
 Calling FoFCou, ICntrl=  3107 FMM=F I1Cent=   0 AccDes= 0.00D+00.
 FoFJK:  IHMeth= 1 ICntrl=    3107 DoSepK=F KAlg= 0 I1Cent=           0 FoldK=F
 IRaf=         0 NMat=       1 IRICut=       1 DoRegI=T DoRafI=F ISym2E= 0 IDoP0=0 IntGTp=1.
 FoFCou: FMM=F IPFlag=           0 FMFlag=      100000 FMFlg1=           0
         NFxFlg=           0 DoJE=F BraDBF=F KetDBF=F FulRan=T
         wScrn=  0.000000 ICntrl=      3107 IOpCl=  0 I1Cent=           0 NGrid=           0
         NMat0=    1 NMatS0=      1 NMatT0=    0 NMatD0=    1 NMtDS0=    0 NMtDT0=    0
 Symmetry not used in FoFCou.
 End of G2Drv F.D. properties file   721 does not exist.
 End of G2Drv F.D. properties file   722 does not exist.
 End of G2Drv F.D. properties file   788 does not exist.
 Leave Link 1110 at Mon Mar  6 10:28:19 2023, MaxMem=  1048576000 cpu:             288.0 elap:             289.2
 (Enter /ssoft/spack/external/gaussian/g16-C.01/avx2/g16/l1002.exe)
 Minotr:  Closed shell wavefunction.
          IDoAtm=1111111111111111111111111
          Direct CPHF calculation.
          Differentiating once with respect to electric field.
                with respect to dipole field.
          Differentiating once with respect to nuclear coordinates.
          Requested convergence is 1.0D-08 RMS, and 1.0D-07 maximum.
          Secondary convergence is 1.0D-12 RMS, and 1.0D-12 maximum.
          NewPWx=T KeepS1=F KeepF1=F KeepIn=T MapXYZ=F SortEE=F KeepMc=T.
         7458 words used for storage of precomputed grid.
 Keep R1 ints in memory in canonical form, NReq=440684141.
 FoFCou: FMM=F IPFlag=           0 FMFlag=           0 FMFlg1=           0
         NFxFlg=           0 DoJE=F BraDBF=F KetDBF=F FulRan=T
         wScrn=  0.000000 ICntrl=       600 IOpCl=  0 I1Cent=           0 NGrid=           0
         NMat0=    1 NMatS0=  29403 NMatT0=    0 NMatD0=    1 NMtDS0=    0 NMtDT0=    0
 Symmetry not used in FoFCou.
 Two-electron integral symmetry not used.
          MDV=    1048576000 using IRadAn=       1.
          Solving linear equations simultaneously, MaxMat=       0.
          There are    78 degrees of freedom in the 1st order CPHF.  IDoFFX=6 NUNeed=     3.
     75 vectors produced by pass  0 Test12= 1.19D-14 1.28D-09 XBig12= 1.45D+02 6.14D+00.
 AX will form    75 AO Fock derivatives at one time.
     75 vectors produced by pass  1 Test12= 1.19D-14 1.28D-09 XBig12= 1.64D+01 8.63D-01.
     75 vectors produced by pass  2 Test12= 1.19D-14 1.28D-09 XBig12= 1.81D-01 8.35D-02.
     75 vectors produced by pass  3 Test12= 1.19D-14 1.28D-09 XBig12= 6.40D-04 3.82D-03.
     75 vectors produced by pass  4 Test12= 1.19D-14 1.28D-09 XBig12= 2.13D-06 1.63D-04.
     69 vectors produced by pass  5 Test12= 1.19D-14 1.28D-09 XBig12= 3.39D-09 5.96D-06.
     20 vectors produced by pass  6 Test12= 1.19D-14 1.28D-09 XBig12= 3.97D-12 2.58D-07.
      3 vectors produced by pass  7 Test12= 1.19D-14 1.28D-09 XBig12= 4.17D-15 8.08D-09.
 InvSVY:  IOpt=1 It=  1 EMax= 5.33D-15
 Solved reduced A of dimension   467 with    78 vectors.
 FullF1:  Do perturbations      1 to       3.
 Isotropic polarizability for W=    0.000000      108.37 Bohr**3.
 End of Minotr F.D. properties file   721 does not exist.
 End of Minotr F.D. properties file   722 does not exist.
 End of Minotr F.D. properties file   788 does not exist.
 Leave Link 1002 at Mon Mar  6 10:32:51 2023, MaxMem=  1048576000 cpu:             270.3 elap:             271.8
 (Enter /ssoft/spack/external/gaussian/g16-C.01/avx2/g16/l601.exe)
 Copying SCF densities to generalized density rwf, IOpCl= 0 IROHF=0.

 **********************************************************************

            Population analysis using the SCF Density.

 **********************************************************************

 Orbital symmetries:
       Occupied  (A) (A) (A) (A) (A) (A) (A) (A) (A) (A) (A) (A)
                 (A) (A) (A) (A) (A) (A) (A) (A) (A) (A) (A) (A)
                 (A) (A) (A) (A) (A) (A) (A) (A) (A) (A) (A) (A)
                 (A) (A) (A) (A) (A) (A) (A) (A) (A) (A) (A) (A)
       Virtual   (A) (A) (A) (A) (A) (A) (A) (A) (A) (A) (A) (A)
                 (A) (A) (A) (A) (A) (A) (A) (A) (A) (A) (A) (A)
                 (A) (A) (A) (A) (A) (A) (A) (A) (A) (A) (A) (A)
                 (A) (A) (A) (A) (A) (A) (A) (A) (A) (A) (A) (A)
                 (A) (A) (A) (A) (A) (A) (A) (A) (A) (A) (A) (A)
                 (A) (A) (A) (A) (A) (A) (A) (A) (A) (A) (A) (A)
                 (A) (A) (A) (A) (A) (A) (A) (A) (A) (A) (A) (A)
                 (A) (A) (A) (A) (A) (A) (A) (A) (A) (A) (A) (A)
                 (A) (A) (A) (A) (A) (A) (A) (A) (A) (A) (A) (A)
                 (A) (A) (A) (A) (A) (A) (A) (A) (A) (A) (A) (A)
                 (A) (A) (A) (A) (A) (A) (A) (A) (A) (A) (A) (A)
                 (A) (A) (A) (A) (A) (A) (A) (A) (A) (A) (A) (A)
                 (A) (A) (A) (A) (A) (A) (A) (A) (A) (A) (A) (A)
                 (A) (A) (A) (A) (A) (A) (A) (A) (A) (A) (A) (A)
                 (A) (A) (A) (A) (A) (A) (A) (A) (A) (A) (A) (A)
                 (A) (A) (A) (A) (A) (A) (A) (A) (A) (A) (A) (A)
                 (A) (A)
 The electronic state is 1-A.
 Alpha  occ. eigenvalues --  -18.91664 -18.90797 -14.22249 -10.12978 -10.12761
 Alpha  occ. eigenvalues --  -10.12383 -10.12196 -10.12142 -10.11937 -10.10704
 Alpha  occ. eigenvalues --  -10.08063 -10.06355 -10.02908  -0.81362  -0.79782
 Alpha  occ. eigenvalues --   -0.76995  -0.70929  -0.68951  -0.68118  -0.63833
 Alpha  occ. eigenvalues --   -0.58176  -0.55282  -0.52193  -0.50002  -0.46553
 Alpha  occ. eigenvalues --   -0.40492  -0.39460  -0.37357  -0.35740  -0.34804
 Alpha  occ. eigenvalues --   -0.33897  -0.32045  -0.29543  -0.29149  -0.27523
 Alpha  occ. eigenvalues --   -0.26697  -0.26124  -0.25434  -0.23484  -0.21018
 Alpha  occ. eigenvalues --   -0.17723  -0.17226  -0.16613  -0.15688  -0.08781
 Alpha  occ. eigenvalues --   -0.02715  -0.02528  -0.00394
 Alpha virt. eigenvalues --    0.08826   0.10128   0.17934   0.19971   0.21011
 Alpha virt. eigenvalues --    0.23104   0.23830   0.24627   0.25427   0.26700
 Alpha virt. eigenvalues --    0.28814   0.29952   0.29994   0.31015   0.32353
 Alpha virt. eigenvalues --    0.33601   0.36010   0.36864   0.39820   0.40404
 Alpha virt. eigenvalues --    0.41124   0.42287   0.44166   0.44575   0.47455
 Alpha virt. eigenvalues --    0.49176   0.51963   0.53510   0.54336   0.55674
 Alpha virt. eigenvalues --    0.57682   0.59698   0.60815   0.61745   0.62682
 Alpha virt. eigenvalues --    0.62994   0.63598   0.64924   0.66562   0.68111
 Alpha virt. eigenvalues --    0.69289   0.70409   0.72546   0.74154   0.75641
 Alpha virt. eigenvalues --    0.78162   0.79267   0.79533   0.81666   0.82068
 Alpha virt. eigenvalues --    0.82279   0.82622   0.83156   0.84325   0.84876
 Alpha virt. eigenvalues --    0.86211   0.87597   0.87714   0.88167   0.89328
 Alpha virt. eigenvalues --    0.90342   0.91399   0.91664   0.92480   0.93090
 Alpha virt. eigenvalues --    0.94350   0.95683   0.96882   0.97609   1.01784
 Alpha virt. eigenvalues --    1.02464   1.03873   1.07069   1.09201   1.11455
 Alpha virt. eigenvalues --    1.12808   1.15349   1.17745   1.19197   1.20969
 Alpha virt. eigenvalues --    1.22670   1.24819   1.29750   1.31815   1.33738
 Alpha virt. eigenvalues --    1.35394   1.36045   1.37204   1.40316   1.40614
 Alpha virt. eigenvalues --    1.41501   1.42803   1.43375   1.44143   1.46273
 Alpha virt. eigenvalues --    1.54121   1.56212   1.57808   1.62684   1.65610
 Alpha virt. eigenvalues --    1.66877   1.69314   1.72508   1.76848   1.81948
 Alpha virt. eigenvalues --    1.83743   1.85333   1.86100   1.86797   1.87545
 Alpha virt. eigenvalues --    1.89944   1.90866   1.90977   1.93309   1.94475
 Alpha virt. eigenvalues --    1.94801   1.94939   1.99011   1.99974   2.01777
 Alpha virt. eigenvalues --    2.02287   2.04034   2.05345   2.06783   2.07509
 Alpha virt. eigenvalues --    2.10985   2.11975   2.14734   2.15885   2.18814
 Alpha virt. eigenvalues --    2.20722   2.22118   2.23333   2.25040   2.26121
 Alpha virt. eigenvalues --    2.27102   2.30321   2.31203   2.32463   2.33706
 Alpha virt. eigenvalues --    2.34902   2.37812   2.40472   2.42538   2.43173
 Alpha virt. eigenvalues --    2.44036   2.45205   2.50665   2.53794   2.55604
 Alpha virt. eigenvalues --    2.56980   2.58047   2.60617   2.64468   2.67745
 Alpha virt. eigenvalues --    2.70920   2.75138   2.80122   2.80966   2.81584
 Alpha virt. eigenvalues --    2.84969   2.87660   2.92816   2.93206   2.94061
 Alpha virt. eigenvalues --    2.95757   2.96570   3.01729   3.02753   3.05006
 Alpha virt. eigenvalues --    3.09037   3.14795   3.15907   3.22148   3.23451
 Alpha virt. eigenvalues --    3.24838   3.25213   3.29246   3.36102   3.37421
 Alpha virt. eigenvalues --    3.40040   3.44520   3.45579   3.48599   3.49580
 Alpha virt. eigenvalues --    3.52229   3.55354   3.59497   3.60458   3.64181
 Alpha virt. eigenvalues --    3.65760   3.88425   3.95231   4.04278
     Molecular Orbital Coefficients:
                          44        45        46        47        48
                           O         O         O         O         O
     Eigenvalues --    -0.15688  -0.08781  -0.02715  -0.02528  -0.00394
   1 1   N  1S         -0.00114  -0.06608  -0.00580  -0.02093   0.03259
   2        2S         -0.00508  -0.15515  -0.00582  -0.03583   0.07520
   3        3S          0.03171  -0.07427  -0.07721  -0.15404   0.13325
   4        4PX         0.02277   0.37930   0.02934   0.09317  -0.09390
   5        4PY         0.01581   0.33736   0.01056   0.02946  -0.02857
   6        4PZ        -0.03608   0.07364   0.00157   0.03107  -0.02920
   7        5PX        -0.02130  -0.30277  -0.04331  -0.11480   0.03884
   8        5PY        -0.01687  -0.29827   0.00759  -0.00384   0.01116
   9        5PZ         0.02159  -0.03662  -0.00780  -0.02945   0.02024
  10        6D 0       -0.00351  -0.00726  -0.00043  -0.00002   0.00253
  11        6D+1       -0.00186   0.00410  -0.00098   0.00260  -0.00146
  12        6D-1        0.00453   0.00278   0.00021   0.00084  -0.00051
  13        6D+2        0.00029   0.00488   0.00176   0.00432  -0.00550
  14        6D-2       -0.00025   0.01247  -0.00149  -0.00277  -0.00324
  15 2   C  1S         -0.00923  -0.01707  -0.00696  -0.01055   0.00619
  16        2S          0.02761   0.02479   0.01438   0.02363  -0.01268
  17        3S         -0.02864   0.09506   0.09221   0.04704  -0.03213
  18        4PX         0.02824   0.09395   0.01970   0.02942  -0.02699
  19        4PY        -0.01716   0.03603  -0.00981  -0.01659   0.00655
  20        4PZ        -0.01648  -0.00842  -0.00878  -0.01270   0.01552
  21        5PX         0.02004  -0.07006  -0.01332  -0.01882   0.00340
  22        5PY         0.01845  -0.03077  -0.01753  -0.01379   0.03345
  23        5PZ        -0.01587  -0.01064   0.01142  -0.03416   0.03489
  24        6D 0       -0.00022   0.01302   0.00143   0.00492  -0.00452
  25        6D+1       -0.00083   0.00147  -0.00001  -0.00026   0.00013
  26        6D-1        0.00158   0.00986   0.00078   0.00220  -0.00215
  27        6D+2        0.00047  -0.01754  -0.00029  -0.00161   0.00499
  28        6D-2        0.00029  -0.01491  -0.00041  -0.00099   0.00217
  29 3   C  1S         -0.00130   0.03813   0.00163   0.00504  -0.00860
  30        2S          0.00523  -0.09774  -0.00101  -0.01142   0.02243
  31        3S          0.01734  -0.21834  -0.04018  -0.08178   0.08578
  32        4PX         0.00880  -0.14063  -0.00500  -0.01554   0.01686
  33        4PY        -0.01819  -0.06918  -0.00784  -0.01608   0.02524
  34        4PZ         0.00173   0.00525  -0.00005   0.00113   0.00280
  35        5PX         0.02463  -0.12661  -0.03317  -0.02008   0.01252
  36        5PY        -0.00408  -0.10048  -0.02797  -0.03044   0.02527
  37        5PZ         0.01177  -0.01937  -0.01088   0.01190   0.02336
  38        6D 0       -0.00004   0.00046   0.00029   0.00035   0.00033
  39        6D+1       -0.00047  -0.00368  -0.00041  -0.00122   0.00098
  40        6D-1       -0.00097  -0.00172  -0.00054  -0.00029   0.00046
  41        6D+2        0.00063   0.00522   0.00076   0.00171  -0.00240
  42        6D-2        0.00051  -0.00337   0.00010   0.00086   0.00102
  43 4   C  1S         -0.00041   0.00138  -0.00004   0.00177  -0.00141
  44        2S         -0.00073  -0.01099  -0.00200  -0.00292   0.00436
  45        3S          0.01618  -0.03453  -0.01124  -0.02820   0.00327
  46        4PX        -0.00153  -0.02972  -0.00126  -0.00373   0.01455
  47        4PY         0.00421   0.04546   0.00205  -0.00008  -0.01347
  48        4PZ        -0.00446   0.03250   0.00177   0.00590  -0.00812
  49        5PX         0.00500   0.01982   0.00889   0.02380   0.01666
  50        5PY         0.00081   0.05083   0.00923   0.01176  -0.00989
  51        5PZ         0.01003   0.04470  -0.00542   0.02786  -0.01272
  52        6D 0        0.00017   0.00339   0.00017   0.00023  -0.00025
  53        6D+1        0.00017  -0.00375  -0.00015  -0.00051   0.00055
  54        6D-1       -0.00109  -0.00209  -0.00030  -0.00052   0.00113
  55        6D+2        0.00091   0.00051   0.00022   0.00082  -0.00073
  56        6D-2       -0.00017  -0.00241   0.00005  -0.00059   0.00039
  57 5   C  1S         -0.00023   0.00427   0.00028   0.00054  -0.00001
  58        2S          0.00075  -0.00876  -0.00068  -0.00170  -0.00070
  59        3S         -0.00095   0.03214   0.02338   0.02810   0.01178
  60        4PX        -0.01003  -0.02631  -0.00243  -0.00993   0.00347
  61        4PY         0.01070  -0.00085   0.00119   0.01104  -0.00295
  62        4PZ         0.00437  -0.00029   0.00048   0.00312  -0.00070
  63        5PX        -0.00686  -0.01562   0.00024   0.00313   0.01185
  64        5PY         0.01207   0.01950   0.00088   0.02473  -0.00395
  65        5PZ        -0.00043   0.00464   0.00664  -0.00059  -0.00023
  66        6D 0        0.00007   0.00006   0.00005  -0.00002   0.00017
  67        6D+1       -0.00031   0.00318   0.00021   0.00041  -0.00121
  68        6D-1       -0.00010   0.00032   0.00000   0.00016   0.00016
  69        6D+2       -0.00003  -0.00377  -0.00020  -0.00005   0.00183
  70        6D-2        0.00020   0.00084   0.00012  -0.00005  -0.00034
  71 6   C  1S         -0.00047   0.00282   0.00021   0.00097  -0.00086
  72        2S          0.00123  -0.00561   0.00010  -0.00232   0.00183
  73        3S          0.00077  -0.02687  -0.01540   0.00241  -0.00390
  74        4PX        -0.00235   0.03170   0.00163   0.00114  -0.01418
  75        4PY         0.00618  -0.04228  -0.00218  -0.00338   0.02043
  76        4PZ         0.00061  -0.01137  -0.00068  -0.00030   0.00542
  77        5PX        -0.00349   0.02651  -0.00531   0.00322  -0.02320
  78        5PY         0.00427  -0.04154  -0.00751  -0.00321   0.02070
  79        5PZ        -0.00146  -0.01580   0.00380  -0.00466   0.00355
  80        6D 0       -0.00011   0.00047  -0.00001  -0.00037  -0.00005
  81        6D+1        0.00044   0.00070   0.00006   0.00067  -0.00001
  82        6D-1       -0.00082  -0.00176  -0.00013  -0.00097   0.00002
  83        6D+2       -0.00029  -0.00046  -0.00011  -0.00023   0.00032
  84        6D-2       -0.00026  -0.00073  -0.00004  -0.00020  -0.00025
  85 7   C  1S          0.00086   0.00802   0.00063   0.00140  -0.00154
  86        2S         -0.00267  -0.01766  -0.00168  -0.00186   0.00260
  87        3S         -0.00116  -0.03801   0.02037  -0.00604   0.03200
  88        4PX         0.00301  -0.01000  -0.00103   0.00446   0.00656
  89        4PY        -0.01197  -0.04504  -0.00270  -0.01393   0.00012
  90        4PZ        -0.00247  -0.00727  -0.00049  -0.00289  -0.00065
  91        5PX         0.00600  -0.01569   0.01094   0.00302   0.01566
  92        5PY        -0.00721  -0.04229   0.00318  -0.01407   0.00381
  93        5PZ        -0.00786  -0.01674  -0.00291  -0.00176  -0.00713
  94        6D 0       -0.00003   0.00072   0.00006  -0.00002  -0.00036
  95        6D+1       -0.00011  -0.00286  -0.00022  -0.00051   0.00090
  96        6D-1       -0.00055   0.00029  -0.00009  -0.00017  -0.00081
  97        6D+2        0.00080  -0.00316  -0.00014  -0.00038   0.00170
  98        6D-2       -0.00012   0.00190   0.00022   0.00042  -0.00078
  99 8   C  1S         -0.00330  -0.01061  -0.00148  -0.00343   0.00149
 100        2S          0.01007   0.02381   0.00657   0.00784  -0.00081
 101        3S         -0.00585   0.04902  -0.02505   0.00663  -0.05674
 102        4PX         0.01766  -0.00037   0.00117   0.00113   0.01095
 103        4PY        -0.00826   0.06250   0.00417   0.01004  -0.02167
 104        4PZ        -0.00604  -0.01784  -0.00215  -0.00479   0.00169
 105        5PX         0.00096  -0.02620   0.00621  -0.00141   0.01276
 106        5PY        -0.00744   0.05152   0.01596   0.01410  -0.02356
 107        5PZ         0.00297  -0.00438   0.00850  -0.00347   0.01623
 108        6D 0        0.00088   0.00447   0.00021   0.00133  -0.00104
 109        6D+1       -0.00017   0.00308   0.00005   0.00074  -0.00014
 110        6D-1        0.00033  -0.00098   0.00005   0.00001  -0.00004
 111        6D+2       -0.00032  -0.00261  -0.00008  -0.00096  -0.00081
 112        6D-2        0.00014  -0.00277  -0.00020   0.00014   0.00060
 113 9   H  1S         -0.04266   0.07003  -0.00276   0.04068  -0.02067
 114        2S         -0.03916   0.00212   0.00707   0.00361  -0.04727
 115        3PX        -0.00139  -0.01856  -0.00091  -0.00425   0.00634
 116        3PY        -0.00215  -0.01483  -0.00015  -0.00170   0.00215
 117        3PZ        -0.00117   0.00298   0.00013   0.00047  -0.00188
 118 10  H  1S         -0.00757   0.05943  -0.00355  -0.00861  -0.00705
 119        2S         -0.01776   0.02276  -0.01343  -0.03168  -0.00565
 120        3PX         0.00042   0.00438   0.00129   0.00150  -0.00148
 121        3PY        -0.00024   0.00074  -0.00020  -0.00007  -0.00070
 122        3PZ        -0.00050   0.00217  -0.00087  -0.00010  -0.00004
 123 11  H  1S          0.00463   0.00485   0.00020  -0.00221  -0.00060
 124        2S          0.00410   0.06739  -0.00260   0.03429  -0.01975
 125        3PX        -0.00071   0.00009  -0.00012   0.00031  -0.00025
 126        3PY         0.00001   0.00134   0.00010  -0.00033  -0.00115
 127        3PZ         0.00002   0.00104   0.00010  -0.00009  -0.00009
 128 12  H  1S         -0.00069   0.01076   0.00056   0.00070  -0.00205
 129        2S         -0.00203   0.00622   0.00048   0.00013  -0.00138
 130        3PX        -0.00039  -0.00088  -0.00014  -0.00068   0.00006
 131        3PY         0.00038  -0.00036   0.00010   0.00025  -0.00010
 132        3PZ         0.00022  -0.00006  -0.00002   0.00025   0.00008
 133 13  H  1S         -0.00166  -0.00592  -0.00063  -0.00026  -0.00049
 134        2S         -0.00161  -0.00213  -0.00175   0.00160  -0.00366
 135        3PX        -0.00008   0.00133   0.00015   0.00009  -0.00060
 136        3PY         0.00023  -0.00187  -0.00008  -0.00010   0.00104
 137        3PZ         0.00007  -0.00041  -0.00014   0.00007   0.00028
 138 14  O  1S          0.00107   0.01143  -0.00103  -0.00134   0.00359
 139        2S          0.00221   0.02178  -0.00294  -0.00046   0.00703
 140        3S          0.00213   0.05448  -0.00602  -0.05229   0.04955
 141        4PX        -0.04445  -0.03392   0.18781   0.29990   0.36233
 142        4PY         0.06961   0.00327  -0.10164   0.03561  -0.34041
 143        4PZ         0.27538  -0.01329  -0.38719   0.20804   0.14194
 144        5PX        -0.02947  -0.01729   0.14142   0.22679   0.26283
 145        5PY         0.04416  -0.01824  -0.07617   0.04701  -0.25703
 146        5PZ         0.17258  -0.00451  -0.31672   0.16184   0.10580
 147        6D 0        0.00329   0.00022  -0.00124   0.00311   0.00034
 148        6D+1       -0.00867  -0.00055   0.00873  -0.00279  -0.00127
 149        6D-1       -0.01268   0.00102   0.00979  -0.00481  -0.00367
 150        6D+2        0.00478   0.00089  -0.00528  -0.00196  -0.01308
 151        6D-2        0.00021   0.00333  -0.00191  -0.00656  -0.00383
 152 15  C  1S          0.00064  -0.02485  -0.00015  -0.00451   0.00346
 153        2S         -0.00110   0.05494   0.00211   0.02873  -0.00535
 154        3S         -0.01751   0.13329  -0.06161  -0.06217  -0.08710
 155        4PX        -0.05393  -0.10248  -0.03738  -0.12672   0.01204
 156        4PY         0.08220   0.02159  -0.00837  -0.00534   0.03418
 157        4PZ         0.31691  -0.02045  -0.02154  -0.01582  -0.00920
 158        5PX        -0.02537  -0.14451   0.09873   0.19738   0.08381
 159        5PY         0.05612  -0.02694  -0.04076  -0.02808  -0.13105
 160        5PZ         0.21578  -0.01856   0.01386   0.04468   0.04672
 161        6D 0        0.00689  -0.00023   0.01907  -0.00492  -0.00266
 162        6D+1        0.01784  -0.00382  -0.00281   0.01332  -0.00734
 163        6D-1       -0.00167  -0.00150  -0.03756   0.02614   0.00905
 164        6D+2       -0.00293  -0.00740   0.02880   0.04203   0.01377
 165        6D-2        0.00512   0.00719   0.00004  -0.01484   0.03744
 166 16  C  1S         -0.00265   0.00322  -0.01909  -0.05479  -0.00275
 167        2S          0.01040  -0.00346   0.03050   0.13198   0.00738
 168        3S          0.01975  -0.16705   0.29889   0.42798   0.07747
 169        4PX         0.02439   0.01205   0.09156   0.25164   0.03944
 170        4PY        -0.03649   0.10947   0.00905   0.02021   0.01172
 171        4PZ        -0.18211  -0.00065   0.00251   0.03286  -0.00397
 172        5PX         0.02666  -0.06939   0.13423   0.24118   0.11418
 173        5PY        -0.03166  -0.00543  -0.01405   0.07552  -0.03429
 174        5PZ        -0.08316   0.00128  -0.10241   0.06827   0.02322
 175        6D 0       -0.00146  -0.00419  -0.00043  -0.00041  -0.00170
 176        6D+1        0.01652   0.00726   0.00083   0.00337   0.00145
 177        6D-1        0.00809  -0.00677  -0.00064   0.00109  -0.00162
 178        6D+2       -0.00481   0.01229   0.00185   0.00675  -0.00500
 179        6D-2        0.00141  -0.01805  -0.00099  -0.00424  -0.00280
 180 17  H  1S         -0.15785  -0.05241  -0.01005  -0.03811  -0.02568
 181        2S         -0.06712  -0.03478   0.05270  -0.14402   0.01258
 182        3PX        -0.00005   0.00197   0.00547   0.00587   0.00190
 183        3PY        -0.00370   0.00432   0.00123   0.00039   0.00002
 184        3PZ         0.00114   0.00320   0.00015   0.00263  -0.00003
 185 18  C  1S         -0.02693   0.02267  -0.00054   0.00690   0.00607
 186        2S          0.06000  -0.05417   0.01888  -0.02451  -0.01048
 187        3S          0.11184  -0.08691  -0.15959   0.06661  -0.09219
 188        4PX         0.06307  -0.01967  -0.00465  -0.03567  -0.02262
 189        4PY         0.07786  -0.09347  -0.03617  -0.04545   0.01819
 190        4PZ         0.13305  -0.05887  -0.00317  -0.01874  -0.01982
 191        5PX         0.01571  -0.01489  -0.08636   0.00824  -0.01443
 192        5PY         0.05360   0.00648  -0.10323  -0.04292   0.05875
 193        5PZ         0.05205  -0.07909  -0.04091  -0.02421  -0.02474
 194        6D 0       -0.00259  -0.00607  -0.00197  -0.00495  -0.00037
 195        6D+1        0.00202   0.00138   0.00153   0.00644   0.00191
 196        6D-1        0.00280  -0.00202  -0.00105  -0.00055  -0.00024
 197        6D+2       -0.00645  -0.00254   0.00034   0.00451   0.00348
 198        6D-2        0.00077  -0.00267   0.00113   0.00426   0.00122
 199 19  H  1S         -0.04708  -0.00153   0.00557   0.04604   0.02676
 200        2S         -0.05732   0.02139  -0.01784   0.07675   0.03505
 201        3PX        -0.00015  -0.00109  -0.00070   0.00044  -0.00051
 202        3PY         0.00207  -0.00235  -0.00015  -0.00222  -0.00066
 203        3PZ         0.00492  -0.00051   0.00024  -0.00128  -0.00111
 204 20  H  1S         -0.04463  -0.01990  -0.00442  -0.03677  -0.00064
 205        2S         -0.06831  -0.03052   0.04535  -0.06925  -0.01302
 206        3PX         0.00316  -0.00005   0.00242  -0.00154  -0.00105
 207        3PY         0.00260  -0.00373   0.00027  -0.00064  -0.00067
 208        3PZ         0.00309  -0.00121   0.00104  -0.00089  -0.00107
 209 21  O  1S         -0.00005   0.00014  -0.00008  -0.00156  -0.01218
 210        2S          0.00031  -0.00163   0.00530   0.00257  -0.02522
 211        3S         -0.00091   0.00369  -0.04962  -0.07508  -0.08912
 212        4PX        -0.05477  -0.15390   0.08394   0.42057  -0.28284
 213        4PY         0.07997  -0.10118   0.12852   0.01573  -0.25565
 214        4PZ         0.30601   0.00160   0.40728  -0.09101   0.02284
 215        5PX        -0.03536  -0.09857   0.06182   0.31905  -0.21918
 216        5PY         0.04943  -0.06304   0.08908  -0.01313  -0.20838
 217        5PZ         0.19488   0.00154   0.33816  -0.07299   0.02210
 218        6D 0       -0.00879   0.00024  -0.00586   0.00353  -0.00051
 219        6D+1       -0.00574   0.00177  -0.00716  -0.00112   0.00263
 220        6D-1        0.01366   0.00106   0.00908  -0.00250   0.00186
 221        6D+2       -0.00264   0.00540  -0.00331  -0.00399   0.00972
 222        6D-2       -0.00432  -0.00356  -0.00032   0.00879  -0.00345
 223 22  H  1S          0.00169   0.06545   0.00664   0.02306  -0.01348
 224        2S          0.01582   0.05357  -0.04358   0.03863  -0.04674
 225        3PX         0.00050   0.00276   0.00106   0.00110  -0.00086
 226        3PY        -0.00070   0.00370   0.00004  -0.00032  -0.00047
 227        3PZ        -0.00104  -0.00150   0.00033  -0.00053   0.00030
 228 23  H  1S          0.00500   0.01836   0.00203   0.00412  -0.00216
 229        2S         -0.00568   0.01740   0.00106   0.00513  -0.00463
 230        3PX         0.00048   0.00020   0.00016  -0.00054   0.00045
 231        3PY        -0.00039   0.00231  -0.00012   0.00042  -0.00095
 232        3PZ        -0.00012  -0.00036  -0.00019   0.00009  -0.00031
 233 24  H  1S          0.00265   0.01679   0.00135   0.00278  -0.00265
 234        2S          0.00561   0.01995   0.00262   0.00327  -0.00387
 235        3PX         0.00009   0.00008  -0.00029   0.00024   0.00013
 236        3PY        -0.00036  -0.00156  -0.00016  -0.00071  -0.00001
 237        3PZ        -0.00015  -0.00028  -0.00006  -0.00011  -0.00000
 238 25  H  1S          0.01676   0.05609   0.02276  -0.00026  -0.02369
 239        2S         -0.00896   0.11342  -0.05593  -0.07098   0.09993
 240        3PX         0.00025  -0.00086  -0.00171  -0.00470   0.00242
 241        3PY         0.00214  -0.00188  -0.00138  -0.00150   0.00072
 242        3PZ         0.00357  -0.00212  -0.00115  -0.00267   0.00239
                          49        50        51        52        53
                           V         V         V         V         V
     Eigenvalues --     0.08826   0.10128   0.17934   0.19971   0.21011
   1 1   N  1S         -0.00512   0.01685  -0.01677  -0.04393   0.01353
   2        2S         -0.00150   0.03904  -0.03365  -0.07978   0.04299
   3        3S         -0.10962   0.09499  -0.11563  -0.41624  -0.04069
   4        4PX        -0.00318   0.11363  -0.04174  -0.04815   0.01462
   5        4PY         0.01369   0.01531  -0.00459   0.01048   0.00353
   6        4PZ         0.03278  -0.03410  -0.06488  -0.12589   0.03047
   7        5PX         0.02963  -0.10240   0.02209   0.04631   0.04137
   8        5PY         0.00331  -0.01445   0.01979   0.01720  -0.02392
   9        5PZ        -0.04883   0.04450   0.12044   0.22956  -0.11155
  10        6D 0        0.00044   0.00056  -0.00048   0.00144   0.00210
  11        6D+1       -0.00037   0.00051  -0.00163  -0.00260   0.00063
  12        6D-1        0.00062  -0.00004  -0.00256  -0.00351   0.00149
  13        6D+2       -0.00037   0.00145   0.00136  -0.00064  -0.00252
  14        6D-2       -0.00040   0.00066  -0.00022   0.00112   0.00044
  15 2   C  1S         -0.00268   0.00651   0.00483   0.02169  -0.04207
  16        2S          0.00472  -0.01910   0.03118  -0.00301   0.01713
  17        3S          0.03145   0.08413  -0.78522  -1.06733   1.87936
  18        4PX         0.01479   0.00408  -0.02808   0.04762   0.00752
  19        4PY        -0.01331  -0.00917  -0.06590  -0.07857   0.06605
  20        4PZ        -0.00219   0.01328  -0.02682   0.01664   0.09118
  21        5PX         0.04485  -0.07499   0.08554   0.25031  -0.07559
  22        5PY        -0.09578  -0.02540  -0.09402  -0.27332   0.08153
  23        5PZ        -0.02503   0.00993  -0.01422   0.14953   0.28348
  24        6D 0       -0.00033   0.00212   0.00194  -0.00053  -0.00382
  25        6D+1        0.00309  -0.00732   0.00257   0.00498  -0.00609
  26        6D-1       -0.00314   0.00205  -0.00320  -0.00371   0.00245
  27        6D+2       -0.00575   0.01951  -0.00056   0.00021   0.00316
  28        6D-2        0.00081  -0.00858  -0.00321  -0.00045   0.00282
  29 3   C  1S          0.00193   0.00417   0.01436  -0.00600  -0.00247
  30        2S         -0.00069  -0.01417  -0.03445  -0.00093   0.03542
  31        3S         -0.07298  -0.02542  -0.04454  -0.16629   0.24696
  32        4PX         0.04504  -0.22365  -0.00617  -0.00323   0.01086
  33        4PY        -0.07275   0.28097  -0.00595  -0.00274   0.01369
  34        4PZ        -0.01504   0.07729   0.00094   0.01112   0.02011
  35        5PX         0.03887  -0.36757   0.28692   0.30641  -0.52754
  36        5PY        -0.09539   0.34683   0.24953   0.33384  -0.34571
  37        5PZ        -0.00767   0.08765  -0.00148  -0.09763  -0.22674
  38        6D 0       -0.01109  -0.00195  -0.01032  -0.00347   0.00751
  39        6D+1        0.01775   0.00563   0.00003   0.00093   0.00841
  40        6D-1       -0.02288  -0.00302   0.00288   0.00212   0.00286
  41        6D+2       -0.00286  -0.00826   0.00325   0.00188  -0.00123
  42        6D-2       -0.00626  -0.00085   0.00582  -0.00560   0.00116
  43 4   C  1S          0.00082  -0.00044   0.04420   0.04424  -0.01889
  44        2S         -0.00526   0.00184  -0.08731  -0.10794   0.05140
  45        3S          0.02823  -0.05757  -0.53968  -0.79443  -0.50798
  46        4PX        -0.20470   0.04415  -0.02664  -0.05452   0.00736
  47        4PY         0.26291  -0.05649  -0.04027  -0.06005   0.00250
  48        4PZ         0.07615  -0.01421   0.06950   0.11051   0.03752
  49        5PX        -0.29079   0.09177  -0.23668  -0.32974   0.02005
  50        5PY         0.36363  -0.07001  -0.23812  -0.37486   0.11931
  51        5PZ         0.13500  -0.04401   0.32907   0.62930  -0.37803
  52        6D 0       -0.00123   0.00732   0.00253  -0.00400  -0.00088
  53        6D+1        0.00347  -0.00838  -0.00868   0.00097  -0.00473
  54        6D-1       -0.00037   0.01887  -0.00691   0.00549  -0.00271
  55        6D+2       -0.01185  -0.02113  -0.00284  -0.00021  -0.00098
  56        6D-2        0.00230   0.00953  -0.00108  -0.00360  -0.00273
  57 5   C  1S         -0.00026   0.00060   0.04360  -0.00137   0.03998
  58        2S          0.00273   0.00055  -0.10886  -0.01707  -0.09630
  59        3S         -0.01296   0.02046  -1.03996  -0.31768  -0.67532
  60        4PX         0.14828   0.15230   0.05781   0.01878   0.03080
  61        4PY        -0.19586  -0.19804   0.01599  -0.00162   0.00614
  62        4PZ        -0.05157  -0.05417   0.10672   0.01722   0.11806
  63        5PX         0.20497   0.24705   0.16463   0.10541   0.23534
  64        5PY        -0.28307  -0.29461   0.01265   0.04575   0.02536
  65        5PZ        -0.08595  -0.08225   0.33958  -0.08132   0.69492
  66        6D 0       -0.00057   0.00575   0.00767  -0.00194  -0.00165
  67        6D+1        0.00530  -0.01156   0.00687  -0.00245   0.00248
  68        6D-1        0.00169   0.00950   0.00424   0.00203   0.00138
  69        6D+2       -0.02262   0.01738   0.00070  -0.00041  -0.00053
  70        6D-2        0.00549  -0.00124  -0.00683  -0.00288   0.00016
  71 6   C  1S          0.00022   0.00025   0.04684  -0.02652   0.01819
  72        2S          0.00059  -0.00271  -0.11271   0.05585  -0.04207
  73        3S         -0.00979   0.01695  -0.77726   1.01526  -0.93705
  74        4PX         0.05235  -0.20097   0.09307  -0.09041   0.07430
  75        4PY        -0.06882   0.26458   0.07835  -0.04384   0.02884
  76        4PZ        -0.01839   0.07259   0.02028   0.00986   0.01595
  77        5PX         0.06779  -0.30871   0.39732  -0.28160   0.18236
  78        5PY        -0.10112   0.40994   0.31300  -0.14393   0.10755
  79        5PZ        -0.02667   0.10988   0.04470  -0.06754  -0.07783
  80        6D 0        0.01130   0.00226  -0.01102   0.00145   0.00092
  81        6D+1       -0.01787  -0.00574   0.00051  -0.00144  -0.00118
  82        6D-1        0.02242   0.00365   0.00324  -0.00253   0.00055
  83        6D+2        0.00256   0.01129   0.00218  -0.00001  -0.00146
  84        6D-2        0.00602  -0.00166   0.00610   0.00003  -0.00220
  85 7   C  1S          0.00128  -0.00041   0.03843  -0.02986  -0.02232
  86        2S         -0.00730   0.00259  -0.09090   0.06830   0.06570
  87        3S          0.04012   0.02033  -0.89673   0.59615   1.07162
  88        4PX        -0.20909   0.06358   0.04528  -0.02724  -0.04229
  89        4PY         0.26691  -0.07820   0.04235  -0.06924  -0.02276
  90        4PZ         0.07457  -0.02097  -0.06646   0.09351   0.06373
  91        5PX        -0.28375   0.10701   0.06110  -0.13817  -0.13850
  92        5PY         0.39638  -0.12110   0.08825  -0.27802  -0.07939
  93        5PZ         0.09748  -0.02896  -0.22927   0.45600   0.14174
  94        6D 0        0.00077  -0.00727   0.00347  -0.00040   0.00243
  95        6D+1       -0.00335   0.00768  -0.00737   0.00565   0.00105
  96        6D-1        0.00001  -0.01780  -0.00722   0.00273   0.00002
  97        6D+2        0.01276   0.02013  -0.00341   0.00089   0.00207
  98        6D-2       -0.00276  -0.00975  -0.00232   0.00011   0.00279
  99 8   C  1S         -0.00033   0.00075   0.03127  -0.00666  -0.04413
 100        2S          0.00551  -0.00027  -0.06927   0.00548   0.11721
 101        3S         -0.04383  -0.04135  -0.10667   0.71541   0.60336
 102        4PX         0.16016   0.14179  -0.02282   0.00134   0.07666
 103        4PY        -0.20336  -0.18376   0.00581   0.00116  -0.00676
 104        4PZ        -0.05427  -0.04692  -0.03706   0.06894   0.13759
 105        5PX         0.23782   0.22344  -0.18496   0.05167   0.50874
 106        5PY        -0.28367  -0.25767  -0.05948   0.05889   0.12903
 107        5PZ        -0.06346  -0.05068  -0.27674  -0.07419   0.76732
 108        6D 0        0.00084  -0.00602   0.00740  -0.00115   0.00115
 109        6D+1       -0.00495   0.01223   0.00754  -0.00444  -0.00025
 110        6D-1       -0.00173  -0.00938   0.00284  -0.00378  -0.00144
 111        6D+2        0.02198  -0.01878   0.00088  -0.00109   0.00085
 112        6D-2       -0.00561   0.00184  -0.00308   0.00204   0.00391
 113 9   H  1S          0.01368   0.01026   0.00269   0.04052   0.01020
 114        2S         -0.04052  -0.02714   0.26002   0.65522  -0.14284
 115        3PX         0.00267  -0.00485  -0.00137  -0.00292   0.00050
 116        3PY         0.00058  -0.00109   0.00249   0.00258  -0.00206
 117        3PZ         0.00067   0.00218  -0.00346  -0.00627   0.00049
 118 10  H  1S          0.02171  -0.06508   0.00421   0.01019   0.00026
 119        2S          0.13433  -0.11678   0.38201   0.88280  -0.72159
 120        3PX        -0.00139  -0.00408  -0.00396  -0.00174   0.00321
 121        3PY         0.00013  -0.00240   0.00031   0.00171  -0.00361
 122        3PZ        -0.00109   0.00120  -0.00636  -0.00797   0.00535
 123 11  H  1S         -0.00094  -0.00180   0.02048  -0.02490   0.00712
 124        2S          0.03461  -0.00443   0.96852   1.39460  -0.11857
 125        3PX        -0.01143   0.00284   0.00493   0.00614  -0.00227
 126        3PY         0.01448  -0.00435   0.00345   0.00170  -0.00279
 127        3PZ         0.00438  -0.00070  -0.00664  -0.00191   0.00169
 128 12  H  1S          0.00125   0.00124   0.01785  -0.01168   0.00210
 129        2S         -0.00596   0.00266   1.20732   0.11991   1.38961
 130        3PX         0.00828   0.00842  -0.00192   0.00298  -0.00343
 131        3PY        -0.01089  -0.01142  -0.00009   0.00114  -0.00116
 132        3PZ        -0.00296  -0.00318  -0.00376   0.00168  -0.00162
 133 13  H  1S         -0.00075  -0.00094   0.02454   0.00536  -0.01651
 134        2S         -0.00330   0.00159   1.26997  -0.98411   0.76094
 135        3PX         0.00297  -0.01142  -0.00495  -0.00016   0.00179
 136        3PY        -0.00388   0.01510  -0.00289   0.00147   0.00049
 137        3PZ        -0.00093   0.00414  -0.00035   0.00062  -0.00215
 138 14  O  1S         -0.00057   0.00213  -0.00239  -0.00399   0.00459
 139        2S         -0.00156   0.00449  -0.00476  -0.00760   0.00931
 140        3S          0.00200   0.00944  -0.01645  -0.03072   0.02879
 141        4PX         0.01479  -0.02693   0.00846   0.01389  -0.01790
 142        4PY         0.00078   0.01813  -0.00435  -0.00526   0.00083
 143        4PZ         0.01426  -0.01219   0.00722   0.00894  -0.00294
 144        5PX         0.01158  -0.02055   0.00593   0.01429  -0.02148
 145        5PY         0.00064   0.01061   0.00211   0.00343  -0.00693
 146        5PZ         0.01191  -0.00876   0.00447   0.00644  -0.00372
 147        6D 0        0.00022  -0.00004   0.00012   0.00031  -0.00035
 148        6D+1       -0.00001  -0.00014   0.00009   0.00001  -0.00007
 149        6D-1       -0.00021   0.00042  -0.00003  -0.00016  -0.00042
 150        6D+2        0.00004   0.00054  -0.00017  -0.00025   0.00021
 151        6D-2       -0.00017   0.00081  -0.00054  -0.00071   0.00087
 152 15  C  1S         -0.00323  -0.00189   0.00333   0.00245  -0.00099
 153        2S          0.01257   0.00585  -0.00882  -0.01010   0.01379
 154        3S         -0.01145   0.01021  -0.01748   0.02206  -0.15954
 155        4PX        -0.01302  -0.00605   0.01243   0.01001  -0.00593
 156        4PY        -0.00095   0.00116  -0.00260  -0.00089   0.00393
 157        4PZ        -0.00530  -0.00238  -0.00368   0.00051   0.01313
 158        5PX         0.00957  -0.01692   0.02878   0.01776   0.04187
 159        5PY        -0.01065  -0.00229   0.01139   0.02023   0.00814
 160        5PZ         0.00586   0.00008   0.00476  -0.00194  -0.00014
 161        6D 0        0.00054   0.00004   0.00099   0.00116  -0.00100
 162        6D+1        0.00113  -0.00020   0.00090   0.00134  -0.00088
 163        6D-1        0.00076  -0.00019   0.00035   0.00047  -0.00039
 164        6D+2        0.00082  -0.00045  -0.00062  -0.00037  -0.00028
 165        6D-2       -0.00005  -0.00084  -0.00017  -0.00091   0.00138
 166 16  C  1S          0.00374  -0.00169   0.00510   0.00212  -0.01777
 167        2S         -0.00416   0.00522  -0.00372   0.00041   0.01465
 168        3S         -0.03310  -0.03786  -0.06864   0.06290   0.57648
 169        4PX         0.02093  -0.00232   0.00531  -0.00123  -0.02793
 170        4PY         0.01235  -0.01622   0.01317   0.02980  -0.03074
 171        4PZ        -0.02501   0.00121  -0.02221  -0.01181   0.04899
 172        5PX         0.03108  -0.00916   0.04018  -0.01581  -0.05151
 173        5PY         0.04204  -0.01660   0.02019   0.00513  -0.14046
 174        5PZ        -0.07324  -0.01186  -0.03494   0.02078   0.14669
 175        6D 0       -0.00063   0.00007  -0.00058  -0.00064  -0.00108
 176        6D+1        0.00061   0.00137  -0.00129  -0.00218   0.00058
 177        6D-1       -0.00094   0.00171   0.00310   0.00525  -0.00331
 178        6D+2        0.00143  -0.00066  -0.00214  -0.00199   0.00078
 179        6D-2       -0.00071  -0.00335   0.00106   0.00044  -0.00082
 180 17  H  1S         -0.00955  -0.00461  -0.01458  -0.02930   0.01467
 181        2S          0.11856   0.03145   0.10886  -0.08491  -0.48995
 182        3PX        -0.00283   0.00239  -0.00186  -0.00334   0.00098
 183        3PY        -0.00052  -0.00061   0.00164   0.00289  -0.00266
 184        3PZ         0.00123  -0.00032   0.00127   0.00192  -0.00484
 185 18  C  1S         -0.00334  -0.00168   0.00721   0.01849   0.00225
 186        2S          0.00711   0.00829   0.01407   0.00226  -0.00212
 187        3S          0.00619  -0.06494  -0.37819  -0.65998  -0.16133
 188        4PX        -0.02382   0.00427   0.01790   0.02330  -0.00504
 189        4PY        -0.00038   0.00748   0.00997   0.00651  -0.01690
 190        4PZ        -0.00857   0.00604   0.03413   0.06466  -0.01700
 191        5PX        -0.01260   0.02937   0.08049   0.05039  -0.00226
 192        5PY        -0.02903   0.00573   0.00030  -0.00125  -0.03889
 193        5PZ         0.00562  -0.00674   0.07378   0.14107  -0.07577
 194        6D 0       -0.00045   0.00080  -0.00132  -0.00380   0.00357
 195        6D+1        0.00012   0.00118   0.00015   0.00076  -0.00041
 196        6D-1        0.00026   0.00007  -0.00162  -0.00363   0.00190
 197        6D+2        0.00039   0.00040  -0.00176  -0.00256  -0.00040
 198        6D-2        0.00161   0.00096  -0.00063  -0.00210  -0.00030
 199 19  H  1S          0.01200  -0.00027  -0.00630  -0.01637  -0.00533
 200        2S         -0.00086   0.09273   0.27259   0.31586   0.06651
 201        3PX         0.00257   0.00075   0.00088  -0.00295   0.00246
 202        3PY        -0.00243  -0.00106   0.00156   0.00370  -0.00146
 203        3PZ         0.00108  -0.00162  -0.00062  -0.00120  -0.00082
 204 20  H  1S          0.00067  -0.00245  -0.01118  -0.02185   0.00664
 205        2S         -0.00427  -0.01014   0.14304   0.35299   0.02054
 206        3PX        -0.00092  -0.00050  -0.00073  -0.00031  -0.00120
 207        3PY         0.00068   0.00002   0.00318   0.00571  -0.00207
 208        3PZ        -0.00028  -0.00010  -0.00147  -0.00200  -0.00061
 209 21  O  1S         -0.00022   0.00022  -0.00082  -0.00118   0.00221
 210        2S         -0.00018   0.00052  -0.00178  -0.00210   0.00184
 211        3S         -0.00577   0.00077  -0.00068  -0.00386   0.03579
 212        4PX         0.00122   0.01717  -0.00783  -0.00937   0.00442
 213        4PY        -0.00301   0.00848   0.00294   0.00372  -0.00120
 214        4PZ         0.00214   0.00098   0.00647   0.01066  -0.00197
 215        5PX         0.00002   0.01629  -0.01032  -0.00970  -0.00142
 216        5PY        -0.00367   0.00814  -0.00036  -0.00068   0.00734
 217        5PZ         0.00138   0.00001   0.00416   0.00832  -0.00230
 218        6D 0        0.00006   0.00007   0.00008   0.00001  -0.00056
 219        6D+1        0.00009  -0.00014   0.00003   0.00003   0.00020
 220        6D-1       -0.00000  -0.00006   0.00013   0.00043   0.00001
 221        6D+2        0.00020  -0.00031  -0.00002  -0.00011  -0.00003
 222        6D-2       -0.00012   0.00021   0.00013   0.00016  -0.00047
 223 22  H  1S          0.00876   0.00498  -0.00349  -0.00895  -0.00993
 224        2S         -0.02675   0.00609   0.21070   0.04739  -0.98813
 225        3PX         0.00118   0.00044   0.00017   0.00440  -0.00403
 226        3PY        -0.00061  -0.00036  -0.00422  -0.00062   0.00455
 227        3PZ         0.00046   0.00023   0.00472   0.00179  -0.01091
 228 23  H  1S          0.00139   0.00005   0.02466  -0.00592   0.00933
 229        2S         -0.00309  -0.00678   0.58126  -0.40939  -1.51226
 230        3PX         0.00900   0.00827   0.00279  -0.00194  -0.00598
 231        3PY        -0.01132  -0.01031   0.00090  -0.00046  -0.00308
 232        3PZ        -0.00281  -0.00279   0.00627   0.00037  -0.00379
 233 24  H  1S         -0.00167   0.00024   0.01914  -0.01077   0.00430
 234        2S          0.00730  -0.00499   0.94090  -1.15430  -0.81928
 235        3PX        -0.01168   0.00337  -0.00079   0.00288  -0.00316
 236        3PY         0.01474  -0.00433  -0.00211   0.00094  -0.00063
[...]
 05,-0.32879660,-0.04594077,0.16542296,0.00097234,0.00136133,0.00125235
 ,0.00195614,0.00119544,0.00069753,0.00028975,0.00009966,0.00038874,-0.
 00036104,0.00037734,-0.00022217,0.00024625,-0.00037641,-0.00008481,0.0
 0004757,0.00012873,0.00026389,0.00002771,0.00023093,-0.00015199,0.0001
 9161,-0.00006369,-0.00007968,0.00030792,-0.00027452,0.00043815,0.00026
 720,0.00020479,0.00002733,0.00001645,-0.00000577,0.00003468,0.00001359
 ,-0.00001390,-0.00000062,0.00000460,-0.00001394,0.00001828,0.00026618,
 0.00080103,-0.00057453,-0.00466364,0.00167758,0.00499483,0.09661573,-0
 .32759797,-0.57916820,-0.10113806,0.32875313,0.59578905,-0.00692156,-0
 .02599546,0.02200916,0.00169833,-0.00425201,-0.00151749,-0.00077732,0.
 00012086,-0.00001777,-0.00076834,0.00004531,0.00054977,0.00039462,-0.0
 0026518,-0.00033922,0.00003535,0.00036333,0.00028158,-0.00011463,0.000
 09550,0.00002875,-0.00003834,0.00031559,-0.00020938,0.00234220,0.00130
 787,0.00216476,-0.00116642,0.00039589,0.00054909,0.00018233,-0.0000742
 8,-0.00002072,-0.00008217,0.00001380,-0.00000291,-0.00001150,0.0000023
 3,0.00002385,-0.00368299,0.00374778,0.00434030,0.00055237,0.01926341,-
 0.02856253,-0.08552683,0.01411826,-0.02170393,0.00071013,-0.00397465,0
 .00447686,1.09736894,-0.00985505,-0.02921351,0.01904061,0.00249303,-0.
 00360927,-0.00167282,-0.00019291,0.00076387,0.00036778,-0.00046607,0.0
 0027515,0.00005423,-0.00018443,-0.00049456,0.00008164,0.00007725,0.000
 14047,0.00019325,-0.00007161,0.00054105,0.00008719,0.00008440,-0.00015
 617,-0.00040516,0.00083588,0.00260719,0.00310946,-0.00044624,0.0001947
 9,0.00055360,0.00031855,0.00010372,0.00011072,-0.00001580,0.00000475,-
 0.00001611,-0.00002930,0.00003522,0.00003296,0.00136370,0.00000923,-0.
 00152985,0.01041295,-0.01511231,0.01759459,0.00662913,-0.12964125,0.06
 191335,-0.00080981,0.01059700,-0.01084016,0.03852156,0.78945069,0.0004
 4346,-0.00244627,0.00352968,-0.00000446,-0.00042616,-0.00073089,0.0003
 5849,0.00022415,-0.00043841,0.00024719,-0.00010739,-0.00010648,-0.0000
 3826,0.00020667,0.00011126,-0.00012398,-0.00003343,-0.00014995,0.00003
 311,-0.00008810,0.00021622,-0.00017328,0.00038297,0.00010646,-0.000544
 65,-0.00087466,0.00263064,-0.00010876,-0.00002403,0.00035835,0.0000971
 0,0.00006838,0.00000175,0.00004131,-0.00000594,-0.00000166,0.00000844,
 -0.00000660,-0.00000904,0.00180158,-0.00185131,-0.00057897,-0.00703959
 ,0.00195691,-0.00122860,-0.00578967,0.05817058,-0.16232248,-0.00464683
 ,0.03250944,-0.02446208,-0.03038500,0.32289139,0.74991257,0.00115282,-
 0.00008757,-0.00013279,0.00009714,0.00011911,0.00013193,-0.00050486,-0
 .00002151,0.00087675,-0.00103422,-0.00022156,0.00042364,-0.00050765,-0
 .00002853,0.00023471,0.00007648,-0.00019450,-0.00013857,0.00004546,0.0
 0013687,-0.00008036,0.00006440,-0.00039709,-0.00029162,0.00005183,-0.0
 0000321,-0.00010592,0.00010280,-0.00003314,-0.00006881,-0.00005511,0.0
 0003222,0.00005637,0.00008913,0.00000915,-0.00000075,0.00001736,-0.000
 00478,-0.00001363,-0.00002368,0.00115321,-0.00004797,0.00047479,-0.001
 88907,-0.00034518,0.00018560,-0.00368523,0.00194328,0.00024978,0.00001
 156,-0.00024707,-0.61556831,0.30347195,0.03837256,0.63400864,0.0008697
 9,0.00302366,-0.00157729,-0.00040678,-0.00000506,0.00039464,0.00009074
 ,-0.00028316,0.00020787,0.00020928,0.00009242,-0.00023180,-0.00007189,
 0.00044042,0.00001805,-0.00005165,-0.00017430,-0.00015886,-0.00002548,
 -0.00025111,0.00001161,0.00000258,0.00030000,0.00023792,-0.00049913,-0
 .00100823,-0.00063715,0.00003407,0.00001020,0.00000605,-0.00029270,-0.
 00015912,0.00000190,-0.00001111,0.00000009,0.00001752,0.00002453,-0.00
 001879,-0.00003007,0.00148577,-0.00102992,-0.00088234,-0.00452028,-0.0
 0197839,0.00430520,0.02490719,-0.01471401,0.00201347,-0.00119930,0.001
 88157,-0.00099406,0.30709827,-0.13109370,-0.02583894,-0.31569844,0.134
 17970,-0.00059683,-0.00286042,0.00129449,0.00021860,0.00013287,-0.0002
 6919,0.00035355,0.00043292,-0.00039168,0.00038811,0.00005364,0.0001938
 6,0.00009773,0.00001382,-0.00004596,0.00002119,0.00002810,0.00006115,-
 0.00007543,-0.00019664,-0.00002980,-0.00022068,-0.00004090,-0.00014855
 ,0.00034545,-0.00013605,0.00059175,-0.00002114,-0.00003161,-0.00002515
 ,-0.00014215,-0.00017752,-0.00000984,-0.00007168,0.00003623,-0.0000088
 4,-0.00001112,0.00000430,0.00000084,-0.00169128,0.00185618,0.00106058,
 0.00342405,0.00268967,-0.00445202,-0.03019897,0.01609899,-0.00246711,-
 0.00022025,-0.00154164,0.00180732,0.03526004,-0.02218844,0.01633815,-0
 .03842305,0.01731184,-0.01438144,-0.00007028,0.00058767,0.00061109,-0.
 00033312,0.00016029,0.00003392,0.00014070,0.00009758,0.00008129,0.0000
 5461,0.00008146,0.00009646,-0.00002524,-0.00004958,-0.00000258,0.00002
 201,-0.00006648,-0.00002865,0.00002654,-0.00002709,-0.00006934,-0.0000
 3464,-0.00016056,-0.00005832,-0.00043133,-0.00054099,0.00037663,0.0000
 1007,-0.00003315,-0.00000884,-0.00010041,-0.00007332,-0.00002862,-0.00
 001307,0.00001688,0.00000652,0.00000037,-0.00000543,-0.00000325,-0.000
 15699,-0.00010617,0.00045644,0.00095176,-0.00066562,-0.00121240,-0.000
 38739,-0.00267422,-0.00455699,0.00093364,0.00068855,-0.00051546,0.0030
 7896,0.03892139,0.07579588,-0.00011071,0.01631059,0.03728333,-0.009673
 23,0.00203527,0.00330991,-0.00030051,-0.00014772,0.00019643,0.00028238
 ,0.00002244,-0.00007913,-0.00009006,0.00003636,-0.00006370,-0.00000543
 ,-0.00002268,0.00007716,-0.00001083,-0.00000319,-0.00000770,-0.0000305
 3,-0.00001681,-0.00000789,0.00003215,0.00006798,-0.00000990,0.00005594
 ,-0.00071203,0.00017993,-0.00109640,-0.00001493,0.00000526,-0.00010629
 ,-0.00001102,0.00005010,-0.00001096,0.00002434,-0.00001065,0.00000377,
 -0.00000276,-0.00000397,-0.00000361,-0.00054226,-0.00037700,-0.0008995
 1,-0.00063267,0.00324113,0.00013764,-0.00358211,0.00996430,0.03109652,
 0.00045625,-0.00439990,0.00477874,0.03744761,-0.14023756,-0.31446527,-
 0.00309936,-0.00789822,-0.01470025,-0.04064244,0.14622910,-0.00165042,
 -0.00147589,0.00171370,0.00024013,-0.00027875,0.00023826,-0.00011205,-
 0.00003299,0.00005271,0.00004979,0.00001654,-0.00014782,-0.00000962,-0
 .00001475,0.00001920,0.00000636,-0.00000381,0.00002792,0.00000307,0.00
 005816,-0.00000391,0.00001051,0.00002465,0.00002064,0.00120514,0.00054
 945,0.00053177,0.00007805,-0.00000160,0.00004989,0.00000911,0.00000309
 ,0.00001419,0.00000578,-0.00000970,0.00000178,0.00000304,-0.00000231,0
 .00000428,-0.00037744,0.00111345,0.00045347,0.00226483,-0.00256665,0.0
 0135288,0.00180912,-0.01117098,-0.02484570,-0.00026310,0.00476970,-0.0
 0313526,0.07656689,-0.32010112,-0.59098292,-0.00443584,0.00401449,0.00
 206855,-0.07805625,0.32056725,0.61283692,-0.00967565,0.00070452,0.0006
 9565,-0.00169745,-0.00086349,-0.00232296,0.00018684,-0.00157107,0.0004
 7718,-0.00040814,0.00056180,-0.00008997,0.00004284,-0.00037033,-0.0000
 8850,-0.00017526,0.00053525,0.00016582,0.00010661,0.00012317,0.0000389
 8,-0.00007441,0.00064921,-0.00010251,-0.00229215,-0.00056016,-0.000442
 19,-0.00085806,0.00005054,0.00047929,0.00030698,-0.00010534,0.00009419
 ,-0.00007761,0.00003354,-0.00004888,-0.00003763,0.00007446,0.00000130,
 0.02090532,-0.04523089,-0.00605945,-0.42498395,-0.23412297,-0.05439701
 ,-0.04250083,-0.02128608,-0.00763691,0.00145940,-0.00195532,0.00104243
 ,-0.00069580,-0.00220731,0.00017653,0.00013338,0.00106774,-0.00100792,
 -0.00080476,-0.00022782,-0.00080072,0.46287128,0.00197729,0.00164613,0
 .00082863,-0.00040609,0.00107049,0.00011182,0.00056570,-0.00143395,0.0
 0023444,-0.00048203,0.00057268,-0.00051876,0.00017364,-0.00038049,-0.0
 0023154,-0.00029124,0.00066694,0.00003588,0.00035134,-0.00009651,0.000
 16000,-0.00000012,0.00088216,0.00035866,0.00060174,-0.00038529,-0.0002
 5271,0.00023060,-0.00007343,-0.00033519,0.00003200,-0.00008513,0.00002
 274,-0.00008437,-0.00001950,-0.00000591,-0.00002910,0.00000307,0.00000
 990,-0.06841389,-0.09179529,-0.02001756,-0.23368413,-0.28467102,-0.041
 15186,-0.00433821,0.00567585,-0.00111869,-0.00139678,0.00089097,0.0008
 4701,0.00113006,-0.00116820,0.00195181,0.00116650,0.00123569,-0.000352
 04,0.00020234,-0.00022271,0.00031603,0.30289988,0.36499321,-0.00051002
 ,0.00015299,0.00288162,-0.00052592,-0.00026133,-0.00040123,0.00003033,
 -0.00036992,0.00008831,-0.00005676,0.00008816,-0.00001165,0.00004595,-
 0.00009546,0.00000333,-0.00004820,0.00008292,0.00003913,0.00003502,0.0
 0006380,0.00004908,-0.00004519,0.00016566,-0.00007454,0.00058311,0.000
 36755,-0.00000175,-0.00015265,-0.00000379,0.00010591,0.00003825,-0.000
 00135,0.00001365,0.00000769,0.00000071,-0.00000262,0.00000114,0.000004
 20,0.00000169,-0.00852768,-0.01749433,0.02857127,-0.05343453,-0.040800
 60,-0.08874724,-0.00442552,-0.00264199,0.01753456,-0.00513563,0.002700
 13,0.00028118,0.00228126,-0.00080928,0.00071274,-0.00049273,-0.0009171
 5,0.00056510,0.00048609,0.00001661,0.00000958,0.06990362,0.06086690,0.
 03919073,0.00882372,0.00048436,0.03590904,-0.12658801,0.02922146,-0.30
 910663,-0.00760667,0.00098216,-0.01424682,-0.00034130,0.00395936,-0.00
 026698,-0.00003250,-0.00032498,-0.00093515,0.00025798,0.00005629,0.000
 46184,-0.00031803,0.00033976,-0.00006700,0.00071856,-0.00186082,-0.000
 21066,-0.00395614,-0.00094394,0.00559418,-0.00817436,0.00779679,-0.023
 23359,0.00002918,-0.00022361,0.00035264,-0.00023548,0.00013631,0.00007
 076,0.00001228,0.00001736,0.00006371,0.00024346,0.00027660,-0.00049145
 ,-0.00018479,-0.00010228,0.00012297,0.00198893,-0.00008401,0.00063062,
 -0.00003104,-0.00040726,-0.00018115,-0.00026055,-0.00042672,-0.0000597
 6,-0.00002335,0.00006231,0.00000413,0.00004127,-0.00004926,-0.00021767
 ,0.00045996,0.00027300,0.00005842,0.13490435,-0.00184920,0.00126746,-0
 .00531694,0.03021103,0.00840998,0.07313158,0.01941612,-0.00960766,0.03
 320607,0.00290017,-0.00577747,-0.00146898,0.00082174,0.00017686,0.0015
 5688,-0.00008915,0.00009247,-0.00016964,0.00004124,0.00001600,0.000140
 13,-0.00051406,0.00264285,0.00161720,0.00087185,0.00077652,0.00002027,
 -0.01208838,0.00658604,-0.03077340,-0.00026185,0.00007084,0.00012763,0
 .00023193,-0.00047073,0.00000704,-0.00004279,-0.00001099,-0.00009191,0
 .00007790,-0.00064068,0.00031182,-0.00039236,0.00089464,-0.00002936,0.
 00035077,-0.00041814,0.00078071,-0.00024124,-0.00030471,0.00018869,0.0
 0012189,-0.00005373,-0.00014629,-0.00002506,0.00001999,0.00000327,-0.0
 0004747,-0.00002866,-0.00004012,0.00029990,-0.00021145,-0.00004045,-0.
 03942146,-0.00332008,-0.00424693,-0.00121137,-0.02564571,-0.30899577,0
 .07360099,-0.61735575,0.00209926,-0.00318781,0.00193936,-0.00031893,-0
 .00062112,0.00088141,0.00026061,-0.00025786,0.00005025,0.00000695,0.00
 008782,0.00016670,0.00011276,0.00015774,-0.00010453,0.00136994,-0.0013
 6224,0.00104950,0.00367529,0.00125095,-0.00243188,0.00261871,0.0033595
 7,0.00000193,0.00013380,-0.00002928,0.00004099,0.00008225,0.00000738,-
 0.00002169,-0.00002896,-0.00001598,0.00003295,0.00013599,-0.00019991,0
 .00034004,-0.00021371,0.00034962,0.00018973,-0.00209514,-0.00145947,0.
 00025715,0.00034827,0.00057499,0.00064953,0.00018415,0.00054425,0.0002
 4379,0.00000266,-0.00010139,0.00002037,-0.00006543,-0.00015761,0.00022
 382,0.00015862,-0.00008297,-0.00001497,0.30521296,-0.07195091,0.639200
 85,-0.00012879,0.00122972,0.00035051,-0.00344914,-0.00275954,0.0029278
 3,0.00541592,0.00307794,0.00170245,0.00611524,0.00256503,-0.00174829,-
 0.00051922,-0.00029438,0.00057977,0.00520904,0.00548033,-0.00174018,-0
 .00091372,0.00164887,-0.01379608,-0.17560857,0.10426870,-0.33824386,-0
 .00010422,0.00011426,-0.00002896,0.00047870,-0.00050876,-0.00026896,0.
 00005792,-0.00006794,0.00013123,-0.00107568,-0.00054375,0.00047459,-0.
 00001195,0.00016772,-0.00070972,-0.00002390,-0.00017215,-0.00002686,0.
 00000466,0.00019918,0.00004798,0.00029666,0.00014536,-0.00005048,-0.00
 013295,-0.00005374,0.00009365,0.00000971,-0.00004821,-0.00003934,0.000
 01664,-0.00001634,0.00002679,-0.00000023,0.00002197,-0.00002981,-0.000
 03912,-0.00013404,-0.00007195,0.00020958,-0.00026464,-0.00041689,0.167
 93037,-0.00022975,0.00058792,0.00054102,-0.00263481,0.00023989,-0.0002
 5346,-0.01166203,0.00975300,-0.02157812,0.00240171,-0.00150195,-0.0053
 2197,-0.00023156,-0.00110058,-0.00069371,0.00548139,-0.00405351,-0.001
 68801,0.01654983,-0.00139939,0.02747765,0.10488738,-0.03620823,0.15645
 599,-0.00012806,-0.00010053,0.00007434,0.00028568,-0.00022272,-0.00006
 448,-0.00077528,0.00045330,-0.00100166,-0.00051421,-0.00024261,0.00028
 490,0.00092699,-0.00005328,0.00134195,-0.00010279,-0.00011011,0.000010
 19,0.00022378,0.00014558,0.00006921,0.00010826,0.00010462,-0.00002188,
 -0.00003470,0.00006822,0.00001168,-0.00003383,-0.00005502,0.00001093,0
 .00000667,-0.00001868,0.00002610,-0.00000126,-0.00000124,-0.00000568,-
 0.00018074,-0.00014499,-0.00005247,0.00040192,-0.00021237,0.00054042,-
 0.11142789,0.03335524,0.00061463,-0.00059549,-0.00031743,0.00049695,0.
 00369635,0.00052006,-0.01330083,0.00856976,-0.01336585,-0.00216486,-0.
 00487124,-0.00208305,0.00091831,-0.00085553,0.00022836,-0.00185562,-0.
 00163944,0.00281921,0.00272882,-0.00550377,0.00615334,-0.33751896,0.15
 612598,-0.53728324,-0.00007794,0.00011515,0.00014125,-0.00011423,0.000
 25790,0.00034805,-0.00068875,0.00062013,-0.00079738,0.00044672,0.00028
 291,-0.00025130,0.00001848,-0.00020701,0.00026154,-0.00002726,0.000169
 02,0.00001416,0.00014967,-0.00017720,0.00005707,-0.00033380,-0.0002479
 1,-0.00030748,0.00010952,0.00011298,0.00010768,0.00002093,0.00012177,0
 .00005284,-0.00001240,-0.00003574,-0.00000675,-0.00000090,-0.00002332,
 0.00004928,-0.00004060,0.00009004,0.00004924,0.00055472,-0.00107166,0.
 00036172,0.34824976,-0.15653361,0.54381502,0.00002446,-0.00009118,0.00
 016005,0.00006994,0.00033182,0.00055806,0.00444629,0.00591418,-0.00286
 648,-0.00129669,0.00043482,-0.00008626,0.00408279,0.00388781,-0.005920
 06,0.00603985,-0.01247403,-0.01609285,0.01953121,-0.01439644,-0.034467
 97,0.00725596,0.01313673,0.01347869,-0.00000713,0.00000011,0.00001745,
 -0.00009798,0.00013658,-0.00006867,-0.00100955,-0.00053459,0.00050245,
 0.00023744,-0.00060602,-0.00077125,-0.00376078,-0.00238776,0.00332792,
 -0.00002724,-0.00008633,-0.00000849,-0.00002769,0.00010880,-0.00001412
 ,0.00022892,0.00013644,0.00006439,0.00001117,0.00000417,-0.00005798,-0
 .00005590,-0.00006193,0.00001344,0.00001309,0.00004276,-0.00000420,0.0
 0000505,-0.00000602,-0.00000632,-0.00004380,-0.00007962,-0.00003232,0.
 00001816,-0.00009338,-0.00000852,-0.00373541,-0.00330135,0.00181399,-0
 .03186714,0.00052710,-0.00034764,-0.00017673,-0.00098159,-0.00008927,-
 0.00088116,0.00604110,-0.00333682,0.00009901,0.00022585,-0.00038878,0.
 00118817,0.00390025,0.00195057,0.00119062,0.00380707,0.01189493,0.0127
 1693,-0.01473653,-0.31977782,-0.39313591,-0.00297135,-0.01104695,-0.02
 570733,0.00000051,0.00006262,0.00003808,0.00015468,-0.00027742,-0.0000
 1881,-0.00051371,-0.00026967,0.00018390,0.00014432,0.00048728,0.000511
 48,-0.00293257,-0.00046889,0.00014424,0.00009890,-0.00001945,0.0000084
 6,-0.00021168,0.00001825,-0.00003867,-0.00006857,-0.00009169,-0.000031
 25,-0.00000340,0.00002475,-0.00001007,0.00003912,0.00003457,0.00001678
 ,-0.00000539,-0.00000681,0.00001048,-0.00000106,-0.00001066,0.00000053
 ,0.00014507,0.00004155,0.00003842,-0.00001759,0.00007263,0.00001736,-0
 .00261419,0.00074206,0.00159905,0.00997567,0.32078003,-0.00010777,0.00
 012197,-0.00004456,0.00011429,0.00023793,0.00020482,-0.00329081,0.0003
 3604,0.00253523,0.00011421,0.00095331,0.00014827,-0.00605512,0.0013371
 5,-0.00244753,0.00094454,-0.02209772,-0.01358816,-0.03521182,-0.391044
 95,-0.45151012,-0.00270333,0.00693832,0.00903171,-0.00000683,0.0000027
 8,-0.00000648,0.00001486,0.00001955,0.00001740,0.00049830,0.00020586,-
 0.00024158,0.00001709,-0.00105117,-0.00083289,0.00271646,0.00150827,0.
 00068401,0.00003658,0.00004015,0.00000300,-0.00000222,-0.00008761,0.00
 001166,-0.00010832,-0.00008803,-0.00003165,-0.00002667,0.00000147,0.00
 002891,0.00001172,0.00002893,-0.00000159,-0.00001428,-0.00002217,-0.00
 000067,-0.00000417,0.00000601,0.00000086,0.00004389,0.00006427,0.00000
 914,-0.00001727,0.00000802,-0.00000131,0.00257175,0.00033936,-0.000535
 27,0.04044163,0.40225210,0.45657761,0.00113907,0.00122254,-0.00077264,
 -0.00007397,0.00023912,-0.00014375,-0.00007807,-0.00010928,-0.00003406
 ,-0.00019029,0.00010269,0.00008435,0.00006649,-0.00022794,-0.00003997,
 0.00002506,0.00012536,0.00006970,0.00000567,0.00014893,0.00001107,0.00
 008490,-0.00003872,-0.00008864,-0.00017079,0.00007774,0.00010377,0.000
 01512,-0.00000366,-0.00002376,0.00009848,0.00005890,0.00002119,-0.0000
 0502,-0.00000156,-0.00000787,-0.00002278,0.00000848,0.00001538,-0.0003
 5133,-0.00075895,-0.00049287,0.00150310,0.00197576,0.00048362,0.003396
 21,0.00523004,0.00085794,0.00052576,-0.00037079,0.00032842,-0.39070229
 ,-0.38831439,-0.06843553,-0.01895146,-0.02941252,-0.00473827,0.0068764
 2,0.00960082,0.00370742,-0.00210798,-0.00026447,-0.00001177,0.00004478
 ,-0.00001353,-0.00001196,-0.00000154,-0.00001536,0.00001366,-0.0000350
 1,-0.00000202,0.00002329,0.39890948,-0.00153978,-0.00316782,0.00399190
 ,0.00063252,-0.00141420,-0.00041503,0.00025474,0.00004163,-0.00006747,
 0.00012116,0.00002926,-0.00003988,-0.00001255,0.00009351,-0.00002429,-
 0.00003223,0.00001892,0.00000531,0.00000638,-0.00003973,-0.00002394,-0
 .00006940,0.00010748,0.00001030,0.00045776,0.00053017,0.00081712,-0.00
 027616,0.00007205,0.00024243,-0.00002043,-0.00008456,-0.00000833,-0.00
 002254,0.00001038,0.00000299,0.00000694,-0.00000102,-0.00000465,0.0010
 5145,0.00162894,0.00056865,-0.00486117,-0.00356656,-0.00144962,-0.0154
 0471,-0.01474787,-0.00595621,-0.00018291,0.00146443,-0.00046560,-0.389
 55305,-0.35392244,-0.07207563,0.01928718,0.01745575,0.00352709,-0.0119
 7192,-0.00989443,0.00427102,0.00153642,0.00300923,-0.00105991,-0.00014
 577,0.00003038,0.00014681,-0.00001350,-0.00002463,0.00000088,0.0000087
 6,0.00002262,-0.00000985,0.40074280,0.36234851,0.00093437,0.00683328,-
 0.00428250,-0.00062799,0.00093735,0.00089332,0.00002066,-0.00019421,-0
 .00005969,0.00006213,-0.00010467,-0.00010419,-0.00002644,0.00007011,0.
 00002415,0.00000463,-0.00004434,-0.00003107,0.00000291,-0.00009074,0.0
 0000367,0.00002362,-0.00002611,0.00008282,0.00020729,-0.00034749,-0.00
 083470,0.00029317,-0.00008798,-0.00016596,-0.00001397,0.00005487,0.000
 00444,0.00000285,-0.00001716,0.00000093,0.00000125,0.00000154,-0.00000
 022,-0.00047790,-0.00103432,-0.00033800,0.00206033,0.00138561,0.001620
 56,0.02154528,0.01890661,0.00402503,0.00090333,-0.00109054,0.00109987,
 -0.06599015,-0.06916278,0.00679863,0.00280907,0.00288639,-0.00176517,-
 0.03061646,-0.02507640,-0.00055410,-0.00023990,-0.00183090,-0.00085227
 ,-0.00000187,0.00000034,-0.00007424,0.00001507,0.00003128,-0.00003104,
 0.00002744,-0.00001568,-0.00001081,0.06908128,0.06801592,-0.00544946\\
 -0.00763680,0.01262352,0.02686747,0.05021236,0.12959856,-0.12893487,0.
 00811744,-0.01583227,0.01305715,-0.00186641,0.09096204,0.09540022,0.06
 723395,-0.06053770,0.08119278,0.06229440,-0.09133283,0.03181677,0.0052
 8571,-0.10101275,-0.09210938,-0.07710023,0.05042796,-0.11633998,-0.005
 79450,-0.00325273,-0.01412256,-0.10099831,-0.11505298,-0.02360817,-0.0
 0661188,-0.09479023,-0.11776690,-0.07686565,0.03534533,-0.12536730,-0.
 06997041,0.13209181,-0.00781067,-0.01135300,0.02170525,0.00025571,0.03
 740115,-0.05370874,-0.00103926,0.00574874,-0.08004893,-0.12766618,-0.0
 1927213,0.07256583,0.13602122,0.00649181,-0.09626479,0.10318575,-0.138
 36022,0.06877003,0.00607341,0.01825295,-0.06818373,-0.13561145,-0.0057
 8911,0.02293183,0.00078959,0.06603842,-0.01855891,0.13712124,0.0761247
 4,-0.03631031,0.12427474,0.00697799,0.09634557,0.11544233,0.11143897,0
 .10151917,0.01887834\\\@
 The archive entry for this job was punched.

 Writing a WFNX file to "ZODPIR_Complex_3_Ligand_1_ON_Cu_oriented.wfx"


 In the beginning there was nothing, which exploded.
 Job cpu time:       0 days  0 hours 19 minutes 27.4 seconds.
 Elapsed time:       0 days  0 hours 19 minutes 32.7 seconds.
 File lengths (MBytes):  RWF=    408 Int=      0 D2E=      0 Chk=     12 Scr=      8
 Normal termination of Gaussian 16 at Mon Mar  6 10:41:24 2023.
