 Entering Gaussian System, Link 0=g16
 Initial command:
 /software/gaussian/G16-A.03/avx2/g16/l1.exe "/scratch/lcmd/5211250.slurm/Gau-114157.inp" -scrdir="/scratch/lcmd/5211250.slurm/"
 Entering Link 1 = /software/gaussian/G16-A.03/avx2/g16/l1.exe PID=    114159.
  
 Copyright (c) 1988,1990,1992,1993,1995,1998,2003,2009,2016,
            Gaussian, Inc.  All Rights Reserved.
  
 This is part of the Gaussian(R) 16 program.  It is based on
 the Gaussian(R) 09 system (copyright 2009, Gaussian, Inc.),
 the Gaussian(R) 03 system (copyright 2003, Gaussian, Inc.),
 the Gaussian(R) 98 system (copyright 1998, Gaussian, Inc.),
 the Gaussian(R) 94 system (copyright 1995, Gaussian, Inc.),
 the Gaussian 92(TM) system (copyright 1992, Gaussian, Inc.),
 the Gaussian 90(TM) system (copyright 1990, Gaussian, Inc.),
 the Gaussian 88(TM) system (copyright 1988, Gaussian, Inc.),
 the Gaussian 86(TM) system (copyright 1986, Carnegie Mellon
 University), and the Gaussian 82(TM) system (copyright 1983,
 Carnegie Mellon University). Gaussian is a federally registered
 trademark of Gaussian, Inc.
  
 This software contains proprietary and confidential information,
 including trade secrets, belonging to Gaussian, Inc.
  
 This software is provided under written license and may be
 used, copied, transmitted, or stored only in accord with that
 written license.
  
 The following legend is applicable only to US Government
 contracts under FAR:
  
                    RESTRICTED RIGHTS LEGEND
  
 Use, reproduction and disclosure by the US Government is
 subject to restrictions as set forth in subparagraphs (a)
 and (c) of the Commercial Computer Software - Restricted
 Rights clause in FAR 52.227-19.
  
 Gaussian, Inc.
 340 Quinnipiac St., Bldg. 40, Wallingford CT 06492
  
  
 ---------------------------------------------------------------
 Warning -- This program may not be used in any manner that
 competes with the business of Gaussian, Inc. or will provide
 assistance to any competitor of Gaussian, Inc.  The licensee
 of this program is prohibited from giving any competitor of
 Gaussian, Inc. access to this program.  By using this program,
 the user acknowledges that Gaussian, Inc. is engaged in the
 business of creating and licensing software in the field of
 computational chemistry and represents and warrants to the
 licensee that it is not a competitor of Gaussian, Inc. and that
 it will not use this program in any manner prohibited above.
 ---------------------------------------------------------------
  

 Cite this work as:
 Gaussian 16, Revision A.03,
 M. J. Frisch, G. W. Trucks, H. B. Schlegel, G. E. Scuseria, 
 M. A. Robb, J. R. Cheeseman, G. Scalmani, V. Barone, 
 G. A. Petersson, H. Nakatsuji, X. Li, M. Caricato, A. V. Marenich, 
 J. Bloino, B. G. Janesko, R. Gomperts, B. Mennucci, H. P. Hratchian, 
 J. V. Ortiz, A. F. Izmaylov, J. L. Sonnenberg, D. Williams-Young, 
 F. Ding, F. Lipparini, F. Egidi, J. Goings, B. Peng, A. Petrone, 
 T. Henderson, D. Ranasinghe, V. G. Zakrzewski, J. Gao, N. Rega, 
 G. Zheng, W. Liang, M. Hada, M. Ehara, K. Toyota, R. Fukuda, 
 J. Hasegawa, M. Ishida, T. Nakajima, Y. Honda, O. Kitao, H. Nakai, 
 T. Vreven, K. Throssell, J. A. Montgomery, Jr., J. E. Peralta, 
 F. Ogliaro, M. J. Bearpark, J. J. Heyd, E. N. Brothers, K. N. Kudin, 
 V. N. Staroverov, T. A. Keith, R. Kobayashi, J. Normand, 
 K. Raghavachari, A. P. Rendell, J. C. Burant, S. S. Iyengar, 
 J. Tomasi, M. Cossi, J. M. Millam, M. Klene, C. Adamo, R. Cammi, 
 J. W. Ochterski, R. L. Martin, K. Morokuma, O. Farkas, 
 J. B. Foresman, and D. J. Fox, Gaussian, Inc., Wallingford CT, 2016.
 
 ******************************************
 Gaussian 16:  ES64L-G16RevA.03 25-Dec-2016
                18-Nov-2022 
 ******************************************
 %nprocs=8
 Will use up to    8 processors via shared memory.
 %mem=16000MB
 %chk=009_lig_c2.chk
 ----------------------------------------------------------------------
 #p pop=(regular,nbo,savenbos) freq=noraman def2svp empiricaldispersion
 =gd3bj output=wfx pbe1pbe
 ----------------------------------------------------------------------
 1/10=4,30=1,38=1/1,3;
 2/12=2,17=6,18=5,40=1/2;
 3/5=43,7=101,11=2,25=1,30=1,71=2,74=-13,124=41,140=1/1,2,3;
 4//1;
 5/5=2,38=5,98=1/2;
 8/6=4,10=90,11=11/1;
 11/6=1,8=1,9=11,15=111,16=1/1,2,10;
 10/6=1/2;
 6/28=1,40=1,73=1/1,7;
 7/8=1,10=1,25=1/1,2,3,16;
 1/10=4,30=1/3;
 99/6=200/99;
 Leave Link    1 at Fri Nov 18 09:55:52 2022, MaxMem=  2097152000 cpu:               0.7 elap:               0.2
 (Enter /software/gaussian/G16-A.03/avx2/g16/l101.exe)
 ----------
 009_lig_c2
 ----------
 Symbolic Z-matrix:
 Charge =  0 Multiplicity = 1
 C                     5.49382  -0.80475   1.56867 
 C                     4.4458   -1.70726   1.3664 
 C                     3.4442   -1.43658   0.43502 
 C                     3.51551  -0.24281  -0.28025 
 C                     4.56193   0.66233  -0.08776 
 C                     5.56263   0.38337   0.84086 
 C                     4.44168   1.84988  -1.00586 
 C                     3.07637   1.68151  -1.67492 
 O                     2.0967    2.58614  -1.10486 
 C                     1.11596   1.84701  -0.5977 
 C                     0.00003   2.62742   0.0003 
 C                    -1.11602   1.84701   0.59808 
 N                    -1.23174   0.58027   0.67769 
 C                    -2.52943   0.28275   1.29096 
 C                    -3.5155   -0.24285   0.2801 
 C                    -3.44406  -1.43663  -0.43513 
 C                    -4.44545  -1.7073   -1.36673 
 C                    -5.4934   -0.80477  -1.56925 
 C                    -5.56236   0.38336  -0.84146 
 C                    -4.56186   0.6623    0.08738 
 C                    -4.44179   1.84987   1.00549 
 C                    -3.07665   1.68146   1.67489 
 O                    -2.09684   2.58612   1.1051 
 N                     1.23165   0.58027  -0.67742 
 C                     2.52925   0.28279  -1.29092 
 H                     6.26994  -1.03347   2.30315 
 H                     4.40851  -2.6347    1.94219 
 H                     2.62297  -2.13686   0.25774 
 H                     6.38878   1.08151   0.99884 
 H                     5.24284   1.85195  -1.76301 
 H                     4.49632   2.81706  -0.48243 
 H                     3.09275   1.88306  -2.75457 
 H                    -0.41491   3.30028  -0.76864 
 H                     0.41508   3.30001   0.76943 
 H                    -2.35887  -0.41676   2.12287 
 H                    -2.62288  -2.13693  -0.25766 
 H                    -4.40806  -2.63475  -1.9425 
 H                    -6.26936  -1.03348  -2.3039 
 H                    -6.38846   1.08151  -0.99963 
 H                    -4.49628   2.81704   0.48204 
 H                    -5.24313   1.85196   1.76246 
 H                    -3.0933    1.88298   2.75454 
 H                     2.35856  -0.41671  -2.12281 
 
 ITRead=  0  0  0  0  0  0  0  0  0  0  0  0  0  0  0  0  0  0  0  0
 ITRead=  0  0  0  0  0  0  0  0  0  0  0  0  0  0  0  0  0  0  0  0
 ITRead=  0  0  0
 MicOpt= -1 -1 -1 -1 -1 -1 -1 -1 -1 -1 -1 -1 -1 -1 -1 -1 -1 -1 -1 -1
 MicOpt= -1 -1 -1 -1 -1 -1 -1 -1 -1 -1 -1 -1 -1 -1 -1 -1 -1 -1 -1 -1
 MicOpt= -1 -1 -1
 NAtoms=     43 NQM=       43 NQMF=       0 NMMI=      0 NMMIF=      0
                NMic=       0 NMicF=      0.
                    Isotopes and Nuclear Properties:
 (Nuclear quadrupole moments (NQMom) in fm**2, nuclear magnetic moments (NMagM)
  in nuclear magnetons)

  Atom         1           2           3           4           5           6           7           8           9          10
 IAtWgt=          12          12          12          12          12          12          12          12          16          12
 AtmWgt=  12.0000000  12.0000000  12.0000000  12.0000000  12.0000000  12.0000000  12.0000000  12.0000000  15.9949146  12.0000000
 NucSpn=           0           0           0           0           0           0           0           0           0           0
 AtZEff=  -0.0000000  -0.0000000  -0.0000000  -0.0000000  -0.0000000  -0.0000000  -0.0000000  -0.0000000  -0.0000000  -0.0000000
 NQMom=    0.0000000   0.0000000   0.0000000   0.0000000   0.0000000   0.0000000   0.0000000   0.0000000   0.0000000   0.0000000
 NMagM=    0.0000000   0.0000000   0.0000000   0.0000000   0.0000000   0.0000000   0.0000000   0.0000000   0.0000000   0.0000000
 AtZNuc=   6.0000000   6.0000000   6.0000000   6.0000000   6.0000000   6.0000000   6.0000000   6.0000000   8.0000000   6.0000000

  Atom        11          12          13          14          15          16          17          18          19          20
 IAtWgt=          12          12          14          12          12          12          12          12          12          12
 AtmWgt=  12.0000000  12.0000000  14.0030740  12.0000000  12.0000000  12.0000000  12.0000000  12.0000000  12.0000000  12.0000000
 NucSpn=           0           0           2           0           0           0           0           0           0           0
 AtZEff=  -0.0000000  -0.0000000  -0.0000000  -0.0000000  -0.0000000  -0.0000000  -0.0000000  -0.0000000  -0.0000000  -0.0000000
 NQMom=    0.0000000   0.0000000   2.0440000   0.0000000   0.0000000   0.0000000   0.0000000   0.0000000   0.0000000   0.0000000
 NMagM=    0.0000000   0.0000000   0.4037610   0.0000000   0.0000000   0.0000000   0.0000000   0.0000000   0.0000000   0.0000000
 AtZNuc=   6.0000000   6.0000000   7.0000000   6.0000000   6.0000000   6.0000000   6.0000000   6.0000000   6.0000000   6.0000000

  Atom        21          22          23          24          25          26          27          28          29          30
 IAtWgt=          12          12          16          14          12           1           1           1           1           1
 AtmWgt=  12.0000000  12.0000000  15.9949146  14.0030740  12.0000000   1.0078250   1.0078250   1.0078250   1.0078250   1.0078250
 NucSpn=           0           0           0           2           0           1           1           1           1           1
 AtZEff=  -0.0000000  -0.0000000  -0.0000000  -0.0000000  -0.0000000  -0.0000000  -0.0000000  -0.0000000  -0.0000000  -0.0000000
 NQMom=    0.0000000   0.0000000   0.0000000   2.0440000   0.0000000   0.0000000   0.0000000   0.0000000   0.0000000   0.0000000
 NMagM=    0.0000000   0.0000000   0.0000000   0.4037610   0.0000000   2.7928460   2.7928460   2.7928460   2.7928460   2.7928460
 AtZNuc=   6.0000000   6.0000000   8.0000000   7.0000000   6.0000000   1.0000000   1.0000000   1.0000000   1.0000000   1.0000000

  Atom        31          32          33          34          35          36          37          38          39          40
 IAtWgt=           1           1           1           1           1           1           1           1           1           1
 AtmWgt=   1.0078250   1.0078250   1.0078250   1.0078250   1.0078250   1.0078250   1.0078250   1.0078250   1.0078250   1.0078250
 NucSpn=           1           1           1           1           1           1           1           1           1           1
 AtZEff=  -0.0000000  -0.0000000  -0.0000000  -0.0000000  -0.0000000  -0.0000000  -0.0000000  -0.0000000  -0.0000000  -0.0000000
 NQMom=    0.0000000   0.0000000   0.0000000   0.0000000   0.0000000   0.0000000   0.0000000   0.0000000   0.0000000   0.0000000
 NMagM=    2.7928460   2.7928460   2.7928460   2.7928460   2.7928460   2.7928460   2.7928460   2.7928460   2.7928460   2.7928460
 AtZNuc=   1.0000000   1.0000000   1.0000000   1.0000000   1.0000000   1.0000000   1.0000000   1.0000000   1.0000000   1.0000000

  Atom        41          42          43
 IAtWgt=           1           1           1
 AtmWgt=   1.0078250   1.0078250   1.0078250
 NucSpn=           1           1           1
 AtZEff=  -0.0000000  -0.0000000  -0.0000000
 NQMom=    0.0000000   0.0000000   0.0000000
 NMagM=    2.7928460   2.7928460   2.7928460
 AtZNuc=   1.0000000   1.0000000   1.0000000
 Leave Link  101 at Fri Nov 18 09:55:52 2022, MaxMem=  2097152000 cpu:               1.2 elap:               0.2
 (Enter /software/gaussian/G16-A.03/avx2/g16/l103.exe)

 GradGradGradGradGradGradGradGradGradGradGradGradGradGradGradGradGradGrad
 Berny optimization.
 Initialization pass.
 Trust Radius=3.00D-01 FncErr=1.00D-07 GrdErr=1.00D-07 EigMax=2.50D+02 EigMin=1.00D-04
 Number of steps in this run=      2 maximum allowed number of steps=      2.
 GradGradGradGradGradGradGradGradGradGradGradGradGradGradGradGradGradGrad

 Leave Link  103 at Fri Nov 18 09:55:52 2022, MaxMem=  2097152000 cpu:               0.4 elap:               0.1
 (Enter /software/gaussian/G16-A.03/avx2/g16/l202.exe)
                          Input orientation:                          
 ---------------------------------------------------------------------
 Center     Atomic      Atomic             Coordinates (Angstroms)
 Number     Number       Type             X           Y           Z
 ---------------------------------------------------------------------
      1          6           0        5.493820   -0.804750    1.568670
      2          6           0        4.445800   -1.707260    1.366400
      3          6           0        3.444200   -1.436580    0.435020
      4          6           0        3.515510   -0.242810   -0.280250
      5          6           0        4.561930    0.662330   -0.087760
      6          6           0        5.562630    0.383370    0.840860
      7          6           0        4.441680    1.849880   -1.005860
      8          6           0        3.076370    1.681510   -1.674920
      9          8           0        2.096700    2.586140   -1.104860
     10          6           0        1.115960    1.847010   -0.597700
     11          6           0        0.000030    2.627420    0.000300
     12          6           0       -1.116020    1.847010    0.598080
     13          7           0       -1.231740    0.580270    0.677690
     14          6           0       -2.529430    0.282750    1.290960
     15          6           0       -3.515500   -0.242850    0.280100
     16          6           0       -3.444060   -1.436630   -0.435130
     17          6           0       -4.445450   -1.707300   -1.366730
     18          6           0       -5.493400   -0.804770   -1.569250
     19          6           0       -5.562360    0.383360   -0.841460
     20          6           0       -4.561860    0.662300    0.087380
     21          6           0       -4.441790    1.849870    1.005490
     22          6           0       -3.076650    1.681460    1.674890
     23          8           0       -2.096840    2.586120    1.105100
     24          7           0        1.231650    0.580270   -0.677420
     25          6           0        2.529250    0.282790   -1.290920
     26          1           0        6.269940   -1.033470    2.303150
     27          1           0        4.408510   -2.634700    1.942190
     28          1           0        2.622970   -2.136860    0.257740
     29          1           0        6.388780    1.081510    0.998840
     30          1           0        5.242840    1.851950   -1.763010
     31          1           0        4.496320    2.817060   -0.482430
     32          1           0        3.092750    1.883060   -2.754570
     33          1           0       -0.414910    3.300280   -0.768640
     34          1           0        0.415080    3.300010    0.769430
     35          1           0       -2.358870   -0.416760    2.122870
     36          1           0       -2.622880   -2.136930   -0.257660
     37          1           0       -4.408060   -2.634750   -1.942500
     38          1           0       -6.269360   -1.033480   -2.303900
     39          1           0       -6.388460    1.081510   -0.999630
     40          1           0       -4.496280    2.817040    0.482040
     41          1           0       -5.243130    1.851960    1.762460
     42          1           0       -3.093300    1.882980    2.754540
     43          1           0        2.358560   -0.416710   -2.122810
 ---------------------------------------------------------------------
                    Distance matrix (angstroms):
                    1          2          3          4          5
     1  C    0.000000
     2  C    1.397778   0.000000
     3  C    2.425967   1.394252   0.000000
     4  C    2.765500   2.391968   1.393479   0.000000
     5  C    2.400938   2.782629   2.434757   1.396899   0.000000
     6  C    1.395017   2.427805   2.822175   2.416545   1.393397
     7  C    3.844771   4.275615   3.724503   2.400761   1.505869
     8  C    4.748308   4.754864   3.782807   2.416807   2.400978
     9  O    5.494208   5.482580   4.513232   3.270468   3.288297
    10  C    5.557936   5.251510   4.155620   3.197806   3.679431
    11  C    6.664931   6.357716   5.344847   4.547035   4.967924
    12  C    7.187758   6.645073   5.621758   5.156538   5.840630
    13  N    6.924253   6.159673   5.098136   4.912382   5.844592
    14  C    8.101378   7.253941   6.274790   6.267872   7.234109
    15  C    9.118333   8.167426   7.063032   7.053304   8.136310
    16  C    9.181513   8.097447   6.943003   7.062918   8.283850
    17  C   10.402897   9.301845   8.097294   8.167133   9.401266
    18  C   11.426528  10.402895   9.181338   9.117992  10.269219
    19  C   11.378025  10.459857   9.276837   9.116730  10.156138
    20  C   10.269526   9.401524   8.283909   8.136233   9.125471
    21  C   10.299540   9.579806   8.562420   8.327728   9.147263
    22  C    8.924432   8.256261   7.333549   7.140165   7.905281
    23  O    8.326525   7.829912   6.879989   6.435877   7.033001
    24  N    5.012913   4.443057   3.193835   2.459923   3.383075
    25  C    4.260126   3.833381   2.602352   1.506791   2.392370
    26  H    1.092765   2.158467   3.411336   3.858236   3.392563
    27  H    2.160123   1.092277   2.153357   3.384941   3.874873
    28  H    3.425614   2.176325   1.093727   2.161825   3.422631
    29  H    2.164171   3.418700   3.915255   3.412561   2.166516
    30  H    4.268622   4.805877   4.345212   3.093585   2.164555
    31  H    4.280131   4.887760   4.476843   3.219576   2.191559
    32  H    5.628487   5.630589   4.617035   3.289424   3.280327
    33  H    7.564878   7.297969   6.227308   5.314152   5.673739
    34  H    6.578863   6.455682   5.632289   4.823491   4.988837
    35  H    7.881777   6.967149   6.128988   6.349298   7.344984
    36  H    8.425616   7.265564   6.146524   6.424020   7.712731
    37  H   10.664166   9.497362   8.291333   8.442003   9.735066
    38  H   12.386344  11.346353  10.100367  10.023173  11.184985
    39  H   12.302143  11.434882  10.250863  10.017981  10.996284
    40  H   10.681771  10.060426   9.008147   8.610026   9.328377
    41  H   11.062448  10.329583   9.383299   9.234419  10.048768
    42  H    9.075726   8.464915   7.690160   7.576629   8.256585
    43  H    4.858750   4.265756   2.959940   2.182614   3.187569
                    6          7          8          9         10
     6  C    0.000000
     7  C    2.611045   0.000000
     8  C    3.767732   1.529726   0.000000
     9  O    4.544303   2.459840   1.450199   0.000000
    10  C    4.897405   3.350674   2.242989   1.328674   0.000000
    11  C    6.056800   4.620085   3.628357   2.370466   1.487260
    12  C    6.841458   5.784519   4.771798   3.710510   2.532119
    13  N    6.799181   6.052598   5.030638   4.275455   2.956847
    14  C    8.105193   7.505175   6.494457   5.696195   4.393497
    15  C    9.116965   8.327660   7.139889   6.435689   5.156401
    16  C    9.276908   8.562230   7.333204   6.879770   5.621610
    17  C   10.459733   9.579396   8.255713   7.829555   6.644833
    18  C   11.377878  10.299048   8.923772   8.326076   7.187453
    19  C   11.251471  10.112296   8.775392   7.973884   6.841173
    20  C   10.156320   9.147090   7.904875   7.032711   5.840421
    21  C   10.112672   9.108324   7.983462   6.909958   5.784359
    22  C    8.775979   7.983738   7.005775   5.942138   4.771797
    23  O    7.974297   6.910170   5.942132   4.740222   3.710511
    24  N    4.593619   3.467575   2.368697   2.225878   1.274508
    25  C    3.708908   2.488859   1.550230   2.350987   2.219173
    26  H    2.155462   4.754555   5.778845   6.490920   6.578420
    27  H    3.413747   5.366895   5.786860   6.471951   6.113726
    28  H    3.915762   4.560536   4.303568   4.943720   4.344431
    29  H    1.093106   2.898347   4.298959   5.011129   5.562154
    30  H    3.006515   1.102333   2.174949   3.297028   4.288253
    31  H    2.968326   1.101091   2.174342   2.489763   3.518681
    32  H    4.612645   2.208778   1.098424   2.051336   2.925933
    33  H    6.843233   5.074091   3.953580   2.632722   2.117729
    34  H    5.916854   4.633362   3.959401   2.617331   2.114589
    35  H    8.064361   7.821387   6.954695   6.267994   4.959899
    36  H    8.634885   8.146316   7.005038   6.730496   5.474151
    37  H   10.782894   9.965295   8.643980   8.382794   7.239438
    38  H   12.324486  11.168037   9.752408   9.194036   8.108717
    39  H   12.112116  10.857364   9.507840   8.618174   7.554062
    40  H   10.355345   9.112430   7.955308   6.785201   5.796899
    41  H   10.943973  10.072693   9.003261   7.914142   6.782950
    42  H    8.990891   8.421260   7.597732   6.505805   5.381141
    43  H    4.437289   3.274812   2.262385   3.181494   2.999074
                   11         12         13         14         15
    11  C    0.000000
    12  C    1.487262   0.000000
    13  N    2.483332   1.274503   0.000000
    14  C    3.682587   2.219171   1.465816   0.000000
    15  C    4.547053   3.197832   2.459911   1.506794   0.000000
    16  C    5.344891   4.155669   3.193840   2.602346   1.393473
    17  C    6.357740   5.251543   4.443035   3.833373   2.391959
    18  C    6.664922   5.557941   5.012866   4.260120   2.765491
    19  C    6.056777   4.897396   4.593567   3.708908   2.416541
    20  C    4.967909   3.679425   3.383030   2.392370   1.396892
    21  C    4.620039   3.350632   3.467529   2.488871   2.400767
    22  C    3.628368   2.242988   2.368696   1.550239   2.416816
    23  O    2.370475   1.328669   2.225873   2.350998   3.270519
    24  N    2.483348   2.956871   2.811514   4.255439   4.912210
    25  C    3.682593   4.393529   4.255463   5.679467   6.267647
    26  H    7.616889   8.109059   7.843563   8.954657  10.023605
    27  H    7.134111   7.239668   6.614183   7.554510   8.442359
    28  H    5.444672   5.474221   4.734759   5.785264   6.424063
    29  H    6.648537   7.554378   7.643736   8.958673  10.018247
    30  H    5.585488   6.783058   7.035224   8.496900   9.234230
    31  H    4.526104   5.797142   6.257778   7.676510   8.610096
    32  H    4.208123   5.381014   5.672643   7.108883   7.576126
    33  H    1.102808   2.114586   3.187089   4.221212   4.823617
    34  H    1.102817   2.117743   3.180789   4.248057   5.314204
    35  H    4.397357   2.999052   2.086393   1.100218   2.182622
    36  H    5.444743   4.344502   3.192699   2.874336   2.161827
    37  H    7.134155   6.113775   5.224056   4.743029   3.384937
    38  H    7.616875   6.578421   6.072206   5.351874   3.858225
    39  H    6.648496   5.562130   5.445769   4.558172   3.412556
    40  H    4.526017   3.518605   3.962151   3.308395   3.219571
    41  H    5.585452   4.288221   4.345707   3.170000   3.093594
    42  H    4.208173   2.925961   3.078273   2.240703   3.289416
    43  H    4.397384   4.959877   4.661226   6.002959   6.348920
                   16         17         18         19         20
    16  C    0.000000
    17  C    1.394246   0.000000
    18  C    2.425957   1.397775   0.000000
    19  C    2.822173   2.427809   1.395022   0.000000
    20  C    2.434749   2.782623   2.400934   1.393396   0.000000
    21  C    3.724504   4.275617   3.844773   2.611044   1.505877
    22  C    3.782811   4.754867   4.748312   3.767736   2.400984
    23  O    4.513295   5.482642   5.494261   4.544346   3.288337
    24  N    5.097926   6.159350   6.923871   6.798842   5.844348
    25  C    6.274489   7.253457   8.100813   8.104707   7.233780
    26  H   10.100619  11.346438  12.386442  12.324744  11.185400
    27  H    8.291555   9.497454  10.664271  10.783118   9.735403
    28  H    6.146482   7.265396   8.425427   8.634777   7.712723
    29  H   10.250953  11.434768  12.302006  12.112137  10.996500
    30  H    9.382977  10.329001  11.061761  10.943416  10.048450
    31  H    9.008094  10.060172  10.681448  10.355136   9.328360
    32  H    7.689605   8.464115   9.074766   8.989995   8.255906
    33  H    5.632521   6.455914   6.579018   5.916922   4.988878
    34  H    6.227334   7.298019   7.564971   6.843362   5.673856
    35  H    2.959922   4.265749   4.858763   4.437318   3.187594
    36  H    1.093733   2.176322   3.425610   3.915766   3.422628
    37  H    2.153358   1.092279   2.160117   3.413749   3.874869
    38  H    3.411327   2.158464   1.092764   2.155462   3.392557
    39  H    3.915250   3.418700   2.164175   1.093102   2.166517
    40  H    4.476838   4.887759   4.280134   2.968329   2.191566
    41  H    4.345213   4.805877   4.268623   3.006508   2.164558
    42  H    4.617016   5.630567   5.628467   4.612628   3.280316
    43  H    6.128532   6.966479   7.881009   8.063681   7.344482
                   21         22         23         24         25
    21  C    0.000000
    22  C    1.529727   0.000000
    23  O    2.459833   1.450206   0.000000
    24  N    6.052437   5.030649   4.275472   0.000000
    25  C    7.504974   6.494492   5.696222   1.465825   0.000000
    26  H   11.168649   9.753169   9.194551   6.072258   5.351882
    27  H    9.965771   8.644554   8.383153   5.224062   4.743033
    28  H    8.146409   7.005252   6.730614   3.192662   2.874341
    29  H   10.857793   9.508488   8.618636   5.445831   4.558171
    30  H   10.072569   9.003451   7.914289   4.345724   3.169969
    31  H    9.112583   7.955721   6.785525   3.962237   3.308405
    32  H    8.420715   7.597516   6.505628   3.078231   2.240685
    33  H    4.633248   3.959328   2.617215   3.180870   4.248070
    34  H    5.074231   3.953700   2.632880   3.187028   4.221182
    35  H    3.274860   2.262393   3.181478   4.661280   6.003087
    36  H    4.560543   4.303575   4.943787   4.734636   5.785077
    37  H    5.366898   5.786867   6.472023   6.613857   7.553997
    38  H    4.754554   5.778846   6.490971   7.843136   8.954007
    39  H    2.898346   4.298963   5.011162   7.643372   8.958145
    40  H    1.101084   2.174346   2.489747   6.257529   7.676189
    41  H    1.102340   2.174942   3.297007   7.035125   8.496783
    42  H    2.208777   1.098422   2.051339   5.672794   7.109108
    43  H    7.821023   6.954592   6.267933   2.086396   1.100216
                   26         27         28         29         30
    26  H    0.000000
    27  H    2.481764   0.000000
    28  H    4.324530   2.504670   0.000000
    29  H    2.487667   4.315275   5.008838   0.000000
    30  H    5.090603   5.878320   5.182447   3.087810   0.000000
    31  H    5.072649   5.967259   5.347767   2.964405   1.768789
    32  H    6.646895   6.648378   5.045241   5.059089   2.367920
    33  H    8.538413   8.114060   6.312263   7.371372   5.924236
    34  H    7.443838   7.248699   5.890345   6.376477   5.640691
    35  H    8.652699   7.123857   5.590723   8.945929   8.833635
    36  H    9.319744   7.384278   5.271108   9.651278   8.946887
    37  H   11.602126   9.634455   7.384059  11.791260  10.644368
    38  H   13.358853  11.602159   9.319495  13.251784  11.880615
    39  H   13.252041  11.791483   9.651153  12.932585  11.681758
    40  H   11.578185  10.542713   8.676126  11.034658  10.041021
    41  H   11.881449  10.645026   8.947089  11.682382  11.062753
    42  H    9.817316   8.794686   7.420840   9.676501   9.481585
    43  H    5.938721   5.064188   2.948872   5.313383   3.687187
                   31         32         33         34         35
    31  H    0.000000
    32  H    2.829308   0.000000
    33  H    4.943238   4.272717   0.000000
    34  H    4.296151   4.647175   1.747725   0.000000
    35  H    8.014912   7.668035   5.094722   4.831250   0.000000
    36  H    8.676148   7.420465   5.890627   6.312245   2.948832
    37  H   10.542392   8.793874   7.248984   8.114100   5.064177
    38  H   11.577749   9.816232   7.443996   8.538515   5.938735
    39  H   11.034404   9.675518   6.376488   7.371531   5.313418
    40  H    9.044173   8.303092   4.295964   4.943411   4.209312
    41  H   10.041306   9.481109   5.640550   5.924382   3.687267
    42  H    8.303783   8.283569   4.647075   4.272864   2.495436
    43  H    4.209291   2.495415   4.831348   5.094720   6.346648
                   36         37         38         39         40
    36  H    0.000000
    37  H    2.504671   0.000000
    38  H    4.324525   2.481756   0.000000
    39  H    5.008839   4.315272   2.487667   0.000000
    40  H    5.347766   5.967260   5.072650   2.964415   0.000000
    41  H    5.182455   5.878319   5.090599   3.087801   1.768796
    42  H    5.045227   6.648358   6.646872   5.059074   2.829325
    43  H    5.590410   7.123157   8.651832   8.945197   8.014438
                   41         42         43
    41  H    0.000000
    42  H    2.367901   0.000000
    43  H    8.833339   7.668109   0.000000
 Stoichiometry    C21H18N2O2
 Framework group  C1[X(C21H18N2O2)]
 Deg. of freedom   123
 Full point group                 C1      NOp   1
 Largest Abelian subgroup         C1      NOp   1
 Largest concise Abelian subgroup C1      NOp   1
                         Standard orientation:                         
 ---------------------------------------------------------------------
 Center     Atomic      Atomic             Coordinates (Angstroms)
 Number     Number       Type             X           Y           Z
 ---------------------------------------------------------------------
      1          6           0       -5.517256   -1.407242   -1.484357
      2          6           0       -4.466258   -2.309783   -1.298332
      3          6           0       -3.450470   -2.039235   -0.382408
      4          6           0       -3.510780   -0.845565    0.334040
      5          6           0       -4.560029    0.059605    0.157770
      6          6           0       -5.574874   -0.219223   -0.755410
      7          6           0       -4.425687    1.247026    1.074080
      8          6           0       -3.050263    1.078559    1.722069
      9          8           0       -2.079459    1.983266    1.137156
     10          6           0       -1.106628    1.244204    0.614890
     11          6           0       -0.000010    2.024695   -0.000070
     12          6           0        1.106724    1.244365   -0.615029
     13          7           0        1.221201   -0.022364   -0.696583
     14          6           0        2.509318   -0.319802   -1.329753
     15          6           0        3.510794   -0.845546   -0.334230
     16          6           0        3.450342   -2.039425    0.381847
     17          6           0        4.465920   -2.310228    1.297919
     18          6           0        5.516861   -1.407729    1.484446
     19          6           0        5.574641   -0.219498    0.755849
     20          6           0        4.559995    0.059574   -0.157477
     21          6           0        4.425844    1.247273   -1.073469
     22          6           0        3.050583    1.078960   -1.721847
     23          8           0        2.079644    1.983543   -1.136950
     24          7           0       -1.221086   -0.022546    0.696201
     25          6           0       -2.509112   -0.320108    1.329516
     26          1           0       -6.304566   -1.635857   -2.206862
     27          1           0       -4.437820   -3.237143   -1.874756
     28          1           0       -2.626618   -2.739542   -0.217859
     29          1           0       -6.403350    0.478941   -0.900586
     30          1           0       -5.215124    1.248993    1.843446
     31          1           0       -4.488355    2.214280    0.551686
     32          1           0       -3.050058    1.279959    2.801871
     33          1           0        0.426694    2.697446    0.762501
     34          1           0       -0.426820    2.697393   -0.762641
     35          1           0        2.325998   -1.019196   -2.159042
     36          1           0        2.626529   -2.739698    0.216912
     37          1           0        4.437373   -3.237758    1.874067
     38          1           0        6.304012   -1.636543    2.207060
     39          1           0        6.403076    0.478628    0.901410
     40          1           0        4.488372    2.214370   -0.550783
     41          1           0        5.215464    1.249466   -1.842657
     42          1           0        3.050651    1.280630   -2.801597
     43          1           0       -2.325669   -1.019725    2.158589
 ---------------------------------------------------------------------
 Rotational constants (GHZ):           0.4952222           0.1052198           0.0994749
 Leave Link  202 at Fri Nov 18 09:55:53 2022, MaxMem=  2097152000 cpu:               0.6 elap:               0.1
 (Enter /software/gaussian/G16-A.03/avx2/g16/l301.exe)
 Standard basis: def2SVP (5D, 7F)
 Ernie: Thresh=  0.10000D-02 Tol=  0.10000D-05 Strict=F.
 There are   465 symmetry adapted cartesian basis functions of A   symmetry.
 There are   440 symmetry adapted basis functions of A   symmetry.
   440 basis functions,   751 primitive gaussians,   465 cartesian basis functions
    87 alpha electrons       87 beta electrons
       nuclear repulsion energy      2037.2956274442 Hartrees.
 IExCor= 1009 DFT=T Ex+Corr=PBE1PBE ExCW=0 ScaHFX=  0.250000
 ScaDFX=  0.750000  0.750000  1.000000  1.000000 ScalE2=  1.000000  1.000000
 IRadAn=      5 IRanWt=     -1 IRanGd=            0 ICorTp=0 IEmpDi=141
 NAtoms=   43 NActive=   43 NUniq=   43 SFac= 1.00D+00 NAtFMM=   60 NAOKFM=F Big=F
 Integral buffers will be    131072 words long.
 Raffenetti 2 integral format.
 Two-electron integral symmetry is turned on.
 R6Disp:  Grimme-D3(BJ) Dispersion energy=       -0.0501997583 Hartrees.
 Nuclear repulsion after empirical dispersion term =     2037.2454276859 Hartrees.
 Leave Link  301 at Fri Nov 18 09:55:53 2022, MaxMem=  2097152000 cpu:               0.7 elap:               0.2
 (Enter /software/gaussian/G16-A.03/avx2/g16/l302.exe)
 NPDir=0 NMtPBC=     1 NCelOv=     1 NCel=       1 NClECP=     1 NCelD=      1
         NCelK=      1 NCelE2=     1 NClLst=     1 CellRange=     0.0.
 One-electron integrals computed using PRISM.
 One-electron integral symmetry used in STVInt
   1 Symmetry operations used in ECPInt.
 ECPInt:  NShTT=   20910 NPrTT=   76624 LenC2=   17633 LenP2D=   43683.
 LDataN:  DoStor=T MaxTD1= 4 Len=   56
 NBasis=   440 RedAO= T EigKep=  2.68D-04  NBF=   440
 NBsUse=   440 1.00D-06 EigRej= -1.00D+00 NBFU=   440
 Precomputing XC quadrature grid using
 IXCGrd= 4 IRadAn=           5 IRanWt=          -1 IRanGd=           0 AccXCQ= 0.00D+00.
 Generated NRdTot=       0 NPtTot=           0 NUsed=           0 NTot=          32
 NSgBfM=   454   454   454   454   454 MxSgAt=    43 MxSgA2=    43.
 Leave Link  302 at Fri Nov 18 09:55:56 2022, MaxMem=  2097152000 cpu:              19.8 elap:               3.0
 (Enter /software/gaussian/G16-A.03/avx2/g16/l303.exe)
 DipDrv:  MaxL=1.
 Leave Link  303 at Fri Nov 18 09:55:56 2022, MaxMem=  2097152000 cpu:               1.3 elap:               0.3
 (Enter /software/gaussian/G16-A.03/avx2/g16/l401.exe)
 ExpMin= 1.22D-01 ExpMax= 2.27D+03 ExpMxC= 3.41D+02 IAcc=3 IRadAn=         5 AccDes= 0.00D+00
 Harris functional with IExCor= 1009 and IRadAn=       5 diagonalized for initial guess.
 HarFok:  IExCor= 1009 AccDes= 0.00D+00 IRadAn=         5 IDoV= 1 UseB2=F ITyADJ=14
 ICtDFT=  3500011 ScaDFX=  1.000000  1.000000  1.000000  1.000000
 FoFCou: FMM=F IPFlag=           0 FMFlag=      100000 FMFlg1=           0
         NFxFlg=           0 DoJE=T BraDBF=F KetDBF=T FulRan=T
         wScrn=  0.000000 ICntrl=       500 IOpCl=  0 I1Cent=   200000004 NGrid=           0
         NMat0=    1 NMatS0=      1 NMatT0=    0 NMatD0=    1 NMtDS0=    0 NMtDT0=    0
 Petite list used in FoFCou.
 Harris En= -1069.28252933219    
 JPrj=0 DoOrth=F DoCkMO=F.
 Leave Link  401 at Fri Nov 18 09:56:01 2022, MaxMem=  2097152000 cpu:              30.4 elap:               4.4
 (Enter /software/gaussian/G16-A.03/avx2/g16/l502.exe)
 Integral symmetry usage will be decided dynamically.
 Closed shell SCF:
 Using DIIS extrapolation, IDIIS=  1040.
 NGot=  2097152000 LenX=  2096710891 LenY=  2096494201
 Requested convergence on RMS density matrix=1.00D-08 within 128 cycles.
 Requested convergence on MAX density matrix=1.00D-06.
 Requested convergence on             energy=1.00D-06.
 No special actions if energy rises.
 Fock matrices will be formed incrementally for  20 cycles.
 Integral accuracy reduced to 1.0D-05 until final iterations.

 Cycle   1  Pass 0  IDiag  1:
 FoFJK:  IHMeth= 1 ICntrl=       0 DoSepK=F KAlg= 0 I1Cent=           0 FoldK=F
 IRaf= 760000000 NMat=       1 IRICut=       1 DoRegI=T DoRafI=F ISym2E= 0 IDoP0=0 IntGTp=1.
 FoFCou: FMM=F IPFlag=           0 FMFlag=      100000 FMFlg1=           0
         NFxFlg=           0 DoJE=F BraDBF=F KetDBF=F FulRan=T
         wScrn=  0.000000 ICntrl=         0 IOpCl=  0 I1Cent=           0 NGrid=           0
         NMat0=    1 NMatS0=      1 NMatT0=    0 NMatD0=    1 NMtDS0=    0 NMtDT0=    0
 Symmetry not used in FoFCou.
 E= -1068.67783324562    
 DIIS: error= 2.30D-02 at cycle   1 NSaved=   1.
 NSaved= 1 IEnMin= 1 EnMin= -1068.67783324562     IErMin= 1 ErrMin= 2.30D-02
 ErrMax= 2.30D-02  0.00D+00 EMaxC= 1.00D-01 BMatC= 3.68D-01 BMatP= 3.68D-01
 IDIUse=3 WtCom= 7.70D-01 WtEn= 2.30D-01
 Coeff-Com:  0.100D+01
 Coeff-En:   0.100D+01
 Coeff:      0.100D+01
 Gap=     0.271 Goal=   None    Shift=    0.000
 GapD=    0.271 DampG=1.000 DampE=0.500 DampFc=0.5000 IDamp=-1.
 Damping current iteration by 5.00D-01
 RMSDP=4.55D-03 MaxDP=2.28D-01              OVMax= 2.37D-01

 Cycle   2  Pass 0  IDiag  1:
 RMSU=  2.23D-03    CP:  9.73D-01
 E= -1068.84961591380     Delta-E=       -0.171782668175 Rises=F Damp=T
 DIIS: error= 5.57D-03 at cycle   2 NSaved=   2.
 NSaved= 2 IEnMin= 2 EnMin= -1068.84961591380     IErMin= 2 ErrMin= 5.57D-03
 ErrMax= 5.57D-03  0.00D+00 EMaxC= 1.00D-01 BMatC= 3.65D-02 BMatP= 3.68D-01
 IDIUse=3 WtCom= 9.44D-01 WtEn= 5.57D-02
 Coeff-Com:  0.735D-01 0.927D+00
 Coeff-En:   0.108D+00 0.892D+00
 Coeff:      0.754D-01 0.925D+00
 Gap=     0.296 Goal=   None    Shift=    0.000
 RMSDP=1.67D-03 MaxDP=6.59D-02 DE=-1.72D-01 OVMax= 1.96D-01

 Cycle   3  Pass 0  IDiag  1:
 RMSU=  1.62D-03    CP:  9.51D-01  9.01D-01
 E= -1069.02481656486     Delta-E=       -0.175200651062 Rises=F Damp=F
 DIIS: error= 1.21D-02 at cycle   3 NSaved=   3.
 NSaved= 3 IEnMin= 3 EnMin= -1069.02481656486     IErMin= 2 ErrMin= 5.57D-03
 ErrMax= 1.21D-02  0.00D+00 EMaxC= 1.00D-01 BMatC= 6.13D-02 BMatP= 3.65D-02
 IDIUse=2 WtCom= 0.00D+00 WtEn= 1.00D+00
 Coeff-En:   0.000D+00 0.000D+00 0.100D+01
 Coeff:      0.000D+00 0.000D+00 0.100D+01
 Gap=     0.235 Goal=   None    Shift=    0.000
 RMSDP=2.34D-03 MaxDP=1.05D-01 DE=-1.75D-01 OVMax= 2.34D-01

 Cycle   4  Pass 0  IDiag  1:
 RMSU=  1.31D-03    CP:  9.61D-01  1.43D+00  5.44D-02
 E= -1068.78422640630     Delta-E=        0.240590158556 Rises=F Damp=F
 DIIS: error= 2.69D-02 at cycle   4 NSaved=   4.
 NSaved= 4 IEnMin= 3 EnMin= -1069.02481656486     IErMin= 2 ErrMin= 5.57D-03
 ErrMax= 2.69D-02  0.00D+00 EMaxC= 1.00D-01 BMatC= 3.24D-01 BMatP= 3.65D-02
 IDIUse=2 WtCom= 0.00D+00 WtEn= 1.00D+00
 Coeff-En:   0.000D+00 0.000D+00 0.785D+00 0.215D+00
 Coeff:      0.000D+00 0.000D+00 0.785D+00 0.215D+00
 Gap=     0.218 Goal=   None    Shift=    0.000
 RMSDP=1.29D-03 MaxDP=7.40D-02 DE= 2.41D-01 OVMax= 1.13D-01

 Cycle   5  Pass 0  IDiag  1:
 RMSU=  2.08D-04    CP:  9.55D-01  1.12D+00  5.55D-01  4.77D-01
 E= -1069.05852504299     Delta-E=       -0.274298636689 Rises=F Damp=F
 DIIS: error= 7.51D-03 at cycle   5 NSaved=   5.
 NSaved= 5 IEnMin= 5 EnMin= -1069.05852504299     IErMin= 2 ErrMin= 5.57D-03
 ErrMax= 7.51D-03  0.00D+00 EMaxC= 1.00D-01 BMatC= 2.48D-02 BMatP= 3.65D-02
 IDIUse=3 WtCom= 9.25D-01 WtEn= 7.51D-02
 Coeff-Com: -0.204D-02 0.198D-01 0.281D+00-0.108D+00 0.809D+00
 Coeff-En:   0.000D+00 0.000D+00 0.334D+00 0.000D+00 0.666D+00
 Coeff:     -0.189D-02 0.183D-01 0.285D+00-0.100D+00 0.799D+00
 Gap=     0.236 Goal=   None    Shift=    0.000
 RMSDP=4.38D-04 MaxDP=2.13D-02 DE=-2.74D-01 OVMax= 4.16D-02

 Cycle   6  Pass 0  IDiag  1:
 RMSU=  4.86D-05    CP:  9.53D-01  1.03D+00  7.31D-01  2.86D-01  9.40D-01
 E= -1069.08079761951     Delta-E=       -0.022272576524 Rises=F Damp=F
 DIIS: error= 2.16D-04 at cycle   6 NSaved=   6.
 NSaved= 6 IEnMin= 6 EnMin= -1069.08079761951     IErMin= 6 ErrMin= 2.16D-04
 ErrMax= 2.16D-04  0.00D+00 EMaxC= 1.00D-01 BMatC= 5.28D-05 BMatP= 2.48D-02
 IDIUse=3 WtCom= 9.98D-01 WtEn= 2.16D-03
 Coeff-Com: -0.187D-02 0.711D-02 0.121D+00-0.669D-01 0.427D+00 0.514D+00
 Coeff-En:   0.000D+00 0.000D+00 0.000D+00 0.000D+00 0.000D+00 0.100D+01
 Coeff:     -0.187D-02 0.710D-02 0.121D+00-0.668D-01 0.426D+00 0.515D+00
 Gap=     0.235 Goal=   None    Shift=    0.000
 RMSDP=2.73D-05 MaxDP=1.14D-03 DE=-2.23D-02 OVMax= 1.72D-03

 Cycle   7  Pass 0  IDiag  1:
 RMSU=  1.67D-05    CP:  9.53D-01  1.03D+00  7.30D-01  2.89D-01  9.35D-01
                    CP:  5.87D-01
 E= -1069.08084580017     Delta-E=       -0.000048180660 Rises=F Damp=F
 DIIS: error= 1.02D-04 at cycle   7 NSaved=   7.
 NSaved= 7 IEnMin= 7 EnMin= -1069.08084580017     IErMin= 7 ErrMin= 1.02D-04
 ErrMax= 1.02D-04  0.00D+00 EMaxC= 1.00D-01 BMatC= 5.50D-06 BMatP= 5.28D-05
 IDIUse=3 WtCom= 9.99D-01 WtEn= 1.02D-03
 Coeff-Com: -0.519D-03 0.104D-02 0.383D-01-0.234D-01 0.142D+00 0.280D+00
 Coeff-Com:  0.563D+00
 Coeff-En:   0.000D+00 0.000D+00 0.000D+00 0.000D+00 0.000D+00 0.305D-01
 Coeff-En:   0.969D+00
 Coeff:     -0.518D-03 0.103D-02 0.382D-01-0.233D-01 0.142D+00 0.279D+00
 Coeff:      0.564D+00
 Gap=     0.235 Goal=   None    Shift=    0.000
 RMSDP=7.72D-06 MaxDP=3.38D-04 DE=-4.82D-05 OVMax= 5.50D-04

 Initial convergence to 1.0D-05 achieved.  Increase integral accuracy.
 Cycle   8  Pass 1  IDiag  1:
 E= -1069.08086198484     Delta-E=       -0.000016184671 Rises=F Damp=F
 DIIS: error= 1.84D-04 at cycle   1 NSaved=   1.
 NSaved= 1 IEnMin= 1 EnMin= -1069.08086198484     IErMin= 1 ErrMin= 1.84D-04
 ErrMax= 1.84D-04  0.00D+00 EMaxC= 1.00D-01 BMatC= 4.21D-06 BMatP= 4.21D-06
 IDIUse=3 WtCom= 9.98D-01 WtEn= 1.84D-03
 Coeff-Com:  0.100D+01
 Coeff-En:   0.100D+01
 Coeff:      0.100D+01
 Gap=     0.235 Goal=   None    Shift=    0.000
 RMSDP=7.72D-06 MaxDP=3.38D-04 DE=-1.62D-05 OVMax= 5.51D-04

 Cycle   9  Pass 1  IDiag  1:
 RMSU=  1.50D-04    CP:  9.99D-01
 E= -1069.08086575463     Delta-E=       -0.000003769784 Rises=F Damp=F
 DIIS: error= 3.37D-05 at cycle   2 NSaved=   2.
 NSaved= 2 IEnMin= 2 EnMin= -1069.08086575463     IErMin= 2 ErrMin= 3.37D-05
 ErrMax= 3.37D-05  0.00D+00 EMaxC= 1.00D-01 BMatC= 1.10D-06 BMatP= 4.21D-06
 IDIUse=1 WtCom= 1.00D+00 WtEn= 0.00D+00
 Coeff-Com:  0.259D+00 0.741D+00
 Coeff:      0.259D+00 0.741D+00
 Gap=     0.235 Goal=   None    Shift=    0.000
 RMSDP=6.93D-06 MaxDP=2.47D-04 DE=-3.77D-06 OVMax= 5.13D-04

 Cycle  10  Pass 1  IDiag  1:
 RMSU=  6.78D-06    CP:  9.99D-01  1.01D+00
 E= -1069.08086529772     Delta-E=        0.000000456909 Rises=F Damp=F
 DIIS: error= 4.68D-05 at cycle   3 NSaved=   3.
 NSaved= 3 IEnMin= 2 EnMin= -1069.08086575463     IErMin= 2 ErrMin= 3.37D-05
 ErrMax= 4.68D-05  0.00D+00 EMaxC= 1.00D-01 BMatC= 1.55D-06 BMatP= 1.10D-06
 IDIUse=1 WtCom= 1.00D+00 WtEn= 0.00D+00
 Coeff-Com:  0.112D-01 0.541D+00 0.448D+00
 Coeff:      0.112D-01 0.541D+00 0.448D+00
 Gap=     0.235 Goal=   None    Shift=    0.000
 RMSDP=4.19D-06 MaxDP=1.62D-04 DE= 4.57D-07 OVMax= 3.42D-04

 Cycle  11  Pass 1  IDiag  1:
 RMSU=  1.34D-06    CP:  9.99D-01  1.02D+00  4.40D-01
 E= -1069.08086680271     Delta-E=       -0.000001504995 Rises=F Damp=F
 DIIS: error= 1.25D-05 at cycle   4 NSaved=   4.
 NSaved= 4 IEnMin= 4 EnMin= -1069.08086680271     IErMin= 4 ErrMin= 1.25D-05
 ErrMax= 1.25D-05  0.00D+00 EMaxC= 1.00D-01 BMatC= 7.37D-08 BMatP= 1.10D-06
 IDIUse=1 WtCom= 1.00D+00 WtEn= 0.00D+00
 Coeff-Com: -0.502D-02 0.313D+00 0.287D+00 0.404D+00
 Coeff:     -0.502D-02 0.313D+00 0.287D+00 0.404D+00
 Gap=     0.235 Goal=   None    Shift=    0.000
 RMSDP=7.17D-07 MaxDP=2.32D-05 DE=-1.50D-06 OVMax= 5.43D-05

 Cycle  12  Pass 1  IDiag  1:
 RMSU=  3.16D-07    CP:  9.99D-01  1.02D+00  4.64D-01  5.37D-01
 E= -1069.08086686819     Delta-E=       -0.000000065476 Rises=F Damp=F
 DIIS: error= 1.06D-06 at cycle   5 NSaved=   5.
 NSaved= 5 IEnMin= 5 EnMin= -1069.08086686819     IErMin= 5 ErrMin= 1.06D-06
 ErrMax= 1.06D-06  0.00D+00 EMaxC= 1.00D-01 BMatC= 7.16D-10 BMatP= 7.37D-08
 IDIUse=1 WtCom= 1.00D+00 WtEn= 0.00D+00
 Coeff-Com: -0.311D-02 0.179D+00 0.165D+00 0.239D+00 0.421D+00
 Coeff:     -0.311D-02 0.179D+00 0.165D+00 0.239D+00 0.421D+00
 Gap=     0.235 Goal=   None    Shift=    0.000
 RMSDP=8.44D-08 MaxDP=2.55D-06 DE=-6.55D-08 OVMax= 6.54D-06

 Cycle  13  Pass 1  IDiag  1:
 RMSU=  8.17D-08    CP:  9.99D-01  1.02D+00  4.65D-01  5.42D-01  9.56D-01
 E= -1069.08086686887     Delta-E=       -0.000000000678 Rises=F Damp=F
 DIIS: error= 1.68D-07 at cycle   6 NSaved=   6.
 NSaved= 6 IEnMin= 6 EnMin= -1069.08086686887     IErMin= 6 ErrMin= 1.68D-07
 ErrMax= 1.68D-07  0.00D+00 EMaxC= 1.00D-01 BMatC= 1.95D-11 BMatP= 7.16D-10
 IDIUse=1 WtCom= 1.00D+00 WtEn= 0.00D+00
 Coeff-Com: -0.778D-03 0.422D-01 0.389D-01 0.581D-01 0.170D+00 0.691D+00
 Coeff:     -0.778D-03 0.422D-01 0.389D-01 0.581D-01 0.170D+00 0.691D+00
 Gap=     0.235 Goal=   None    Shift=    0.000
 RMSDP=2.06D-08 MaxDP=6.38D-07 DE=-6.78D-10 OVMax= 1.28D-06

 Cycle  14  Pass 1  IDiag  1:
 RMSU=  1.38D-08    CP:  9.99D-01  1.02D+00  4.65D-01  5.46D-01  9.81D-01
                    CP:  8.71D-01
 E= -1069.08086686888     Delta-E=       -0.000000000011 Rises=F Damp=F
 DIIS: error= 8.37D-08 at cycle   7 NSaved=   7.
 NSaved= 7 IEnMin= 7 EnMin= -1069.08086686888     IErMin= 7 ErrMin= 8.37D-08
 ErrMax= 8.37D-08  0.00D+00 EMaxC= 1.00D-01 BMatC= 4.69D-12 BMatP= 1.95D-11
 IDIUse=1 WtCom= 1.00D+00 WtEn= 0.00D+00
 Coeff-Com:  0.122D-04-0.197D-02-0.183D-02-0.145D-02 0.315D-01 0.376D+00
 Coeff-Com:  0.598D+00
 Coeff:      0.122D-04-0.197D-02-0.183D-02-0.145D-02 0.315D-01 0.376D+00
 Coeff:      0.598D+00
 Gap=     0.235 Goal=   None    Shift=    0.000
 RMSDP=9.43D-09 MaxDP=4.90D-07 DE=-1.14D-11 OVMax= 3.56D-07

 SCF Done:  E(RPBE1PBE) =  -1069.08086687     A.U. after   14 cycles
            NFock= 14  Conv=0.94D-08     -V/T= 2.0097
 KE= 1.058843071847D+03 PE=-6.559170228478D+03 EE= 2.394000862077D+03
 Leave Link  502 at Fri Nov 18 09:58:07 2022, MaxMem=  2097152000 cpu:             756.1 elap:             126.1
 (Enter /software/gaussian/G16-A.03/avx2/g16/l801.exe)
 DoSCS=F DFT=T ScalE2(SS,OS)=  1.000000  1.000000
 Range of M.O.s used for correlation:     1   440
 NBasis=   440 NAE=    87 NBE=    87 NFC=     0 NFV=     0
 NROrb=    440 NOA=    87 NOB=    87 NVA=   353 NVB=   353
 Leave Link  801 at Fri Nov 18 09:58:07 2022, MaxMem=  2097152000 cpu:               0.4 elap:               0.1
 (Enter /software/gaussian/G16-A.03/avx2/g16/l1101.exe)
 Using compressed storage, NAtomX=    43.
 Will process     44 centers per pass.
   1 Symmetry operations used in ECPInt.
 ECPInt:  NShTT=   20910 NPrTT=   76624 LenC2=   17633 LenP2D=   43683.
 LDataN:  DoStor=T MaxTD1= 5 Len=  102
 R6Disp: Adding Grimme-D3(BJ) dispersion energy 1st derivatives to the gradient.
 Leave Link 1101 at Fri Nov 18 09:58:10 2022, MaxMem=  2097152000 cpu:              18.9 elap:               2.8
 (Enter /software/gaussian/G16-A.03/avx2/g16/l1102.exe)
 Symmetrizing basis deriv contribution to polar:
 IMax=3 JMax=2 DiffMx= 0.00D+00
 Leave Link 1102 at Fri Nov 18 09:58:10 2022, MaxMem=  2097152000 cpu:               1.3 elap:               0.3
 (Enter /software/gaussian/G16-A.03/avx2/g16/l1110.exe)
 Forming Gx(P) for the SCF density, NAtomX=    43.
 Integral derivatives from FoFJK, PRISM(SPDF).
 Do as many integral derivatives as possible in FoFJK.
 G2DrvN: MDV=    2097148768.
 G2DrvN: will do    44 centers at a time, making    1 passes.
 Calling FoFCou, ICntrl=  3107 FMM=F I1Cent=   0 AccDes= 0.00D+00.
 FoFJK:  IHMeth= 1 ICntrl=    3107 DoSepK=F KAlg= 0 I1Cent=           0 FoldK=F
 IRaf=         0 NMat=       1 IRICut=       1 DoRegI=T DoRafI=F ISym2E= 0 IDoP0=0 IntGTp=1.
 FoFCou: FMM=F IPFlag=           0 FMFlag=      100000 FMFlg1=           0
         NFxFlg=           0 DoJE=F BraDBF=F KetDBF=F FulRan=T
         wScrn=  0.000000 ICntrl=      3107 IOpCl=  0 I1Cent=           0 NGrid=           0
         NMat0=    1 NMatS0=      1 NMatT0=    0 NMatD0=    1 NMtDS0=    0 NMtDT0=    0
 Symmetry not used in FoFCou.
 End of G2Drv F.D. properties file   721 does not exist.
 End of G2Drv F.D. properties file   722 does not exist.
 End of G2Drv F.D. properties file   788 does not exist.
 Leave Link 1110 at Fri Nov 18 10:02:56 2022, MaxMem=  2097152000 cpu:            1713.1 elap:             285.6
 (Enter /software/gaussian/G16-A.03/avx2/g16/l1002.exe)
 Minotr:  Closed shell wavefunction.
          IDoAtm=1111111111111111111111111111111111111111111
          Direct CPHF calculation.
          Differentiating once with respect to electric field.
                with respect to dipole field.
          Differentiating once with respect to nuclear coordinates.
          Requested convergence is 1.0D-08 RMS, and 1.0D-07 maximum.
          Secondary convergence is 1.0D-12 RMS, and 1.0D-12 maximum.
          NewPWx=T KeepS1=F KeepF1=F KeepIn=T MapXYZ=F SortEE=F KeepMc=T.
        13095 words used for storage of precomputed grid.
 Two-electron integrals replicated using symmetry.
          MDV=    2097152000 using IRadAn=       1.
          Solving linear equations simultaneously, MaxMat=     384.
 FoF2E skips out because all densities are zero.
 CalDSu exits because no D1Ps are significant.
 FoFJK:  IHMeth= 1 ICntrl=       0 DoSepK=F KAlg= 0 I1Cent=           0 FoldK=F
 IRaf= 720000000 NMat=     129 IRICut=     322 DoRegI=T DoRafI=T ISym2E= 2 IDoP0=3 IntGTp=3.
 FoFCou: FMM=F IPFlag=           0 FMFlag=      100000 FMFlg1=           0
         NFxFlg=           0 DoJE=F BraDBF=F KetDBF=F FulRan=T
         wScrn=  0.000000 ICntrl=         0 IOpCl=  0 I1Cent=           0 NGrid=           0
         NMat0=  129 NMatS0=    129 NMatT0=    0 NMatD0=  129 NMtDS0=    0 NMtDT0=    0
 Integrals replicated using symmetry in FoFCou.
 Raff kept on since  66.38% of shell-pairs survive, threshold=   0.20 IRatSp=66.
          There are   132 degrees of freedom in the 1st order CPHF.  IDoFFX=6 NUNeed=     3.
    129 vectors produced by pass  0 Test12= 3.07D-14 1.00D-09 XBig12= 2.39D+02 4.89D+00.
 AX will form   129 AO Fock derivatives at one time.
    129 vectors produced by pass  1 Test12= 3.07D-14 1.00D-09 XBig12= 7.69D+01 1.58D+00.
    129 vectors produced by pass  2 Test12= 3.07D-14 1.00D-09 XBig12= 7.49D-01 8.13D-02.
    129 vectors produced by pass  3 Test12= 3.07D-14 1.00D-09 XBig12= 4.89D-03 6.82D-03.
    129 vectors produced by pass  4 Test12= 3.07D-14 1.00D-09 XBig12= 1.40D-05 4.85D-04.
    111 vectors produced by pass  5 Test12= 3.07D-14 1.00D-09 XBig12= 2.17D-08 1.73D-05.
     33 vectors produced by pass  6 Test12= 3.07D-14 1.00D-09 XBig12= 2.50D-11 3.36D-07.
      3 vectors produced by pass  7 Test12= 3.07D-14 1.00D-09 XBig12= 2.96D-14 1.25D-08.
      1 vectors produced by pass  8 Test12= 3.07D-14 1.00D-09 XBig12= 5.44D-16 1.94D-09.
 InvSVY:  IOpt=1 It=  1 EMax= 8.59D-15
 Solved reduced A of dimension   793 with   132 vectors.
 FullF1:  Do perturbations      1 to       3.
 Isotropic polarizability for W=    0.000000      221.47 Bohr**3.
 End of Minotr F.D. properties file   721 does not exist.
 End of Minotr F.D. properties file   722 does not exist.
 End of Minotr F.D. properties file   788 does not exist.
 Leave Link 1002 at Fri Nov 18 10:14:09 2022, MaxMem=  2097152000 cpu:            5286.2 elap:             673.3
 (Enter /software/gaussian/G16-A.03/avx2/g16/l601.exe)
 Copying SCF densities to generalized density rwf, IOpCl= 0 IROHF=0.

 **********************************************************************

            Population analysis using the SCF density.

 **********************************************************************

 Orbital symmetries:
       Occupied  (A) (A) (A) (A) (A) (A) (A) (A) (A) (A) (A) (A)
                 (A) (A) (A) (A) (A) (A) (A) (A) (A) (A) (A) (A)
                 (A) (A) (A) (A) (A) (A) (A) (A) (A) (A) (A) (A)
                 (A) (A) (A) (A) (A) (A) (A) (A) (A) (A) (A) (A)
                 (A) (A) (A) (A) (A) (A) (A) (A) (A) (A) (A) (A)
                 (A) (A) (A) (A) (A) (A) (A) (A) (A) (A) (A) (A)
                 (A) (A) (A) (A) (A) (A) (A) (A) (A) (A) (A) (A)
                 (A) (A) (A)
       Virtual   (A) (A) (A) (A) (A) (A) (A) (A) (A) (A) (A) (A)
                 (A) (A) (A) (A) (A) (A) (A) (A) (A) (A) (A) (A)
                 (A) (A) (A) (A) (A) (A) (A) (A) (A) (A) (A) (A)
                 (A) (A) (A) (A) (A) (A) (A) (A) (A) (A) (A) (A)
                 (A) (A) (A) (A) (A) (A) (A) (A) (A) (A) (A) (A)
                 (A) (A) (A) (A) (A) (A) (A) (A) (A) (A) (A) (A)
                 (A) (A) (A) (A) (A) (A) (A) (A) (A) (A) (A) (A)
                 (A) (A) (A) (A) (A) (A) (A) (A) (A) (A) (A) (A)
                 (A) (A) (A) (A) (A) (A) (A) (A) (A) (A) (A) (A)
                 (A) (A) (A) (A) (A) (A) (A) (A) (A) (A) (A) (A)
                 (A) (A) (A) (A) (A) (A) (A) (A) (A) (A) (A) (A)
                 (A) (A) (A) (A) (A) (A) (A) (A) (A) (A) (A) (A)
                 (A) (A) (A) (A) (A) (A) (A) (A) (A) (A) (A) (A)
                 (A) (A) (A) (A) (A) (A) (A) (A) (A) (A) (A) (A)
                 (A) (A) (A) (A) (A) (A) (A) (A) (A) (A) (A) (A)
                 (A) (A) (A) (A) (A) (A) (A) (A) (A) (A) (A) (A)
                 (A) (A) (A) (A) (A) (A) (A) (A) (A) (A) (A) (A)
                 (A) (A) (A) (A) (A) (A) (A) (A) (A) (A) (A) (A)
                 (A) (A) (A) (A) (A) (A) (A) (A) (A) (A) (A) (A)
                 (A) (A) (A) (A) (A) (A) (A) (A) (A) (A) (A) (A)
                 (A) (A) (A) (A) (A) (A) (A) (A) (A) (A) (A) (A)
                 (A) (A) (A) (A) (A) (A) (A) (A) (A) (A) (A) (A)
                 (A) (A) (A) (A) (A) (A) (A) (A) (A) (A) (A) (A)
                 (A) (A) (A) (A) (A) (A) (A) (A) (A) (A) (A) (A)
                 (A) (A) (A) (A) (A) (A) (A) (A) (A) (A) (A) (A)
                 (A) (A) (A) (A) (A) (A) (A) (A) (A) (A) (A) (A)
                 (A) (A) (A) (A) (A) (A) (A) (A) (A) (A) (A) (A)
                 (A) (A) (A) (A) (A) (A) (A) (A) (A) (A) (A) (A)
                 (A) (A) (A) (A) (A) (A) (A) (A) (A) (A) (A) (A)
                 (A) (A) (A) (A) (A)
 The electronic state is 1-A.
 Alpha  occ. eigenvalues --  -19.24413 -19.24407 -14.35434 -14.35430 -10.31545
 Alpha  occ. eigenvalues --  -10.31543 -10.29420 -10.29419 -10.26323 -10.26322
 Alpha  occ. eigenvalues --  -10.26028 -10.24310 -10.24310 -10.24007 -10.24007
 Alpha  occ. eigenvalues --  -10.23688 -10.23688 -10.23635 -10.23635 -10.23521
 Alpha  occ. eigenvalues --  -10.23521 -10.23484 -10.23484 -10.23453 -10.23452
 Alpha  occ. eigenvalues --   -1.11905  -1.11710  -0.92012  -0.91428  -0.89021
 Alpha  occ. eigenvalues --   -0.88299  -0.84167  -0.83009  -0.79541  -0.76953
 Alpha  occ. eigenvalues --   -0.76561  -0.74296  -0.72940  -0.70770  -0.69641
 Alpha  occ. eigenvalues --   -0.65090  -0.63814  -0.60896  -0.60675  -0.59162
 Alpha  occ. eigenvalues --   -0.59064  -0.58440  -0.55743  -0.53663  -0.53313
 Alpha  occ. eigenvalues --   -0.51500  -0.50914  -0.50334  -0.48767  -0.47433
 Alpha  occ. eigenvalues --   -0.46916  -0.46133  -0.46041  -0.45611  -0.44760
 Alpha  occ. eigenvalues --   -0.44455  -0.43166  -0.42864  -0.42413  -0.42327
 Alpha  occ. eigenvalues --   -0.41698  -0.41032  -0.40385  -0.39596  -0.38302
 Alpha  occ. eigenvalues --   -0.37452  -0.36391  -0.36382  -0.36245  -0.35786
 Alpha  occ. eigenvalues --   -0.34968  -0.34856  -0.34753  -0.34186  -0.28385
 Alpha  occ. eigenvalues --   -0.26300  -0.26165  -0.25962  -0.25651  -0.25115
 Alpha  occ. eigenvalues --   -0.24691  -0.24408
 Alpha virt. eigenvalues --   -0.00894  -0.00832   0.00055   0.00059   0.03430
 Alpha virt. eigenvalues --    0.03938   0.07681   0.07951   0.08229   0.08343
 Alpha virt. eigenvalues --    0.09325   0.09990   0.10337   0.11560   0.12083
 Alpha virt. eigenvalues --    0.12733   0.12746   0.13426   0.14142   0.14362
 Alpha virt. eigenvalues --    0.14764   0.15743   0.16024   0.16262   0.16479
 Alpha virt. eigenvalues --    0.16820   0.17880   0.18251   0.18770   0.18993
 Alpha virt. eigenvalues --    0.20930   0.21292   0.22201   0.22591   0.24963
 Alpha virt. eigenvalues --    0.26623   0.26997   0.27941   0.28385   0.29475
 Alpha virt. eigenvalues --    0.30904   0.31213   0.32155   0.32685   0.32985
 Alpha virt. eigenvalues --    0.33174   0.33340   0.35203   0.36991   0.37462
 Alpha virt. eigenvalues --    0.37546   0.38166   0.40725   0.40884   0.41283
 Alpha virt. eigenvalues --    0.42048   0.43540   0.44740   0.45131   0.46272
 Alpha virt. eigenvalues --    0.46359   0.47663   0.48069   0.48202   0.48491
 Alpha virt. eigenvalues --    0.49626   0.49723   0.49930   0.50099   0.50429
 Alpha virt. eigenvalues --    0.51414   0.51739   0.52204   0.52218   0.53144
 Alpha virt. eigenvalues --    0.53621   0.54529   0.54850   0.56485   0.56669
 Alpha virt. eigenvalues --    0.57814   0.59043   0.59245   0.59446   0.60632
 Alpha virt. eigenvalues --    0.60970   0.61133   0.62268   0.62493   0.62778
 Alpha virt. eigenvalues --    0.63182   0.64254   0.64727   0.64754   0.65135
 Alpha virt. eigenvalues --    0.65855   0.65919   0.66368   0.66871   0.67039
 Alpha virt. eigenvalues --    0.67046   0.67158   0.67249   0.67450   0.68220
 Alpha virt. eigenvalues --    0.68311   0.69006   0.69028   0.69298   0.69603
 Alpha virt. eigenvalues --    0.69898   0.70414   0.71298   0.71323   0.72003
 Alpha virt. eigenvalues --    0.72626   0.72657   0.74046   0.74758   0.75630
 Alpha virt. eigenvalues --    0.76064   0.77423   0.77439   0.77547   0.77666
 Alpha virt. eigenvalues --    0.78683   0.79508   0.80927   0.81851   0.82327
 Alpha virt. eigenvalues --    0.83033   0.83872   0.84268   0.86465   0.87429
 Alpha virt. eigenvalues --    0.88473   0.89174   0.90694   0.90893   0.91804
 Alpha virt. eigenvalues --    0.92930   0.95074   0.96004   0.96961   1.02018
 Alpha virt. eigenvalues --    1.02430   1.03457   1.04714   1.06671   1.08412
 Alpha virt. eigenvalues --    1.08952   1.09603   1.10404   1.12687   1.12698
 Alpha virt. eigenvalues --    1.13979   1.14446   1.18851   1.19973   1.21634
 Alpha virt. eigenvalues --    1.22259   1.22268   1.23368   1.25942   1.26335
 Alpha virt. eigenvalues --    1.26686   1.27083   1.28017   1.28077   1.29549
 Alpha virt. eigenvalues --    1.30273   1.30814   1.32880   1.34228   1.36857
 Alpha virt. eigenvalues --    1.38962   1.39228   1.42772   1.45503   1.47745
 Alpha virt. eigenvalues --    1.47749   1.49881   1.51549   1.51933   1.52150
 Alpha virt. eigenvalues --    1.53459   1.53879   1.55797   1.57099   1.57729
 Alpha virt. eigenvalues --    1.57786   1.61357   1.61815   1.62423   1.62826
 Alpha virt. eigenvalues --    1.66298   1.66566   1.67494   1.68360   1.69364
 Alpha virt. eigenvalues --    1.69509   1.71189   1.72011   1.72484   1.72734
 Alpha virt. eigenvalues --    1.73348   1.74258   1.74540   1.75187   1.75673
 Alpha virt. eigenvalues --    1.76089   1.76718   1.76738   1.77588   1.77972
 Alpha virt. eigenvalues --    1.78083   1.78860   1.79347   1.80847   1.81173
 Alpha virt. eigenvalues --    1.81218   1.81992   1.82196   1.82654   1.84203
 Alpha virt. eigenvalues --    1.84709   1.85072   1.85281   1.87302   1.87751
 Alpha virt. eigenvalues --    1.88519   1.90566   1.90838   1.91732   1.92394
 Alpha virt. eigenvalues --    1.93888   1.94024   1.94584   1.95368   1.96580
 Alpha virt. eigenvalues --    1.96591   1.98366   1.98488   2.00248   2.00571
 Alpha virt. eigenvalues --    2.00821   2.01526   2.02460   2.03342   2.03366
 Alpha virt. eigenvalues --    2.05219   2.05933   2.06225   2.06408   2.09206
 Alpha virt. eigenvalues --    2.10131   2.10974   2.11152   2.13067   2.14018
 Alpha virt. eigenvalues --    2.16246   2.16306   2.16623   2.17152   2.18911
 Alpha virt. eigenvalues --    2.19088   2.22298   2.22489   2.23280   2.24622
 Alpha virt. eigenvalues --    2.27086   2.27695   2.28695   2.29045   2.29422
 Alpha virt. eigenvalues --    2.31025   2.31868   2.32311   2.32739   2.32801
 Alpha virt. eigenvalues --    2.33888   2.35958   2.36008   2.38791   2.39830
 Alpha virt. eigenvalues --    2.40033   2.42004   2.46144   2.46853   2.47906
 Alpha virt. eigenvalues --    2.48203   2.49642   2.51767   2.53742   2.53955
 Alpha virt. eigenvalues --    2.57108   2.58136   2.59240   2.60192   2.63607
 Alpha virt. eigenvalues --    2.63765   2.65779   2.65919   2.66002   2.66720
 Alpha virt. eigenvalues --    2.67684   2.67885   2.69012   2.73352   2.74460
 Alpha virt. eigenvalues --    2.75481   2.75627   2.76394   2.79051   2.80310
 Alpha virt. eigenvalues --    2.80508   2.81424   2.84582   2.86339   2.87727
 Alpha virt. eigenvalues --    2.88092   2.88746   2.88808   2.89656   2.93537
 Alpha virt. eigenvalues --    2.94117   2.94989   2.97844   2.98466   3.00072
 Alpha virt. eigenvalues --    3.00655   3.03380   3.05140   3.05268   3.05907
 Alpha virt. eigenvalues --    3.08064   3.08361   3.09216   3.10305   3.14130
 Alpha virt. eigenvalues --    3.14518   3.18385   3.19366   3.25965   3.25997
 Alpha virt. eigenvalues --    3.26827   3.28063   3.40314   3.48281   3.62156
 Alpha virt. eigenvalues --    3.63146   3.63220   3.67495
     Molecular Orbital Coefficients:
                          83        84        85        86        87
                           O         O         O         O         O
     Eigenvalues --    -0.25962  -0.25651  -0.25115  -0.24691  -0.24408
   1 1   C  1S          0.00172   0.00249   0.00243   0.00277  -0.00159
   2        2S         -0.00417  -0.00598  -0.00561  -0.00618   0.00380
   3        3S         -0.01113  -0.01716  -0.01436  -0.02425   0.00773
   4        4PX         0.00264  -0.06177   0.08049   0.06674   0.03916
   5        4PY        -0.00337  -0.06130   0.06524   0.05052   0.03332
   6        4PZ        -0.00226   0.08324  -0.11271  -0.09257  -0.04649
   7        5PX         0.00182  -0.04497   0.06167   0.04723   0.02438
   8        5PY        -0.00120  -0.04448   0.03827   0.03232   0.03585
   9        5PZ        -0.00205   0.05743  -0.08380  -0.07083  -0.03030
  10        6D 0       -0.00373  -0.00082  -0.00131  -0.00106  -0.00023
  11        6D+1        0.00525   0.00436  -0.00247  -0.00205  -0.00173
  12        6D-1       -0.00637  -0.00519   0.00279   0.00220   0.00169
  13        6D+2       -0.00815  -0.00690   0.00336   0.00253   0.00222
  14        6D-2        0.00267   0.00097   0.00005  -0.00009  -0.00042
  15 2   C  1S          0.00214   0.00283   0.00302   0.00366  -0.00102
  16        2S         -0.00492  -0.00666  -0.00556  -0.00722   0.00176
  17        3S         -0.00926  -0.00550  -0.01073  -0.00185   0.00372
  18        4PX        -0.10408  -0.11207   0.05765   0.04006   0.03896
  19        4PY        -0.08556  -0.09284   0.05557   0.04265   0.03730
  20        4PZ         0.12046   0.12860  -0.10329  -0.08543  -0.05096
  21        5PX        -0.07772  -0.08133   0.04740   0.03052   0.01862
  22        5PY        -0.06125  -0.06577   0.03174   0.03004   0.03687
  23        5PZ         0.08366   0.09181  -0.07032  -0.05859  -0.04274
  24        6D 0        0.00614   0.00168   0.00225   0.00210   0.00038
  25        6D+1        0.00093  -0.00205   0.00304   0.00249   0.00136
  26        6D-1       -0.00068   0.00263  -0.00302  -0.00237  -0.00183
  27        6D+2       -0.00223   0.00234  -0.00511  -0.00436  -0.00181
  28        6D-2       -0.00312  -0.00102  -0.00041  -0.00043  -0.00034
  29 3   C  1S         -0.00067  -0.00108  -0.00098  -0.00152  -0.00004
  30        2S         -0.00172  -0.00029  -0.00183  -0.00101   0.00093
  31        3S          0.01165   0.01131   0.04279   0.01055  -0.06203
  32        4PX        -0.08752  -0.02904  -0.01321  -0.01064   0.00170
  33        4PY        -0.07408  -0.02100  -0.00653  -0.00667  -0.01030
  34        4PZ         0.13482   0.05665   0.03352   0.03565   0.00008
  35        5PX        -0.06198  -0.01962   0.00027   0.00588  -0.00514
  36        5PY        -0.05582  -0.01502   0.01768  -0.00524  -0.04937
  37        5PZ         0.08923   0.03840   0.03551   0.02905  -0.02219
  38        6D 0       -0.00700  -0.01067   0.00732   0.00540   0.00444
  39        6D+1       -0.00243  -0.00096  -0.00248  -0.00249   0.00001
  40        6D-1        0.00101  -0.00109   0.00171   0.00109   0.00031
  41        6D+2        0.00207  -0.00031   0.00114   0.00086   0.00046
  42        6D-2        0.00195   0.00401  -0.00666  -0.00604  -0.00238
  43 4   C  1S          0.01198   0.01386   0.01506   0.01907  -0.00295
  44        2S         -0.03086  -0.03647  -0.04304  -0.05199   0.01368
  45        3S         -0.03519  -0.04695  -0.01315  -0.05159  -0.01907
  46        4PX        -0.03458   0.02135  -0.13904  -0.13255  -0.02120
  47        4PY        -0.00885   0.04519  -0.09362  -0.08230  -0.02551
  48        4PZ        -0.04111  -0.13569   0.08129   0.04714   0.05635
  49        5PX        -0.02936   0.00806  -0.11542  -0.12386  -0.00782
  50        5PY        -0.01081   0.03404  -0.01481  -0.05073  -0.10660
  51        5PZ        -0.03585  -0.10385   0.05965   0.00707   0.01159
  52        6D 0       -0.00437  -0.00057  -0.00230  -0.00269  -0.00264
  53        6D+1        0.00442   0.00382  -0.00449  -0.00418  -0.00122
  54        6D-1       -0.00793  -0.00681   0.00252   0.00079  -0.00008
  55        6D+2       -0.00737  -0.00686   0.00436   0.00371   0.00322
  56        6D-2        0.00182  -0.00049  -0.00012  -0.00077   0.00007
  57 5   C  1S         -0.00277  -0.00073   0.00246  -0.00022  -0.00812
  58        2S          0.00747   0.00244  -0.00661   0.00094   0.02180
  59        3S          0.00985  -0.00413  -0.05327  -0.03165   0.08811
  60        4PX         0.10342   0.11595  -0.06500  -0.04467  -0.03508
  61        4PY         0.06671   0.07033  -0.09273  -0.08175  -0.02152
  62        4PZ        -0.11828  -0.14170   0.09814   0.08259   0.07529
  63        5PX         0.06581   0.07851  -0.07390  -0.04717  -0.00487
  64        5PY         0.05786   0.06352  -0.04323  -0.03188  -0.02761
  65        5PZ        -0.08623  -0.09738   0.07409   0.06874   0.04724
  66        6D 0        0.00654   0.00245   0.00082   0.00069  -0.00036
  67        6D+1        0.00002  -0.00316   0.00371   0.00301   0.00164
  68        6D-1        0.00059   0.00396  -0.00386  -0.00270  -0.00139
  69        6D+2       -0.00188   0.00269  -0.00737  -0.00635  -0.00150
  70        6D-2       -0.00276  -0.00100   0.00081   0.00141   0.00109
  71 6   C  1S          0.00100   0.00071   0.00028   0.00061   0.00092
  72        2S         -0.00242  -0.00200  -0.00175  -0.00176  -0.00046
  73        3S         -0.00402   0.00805   0.01302   0.01762  -0.02638
  74        4PX         0.08362   0.03233  -0.00096  -0.00535  -0.01270
  75        4PY         0.08634   0.04052   0.00793   0.00785  -0.00858
  76        4PZ        -0.13342  -0.05931  -0.00810  -0.00825   0.00647
  77        5PX         0.05955   0.02667   0.00656   0.00441  -0.01917
  78        5PY         0.05444   0.01941  -0.00841  -0.00748   0.00496
  79        5PZ        -0.09733  -0.04379  -0.01501  -0.01167   0.00941
  80        6D 0       -0.00596  -0.00996   0.00814   0.00650   0.00479
  81        6D+1       -0.00158  -0.00007  -0.00034  -0.00026  -0.00052
  82        6D-1        0.00067  -0.00123   0.00007  -0.00043   0.00056
  83        6D+2        0.00297   0.00132   0.00153   0.00150  -0.00037
  84        6D-2        0.00211   0.00444  -0.00627  -0.00562  -0.00250
  85 7   C  1S         -0.00913  -0.00984  -0.00817  -0.01348  -0.00394
  86        2S          0.02436   0.02659   0.02201   0.03644   0.01124
  87        3S          0.02016   0.01536   0.01914   0.03844   0.01977
  88        4PX         0.00930   0.00555   0.04591   0.06537   0.03968
  89        4PY        -0.03177  -0.02588   0.03097   0.01941  -0.01535
  90        4PZ         0.05072   0.05471  -0.02301  -0.00835  -0.00559
  91        5PX         0.00528  -0.00121   0.01684   0.02987   0.02812
  92        5PY        -0.01444  -0.00562   0.01734   0.01054  -0.01688
  93        5PZ         0.03586   0.03028  -0.00365   0.01290   0.02021
  94        6D 0        0.00512   0.00536  -0.00577  -0.00487  -0.00130
  95        6D+1       -0.00339  -0.00461   0.00360   0.00351   0.00339
  96        6D-1        0.00276   0.00253  -0.00468  -0.00348   0.00181
  97        6D+2        0.00431   0.00540  -0.00425  -0.00318  -0.00178
  98        6D-2       -0.00315  -0.00445  -0.00017  -0.00022   0.00433
  99 8   C  1S          0.00640   0.00190  -0.01094  -0.00428   0.01954
 100        2S         -0.01465  -0.00439   0.02874   0.01304  -0.04946
 101        3S         -0.02490   0.00642   0.07078   0.00922  -0.14010
 102        4PX        -0.01571  -0.00529   0.00300  -0.01874  -0.05479
 103        4PY         0.00876  -0.02047  -0.04002  -0.01362   0.10462
 104        4PZ        -0.02545  -0.03795  -0.03914  -0.04313   0.02780
 105        5PX         0.00112   0.00555   0.02282   0.02016  -0.01864
 106        5PY         0.01205  -0.01705  -0.03642   0.00318   0.12135
 107        5PZ        -0.00782  -0.01321  -0.01849  -0.00849   0.01329
 108        6D 0       -0.00471  -0.00563  -0.00606  -0.00805   0.00118
 109        6D+1        0.00109   0.00143   0.00320   0.00497   0.00187
 110        6D-1        0.00119   0.00065   0.00087   0.00158   0.00090
 111        6D+2        0.00333   0.00349   0.00116   0.00301   0.00143
 112        6D-2        0.00142   0.00233   0.00073   0.00080  -0.00296
 113 9   O  1S          0.00141   0.00573   0.00091  -0.00127  -0.01453
 114        2S          0.00395   0.01368   0.00170  -0.00303  -0.03186
 115        3S         -0.00745   0.01885   0.01090  -0.00614  -0.08529
 116        4PX         0.03777   0.06516   0.09283   0.10978  -0.04601
 117        4PY         0.02459  -0.00704  -0.01750   0.01245   0.09602
 118        4PZ         0.11568   0.12719   0.12847   0.19127   0.02037
 119        5PX         0.03617   0.05732   0.08084   0.09341  -0.03866
 120        5PY         0.01994  -0.00343  -0.01311   0.00935   0.07425
 121        5PZ         0.09692   0.10293   0.10763   0.15571   0.01714
 122        6D 0        0.00040   0.00008  -0.00031   0.00034   0.00107
 123        6D+1        0.00010   0.00064  -0.00009  -0.00039  -0.00096
 124        6D-1       -0.00176  -0.00234  -0.00252  -0.00339   0.00072
 125        6D+2        0.00015  -0.00098  -0.00060   0.00001   0.00291
 126        6D-2       -0.00053  -0.00075  -0.00107  -0.00199  -0.00094
 127 10  C  1S         -0.00581   0.00357   0.01154   0.00058  -0.03081
 128        2S          0.01451  -0.01042  -0.02883   0.00010   0.08223
 129        3S          0.00217   0.03919  -0.03743  -0.03093  -0.01521
 130        4PX        -0.03077  -0.03911  -0.05111  -0.07064  -0.01606
 131        4PY        -0.01983  -0.01790   0.03139   0.00801  -0.05751
 132        4PZ        -0.07249  -0.07391  -0.09912  -0.13346   0.00935
 133        5PX        -0.04113  -0.00583  -0.01639  -0.03351  -0.06626
 134        5PY         0.00068  -0.01574   0.00110   0.01430   0.02126
 135        5PZ        -0.04587  -0.05843  -0.07423  -0.08299   0.03767
 136        6D 0        0.00209   0.00257   0.00217   0.00427   0.00049
 137        6D+1       -0.00150  -0.00198  -0.00317  -0.00428   0.00074
 138        6D-1        0.00976   0.01342   0.01838   0.01769  -0.01164
 139        6D+2       -0.00137  -0.00230  -0.00208  -0.00293  -0.00055
 140        6D-2        0.01077   0.00286   0.00472   0.01149   0.02116
 141 11  C  1S         -0.00000   0.00507   0.00000  -0.00267   0.00000
 142        2S         -0.00000  -0.00914  -0.00001   0.00503  -0.00000
 143        3S          0.00007  -0.07561   0.00006   0.00967  -0.00000
 144        4PX         0.00049   0.00001   0.02266   0.00001  -0.05733
 145        4PY        -0.00001   0.02442  -0.00000  -0.01139  -0.00000
 146        4PZ         0.03336   0.00001   0.03210  -0.00001   0.03229
 147        5PX        -0.00782   0.00001  -0.00580   0.00002  -0.06393
 148        5PY        -0.00003   0.03430  -0.00003  -0.00564  -0.00000
 149        5PZ         0.01405  -0.00000   0.00026  -0.00001   0.03384
 150        6D 0        0.00000  -0.00279   0.00000  -0.00579  -0.00000
 151        6D+1       -0.00000   0.00339  -0.00000   0.00354   0.00000
 152        6D-1        0.00543   0.00000   0.00850   0.00000  -0.00054
 153        6D+2        0.00000   0.00028   0.00000   0.00368   0.00000
 154        6D-2        0.00392   0.00000   0.00384  -0.00000   0.00098
 155 12  C  1S          0.00581   0.00357  -0.01155   0.00057   0.03081
 156        2S         -0.01450  -0.01041   0.02884   0.00014  -0.08224
 157        3S         -0.00224   0.03917   0.03736  -0.03095   0.01520
 158        4PX        -0.03078   0.03907  -0.05110   0.07061  -0.01604
 159        4PY         0.01986  -0.01790  -0.03136   0.00797   0.05751
 160        4PZ        -0.07252   0.07387  -0.09914   0.13348   0.00941
 161        5PX        -0.04109   0.00581  -0.01635   0.03353  -0.06625
 162        5PY        -0.00067  -0.01576  -0.00109   0.01428  -0.02126
 163        5PZ        -0.04592   0.05839  -0.07426   0.08298   0.03769
 164        6D 0       -0.00209   0.00256  -0.00216   0.00426  -0.00050
 165        6D+1        0.00150  -0.00198   0.00317  -0.00428  -0.00074
 166        6D-1        0.00977  -0.01341   0.01839  -0.01769  -0.01164
 167        6D+2        0.00137  -0.00230   0.00209  -0.00293   0.00054
 168        6D-2        0.01077  -0.00285   0.00472  -0.01149   0.02116
 169 13  N  1S          0.01706  -0.00341  -0.03028   0.00546   0.07344
 170        2S          0.03565  -0.00705  -0.06116   0.00925   0.15418
 171        3S          0.04806  -0.03192  -0.12981   0.05622   0.19062
 172        4PX         0.10640  -0.01757   0.05355  -0.13804   0.24598
 173        4PY         0.04609  -0.00098  -0.07923   0.01142   0.21497
 174        4PZ         0.10081  -0.15400   0.18832  -0.19997  -0.13113
 175        5PX        -0.07264   0.01637  -0.06730   0.11012  -0.14708
 176        5PY        -0.03270  -0.00967   0.05049  -0.00081  -0.15503
 177        5PZ        -0.07793   0.10947  -0.13528   0.14392   0.08171
 178        6D 0        0.00240  -0.00087   0.00041  -0.00325   0.00615
 179        6D+1        0.00066   0.00281  -0.00194   0.00091   0.00857
 180        6D-1       -0.00611   0.00820  -0.01050   0.01183   0.00607
 181        6D+2       -0.00072   0.00002  -0.00285   0.00285  -0.00063
 182        6D-2       -0.00571   0.00218  -0.00277   0.00731  -0.01232
 183 14  C  1S          0.00557  -0.00055  -0.00760  -0.00004   0.02262
 184        2S         -0.01060  -0.00538   0.01570  -0.00428  -0.05269
 185        3S         -0.03181   0.02374   0.06431   0.04090  -0.14095
 186        4PX         0.04725  -0.00837  -0.00382  -0.03684   0.12041
 187        4PY         0.00416  -0.01237  -0.03021   0.01843   0.01904
 188        4PZ         0.03212  -0.07034   0.04204  -0.04405  -0.06472
 189        5PX         0.00069   0.00845  -0.02562   0.03827   0.00358
 190        5PY        -0.00339  -0.00733   0.03308  -0.01106  -0.05633
 191        5PZ        -0.00380  -0.00352   0.02357   0.00460  -0.02998
 192        6D 0       -0.00367   0.00851   0.00170   0.00060   0.00277
 193        6D+1        0.00363  -0.00153   0.00953  -0.01035   0.00048
 194        6D-1       -0.00659   0.00549  -0.00080   0.00502  -0.00795
 195        6D+2        0.00415  -0.00693   0.00152  -0.00300  -0.00198
 196        6D-2        0.00035   0.00657  -0.00362   0.00081   0.01665
 197 15  C  1S         -0.01199   0.01385  -0.01506   0.01907   0.00296
 198        2S          0.03087  -0.03645   0.04304  -0.05199  -0.01370
 199        3S          0.03522  -0.04694   0.01313  -0.05159   0.01906
 200        4PX        -0.03456  -0.02139  -0.13905   0.13256  -0.02117
 201        4PY         0.00884   0.04515   0.09359  -0.08230   0.02547
 202        4PZ        -0.04118   0.13567   0.08129  -0.04716   0.05635
 203        5PX        -0.02934  -0.00809  -0.11542   0.12386  -0.00778
 204        5PY         0.01081   0.03400   0.01479  -0.05075   0.10658
 205        5PZ        -0.03591   0.10383   0.05963  -0.00706   0.01163
 206        6D 0        0.00437  -0.00056   0.00230  -0.00270   0.00264
 207        6D+1       -0.00442   0.00382   0.00449  -0.00418   0.00122
 208        6D-1       -0.00794   0.00681   0.00252  -0.00079  -0.00008
 209        6D+2        0.00738  -0.00685  -0.00436   0.00371  -0.00322
 210        6D-2        0.00182   0.00048  -0.00012   0.00078   0.00007
 211 16  C  1S          0.00068  -0.00108   0.00098  -0.00152   0.00004
 212        2S          0.00171  -0.00028   0.00183  -0.00101  -0.00093
 213        3S         -0.01166   0.01130  -0.04279   0.01053   0.06203
 214        4PX        -0.08755   0.02902  -0.01322   0.01065   0.00170
 215        4PY         0.07404  -0.02096   0.00652  -0.00666   0.01029
 216        4PZ         0.13484  -0.05660   0.03352  -0.03564   0.00007
 217        5PX        -0.06200   0.01961   0.00026  -0.00587  -0.00514
 218        5PY         0.05580  -0.01499  -0.01768  -0.00524   0.04937
 219        5PZ         0.08924  -0.03836   0.03550  -0.02905  -0.02219
 220        6D 0        0.00700  -0.01067  -0.00731   0.00540  -0.00444
 221        6D+1        0.00243  -0.00095   0.00248  -0.00249  -0.00001
 222        6D-1        0.00101   0.00110   0.00171  -0.00110   0.00031
 223        6D+2       -0.00207  -0.00031  -0.00114   0.00086  -0.00046
 224        6D-2        0.00195  -0.00400  -0.00666   0.00604  -0.00238
 225 17  C  1S         -0.00215   0.00283  -0.00302   0.00366   0.00102
 226        2S          0.00492  -0.00666   0.00556  -0.00722  -0.00177
 227        3S          0.00926  -0.00550   0.01073  -0.00185  -0.00373
 228        4PX        -0.10416   0.11205   0.05767  -0.04010   0.03897
 229        4PY         0.08556  -0.09276  -0.05554   0.04264  -0.03728
 230        4PZ         0.12052  -0.12855  -0.10329   0.08545  -0.05094
 231        5PX        -0.07778   0.08131   0.04741  -0.03055   0.01863
 232        5PY         0.06125  -0.06572  -0.03172   0.03004  -0.03685
 233        5PZ         0.08370  -0.09177  -0.07032   0.05861  -0.04273
 234        6D 0       -0.00614   0.00168  -0.00225   0.00210  -0.00038
 235        6D+1       -0.00092  -0.00205  -0.00304   0.00249  -0.00136
 236        6D-1       -0.00068  -0.00263  -0.00302   0.00238  -0.00183
 237        6D+2        0.00222   0.00234   0.00511  -0.00436   0.00181
 238        6D-2       -0.00312   0.00102  -0.00041   0.00043  -0.00034
 239 18  C  1S         -0.00172   0.00249  -0.00243   0.00277   0.00159
 240        2S          0.00418  -0.00598   0.00561  -0.00618  -0.00380
 241        3S          0.01114  -0.01715   0.01436  -0.02425  -0.00774
 242        4PX         0.00261   0.06178   0.08051  -0.06678   0.03916
 243        4PY         0.00341  -0.06127  -0.06520   0.05050  -0.03329
 244        4PZ        -0.00221  -0.08323  -0.11271   0.09258  -0.04647
 245        5PX         0.00179   0.04498   0.06169  -0.04725   0.02437
[...]
 042,-0.00000027,0.00000062,-0.00000054,0.00000054,-0.00000119,0.000000
 19,-0.00000040,-0.00000035,0.00000004,-0.00000074,0.00000051,-0.000000
 09,0.00000020,0.00000019,-0.00000045,-0.00000008,0.00000069,-0.0000002
 7,-0.00001021,-0.00000434,0.00001304,-0.00001139,-0.00000324,0.0000007
 3,-0.00014672,-0.00006443,-0.00013592,0.00048603,0.00046805,-0.0005886
 8,0.00052747,-0.00058754,0.00025005,0.00179221,0.00200104,-0.00168280,
 0.04506752,-0.01883746,0.04674424,0.00000158,-0.00000109,0.00000218,0.
 00000026,0.00000035,0.00000160,0.00000270,0.00000230,0.00000199,-0.000
 00234,0.00000104,-0.00000827,0.00000558,0.00000095,0.00000107,-0.00000
 166,-0.00000150,0.00000055,0.00000001,-0.00000187,-0.00000193,-0.00002
 389,0.00001449,0.00000988,0.00003407,-0.00004856,-0.00001136,-0.000043
 23,0.00009454,0.00002416,0.00006805,-0.00009082,-0.00015052,-0.0013524
 2,0.00178421,0.00075958,-0.00079546,-0.00038025,0.00085501,-0.00268489
 ,-0.00032047,-0.00245345,-0.00052223,0.00002528,-0.00036525,-0.0000560
 9,0.00013975,0.00003354,0.00010129,-0.00036087,-0.00002733,-0.00006202
 ,0.00033658,0.00024682,0.00042192,-0.00048458,-0.00054854,-0.00032312,
 -0.00126282,0.00271193,-0.04282150,0.00677495,-0.00625697,-0.00255449,
 0.02502023,-0.01285486,0.00436771,-0.00037649,-0.00018614,0.00000525,-
 0.00002153,0.00000989,-0.00001576,-0.00001663,0.00000034,0.00000104,-0
 .00000059,0.00000075,0.00000094,-0.00000167,0.00000073,-0.00000057,0.0
 0000003,-0.00000234,0.00000063,0.00000072,0.00000020,0.00000251,-0.000
 00142,0.00000052,-0.00000178,-0.00000041,0.00000070,0.00000136,-0.0000
 0284,-0.00000064,-0.00006375,-0.00003316,0.00005987,-0.00004228,-0.000
 02967,0.00000054,-0.00046887,0.00056832,0.00029910,0.00001186,-0.00000
 208,-0.00001797,0.00004208,0.00005800,-0.00004443,0.00000135,0.0000125
 0,-0.00001555,-0.00016522,0.00006974,-0.00015543,0.04639167,-0.0000009
 2,0.00000088,-0.00000119,0.00000097,0.00000160,-0.00000086,-0.00000551
 ,-0.00000531,-0.00000149,0.00000293,0.00000100,0.00000644,-0.00000312,
 -0.00000093,-0.00000028,0.00000132,0.00000148,-0.00000034,0.00000136,0
 .00000054,0.00000072,0.00000780,-0.00000634,0.00000010,-0.00001402,0.0
 0002627,0.00000384,0.00002368,-0.00004591,-0.00001633,-0.00007801,0.00
 003298,0.00005028,0.00055072,-0.00062071,-0.00041542,-0.00016995,0.000
 56697,0.00035653,-0.00060516,-0.00104698,0.00034967,-0.00083896,-0.002
 11007,-0.00148685,0.00104094,0.00027335,-0.00036673,-0.00048708,0.0001
 0646,-0.00011832,0.00074210,-0.00043802,-0.00083564,0.00142255,0.00159
 619,0.00096619,0.00182431,-0.01785614,0.00928820,0.01014276,-0.2541979
 2,0.11865903,-0.00031621,-0.00061153,-0.00053092,-0.00176976,0.0011973
 9,-0.00056013,-0.00001660,0.00003198,0.00000541,0.00000217,-0.00000555
 ,-0.00000171,0.,0.00000022,-0.00000014,-0.00000150,0.00000081,-0.00000
 119,-0.00000061,0.00000014,0.00000096,0.00000026,0.00000005,-0.0000001
 9,-0.00000100,0.00000063,-0.00000081,0.00000041,0.00000083,-0.00000037
 ,-0.00000049,0.00000055,-0.00000045,0.00003700,0.00003689,-0.00001821,
 0.00000737,0.00001060,-0.00000658,0.00029703,-0.00013362,-0.00002448,-
 0.00001269,-0.00019511,-0.00011188,-0.00010492,-0.00004973,0.00006655,
 -0.00001117,-0.00001721,-0.00002378,-0.00077367,-0.00023672,0.00014254
 ,-0.01141726,0.27304627,-0.00000132,0.00000171,-0.00000139,-0.00000143
 ,-0.00000029,0.00000108,-0.00000388,-0.00000162,-0.00000048,0.00000402
 ,-0.00000085,0.00000895,-0.00000518,0.00000103,-0.00000306,0.00000232,
 0.00000137,0.00000043,0.00000130,-0.00000023,0.00000122,0.00001482,-0.
 00001184,-0.00000341,-0.00006386,0.00000468,0.00002964,0.00006395,-0.0
 0002360,-0.00005963,-0.00004505,0.00004446,-0.00007505,0.00011473,-0.0
 0001311,0.00050131,-0.00026663,0.00006475,0.00026145,-0.00052337,-0.00
 140175,-0.00118166,-0.00052740,-0.00186151,-0.00184311,0.00089331,0.00
 000844,-0.00053482,0.00012016,-0.00030650,0.00006798,0.00044525,0.0004
 5268,-0.00014237,0.00031291,0.00044708,0.00048894,0.00149623,-0.020000
 21,0.01287554,-0.00880171,0.11790509,-0.11004116,0.00113855,0.01165199
 ,-0.00716024,0.00214865,-0.00051376,0.00112264,-0.00005155,0.00003561,
 0.00002226,0.00001126,-0.00002187,-0.00000064,-0.00000069,0.00000046,-
 0.00000129,0.00000029,0.00000031,-0.00000154,0.00000128,-0.00000333,-0
 .00000096,-0.00000109,-0.00000105,-0.00000045,-0.00000295,0.00000115,0
 .00000049,0.00000070,0.00000037,-0.00000172,-0.00000238,0.00000132,0.0
 0000235,0.00002278,0.00002400,0.00001134,-0.00003710,-0.00000508,-0.00
 000521,-0.00000099,0.00028790,0.00021810,0.00000658,-0.00020531,-0.000
 09686,-0.00001545,0.00000089,0.00001641,-0.00000244,0.00003291,-0.0000
 2706,-0.00039972,0.00014566,0.00015904,0.00722661,-0.12466896,0.115642
 87,-0.00000310,0.00000325,-0.00000446,-0.00000194,-0.00000262,0.000000
 78,-0.00000594,-0.00000264,-0.00000221,0.00000641,-0.00000138,0.000021
 41,-0.00001054,0.00000121,-0.00000487,0.00000408,0.00000211,-0.0000002
 7,-0.00000048,0.00000087,0.00000645,0.00002943,-0.00003328,-0.00001923
 ,-0.00015384,0.00004822,0.00007984,0.00014751,-0.00015096,-0.00003619,
 -0.00019132,0.00028602,0.00014350,0.00050261,-0.00158799,-0.00090869,-
 0.00045760,0.00070554,0.00024675,-0.00104099,0.00009910,-0.00064400,-0
 .00028569,0.00013400,-0.00009317,-0.00017719,-0.00012006,-0.00021256,0
 .00061960,-0.00048411,0.00005884,-0.00024978,0.00091271,0.00055087,-0.
 00029133,-0.00082617,-0.00099778,0.00564720,0.00194588,-0.00352999,-0.
 18726708,-0.00295850,0.13248490,-0.01465192,-0.00172778,0.01967565,-0.
 00624457,0.00124118,-0.00103215,-0.00008656,0.00006662,0.00003893,0.00
 002490,-0.00002644,-0.00000965,-0.00000241,0.00000091,-0.00000206,-0.0
 0000090,0.00000254,-0.00000241,0.00000325,-0.00000583,0.00000103,-0.00
 000189,-0.00000186,-0.00000074,-0.00000718,0.00000305,-0.00000041,0.00
 000250,0.00000100,-0.00000295,-0.00000899,0.00000360,0.00000745,-0.000
 00066,0.00000611,-0.00000469,0.00002453,0.00002801,0.00000182,-0.00008
 708,0.00034383,0.00009899,-0.00000635,-0.00003769,0.00000167,-0.000040
 05,-0.00002904,0.00008398,-0.00002070,0.00001643,0.00001017,-0.0001369
 0,0.00006350,0.00004984,0.00173961,0.00027562,-0.00201451,0.20156048,-
 0.00000115,0.00000124,-0.00000070,-0.00000050,0.00000119,0.00000040,-0
 .00000483,-0.00000339,-0.00000031,0.00000131,0.00000071,0.00000990,-0.
 00000420,0.00000058,-0.00000177,0.00000206,0.00000126,0.00000020,0.000
 00004,0.00000085,0.00000246,0.00001313,-0.00001291,-0.00000914,-0.0000
 5959,0.00002829,0.00002741,0.00007171,-0.00007363,-0.00003617,-0.00006
 956,0.00005029,0.00010293,0.00066976,-0.00105837,-0.00044152,0.0002928
 3,0.00064077,0.00012523,0.00021860,-0.00051957,-0.00035897,-0.00080933
 ,-0.00179265,-0.00135084,-0.00036948,-0.00077584,0.00110445,-0.0002356
 2,-0.00002689,-0.00034955,-0.00004359,-0.00107353,0.00061858,0.0006059
 0,0.00093488,0.00119621,0.01899942,-0.00168496,-0.01900167,-0.00155257
 ,-0.04199698,0.00197982,0.00244526,-0.00108904,-0.00121323,-0.00252028
 ,0.00046648,-0.00017018,-0.00003687,0.00004663,0.00002966,0.00000686,-
 0.00001188,-0.00000614,-0.00000016,0.00000037,-0.00000097,0.00000007,0
 .00000010,-0.00000152,0.00000049,-0.00000179,-0.00000130,-0.00000046,-
 0.00000079,-0.00000051,-0.00000305,0.00000109,0.00000003,0.00000142,0.
 00000063,-0.00000115,-0.00000347,0.00000081,0.00000313,0.00001842,0.00
 001875,-0.00001671,0.00000682,0.00001736,0.00000267,0.00014067,-0.0000
 6643,0.00004928,0.00004410,-0.00014551,-0.00013965,0.00006093,0.000067
 47,-0.00010325,-0.00003068,-0.00001519,-0.00001111,0.00005601,0.000425
 04,-0.00042577,-0.02013977,0.00087791,0.01802204,0.00253225,0.04627349
 ,0.00000012,-0.00000034,0.00000055,0.00000181,0.00000267,-0.00000056,-
 0.00000382,-0.00000473,-0.00000019,-0.00000177,0.00000274,0.00000232,0
 .00000097,-0.00000071,0.00000154,0.00000011,0.00000036,-0.00000035,-0.
 00000150,0.00000140,0.00000238,-0.00000513,-0.00000557,-0.00000282,-0.
 00001613,0.00003848,0.00001108,-0.00001892,-0.00011186,0.00002677,-0.0
 0016154,0.00020040,0.00010101,-0.00000105,-0.00114144,-0.00005119,0.00
 004725,0.00057933,0.00027703,-0.00040923,0.00026367,-0.00122805,-0.001
 32380,-0.00039948,-0.00112144,-0.00038158,-0.00059179,0.00041429,0.000
 00434,-0.00008497,-0.00026472,-0.00018292,-0.00078055,0.00047209,0.000
 53750,-0.00032597,0.00145911,0.01224302,-0.00172244,-0.01242967,0.1379
 3435,0.00419407,-0.17407776,-0.01146306,-0.00003124,0.01001696,-0.0037
 7187,0.00050100,0.00031907,0.00000303,0.00002986,0.00001956,-0.0000078
 4,-0.00000143,-0.00000673,0.00000087,-0.00000013,0.00000057,-0.0000009
 9,-0.00000027,-0.00000051,-0.00000144,0.00000160,-0.00000066,0.0000009
 6,0.00000064,-0.00000009,-0.00000041,-0.00000003,-0.00000117,0.0000005
 3,0.00000081,0.00000049,-0.00000263,-0.00000015,0.00000144,0.00000253,
 -0.00000499,-0.00000916,0.00002650,0.00001788,-0.00000293,0.00007674,0
 .00017453,0.00013023,-0.00001048,-0.00012939,-0.00004983,0.00002780,0.
 00005159,-0.00006988,-0.00002810,-0.00003501,-0.00003171,-0.00007308,0
 .00031556,-0.00064560,0.01119159,-0.00066544,-0.01001682,-0.14408804,0
 .00037558,0.18552604,-0.00000488,0.00000373,-0.00000942,-0.00000098,-0
 .00000158,-0.00000416,-0.00000541,-0.00000490,-0.00000475,0.00001384,-
 0.00000369,0.00002945,-0.00001373,-0.00000206,-0.00000584,0.00000505,0
 .00000094,-0.00000211,-0.00000055,0.00000142,0.00001026,0.00003495,-0.
 00004438,-0.00000710,-0.00022494,0.00008405,0.00011432,0.00006405,-0.0
 0028176,-0.00018248,-0.00070255,0.00053450,0.00007706,0.00165262,-0.00
 461206,0.00076206,-0.00116690,0.00149030,-0.00011371,0.00267846,0.0019
 9800,0.01014133,-0.00123563,0.00138156,-0.00012337,0.00056078,-0.00014
 246,0.00023890,-0.00005060,0.00007909,0.00003955,-0.00027990,0.0000451
 5,-0.00014387,0.00018359,-0.00141842,-0.00039913,-0.00361980,0.0019141
 7,-0.00195000,-0.00025686,-0.00559201,-0.02539819,-0.04509552,0.003265
 70,-0.00588589,-0.01096173,-0.00226689,0.03026451,-0.00012026,0.000103
 20,0.00006103,0.00002880,-0.00003970,-0.00000338,-0.00000361,0.0000020
 0,-0.00000133,-0.00000309,0.00000482,-0.00000196,0.00000323,-0.0000044
 9,0.00000415,-0.00000317,-0.00000135,-0.00000008,-0.00000899,0.0000034
 7,-0.00000263,0.00000136,0.00000049,-0.00000239,-0.00001488,0.00000655
 ,0.00000919,0.00006688,0.00010363,-0.00009756,-0.00004153,-0.00002974,
 0.00004740,0.00064793,-0.00065611,-0.00045143,-0.00001248,-0.00005048,
 -0.00003541,0.00004228,-0.00000799,0.00005259,0.00002395,-0.00008915,-
 0.00010378,0.00007055,0.00003114,0.00004443,-0.00120508,0.00025161,-0.
 00125350,0.00113033,-0.00029630,-0.00013986,0.05783859,-0.00000038,0.0
 0000028,0.00000200,-0.00000029,0.00000270,0.00000241,-0.00000591,-0.00
 000331,0.00000090,-0.00000476,0.00000210,0.00000497,-0.00000197,0.0000
 0198,-0.00000064,0.00000166,0.00000170,0.00000061,-0.00000240,0.000004
 22,0.00000434,0.00002230,-0.00002250,-0.00000446,-0.00009971,0.0000899
 8,0.00006297,-0.00006039,-0.00033281,-0.00013541,-0.00083403,0.0004410
 2,-0.00013664,0.00352499,-0.00705568,0.00128183,0.00221293,0.00069511,
 -0.00211367,-0.00246603,-0.00067765,-0.02400303,0.00234902,-0.00360995
 ,-0.00139993,-0.00106838,-0.00004409,-0.00056093,0.00008020,-0.0003055
 8,-0.00014558,0.00005924,-0.00004247,0.00002373,-0.00008424,0.00038341
 ,0.00001857,0.00090080,-0.00104987,0.00005774,0.00083615,0.00363818,0.
 00651644,0.00589201,-0.05864818,-0.06085673,-0.01428996,0.00294766,0.0
 2846740,0.00003970,0.00003276,0.00000134,0.00001615,0.00003060,-0.0000
 0086,0.00000086,0.00000014,-0.00000122,0.00000162,-0.00000190,-0.00000
 164,-0.00000045,-0.00000113,-0.00000380,-0.00000045,-0.00000088,-0.000
 00069,-0.00000359,0.00000081,0.00000015,0.00000284,0.00000055,-0.00000
 132,-0.00000655,0.00000765,0.00000547,0.00006339,0.00015714,-0.0000733
 3,-0.00007569,0.00002668,0.00004017,-0.00047182,0.00133178,0.00065704,
 0.00002848,0.00001209,0.00000103,-0.00007301,-0.00002220,-0.00009449,-
 0.00002579,0.00001346,0.00002751,-0.00003620,0.00000134,-0.00002317,0.
 00009324,-0.00023467,-0.00009672,-0.00073346,0.00048993,-0.00071638,0.
 00423132,0.06173618,0.00000423,-0.00000354,0.00000905,0.00000246,0.000
 00458,0.00000294,0.00000128,-0.00000030,0.00000408,-0.00001239,0.00000
 515,-0.00002388,0.00001330,0.00000119,0.00000686,-0.00000456,-0.000000
 55,0.00000190,-0.00000019,-0.00000116,-0.00000763,-0.00003442,0.000034
 22,0.00000708,0.00017444,-0.00003850,-0.00007893,-0.00009476,0.0001251
 2,0.00012146,0.00034520,-0.00028461,-0.00020194,-0.00260698,0.00321168
 ,-0.00038319,-0.00006394,-0.00059364,-0.00019738,-0.00178894,0.0004014
 1,-0.00082777,0.00014786,-0.00071590,0.00010396,-0.00014431,0.00003299
 ,0.00004599,-0.00003851,-0.00001906,-0.00006343,-0.00010949,-0.0000519
 0,-0.00013336,0.00016372,-0.00051823,-0.00002049,-0.00167058,0.0007027
 5,-0.00058562,0.00134618,-0.00417959,-0.00782995,-0.00209918,-0.054760
 86,-0.31673703,0.01218859,0.00387307,-0.01052663,0.00010997,-0.0000476
 7,-0.00002262,-0.00003416,0.00002837,0.00000076,0.00000436,-0.00000203
 ,0.00000156,0.00000197,-0.00000473,0.00000105,-0.00000409,0.00000565,-
 0.00000454,0.00000398,0.00000171,-0.00000027,0.00000745,-0.00000313,0.
 00000144,-0.00000064,0.00000045,0.00000236,0.00000919,-0.00000547,-0.0
 0000560,-0.00003814,-0.00007732,0.00005715,-0.00000147,-0.00000758,-0.
 00001575,0.00007291,-0.00021002,0.00106418,0.00000846,-0.00001543,-0.0
 0000228,0.00000063,-0.00000297,-0.00003041,0.00001142,-0.00002982,-0.0
 0005240,-0.00000517,0.00001664,0.00000746,-0.00033567,-0.00004146,-0.0
 0023615,0.00004253,-0.00001250,0.00122592,-0.00557993,0.05318767,0.335
 32480,0.00007629,0.00023890,-0.00021716,-0.00093489,0.00007851,0.00025
 259,0.00045353,-0.00068752,0.00121571,-0.00312593,-0.01151722,-0.01617
 994,-0.00127940,0.00090921,-0.00163156,-0.00085369,0.00012600,0.000721
 80,-0.00052905,-0.00129771,-0.00060351,-0.00068109,-0.00340772,-0.0072
 8013,0.00115098,-0.00016260,-0.00053961,-0.00470380,-0.00078459,0.0044
 5423,-0.00072993,0.00077233,-0.00207088,0.00042262,0.00039932,-0.00018
 689,-0.00009438,-0.00021875,-0.00003590,0.00001452,-0.00000537,-0.0000
 1340,0.00001474,0.00000468,0.00004666,-0.00001654,0.00002843,-0.000014
 04,0.00000487,-0.00000685,-0.00001633,-0.00000753,-0.00000394,-0.00001
 095,0.00000849,-0.00000597,-0.00000164,-0.00002012,0.00000600,-0.00000
 334,0.00000117,-0.00000088,0.00001172,0.00007036,0.00005157,-0.0000269
 6,-0.00015800,-0.00017747,0.00010231,-0.00273382,0.02354870,0.02773910
 ,-0.04610697,-0.03518237,-0.03955371,0.00007452,-0.00004417,-0.0001022
 3,0.00000137,0.00002759,-0.00002715,0.00039717,0.00003019,-0.00036517,
 -0.00014070,0.00002814,-0.00014671,-0.00008705,-0.00014067,0.00007680,
 -0.00046877,-0.00029700,-0.00000080,0.00064790,0.00047170,0.00007299,-
 0.00054179,0.00040164,0.00031191,0.00013134,-0.00014693,-0.00002063,-0
 .00002354,-0.00001035,0.00001347,-0.00000248,-0.00001170,0.00001794,-0
 .00000974,-0.00000825,-0.00000310,-0.00000121,-0.00000262,0.00000002,0
 .00000007,-0.00000008,-0.00000117,0.00000520,-0.00000428,-0.00000350,-
 0.00000946,-0.00000657,-0.00000483,-0.00001412,-0.00001142,0.00000738,
 0.05979886,0.00039762,0.00039264,0.00022732,-0.00038508,0.00003124,-0.
 00063583,0.00043143,0.00014301,0.00008792,0.00176346,0.00996915,0.0103
 7458,0.00053345,-0.00116141,0.00080799,0.00046267,-0.00016849,-0.00018
 306,-0.00057905,-0.00217187,0.00071169,-0.00242070,-0.00846839,-0.0171
 7416,0.00065692,-0.00375766,-0.00202063,-0.00057859,0.00028236,0.00023
 254,0.00034787,-0.00018603,0.00018065,-0.00019351,-0.00009849,0.000096
 43,0.00009541,0.00008544,-0.00002446,-0.00002028,-0.00002839,-0.000004
 24,-0.00001250,-0.00000413,-0.00002354,0.00000026,-0.00000124,0.000003
 68,0.00000142,-0.00000285,0.00000631,0.00000433,0.00000261,0.00000921,
 -0.00000343,0.00000030,0.00000240,0.00001197,-0.00000368,0.00000351,-0
 .00000147,-0.00000051,-0.00000644,-0.00003183,-0.00002726,0.00001036,0
 .00013045,0.00004283,-0.00006393,0.00523094,-0.00269789,-0.00479811,-0
 .03249906,-0.15830356,-0.12791880,0.00001552,-0.00001228,-0.00004754,-
 0.00000985,-0.00002100,-0.00000965,-0.00024234,-0.00018506,-0.00007317
 ,0.00014440,-0.00002790,0.00006439,-0.00034383,-0.00006644,-0.00017445
 ,-0.00056839,-0.00013362,-0.00028776,0.00065620,0.00133172,0.00020983,
 0.00003947,-0.00000031,-0.00012590,-0.00008385,0.00001643,0.00005391,0
 .00001035,0.00000632,-0.00000406,-0.00000406,-0.00000267,-0.00000455,0
 .00000307,0.00000594,0.00000041,0.00000405,0.00000175,0.00000078,0.000
 00240,-0.00000113,-0.00000024,-0.00000087,0.00000046,0.00000169,0.0000
 0623,0.00000323,0.00000212,0.00000871,0.00000345,-0.00000468,0.0270201
 0,0.16521338,0.00015211,0.00015947,-0.00017831,-0.00074421,0.00021914,
 0.00018527,-0.00014868,-0.00080340,0.00160722,-0.00537509,-0.01161895,
 -0.01433619,-0.00077302,0.00135809,-0.00207747,-0.00065730,-0.00013873
 ,0.00057457,0.00050607,0.00111879,-0.00053813,0.00211707,0.00690665,0.
 00963445,-0.00205053,0.00281880,0.00118218,0.00279898,0.00247845,-0.00
 262647,0.00026322,-0.00049841,0.00083495,-0.00027728,-0.00018983,0.000
 10919,0.00007347,0.00014758,0.00000306,-0.00001706,-0.00001882,0.00000
 202,-0.00001717,-0.00000264,-0.00003038,0.00002219,-0.00002781,0.00001
 162,-0.00000547,0.00000605,0.00000846,0.00000516,0.00000363,0.00000681
 ,-0.00000706,0.00000677,0.00000072,0.00001483,-0.00000191,0.00000306,-
 0.00000328,0.00000016,-0.00000600,-0.00004106,-0.00003306,0.00001215,0
 .00009809,0.00009131,-0.00005366,0.00532347,-0.01215584,-0.00946147,-0
 .03578386,-0.12991746,-0.20279823,0.00004951,0.00000127,-0.00004151,-0
 .00001355,0.00001968,-0.00002829,0.00041916,0.00026773,-0.00056539,-0.
 00017840,0.00005604,-0.00013584,0.00009902,-0.00004927,0.00013019,0.00
 029919,0.00002453,0.00021800,-0.00045133,-0.00065704,0.00106433,0.0002
 2430,-0.00015779,-0.00014635,0.00002468,0.00005682,-0.00005729,0.00001
 348,0.00000406,-0.00001045,0.00000518,0.00000633,-0.00001545,0.0000087
 6,0.00000536,0.00000387,0.00000018,0.00000173,0.00000004,-0.00000053,0
 .00000038,0.00000105,-0.00000247,0.00000371,0.00000302,0.00000564,0.00
 000466,0.00000337,0.00000704,0.00000635,-0.00000276,0.03401657,0.14049
 743,0.21751005\\-0.00037771,-0.00029688,-0.00032854,0.00095633,0.00156
 392,0.00011821,-0.00190010,-0.00284989,0.00114064,0.00085575,0.0003055
 6,0.00251294,-0.00070400,0.00036458,-0.00030733,0.00042397,0.00076184,
 -0.00034335,0.00049713,-0.00041133,0.00049694,0.00205918,-0.00606337,0
 .00003785,-0.02000791,-0.01325453,0.00998830,0.00324913,0.03149501,-0.
 00126804,-0.00000104,-0.00127599,-0.00000464,-0.00325180,0.03149254,0.
 00127718,-0.00313406,0.00038639,0.00327409,-0.01353293,-0.00955460,0.0
 0724131,-0.00085988,0.00030525,-0.00251902,0.00189258,-0.00284412,-0.0
 0114055,-0.00095339,0.00156687,-0.00011488,0.00038160,-0.00030233,0.00
 032599,-0.00042741,0.00076915,0.00034574,0.00070742,0.00035478,0.00030
 743,-0.00049277,-0.00040025,-0.00050418,-0.00206285,-0.00606592,-0.000
 03387,0.02001139,-0.01325441,-0.00998952,0.00312946,0.00038104,-0.0032
 7846,0.01353833,-0.00955195,-0.00724556,0.00005177,0.00017578,-0.00006
 707,-0.00062287,0.00021626,-0.00047704,-0.00029736,-0.00118669,-0.0015
 4067,-0.00003637,-0.00001460,-0.00009652,-0.00071380,0.00029814,-0.000
 22032,0.00001687,0.00038416,-0.00026372,-0.00109109,-0.00023795,0.0006
 4951,0.00005260,-0.00058491,0.00004888,-0.00005080,-0.00058223,-0.0000
 4594,0.00314872,-0.00085812,-0.00266273,0.00029993,-0.00118953,0.00154
 106,0.00062201,0.00021549,0.00047653,-0.00005128,0.00017620,0.00006803
 ,0.00003811,-0.00001621,0.00009680,-0.00001716,0.00038095,0.00026558,0
 .00071150,0.00029699,0.00022468,0.00109078,-0.00023695,-0.00064977,-0.
 00314797,-0.00085809,0.00266404\\\@

 Writing a WFNX file to "009_lig_c2.wfx"


 THERE IS MORE TO LIFE THAN INCREASING ITS SPEED.

                                       -- GANDHI
 Job cpu time:       0 days  2 hours 57 minutes 35.5 seconds.
 Elapsed time:       0 days  0 hours 24 minutes 45.0 seconds.
 File lengths (MBytes):  RWF=    929 Int=      0 D2E=      0 Chk=     14 Scr=      1
 Normal termination of Gaussian 16 at Fri Nov 18 10:20:39 2022.
