 Entering Gaussian System, Link 0=g16
 Initial command:
 /software/gaussian/G16-A.03/avx2/g16/l1.exe "/scratch/lcmd/5211272.slurm/Gau-216817.inp" -scrdir="/scratch/lcmd/5211272.slurm/"
 Entering Link 1 = /software/gaussian/G16-A.03/avx2/g16/l1.exe PID=    216819.
  
 Copyright (c) 1988,1990,1992,1993,1995,1998,2003,2009,2016,
            Gaussian, Inc.  All Rights Reserved.
  
 This is part of the Gaussian(R) 16 program.  It is based on
 the Gaussian(R) 09 system (copyright 2009, Gaussian, Inc.),
 the Gaussian(R) 03 system (copyright 2003, Gaussian, Inc.),
 the Gaussian(R) 98 system (copyright 1998, Gaussian, Inc.),
 the Gaussian(R) 94 system (copyright 1995, Gaussian, Inc.),
 the Gaussian 92(TM) system (copyright 1992, Gaussian, Inc.),
 the Gaussian 90(TM) system (copyright 1990, Gaussian, Inc.),
 the Gaussian 88(TM) system (copyright 1988, Gaussian, Inc.),
 the Gaussian 86(TM) system (copyright 1986, Carnegie Mellon
 University), and the Gaussian 82(TM) system (copyright 1983,
 Carnegie Mellon University). Gaussian is a federally registered
 trademark of Gaussian, Inc.
  
 This software contains proprietary and confidential information,
 including trade secrets, belonging to Gaussian, Inc.
  
 This software is provided under written license and may be
 used, copied, transmitted, or stored only in accord with that
 written license.
  
 The following legend is applicable only to US Government
 contracts under FAR:
  
                    RESTRICTED RIGHTS LEGEND
  
 Use, reproduction and disclosure by the US Government is
 subject to restrictions as set forth in subparagraphs (a)
 and (c) of the Commercial Computer Software - Restricted
 Rights clause in FAR 52.227-19.
  
 Gaussian, Inc.
 340 Quinnipiac St., Bldg. 40, Wallingford CT 06492
  
  
 ---------------------------------------------------------------
 Warning -- This program may not be used in any manner that
 competes with the business of Gaussian, Inc. or will provide
 assistance to any competitor of Gaussian, Inc.  The licensee
 of this program is prohibited from giving any competitor of
 Gaussian, Inc. access to this program.  By using this program,
 the user acknowledges that Gaussian, Inc. is engaged in the
 business of creating and licensing software in the field of
 computational chemistry and represents and warrants to the
 licensee that it is not a competitor of Gaussian, Inc. and that
 it will not use this program in any manner prohibited above.
 ---------------------------------------------------------------
  

 Cite this work as:
 Gaussian 16, Revision A.03,
 M. J. Frisch, G. W. Trucks, H. B. Schlegel, G. E. Scuseria, 
 M. A. Robb, J. R. Cheeseman, G. Scalmani, V. Barone, 
 G. A. Petersson, H. Nakatsuji, X. Li, M. Caricato, A. V. Marenich, 
 J. Bloino, B. G. Janesko, R. Gomperts, B. Mennucci, H. P. Hratchian, 
 J. V. Ortiz, A. F. Izmaylov, J. L. Sonnenberg, D. Williams-Young, 
 F. Ding, F. Lipparini, F. Egidi, J. Goings, B. Peng, A. Petrone, 
 T. Henderson, D. Ranasinghe, V. G. Zakrzewski, J. Gao, N. Rega, 
 G. Zheng, W. Liang, M. Hada, M. Ehara, K. Toyota, R. Fukuda, 
 J. Hasegawa, M. Ishida, T. Nakajima, Y. Honda, O. Kitao, H. Nakai, 
 T. Vreven, K. Throssell, J. A. Montgomery, Jr., J. E. Peralta, 
 F. Ogliaro, M. J. Bearpark, J. J. Heyd, E. N. Brothers, K. N. Kudin, 
 V. N. Staroverov, T. A. Keith, R. Kobayashi, J. Normand, 
 K. Raghavachari, A. P. Rendell, J. C. Burant, S. S. Iyengar, 
 J. Tomasi, M. Cossi, J. M. Millam, M. Klene, C. Adamo, R. Cammi, 
 J. W. Ochterski, R. L. Martin, K. Morokuma, O. Farkas, 
 J. B. Foresman, and D. J. Fox, Gaussian, Inc., Wallingford CT, 2016.
 
 ******************************************
 Gaussian 16:  ES64L-G16RevA.03 25-Dec-2016
                18-Nov-2022 
 ******************************************
 %nprocs=8
 Will use up to    8 processors via shared memory.
 %mem=16000MB
 %chk=031_lig_c2.chk
 ----------------------------------------------------------------------
 #p pop=(regular,nbo,savenbos) freq=noraman def2svp empiricaldispersion
 =gd3bj output=wfx pbe1pbe
 ----------------------------------------------------------------------
 1/10=4,30=1,38=1/1,3;
 2/12=2,17=6,18=5,40=1/2;
 3/5=43,7=101,11=2,25=1,30=1,71=2,74=-13,124=41,140=1/1,2,3;
 4//1;
 5/5=2,38=5,98=1/2;
 8/6=4,10=90,11=11/1;
 11/6=1,8=1,9=11,15=111,16=1/1,2,10;
 10/6=1/2;
 6/28=1,40=1,73=1/1,7;
 7/8=1,10=1,25=1/1,2,3,16;
 1/10=4,30=1/3;
 99/6=200/99;
 Leave Link    1 at Fri Nov 18 09:55:55 2022, MaxMem=  2097152000 cpu:               0.5 elap:               0.1
 (Enter /software/gaussian/G16-A.03/avx2/g16/l101.exe)
 ----------
 031_lig_c2
 ----------
 Symbolic Z-matrix:
 Charge =  0 Multiplicity = 1
 C                    -2.99012  -1.67726   1.12197 
 C                    -3.60669  -0.41981   0.50501 
 C                    -3.67649   0.68024   1.56568 
 C                    -5.01021  -0.75543  -0.00475 
 C                    -2.76194   0.03278  -0.71299 
 C                    -3.19406   1.36134  -1.3502 
 O                    -2.19862   2.30434  -0.90412 
 C                    -1.18897   1.58147  -0.41953 
 C                    -0.0001    2.34336  -0.00014 
 C                     1.18873   1.58154   0.4195 
 N                     1.37505   0.32061   0.33384 
 C                     2.76183   0.03304   0.71337 
 C                     3.60687  -0.41979  -0.50439 
 C                     2.99102  -1.67783  -1.12083 
 C                     5.01053  -0.75456   0.00557 
 C                     3.6762    0.67973  -1.56564 
 C                     3.19388   1.36181   1.35025 
 O                     2.19825   2.30457   0.90418 
 C                     0.26376   3.68113  -0.68915 
 C                    -0.26384   3.68145   0.68823 
 N                    -1.37512   0.32052  -0.33365 
 H                    -2.81972  -2.45845   0.36701 
 H                    -3.65796  -2.07666   1.90104 
 H                    -2.01886  -1.47672   1.60066 
 H                    -4.27059   0.33665   2.42607 
 H                    -4.14771   1.60399   1.19295 
 H                    -2.67248   0.92934   1.94336 
 H                    -4.97276  -1.55779  -0.75793 
 H                    -5.51617   0.1137   -0.45544 
 H                    -5.64205  -1.10475   0.82582 
 H                    -2.7361   -0.78996  -1.44349 
 H                    -4.17545   1.72678  -1.02467 
 H                    -3.16134   1.33903  -2.44985 
 H                     2.73596  -0.78954   1.44407 
 H                     2.01969  -1.47806  -1.5997 
 H                     3.65914  -2.0772   -1.89967 
 H                     2.82093  -2.45877  -0.36554 
 H                     4.97341  -1.55642   0.75931 
 H                     5.51622   0.11505   0.45561 
 H                     5.64245  -1.10425  -0.82478 
 H                     4.1467    1.604    -1.19331 
 H                     2.67211   0.92794  -1.9437 
 H                     4.27074   0.33607  -2.4257 
 H                     4.17516   1.72724   1.02436 
 H                     3.16149   1.33982   2.44991 
 H                     1.3159    3.92756  -0.84349 
 H                    -0.41579   3.92344  -1.50808 
 H                     0.41571   3.9241    1.50706 
 H                    -1.31595   3.92802   0.84247 
 
 ITRead=  0  0  0  0  0  0  0  0  0  0  0  0  0  0  0  0  0  0  0  0
 ITRead=  0  0  0  0  0  0  0  0  0  0  0  0  0  0  0  0  0  0  0  0
 ITRead=  0  0  0  0  0  0  0  0  0
 MicOpt= -1 -1 -1 -1 -1 -1 -1 -1 -1 -1 -1 -1 -1 -1 -1 -1 -1 -1 -1 -1
 MicOpt= -1 -1 -1 -1 -1 -1 -1 -1 -1 -1 -1 -1 -1 -1 -1 -1 -1 -1 -1 -1
 MicOpt= -1 -1 -1 -1 -1 -1 -1 -1 -1
 NAtoms=     49 NQM=       49 NQMF=       0 NMMI=      0 NMMIF=      0
                NMic=       0 NMicF=      0.
                    Isotopes and Nuclear Properties:
 (Nuclear quadrupole moments (NQMom) in fm**2, nuclear magnetic moments (NMagM)
  in nuclear magnetons)

  Atom         1           2           3           4           5           6           7           8           9          10
 IAtWgt=          12          12          12          12          12          12          16          12          12          12
 AtmWgt=  12.0000000  12.0000000  12.0000000  12.0000000  12.0000000  12.0000000  15.9949146  12.0000000  12.0000000  12.0000000
 NucSpn=           0           0           0           0           0           0           0           0           0           0
 AtZEff=  -0.0000000  -0.0000000  -0.0000000  -0.0000000  -0.0000000  -0.0000000  -0.0000000  -0.0000000  -0.0000000  -0.0000000
 NQMom=    0.0000000   0.0000000   0.0000000   0.0000000   0.0000000   0.0000000   0.0000000   0.0000000   0.0000000   0.0000000
 NMagM=    0.0000000   0.0000000   0.0000000   0.0000000   0.0000000   0.0000000   0.0000000   0.0000000   0.0000000   0.0000000
 AtZNuc=   6.0000000   6.0000000   6.0000000   6.0000000   6.0000000   6.0000000   8.0000000   6.0000000   6.0000000   6.0000000

  Atom        11          12          13          14          15          16          17          18          19          20
 IAtWgt=          14          12          12          12          12          12          12          16          12          12
 AtmWgt=  14.0030740  12.0000000  12.0000000  12.0000000  12.0000000  12.0000000  12.0000000  15.9949146  12.0000000  12.0000000
 NucSpn=           2           0           0           0           0           0           0           0           0           0
 AtZEff=  -0.0000000  -0.0000000  -0.0000000  -0.0000000  -0.0000000  -0.0000000  -0.0000000  -0.0000000  -0.0000000  -0.0000000
 NQMom=    2.0440000   0.0000000   0.0000000   0.0000000   0.0000000   0.0000000   0.0000000   0.0000000   0.0000000   0.0000000
 NMagM=    0.4037610   0.0000000   0.0000000   0.0000000   0.0000000   0.0000000   0.0000000   0.0000000   0.0000000   0.0000000
 AtZNuc=   7.0000000   6.0000000   6.0000000   6.0000000   6.0000000   6.0000000   6.0000000   8.0000000   6.0000000   6.0000000

  Atom        21          22          23          24          25          26          27          28          29          30
 IAtWgt=          14           1           1           1           1           1           1           1           1           1
 AtmWgt=  14.0030740   1.0078250   1.0078250   1.0078250   1.0078250   1.0078250   1.0078250   1.0078250   1.0078250   1.0078250
 NucSpn=           2           1           1           1           1           1           1           1           1           1
 AtZEff=  -0.0000000  -0.0000000  -0.0000000  -0.0000000  -0.0000000  -0.0000000  -0.0000000  -0.0000000  -0.0000000  -0.0000000
 NQMom=    2.0440000   0.0000000   0.0000000   0.0000000   0.0000000   0.0000000   0.0000000   0.0000000   0.0000000   0.0000000
 NMagM=    0.4037610   2.7928460   2.7928460   2.7928460   2.7928460   2.7928460   2.7928460   2.7928460   2.7928460   2.7928460
 AtZNuc=   7.0000000   1.0000000   1.0000000   1.0000000   1.0000000   1.0000000   1.0000000   1.0000000   1.0000000   1.0000000

  Atom        31          32          33          34          35          36          37          38          39          40
 IAtWgt=           1           1           1           1           1           1           1           1           1           1
 AtmWgt=   1.0078250   1.0078250   1.0078250   1.0078250   1.0078250   1.0078250   1.0078250   1.0078250   1.0078250   1.0078250
 NucSpn=           1           1           1           1           1           1           1           1           1           1
 AtZEff=  -0.0000000  -0.0000000  -0.0000000  -0.0000000  -0.0000000  -0.0000000  -0.0000000  -0.0000000  -0.0000000  -0.0000000
 NQMom=    0.0000000   0.0000000   0.0000000   0.0000000   0.0000000   0.0000000   0.0000000   0.0000000   0.0000000   0.0000000
 NMagM=    2.7928460   2.7928460   2.7928460   2.7928460   2.7928460   2.7928460   2.7928460   2.7928460   2.7928460   2.7928460
 AtZNuc=   1.0000000   1.0000000   1.0000000   1.0000000   1.0000000   1.0000000   1.0000000   1.0000000   1.0000000   1.0000000

  Atom        41          42          43          44          45          46          47          48          49
 IAtWgt=           1           1           1           1           1           1           1           1           1
 AtmWgt=   1.0078250   1.0078250   1.0078250   1.0078250   1.0078250   1.0078250   1.0078250   1.0078250   1.0078250
 NucSpn=           1           1           1           1           1           1           1           1           1
 AtZEff=  -0.0000000  -0.0000000  -0.0000000  -0.0000000  -0.0000000  -0.0000000  -0.0000000  -0.0000000  -0.0000000
 NQMom=    0.0000000   0.0000000   0.0000000   0.0000000   0.0000000   0.0000000   0.0000000   0.0000000   0.0000000
 NMagM=    2.7928460   2.7928460   2.7928460   2.7928460   2.7928460   2.7928460   2.7928460   2.7928460   2.7928460
 AtZNuc=   1.0000000   1.0000000   1.0000000   1.0000000   1.0000000   1.0000000   1.0000000   1.0000000   1.0000000
 Leave Link  101 at Fri Nov 18 09:55:55 2022, MaxMem=  2097152000 cpu:               0.8 elap:               0.1
 (Enter /software/gaussian/G16-A.03/avx2/g16/l103.exe)

 GradGradGradGradGradGradGradGradGradGradGradGradGradGradGradGradGradGrad
 Berny optimization.
 Initialization pass.
 Trust Radius=3.00D-01 FncErr=1.00D-07 GrdErr=1.00D-07 EigMax=2.50D+02 EigMin=1.00D-04
 Number of steps in this run=      2 maximum allowed number of steps=      2.
 GradGradGradGradGradGradGradGradGradGradGradGradGradGradGradGradGradGrad

 Leave Link  103 at Fri Nov 18 09:55:55 2022, MaxMem=  2097152000 cpu:               0.2 elap:               0.1
 (Enter /software/gaussian/G16-A.03/avx2/g16/l202.exe)
                          Input orientation:                          
 ---------------------------------------------------------------------
 Center     Atomic      Atomic             Coordinates (Angstroms)
 Number     Number       Type             X           Y           Z
 ---------------------------------------------------------------------
      1          6           0       -2.990120   -1.677260    1.121970
      2          6           0       -3.606690   -0.419810    0.505010
      3          6           0       -3.676490    0.680240    1.565680
      4          6           0       -5.010210   -0.755430   -0.004750
      5          6           0       -2.761940    0.032780   -0.712990
      6          6           0       -3.194060    1.361340   -1.350200
      7          8           0       -2.198620    2.304340   -0.904120
      8          6           0       -1.188970    1.581470   -0.419530
      9          6           0       -0.000100    2.343360   -0.000140
     10          6           0        1.188730    1.581540    0.419500
     11          7           0        1.375050    0.320610    0.333840
     12          6           0        2.761830    0.033040    0.713370
     13          6           0        3.606870   -0.419790   -0.504390
     14          6           0        2.991020   -1.677830   -1.120830
     15          6           0        5.010530   -0.754560    0.005570
     16          6           0        3.676200    0.679730   -1.565640
     17          6           0        3.193880    1.361810    1.350250
     18          8           0        2.198250    2.304570    0.904180
     19          6           0        0.263760    3.681130   -0.689150
     20          6           0       -0.263840    3.681450    0.688230
     21          7           0       -1.375120    0.320520   -0.333650
     22          1           0       -2.819720   -2.458450    0.367010
     23          1           0       -3.657960   -2.076660    1.901040
     24          1           0       -2.018860   -1.476720    1.600660
     25          1           0       -4.270590    0.336650    2.426070
     26          1           0       -4.147710    1.603990    1.192950
     27          1           0       -2.672480    0.929340    1.943360
     28          1           0       -4.972760   -1.557790   -0.757930
     29          1           0       -5.516170    0.113700   -0.455440
     30          1           0       -5.642050   -1.104750    0.825820
     31          1           0       -2.736100   -0.789960   -1.443490
     32          1           0       -4.175450    1.726780   -1.024670
     33          1           0       -3.161340    1.339030   -2.449850
     34          1           0        2.735960   -0.789540    1.444070
     35          1           0        2.019690   -1.478060   -1.599700
     36          1           0        3.659140   -2.077200   -1.899670
     37          1           0        2.820930   -2.458770   -0.365540
     38          1           0        4.973410   -1.556420    0.759310
     39          1           0        5.516220    0.115050    0.455610
     40          1           0        5.642450   -1.104250   -0.824780
     41          1           0        4.146700    1.604000   -1.193310
     42          1           0        2.672110    0.927940   -1.943700
     43          1           0        4.270740    0.336070   -2.425700
     44          1           0        4.175160    1.727240    1.024360
     45          1           0        3.161490    1.339820    2.449910
     46          1           0        1.315900    3.927560   -0.843490
     47          1           0       -0.415790    3.923440   -1.508080
     48          1           0        0.415710    3.924100    1.507060
     49          1           0       -1.315950    3.928020    0.842470
 ---------------------------------------------------------------------
                    Distance matrix (angstroms):
                    1          2          3          4          5
     1  C    0.000000
     2  C    1.530352   0.000000
     3  C    2.495153   1.529707   0.000000
     4  C    2.489986   1.530478   2.511216   0.000000
     5  C    2.518607   1.549827   2.539280   2.485477   0.000000
     6  C    3.922538   2.604719   3.032984   3.096668   1.535525
     7  O    4.537031   3.374804   3.304801   4.251599   2.348158
     8  C    4.029849   3.271890   3.307723   4.498335   2.226835
     9  C    5.134660   4.571409   4.328233   5.890987   3.670789
    10  C    5.345655   5.196996   5.079019   6.638394   4.391923
    11  N    4.864909   5.039370   5.211988   6.484138   4.277077
    12  C    6.014733   6.387999   6.526658   7.844870   5.704957
    13  C    6.909888   7.283841   7.651313   8.638076   6.388276
    14  C    6.387816   6.910553   7.565284   8.131183   6.015735
    15  C    8.130690   8.638170   8.941863  10.020745   7.845223
    16  C    7.564289   7.650952   7.991697   8.941464   6.526500
    17  C    6.894194   7.080703   6.907455   8.580549   6.441667
    18  O    6.543820   6.424867   6.130954   7.883632   5.690321
    19  C    6.525353   5.764036   5.441982   6.925765   4.739819
    20  C    6.027977   5.294200   4.628538   6.534076   4.638611
    21  N    2.952656   2.496266   3.005521   3.805223   1.466275
    22  H    1.099663   2.189616   3.467310   2.799416   2.715873
    23  H    1.101127   2.167183   2.777284   2.684449   3.476455
    24  H    1.101229   2.199707   2.720558   3.470702   2.860723
    25  H    2.719580   2.168748   1.100582   2.765603   3.496006
    26  H    3.480180   2.204933   1.101948   2.783030   2.832255
    27  H    2.751352   2.182156   1.101240   3.478299   2.804999
    28  H    2.734805   2.180863   3.476817   1.101120   2.723905
    29  H    3.475153   2.203000   2.791114   1.102045   2.767429
    30  H    2.729140   2.171348   2.756267   1.100497   3.457881
    31  H    2.726429   2.166008   3.478638   2.691234   1.100545
    32  H    4.195302   2.696527   2.837978   2.810414   2.228181
    33  H    4.678164   3.467427   4.101691   3.712627   2.209636
    34  H    5.803429   6.422441   6.579860   7.880571   5.962887
    35  H    5.704854   6.099660   6.864718   7.244691   5.092433
    36  H    7.314569   7.830818   8.568757   8.971924   6.862251
    37  H    6.049111   6.799229   7.469904   8.022362   6.123478
    38  H    7.972699   8.658791   8.970711  10.044802   8.032986
    39  H    8.718614   9.138709   9.276724  10.572388   8.360642
    40  H    8.867888   9.369279   9.784751  10.689869   8.481692
    41  H    8.189102   8.191163   8.346716   9.530403   7.101320
    42  H    6.945952   6.872841   7.258225   8.100080   5.643125
    43  H    8.328238   8.438858   8.899889   9.653414   7.244581
    44  H    7.933561   8.089298   7.939625   9.570462   7.349349
    45  H    6.979148   7.258595   6.926390   8.785904   6.841002
    46  H    7.336133   6.704474   6.424418   7.915399   5.640489
    47  H    6.701655   5.753103   5.531592   6.727594   4.612355
    48  H    6.566826   6.004445   5.222276   7.322853   5.492582
    49  H    5.856631   4.925951   4.079615   6.024952   4.436579
                    6          7          8          9         10
     6  C    0.000000
     7  O    1.441921   0.000000
     8  C    2.221484   1.332952   0.000000
     9  C    3.603943   2.377434   1.473016   0.000000
    10  C    4.731720   3.707904   2.521394   1.473019   0.000000
    11  N    4.979546   4.270696   2.954917   2.468623   1.277496
    12  C    6.441687   5.690443   4.392029   3.670822   2.226849
    13  C    7.080993   6.425292   5.197338   4.571597   3.272048
    14  C    6.895243   6.544998   5.346698   5.135437   4.030429
    15  C    8.580818   7.883923   6.638640   5.890972   4.498317
    16  C    6.907350   6.131107   5.079034   4.328237   3.307801
    17  C    6.935287   5.920271   4.731780   3.603956   2.221532
    18  O    5.920213   4.754200   3.707876   2.377402   1.332973
    19  C    4.216033   2.829325   2.567429   1.527739   2.548127
    20  C    4.257264   2.859263   2.548120   1.527710   2.567450
    21  N    2.329211   2.222415   1.277506   2.468560   2.954781
    22  H    4.204728   4.968471   4.427069   5.580541   5.691392
    23  H    4.754536   5.402940   4.986268   6.044088   6.250423
    24  H    4.259490   4.539014   3.757980   4.607707   4.586581
    25  H    4.058217   4.388055   4.375317   5.305701   5.948130
    26  H    2.726892   2.947396   3.369680   4.378676   5.392246
    27  H    3.362470   3.197391   2.865192   3.594198   4.201959
    28  H    3.469276   4.757444   4.928137   6.365577   7.014677
    29  H    2.783774   4.000794   4.569496   5.967052   6.919231
    30  H    4.099917   5.145075   5.347579   6.663578   7.351245
    31  H    2.201482   3.186612   3.010944   4.403027   4.949650
    32  H    1.096651   2.062999   3.050635   4.343199   5.557081
    33  H    1.100363   2.061052   2.840989   4.123493   5.216808
    34  H    6.899229   6.279822   4.949724   4.403048   3.010928
    35  H    5.942023   5.708285   4.587922   4.608839   3.758832
    36  H    7.687121   7.382572   6.251468   6.044800   4.986768
    37  H    7.193254   6.940689   5.692605   5.581414   4.427693
    38  H    8.925857   8.313271   7.015051   6.365599   4.928090
    39  H    8.982381   8.133917   6.919236   5.966813   4.569362
    40  H    9.189076   8.550272   7.351573   6.663664   5.347646
    41  H    7.346445   6.390398   5.391532   4.377929   3.369161
    42  H    5.912024   5.167128   4.202158   3.594655   2.865715
    43  H    7.611249   6.931227   5.948460   5.305905   4.375516
    44  H    7.750988   6.684097   5.556974   4.343040   3.050549
    45  H    7.405020   6.396139   5.217143   4.123771   2.841263
    46  H    5.213634   3.871740   3.458071   2.225485   2.667419
    47  H    3.782601   2.482888   2.695843   2.223361   3.431406
    48  H    5.268976   3.907958   3.431423   2.223351   2.695911
    49  H    3.863023   2.542837   2.667408   2.225444   3.458077
                   11         12         13         14         15
    11  N    0.000000
    12  C    1.466253   0.000000
    13  C    2.496366   1.549867   0.000000
    14  C    2.953165   2.518709   1.530338   0.000000
    15  C    3.805321   2.485547   1.530487   2.489905   0.000000
    16  C    3.005376   2.539324   1.529707   2.495079   2.511240
    17  C    2.329234   1.535550   2.604678   3.922601   3.096353
    18  O    2.222396   2.348165   3.374969   4.537473   4.251434
    19  C    3.684368   4.638532   5.294154   6.028495   6.533744
    20  C    3.755902   4.739853   5.764105   6.526001   6.925546
    21  N    2.830014   4.277061   5.039587   4.865823   6.484396
    22  H    5.031935   6.122188   6.798274   6.048780   8.021639
    23  H    5.790873   6.861129   7.830011   7.314349   8.971258
    24  H    4.043990   5.091331   6.098949   5.704897   7.244180
    25  H    6.020875   7.244339   8.438849   8.328842   9.653432
    26  H    5.734633   7.102086   8.192079   8.190567   9.531316
    27  H    4.398137   5.643399   6.873272   6.947073   8.100567
    28  H    6.709325   8.032394   8.658486   7.972948  10.044610
    29  H    6.939358   8.360497   9.138756   8.719209  10.572503
    30  H    7.177283   8.481298   9.369160   8.868357  10.689851
    31  H    4.614523   5.962936   6.422788   5.804509   7.881073
    32  H    5.884804   7.349516   8.089682   7.934665   9.570824
    33  H    5.418943   6.840725   7.258576   6.979919   8.785879
    34  H    2.077768   1.100559   2.166032   2.726321   2.691500
    35  H    2.718336   2.860854   2.199723   1.101230   3.470658
    36  H    3.994387   3.476529   2.167152   1.101123   2.684319
    37  H    3.210086   2.716000   2.189617   1.099664   2.799358
    38  H    4.080743   2.723891   2.180894   2.734874   1.101127
    39  H    4.148056   2.767640   2.203014   3.475085   1.102034
    40  H    4.645786   3.457934   2.171341   2.728868   1.100494
    41  H    3.414868   2.832174   2.204938   3.480123   2.783221
    42  H    2.690428   2.805159   2.182147   2.751155   3.478314
    43  H    4.000040   3.496054   2.168751   2.719589   2.765472
    44  H    3.208745   2.228123   2.696251   4.195060   2.809823
    45  H    2.950917   2.209745   3.467345   4.678189   3.712166
    46  H    3.794693   4.436419   4.925747   5.856905   6.024404
    47  H    4.424948   5.492479   6.004401   6.567385   7.322552
    48  H    3.909209   4.612437   5.753157   6.702212   6.727310
    49  H    4.529193   5.640552   6.704598   7.336899   7.915258
                   16         17         18         19         20
    16  C    0.000000
    17  C    3.033196   0.000000
    18  O    3.305216   1.441892   0.000000
    19  C    4.628324   4.257229   2.859348   0.000000
    20  C    5.441890   4.216020   2.829191   1.474970   0.000000
    21  N    5.211781   4.979515   4.270556   3.755797   3.684431
    22  H    7.468620   7.191977   6.939376   6.951098   6.658384
    23  H    8.567699   7.685971   7.381335   7.432437   6.793143
    24  H    6.863632   5.940759   5.706773   6.087446   5.524431
    25  H    8.899602   7.610956   6.930711   6.438204   5.501074
    26  H    8.347314   7.347267   6.391041   5.226651   4.433399
    27  H    7.258176   5.912105   5.166736   4.808738   3.866653
    28  H    8.970139   8.925385   8.312871   7.407574   7.191310
    29  H    9.276454   8.982386   8.133926   6.796232   6.451650
    30  H    9.784336   9.188722   8.549848   7.751024   7.200818
    31  H    6.579704   6.899258   6.279768   5.436804   5.536227
    32  H    7.939608   7.751159   6.684187   4.861959   4.696323
    33  H    6.925926   7.404735   6.395857   4.507417   4.871343
    34  H    3.478672   2.201545   3.186555   5.536180   5.436897
    35  H    2.720523   4.259787   4.539778   5.525363   6.088487
    36  H    2.777144   4.754496   5.403303   6.793551   7.432970
    37  H    3.467262   4.204742   4.968836   6.658995   6.951873
    38  H    3.476854   3.468718   4.757073   7.191020   7.407369
    39  H    2.791055   2.783533   4.000517   6.451026   6.795764
    40  H    2.756374   4.099720   5.145082   7.200595   7.750896
    41  H    1.101941   2.726943   2.947324   4.432366   5.225787
    42  H    1.101242   3.363123   3.198449   3.867053   4.809228
    43  H    1.100583   4.058272   4.388429   5.500993   6.438210
    44  H    2.838017   1.096656   2.062990   4.696046   4.861753
    45  H    4.101864   1.100357   2.061033   4.871578   4.507730
    46  H    4.079328   3.862949   2.543027   1.091580   2.214117
    47  H    5.222006   5.268939   3.908061   1.091398   2.214820
    48  H    5.531566   3.782611   2.482698   2.214828   1.091398
    49  H    6.424324   5.213621   3.871563   2.214113   1.091569
                   21         22         23         24         25
    21  N    0.000000
    22  H    3.209434   0.000000
    23  H    3.993954   1.789318   0.000000
    24  H    2.717725   1.768350   1.771103   0.000000
    25  H    4.000008   3.762624   2.544609   3.006643   0.000000
    26  H    3.415415   4.353062   3.780004   3.766829   1.772522
    27  H    2.690461   3.739476   3.163700   2.516702   1.771510
    28  H    4.080573   2.590803   3.011320   3.780879   3.770915
    29  H    4.148000   3.816179   3.715322   4.357541   3.147106
    30  H    4.645692   3.163630   2.457096   3.723741   2.553299
    31  H    2.077782   2.463486   3.700176   3.202018   4.312471
    32  H    3.208882   4.614209   4.826358   4.669652   3.721441
    33  H    2.950635   4.740491   5.553721   5.063629   5.099980
    34  H    4.614488   5.900076   6.538173   4.806771   7.164103
    35  H    4.045060   5.314979   6.696955   5.152882   7.685546
    36  H    5.791826   6.874505   8.245323   6.697206   9.349830
    37  H    5.033121   5.688019   6.874548   5.315443   8.117704
    38  H    6.709791   7.854962   8.722084   7.043157   9.581928
    39  H    6.939432   8.724600   9.542455   7.786032   9.985663
    40  H    7.177567   8.652314   9.740293   8.044698  10.531504
    41  H    5.733832   8.213958   9.167059   7.437152   9.249695
    42  H    4.397873   6.853263   7.992461   6.352171   8.224694
    43  H    6.021017   8.116846   9.349130   7.684846   9.823135
    44  H    5.884612   8.178047   8.751914   6.997383   8.673478
    45  H    5.419226   7.385134   7.647123   5.957361   7.499515
    46  H    4.529047   7.703881   8.265736   6.804464   7.402265
    47  H    3.909045   7.072720   7.624629   6.433959   6.572829
    48  H    4.425051   7.246010   7.263548   5.924926   5.972921
    49  H    3.794841   6.578327   6.531597   5.502740   4.912802
                   26         27         28         29         30
    26  H    0.000000
    27  H    1.787336   0.000000
    28  H    3.805718   4.332906   0.000000
    29  H    2.609758   3.808685   1.783444   0.000000
    30  H    3.115302   3.768921   1.778049   1.772595   0.000000
    31  H    3.830725   3.798788   2.462154   3.085714   3.700460
    32  H    2.221190   3.421116   3.390465   2.173380   3.686840
    33  H    3.783269   4.439271   3.812532   3.320291   4.780795
    34  H    7.292253   5.696934   8.053780   8.515963   8.406702
    35  H    7.438733   6.353370   7.043386   7.786669   8.045170
    36  H    9.168553   7.993596   8.722560   9.543173   9.740949
    37  H    8.215647   6.854769   7.855402   8.725418   8.653019
    38  H    9.662870   8.126537  10.061228  10.690940  10.625273
    39  H    9.805721   8.362492  10.690640  11.069943  11.230848
    40  H   10.356304   8.996452  10.625105  11.230967  11.404579
    41  H    8.630844   7.536251   9.661833   9.804922  10.355377
    42  H    7.536946   6.608622   8.125819   8.362167   8.995962
    43  H    9.250543   8.224899   9.581777   9.985739  10.531465
    44  H    8.325490   6.954954   9.881924   9.935552  10.219452
    45  H    7.421195   5.870289   9.211536   9.232888   9.279866
    46  H    6.276711   5.715158   8.345276   7.834111   8.747789
    47  H    5.157775   5.096050   7.167467   6.452600   7.618634
    48  H    5.128974   4.323871   8.013545   7.318316   7.902523
    49  H    3.680057   3.470478   6.784368   5.820262   6.636580
                   31         32         33         34         35
    31  H    0.000000
    32  H    2.929355   0.000000
    33  H    2.392945   1.791621   0.000000
    34  H    6.187200   7.758488   7.380486   0.000000
    35  H    4.807850   6.998673   5.958341   3.201818   0.000000
    36  H    6.539433   8.753096   7.648024   3.700125   1.771086
    37  H    5.901482   8.179402   7.386148   2.463379   1.768312
    38  H    8.054585   9.882491   9.211759   2.462353   3.780943
    39  H    8.516244   9.935662   9.232544   3.086289   4.357525
    40  H    8.407240  10.219875   9.279935   3.700595   3.723523
    41  H    7.291541   8.324764   7.420010   3.830796   3.766752
    42  H    5.696501   6.954987   5.869780   3.798789   2.516510
    43  H    7.164390   8.673816   7.499488   4.312501   3.006754
    44  H    7.758356   8.598326   8.126812   2.929443   4.669656
    45  H    7.380792   8.127308   7.999114   2.393108   5.063941
    46  H    6.247695   5.918715   5.415400   5.431439   5.503445
    47  H    5.253965   4.381101   3.886406   6.392253   5.925889
    48  H    6.392340   5.684771   5.927479   5.254135   6.434908
    49  H    5.431554   4.063054   4.576866   6.247821   6.805615
                   36         37         38         39         40
    36  H    0.000000
    37  H    1.789342   0.000000
    38  H    3.011427   2.590887   0.000000
    39  H    3.715111   3.816206   1.783448   0.000000
    40  H    2.456733   3.163321   1.778036   1.772576   0.000000
    41  H    3.779933   4.353041   3.805841   2.609884   3.115718
    42  H    3.163390   3.739324   4.332931   3.808732   3.768912
    43  H    2.544530   3.762624   3.770882   3.146747   2.553244
    44  H    4.825971   4.613940   3.389672   2.172804   3.686407
    45  H    5.553605   4.740467   3.811744   3.319947   4.780401
    46  H    6.531725   6.578660   6.783833   5.819414   6.636151
    47  H    7.264026   7.246679   8.013326   7.317695   7.902331
    48  H    7.625041   7.073383   7.167137   6.452101   7.618438
    49  H    8.266409   7.704813   8.345181   7.833706   8.747731
                   41         42         43         44         45
    41  H    0.000000
    42  H    1.787333   0.000000
    43  H    1.772517   1.771511   0.000000
    44  H    2.221274   3.421611   3.721210   0.000000
    45  H    3.783316   4.439926   5.099953   1.791595   0.000000
    46  H    3.678958   3.470949   4.912562   4.062713   4.577017
    47  H    5.127884   4.324108   5.972840   5.684485   5.927707
    48  H    5.157048   5.096671   6.572809   4.380943   3.886744
    49  H    6.275828   5.715579   7.402307   5.918514   5.415728
                   46         47         48         49
    46  H    0.000000
    47  H    1.854844   0.000000
    48  H    2.517030   3.127693   0.000000
    49  H    3.125555   2.517021   1.854816   0.000000
 Stoichiometry    C17H28N2O2
 Framework group  C1[X(C17H28N2O2)]
 Deg. of freedom   141
 Full point group                 C1      NOp   1
 Largest Abelian subgroup         C1      NOp   1
 Largest concise Abelian subgroup C1      NOp   1
                         Standard orientation:                         
 ---------------------------------------------------------------------
 Center     Atomic      Atomic             Coordinates (Angstroms)
 Number     Number       Type             X           Y           Z
 ---------------------------------------------------------------------
      1          6           0        3.025608   -2.415642   -1.021899
      2          6           0        3.621429   -1.158087   -0.385085
      3          6           0        3.726291   -0.058214   -1.443047
      4          6           0        5.007312   -1.493619    0.170894
      5          6           0        2.736840   -0.705297    0.804221
      6          6           0        3.147641    0.623370    1.455159
      7          8           0        2.167510    1.566293    0.976228
      8          6           0        1.174446    0.843339    0.458615
      9          6           0        0.000106    1.605156   -0.000012
     10          6           0       -1.174189    0.843263   -0.458633
     11          7           0       -1.363245   -0.417653   -0.378975
     12          6           0       -2.736708   -0.705291   -0.804137
     13          6           0       -3.621581   -1.157920    0.385069
     14          6           0       -3.026470   -2.415856    1.021759
     15          6           0       -5.007599   -1.492779   -0.171002
     16          6           0       -3.725987   -0.058224    1.443261
     17          6           0       -3.147444    0.623372   -1.455186
     18          8           0       -2.167117    1.566209   -0.976572
     19          6           0       -0.286405    2.943040    0.679667
     20          6           0        0.286483    2.943132   -0.679500
     21          7           0        1.363332   -0.417624    0.379151
     22          1           0        2.830318   -3.196707   -0.272861
     23          1           0        3.718861   -2.815170   -1.778378
     24          1           0        2.070720   -2.215184   -1.532499
     25          1           0        4.348534   -0.401945   -2.283250
     26          1           0        4.184922    0.865600   -1.055083
     27          1           0        2.735328    0.190820   -1.853784
     28          1           0        4.944958   -2.295853    0.922556
     29          1           0        5.498084   -0.624412    0.637934
     30          1           0        5.666288   -1.843075   -0.638256
     31          1           0        2.686840   -1.527916    1.533603
     32          1           0        4.139267    0.988759    1.162220
     33          1           0        3.078552    0.601243    2.553128
     34          1           0       -2.686676   -1.527992   -1.533444
     35          1           0       -2.071517   -2.216003    1.532475
     36          1           0       -3.719996   -2.815098    1.778131
     37          1           0       -2.831483   -3.196921    0.272641
     38          1           0       -4.945561   -2.294765   -0.922968
     39          1           0       -5.498118   -0.623246   -0.637674
     40          1           0       -5.666650   -1.842333    0.638041
     41          1           0       -4.183907    0.865983    1.055412
     42          1           0       -2.734956    0.190052    1.854297
     43          1           0       -4.348661   -0.401742    2.283234
     44          1           0       -4.138969    0.988854   -1.162006
     45          1           0       -3.078684    0.601199   -2.553169
     46          1           0       -1.343075    3.189493    0.799067
     47          1           0        0.365675    3.185488    1.520595
     48          1           0       -0.365600    3.185644   -1.520408
     49          1           0        1.343121    3.189680   -0.798883
 ---------------------------------------------------------------------
 Rotational constants (GHZ):           0.5276190           0.1824602           0.1572595
 Leave Link  202 at Fri Nov 18 09:55:55 2022, MaxMem=  2097152000 cpu:               0.1 elap:               0.0
 (Enter /software/gaussian/G16-A.03/avx2/g16/l301.exe)
 Standard basis: def2SVP (5D, 7F)
 Ernie: Thresh=  0.10000D-02 Tol=  0.10000D-05 Strict=F.
 There are   455 symmetry adapted cartesian basis functions of A   symmetry.
 There are   434 symmetry adapted basis functions of A   symmetry.
   434 basis functions,   721 primitive gaussians,   455 cartesian basis functions
    80 alpha electrons       80 beta electrons
       nuclear repulsion energy      1841.5950308153 Hartrees.
 IExCor= 1009 DFT=T Ex+Corr=PBE1PBE ExCW=0 ScaHFX=  0.250000
 ScaDFX=  0.750000  0.750000  1.000000  1.000000 ScalE2=  1.000000  1.000000
 IRadAn=      5 IRanWt=     -1 IRanGd=            0 ICorTp=0 IEmpDi=141
 NAtoms=   49 NActive=   49 NUniq=   49 SFac= 1.00D+00 NAtFMM=   60 NAOKFM=F Big=F
 Integral buffers will be    131072 words long.
 Raffenetti 2 integral format.
 Two-electron integral symmetry is turned on.
 R6Disp:  Grimme-D3(BJ) Dispersion energy=       -0.0518281977 Hartrees.
 Nuclear repulsion after empirical dispersion term =     1841.5432026176 Hartrees.
 Leave Link  301 at Fri Nov 18 09:55:56 2022, MaxMem=  2097152000 cpu:               0.4 elap:               0.1
 (Enter /software/gaussian/G16-A.03/avx2/g16/l302.exe)
 NPDir=0 NMtPBC=     1 NCelOv=     1 NCel=       1 NClECP=     1 NCelD=      1
         NCelK=      1 NCelE2=     1 NClLst=     1 CellRange=     0.0.
 One-electron integrals computed using PRISM.
 One-electron integral symmetry used in STVInt
   1 Symmetry operations used in ECPInt.
 ECPInt:  NShTT=   22155 NPrTT=   77385 LenC2=   19811 LenP2D=   48572.
 LDataN:  DoStor=T MaxTD1= 4 Len=   56
 NBasis=   434 RedAO= T EigKep=  7.63D-04  NBF=   434
 NBsUse=   434 1.00D-06 EigRej= -1.00D+00 NBFU=   434
 Precomputing XC quadrature grid using
 IXCGrd= 4 IRadAn=           5 IRanWt=          -1 IRanGd=           0 AccXCQ= 0.00D+00.
 Generated NRdTot=       0 NPtTot=           0 NUsed=           0 NTot=          32
 NSgBfM=   451   451   451   451   451 MxSgAt=    49 MxSgA2=    49.
 Leave Link  302 at Fri Nov 18 09:55:56 2022, MaxMem=  2097152000 cpu:               5.9 elap:               0.8
 (Enter /software/gaussian/G16-A.03/avx2/g16/l303.exe)
 DipDrv:  MaxL=1.
 Leave Link  303 at Fri Nov 18 09:55:57 2022, MaxMem=  2097152000 cpu:               0.5 elap:               0.1
 (Enter /software/gaussian/G16-A.03/avx2/g16/l401.exe)
 ExpMin= 1.22D-01 ExpMax= 2.27D+03 ExpMxC= 3.41D+02 IAcc=3 IRadAn=         5 AccDes= 0.00D+00
 Harris functional with IExCor= 1009 and IRadAn=       5 diagonalized for initial guess.
 HarFok:  IExCor= 1009 AccDes= 0.00D+00 IRadAn=         5 IDoV= 1 UseB2=F ITyADJ=14
 ICtDFT=  3500011 ScaDFX=  1.000000  1.000000  1.000000  1.000000
 FoFCou: FMM=F IPFlag=           0 FMFlag=      100000 FMFlg1=           0
         NFxFlg=           0 DoJE=T BraDBF=F KetDBF=T FulRan=T
         wScrn=  0.000000 ICntrl=       500 IOpCl=  0 I1Cent=   200000004 NGrid=           0
         NMat0=    1 NMatS0=      1 NMatT0=    0 NMatD0=    1 NMtDS0=    0 NMtDT0=    0
 Petite list used in FoFCou.
 Harris En= -923.153049112089    
 JPrj=0 DoOrth=F DoCkMO=F.
 Leave Link  401 at Fri Nov 18 09:56:00 2022, MaxMem=  2097152000 cpu:              25.0 elap:               3.2
 (Enter /software/gaussian/G16-A.03/avx2/g16/l502.exe)
 Integral symmetry usage will be decided dynamically.
 Closed shell SCF:
 Using DIIS extrapolation, IDIIS=  1040.
 NGot=  2097152000 LenX=  2096729245 LenY=  2096521765
 Requested convergence on RMS density matrix=1.00D-08 within 128 cycles.
 Requested convergence on MAX density matrix=1.00D-06.
 Requested convergence on             energy=1.00D-06.
 No special actions if energy rises.
 Fock matrices will be formed incrementally for  20 cycles.
 Integral accuracy reduced to 1.0D-05 until final iterations.

 Cycle   1  Pass 0  IDiag  1:
 FoFJK:  IHMeth= 1 ICntrl=       0 DoSepK=F KAlg= 0 I1Cent=           0 FoldK=F
 IRaf= 820000000 NMat=       1 IRICut=       1 DoRegI=T DoRafI=F ISym2E= 0 IDoP0=0 IntGTp=1.
 FoFCou: FMM=F IPFlag=           0 FMFlag=      100000 FMFlg1=           0
         NFxFlg=           0 DoJE=F BraDBF=F KetDBF=F FulRan=T
         wScrn=  0.000000 ICntrl=         0 IOpCl=  0 I1Cent=           0 NGrid=           0
         NMat0=    1 NMatS0=      1 NMatT0=    0 NMatD0=    1 NMtDS0=    0 NMtDT0=    0
 Symmetry not used in FoFCou.
 E= -922.387599993098    
 DIIS: error= 2.77D-02 at cycle   1 NSaved=   1.
 NSaved= 1 IEnMin= 1 EnMin= -922.387599993098     IErMin= 1 ErrMin= 2.77D-02
 ErrMax= 2.77D-02  0.00D+00 EMaxC= 1.00D-01 BMatC= 4.76D-01 BMatP= 4.76D-01
 IDIUse=3 WtCom= 7.23D-01 WtEn= 2.77D-01
 Coeff-Com:  0.100D+01
 Coeff-En:   0.100D+01
 Coeff:      0.100D+01
 Gap=     0.252 Goal=   None    Shift=    0.000
 GapD=    0.252 DampG=1.000 DampE=0.500 DampFc=0.5000 IDamp=-1.
 Damping current iteration by 5.00D-01
 RMSDP=4.39D-03 MaxDP=1.56D-01              OVMax= 2.42D-01

 Cycle   2  Pass 0  IDiag  1:
 RMSU=  2.18D-03    CP:  9.86D-01
 E= -922.595539704288     Delta-E=       -0.207939711190 Rises=F Damp=T
 DIIS: error= 5.65D-03 at cycle   2 NSaved=   2.
 NSaved= 2 IEnMin= 2 EnMin= -922.595539704288     IErMin= 2 ErrMin= 5.65D-03
 ErrMax= 5.65D-03  0.00D+00 EMaxC= 1.00D-01 BMatC= 3.96D-02 BMatP= 4.76D-01
 IDIUse=3 WtCom= 9.43D-01 WtEn= 5.65D-02
 Coeff-Com:  0.109D+00 0.891D+00
 Coeff-En:   0.180D+00 0.820D+00
 Coeff:      0.113D+00 0.887D+00
 Gap=     0.308 Goal=   None    Shift=    0.000
 RMSDP=1.45D-03 MaxDP=5.96D-02 DE=-2.08D-01 OVMax= 2.20D-01

 Cycle   3  Pass 0  IDiag  1:
 RMSU=  1.31D-03    CP:  9.79D-01  7.16D-01
 E= -922.851665673711     Delta-E=       -0.256125969423 Rises=F Damp=F
 DIIS: error= 9.91D-03 at cycle   3 NSaved=   3.
 NSaved= 3 IEnMin= 3 EnMin= -922.851665673711     IErMin= 2 ErrMin= 5.65D-03
 ErrMax= 9.91D-03  0.00D+00 EMaxC= 1.00D-01 BMatC= 5.24D-02 BMatP= 3.96D-02
 IDIUse=3 WtCom= 9.13D-02 WtEn= 9.09D-01
 Coeff-Com:  0.183D-01 0.536D+00 0.446D+00
 Coeff-En:   0.000D+00 0.000D+00 0.100D+01
 Coeff:      0.167D-02 0.489D-01 0.949D+00
 Gap=     0.249 Goal=   None    Shift=    0.000
 RMSDP=2.00D-03 MaxDP=1.30D-01 DE=-2.56D-01 OVMax= 2.10D-01

 Cycle   4  Pass 0  IDiag  1:
 RMSU=  1.12D-03    CP:  9.89D-01  1.19D+00  1.69D-02
 E= -922.698778007992     Delta-E=        0.152887665719 Rises=F Damp=F
 DIIS: error= 2.15D-02 at cycle   4 NSaved=   4.
 NSaved= 4 IEnMin= 3 EnMin= -922.851665673711     IErMin= 2 ErrMin= 5.65D-03
 ErrMax= 2.15D-02  0.00D+00 EMaxC= 1.00D-01 BMatC= 2.22D-01 BMatP= 3.96D-02
 IDIUse=2 WtCom= 0.00D+00 WtEn= 1.00D+00
 Coeff-En:   0.000D+00 0.000D+00 0.752D+00 0.248D+00
 Coeff:      0.000D+00 0.000D+00 0.752D+00 0.248D+00
 Gap=     0.249 Goal=   None    Shift=    0.000
 RMSDP=1.09D-03 MaxDP=8.09D-02 DE= 1.53D-01 OVMax= 1.09D-01

 Cycle   5  Pass 0  IDiag  1:
 RMSU=  1.70D-04    CP:  9.84D-01  9.07D-01  5.03D-01  4.58D-01
 E= -922.887748432044     Delta-E=       -0.188970424053 Rises=F Damp=F
 DIIS: error= 5.01D-03 at cycle   5 NSaved=   5.
 NSaved= 5 IEnMin= 5 EnMin= -922.887748432044     IErMin= 5 ErrMin= 5.01D-03
 ErrMax= 5.01D-03  0.00D+00 EMaxC= 1.00D-01 BMatC= 1.31D-02 BMatP= 3.96D-02
 IDIUse=3 WtCom= 9.50D-01 WtEn= 5.01D-02
 Coeff-Com: -0.258D-03 0.677D-02 0.293D+00-0.398D-01 0.740D+00
 Coeff-En:   0.000D+00 0.000D+00 0.248D+00 0.000D+00 0.752D+00
 Coeff:     -0.245D-03 0.643D-02 0.291D+00-0.378D-01 0.741D+00
 Gap=     0.266 Goal=   None    Shift=    0.000
 RMSDP=3.24D-04 MaxDP=2.20D-02 DE=-1.89D-01 OVMax= 3.35D-02

 Cycle   6  Pass 0  IDiag  1:
 RMSU=  4.75D-05    CP:  9.82D-01  8.37D-01  6.66D-01  3.01D-01  7.65D-01
 E= -922.899534376440     Delta-E=       -0.011785944396 Rises=F Damp=F
 DIIS: error= 2.59D-04 at cycle   6 NSaved=   6.
 NSaved= 6 IEnMin= 6 EnMin= -922.899534376440     IErMin= 6 ErrMin= 2.59D-04
 ErrMax= 2.59D-04  0.00D+00 EMaxC= 1.00D-01 BMatC= 4.66D-05 BMatP= 1.31D-02
 IDIUse=3 WtCom= 9.97D-01 WtEn= 2.59D-03
 Coeff-Com: -0.199D-02 0.213D-02 0.918D-01-0.437D-01 0.368D+00 0.584D+00
 Coeff-En:   0.000D+00 0.000D+00 0.000D+00 0.000D+00 0.000D+00 0.100D+01
 Coeff:     -0.198D-02 0.213D-02 0.915D-01-0.436D-01 0.367D+00 0.585D+00
 Gap=     0.266 Goal=   None    Shift=    0.000
 RMSDP=2.03D-05 MaxDP=1.37D-03 DE=-1.18D-02 OVMax= 9.06D-04

 Cycle   7  Pass 0  IDiag  1:
 RMSU=  8.89D-06    CP:  9.82D-01  8.39D-01  6.63D-01  3.03D-01  8.16D-01
                    CP:  6.91D-01
 E= -922.899578455225     Delta-E=       -0.000044078785 Rises=F Damp=F
 DIIS: error= 3.39D-05 at cycle   7 NSaved=   7.
 NSaved= 7 IEnMin= 7 EnMin= -922.899578455225     IErMin= 7 ErrMin= 3.39D-05
 ErrMax= 3.39D-05  0.00D+00 EMaxC= 1.00D-01 BMatC= 1.03D-06 BMatP= 4.66D-05
 IDIUse=1 WtCom= 1.00D+00 WtEn= 0.00D+00
 Coeff-Com: -0.775D-03 0.752D-03 0.275D-01-0.170D-01 0.123D+00 0.217D+00
 Coeff-Com:  0.649D+00
 Coeff:     -0.775D-03 0.752D-03 0.275D-01-0.170D-01 0.123D+00 0.217D+00
 Coeff:      0.649D+00
 Gap=     0.266 Goal=   None    Shift=    0.000
 RMSDP=3.70D-06 MaxDP=1.30D-04 DE=-4.41D-05 OVMax= 1.49D-04

 Initial convergence to 1.0D-05 achieved.  Increase integral accuracy.
 Cycle   8  Pass 1  IDiag  1:
 E= -922.899610114721     Delta-E=       -0.000031659496 Rises=F Damp=F
 DIIS: error= 8.86D-05 at cycle   1 NSaved=   1.
 NSaved= 1 IEnMin= 1 EnMin= -922.899610114721     IErMin= 1 ErrMin= 8.86D-05
 ErrMax= 8.86D-05  0.00D+00 EMaxC= 1.00D-01 BMatC= 1.81D-06 BMatP= 1.81D-06
 IDIUse=1 WtCom= 1.00D+00 WtEn= 0.00D+00
 Coeff-Com:  0.100D+01
 Coeff:      0.100D+01
 Gap=     0.266 Goal=   None    Shift=    0.000
 RMSDP=3.70D-06 MaxDP=1.30D-04 DE=-3.17D-05 OVMax= 2.56D-04

 Cycle   9  Pass 1  IDiag  1:
 RMSU=  4.74D-05    CP:  1.00D+00
 E= -922.899611815486     Delta-E=       -0.000001700765 Rises=F Damp=F
 DIIS: error= 2.47D-05 at cycle   2 NSaved=   2.
 NSaved= 2 IEnMin= 2 EnMin= -922.899611815486     IErMin= 2 ErrMin= 2.47D-05
 ErrMax= 2.47D-05  0.00D+00 EMaxC= 1.00D-01 BMatC= 3.31D-07 BMatP= 1.81D-06
 IDIUse=1 WtCom= 1.00D+00 WtEn= 0.00D+00
 Coeff-Com:  0.204D+00 0.796D+00
 Coeff:      0.204D+00 0.796D+00
 Gap=     0.266 Goal=   None    Shift=    0.000
 RMSDP=4.22D-06 MaxDP=1.84D-04 DE=-1.70D-06 OVMax= 3.07D-04

 Cycle  10  Pass 1  IDiag  1:
 RMSU=  4.14D-06    CP:  1.00D+00  1.01D+00
 E= -922.899611654719     Delta-E=        0.000000160767 Rises=F Damp=F
 DIIS: error= 2.89D-05 at cycle   3 NSaved=   3.
 NSaved= 3 IEnMin= 2 EnMin= -922.899611815486     IErMin= 2 ErrMin= 2.47D-05
 ErrMax= 2.89D-05  0.00D+00 EMaxC= 1.00D-01 BMatC= 5.16D-07 BMatP= 3.31D-07
 IDIUse=1 WtCom= 1.00D+00 WtEn= 0.00D+00
 Coeff-Com:  0.377D-02 0.555D+00 0.441D+00
 Coeff:      0.377D-02 0.555D+00 0.441D+00
 Gap=     0.266 Goal=   None    Shift=    0.000
 RMSDP=2.47D-06 MaxDP=1.22D-04 DE= 1.61D-07 OVMax= 2.17D-04

 Cycle  11  Pass 1  IDiag  1:
 RMSU=  7.02D-07    CP:  1.00D+00  1.02D+00  4.41D-01
 E= -922.899612093227     Delta-E=       -0.000000438508 Rises=F Damp=F
 DIIS: error= 6.21D-06 at cycle   4 NSaved=   4.
 NSaved= 4 IEnMin= 4 EnMin= -922.899612093227     IErMin= 4 ErrMin= 6.21D-06
 ErrMax= 6.21D-06  0.00D+00 EMaxC= 1.00D-01 BMatC= 2.39D-08 BMatP= 3.31D-07
 IDIUse=1 WtCom= 1.00D+00 WtEn= 0.00D+00
 Coeff-Com: -0.535D-02 0.333D+00 0.288D+00 0.384D+00
 Coeff:     -0.535D-02 0.333D+00 0.288D+00 0.384D+00
 Gap=     0.266 Goal=   None    Shift=    0.000
 RMSDP=4.13D-07 MaxDP=1.42D-05 DE=-4.39D-07 OVMax= 3.65D-05

 Cycle  12  Pass 1  IDiag  1:
 RMSU=  1.57D-07    CP:  1.00D+00  1.02D+00  4.59D-01  4.67D-01
 E= -922.899612114450     Delta-E=       -0.000000021223 Rises=F Damp=F
 DIIS: error= 2.61D-07 at cycle   5 NSaved=   5.
 NSaved= 5 IEnMin= 5 EnMin= -922.899612114450     IErMin= 5 ErrMin= 2.61D-07
 ErrMax= 2.61D-07  0.00D+00 EMaxC= 1.00D-01 BMatC= 7.77D-11 BMatP= 2.39D-08
 IDIUse=1 WtCom= 1.00D+00 WtEn= 0.00D+00
 Coeff-Com: -0.235D-02 0.137D+00 0.119D+00 0.169D+00 0.578D+00
 Coeff:     -0.235D-02 0.137D+00 0.119D+00 0.169D+00 0.578D+00
 Gap=     0.266 Goal=   None    Shift=    0.000
 RMSDP=3.87D-08 MaxDP=2.54D-06 DE=-2.12D-08 OVMax= 1.89D-06

 Cycle  13  Pass 1  IDiag  1:
 RMSU=  3.56D-08    CP:  1.00D+00  1.02D+00  4.61D-01  4.80D-01  9.48D-01
 E= -922.899612114515     Delta-E=       -0.000000000065 Rises=F Damp=F
 DIIS: error= 1.04D-07 at cycle   6 NSaved=   6.
 NSaved= 6 IEnMin= 6 EnMin= -922.899612114515     IErMin= 6 ErrMin= 1.04D-07
 ErrMax= 1.04D-07  0.00D+00 EMaxC= 1.00D-01 BMatC= 6.21D-12 BMatP= 7.77D-11
 IDIUse=1 WtCom= 1.00D+00 WtEn= 0.00D+00
 Coeff-Com: -0.117D-03 0.357D-02 0.290D-02 0.102D-01 0.223D+00 0.760D+00
 Coeff:     -0.117D-03 0.357D-02 0.290D-02 0.102D-01 0.223D+00 0.760D+00
 Gap=     0.266 Goal=   None    Shift=    0.000
 RMSDP=1.26D-08 MaxDP=4.52D-07 DE=-6.50D-11 OVMax= 5.83D-07

 Cycle  14  Pass 1  IDiag  1:
 RMSU=  6.25D-09    CP:  1.00D+00  1.02D+00  4.60D-01  4.84D-01  9.92D-01
                    CP:  8.32D-01
 E= -922.899612114520     Delta-E=       -0.000000000005 Rises=F Damp=F
 DIIS: error= 2.80D-08 at cycle   7 NSaved=   7.
 NSaved= 7 IEnMin= 7 EnMin= -922.899612114520     IErMin= 7 ErrMin= 2.80D-08
 ErrMax= 2.80D-08  0.00D+00 EMaxC= 1.00D-01 BMatC= 6.31D-13 BMatP= 6.21D-12
 IDIUse=1 WtCom= 1.00D+00 WtEn= 0.00D+00
 Coeff-Com:  0.498D-04-0.439D-02-0.390D-02-0.249D-02 0.851D-01 0.376D+00
 Coeff-Com:  0.550D+00
 Coeff:      0.498D-04-0.439D-02-0.390D-02-0.249D-02 0.851D-01 0.376D+00
 Coeff:      0.550D+00
 Gap=     0.266 Goal=   None    Shift=    0.000
 RMSDP=2.67D-09 MaxDP=1.17D-07 DE=-5.00D-12 OVMax= 1.49D-07

 SCF Done:  E(RPBE1PBE) =  -922.899612115     A.U. after   14 cycles
            NFock= 14  Conv=0.27D-08     -V/T= 2.0105
 KE= 9.133204944941D+02 PE=-5.826186757408D+03 EE= 2.148423448182D+03
 Leave Link  502 at Fri Nov 18 09:57:29 2022, MaxMem=  2097152000 cpu:             708.2 elap:              88.8
 (Enter /software/gaussian/G16-A.03/avx2/g16/l801.exe)
 DoSCS=F DFT=T ScalE2(SS,OS)=  1.000000  1.000000
 Range of M.O.s used for correlation:     1   434
 NBasis=   434 NAE=    80 NBE=    80 NFC=     0 NFV=     0
 NROrb=    434 NOA=    80 NOB=    80 NVA=   354 NVB=   354
 Leave Link  801 at Fri Nov 18 09:57:29 2022, MaxMem=  2097152000 cpu:               0.2 elap:               0.0
 (Enter /software/gaussian/G16-A.03/avx2/g16/l1101.exe)
 Using compressed storage, NAtomX=    49.
 Will process     50 centers per pass.
   1 Symmetry operations used in ECPInt.
 ECPInt:  NShTT=   22155 NPrTT=   77385 LenC2=   19811 LenP2D=   48572.
 LDataN:  DoStor=T MaxTD1= 5 Len=  102
 R6Disp: Adding Grimme-D3(BJ) dispersion energy 1st derivatives to the gradient.
 Leave Link 1101 at Fri Nov 18 09:57:29 2022, MaxMem=  2097152000 cpu:               6.0 elap:               0.8
 (Enter /software/gaussian/G16-A.03/avx2/g16/l1102.exe)
 Symmetrizing basis deriv contribution to polar:
 IMax=3 JMax=2 DiffMx= 0.00D+00
 Leave Link 1102 at Fri Nov 18 09:57:30 2022, MaxMem=  2097152000 cpu:               0.4 elap:               0.1
 (Enter /software/gaussian/G16-A.03/avx2/g16/l1110.exe)
 Forming Gx(P) for the SCF density, NAtomX=    49.
 Integral derivatives from FoFJK, PRISM(SPDF).
 Do as many integral derivatives as possible in FoFJK.
 G2DrvN: MDV=    2097148336.
 G2DrvN: will do    50 centers at a time, making    1 passes.
 Calling FoFCou, ICntrl=  3107 FMM=F I1Cent=   0 AccDes= 0.00D+00.
 FoFJK:  IHMeth= 1 ICntrl=    3107 DoSepK=F KAlg= 0 I1Cent=           0 FoldK=F
 IRaf=         0 NMat=       1 IRICut=       1 DoRegI=T DoRafI=F ISym2E= 0 IDoP0=0 IntGTp=1.
 FoFCou: FMM=F IPFlag=           0 FMFlag=      100000 FMFlg1=           0
         NFxFlg=           0 DoJE=F BraDBF=F KetDBF=F FulRan=T
         wScrn=  0.000000 ICntrl=      3107 IOpCl=  0 I1Cent=           0 NGrid=           0
         NMat0=    1 NMatS0=      1 NMatT0=    0 NMatD0=    1 NMtDS0=    0 NMtDT0=    0
 Symmetry not used in FoFCou.
 End of G2Drv F.D. properties file   721 does not exist.
 End of G2Drv F.D. properties file   722 does not exist.
 End of G2Drv F.D. properties file   788 does not exist.
 Leave Link 1110 at Fri Nov 18 10:01:46 2022, MaxMem=  2097152000 cpu:            2043.0 elap:             256.0
 (Enter /software/gaussian/G16-A.03/avx2/g16/l1002.exe)
 Minotr:  Closed shell wavefunction.
          IDoAtm=1111111111111111111111111111111111111111111111111
          Direct CPHF calculation.
          Differentiating once with respect to electric field.
                with respect to dipole field.
          Differentiating once with respect to nuclear coordinates.
          Requested convergence is 1.0D-08 RMS, and 1.0D-07 maximum.
          Secondary convergence is 1.0D-12 RMS, and 1.0D-12 maximum.
          NewPWx=T KeepS1=F KeepF1=F KeepIn=T MapXYZ=F SortEE=F KeepMc=T.
        14841 words used for storage of precomputed grid.
 Two-electron integrals replicated using symmetry.
          MDV=    2097152000 using IRadAn=       1.
          Solving linear equations simultaneously, MaxMat=     384.
 FoF2E skips out because all densities are zero.
 CalDSu exits because no D1Ps are significant.
 FoFJK:  IHMeth= 1 ICntrl=       0 DoSepK=F KAlg= 0 I1Cent=           0 FoldK=F
 IRaf= 790000000 NMat=     147 IRICut=     367 DoRegI=T DoRafI=T ISym2E= 2 IDoP0=3 IntGTp=3.
 FoFCou: FMM=F IPFlag=           0 FMFlag=      100000 FMFlg1=           0
         NFxFlg=           0 DoJE=F BraDBF=F KetDBF=F FulRan=T
         wScrn=  0.000000 ICntrl=         0 IOpCl=  0 I1Cent=           0 NGrid=           0
         NMat0=  147 NMatS0=    147 NMatT0=    0 NMatD0=  147 NMtDS0=    0 NMtDT0=    0
 Integrals replicated using symmetry in FoFCou.
 Raff kept on since  74.64% of shell-pairs survive, threshold=   0.20 IRatSp=75.
          There are   150 degrees of freedom in the 1st order CPHF.  IDoFFX=6 NUNeed=     3.
    147 vectors produced by pass  0 Test12= 2.83D-14 1.00D-09 XBig12= 1.60D+02 5.80D+00.
 AX will form   147 AO Fock derivatives at one time.
    147 vectors produced by pass  1 Test12= 2.83D-14 1.00D-09 XBig12= 5.16D+01 1.59D+00.
    147 vectors produced by pass  2 Test12= 2.83D-14 1.00D-09 XBig12= 5.20D-01 6.73D-02.
    147 vectors produced by pass  3 Test12= 2.83D-14 1.00D-09 XBig12= 1.91D-03 2.94D-03.
    147 vectors produced by pass  4 Test12= 2.83D-14 1.00D-09 XBig12= 4.29D-06 2.05D-04.
     80 vectors produced by pass  5 Test12= 2.83D-14 1.00D-09 XBig12= 5.00D-09 4.67D-06.
     17 vectors produced by pass  6 Test12= 2.83D-14 1.00D-09 XBig12= 5.04D-12 1.74D-07.
      3 vectors produced by pass  7 Test12= 2.83D-14 1.00D-09 XBig12= 5.87D-15 7.77D-09.
 InvSVY:  IOpt=1 It=  1 EMax= 7.11D-15
 Solved reduced A of dimension   835 with   150 vectors.
 FullF1:  Do perturbations      1 to       3.
 Isotropic polarizability for W=    0.000000      195.04 Bohr**3.
 End of Minotr F.D. properties file   721 does not exist.
 End of Minotr F.D. properties file   722 does not exist.
 End of Minotr F.D. properties file   788 does not exist.
 Leave Link 1002 at Fri Nov 18 10:11:34 2022, MaxMem=  2097152000 cpu:            4698.1 elap:             588.7
 (Enter /software/gaussian/G16-A.03/avx2/g16/l601.exe)
 Copying SCF densities to generalized density rwf, IOpCl= 0 IROHF=0.

 **********************************************************************

            Population analysis using the SCF density.

 **********************************************************************

 Orbital symmetries:
       Occupied  (A) (A) (A) (A) (A) (A) (A) (A) (A) (A) (A) (A)
                 (A) (A) (A) (A) (A) (A) (A) (A) (A) (A) (A) (A)
                 (A) (A) (A) (A) (A) (A) (A) (A) (A) (A) (A) (A)
                 (A) (A) (A) (A) (A) (A) (A) (A) (A) (A) (A) (A)
                 (A) (A) (A) (A) (A) (A) (A) (A) (A) (A) (A) (A)
                 (A) (A) (A) (A) (A) (A) (A) (A) (A) (A) (A) (A)
                 (A) (A) (A) (A) (A) (A) (A) (A)
       Virtual   (A) (A) (A) (A) (A) (A) (A) (A) (A) (A) (A) (A)
                 (A) (A) (A) (A) (A) (A) (A) (A) (A) (A) (A) (A)
                 (A) (A) (A) (A) (A) (A) (A) (A) (A) (A) (A) (A)
                 (A) (A) (A) (A) (A) (A) (A) (A) (A) (A) (A) (A)
                 (A) (A) (A) (A) (A) (A) (A) (A) (A) (A) (A) (A)
                 (A) (A) (A) (A) (A) (A) (A) (A) (A) (A) (A) (A)
                 (A) (A) (A) (A) (A) (A) (A) (A) (A) (A) (A) (A)
                 (A) (A) (A) (A) (A) (A) (A) (A) (A) (A) (A) (A)
                 (A) (A) (A) (A) (A) (A) (A) (A) (A) (A) (A) (A)
                 (A) (A) (A) (A) (A) (A) (A) (A) (A) (A) (A) (A)
                 (A) (A) (A) (A) (A) (A) (A) (A) (A) (A) (A) (A)
                 (A) (A) (A) (A) (A) (A) (A) (A) (A) (A) (A) (A)
                 (A) (A) (A) (A) (A) (A) (A) (A) (A) (A) (A) (A)
                 (A) (A) (A) (A) (A) (A) (A) (A) (A) (A) (A) (A)
                 (A) (A) (A) (A) (A) (A) (A) (A) (A) (A) (A) (A)
                 (A) (A) (A) (A) (A) (A) (A) (A) (A) (A) (A) (A)
                 (A) (A) (A) (A) (A) (A) (A) (A) (A) (A) (A) (A)
                 (A) (A) (A) (A) (A) (A) (A) (A) (A) (A) (A) (A)
                 (A) (A) (A) (A) (A) (A) (A) (A) (A) (A) (A) (A)
                 (A) (A) (A) (A) (A) (A) (A) (A) (A) (A) (A) (A)
                 (A) (A) (A) (A) (A) (A) (A) (A) (A) (A) (A) (A)
                 (A) (A) (A) (A) (A) (A) (A) (A) (A) (A) (A) (A)
                 (A) (A) (A) (A) (A) (A) (A) (A) (A) (A) (A) (A)
                 (A) (A) (A) (A) (A) (A) (A) (A) (A) (A) (A) (A)
                 (A) (A) (A) (A) (A) (A) (A) (A) (A) (A) (A) (A)
                 (A) (A) (A) (A) (A) (A) (A) (A) (A) (A) (A) (A)
                 (A) (A) (A) (A) (A) (A) (A) (A) (A) (A) (A) (A)
                 (A) (A) (A) (A) (A) (A) (A) (A) (A) (A) (A) (A)
                 (A) (A) (A) (A) (A) (A) (A) (A) (A) (A) (A) (A)
                 (A) (A) (A) (A) (A) (A)
 The electronic state is 1-A.
 Alpha  occ. eigenvalues --  -19.24457 -19.24453 -14.34955 -14.34951 -10.31358
 Alpha  occ. eigenvalues --  -10.31357 -10.28641 -10.28640 -10.27125 -10.25622
 Alpha  occ. eigenvalues --  -10.25620 -10.25170 -10.25142 -10.24162 -10.24161
 Alpha  occ. eigenvalues --  -10.22297 -10.22297 -10.21764 -10.21763 -10.21026
 Alpha  occ. eigenvalues --  -10.21025  -1.11888  -1.11647  -0.91655  -0.90753
 Alpha  occ. eigenvalues --   -0.90582  -0.83485  -0.83218  -0.76872  -0.76832
 Alpha  occ. eigenvalues --   -0.69712  -0.69614  -0.69138  -0.68887  -0.67223
 Alpha  occ. eigenvalues --   -0.65024  -0.64817  -0.62378  -0.60524  -0.55807
 Alpha  occ. eigenvalues --   -0.55073  -0.53941  -0.52940  -0.51734  -0.51218
 Alpha  occ. eigenvalues --   -0.50909  -0.47801  -0.47127  -0.46087  -0.45930
 Alpha  occ. eigenvalues --   -0.44937  -0.44830  -0.44473  -0.44232  -0.42112
 Alpha  occ. eigenvalues --   -0.41474  -0.40700  -0.40295  -0.39521  -0.39223
 Alpha  occ. eigenvalues --   -0.39110  -0.38412  -0.37981  -0.36939  -0.36577
 Alpha  occ. eigenvalues --   -0.36545  -0.36502  -0.36094  -0.34423  -0.34277
 Alpha  occ. eigenvalues --   -0.33881  -0.33358  -0.33139  -0.32794  -0.32744
 Alpha  occ. eigenvalues --   -0.31309  -0.27811  -0.24424  -0.24390  -0.24095
 Alpha virt. eigenvalues --    0.02509   0.03465   0.06135   0.06328   0.08614
 Alpha virt. eigenvalues --    0.08777   0.09229   0.09536   0.10221   0.10366
 Alpha virt. eigenvalues --    0.11516   0.12209   0.12339   0.12345   0.12956
 Alpha virt. eigenvalues --    0.13206   0.14238   0.14315   0.14843   0.15211
 Alpha virt. eigenvalues --    0.15899   0.16474   0.16610   0.17067   0.17712
 Alpha virt. eigenvalues --    0.18546   0.18643   0.18946   0.19284   0.19479
 Alpha virt. eigenvalues --    0.20485   0.20694   0.20895   0.21234   0.21720
 Alpha virt. eigenvalues --    0.21833   0.22810   0.23021   0.24606   0.25160
 Alpha virt. eigenvalues --    0.25306   0.25496   0.26295   0.26984   0.28400
 Alpha virt. eigenvalues --    0.28581   0.29542   0.30044   0.30273   0.33813
 Alpha virt. eigenvalues --    0.36808   0.39395   0.40041   0.40789   0.41401
 Alpha virt. eigenvalues --    0.41518   0.42436   0.42854   0.44102   0.44485
 Alpha virt. eigenvalues --    0.45817   0.46513   0.47421   0.50305   0.51555
 Alpha virt. eigenvalues --    0.52595   0.52688   0.53202   0.53568   0.54595
 Alpha virt. eigenvalues --    0.55487   0.56043   0.56309   0.57108   0.57812
 Alpha virt. eigenvalues --    0.57993   0.58360   0.59472   0.59669   0.60377
 Alpha virt. eigenvalues --    0.61217   0.61652   0.62582   0.62894   0.64163
 Alpha virt. eigenvalues --    0.64516   0.64647   0.65390   0.65523   0.65712
 Alpha virt. eigenvalues --    0.65848   0.66177   0.66496   0.66845   0.67169
 Alpha virt. eigenvalues --    0.67511   0.68085   0.68163   0.68523   0.69000
 Alpha virt. eigenvalues --    0.69350   0.69646   0.70405   0.70587   0.70822
 Alpha virt. eigenvalues --    0.70988   0.71377   0.71410   0.72079   0.72098
 Alpha virt. eigenvalues --    0.72664   0.73626   0.73680   0.74117   0.74351
 Alpha virt. eigenvalues --    0.74528   0.74829   0.75155   0.75458   0.76091
 Alpha virt. eigenvalues --    0.76751   0.76887   0.77566   0.78605   0.79115
 Alpha virt. eigenvalues --    0.80028   0.80137   0.81383   0.82075   0.84160
 Alpha virt. eigenvalues --    0.87504   0.87612   0.88721   0.89294   0.89670
 Alpha virt. eigenvalues --    0.91162   0.91281   0.93913   0.97892   0.98654
 Alpha virt. eigenvalues --    0.98983   1.00307   1.03766   1.07322   1.07611
 Alpha virt. eigenvalues --    1.09495   1.10236   1.13035   1.14420   1.15590
 Alpha virt. eigenvalues --    1.15968   1.16114   1.18378   1.18942   1.20268
 Alpha virt. eigenvalues --    1.20928   1.21751   1.22435   1.23954   1.24437
 Alpha virt. eigenvalues --    1.26488   1.27284   1.29905   1.30249   1.31644
 Alpha virt. eigenvalues --    1.33147   1.34713   1.37261   1.38174   1.39192
 Alpha virt. eigenvalues --    1.41353   1.42973   1.43498   1.47045   1.48626
 Alpha virt. eigenvalues --    1.52756   1.53731   1.54561   1.55116   1.55527
 Alpha virt. eigenvalues --    1.55643   1.56473   1.57378   1.57943   1.58145
 Alpha virt. eigenvalues --    1.58226   1.58571   1.59130   1.59327   1.62378
 Alpha virt. eigenvalues --    1.62764   1.63073   1.64360   1.65653   1.66375
 Alpha virt. eigenvalues --    1.66677   1.68042   1.69078   1.69214   1.69632
 Alpha virt. eigenvalues --    1.71662   1.72564   1.74518   1.74765   1.75655
 Alpha virt. eigenvalues --    1.77054   1.77327   1.77902   1.78784   1.79182
 Alpha virt. eigenvalues --    1.79717   1.80356   1.81084   1.81414   1.81988
 Alpha virt. eigenvalues --    1.84033   1.84220   1.84672   1.85500   1.85840
 Alpha virt. eigenvalues --    1.85924   1.86183   1.86518   1.87238   1.87355
 Alpha virt. eigenvalues --    1.88156   1.88340   1.88571   1.88946   1.89391
 Alpha virt. eigenvalues --    1.89838   1.91146   1.92087   1.92755   1.93483
 Alpha virt. eigenvalues --    1.93793   1.93996   1.94869   1.96229   1.96379
 Alpha virt. eigenvalues --    1.97038   1.98580   1.98735   1.98815   1.99866
 Alpha virt. eigenvalues --    2.00022   2.01000   2.02059   2.02354   2.02904
 Alpha virt. eigenvalues --    2.05121   2.06491   2.06561   2.08315   2.08396
 Alpha virt. eigenvalues --    2.11224   2.11810   2.15355   2.16236   2.18117
 Alpha virt. eigenvalues --    2.18935   2.20023   2.20111   2.21868   2.22324
 Alpha virt. eigenvalues --    2.23360   2.23767   2.24575   2.27669   2.27930
 Alpha virt. eigenvalues --    2.28317   2.28935   2.31136   2.31245   2.34242
 Alpha virt. eigenvalues --    2.34281   2.34651   2.37214   2.39749   2.41444
 Alpha virt. eigenvalues --    2.41979   2.42266   2.42862   2.43766   2.44773
 Alpha virt. eigenvalues --    2.45009   2.46111   2.48022   2.48588   2.49268
 Alpha virt. eigenvalues --    2.52789   2.53212   2.54393   2.54970   2.59100
 Alpha virt. eigenvalues --    2.61702   2.62389   2.64274   2.64288   2.65712
 Alpha virt. eigenvalues --    2.65846   2.67446   2.67936   2.68077   2.68570
 Alpha virt. eigenvalues --    2.68772   2.71432   2.71737   2.75145   2.75491
 Alpha virt. eigenvalues --    2.77287   2.77361   2.81550   2.84173   2.85842
 Alpha virt. eigenvalues --    2.86720   2.88867   2.89065   2.89490   2.90354
 Alpha virt. eigenvalues --    2.90834   2.92007   2.92570   2.92753   2.93083
 Alpha virt. eigenvalues --    2.93790   2.94852   2.95195   2.96780   2.98586
 Alpha virt. eigenvalues --    2.99178   3.00185   3.00235   3.00690   3.02828
 Alpha virt. eigenvalues --    3.05100   3.05797   3.06268   3.06708   3.08077
 Alpha virt. eigenvalues --    3.08085   3.11647   3.11963   3.14916   3.15362
 Alpha virt. eigenvalues --    3.15709   3.19811   3.21638   3.31621   3.34420
 Alpha virt. eigenvalues --    3.39720   3.50282   3.62298   3.68290
     Molecular Orbital Coefficients:
                          76        77        78        79        80
                           O         O         O         O         O
     Eigenvalues --    -0.31309  -0.27811  -0.24424  -0.24390  -0.24095
   1 1   C  1S          0.00527   0.00024  -0.00162  -0.00057   0.00082
   2        2S         -0.01084  -0.00276   0.00244   0.00208  -0.00456
   3        3S         -0.03823   0.00515   0.02401   0.00179   0.04264
   4        4PX         0.00761  -0.05251   0.00716   0.01579   0.03347
   5        4PY        -0.03644  -0.00690   0.02068   0.01733   0.00112
   6        4PZ        -0.03017  -0.02171   0.02417   0.02559   0.01091
   7        5PX        -0.00493  -0.04412   0.00659   0.01988   0.01998
   8        5PY        -0.02720  -0.01572   0.02157   0.01851   0.01985
   9        5PZ        -0.01815  -0.04293   0.02495   0.03446   0.02705
  10        6D 0        0.00124  -0.00024  -0.00192  -0.00172   0.00026
  11        6D+1       -0.00202   0.00236   0.00113   0.00040  -0.00146
  12        6D-1        0.00081  -0.00149  -0.00224  -0.00197   0.00137
  13        6D+2        0.00031   0.00171   0.00070   0.00031  -0.00064
  14        6D-2       -0.00211   0.00010   0.00209   0.00192  -0.00073
  15 2   C  1S         -0.00229  -0.00025   0.02051   0.01979  -0.00276
  16        2S          0.01092   0.00206  -0.04566  -0.04370   0.00330
  17        3S         -0.04182   0.00912  -0.16053  -0.15318   0.01655
  18        4PX        -0.01644   0.03972   0.07702   0.07066  -0.03638
  19        4PY         0.03562   0.00650  -0.04335  -0.04014   0.00685
  20        4PZ         0.04888   0.00434  -0.10043  -0.09591   0.01562
  21        5PX        -0.00902   0.01343   0.03932   0.03303  -0.01528
  22        5PY        -0.02464  -0.04237  -0.02629  -0.01970   0.07183
  23        5PZ         0.00799   0.02766  -0.09042  -0.09311  -0.00448
  24        6D 0        0.00136  -0.00138  -0.00206  -0.00165   0.00219
  25        6D+1       -0.00262   0.00056   0.00370   0.00349  -0.00062
  26        6D-1        0.00011  -0.00274  -0.00292  -0.00253   0.00281
  27        6D+2        0.00198   0.00356  -0.00084  -0.00112  -0.00311
  28        6D-2       -0.00071  -0.00061   0.00190   0.00183   0.00011
  29 3   C  1S          0.00149  -0.00083  -0.00062  -0.00062   0.00005
  30        2S         -0.00596   0.00007   0.00140   0.00187   0.00053
  31        3S          0.02858   0.05411   0.01801   0.00250  -0.05838
  32        4PX         0.02119  -0.01406   0.01092   0.01275   0.00387
  33        4PY        -0.00745  -0.00570  -0.01068  -0.01074   0.00502
  34        4PZ        -0.01410   0.00013   0.03484   0.03444  -0.00478
  35        5PX        -0.00025  -0.01080   0.01727   0.02102  -0.00158
  36        5PY        -0.00628  -0.01440  -0.01406  -0.01303   0.01753
  37        5PZ         0.00976   0.00852   0.03346   0.03749  -0.01653
  38        6D 0        0.00198   0.00019  -0.00299  -0.00276   0.00016
  39        6D+1       -0.00191   0.00102   0.00192   0.00158  -0.00046
  40        6D-1        0.00002  -0.00099  -0.00018  -0.00008   0.00065
  41        6D+2        0.00124   0.00066  -0.00150  -0.00158  -0.00022
  42        6D-2       -0.00068  -0.00125  -0.00034  -0.00015   0.00090
  43 4   C  1S         -0.00128  -0.00769  -0.00068   0.00010   0.00658
  44        2S          0.00322   0.01793   0.00160   0.00052  -0.01754
  45        3S          0.01513   0.00521   0.03106   0.03123   0.00238
  46        4PX         0.00873  -0.04072  -0.02965  -0.02395   0.03278
  47        4PY         0.01296   0.00630   0.00492   0.00608  -0.01026
  48        4PZ         0.00077  -0.01443  -0.00004   0.00204   0.00721
  49        5PX         0.00777  -0.01523  -0.03971  -0.03604   0.00822
  50        5PY         0.01337   0.01067   0.00737   0.00795  -0.01745
  51        5PZ        -0.00055  -0.01401  -0.00924  -0.00491   0.00958
  52        6D 0       -0.00063   0.00003   0.00154   0.00144  -0.00027
  53        6D+1       -0.00147   0.00117   0.00349   0.00318  -0.00177
  54        6D-1        0.00020  -0.00141  -0.00126  -0.00102   0.00131
  55        6D+2        0.00040   0.00027  -0.00126  -0.00125   0.00040
  56        6D-2       -0.00128  -0.00091   0.00168   0.00167  -0.00005
  57 5   C  1S         -0.00057  -0.01846   0.00399   0.00910   0.02407
  58        2S         -0.00569   0.04283  -0.01394  -0.02754  -0.05641
  59        3S          0.08728   0.05165   0.02773   0.01039  -0.10401
  60        4PX         0.01812  -0.12182  -0.02187   0.00127   0.13729
  61        4PY        -0.04173  -0.03337   0.00964   0.00742   0.02042
  62        4PZ        -0.05536  -0.01620   0.11142   0.10982   0.00905
  63        5PX         0.01144  -0.03966   0.04223   0.04303   0.03074
  64        5PY         0.00576   0.02115  -0.00182  -0.01607  -0.05463
  65        5PZ        -0.04328   0.01292   0.01773   0.02004  -0.00257
  66        6D 0        0.00455  -0.00322   0.00214   0.00312   0.00220
  67        6D+1        0.00016  -0.00037   0.01244   0.01238  -0.00136
  68        6D-1       -0.00017  -0.00828  -0.00651  -0.00522   0.00954
  69        6D+2        0.00005   0.00253  -0.00741  -0.00757   0.00059
  70        6D-2       -0.00304  -0.01353   0.00394   0.00613   0.01549
  71 6   C  1S          0.00198   0.02396  -0.00662  -0.00972  -0.02276
  72        2S         -0.00305  -0.05895   0.01965   0.02477   0.05569
  73        3S         -0.05288  -0.10134   0.00398   0.03421   0.13992
  74        4PX        -0.05306   0.05609   0.01533   0.00309  -0.04405
  75        4PY         0.01731   0.09301  -0.02343  -0.03973  -0.09034
  76        4PZ         0.10499   0.03805  -0.07120  -0.06217  -0.03077
  77        5PX        -0.00049   0.02250  -0.00251  -0.00798  -0.01534
  78        5PY         0.01668   0.08463  -0.01713  -0.03676  -0.09757
  79        5PZ         0.04923   0.03725  -0.01038  -0.02005  -0.04474
  80        6D 0        0.01151  -0.00202  -0.01095  -0.00787   0.00276
  81        6D+1        0.00477  -0.00194  -0.00330  -0.00162   0.00132
  82        6D-1       -0.00570  -0.00010   0.00382   0.00210  -0.00057
  83        6D+2       -0.00431   0.00073   0.00207   0.00090  -0.00119
  84        6D-2       -0.00116   0.00453  -0.00159  -0.00194  -0.00539
  85 7   O  1S         -0.00292  -0.00800   0.00202   0.00453   0.01259
  86        2S         -0.00828  -0.01784   0.00461   0.00984   0.02877
  87        3S          0.00824  -0.06567   0.01523   0.02772   0.06938
  88        4PX         0.12211   0.03004  -0.11716  -0.09277  -0.02115
  89        4PY        -0.01231   0.10527  -0.02872  -0.04409  -0.09739
  90        4PZ        -0.21741   0.06096   0.23058   0.15735  -0.08245
  91        5PX         0.09308   0.02833  -0.09489  -0.07580  -0.02231
  92        5PY        -0.01305   0.08076  -0.02534  -0.04100  -0.07446
  93        5PZ        -0.16231   0.04850   0.19110   0.13285  -0.06766
  94        6D 0        0.00305   0.00128  -0.00055  -0.00097  -0.00128
  95        6D+1        0.00229   0.00080   0.00021  -0.00041  -0.00102
  96        6D-1        0.00599  -0.00030  -0.00393  -0.00221   0.00035
  97        6D+2       -0.00140   0.00337  -0.00081  -0.00134  -0.00288
  98        6D-2       -0.00358   0.00155   0.00144   0.00065  -0.00121
  99 8   C  1S         -0.00497  -0.03833   0.00409   0.01063   0.03320
 100        2S          0.01345   0.10007  -0.01221  -0.02810  -0.08766
 101        3S          0.01209  -0.12492   0.00778   0.00680   0.03619
 102        4PX         0.00418   0.00834   0.06510   0.04968  -0.03374
 103        4PY        -0.00048  -0.07226   0.02362   0.02596   0.05839
 104        4PZ        -0.02049  -0.01941  -0.15537  -0.11690   0.04317
 105        5PX         0.01593   0.12266   0.02070  -0.01556  -0.10175
 106        5PY        -0.00615   0.03942   0.01833   0.05816   0.00436
 107        5PZ        -0.03950   0.04747  -0.10754  -0.10669  -0.01023
 108        6D 0       -0.01296   0.00087   0.00877   0.00502  -0.00006
 109        6D+1       -0.01449  -0.00257   0.00332  -0.00000   0.00369
 110        6D-1        0.00272  -0.00669   0.02274   0.02682   0.00196
 111        6D+2        0.00812   0.00048  -0.00075   0.00226  -0.00126
 112        6D-2       -0.00036  -0.02118  -0.00628  -0.00338   0.02428
 113 9   C  1S          0.00000  -0.01775   0.00637  -0.00002  -0.00000
 114        2S         -0.00001   0.03744  -0.01787   0.00007  -0.00000
 115        3S          0.00012   0.24489  -0.04504   0.00009  -0.00002
 116        4PX        -0.11807   0.00000  -0.00029  -0.07912  -0.03974
 117        4PY         0.00001  -0.07333   0.01115  -0.00004   0.00000
 118        4PZ         0.32342  -0.00000   0.00048   0.12527  -0.06142
 119        5PX        -0.08364   0.00002  -0.00035  -0.09887  -0.10968
 120        5PY         0.00001  -0.19872   0.01879  -0.00003  -0.00002
 121        5PZ         0.22431   0.00001   0.00002  -0.00008  -0.06806
 122        6D 0        0.00000  -0.00270  -0.00489   0.00002  -0.00000
 123        6D+1       -0.00000   0.00126  -0.00655   0.00002  -0.00000
 124        6D-1        0.01216   0.00000   0.00005   0.01393  -0.00309
 125        6D+2        0.00000   0.00118   0.00406  -0.00002  -0.00000
 126        6D-2       -0.00592  -0.00000  -0.00002  -0.00447   0.00362
 127 10  C  1S          0.00498  -0.03833   0.00401  -0.01066  -0.03321
 128        2S         -0.01345   0.10008  -0.01202   0.02818   0.08766
 129        3S         -0.01212  -0.12489   0.00778  -0.00681  -0.03619
 130        4PX         0.00415  -0.00836  -0.06476   0.05015  -0.03376
 131        4PY         0.00045  -0.07225   0.02346  -0.02617  -0.05838
 132        4PZ        -0.02051   0.01942   0.15450  -0.11802   0.04319
 133        5PX         0.01587  -0.12262  -0.02080  -0.01534  -0.10174
 134        5PY         0.00611   0.03943   0.01794  -0.05831  -0.00435
 135        5PZ        -0.03954  -0.04748   0.10674  -0.10744  -0.01024
 136        6D 0        0.01297   0.00087   0.00874  -0.00509   0.00006
 137        6D+1        0.01448  -0.00257   0.00331  -0.00002  -0.00370
 138        6D-1        0.00273   0.00669  -0.02254   0.02698   0.00196
 139        6D+2       -0.00812   0.00048  -0.00075  -0.00226   0.00127
 140        6D-2       -0.00036   0.02118   0.00626  -0.00343   0.02428
 141 11  N  1S          0.00120  -0.06356   0.00712  -0.02082  -0.07840
 142        2S         -0.00025  -0.13226   0.01129  -0.03869  -0.16547
 143        3S          0.03711  -0.13306   0.05101  -0.12076  -0.21649
 144        4PX        -0.00811   0.24043   0.06423  -0.02096   0.27242
 145        4PY         0.00869  -0.21460  -0.01248  -0.02455  -0.23517
 146        4PZ         0.04790   0.10306  -0.26535   0.28799   0.05411
 147        5PX        -0.00530  -0.15124  -0.06194   0.03927  -0.16706
 148        5PY        -0.00160   0.16982   0.00680   0.00357   0.16314
 149        5PZ        -0.02835  -0.06277   0.19123  -0.21306  -0.02586
 150        6D 0        0.00212  -0.00631  -0.00432   0.00286  -0.00850
 151        6D+1        0.00305   0.00552  -0.00201   0.00291   0.00711
 152        6D-1       -0.00180  -0.00418   0.01459  -0.01445  -0.00207
 153        6D+2        0.00007  -0.00353  -0.00072   0.00122   0.00042
 154        6D-2        0.00002  -0.00990  -0.00492   0.00243  -0.01380
 155 12  C  1S          0.00057  -0.01846   0.00393  -0.00913  -0.02407
 156        2S          0.00569   0.04284  -0.01375   0.02765   0.05642
 157        3S         -0.08722   0.05170   0.02764  -0.01057   0.10404
 158        4PX         0.01812   0.12179   0.02189   0.00110   0.13728
 159        4PY         0.04163  -0.03339   0.00954  -0.00745  -0.02044
 160        4PZ        -0.05530   0.01623  -0.11060   0.11063   0.00908
 161        5PX         0.01146   0.03964  -0.04191   0.04333   0.03073
 162        5PY        -0.00578   0.02114  -0.00172   0.01611   0.05463
 163        5PZ        -0.04324  -0.01289  -0.01757   0.02017  -0.00256
 164        6D 0       -0.00455  -0.00322   0.00211  -0.00314  -0.00220
 165        6D+1       -0.00017  -0.00037   0.01235  -0.01247   0.00135
 166        6D-1       -0.00017   0.00828   0.00647  -0.00527   0.00955
 167        6D+2       -0.00005   0.00253  -0.00736   0.00762  -0.00059
 168        6D-2       -0.00304   0.01353  -0.00389   0.00616   0.01549
 169 13  C  1S          0.00230  -0.00025   0.02037  -0.01994   0.00275
 170        2S         -0.01093   0.00206  -0.04534   0.04404  -0.00330
 171        3S          0.04181   0.00909  -0.15943   0.15435  -0.01657
 172        4PX        -0.01643  -0.03970  -0.07652   0.07125  -0.03637
[...]
 7,-0.00003279,-0.00001274,0.00000685,-0.00027973,-0.00006528,-0.000090
 40,-0.00004930,0.00001747,-0.00002040,-0.00004206,-0.00005442,-0.00002
 863,0.00007019,0.00002935,0.00001173,-0.00001312,-0.00001835,0.0000129
 2,0.00000048,0.00000571,0.00001426,0.00000207,0.00003081,-0.00001139,-
 0.00002003,0.00002015,-0.00002430,0.00002228,-0.00000657,0.00000597,-0
 .00001109,0.00000492,0.00001179,0.00019415,0.00001442,0.00002460,-0.00
 011556,-0.00014614,-0.00009909,-0.00006452,0.00009284,-0.00000179,-0.0
 0003811,0.00001810,0.00004677,-0.00012504,0.00013036,-0.00011365,0.070
 27707,0.05546461,-0.00000749,0.00000279,0.00002231,0.00005184,-0.00002
 063,-0.00001894,-0.00004240,0.00001262,-0.00000393,-0.00001150,0.00001
 886,0.00001003,-0.00006051,-0.00008899,-0.00013204,0.00023818,0.000120
 20,0.00029951,-0.00042310,-0.00087445,0.00056394,-0.00095868,-0.000555
 22,-0.00121024,0.00111995,0.00081093,-0.00351619,0.00244808,0.00202231
 ,0.00119901,-0.00057701,-0.00030948,-0.00030278,0.00009626,0.00009179,
 0.00002359,-0.00007510,-0.00004026,0.00007228,0.00002784,0.00001001,-0
 .00004219,0.00002726,0.00003469,-0.00003628,0.00011020,0.00006164,-0.0
 0002662,-0.00076169,0.00020228,-0.00022479,-0.00021395,-0.00066829,0.0
 0006253,0.03149131,0.01257048,-0.05113428,0.02574936,0.00669528,-0.003
 08740,-0.00006357,-0.00014915,0.00014477,-0.00000046,0.00000891,0.0000
 0140,-0.00000006,-0.00000536,0.00000376,0.00000494,-0.00000631,-0.0000
 0242,0.00001340,0.00000902,0.00000777,-0.00002172,-0.00000243,-0.00001
 547,0.00001809,-0.00004655,0.00002050,0.00000817,0.00000493,0.00000538
 ,0.00000657,-0.00000388,-0.00000129,-0.00000094,-0.00000466,0.00000230
 ,-0.00000358,-0.00003403,0.00002233,-0.00003822,-0.00002267,-0.0000262
 3,0.00001269,0.00002722,-0.00001054,-0.00005171,-0.00004747,-0.0000612
 1,-0.00000888,-0.00000478,0.00000666,0.00000349,-0.00001795,-0.0000124
 4,0.00000107,0.00001467,-0.00000108,-0.00001535,0.00000728,-0.00000837
 ,-0.00002295,-0.00000764,0.00000153,0.00000984,-0.00001571,-0.00000646
 ,0.00000223,-0.00000357,0.00005007,-0.00007102,-0.00006625,-0.00000069
 ,-0.00001096,-0.00000880,-0.00002480,0.00004215,0.00001380,0.00001224,
 0.00009779,-0.00007292,0.00006994,-0.04058501,-0.01400919,0.05256069,0
 .00002189,0.00000068,-0.00001946,-0.00007897,0.00000298,-0.00000557,0.
 00004728,-0.00001876,-0.00000135,0.00000705,-0.00001325,0.00000034,0.0
 0010636,-0.00009097,0.00024206,-0.00049709,-0.00021719,-0.00034984,-0.
 00099769,-0.00070241,0.00029009,0.00163976,-0.00110513,0.00052027,0.00
 037921,-0.00182860,0.00316934,-0.00151346,-0.00020176,0.00027007,0.000
 13570,-0.00000226,-0.00002965,-0.00006498,0.00001244,-0.00002673,0.000
 05105,0.00002300,-0.00001683,-0.00001277,0.00000365,0.00000556,-0.0000
 0399,-0.00001174,0.00000636,-0.00006397,-0.00003790,-0.00000046,0.0003
 6519,-0.00012406,0.00000052,0.00017246,0.00090106,-0.00051426,-0.17329
 512,0.04203197,-0.14731545,0.00866952,-0.00343685,0.01065730,-0.000528
 90,0.00014633,-0.00021333,-0.00000057,-0.00000093,0.00000291,0.0000006
 2,0.00001017,-0.00000968,-0.00000312,0.00000106,0.00000064,-0.00000225
 ,0.00001173,-0.00001258,-0.00002306,0.00001355,0.00000876,-0.00000485,
 0.00000925,0.00000607,-0.00000422,0.00000111,0.00000192,-0.00002046,0.
 00000591,-0.00000280,-0.00000142,0.00000856,-0.00000819,-0.00001958,0.
 00004754,-0.00003323,0.00003784,0.00002758,0.00003197,0.00004395,0.000
 00375,0.00003257,0.00000784,0.00001626,0.00002049,0.00000619,0.0000057
 3,-0.00000399,-0.00000219,0.00000568,0.00000452,0.00000386,-0.00000288
 ,0.00000477,0.00000403,-0.00000152,0.00000338,0.00000865,0.00000257,0.
 00000047,-0.00000180,0.00000380,0.00000418,0.00004754,0.00000459,-0.00
 000123,0.00000458,0.00000204,-0.00002747,-0.00000213,0.00002442,0.0000
 0954,0.00000003,-0.00001230,0.00000651,-0.00005504,0.00005768,-0.00002
 759,-0.00877340,0.00725379,-0.01834685,0.17389338,0.00004216,-0.000000
 05,-0.00002538,-0.00011667,-0.00002875,0.00003128,0.00004786,0.0000019
 2,-0.00002662,0.00000759,-0.00000247,-0.00001522,0.00002159,0.00018430
 ,0.00045299,-0.00072721,-0.00036591,-0.00053302,-0.00026158,0.00082516
 ,-0.00088776,0.00324774,0.00018412,0.00006684,0.01878510,-0.00915367,0
 .02202362,-0.00521323,-0.00056556,0.00290290,0.00108635,-0.00090957,0.
 00044488,-0.00009589,0.00004197,-0.00085650,0.00017294,0.00001439,0.00
 031775,0.00003905,0.00003935,-0.00002270,0.00005763,-0.00003205,-0.000
 17815,0.00005934,-0.00004282,-0.00000258,-0.00002291,0.00002276,-0.000
 02914,0.00078938,0.00034060,-0.00001412,0.03904626,-0.04912625,0.05096
 557,-0.01181778,0.00110442,-0.00974703,-0.00002222,0.00011725,-0.00036
 211,0.00000063,-0.00000480,0.00000646,0.00000065,0.00001743,-0.0000197
 5,0.00000395,-0.00000262,-0.00000032,0.00000558,0.00001143,-0.00002280
 ,-0.00003005,0.00001786,0.00001677,0.00000371,0.00000170,0.00000787,-0
 .00000730,-0.00000410,0.00000247,-0.00002850,0.00000568,0.00000007,0.0
 0000827,0.00001111,-0.00001531,0.00004807,0.00006316,-0.00001771,0.000
 11366,0.00006736,0.00000553,-0.00003016,0.00001200,0.00005085,0.000030
 20,-0.00001366,0.00004854,-0.00000917,0.00001205,0.00003075,0.00001668
 ,-0.00002583,-0.00002066,-0.00000539,0.00001147,0.00000416,-0.00001705
 ,0.00000722,0.00000162,-0.00001402,0.00000495,0.00000577,0.00006633,-0
 .00002805,0.00000596,0.00000525,0.00000296,0.00001537,-0.00002993,-0.0
 0003606,0.00004419,0.00001476,0.00001139,-0.00002955,0.00005918,-0.000
 00548,0.00001847,0.00003279,-0.00004911,0.00001852,-0.00366979,0.00168
 544,-0.00683134,-0.04253149,0.05463958,-0.00001578,-0.00000352,0.00001
 547,0.00006812,-0.00001688,0.00000758,-0.00004481,0.00001709,-0.000005
 60,-0.00000111,0.00001608,-0.00000653,-0.00002992,-0.00007868,-0.00014
 612,0.00047515,0.00009607,0.00045062,-0.00060298,-0.00132685,0.0001937
 7,-0.00205554,0.00137284,-0.00053179,0.00225048,-0.00060383,-0.0013919
 6,0.00021709,-0.00073355,-0.00007888,0.00014784,-0.00022199,0.00001807
 ,0.00004942,-0.00002235,-0.00011352,0.00002145,-0.00000674,0.00000540,
 0.00000242,-0.00000062,0.00000605,0.00000374,-0.00000139,-0.00000640,0
 .00002548,0.00000321,-0.00000292,-0.00011137,0.00002955,0.00002168,-0.
 00000795,-0.00014207,0.00049244,-0.14149229,0.05438511,-0.21243757,-0.
 01511619,0.00571942,-0.01659109,0.00037287,-0.00030048,0.00015619,0.00
 000095,0.00000259,0.00000070,-0.00000065,-0.00000633,0.00000653,0.0000
 0296,-0.00000318,-0.00000283,0.00000428,-0.00000649,0.00000935,0.00001
 368,-0.00000563,-0.00000535,0.00000181,-0.00001878,0.00000275,0.000004
 16,-0.00000033,0.00000153,0.00000940,-0.00000325,0.00000161,0.00000215
 ,-0.00000244,0.00000452,0.00000646,-0.00003996,0.00002833,-0.00003439,
 -0.00000850,-0.00002460,-0.00003472,-0.00003409,-0.00007214,-0.0000118
 9,-0.00000606,-0.00000701,-0.00000206,-0.00000103,0.00000182,0.0000016
 7,-0.00000047,-0.00000050,-0.00000203,-0.00000182,-0.00000169,-0.00000
 063,-0.00000150,0.00000046,-0.00000056,0.00000034,-0.00000125,0.000003
 99,-0.00000053,-0.00000019,-0.00002046,-0.00000048,-0.00000630,0.00000
 169,0.00000847,0.00001286,0.00000391,-0.00001046,-0.00000098,-0.000007
 75,0.00001422,-0.00000572,0.00003714,-0.00002942,0.00002403,0.00492962
 ,-0.00266270,0.00640349,0.14981410,-0.05669325,0.22430741,-0.00001277,
 -0.00000365,0.00000557,0.00005104,-0.00002298,-0.00001684,-0.00006391,
 0.00003777,-0.00000043,-0.00000399,0.00001174,0.00000635,-0.00006497,-
 0.00001253,-0.00002677,0.00036529,0.00012406,0.00000056,0.00017189,-0.
 00090127,-0.00051396,-0.00151319,0.00020181,0.00027004,0.00037813,0.00
 182909,0.00316691,0.00163988,0.00110441,0.00051905,-0.00052896,-0.0001
 4654,-0.00021340,0.00010630,0.00009108,0.00024206,-0.00007896,-0.00000
 301,-0.00000557,0.00002189,-0.00000068,-0.00001946,0.00000706,0.000013
 26,0.00000032,0.00004729,0.00001881,-0.00000136,-0.00049733,0.00021712
 ,-0.00034975,-0.00099939,0.00070412,0.00029011,0.00867084,0.00344129,0
 .01065633,-0.17329388,-0.04209288,-0.14729640,0.00013566,0.00000227,-0
 .00002971,0.00000386,0.00000289,0.00000477,-0.00000218,-0.00000567,0.0
 0000452,0.00000620,-0.00000574,-0.00000399,-0.00000215,-0.00002440,0.0
 0000954,0.00004752,-0.00000456,-0.00000122,0.00000454,-0.00000198,-0.0
 0002752,0.00000403,0.00000152,0.00000338,0.00000864,-0.00000256,0.0000
 0048,-0.00000180,-0.00000379,0.00000418,0.00000783,-0.00001626,0.00002
 050,0.,0.00001228,0.00000648,-0.00005504,-0.00005772,-0.00002760,-0.00
 001958,-0.00004756,-0.00003322,-0.00000312,-0.00000106,0.00000064,0.00
 000063,-0.00001017,-0.00000967,-0.00000057,0.00000093,0.00000291,-0.00
 000423,-0.00000110,0.00000193,-0.00002047,-0.00000592,-0.00000279,-0.0
 0000141,-0.00000858,-0.00000819,-0.00002304,-0.00001357,0.00000878,-0.
 00000487,-0.00000927,0.00000606,-0.00000225,-0.00001174,-0.00001258,0.
 00003786,-0.00002754,0.00003197,0.00004397,-0.00000376,0.00003257,0.00
 086498,-0.00091935,-0.00004897,-0.00054799,0.00121920,0.00190088,0.173
 89507,-0.00003906,0.00003934,0.00002267,-0.00017304,0.00001422,-0.0003
 1772,-0.00005935,-0.00004287,0.00000260,-0.00005762,-0.00003198,0.0001
 7817,0.00009599,0.00004207,0.00085666,0.00002297,0.00002269,0.00002900
 ,-0.00078906,0.00034087,0.00001457,0.00521386,-0.00056729,-0.00290315,
 -0.01878685,-0.00916135,-0.02202085,-0.00324862,0.00018382,-0.00006748
 ,0.00002233,0.00011816,0.00036205,-0.00002168,0.00018427,-0.00045293,0
 .00011668,-0.00002869,-0.00003129,-0.00004218,-0.00000007,0.00002540,-
 0.00000762,-0.00000248,0.00001525,-0.00004793,0.00000189,0.00002661,0.
 00072782,-0.00036575,0.00053372,0.00026187,0.00082549,0.00088753,0.011
 81039,0.00110556,0.00973904,-0.03910361,-0.04917222,-0.05103262,-0.001
 08684,-0.00090990,-0.00044468,0.00000539,0.00001147,-0.00000416,-0.000
 01669,-0.00002582,0.00002067,0.00000915,0.00001206,-0.00003078,-0.0000
 1477,0.00001139,0.00002955,-0.00000524,0.00000295,-0.00001534,0.000029
 93,-0.00003604,-0.00004420,0.00001703,0.00000722,-0.00000163,0.0000140
 1,0.00000496,-0.00000577,-0.00006632,-0.00002808,-0.00000595,-0.000030
 18,-0.00001366,-0.00004854,-0.00005914,-0.00000542,-0.00001846,-0.0000
 3278,-0.00004912,-0.00001850,-0.00004805,0.00006321,0.00001774,-0.0000
 0392,-0.00000261,0.00000031,-0.00000066,0.00001744,0.00001975,-0.00000
 062,-0.00000480,-0.00000645,0.00000731,-0.00000410,-0.00000247,0.00002
 851,0.00000570,-0.00000007,-0.00000827,0.00001113,0.00001531,0.0000300
 6,0.00001789,-0.00001680,-0.00000369,0.00000170,-0.00000786,-0.0000055
 7,0.00001144,0.00002280,-0.00011376,0.00006739,-0.00000558,0.00003010,
 0.00001204,-0.00005095,0.00038108,-0.00041120,-0.00176502,-0.00121815,
 0.00134886,0.00290245,0.04259393,0.05468794,0.00000244,0.00000060,0.00
 000603,0.00002151,0.00000673,0.00000552,0.00002547,-0.00000315,-0.0000
 0294,0.00000376,0.00000141,-0.00000647,0.00004939,0.00002237,-0.000113
 78,-0.00011144,-0.00002958,0.00002160,-0.00000735,0.00014230,0.0004922
 9,0.00021513,0.00073398,-0.00007793,0.00225890,0.00060677,-0.00138184,
 -0.00205390,-0.00137298,-0.00053153,0.00037266,0.00030060,0.00015605,-
 0.00002997,0.00007864,-0.00014585,0.00006805,0.00001694,0.00000758,-0.
 00001577,0.00000352,0.00001546,-0.00000110,-0.00001608,-0.00000652,-0.
 00004478,-0.00001713,-0.00000560,0.00047501,-0.00009548,0.00045023,-0.
 00060381,0.00132682,0.00019261,-0.01512159,-0.00572650,-0.01659245,-0.
 14147561,-0.05445318,-0.21239300,0.00014834,0.00022248,0.00001816,-0.0
 0000203,0.00000181,-0.00000169,0.00000168,0.00000048,-0.00000051,-0.00
 000207,0.00000103,0.00000183,0.00000392,0.00001045,-0.00000100,-0.0000
 2045,0.00000047,-0.00000629,0.00000170,-0.00000847,0.00001290,-0.00000
 064,0.00000149,0.00000046,-0.00000057,-0.00000034,-0.00000125,0.000004
 01,0.00000055,-0.00000019,-0.00001187,0.00000607,-0.00000700,-0.000007
 71,-0.00001420,-0.00000569,0.00003716,0.00002947,0.00002405,0.00000648
 ,0.00003995,0.00002831,0.00000297,0.00000318,-0.00000282,-0.00000065,0
 .00000633,0.00000652,0.00000095,-0.00000259,0.00000070,0.00000416,0.00
 000033,0.00000153,0.00000939,0.00000325,0.00000160,0.00000215,0.000002
 45,0.00000451,0.00001364,0.00000563,-0.00000536,0.00000183,0.00001880,
 0.00000275,0.00000429,0.00000649,0.00000934,-0.00003434,0.00000842,-0.
 00002457,-0.00003479,0.00003408,-0.00007207,-0.00077993,0.00157292,0.0
 0178923,0.00190113,-0.00290424,-0.00252092,0.14979645,0.05676271,0.224
 25857,0.00000801,0.00000479,0.00001119,-0.00004267,0.00001768,-0.00000
 970,0.00010923,-0.00006894,0.00005297,0.00001067,-0.00001168,-0.000009
 09,0.00007296,-0.00007763,0.00003837,0.00008062,-0.00000143,-0.0000543
 8,-0.00040180,-0.00111194,-0.00071622,0.00005228,-0.00000625,-0.000280
 70,0.00254301,-0.00204682,-0.00008802,-0.00049625,-0.00077079,-0.00091
 118,0.00010524,-0.00016149,0.00020107,-0.00003267,0.00000630,0.0000273
 0,0.00000387,-0.00000430,-0.00000133,-0.00000412,0.00000006,0.00000006
 ,-0.00000038,-0.00000016,-0.00000096,0.00000597,-0.00000525,-0.0000067
 9,0.00019039,-0.00010961,0.00016436,-0.00010226,0.00065419,0.00014612,
 -0.00506136,0.00119460,-0.00006348,-0.33375068,0.06841418,0.03714493,-
 0.00003633,-0.00006300,-0.00001915,-0.00000450,0.00000354,-0.00000410,
 0.00000126,0.00000310,-0.00000230,-0.00000444,0.00000039,0.00000196,-0
 .00001574,0.00002154,-0.00001504,-0.00006791,0.00001199,-0.00001170,-0
 .00000919,0.00005261,-0.00001184,-0.00000286,-0.00000049,-0.00000238,-
 0.00000774,0.00000118,-0.00000304,0.00000255,0.00000300,-0.00000120,-0
 .00002304,-0.00001646,-0.00000312,-0.00002301,-0.00001010,-0.00000628,
 -0.00000688,0.00001099,-0.00000345,0.00002174,0.00001463,0.00002362,-0
 .00000039,-0.00000024,0.00000122,-0.00000009,0.00000159,0.00000285,0.0
 0000046,0.00000245,-0.00000118,-0.00000039,0.00000309,-0.00000199,0.00
 000515,0.00000045,0.00000149,-0.00000019,0.00000179,0.00000225,0.00001
 546,0.00000248,-0.00000064,-0.00000492,-0.00000854,-0.00000261,-0.0000
 0132,0.00000610,0.00000242,-0.00001334,0.00001426,-0.00000573,-0.00000
 416,0.00000158,-0.00001546,0.00042613,0.00105623,0.00084094,0.00086505
 ,-0.00038153,-0.00077983,-0.00877435,0.00367281,0.00492778,0.34437294,
 0.00002480,0.00000508,0.00004160,0.00010772,-0.00004608,0.00000894,-0.
 00005228,0.00003583,-0.00006126,-0.00001640,0.00005835,-0.00000113,0.0
 0024681,0.00000077,-0.00038204,-0.00079047,-0.00028575,-0.00009116,-0.
 00050377,0.00070286,0.00034294,0.00255351,0.00030026,0.00205642,0.0280
 8192,-0.00844412,-0.00350748,-0.00178871,-0.00068788,-0.00555525,0.001
 25769,-0.00092784,0.00043493,-0.00048655,-0.00028255,0.00051736,-0.000
 03892,0.00007600,0.00012965,0.00002037,0.00002450,-0.00002824,0.000013
 80,-0.00001833,-0.00007072,-0.00000832,-0.00002216,-0.00003898,0.00003
 641,0.00001980,-0.00002083,0.00041890,0.00026281,0.00024673,-0.0152865
 7,0.00110365,-0.00053915,0.06372666,-0.04992365,-0.01211292,-0.0003132
 9,-0.00016610,0.00024705,-0.00000207,0.00003079,0.00001138,-0.00000049
 ,0.00000572,-0.00001427,0.00001314,-0.00001836,-0.00001292,0.00006454,
 0.00009279,0.00000177,-0.00019380,0.00001424,-0.00002449,0.00011566,-0
 .00014610,0.00009919,0.00002002,0.00002017,0.00002428,-0.00002228,-0.0
 0000658,-0.00000596,0.00001109,0.00000492,-0.00001179,-0.00007020,0.00
 002939,-0.00001178,0.00003815,0.00001809,-0.00004674,0.00012514,0.0001
 3052,0.00011371,0.00027976,-0.00006525,0.00009044,0.00000163,0.0000268
 4,0.00003054,0.00001848,-0.00002045,-0.00001583,0.00000157,0.00000700,
 0.00001272,-0.00000926,0.00000700,0.00000164,-0.00000772,0.00000565,0.
 00000606,0.00003279,-0.00001273,-0.00000684,0.00001747,-0.00000238,0.0
 0002131,-0.00003358,-0.00002711,0.00004720,0.00002464,0.00000856,-0.00
 002290,0.00004931,0.00001744,0.00002039,0.00004203,-0.00005435,0.00002
 862,-0.00105589,0.00138145,0.00294328,0.00091926,-0.00041109,-0.001571
 82,-0.00726175,0.00169030,0.00266443,-0.07032095,0.05548811,0.00002784
 ,-0.00001000,-0.00004218,-0.00007522,0.00004029,0.00007221,0.00011037,
 -0.00006160,-0.00002652,0.00002727,-0.00003473,-0.00003625,0.00009622,
 -0.00009172,0.00002382,-0.00076138,-0.00020226,-0.00022498,-0.00021334
 ,0.00066734,0.00006186,0.00244679,-0.00202178,0.00119877,0.00110718,-0
 .00081009,-0.00351409,-0.00095806,0.00055534,-0.00120851,-0.00006416,0
 .00014960,0.00014463,-0.00006039,0.00008911,-0.00013218,0.00005181,0.0
 0002063,-0.00001904,-0.00000750,-0.00000279,0.00002234,-0.00001150,-0.
 00001885,0.00001008,-0.00004230,-0.00001262,-0.00000388,0.00023838,-0.
 00012004,0.00029962,-0.00042374,0.00087485,0.00056320,0.02575591,-0.00
 669880,-0.00308387,0.03146860,-0.01257370,-0.05112240,-0.00057693,0.00
 030942,-0.00030293,0.00000107,-0.00001467,-0.00000108,0.00000348,0.000
 01795,-0.00001244,-0.00000888,0.00000479,0.00000667,-0.00001098,0.0000
 0876,-0.00002480,0.00000221,0.00000362,0.00004997,-0.00007108,0.000066
 28,-0.00000071,-0.00001536,-0.00000729,-0.00000838,-0.00002293,0.00000
 763,0.00000152,0.00000983,0.00001570,-0.00000646,-0.00005171,0.0000474
 5,-0.00006123,0.00004213,-0.00001373,0.00001231,0.00009771,0.00007290,
 0.00006990,-0.00000367,0.00003407,0.00002230,0.00000493,0.00000629,-0.
 00000243,-0.00000007,0.00000537,0.00000377,-0.00000046,-0.00000892,0.0
 0000140,0.00000817,-0.00000493,0.00000538,0.00000658,0.00000389,-0.000
 00130,-0.00000095,0.00000467,0.00000230,-0.00002179,0.00000241,-0.0000
 1551,0.00001810,0.00004658,0.00002047,0.00001339,-0.00000903,0.0000077
 8,-0.00003826,0.00002266,-0.00002625,0.00001264,-0.00002717,-0.0000105
 6,0.00084129,-0.00294552,-0.00344860,-0.00004930,0.00176607,0.00178925
 ,-0.01834391,0.00683467,0.00639946,-0.04055803,0.01401192,0.05254760\\
 -0.00301698,-0.00139382,-0.00314455,-0.00002217,0.00009050,0.00314935,
 -0.00034876,0.00038741,-0.00103106,0.00059339,0.00019865,-0.00196610,-
 0.01611261,-0.00960338,-0.00366406,-0.00109096,-0.00607514,-0.00056562
 ,0.01823593,-0.01265057,0.00986715,-0.00000068,0.03123687,-0.00343855,
 0.00000117,-0.00586611,0.00000904,-0.00002774,0.03121795,0.00341130,0.
 00269727,-0.00170969,0.00726920,0.01609265,-0.00959618,0.00366160,0.00
 002842,0.00008995,-0.00314675,0.00303678,-0.00138514,0.00313788,-0.000
 58889,0.00020127,0.00196075,0.00034994,0.00038681,0.00103001,0.0010857
 3,-0.00606915,0.00057094,-0.01822241,-0.01266081,-0.00985228,-0.000491
 80,0.00250390,0.00231231,0.00048763,0.00249885,-0.00232178,-0.00268806
 ,-0.00172897,-0.00724490,0.00159294,0.00101906,0.00084817,0.00103170,0
 .00143677,0.00083186,0.00020082,-0.00262340,0.00324769,0.00076806,0.00
 019839,-0.00022606,-0.00040087,0.00055861,0.00028077,0.00012845,-0.000
 01198,0.00131324,0.00030044,0.00018571,0.00045355,-0.00050240,0.000204
 39,-0.00002165,0.00077000,0.00030084,-0.00003603,0.00406559,0.00047382
 ,0.00130910,0.00089610,-0.00103728,0.00072711,0.00074308,0.00040514,0.
 00063740,-0.00406736,0.00046585,-0.00130622,-0.00019799,-0.00263045,-0
 .00324407,-0.00103163,0.00143960,-0.00083281,-0.00159952,0.00102026,-0
 .00084844,-0.00029836,0.00018147,-0.00045121,0.00049908,0.00020128,0.0
 0001777,-0.00076993,0.00029971,0.00003784,0.00039832,0.00055351,-0.000
 28362,-0.00012973,-0.00001408,-0.00131726,-0.00076833,0.00019818,0.000
 22450,-0.00089286,-0.00104157,-0.00072899,-0.00073969,0.00041120,-0.00
 064005,0.00003342,-0.00048797,-0.00011064,0.00001485,-0.00064568,-0.00
 015699,-0.00001670,-0.00064423,0.00015945,-0.00002534,-0.00049035,0.00
 011169\\\@

 Writing a WFNX file to "031_lig_c2.wfx"


 THERE IS AN OLD, OLD RECIPE IN MAINE FOR STEWING COOT. PLACE THE
 BIRD IN A KETTLE OF WATER WITH A RED BUILDING BRICK FREE OF MORTAR AND
 BLEMISHES. PARBOIL THE COOT AND BRICK TOGETHER FOR THREE HOURS.
 POUR OFF THE WATER, REFILL THE KETTLE, AND AGAIN PARBOIL FOR THREE HOURS.
 ONCE AGAIN POUR OFF THE WATER, FOR THE LAST TIME ADD FRESH WATER,
 AND LET THE COOT AND BRICK SIMMER TOGETHER OVERNIGHT. IN THE MORNING,
 THROW AWAY THE COOT AND EAT THE BRICK.
 Job cpu time:       0 days  2 hours 54 minutes 15.9 seconds.
 Elapsed time:       0 days  0 hours 21 minutes 50.6 seconds.
 File lengths (MBytes):  RWF=    976 Int=      0 D2E=      0 Chk=     14 Scr=      1
 Normal termination of Gaussian 16 at Fri Nov 18 10:17:47 2022.
