 Entering Gaussian System, Link 0=g16
 Initial command:
 /software/gaussian/G16-A.03/avx2/g16/l1.exe "/scratch/lcmd/5211277.slurm/Gau-433030.inp" -scrdir="/scratch/lcmd/5211277.slurm/"
 Entering Link 1 = /software/gaussian/G16-A.03/avx2/g16/l1.exe PID=    433031.
  
 Copyright (c) 1988,1990,1992,1993,1995,1998,2003,2009,2016,
            Gaussian, Inc.  All Rights Reserved.
  
 This is part of the Gaussian(R) 16 program.  It is based on
 the Gaussian(R) 09 system (copyright 2009, Gaussian, Inc.),
 the Gaussian(R) 03 system (copyright 2003, Gaussian, Inc.),
 the Gaussian(R) 98 system (copyright 1998, Gaussian, Inc.),
 the Gaussian(R) 94 system (copyright 1995, Gaussian, Inc.),
 the Gaussian 92(TM) system (copyright 1992, Gaussian, Inc.),
 the Gaussian 90(TM) system (copyright 1990, Gaussian, Inc.),
 the Gaussian 88(TM) system (copyright 1988, Gaussian, Inc.),
 the Gaussian 86(TM) system (copyright 1986, Carnegie Mellon
 University), and the Gaussian 82(TM) system (copyright 1983,
 Carnegie Mellon University). Gaussian is a federally registered
 trademark of Gaussian, Inc.
  
 This software contains proprietary and confidential information,
 including trade secrets, belonging to Gaussian, Inc.
  
 This software is provided under written license and may be
 used, copied, transmitted, or stored only in accord with that
 written license.
  
 The following legend is applicable only to US Government
 contracts under FAR:
  
                    RESTRICTED RIGHTS LEGEND
  
 Use, reproduction and disclosure by the US Government is
 subject to restrictions as set forth in subparagraphs (a)
 and (c) of the Commercial Computer Software - Restricted
 Rights clause in FAR 52.227-19.
  
 Gaussian, Inc.
 340 Quinnipiac St., Bldg. 40, Wallingford CT 06492
  
  
 ---------------------------------------------------------------
 Warning -- This program may not be used in any manner that
 competes with the business of Gaussian, Inc. or will provide
 assistance to any competitor of Gaussian, Inc.  The licensee
 of this program is prohibited from giving any competitor of
 Gaussian, Inc. access to this program.  By using this program,
 the user acknowledges that Gaussian, Inc. is engaged in the
 business of creating and licensing software in the field of
 computational chemistry and represents and warrants to the
 licensee that it is not a competitor of Gaussian, Inc. and that
 it will not use this program in any manner prohibited above.
 ---------------------------------------------------------------
  

 Cite this work as:
 Gaussian 16, Revision A.03,
 M. J. Frisch, G. W. Trucks, H. B. Schlegel, G. E. Scuseria, 
 M. A. Robb, J. R. Cheeseman, G. Scalmani, V. Barone, 
 G. A. Petersson, H. Nakatsuji, X. Li, M. Caricato, A. V. Marenich, 
 J. Bloino, B. G. Janesko, R. Gomperts, B. Mennucci, H. P. Hratchian, 
 J. V. Ortiz, A. F. Izmaylov, J. L. Sonnenberg, D. Williams-Young, 
 F. Ding, F. Lipparini, F. Egidi, J. Goings, B. Peng, A. Petrone, 
 T. Henderson, D. Ranasinghe, V. G. Zakrzewski, J. Gao, N. Rega, 
 G. Zheng, W. Liang, M. Hada, M. Ehara, K. Toyota, R. Fukuda, 
 J. Hasegawa, M. Ishida, T. Nakajima, Y. Honda, O. Kitao, H. Nakai, 
 T. Vreven, K. Throssell, J. A. Montgomery, Jr., J. E. Peralta, 
 F. Ogliaro, M. J. Bearpark, J. J. Heyd, E. N. Brothers, K. N. Kudin, 
 V. N. Staroverov, T. A. Keith, R. Kobayashi, J. Normand, 
 K. Raghavachari, A. P. Rendell, J. C. Burant, S. S. Iyengar, 
 J. Tomasi, M. Cossi, J. M. Millam, M. Klene, C. Adamo, R. Cammi, 
 J. W. Ochterski, R. L. Martin, K. Morokuma, O. Farkas, 
 J. B. Foresman, and D. J. Fox, Gaussian, Inc., Wallingford CT, 2016.
 
 ******************************************
 Gaussian 16:  ES64L-G16RevA.03 25-Dec-2016
                18-Nov-2022 
 ******************************************
 %nprocs=8
 Will use up to    8 processors via shared memory.
 %mem=16000MB
 %chk=036_lig_c2.chk
 ----------------------------------------------------------------------
 #p pop=(regular,nbo,savenbos) freq=noraman def2svp empiricaldispersion
 =gd3bj output=wfx pbe1pbe
 ----------------------------------------------------------------------
 1/10=4,30=1,38=1/1,3;
 2/12=2,17=6,18=5,40=1/2;
 3/5=43,7=101,11=2,25=1,30=1,71=2,74=-13,124=41,140=1/1,2,3;
 4//1;
 5/5=2,38=5,98=1/2;
 8/6=4,10=90,11=11/1;
 11/6=1,8=1,9=11,15=111,16=1/1,2,10;
 10/6=1/2;
 6/28=1,40=1,73=1/1,7;
 7/8=1,10=1,25=1/1,2,3,16;
 1/10=4,30=1/3;
 99/6=200/99;
 Leave Link    1 at Fri Nov 18 09:55:55 2022, MaxMem=  2097152000 cpu:               0.6 elap:               0.1
 (Enter /software/gaussian/G16-A.03/avx2/g16/l101.exe)
 ----------
 036_lig_c2
 ----------
 Symbolic Z-matrix:
 Charge =  0 Multiplicity = 1
 C                     0.87796   4.53835   0.09827 
 C                     0.03266   3.4871   -0.60308 
 C                     0.00193   2.06677   0.0023 
 C                    -0.23706   2.07086   1.55255 
 C                     1.00704   2.15241   2.4238 
 C                     1.27745   1.29908  -0.25618 
 N                     1.39729   0.02966  -0.22549 
 C                     2.81223  -0.32018  -0.34093 
 C                     3.09885  -1.35817  -1.42699 
 C                     4.5899   -1.68049  -1.43758 
 C                     2.26704  -2.61998  -1.23916 
 C                     3.46665   1.0525   -0.58875 
 O                     2.39168   1.99891  -0.43727 
 C                    -1.13671   1.27475  -0.61554 
 N                    -1.36103   0.03308  -0.41522 
 C                    -2.63875  -0.32164  -1.03311 
 C                    -3.69533  -0.64447   0.03353 
 C                    -4.95519  -1.18843  -0.62625 
 C                    -3.98983   0.52778   0.95929 
 C                    -2.92481   0.92245  -1.88994 
 O                    -2.0111    1.91731  -1.38185 
 H                     0.78658   5.49177  -0.44285 
 H                     0.53684   4.71985   1.12786 
 H                     1.9411    4.26947   0.12776 
 H                    -1.01035   3.8333   -0.62433 
 H                     0.33691   3.40522  -1.6589 
 H                    -0.7587    1.13817   1.81456 
 H                    -0.93591   2.89686   1.76354 
 H                     1.55919   1.20066   2.38335 
 H                     0.70604   2.29353   3.47204 
 H                     1.67761   2.97717   2.15038 
 H                     3.09862  -0.74673   0.63671 
 H                     2.8306   -0.89691  -2.39712 
 H                     4.82815  -2.39352  -2.24039 
 H                     5.2164   -0.78772  -1.59484 
 H                     4.89194  -2.14049  -0.48268 
 H                     2.56887  -3.3911   -1.964 
 H                     1.18974  -2.44757  -1.38406 
 H                     2.39117  -3.03212  -0.22549 
 H                     3.86037   1.15693  -1.61195 
 H                     4.25295   1.31604   0.13027 
 H                    -2.48517  -1.22772  -1.63685 
 H                    -3.24182  -1.45918   0.62177 
 H                    -4.72991  -2.07924  -1.23219 
 H                    -5.43856  -0.44138  -1.27953 
 H                    -5.69513  -1.48081   0.13345 
 H                    -4.45099   1.37837   0.42908 
 H                    -4.69255   0.22207   1.74856 
 H                    -3.0799    0.89001   1.46061 
 H                    -2.69754   0.77975  -2.95704 
 H                    -3.94453   1.31597  -1.78831 
 
 ITRead=  0  0  0  0  0  0  0  0  0  0  0  0  0  0  0  0  0  0  0  0
 ITRead=  0  0  0  0  0  0  0  0  0  0  0  0  0  0  0  0  0  0  0  0
 ITRead=  0  0  0  0  0  0  0  0  0  0  0
 MicOpt= -1 -1 -1 -1 -1 -1 -1 -1 -1 -1 -1 -1 -1 -1 -1 -1 -1 -1 -1 -1
 MicOpt= -1 -1 -1 -1 -1 -1 -1 -1 -1 -1 -1 -1 -1 -1 -1 -1 -1 -1 -1 -1
 MicOpt= -1 -1 -1 -1 -1 -1 -1 -1 -1 -1 -1
 NAtoms=     51 NQM=       51 NQMF=       0 NMMI=      0 NMMIF=      0
                NMic=       0 NMicF=      0.
                    Isotopes and Nuclear Properties:
 (Nuclear quadrupole moments (NQMom) in fm**2, nuclear magnetic moments (NMagM)
  in nuclear magnetons)

  Atom         1           2           3           4           5           6           7           8           9          10
 IAtWgt=          12          12          12          12          12          12          14          12          12          12
 AtmWgt=  12.0000000  12.0000000  12.0000000  12.0000000  12.0000000  12.0000000  14.0030740  12.0000000  12.0000000  12.0000000
 NucSpn=           0           0           0           0           0           0           2           0           0           0
 AtZEff=  -0.0000000  -0.0000000  -0.0000000  -0.0000000  -0.0000000  -0.0000000  -0.0000000  -0.0000000  -0.0000000  -0.0000000
 NQMom=    0.0000000   0.0000000   0.0000000   0.0000000   0.0000000   0.0000000   2.0440000   0.0000000   0.0000000   0.0000000
 NMagM=    0.0000000   0.0000000   0.0000000   0.0000000   0.0000000   0.0000000   0.4037610   0.0000000   0.0000000   0.0000000
 AtZNuc=   6.0000000   6.0000000   6.0000000   6.0000000   6.0000000   6.0000000   7.0000000   6.0000000   6.0000000   6.0000000

  Atom        11          12          13          14          15          16          17          18          19          20
 IAtWgt=          12          12          16          12          14          12          12          12          12          12
 AtmWgt=  12.0000000  12.0000000  15.9949146  12.0000000  14.0030740  12.0000000  12.0000000  12.0000000  12.0000000  12.0000000
 NucSpn=           0           0           0           0           2           0           0           0           0           0
 AtZEff=  -0.0000000  -0.0000000  -0.0000000  -0.0000000  -0.0000000  -0.0000000  -0.0000000  -0.0000000  -0.0000000  -0.0000000
 NQMom=    0.0000000   0.0000000   0.0000000   0.0000000   2.0440000   0.0000000   0.0000000   0.0000000   0.0000000   0.0000000
 NMagM=    0.0000000   0.0000000   0.0000000   0.0000000   0.4037610   0.0000000   0.0000000   0.0000000   0.0000000   0.0000000
 AtZNuc=   6.0000000   6.0000000   8.0000000   6.0000000   7.0000000   6.0000000   6.0000000   6.0000000   6.0000000   6.0000000

  Atom        21          22          23          24          25          26          27          28          29          30
 IAtWgt=          16           1           1           1           1           1           1           1           1           1
 AtmWgt=  15.9949146   1.0078250   1.0078250   1.0078250   1.0078250   1.0078250   1.0078250   1.0078250   1.0078250   1.0078250
 NucSpn=           0           1           1           1           1           1           1           1           1           1
 AtZEff=  -0.0000000  -0.0000000  -0.0000000  -0.0000000  -0.0000000  -0.0000000  -0.0000000  -0.0000000  -0.0000000  -0.0000000
 NQMom=    0.0000000   0.0000000   0.0000000   0.0000000   0.0000000   0.0000000   0.0000000   0.0000000   0.0000000   0.0000000
 NMagM=    0.0000000   2.7928460   2.7928460   2.7928460   2.7928460   2.7928460   2.7928460   2.7928460   2.7928460   2.7928460
 AtZNuc=   8.0000000   1.0000000   1.0000000   1.0000000   1.0000000   1.0000000   1.0000000   1.0000000   1.0000000   1.0000000

  Atom        31          32          33          34          35          36          37          38          39          40
 IAtWgt=           1           1           1           1           1           1           1           1           1           1
 AtmWgt=   1.0078250   1.0078250   1.0078250   1.0078250   1.0078250   1.0078250   1.0078250   1.0078250   1.0078250   1.0078250
 NucSpn=           1           1           1           1           1           1           1           1           1           1
 AtZEff=  -0.0000000  -0.0000000  -0.0000000  -0.0000000  -0.0000000  -0.0000000  -0.0000000  -0.0000000  -0.0000000  -0.0000000
 NQMom=    0.0000000   0.0000000   0.0000000   0.0000000   0.0000000   0.0000000   0.0000000   0.0000000   0.0000000   0.0000000
 NMagM=    2.7928460   2.7928460   2.7928460   2.7928460   2.7928460   2.7928460   2.7928460   2.7928460   2.7928460   2.7928460
 AtZNuc=   1.0000000   1.0000000   1.0000000   1.0000000   1.0000000   1.0000000   1.0000000   1.0000000   1.0000000   1.0000000

  Atom        41          42          43          44          45          46          47          48          49          50
 IAtWgt=           1           1           1           1           1           1           1           1           1           1
 AtmWgt=   1.0078250   1.0078250   1.0078250   1.0078250   1.0078250   1.0078250   1.0078250   1.0078250   1.0078250   1.0078250
 NucSpn=           1           1           1           1           1           1           1           1           1           1
 AtZEff=  -0.0000000  -0.0000000  -0.0000000  -0.0000000  -0.0000000  -0.0000000  -0.0000000  -0.0000000  -0.0000000  -0.0000000
 NQMom=    0.0000000   0.0000000   0.0000000   0.0000000   0.0000000   0.0000000   0.0000000   0.0000000   0.0000000   0.0000000
 NMagM=    2.7928460   2.7928460   2.7928460   2.7928460   2.7928460   2.7928460   2.7928460   2.7928460   2.7928460   2.7928460
 AtZNuc=   1.0000000   1.0000000   1.0000000   1.0000000   1.0000000   1.0000000   1.0000000   1.0000000   1.0000000   1.0000000

  Atom        51
 IAtWgt=           1
 AtmWgt=   1.0078250
 NucSpn=           1
 AtZEff=  -0.0000000
 NQMom=    0.0000000
 NMagM=    2.7928460
 AtZNuc=   1.0000000
 Leave Link  101 at Fri Nov 18 09:55:55 2022, MaxMem=  2097152000 cpu:               0.9 elap:               0.3
 (Enter /software/gaussian/G16-A.03/avx2/g16/l103.exe)

 GradGradGradGradGradGradGradGradGradGradGradGradGradGradGradGradGradGrad
 Berny optimization.
 Initialization pass.
 Trust Radius=3.00D-01 FncErr=1.00D-07 GrdErr=1.00D-07 EigMax=2.50D+02 EigMin=1.00D-04
 Number of steps in this run=      2 maximum allowed number of steps=      2.
 GradGradGradGradGradGradGradGradGradGradGradGradGradGradGradGradGradGrad

 Leave Link  103 at Fri Nov 18 09:55:55 2022, MaxMem=  2097152000 cpu:               0.2 elap:               0.0
 (Enter /software/gaussian/G16-A.03/avx2/g16/l202.exe)
 Stoichiometry    C17H30N2O2
 Framework group  C1[X(C17H30N2O2)]
 Deg. of freedom   147
 Full point group                 C1      NOp   1
 Largest Abelian subgroup         C1      NOp   1
 Largest concise Abelian subgroup C1      NOp   1
                         Standard orientation:                         
 ---------------------------------------------------------------------
 Center     Atomic      Atomic             Coordinates (Angstroms)
 Number     Number       Type             X           Y           Z
 ---------------------------------------------------------------------
      1          6           0        0.611858    3.823349   -0.743385
      2          6           0       -0.132872    2.549369   -1.109313
      3          6           0       -0.108010    1.384567   -0.095713
      4          6           0       -0.423293    1.846152    1.369874
      5          6           0        0.768968    2.280742    2.208419
      6          6           0        1.222631    0.669221   -0.067713
      7          7           0        1.416983   -0.517528    0.357240
      8          6           0        2.854390   -0.782339    0.396046
      9          6           0        3.256392   -2.079535   -0.307358
     10          6           0        4.762828   -2.280578   -0.175212
     11          6           0        2.493748   -3.279920    0.237440
     12          6           0        3.436482    0.492030   -0.245113
     13          8           0        2.300323    1.358760   -0.424339
     14          6           0       -1.164924    0.360947   -0.470758
     15          7           0       -1.323756   -0.772442    0.097039
     16          6           0       -2.545642   -1.391108   -0.417188
     17          6           0       -3.632403   -1.447291    0.666369
     18          6           0       -4.823020   -2.257111    0.171321
     19          6           0       -4.042402   -0.072355    1.175667
     20          6           0       -2.863271   -0.493603   -1.624394
     21          8           0       -2.037375    0.672597   -1.422796
     22          1           0        0.490175    4.555829   -1.555072
     23          1           0        0.209864    4.286370    0.169508
     24          1           0        1.686485    3.654278   -0.601879
     25          1           0       -1.192492    2.795811   -1.266309
     26          1           0        0.227668    2.170189   -2.078984
     27          1           0       -0.900191    1.003367    1.892321
     28          1           0       -1.180176    2.644107    1.295179
     29          1           0        1.378720    1.405053    2.479907
     30          1           0        0.408478    2.714062    3.152667
     31          1           0        1.401403    3.028390    1.712738
     32          1           0        3.117164   -0.866850    1.465416
     33          1           0        3.009242   -1.958463   -1.379799
     34          1           0        5.083023   -3.186059   -0.711178
     35          1           0        5.341482   -1.435981   -0.582750
     36          1           0        5.044344   -2.402671    0.883327
     37          1           0        2.876964   -4.212033   -0.204636
     38          1           0        1.416525   -3.238803    0.015637
     39          1           0        2.592104   -3.351480    1.331972
     40          1           0        3.873392    0.306166   -1.238805
     41          1           0        4.168922    1.019507    0.379395
     42          1           0       -2.308100   -2.424958   -0.706667
     43          1           0       -3.160373   -2.007418    1.490319
     44          1           0       -4.514806   -3.271943   -0.122920
     45          1           0       -5.317526   -1.783297   -0.694397
     46          1           0       -5.580736   -2.355485    0.962732
     47          1           0       -4.527092    0.539054    0.395572
     48          1           0       -4.763674   -0.171621    2.000370
     49          1           0       -3.181867    0.491049    1.566256
     50          1           0       -2.575258   -0.939548   -2.588188
     51          1           0       -3.908605   -0.162906   -1.678540
 ---------------------------------------------------------------------
 Rotational constants (GHZ):           0.4028122           0.2129654           0.1632540
 Leave Link  202 at Fri Nov 18 09:55:56 2022, MaxMem=  2097152000 cpu:               0.4 elap:               0.1
 (Enter /software/gaussian/G16-A.03/avx2/g16/l301.exe)
 Standard basis: def2SVP (5D, 7F)
 Ernie: Thresh=  0.10000D-02 Tol=  0.10000D-05 Strict=F.
 There are   465 symmetry adapted cartesian basis functions of A   symmetry.
 There are   444 symmetry adapted basis functions of A   symmetry.
   444 basis functions,   735 primitive gaussians,   465 cartesian basis functions
    81 alpha electrons       81 beta electrons
       nuclear repulsion energy      1882.0520482759 Hartrees.
 IExCor= 1009 DFT=T Ex+Corr=PBE1PBE ExCW=0 ScaHFX=  0.250000
 ScaDFX=  0.750000  0.750000  1.000000  1.000000 ScalE2=  1.000000  1.000000
 IRadAn=      5 IRanWt=     -1 IRanGd=            0 ICorTp=0 IEmpDi=141
 NAtoms=   51 NActive=   51 NUniq=   51 SFac= 1.00D+00 NAtFMM=   60 NAOKFM=F Big=F
 Integral buffers will be    131072 words long.
 Raffenetti 2 integral format.
 Two-electron integral symmetry is turned on.
 R6Disp:  Grimme-D3(BJ) Dispersion energy=       -0.0534077016 Hartrees.
 Nuclear repulsion after empirical dispersion term =     1881.9986405743 Hartrees.
 Leave Link  301 at Fri Nov 18 09:55:56 2022, MaxMem=  2097152000 cpu:               0.6 elap:               0.2
 (Enter /software/gaussian/G16-A.03/avx2/g16/l302.exe)
 NPDir=0 NMtPBC=     1 NCelOv=     1 NCel=       1 NClECP=     1 NCelD=      1
         NCelK=      1 NCelE2=     1 NClLst=     1 CellRange=     0.0.
 One-electron integrals computed using PRISM.
 One-electron integral symmetry used in STVInt
   1 Symmetry operations used in ECPInt.
 ECPInt:  NShTT=   23436 NPrTT=   81366 LenC2=   21184 LenP2D=   51348.
 LDataN:  DoStor=T MaxTD1= 4 Len=   56
 NBasis=   444 RedAO= T EigKep=  4.76D-04  NBF=   444
 NBsUse=   444 1.00D-06 EigRej= -1.00D+00 NBFU=   444
 Precomputing XC quadrature grid using
 IXCGrd= 4 IRadAn=           5 IRanWt=          -1 IRanGd=           0 AccXCQ= 0.00D+00.
 Generated NRdTot=       0 NPtTot=           0 NUsed=           0 NTot=          32
 NSgBfM=   462   462   462   462   462 MxSgAt=    51 MxSgA2=    51.
 Leave Link  302 at Fri Nov 18 09:55:57 2022, MaxMem=  2097152000 cpu:               6.3 elap:               1.0
 (Enter /software/gaussian/G16-A.03/avx2/g16/l303.exe)
 DipDrv:  MaxL=1.
 Leave Link  303 at Fri Nov 18 09:55:57 2022, MaxMem=  2097152000 cpu:               1.1 elap:               0.3
 (Enter /software/gaussian/G16-A.03/avx2/g16/l401.exe)
 ExpMin= 1.22D-01 ExpMax= 2.27D+03 ExpMxC= 3.41D+02 IAcc=3 IRadAn=         5 AccDes= 0.00D+00
 Harris functional with IExCor= 1009 and IRadAn=       5 diagonalized for initial guess.
 HarFok:  IExCor= 1009 AccDes= 0.00D+00 IRadAn=         5 IDoV= 1 UseB2=F ITyADJ=14
 ICtDFT=  3500011 ScaDFX=  1.000000  1.000000  1.000000  1.000000
 FoFCou: FMM=F IPFlag=           0 FMFlag=      100000 FMFlg1=           0
         NFxFlg=           0 DoJE=T BraDBF=F KetDBF=T FulRan=T
         wScrn=  0.000000 ICntrl=       500 IOpCl=  0 I1Cent=   200000004 NGrid=           0
         NMat0=    1 NMatS0=      1 NMatT0=    0 NMatD0=    1 NMtDS0=    0 NMtDT0=    0
 Petite list used in FoFCou.
 Harris En= -924.393563671457    
 JPrj=0 DoOrth=F DoCkMO=F.
 Leave Link  401 at Fri Nov 18 09:56:01 2022, MaxMem=  2097152000 cpu:              21.1 elap:               3.7
 (Enter /software/gaussian/G16-A.03/avx2/g16/l502.exe)
 Integral symmetry usage will be decided dynamically.
 Closed shell SCF:
 Using DIIS extrapolation, IDIIS=  1040.
 NGot=  2097152000 LenX=  2096710627 LenY=  2096493937
 Requested convergence on RMS density matrix=1.00D-08 within 128 cycles.
 Requested convergence on MAX density matrix=1.00D-06.
 Requested convergence on             energy=1.00D-06.
 No special actions if energy rises.
 Fock matrices will be formed incrementally for  20 cycles.
 Integral accuracy reduced to 1.0D-05 until final iterations.

 Cycle   1  Pass 0  IDiag  1:
 FoFJK:  IHMeth= 1 ICntrl=       0 DoSepK=F KAlg= 0 I1Cent=           0 FoldK=F
 IRaf= 830000000 NMat=       1 IRICut=       1 DoRegI=T DoRafI=F ISym2E= 0 IDoP0=0 IntGTp=1.
 FoFCou: FMM=F IPFlag=           0 FMFlag=      100000 FMFlg1=           0
         NFxFlg=           0 DoJE=F BraDBF=F KetDBF=F FulRan=T
         wScrn=  0.000000 ICntrl=         0 IOpCl=  0 I1Cent=           0 NGrid=           0
         NMat0=    1 NMatS0=      1 NMatT0=    0 NMatD0=    1 NMtDS0=    0 NMtDT0=    0
 Symmetry not used in FoFCou.
 E= -923.577657941870    
 DIIS: error= 2.20D-02 at cycle   1 NSaved=   1.
 NSaved= 1 IEnMin= 1 EnMin= -923.577657941870     IErMin= 1 ErrMin= 2.20D-02
 ErrMax= 2.20D-02  0.00D+00 EMaxC= 1.00D-01 BMatC= 4.96D-01 BMatP= 4.96D-01
 IDIUse=3 WtCom= 7.80D-01 WtEn= 2.20D-01
 Coeff-Com:  0.100D+01
 Coeff-En:   0.100D+01
 Coeff:      0.100D+01
 Gap=     0.228 Goal=   None    Shift=    0.000
 GapD=    0.228 DampG=1.000 DampE=0.500 DampFc=0.5000 IDamp=-1.
 Damping current iteration by 5.00D-01
 RMSDP=4.24D-03 MaxDP=2.01D-01              OVMax= 2.29D-01

 Cycle   2  Pass 0  IDiag  1:
 RMSU=  2.11D-03    CP:  9.84D-01
 E= -923.797041283436     Delta-E=       -0.219383341565 Rises=F Damp=T
 DIIS: error= 5.84D-03 at cycle   2 NSaved=   2.
 NSaved= 2 IEnMin= 2 EnMin= -923.797041283436     IErMin= 2 ErrMin= 5.84D-03
 ErrMax= 5.84D-03  0.00D+00 EMaxC= 1.00D-01 BMatC= 4.15D-02 BMatP= 4.96D-01
 IDIUse=3 WtCom= 9.42D-01 WtEn= 5.84D-02
 Coeff-Com:  0.109D+00 0.891D+00
 Coeff-En:   0.173D+00 0.827D+00
 Coeff:      0.113D+00 0.887D+00
 Gap=     0.283 Goal=   None    Shift=    0.000
 RMSDP=1.36D-03 MaxDP=5.19D-02 DE=-2.19D-01 OVMax= 2.31D-01

 Cycle   3  Pass 0  IDiag  1:
 RMSU=  1.26D-03    CP:  9.76D-01  7.66D-01
 E= -924.062144340735     Delta-E=       -0.265103057299 Rises=F Damp=F
 DIIS: error= 9.27D-03 at cycle   3 NSaved=   3.
 NSaved= 3 IEnMin= 3 EnMin= -924.062144340735     IErMin= 2 ErrMin= 5.84D-03
 ErrMax= 9.27D-03  0.00D+00 EMaxC= 1.00D-01 BMatC= 5.70D-02 BMatP= 4.15D-02
 IDIUse=3 WtCom= 9.41D-02 WtEn= 9.06D-01
 Coeff-Com:  0.184D-01 0.541D+00 0.441D+00
 Coeff-En:   0.000D+00 0.000D+00 0.100D+01
 Coeff:      0.174D-02 0.509D-01 0.947D+00
 Gap=     0.236 Goal=   None    Shift=    0.000
 RMSDP=1.91D-03 MaxDP=1.20D-01 DE=-2.65D-01 OVMax= 2.08D-01

 Cycle   4  Pass 0  IDiag  1:
 RMSU=  1.12D-03    CP:  9.85D-01  1.19D+00 -8.26D-03
 E= -923.889629215046     Delta-E=        0.172515125688 Rises=F Damp=F
 DIIS: error= 1.97D-02 at cycle   4 NSaved=   4.
 NSaved= 4 IEnMin= 3 EnMin= -924.062144340735     IErMin= 2 ErrMin= 5.84D-03
 ErrMax= 1.97D-02  0.00D+00 EMaxC= 1.00D-01 BMatC= 2.52D-01 BMatP= 4.15D-02
 IDIUse=2 WtCom= 0.00D+00 WtEn= 1.00D+00
 Coeff-En:   0.000D+00 0.000D+00 0.757D+00 0.243D+00
 Coeff:      0.000D+00 0.000D+00 0.757D+00 0.243D+00
 Gap=     0.242 Goal=   None    Shift=    0.000
 RMSDP=1.04D-03 MaxDP=8.15D-02 DE= 1.73D-01 OVMax= 1.11D-01

 Cycle   5  Pass 0  IDiag  1:
 RMSU=  1.74D-04    CP:  9.81D-01  9.30D-01  4.91D-01  4.68D-01
 E= -924.099964687793     Delta-E=       -0.210335472747 Rises=F Damp=F
 DIIS: error= 4.92D-03 at cycle   5 NSaved=   5.
 NSaved= 5 IEnMin= 5 EnMin= -924.099964687793     IErMin= 5 ErrMin= 4.92D-03
 ErrMax= 4.92D-03  0.00D+00 EMaxC= 1.00D-01 BMatC= 1.54D-02 BMatP= 4.15D-02
 IDIUse=3 WtCom= 9.51D-01 WtEn= 4.92D-02
 Coeff-Com: -0.215D-02 0.946D-02 0.267D+00-0.753D-01 0.801D+00
 Coeff-En:   0.000D+00 0.000D+00 0.262D+00 0.000D+00 0.738D+00
 Coeff:     -0.205D-02 0.900D-02 0.266D+00-0.716D-01 0.798D+00
 Gap=     0.258 Goal=   None    Shift=    0.000
 RMSDP=3.18D-04 MaxDP=1.93D-02 DE=-2.10D-01 OVMax= 3.32D-02

 Cycle   6  Pass 0  IDiag  1:
 RMSU=  4.38D-05    CP:  9.79D-01  8.68D-01  6.62D-01  3.03D-01  8.22D-01
 E= -924.113601691355     Delta-E=       -0.013637003562 Rises=F Damp=F
 DIIS: error= 1.26D-04 at cycle   6 NSaved=   6.
 NSaved= 6 IEnMin= 6 EnMin= -924.113601691355     IErMin= 6 ErrMin= 1.26D-04
 ErrMax= 1.26D-04  0.00D+00 EMaxC= 1.00D-01 BMatC= 3.50D-05 BMatP= 1.54D-02
 IDIUse=3 WtCom= 9.99D-01 WtEn= 1.26D-03
 Coeff-Com: -0.214D-02 0.332D-02 0.973D-01-0.504D-01 0.391D+00 0.561D+00
 Coeff-En:   0.000D+00 0.000D+00 0.000D+00 0.000D+00 0.000D+00 0.100D+01
 Coeff:     -0.214D-02 0.331D-02 0.972D-01-0.503D-01 0.390D+00 0.561D+00
 Gap=     0.257 Goal=   None    Shift=    0.000
 RMSDP=1.69D-05 MaxDP=1.02D-03 DE=-1.36D-02 OVMax= 7.76D-04

 Cycle   7  Pass 0  IDiag  1:
 RMSU=  8.68D-06    CP:  9.79D-01  8.69D-01  6.60D-01  3.05D-01  8.60D-01
                    CP:  7.23D-01
 E= -924.113633397016     Delta-E=       -0.000031705661 Rises=F Damp=F
 DIIS: error= 5.47D-05 at cycle   7 NSaved=   7.
 NSaved= 7 IEnMin= 7 EnMin= -924.113633397016     IErMin= 7 ErrMin= 5.47D-05
 ErrMax= 5.47D-05  0.00D+00 EMaxC= 1.00D-01 BMatC= 1.57D-06 BMatP= 3.50D-05
 IDIUse=1 WtCom= 1.00D+00 WtEn= 0.00D+00
 Coeff-Com: -0.856D-03 0.111D-02 0.312D-01-0.199D-01 0.138D+00 0.240D+00
 Coeff-Com:  0.611D+00
 Coeff:     -0.856D-03 0.111D-02 0.312D-01-0.199D-01 0.138D+00 0.240D+00
 Coeff:      0.611D+00
 Gap=     0.257 Goal=   None    Shift=    0.000
 RMSDP=4.35D-06 MaxDP=2.72D-04 DE=-3.17D-05 OVMax= 2.53D-04

 Initial convergence to 1.0D-05 achieved.  Increase integral accuracy.
 Cycle   8  Pass 1  IDiag  1:
 E= -924.113604707153     Delta-E=        0.000028689863 Rises=F Damp=F
 DIIS: error= 7.54D-05 at cycle   1 NSaved=   1.
 NSaved= 1 IEnMin= 1 EnMin= -924.113604707153     IErMin= 1 ErrMin= 7.54D-05
 ErrMax= 7.54D-05  0.00D+00 EMaxC= 1.00D-01 BMatC= 2.35D-06 BMatP= 2.35D-06
 IDIUse=1 WtCom= 1.00D+00 WtEn= 0.00D+00
 Coeff-Com:  0.100D+01
 Coeff:      0.100D+01
 Gap=     0.257 Goal=   None    Shift=    0.000
 RMSDP=4.35D-06 MaxDP=2.72D-04 DE= 2.87D-05 OVMax= 2.75D-04

 Cycle   9  Pass 1  IDiag  1:
 RMSU=  5.11D-05    CP:  1.00D+00
 E= -924.113606884702     Delta-E=       -0.000002177550 Rises=F Damp=F
 DIIS: error= 2.26D-05 at cycle   2 NSaved=   2.
 NSaved= 2 IEnMin= 2 EnMin= -924.113606884702     IErMin= 2 ErrMin= 2.26D-05
 ErrMax= 2.26D-05  0.00D+00 EMaxC= 1.00D-01 BMatC= 6.40D-07 BMatP= 2.35D-06
 IDIUse=1 WtCom= 1.00D+00 WtEn= 0.00D+00
 Coeff-Com:  0.266D+00 0.734D+00
 Coeff:      0.266D+00 0.734D+00
 Gap=     0.257 Goal=   None    Shift=    0.000
 RMSDP=4.25D-06 MaxDP=3.94D-04 DE=-2.18D-06 OVMax= 3.68D-04

 Cycle  10  Pass 1  IDiag  1:
 RMSU=  4.19D-06    CP:  1.00D+00  1.01D+00
 E= -924.113606779196     Delta-E=        0.000000105506 Rises=F Damp=F
 DIIS: error= 2.36D-05 at cycle   3 NSaved=   3.
 NSaved= 3 IEnMin= 2 EnMin= -924.113606884702     IErMin= 2 ErrMin= 2.26D-05
 ErrMax= 2.36D-05  0.00D+00 EMaxC= 1.00D-01 BMatC= 7.48D-07 BMatP= 6.40D-07
 IDIUse=1 WtCom= 1.00D+00 WtEn= 0.00D+00
 Coeff-Com:  0.192D-02 0.519D+00 0.479D+00
 Coeff:      0.192D-02 0.519D+00 0.479D+00
 Gap=     0.257 Goal=   None    Shift=    0.000
 RMSDP=2.43D-06 MaxDP=1.97D-04 DE= 1.06D-07 OVMax= 2.46D-04

 Cycle  11  Pass 1  IDiag  1:
 RMSU=  7.04D-07    CP:  1.00D+00  1.02D+00  4.60D-01
 E= -924.113607401097     Delta-E=       -0.000000621901 Rises=F Damp=F
 DIIS: error= 1.10D-05 at cycle   4 NSaved=   4.
 NSaved= 4 IEnMin= 4 EnMin= -924.113607401097     IErMin= 4 ErrMin= 1.10D-05
 ErrMax= 1.10D-05  0.00D+00 EMaxC= 1.00D-01 BMatC= 3.28D-08 BMatP= 6.40D-07
 IDIUse=1 WtCom= 1.00D+00 WtEn= 0.00D+00
 Coeff-Com: -0.584D-02 0.325D+00 0.316D+00 0.365D+00
 Coeff:     -0.584D-02 0.325D+00 0.316D+00 0.365D+00
 Gap=     0.257 Goal=   None    Shift=    0.000
 RMSDP=4.43D-07 MaxDP=2.48D-05 DE=-6.22D-07 OVMax= 4.32D-05

 Cycle  12  Pass 1  IDiag  1:
 RMSU=  1.61D-07    CP:  1.00D+00  1.02D+00  4.88D-01  4.40D-01
 E= -924.113607427631     Delta-E=       -0.000000026534 Rises=F Damp=F
 DIIS: error= 6.59D-07 at cycle   5 NSaved=   5.
 NSaved= 5 IEnMin= 5 EnMin= -924.113607427631     IErMin= 5 ErrMin= 6.59D-07
 ErrMax= 6.59D-07  0.00D+00 EMaxC= 1.00D-01 BMatC= 2.62D-10 BMatP= 3.28D-08
 IDIUse=1 WtCom= 1.00D+00 WtEn= 0.00D+00
 Coeff-Com: -0.309D-02 0.159D+00 0.155D+00 0.192D+00 0.497D+00
 Coeff:     -0.309D-02 0.159D+00 0.155D+00 0.192D+00 0.497D+00
 Gap=     0.257 Goal=   None    Shift=    0.000
 RMSDP=5.11D-08 MaxDP=2.39D-06 DE=-2.65D-08 OVMax= 4.63D-06

 Cycle  13  Pass 1  IDiag  1:
 RMSU=  4.70D-08    CP:  1.00D+00  1.02D+00  4.87D-01  4.49D-01  8.97D-01
 E= -924.113607427841     Delta-E=       -0.000000000211 Rises=F Damp=F
 DIIS: error= 1.85D-07 at cycle   6 NSaved=   6.
 NSaved= 6 IEnMin= 6 EnMin= -924.113607427841     IErMin= 6 ErrMin= 1.85D-07
 ErrMax= 1.85D-07  0.00D+00 EMaxC= 1.00D-01 BMatC= 2.22D-11 BMatP= 2.62D-10
 IDIUse=1 WtCom= 1.00D+00 WtEn= 0.00D+00
 Coeff-Com: -0.975D-03 0.472D-01 0.463D-01 0.614D-01 0.257D+00 0.589D+00
 Coeff:     -0.975D-03 0.472D-01 0.463D-01 0.614D-01 0.257D+00 0.589D+00
 Gap=     0.257 Goal=   None    Shift=    0.000
 RMSDP=1.77D-08 MaxDP=1.16D-06 DE=-2.11D-10 OVMax= 1.99D-06

 Cycle  14  Pass 1  IDiag  1:
 RMSU=  1.48D-08    CP:  1.00D+00  1.02D+00  4.87D-01  4.47D-01  9.31D-01
                    CP:  8.42D-01
 E= -924.113607427858     Delta-E=       -0.000000000017 Rises=F Damp=F
 DIIS: error= 8.38D-08 at cycle   7 NSaved=   7.
 NSaved= 7 IEnMin= 7 EnMin= -924.113607427858     IErMin= 7 ErrMin= 8.38D-08
 ErrMax= 8.38D-08  0.00D+00 EMaxC= 1.00D-01 BMatC= 6.15D-12 BMatP= 2.22D-11
 IDIUse=1 WtCom= 1.00D+00 WtEn= 0.00D+00
 Coeff-Com: -0.261D-04-0.310D-03-0.197D-03 0.309D-02 0.684D-01 0.381D+00
 Coeff-Com:  0.548D+00
 Coeff:     -0.261D-04-0.310D-03-0.197D-03 0.309D-02 0.684D-01 0.381D+00
 Coeff:      0.548D+00
 Gap=     0.257 Goal=   None    Shift=    0.000
 RMSDP=7.40D-09 MaxDP=4.05D-07 DE=-1.68D-11 OVMax= 8.32D-07

 SCF Done:  E(RPBE1PBE) =  -924.113607428     A.U. after   14 cycles
            NFock= 14  Conv=0.74D-08     -V/T= 2.0105
 KE= 9.145319296630D+02 PE=-5.909834496910D+03 EE= 2.189190319245D+03
 Leave Link  502 at Fri Nov 18 09:58:10 2022, MaxMem=  2097152000 cpu:             676.3 elap:             128.8
 (Enter /software/gaussian/G16-A.03/avx2/g16/l801.exe)
 DoSCS=F DFT=T ScalE2(SS,OS)=  1.000000  1.000000
 Range of M.O.s used for correlation:     1   444
 NBasis=   444 NAE=    81 NBE=    81 NFC=     0 NFV=     0
 NROrb=    444 NOA=    81 NOB=    81 NVA=   363 NVB=   363
 Leave Link  801 at Fri Nov 18 09:58:10 2022, MaxMem=  2097152000 cpu:               0.3 elap:               0.1
 (Enter /software/gaussian/G16-A.03/avx2/g16/l1101.exe)
 Using compressed storage, NAtomX=    51.
 Will process     52 centers per pass.
   1 Symmetry operations used in ECPInt.
 ECPInt:  NShTT=   23436 NPrTT=   81366 LenC2=   21184 LenP2D=   51348.
 LDataN:  DoStor=T MaxTD1= 5 Len=  102
 R6Disp: Adding Grimme-D3(BJ) dispersion energy 1st derivatives to the gradient.
 Leave Link 1101 at Fri Nov 18 09:58:14 2022, MaxMem=  2097152000 cpu:              17.6 elap:               4.4
 (Enter /software/gaussian/G16-A.03/avx2/g16/l1102.exe)
 Symmetrizing basis deriv contribution to polar:
 IMax=3 JMax=2 DiffMx= 0.00D+00
 Leave Link 1102 at Fri Nov 18 09:58:14 2022, MaxMem=  2097152000 cpu:               0.9 elap:               0.2
 (Enter /software/gaussian/G16-A.03/avx2/g16/l1110.exe)
 Forming Gx(P) for the SCF density, NAtomX=    51.
 Integral derivatives from FoFJK, PRISM(SPDF).
 Do as many integral derivatives as possible in FoFJK.
 G2DrvN: MDV=    2097148192.
 G2DrvN: will do    52 centers at a time, making    1 passes.
 Calling FoFCou, ICntrl=  3107 FMM=F I1Cent=   0 AccDes= 0.00D+00.
 FoFJK:  IHMeth= 1 ICntrl=    3107 DoSepK=F KAlg= 0 I1Cent=           0 FoldK=F
 IRaf=         0 NMat=       1 IRICut=       1 DoRegI=T DoRafI=F ISym2E= 0 IDoP0=0 IntGTp=1.
 FoFCou: FMM=F IPFlag=           0 FMFlag=      100000 FMFlg1=           0
         NFxFlg=           0 DoJE=F BraDBF=F KetDBF=F FulRan=T
         wScrn=  0.000000 ICntrl=      3107 IOpCl=  0 I1Cent=           0 NGrid=           0
         NMat0=    1 NMatS0=      1 NMatT0=    0 NMatD0=    1 NMtDS0=    0 NMtDT0=    0
 Symmetry not used in FoFCou.
 End of G2Drv F.D. properties file   721 does not exist.
 End of G2Drv F.D. properties file   722 does not exist.
 End of G2Drv F.D. properties file   788 does not exist.
 Leave Link 1110 at Fri Nov 18 10:03:00 2022, MaxMem=  2097152000 cpu:            1810.2 elap:             285.1
 (Enter /software/gaussian/G16-A.03/avx2/g16/l1002.exe)
 Minotr:  Closed shell wavefunction.
          IDoAtm=11111111111111111111111111111111111111111111111111
          IDoAtm=1
          Direct CPHF calculation.
          Differentiating once with respect to electric field.
                with respect to dipole field.
          Differentiating once with respect to nuclear coordinates.
          Requested convergence is 1.0D-08 RMS, and 1.0D-07 maximum.
          Secondary convergence is 1.0D-12 RMS, and 1.0D-12 maximum.
          NewPWx=T KeepS1=F KeepF1=F KeepIn=T MapXYZ=F SortEE=F KeepMc=T.
        15451 words used for storage of precomputed grid.
 Two-electron integrals replicated using symmetry.
          MDV=    2097152000 using IRadAn=       1.
          Solving linear equations simultaneously, MaxMat=     384.
 FoF2E skips out because all densities are zero.
 CalDSu exits because no D1Ps are significant.
 FoFJK:  IHMeth= 1 ICntrl=       0 DoSepK=F KAlg= 0 I1Cent=           0 FoldK=F
 IRaf= 800000000 NMat=     153 IRICut=     382 DoRegI=T DoRafI=T ISym2E= 2 IDoP0=3 IntGTp=3.
 FoFCou: FMM=F IPFlag=           0 FMFlag=      100000 FMFlg1=           0
         NFxFlg=           0 DoJE=F BraDBF=F KetDBF=F FulRan=T
         wScrn=  0.000000 ICntrl=         0 IOpCl=  0 I1Cent=           0 NGrid=           0
         NMat0=  153 NMatS0=    153 NMatT0=    0 NMatD0=  153 NMtDS0=    0 NMtDT0=    0
 Integrals replicated using symmetry in FoFCou.
 Raff kept on since  75.44% of shell-pairs survive, threshold=   0.20 IRatSp=75.
          There are   156 degrees of freedom in the 1st order CPHF.  IDoFFX=6 NUNeed=     3.
    153 vectors produced by pass  0 Test12= 2.94D-14 1.00D-09 XBig12= 1.38D+02 3.84D+00.
 AX will form   153 AO Fock derivatives at one time.
    153 vectors produced by pass  1 Test12= 2.94D-14 1.00D-09 XBig12= 4.30D+01 1.35D+00.
    153 vectors produced by pass  2 Test12= 2.94D-14 1.00D-09 XBig12= 3.71D-01 4.40D-02.
    153 vectors produced by pass  3 Test12= 2.94D-14 1.00D-09 XBig12= 1.03D-03 1.66D-03.
    153 vectors produced by pass  4 Test12= 2.94D-14 1.00D-09 XBig12= 1.74D-06 8.03D-05.
     82 vectors produced by pass  5 Test12= 2.94D-14 1.00D-09 XBig12= 1.83D-09 2.32D-06.
      8 vectors produced by pass  6 Test12= 2.94D-14 1.00D-09 XBig12= 1.87D-12 7.04D-08.
      3 vectors produced by pass  7 Test12= 2.94D-14 1.00D-09 XBig12= 1.87D-15 2.60D-09.
 InvSVY:  IOpt=1 It=  1 EMax= 7.11D-15
 Solved reduced A of dimension   858 with   156 vectors.
 FullF1:  Do perturbations      1 to       3.
 Isotropic polarizability for W=    0.000000      197.49 Bohr**3.
 End of Minotr F.D. properties file   721 does not exist.
 End of Minotr F.D. properties file   722 does not exist.
 End of Minotr F.D. properties file   788 does not exist.
 Leave Link 1002 at Fri Nov 18 10:16:01 2022, MaxMem=  2097152000 cpu:            4270.1 elap:             780.9
 (Enter /software/gaussian/G16-A.03/avx2/g16/l601.exe)
 Copying SCF densities to generalized density rwf, IOpCl= 0 IROHF=0.

 **********************************************************************

            Population analysis using the SCF density.

 **********************************************************************

 Orbital symmetries:
       Occupied  (A) (A) (A) (A) (A) (A) (A) (A) (A) (A) (A) (A)
                 (A) (A) (A) (A) (A) (A) (A) (A) (A) (A) (A) (A)
                 (A) (A) (A) (A) (A) (A) (A) (A) (A) (A) (A) (A)
                 (A) (A) (A) (A) (A) (A) (A) (A) (A) (A) (A) (A)
                 (A) (A) (A) (A) (A) (A) (A) (A) (A) (A) (A) (A)
                 (A) (A) (A) (A) (A) (A) (A) (A) (A) (A) (A) (A)
                 (A) (A) (A) (A) (A) (A) (A) (A) (A)
       Virtual   (A) (A) (A) (A) (A) (A) (A) (A) (A) (A) (A) (A)
                 (A) (A) (A) (A) (A) (A) (A) (A) (A) (A) (A) (A)
                 (A) (A) (A) (A) (A) (A) (A) (A) (A) (A) (A) (A)
                 (A) (A) (A) (A) (A) (A) (A) (A) (A) (A) (A) (A)
                 (A) (A) (A) (A) (A) (A) (A) (A) (A) (A) (A) (A)
                 (A) (A) (A) (A) (A) (A) (A) (A) (A) (A) (A) (A)
                 (A) (A) (A) (A) (A) (A) (A) (A) (A) (A) (A) (A)
                 (A) (A) (A) (A) (A) (A) (A) (A) (A) (A) (A) (A)
                 (A) (A) (A) (A) (A) (A) (A) (A) (A) (A) (A) (A)
                 (A) (A) (A) (A) (A) (A) (A) (A) (A) (A) (A) (A)
                 (A) (A) (A) (A) (A) (A) (A) (A) (A) (A) (A) (A)
                 (A) (A) (A) (A) (A) (A) (A) (A) (A) (A) (A) (A)
                 (A) (A) (A) (A) (A) (A) (A) (A) (A) (A) (A) (A)
                 (A) (A) (A) (A) (A) (A) (A) (A) (A) (A) (A) (A)
                 (A) (A) (A) (A) (A) (A) (A) (A) (A) (A) (A) (A)
                 (A) (A) (A) (A) (A) (A) (A) (A) (A) (A) (A) (A)
                 (A) (A) (A) (A) (A) (A) (A) (A) (A) (A) (A) (A)
                 (A) (A) (A) (A) (A) (A) (A) (A) (A) (A) (A) (A)
                 (A) (A) (A) (A) (A) (A) (A) (A) (A) (A) (A) (A)
                 (A) (A) (A) (A) (A) (A) (A) (A) (A) (A) (A) (A)
                 (A) (A) (A) (A) (A) (A) (A) (A) (A) (A) (A) (A)
                 (A) (A) (A) (A) (A) (A) (A) (A) (A) (A) (A) (A)
                 (A) (A) (A) (A) (A) (A) (A) (A) (A) (A) (A) (A)
                 (A) (A) (A) (A) (A) (A) (A) (A) (A) (A) (A) (A)
                 (A) (A) (A) (A) (A) (A) (A) (A) (A) (A) (A) (A)
                 (A) (A) (A) (A) (A) (A) (A) (A) (A) (A) (A) (A)
                 (A) (A) (A) (A) (A) (A) (A) (A) (A) (A) (A) (A)
                 (A) (A) (A) (A) (A) (A) (A) (A) (A) (A) (A) (A)
                 (A) (A) (A) (A) (A) (A) (A) (A) (A) (A) (A) (A)
                 (A) (A) (A) (A) (A) (A) (A) (A) (A) (A) (A) (A)
                 (A) (A) (A)
 The electronic state is 1-A.
 Alpha  occ. eigenvalues --  -19.24456 -19.24315 -14.34773 -14.34638 -10.31024
 Alpha  occ. eigenvalues --  -10.30838 -10.28631 -10.28499 -10.26583 -10.25652
 Alpha  occ. eigenvalues --  -10.25504 -10.23482 -10.23383 -10.23253 -10.22944
 Alpha  occ. eigenvalues --  -10.22496 -10.22471 -10.22032 -10.21946 -10.21622
 Alpha  occ. eigenvalues --  -10.21109  -1.11808  -1.11503  -0.91473  -0.90329
 Alpha  occ. eigenvalues --   -0.86021  -0.81941  -0.81323  -0.76407  -0.75949
 Alpha  occ. eigenvalues --   -0.75742  -0.70663  -0.69575  -0.69053  -0.66033
 Alpha  occ. eigenvalues --   -0.65076  -0.62313  -0.61041  -0.58785  -0.57655
 Alpha  occ. eigenvalues --   -0.57070  -0.54351  -0.52040  -0.51346  -0.50676
 Alpha  occ. eigenvalues --   -0.50179  -0.47608  -0.47367  -0.46146  -0.45606
 Alpha  occ. eigenvalues --   -0.45315  -0.44355  -0.44019  -0.43534  -0.42470
 Alpha  occ. eigenvalues --   -0.42208  -0.41440  -0.39927  -0.39424  -0.39231
 Alpha  occ. eigenvalues --   -0.39016  -0.38855  -0.38116  -0.37837  -0.37056
 Alpha  occ. eigenvalues --   -0.36771  -0.36595  -0.36212  -0.35079  -0.34658
 Alpha  occ. eigenvalues --   -0.34557  -0.33849  -0.33797  -0.33191  -0.33097
 Alpha  occ. eigenvalues --   -0.32473  -0.32094  -0.27903  -0.25001  -0.24066
 Alpha  occ. eigenvalues --   -0.23628
 Alpha virt. eigenvalues --    0.02068   0.04457   0.06144   0.06669   0.07464
 Alpha virt. eigenvalues --    0.08437   0.08887   0.09397   0.09788   0.10429
 Alpha virt. eigenvalues --    0.11180   0.11423   0.12361   0.12694   0.13191
 Alpha virt. eigenvalues --    0.13399   0.13793   0.13994   0.14377   0.15120
 Alpha virt. eigenvalues --    0.15296   0.15548   0.15817   0.15982   0.16263
 Alpha virt. eigenvalues --    0.17227   0.17942   0.18255   0.18542   0.18762
 Alpha virt. eigenvalues --    0.19425   0.19977   0.20387   0.21129   0.21521
 Alpha virt. eigenvalues --    0.22623   0.23089   0.23727   0.23855   0.24815
 Alpha virt. eigenvalues --    0.25300   0.25749   0.25951   0.26426   0.27695
 Alpha virt. eigenvalues --    0.28330   0.29250   0.30358   0.30686   0.32454
 Alpha virt. eigenvalues --    0.35436   0.36642   0.40102   0.40881   0.41330
 Alpha virt. eigenvalues --    0.41786   0.42982   0.43549   0.44130   0.44436
 Alpha virt. eigenvalues --    0.45621   0.45996   0.46130   0.46448   0.47827
 Alpha virt. eigenvalues --    0.48950   0.50967   0.51307   0.52198   0.52829
 Alpha virt. eigenvalues --    0.53612   0.54756   0.55022   0.55838   0.56747
 Alpha virt. eigenvalues --    0.57404   0.58935   0.59312   0.59487   0.61153
 Alpha virt. eigenvalues --    0.61508   0.62269   0.62725   0.63063   0.63331
 Alpha virt. eigenvalues --    0.64469   0.64727   0.64833   0.65051   0.65291
 Alpha virt. eigenvalues --    0.65924   0.66194   0.66370   0.66903   0.67197
 Alpha virt. eigenvalues --    0.67726   0.68386   0.68420   0.68614   0.68804
 Alpha virt. eigenvalues --    0.69166   0.69302   0.69601   0.69793   0.70063
 Alpha virt. eigenvalues --    0.70380   0.70536   0.70736   0.71116   0.71572
 Alpha virt. eigenvalues --    0.71965   0.72036   0.72389   0.72685   0.73013
 Alpha virt. eigenvalues --    0.73188   0.73567   0.73868   0.74974   0.75225
 Alpha virt. eigenvalues --    0.75310   0.75683   0.75910   0.76223   0.76695
 Alpha virt. eigenvalues --    0.78005   0.78345   0.79764   0.80072   0.81272
 Alpha virt. eigenvalues --    0.81948   0.82268   0.83455   0.84999   0.86954
 Alpha virt. eigenvalues --    0.87781   0.89571   0.90008   0.92797   0.94439
 Alpha virt. eigenvalues --    0.95524   0.96982   0.99409   1.02096   1.03329
 Alpha virt. eigenvalues --    1.04607   1.05061   1.06405   1.08103   1.09240
 Alpha virt. eigenvalues --    1.10148   1.10815   1.11760   1.13003   1.14086
 Alpha virt. eigenvalues --    1.16038   1.17455   1.18682   1.20121   1.23918
 Alpha virt. eigenvalues --    1.24819   1.25913   1.26400   1.26894   1.29448
 Alpha virt. eigenvalues --    1.30563   1.31692   1.33397   1.33764   1.34562
 Alpha virt. eigenvalues --    1.35749   1.37615   1.39686   1.40793   1.41739
 Alpha virt. eigenvalues --    1.43537   1.44066   1.46631   1.47300   1.49059
 Alpha virt. eigenvalues --    1.50620   1.51696   1.52322   1.54150   1.54654
 Alpha virt. eigenvalues --    1.55423   1.56045   1.56907   1.57481   1.57932
 Alpha virt. eigenvalues --    1.58395   1.59142   1.61467   1.63479   1.64420
 Alpha virt. eigenvalues --    1.64684   1.66168   1.67682   1.68644   1.68995
 Alpha virt. eigenvalues --    1.69865   1.71774   1.71947   1.73128   1.73647
 Alpha virt. eigenvalues --    1.74879   1.75564   1.76416   1.77094   1.78314
 Alpha virt. eigenvalues --    1.78644   1.79128   1.79381   1.79650   1.80051
 Alpha virt. eigenvalues --    1.80298   1.80917   1.81457   1.81801   1.82280
 Alpha virt. eigenvalues --    1.82891   1.83113   1.83538   1.84168   1.84684
 Alpha virt. eigenvalues --    1.85319   1.85816   1.86458   1.86950   1.87075
 Alpha virt. eigenvalues --    1.87713   1.88209   1.88670   1.89125   1.89618
 Alpha virt. eigenvalues --    1.90267   1.91590   1.92439   1.92662   1.93614
 Alpha virt. eigenvalues --    1.94526   1.95150   1.95355   1.95696   1.96446
 Alpha virt. eigenvalues --    1.97286   1.97516   1.98116   1.98202   1.98438
 Alpha virt. eigenvalues --    1.99297   1.99846   2.00225   2.01306   2.02549
 Alpha virt. eigenvalues --    2.02743   2.02973   2.04153   2.06223   2.06487
 Alpha virt. eigenvalues --    2.07357   2.08317   2.09007   2.11437   2.11919
 Alpha virt. eigenvalues --    2.12837   2.13480   2.16389   2.17880   2.18532
 Alpha virt. eigenvalues --    2.20706   2.22382   2.23546   2.27281   2.27358
 Alpha virt. eigenvalues --    2.29380   2.30007   2.30685   2.31726   2.33479
 Alpha virt. eigenvalues --    2.34115   2.35222   2.36448   2.36703   2.39676
 Alpha virt. eigenvalues --    2.40079   2.41728   2.42674   2.43232   2.43454
 Alpha virt. eigenvalues --    2.44106   2.45706   2.46009   2.47162   2.49386
 Alpha virt. eigenvalues --    2.51168   2.51596   2.52611   2.53047   2.54636
 Alpha virt. eigenvalues --    2.55271   2.56922   2.57314   2.59960   2.61040
 Alpha virt. eigenvalues --    2.61425   2.62573   2.63385   2.65805   2.66382
 Alpha virt. eigenvalues --    2.67748   2.68065   2.69648   2.69837   2.70803
 Alpha virt. eigenvalues --    2.73435   2.74244   2.75483   2.76500   2.81577
 Alpha virt. eigenvalues --    2.83554   2.85047   2.86232   2.86630   2.88154
 Alpha virt. eigenvalues --    2.88442   2.89377   2.90200   2.91640   2.93074
 Alpha virt. eigenvalues --    2.93428   2.94320   2.95048   2.95571   2.96073
 Alpha virt. eigenvalues --    2.96685   2.97680   2.99053   3.01499   3.02052
 Alpha virt. eigenvalues --    3.02330   3.02748   3.03633   3.04436   3.04740
 Alpha virt. eigenvalues --    3.05007   3.06517   3.07781   3.08331   3.09732
 Alpha virt. eigenvalues --    3.10515   3.11541   3.12353   3.13318   3.14474
 Alpha virt. eigenvalues --    3.19101   3.21237   3.32415   3.35210   3.42450
 Alpha virt. eigenvalues --    3.47646   3.63257   3.66761
     Molecular Orbital Coefficients:
                          77        78        79        80        81
                           O         O         O         O         O
     Eigenvalues --    -0.32094  -0.27903  -0.25001  -0.24066  -0.23628
   1 1   C  1S         -0.00114  -0.00287   0.00023   0.00528  -0.00264
   2        2S          0.00501   0.00752  -0.00091  -0.00956   0.00462
   3        3S          0.00785  -0.00075   0.01867  -0.01254   0.04004
   4        4PX        -0.10477  -0.02105  -0.01250   0.00402   0.00186
   5        4PY         0.05138  -0.02594   0.00310   0.01511  -0.00995
   6        4PZ        -0.13202  -0.00283   0.01157   0.00509  -0.00291
   7        5PX        -0.05598  -0.01669  -0.01124  -0.00864  -0.00019
   8        5PY         0.01891  -0.01964  -0.00696   0.00269  -0.01562
   9        5PZ        -0.05634  -0.00216   0.01349  -0.00448   0.00124
  10        6D 0        0.00051  -0.00067   0.00083   0.00011  -0.00027
  11        6D+1       -0.00111   0.00047  -0.00020   0.00041   0.00010
  12        6D-1       -0.00984   0.00054   0.00147  -0.00011   0.00015
  13        6D+2       -0.00939   0.00034  -0.00070   0.00062   0.00001
  14        6D-2        0.00076   0.00063  -0.00036  -0.00024   0.00039
  15 2   C  1S         -0.01407   0.00558   0.00325   0.00276   0.00055
  16        2S          0.04112  -0.00584  -0.00043  -0.00703  -0.00178
  17        3S          0.00401  -0.07051  -0.10615  -0.01344   0.00100
  18        4PX         0.08451  -0.00306   0.02084  -0.02459   0.00216
  19        4PY        -0.09825   0.04174   0.00583   0.01120   0.00669
  20        4PZ         0.20418   0.00238  -0.03540  -0.02219   0.00459
  21        5PX         0.04243  -0.00643   0.01754  -0.05252  -0.02651
  22        5PY        -0.05974   0.04122   0.01959   0.00500  -0.01196
  23        5PZ         0.08510   0.00195  -0.05637  -0.02183  -0.00433
  24        6D 0       -0.00236  -0.00269   0.00259   0.00062  -0.00057
  25        6D+1        0.00013   0.00113  -0.00160   0.00079  -0.00010
  26        6D-1       -0.01041   0.00097   0.00200   0.00031  -0.00000
  27        6D+2       -0.01124  -0.00003  -0.00019   0.00194  -0.00014
  28        6D-2        0.00245   0.00046   0.00037  -0.00239   0.00096
  29 3   C  1S         -0.00746  -0.01226  -0.00570   0.00059   0.00341
  30        2S          0.01454   0.01651   0.00686  -0.00528  -0.00499
  31        3S          0.02387   0.27865   0.11439   0.04182  -0.04938
  32        4PX         0.00117   0.01780  -0.03959   0.06683  -0.01923
  33        4PY         0.15305  -0.07541   0.01708   0.00808  -0.00598
  34        4PZ        -0.18421  -0.02303   0.06284   0.03407  -0.01468
  35        5PX         0.03228   0.04698  -0.02213   0.13832   0.03657
  36        5PY         0.08260  -0.11936   0.09284   0.01936   0.00597
  37        5PZ        -0.08531  -0.02291   0.05611   0.03609  -0.00445
  38        6D 0        0.00110  -0.00325   0.00646  -0.00005  -0.00371
  39        6D+1       -0.00211   0.00010  -0.00504  -0.00342  -0.00407
  40        6D-1       -0.01098   0.00156   0.00638   0.00245  -0.00162
  41        6D+2       -0.00439   0.00105  -0.00374   0.00156   0.00398
  42        6D-2        0.00414  -0.00064  -0.00025  -0.00450   0.00026
  43 4   C  1S          0.00342   0.00039  -0.02263  -0.00144   0.00637
  44        2S         -0.00841  -0.00500   0.06310   0.00981  -0.01425
  45        3S         -0.01064   0.00425  -0.03689  -0.04859  -0.02076
  46        4PX        -0.04521  -0.02006   0.02117   0.01865   0.02077
  47        4PY        -0.12799  -0.00889  -0.07541   0.01988   0.03240
  48        4PZ         0.14148   0.03954  -0.06633  -0.03145   0.01563
  49        5PX        -0.03534  -0.05046  -0.03163  -0.00462  -0.02032
  50        5PY        -0.05699   0.00105  -0.02943   0.03001   0.01067
  51        5PZ         0.07469   0.03082  -0.00330  -0.02881  -0.01295
  52        6D 0       -0.00199  -0.00181   0.00427   0.00082  -0.00001
  53        6D+1       -0.00303  -0.00001  -0.00083  -0.00009   0.00380
  54        6D-1       -0.00879  -0.00028   0.00002   0.00081   0.00146
  55        6D+2       -0.00179   0.00031  -0.00061   0.00060   0.00044
  56        6D-2        0.01097   0.00039   0.00186  -0.00057   0.00151
  57 5   C  1S         -0.00120  -0.00011   0.00134  -0.00158  -0.00734
  58        2S          0.00168  -0.00418  -0.00965   0.00004   0.01602
  59        3S          0.01376   0.04449   0.04941   0.04393   0.04770
  60        4PX         0.03724   0.00583   0.00683  -0.00340  -0.02148
  61        4PY         0.10179  -0.00136  -0.00375  -0.03036  -0.02387
  62        4PZ        -0.08913  -0.01154   0.02730   0.01619  -0.01855
  63        5PX         0.01994   0.00460   0.00938   0.01026  -0.02310
  64        5PY         0.04010  -0.02047  -0.03483  -0.03921  -0.01668
  65        5PZ        -0.04224  -0.01445  -0.00516   0.00249  -0.02525
  66        6D 0       -0.00436  -0.00143   0.00184   0.00106  -0.00041
  67        6D+1       -0.00440  -0.00011   0.00032   0.00122   0.00149
  68        6D-1       -0.00196  -0.00050   0.00139  -0.00013  -0.00080
  69        6D+2        0.00023   0.00030  -0.00135   0.00014   0.00093
  70        6D-2        0.01059   0.00066   0.00144  -0.00216  -0.00054
  71 6   C  1S          0.00974  -0.04075   0.01678  -0.03074   0.01296
  72        2S         -0.02266   0.10565  -0.04461   0.08441  -0.03134
  73        3S         -0.04876  -0.07743   0.00422  -0.05805  -0.03043
  74        4PX         0.04582  -0.00166   0.01117  -0.02247  -0.05183
  75        4PY        -0.06348  -0.06933  -0.05382  -0.07738   0.02714
  76        4PZ         0.02798   0.02783  -0.14489  -0.11647  -0.09626
  77        5PX         0.03868   0.11439  -0.03783   0.08877  -0.04370
  78        5PY        -0.01185  -0.00266  -0.09208  -0.03681  -0.03418
  79        5PZ         0.01240  -0.01221  -0.09120  -0.10265  -0.04754
  80        6D 0       -0.00072   0.00123  -0.01474  -0.01236  -0.00582
  81        6D+1        0.00837   0.00944   0.00354   0.00887  -0.00357
  82        6D-1       -0.00430   0.00133   0.01977   0.01916   0.00684
  83        6D+2       -0.00903   0.00047  -0.00725  -0.00710  -0.00491
  84        6D-2        0.00019  -0.02109   0.01003  -0.01400   0.01585
  85 7   N  1S          0.00243  -0.06422   0.01511  -0.05516   0.05704
  86        2S          0.00467  -0.12938   0.03203  -0.11643   0.11930
  87        3S          0.01474  -0.18547   0.01931  -0.14560   0.16170
  88        4PX         0.03392  -0.25886   0.07236  -0.17283   0.20226
  89        4PY        -0.07334  -0.21383   0.13760  -0.06082   0.20367
  90        4PZ         0.01158   0.08231   0.23770   0.30097   0.04966
  91        5PX        -0.02315   0.16574  -0.02917   0.10072  -0.12652
  92        5PY         0.04256   0.15051  -0.11309   0.04259  -0.14149
  93        5PZ        -0.00494  -0.05905  -0.17803  -0.21922  -0.03529
  94        6D 0       -0.00001  -0.00652   0.01091   0.00287   0.01021
  95        6D+1        0.00054  -0.00442  -0.00060  -0.00598   0.00256
  96        6D-1       -0.00093  -0.00564  -0.01014  -0.01411  -0.00140
  97        6D+2       -0.00349  -0.00138   0.00425   0.00617   0.00031
  98        6D-2        0.00191   0.00979  -0.00358   0.00587  -0.01146
  99 8   C  1S         -0.00097  -0.02218   0.01094  -0.01481   0.02020
 100        2S          0.00215   0.05539  -0.03083   0.03392  -0.05283
 101        3S         -0.01088   0.03035  -0.05453   0.03910  -0.04075
 102        4PX         0.04969  -0.11969   0.02927  -0.09376   0.09172
 103        4PY        -0.00269  -0.03942   0.04417   0.01909   0.03254
 104        4PZ         0.01621   0.00773   0.10072   0.08947   0.03334
 105        5PX         0.02561  -0.04100   0.01873  -0.02576   0.03654
 106        5PY         0.00119   0.03363  -0.00774   0.02727  -0.05028
 107        5PZ         0.00807  -0.00181   0.03422  -0.00127   0.01189
 108        6D 0        0.00312  -0.00204   0.00810   0.00519   0.00428
 109        6D+1        0.00005   0.00509   0.01065   0.01558   0.00101
 110        6D-1       -0.00042   0.00217  -0.00676  -0.00438  -0.00401
 111        6D+2       -0.00274   0.00232   0.00407   0.00422   0.00154
 112        6D-2       -0.00088  -0.01582   0.00730  -0.00777   0.01451
 113 9   C  1S          0.00062  -0.00702   0.02142   0.01245   0.01411
 114        2S         -0.00471   0.01132  -0.05349  -0.03496  -0.03120
 115        3S          0.01463   0.10993  -0.09926  -0.00813  -0.13989
 116        4PX        -0.04454   0.01633   0.03524   0.03717   0.01435
 117        4PY        -0.00127   0.04113  -0.09512  -0.05691  -0.05789
 118        4PZ        -0.00484   0.01909  -0.05108  -0.02936  -0.03045
 119        5PX        -0.00897   0.01591   0.00744   0.01850  -0.00404
 120        5PY         0.00851   0.01908  -0.05000  -0.05510  -0.02924
 121        5PZ        -0.00008   0.04854  -0.02428   0.01837  -0.04811
 122        6D 0        0.00189  -0.00079   0.00289   0.00205   0.00130
 123        6D+1       -0.00001  -0.00140   0.00131  -0.00009   0.00148
 124        6D-1        0.00007   0.00201  -0.00150  -0.00029  -0.00147
 125        6D+2       -0.00265   0.00236   0.00300   0.00477   0.00015
 126        6D-2        0.00118  -0.00289   0.00149  -0.00121   0.00231
 127 10  C  1S          0.00731  -0.00608  -0.00032  -0.00559   0.00207
 128        2S         -0.01686   0.01476   0.00011   0.01427  -0.00694
 129        3S         -0.03364  -0.02262   0.01495  -0.00852   0.03845
 130        4PX         0.04512  -0.02483  -0.02461  -0.03591  -0.00356
 131        4PY        -0.01559  -0.00218   0.01113   0.01524   0.00345
 132        4PZ         0.00074  -0.00455   0.00236  -0.00225   0.00196
 133        5PX         0.02728  -0.00051  -0.03167  -0.02079  -0.02404
 134        5PY        -0.00932  -0.00476   0.00789   0.01002   0.00269
 135        5PZ         0.00045  -0.00964  -0.00260  -0.01342   0.00602
 136        6D 0        0.00070  -0.00008   0.00091   0.00078   0.00026
 137        6D+1       -0.00036   0.00008   0.00186   0.00156   0.00072
 138        6D-1        0.00041   0.00029  -0.00079  -0.00086  -0.00020
 139        6D+2       -0.00144   0.00056   0.00115   0.00148   0.00033
 140        6D-2        0.00031  -0.00150   0.00298   0.00203   0.00161
 141 11  C  1S         -0.00255  -0.00079   0.00141   0.00061   0.00101
 142        2S          0.00512  -0.00145  -0.00283   0.00125  -0.00512
 143        3S          0.01389   0.01060  -0.00565  -0.04410   0.04299
 144        4PX         0.01763  -0.05708   0.01031  -0.02239   0.02338
 145        4PY         0.01444  -0.01544   0.01812   0.00456   0.01332
 146        4PZ        -0.00089  -0.00253   0.00430   0.00378  -0.00010
 147        5PX         0.00937  -0.06320   0.01619  -0.01565   0.01685
 148        5PY         0.00892  -0.03846   0.01719  -0.01918   0.02928
 149        5PZ        -0.00478  -0.01000  -0.00219  -0.00049  -0.00297
 150        6D 0        0.00084  -0.00141   0.00187   0.00115   0.00074
 151        6D+1       -0.00020   0.00140  -0.00101  -0.00004  -0.00085
 152        6D-1       -0.00086   0.00077  -0.00138  -0.00078  -0.00065
 153        6D+2       -0.00130   0.00175   0.00230   0.00243   0.00103
 154        6D-2        0.00029   0.00006   0.00035   0.00063  -0.00025
 155 12  C  1S          0.00508   0.02440   0.00048   0.01855  -0.01770
 156        2S         -0.01322  -0.05964  -0.00474  -0.04715   0.04448
 157        3S         -0.00110  -0.10093   0.03455  -0.08683   0.09344
 158        4PX         0.00457   0.06290  -0.00883   0.02439  -0.05003
 159        4PY        -0.03008   0.09574  -0.04247   0.05547  -0.06741
 160        4PZ        -0.03611  -0.04555  -0.06071  -0.08392   0.00454
 161        5PX         0.00025   0.03394  -0.01697   0.00563  -0.02831
 162        5PY        -0.00495   0.08670  -0.02475   0.07214  -0.06320
 163        5PZ        -0.01062  -0.04510   0.00299  -0.03602   0.03540
 164        6D 0        0.00125   0.00087   0.00283   0.00271   0.00022
 165        6D+1       -0.00366   0.00016  -0.01050  -0.00846  -0.00363
 166        6D-1       -0.00010   0.00157   0.00293   0.00311   0.00007
 167        6D+2       -0.00322  -0.00096  -0.00120  -0.00129  -0.00130
 168        6D-2       -0.00199   0.00350  -0.00450  -0.00025  -0.00574
 169 13  O  1S          0.00800  -0.00985   0.00554  -0.01250   0.00589
 170        2S          0.01704  -0.02255   0.01098  -0.02677   0.01421
 171        3S          0.01550  -0.06309   0.03794  -0.07672   0.03795
 172        4PX         0.01945   0.05167   0.00522   0.06391  -0.00682
 173        4PY         0.07508   0.10140   0.07167   0.13702  -0.02848
 174        4PZ         0.05569  -0.04959   0.25409   0.16117   0.13610
 175        5PX         0.01261   0.04166  -0.00409   0.04973  -0.01219
 176        5PY         0.05500   0.07778   0.06238   0.11399  -0.01530
 177        5PZ         0.04228  -0.03663   0.21096   0.13498   0.11096
 178        6D 0        0.00243   0.00052   0.00299   0.00203   0.00052
 179        6D+1       -0.00126  -0.00066  -0.00019  -0.00023   0.00107
 180        6D-1       -0.00098   0.00186  -0.00371  -0.00114  -0.00201
 181        6D+2        0.00105   0.00353   0.00042   0.00358  -0.00072
 182        6D-2       -0.00059   0.00140   0.00004   0.00038  -0.00178
 183 14  C  1S          0.01302  -0.03833  -0.00730   0.03236  -0.01471
 184        2S         -0.03513   0.09739   0.01623  -0.09072   0.03629
 185        3S          0.00336  -0.05556   0.06741   0.06615   0.05099
 186        4PX         0.00469  -0.01129   0.04236  -0.04753  -0.12347
 187        4PY        -0.04943  -0.06236  -0.09126   0.06011   0.03992
 188        4PZ         0.02015   0.05153  -0.07124   0.02307   0.13848
 189        5PX         0.01865  -0.07843   0.03022   0.04475  -0.07341
 190        5PY         0.00733  -0.00263  -0.05735   0.02538   0.06743
 191        5PZ         0.01083  -0.04635  -0.06694   0.08656   0.07192
 192        6D 0       -0.00126  -0.00590  -0.01980   0.01738   0.01396
 193        6D+1       -0.00716  -0.01201   0.00064   0.00558  -0.01216
 194        6D-1       -0.00704   0.00502   0.01007  -0.00969  -0.00361
 195        6D+2       -0.00823  -0.00377  -0.00548   0.00818   0.00328
 196        6D-2       -0.00028   0.01720  -0.00424  -0.00709   0.02151
 197 15  N  1S          0.00208  -0.06102  -0.03478   0.05964  -0.04640
 198        2S          0.00170  -0.12417  -0.06741   0.12522  -0.10200
 199        3S          0.02522  -0.15526  -0.15391   0.15838  -0.10308
 200        4PX        -0.03427   0.22451  -0.01829  -0.09095   0.28375
 201        4PY        -0.06021  -0.13904   0.04347   0.02792  -0.19853
 202        4PZ         0.01268   0.20661   0.27087  -0.29918  -0.06362
 203        5PX         0.01359  -0.15647   0.03016   0.02755  -0.20449
 204        5PY         0.03605   0.10577  -0.04290  -0.03694   0.13998
 205        5PZ        -0.00612  -0.14229  -0.18928   0.20939   0.05126
 206        6D 0        0.00217   0.00127   0.01009  -0.00741  -0.01161
 207        6D+1        0.00034   0.01043   0.00195  -0.00789   0.01120
 208        6D-1       -0.00116  -0.00755  -0.00729   0.00807   0.00022
 209        6D+2       -0.00056  -0.00169   0.00472  -0.00403  -0.00147
 210        6D-2       -0.00174  -0.00548   0.00286  -0.00046  -0.01256
 211 16  C  1S         -0.00065  -0.01983  -0.01163   0.02121  -0.01383
 212        2S          0.00413   0.04495   0.02841  -0.05215   0.02564
 213        3S         -0.03186   0.07359   0.04167  -0.09075   0.11140
 214        4PX        -0.02794   0.11590   0.00043  -0.06192   0.11794
 215        4PY         0.04233  -0.01586   0.03289  -0.02853  -0.02584
 216        4PZ        -0.08614   0.04506   0.10528  -0.09516  -0.04479
 217        5PX        -0.01410   0.01765   0.02696  -0.03896  -0.01819
 218        5PY        -0.00209   0.02390   0.04929  -0.05523   0.03636
 219        5PZ        -0.03934  -0.01047   0.01442  -0.00846  -0.02342
 220        6D 0        0.00571  -0.00883  -0.00480   0.00780  -0.00365
 221        6D+1       -0.00059  -0.00401  -0.01077   0.01019   0.00590
 222        6D-1       -0.00484   0.00608  -0.00177  -0.00090   0.00845
 223        6D+2       -0.00374  -0.00442   0.00825  -0.00374  -0.01522
 224        6D-2       -0.00023   0.01036   0.00624  -0.00948   0.00653
 225 17  C  1S          0.00113  -0.00004  -0.01942   0.01446   0.02033
 226        2S         -0.00497   0.00330   0.04706  -0.03659  -0.04284
 227        3S          0.00033  -0.01027   0.11278  -0.07874  -0.16583
 228        4PX         0.06923  -0.02479   0.07416  -0.04467  -0.08948
 229        4PY        -0.04283   0.00253   0.00939  -0.00492  -0.01546
 230        4PZ         0.10212   0.01366  -0.07855   0.04688   0.08778
 231        5PX         0.03186  -0.01754   0.03324  -0.01088  -0.05323
 232        5PY        -0.01359  -0.04847  -0.03237   0.04881  -0.04558
 233        5PZ         0.04547   0.01842  -0.05721   0.03265   0.08286
 234        6D 0        0.00360  -0.00313   0.00027   0.00134  -0.00382
 235        6D+1        0.00365   0.00025  -0.00392   0.00260   0.00384
 236        6D-1       -0.00694   0.00173  -0.00021  -0.00026   0.00151
 237        6D+2       -0.00115   0.00051   0.00190  -0.00158  -0.00044
 238        6D-2       -0.00456   0.00005   0.00081  -0.00073  -0.00026
 239 18  C  1S          0.01084  -0.00256  -0.00004   0.00148  -0.00341
 240        2S         -0.02588   0.00801   0.00099  -0.00475   0.00888
 241        3S         -0.02367  -0.02236  -0.03606   0.03968   0.01470
 242        4PX        -0.05964   0.01680  -0.02135   0.00819   0.03601
 243        4PY        -0.01043   0.01217  -0.00693  -0.00049   0.02123
 244        4PZ        -0.05904  -0.00160   0.00228   0.00138  -0.00101
 245        5PX        -0.02838  -0.00079  -0.03293   0.02561   0.02990
 246        5PY        -0.00941   0.00934  -0.01275   0.00583   0.02800
 247        5PZ        -0.02158  -0.00411  -0.00884   0.00962   0.00599
 248        6D 0        0.00303  -0.00013  -0.00115   0.00081   0.00112
 249        6D+1        0.00378   0.00099  -0.00253   0.00104   0.00350
 250        6D-1       -0.00193   0.00075  -0.00147   0.00076   0.00204
 251        6D+2        0.00102  -0.00104   0.00151  -0.00067  -0.00232
 252        6D-2       -0.00346  -0.00009   0.00075  -0.00034  -0.00092
 253 19  C  1S          0.00722  -0.00201  -0.00085   0.00104   0.00056
 254        2S         -0.01601   0.00630   0.00306  -0.00346  -0.00331
 255        3S         -0.02935   0.03010   0.00679  -0.02428   0.06711
 256        4PX        -0.06323   0.01285   0.00484  -0.00712   0.00024
 257        4PY         0.02960  -0.01269   0.01821  -0.00960  -0.02117
 258        4PZ        -0.05239  -0.00354   0.02701  -0.01713  -0.02323
 259        5PX        -0.03220   0.00479   0.00755  -0.00931   0.00368
 260        5PY         0.00819  -0.02238   0.01686  -0.00661  -0.03655
 261        5PZ        -0.02063  -0.01441   0.01560  -0.00740  -0.02443
 262        6D 0       -0.00003  -0.00052   0.00135  -0.00073  -0.00184
 263        6D+1        0.00174  -0.00003  -0.00229   0.00162   0.00174
 264        6D-1       -0.00579   0.00064   0.00196  -0.00150  -0.00140
 265        6D+2       -0.00095  -0.00056   0.00142  -0.00081  -0.00123
 266        6D-2       -0.00459   0.00031  -0.00064   0.00040   0.00118
 267 20  C  1S         -0.00166   0.02399   0.01559  -0.01917   0.01025
 268        2S          0.00025  -0.05891  -0.03958   0.04846  -0.02198
 269        3S          0.05333  -0.10885  -0.08026   0.10361  -0.10010
 270        4PX         0.01851  -0.05321   0.00537   0.00866  -0.05253
 271        4PY        -0.08002   0.06339   0.00916  -0.04762   0.04511
 272        4PZ         0.06654  -0.07664  -0.09192   0.09157   0.00652
 273        5PX         0.02000  -0.01307  -0.00995   0.00333  -0.00521
 274        5PY        -0.02958   0.06026   0.03311  -0.06221   0.03500
 275        5PZ         0.04542  -0.07367  -0.05479   0.07379  -0.04739
 276        6D 0        0.00156  -0.00207   0.00539  -0.00280  -0.00585
 277        6D+1       -0.00076   0.00102   0.00033  -0.00100   0.00140
 278        6D-1       -0.00464  -0.00216   0.00666  -0.00306  -0.00848
 279        6D+2       -0.00337   0.00221  -0.00280   0.00103   0.00655
 280        6D-2       -0.00252  -0.00418  -0.00413   0.00452  -0.00053
 281 21  O  1S          0.01818  -0.00785  -0.00270   0.01187  -0.00548
 282        2S          0.03738  -0.01824  -0.00606   0.02686  -0.01362
 283        3S          0.04568  -0.05478  -0.02656   0.06839  -0.02210
 284        4PX        -0.01349  -0.01034  -0.13501   0.10409   0.14438
 285        4PY         0.10635   0.06080   0.11816  -0.09895  -0.05799
 286        4PZ        -0.06220  -0.11901   0.10502  -0.00546  -0.21914
 287        5PX        -0.00562  -0.01159  -0.11591   0.08546   0.11573
 288        5PY         0.07638   0.04413   0.09494  -0.07893  -0.05639
 289        5PZ        -0.04116  -0.09188   0.08587  -0.00793  -0.17962
 290        6D 0        0.00023   0.00020   0.00337  -0.00176  -0.00137
 291        6D+1       -0.00150   0.00139  -0.00059  -0.00061   0.00197
 292        6D-1        0.00169   0.00246  -0.00068  -0.00125   0.00271
 293        6D+2        0.00148   0.00277   0.00224  -0.00283  -0.00053
 294        6D-2       -0.00008  -0.00103   0.00102  -0.00099  -0.00240
 295 22  H  1S          0.15408  -0.01066  -0.00611  -0.00034  -0.00208
 296        2S          0.08616  -0.00900  -0.00355  -0.00018  -0.00171
 297        3PX        -0.00184  -0.00071  -0.00041   0.00005   0.00016
 298        3PY        -0.00334  -0.00004   0.00039   0.00068  -0.00030
 299        3PZ         0.00298  -0.00053   0.00010   0.00006  -0.00010
 300 23  H  1S         -0.05582  -0.00325   0.01579   0.00292  -0.00602
 301        2S         -0.03716  -0.00027   0.00172   0.00321  -0.00735
 302        3PX        -0.00393  -0.00050  -0.00008   0.00022  -0.00012
 303        3PY         0.00353  -0.00043   0.00018   0.00034   0.00002
 304        3PZ        -0.00168  -0.00005  -0.00055  -0.00001   0.00017
 305 24  H  1S         -0.12045  -0.00513  -0.01013   0.00664   0.00308
 306        2S         -0.04927   0.01501  -0.00265   0.02861  -0.01307
 307        3PX         0.00480   0.00054   0.00058   0.00032  -0.00022
 308        3PY        -0.00124  -0.00167  -0.00071  -0.00094   0.00026
 309        3PZ        -0.00290  -0.00000   0.00124   0.00106   0.00018
 310 25  H  1S         -0.11401   0.01180  -0.01590   0.02512  -0.00586
 311        2S         -0.04300   0.02036   0.01879  -0.00775  -0.02419
 312        3PX        -0.00506   0.00004  -0.00065   0.00109   0.00007
 313        3PY        -0.00130   0.00010  -0.00082   0.00083   0.00096
 314        3PZ         0.00457  -0.00013  -0.00050  -0.00018  -0.00027
 315 26  H  1S         -0.10784  -0.02389   0.03965   0.00692  -0.00747
 316        2S         -0.06325   0.00536   0.00541   0.00340   0.00325
 317        3PX         0.00496   0.00007  -0.00026  -0.00068  -0.00059
 318        3PY        -0.00461  -0.00004   0.00026   0.00051   0.00005
 319        3PZ        -0.00053  -0.00067   0.00010  -0.00042  -0.00020
 320 27  H  1S          0.18595   0.01939   0.02338  -0.01932  -0.02650
 321        2S          0.09061  -0.04789  -0.03634   0.02217  -0.00771
 322        3PX         0.00352  -0.00095   0.00308  -0.00100  -0.00071
 323        3PY         0.00516   0.00212   0.00140  -0.00248  -0.00188
 324        3PZ        -0.00159   0.00175  -0.00072  -0.00097  -0.00003
 325 28  H  1S         -0.08872   0.00410  -0.05012   0.00614  -0.00158
 326        2S         -0.05998  -0.00787  -0.03868  -0.00007  -0.01284
 327        3PX        -0.00462  -0.00022  -0.00043   0.00082   0.00084
 328        3PY        -0.00135  -0.00013  -0.00006   0.00032   0.00161
 329        3PZ         0.00343   0.00080  -0.00253  -0.00111   0.00019
 330 29  H  1S         -0.08499  -0.00113  -0.00814   0.01820   0.00821
 331        2S         -0.04491  -0.02406  -0.03518  -0.02841   0.00932
 332        3PX         0.00340   0.00093   0.00001   0.00013  -0.00104
 333        3PY        -0.00117  -0.00023   0.00189   0.00157   0.00080
 334        3PZ        -0.00254  -0.00036   0.00302   0.00201   0.00025
 335 30  H  1S         -0.05095  -0.01467   0.02291   0.00700  -0.01361
 336        2S         -0.02929  -0.00539   0.02387   0.00879  -0.01172
 337        3PX        -0.00015  -0.00011   0.00151  -0.00005  -0.00066
 338        3PY         0.00492   0.00070  -0.00034  -0.00120  -0.00082
 339        3PZ        -0.00061  -0.00005  -0.00034  -0.00004  -0.00000
 340 31  H  1S          0.13445   0.01046  -0.00992  -0.02984  -0.01368
 341        2S          0.06672   0.00563   0.01634  -0.00578  -0.00706
 342        3PX        -0.00293  -0.00011   0.00010   0.00083   0.00019
 343        3PY        -0.00281  -0.00012  -0.00001  -0.00035  -0.00060
 344        3PZ         0.00173   0.00025   0.00025  -0.00121  -0.00099
 345 32  H  1S          0.03168   0.00968   0.12289   0.11815   0.04098
 346        2S          0.01556  -0.00777   0.09614   0.08335   0.04624
 347        3PX         0.00073  -0.00175   0.00107  -0.00106   0.00171
 348        3PY        -0.00013  -0.00200   0.00133  -0.00002   0.00223
 349        3PZ        -0.00127  -0.00034  -0.00361  -0.00347  -0.00123
 350 33  H  1S          0.01648  -0.01119   0.02476   0.01452   0.01148
 351        2S          0.00917  -0.00988   0.05770   0.04210   0.02594
 352        3PX        -0.00097   0.00047   0.00038   0.00054   0.00003
 353        3PY        -0.00032   0.00118  -0.00152  -0.00013  -0.00132
 354        3PZ         0.00057   0.00018  -0.00031  -0.00010  -0.00063
 355 34  H  1S          0.01767   0.00439  -0.02451  -0.02288  -0.01052
 356        2S          0.01239   0.00118  -0.02041  -0.02156  -0.00950
 357        3PX         0.00075  -0.00073  -0.00056  -0.00093   0.00015
 358        3PY         0.00053   0.00019  -0.00044  -0.00031  -0.00021
 359        3PZ         0.00058   0.00013  -0.00056  -0.00046  -0.00042
 360 35  H  1S          0.00511  -0.01012   0.00413   0.00429   0.00276
 361        2S          0.00839  -0.00608   0.01286   0.00805   0.00565
 362        3PX         0.00081  -0.00062  -0.00069  -0.00116   0.00003
 363        3PY        -0.00047   0.00001   0.00089   0.00049   0.00037
 364        3PZ         0.00002  -0.00025   0.00000  -0.00003   0.00004
 365 36  H  1S          0.00696  -0.00458   0.00422   0.00081   0.00201
 366        2S          0.00844   0.00177   0.01378   0.01526   0.00093
 367        3PX         0.00089  -0.00053  -0.00075  -0.00116  -0.00005
 368        3PY        -0.00030  -0.00015   0.00091   0.00080   0.00050
 369        3PZ        -0.00036  -0.00011   0.00062   0.00039   0.00040
 370 37  H  1S         -0.00231  -0.00740  -0.02151  -0.02143  -0.00592
 371        2S         -0.00187  -0.00735  -0.01933  -0.02028  -0.00614
 372        3PX         0.00059  -0.00102   0.00074  -0.00034   0.00110
 373        3PY         0.00020  -0.00027  -0.00030  -0.00048   0.00006
 374        3PZ         0.00011  -0.00018  -0.00042  -0.00058  -0.00007
 375 38  H  1S         -0.01624   0.04491  -0.00148   0.02252  -0.01425
 376        2S         -0.01345  -0.04890   0.02051   0.01503  -0.00986
 377        3PX        -0.00035   0.00060  -0.00047   0.00097  -0.00176
 378        3PY         0.00011  -0.00300   0.00233  -0.00039   0.00262
 379        3PZ        -0.00015  -0.00034   0.00022  -0.00000   0.00000
 380 39  H  1S          0.00472  -0.00855   0.01193   0.00712   0.00493
 381        2S          0.00378  -0.00769   0.01450   0.00976   0.00656
 382        3PX         0.00060  -0.00090   0.00004  -0.00062   0.00069
 383        3PY         0.00026   0.00005   0.00088   0.00073   0.00050
 384        3PZ        -0.00009   0.00013   0.00027   0.00035   0.00001
 385 40  H  1S          0.03766   0.02026   0.09187   0.08402   0.02086
 386        2S          0.02053   0.02050   0.06518   0.07464   0.00780
 387        3PX        -0.00059   0.00115  -0.00046   0.00031  -0.00131
 388        3PY        -0.00102   0.00265  -0.00196   0.00089  -0.00251
 389        3PZ         0.00092   0.00041   0.00208   0.00155   0.00041
 390 41  H  1S         -0.04525   0.03733  -0.08687  -0.04157  -0.05994
 391        2S         -0.02466   0.03601  -0.05766  -0.01341  -0.05391
 392        3PX         0.00147   0.00013   0.00186   0.00125   0.00010
 393        3PY         0.00059   0.00160   0.00148   0.00288  -0.00026
 394        3PZ         0.00035  -0.00267   0.00015  -0.00194   0.00187
 395 42  H  1S         -0.02319   0.06752  -0.06009   0.01616   0.12099
 396        2S         -0.01576   0.03090  -0.03886   0.02098   0.08735
 397        3PX        -0.00029   0.00102   0.00049  -0.00104   0.00037
 398        3PY        -0.00009   0.00209  -0.00197   0.00062   0.00357
 399        3PZ        -0.00256   0.00204   0.00265  -0.00273  -0.00003
 400 43  H  1S          0.13222  -0.01373  -0.02343   0.01817   0.01091
 401        2S          0.07218  -0.04333  -0.05096   0.05545   0.00195
 402        3PX        -0.00219  -0.00050   0.00155  -0.00065  -0.00169
 403        3PY         0.00244  -0.00004  -0.00015   0.00004   0.00032
 404        3PZ        -0.00310   0.00110  -0.00080   0.00022   0.00170
 405 44  H  1S         -0.00681   0.00087  -0.00684   0.00421   0.00509
 406        2S         -0.00273   0.01121  -0.00809   0.00010   0.01875
 407        3PX        -0.00138   0.00079  -0.00071   0.00020   0.00141
 408        3PY         0.00001   0.00028  -0.00030  -0.00001   0.00049
 409        3PZ        -0.00207  -0.00012   0.00067  -0.00042  -0.00067
 410 45  H  1S          0.06577   0.00390  -0.00281  -0.00238   0.00813
 411        2S          0.04831   0.00151  -0.01493   0.00836   0.01794
 412        3PX        -0.00002   0.00071  -0.00080   0.00032   0.00147
 413        3PY        -0.00169   0.00041  -0.00023   0.00009   0.00063
 414        3PZ         0.00100   0.00003   0.00063  -0.00058  -0.00044
 415 46  H  1S         -0.01630  -0.01353   0.02412  -0.00932  -0.03431
 416        2S         -0.00913  -0.00887   0.02153  -0.00987  -0.03036
 417        3PX        -0.00222   0.00026   0.00016  -0.00018   0.00028
 418        3PY         0.00017   0.00023  -0.00014  -0.00002   0.00039
 419        3PZ        -0.00127   0.00056  -0.00075   0.00035   0.00125
 420 47  H  1S          0.08207  -0.00699  -0.01813   0.01387   0.01181
 421        2S          0.05431  -0.00799  -0.00554   0.00656  -0.00345
 422        3PX        -0.00022   0.00036   0.00026  -0.00027  -0.00015
 423        3PY        -0.00158   0.00023   0.00071  -0.00054  -0.00052
 424        3PZ         0.00179  -0.00057   0.00070  -0.00026  -0.00095
 425 48  H  1S         -0.01137  -0.00943   0.02384  -0.01274  -0.02520
 426        2S         -0.00639  -0.00794   0.02162  -0.01161  -0.02774
 427        3PX        -0.00256   0.00014   0.00102  -0.00064  -0.00116
 428        3PY         0.00080  -0.00014   0.00088  -0.00055  -0.00077
 429        3PZ        -0.00157   0.00072  -0.00001  -0.00022   0.00046
 430 49  H  1S         -0.05567   0.00575   0.00564  -0.00562  -0.00077
 431        2S         -0.01430   0.01865  -0.01369   0.01208   0.00057
 432        3PX         0.00211  -0.00024  -0.00306   0.00214   0.00333
 433        3PY         0.00251  -0.00012   0.00073  -0.00080  -0.00015
 434        3PZ        -0.00055  -0.00059   0.00146  -0.00085  -0.00185
 435 50  H  1S         -0.02030  -0.00856   0.08537  -0.04944  -0.08261
 436        2S         -0.01137  -0.00010   0.06855  -0.04123  -0.05674
 437        3PX         0.00086  -0.00170  -0.00139   0.00140  -0.00015
 438        3PY        -0.00271   0.00154   0.00076  -0.00144   0.00108
 439        3PZ         0.00038  -0.00171   0.00128   0.00016  -0.00235
 440 51  H  1S         -0.03895   0.05598  -0.03022  -0.00164   0.08241
 441        2S         -0.01710   0.05593  -0.01410  -0.01720   0.07936
 442        3PX        -0.00254   0.00147  -0.00015  -0.00063   0.00115
 443        3PY        -0.00091   0.00078   0.00153  -0.00179  -0.00090
 444        3PZ         0.00190  -0.00195  -0.00308   0.00286   0.00090
                          82        83        84        85        86
                           V         V         V         V         V
     Eigenvalues --     0.02068   0.04457   0.06144   0.06669   0.07464
   1 1   C  1S         -0.00380  -0.00527  -0.02609  -0.03227   0.04818
   2        2S          0.00791   0.00804   0.04472   0.04181  -0.08375
   3        3S          0.01199   0.02520   0.36667   0.64365  -0.75356
   4        4PX        -0.00656  -0.00653   0.00963   0.02806   0.00480
   5        4PY        -0.01083   0.00751   0.03181   0.01924  -0.04922
   6        4PZ        -0.00175   0.00774   0.01178   0.01760  -0.02161
[...]
 0.01603818,-0.00655398,0.01544161,0.05494390,0.07305494,0.00000248,-0.
 00000039,-0.00001248,0.00001599,0.00000471,0.00003268,0.00001259,0.000
 00042,-0.00001879,0.00001502,0.00002902,-0.00007570,-0.00003806,-0.000
 01382,0.00005906,-0.00007509,0.00000347,0.00002226,0.00005412,-0.00001
 368,0.00001751,-0.00001958,0.00001861,-0.00000832,0.00000066,-0.000001
 13,0.00000178,-0.00000082,0.00000089,-0.00000269,-0.00001051,0.0000032
 2,-0.00000285,-0.00001313,0.00001299,-0.00000262,0.00007651,0.00000095
 ,-0.00000886,-0.00026405,0.00001906,-0.00000010,-0.00033077,0.00022362
 ,0.00062065,-0.00062701,-0.00417282,-0.00148244,0.01187125,0.00674081,
 -0.01422188,0.00067914,0.00130332,0.00050212,0.12604856,0.05785724,-0.
 18515372,-0.00013804,-0.00046422,0.00027165,0.00018531,0.00012895,-0.0
 0020029,0.00000282,0.00000941,0.00000188,0.00000106,0.00000508,0.00000
 901,0.00000695,0.00000167,0.00000365,-0.00000421,-0.00002254,-0.000016
 37,-0.00001160,-0.00000703,0.00000907,0.00006339,-0.00005339,0.0000218
 5,0.00000176,0.00004968,0.00000813,-0.00000699,-0.00000003,-0.00000850
 ,0.00001074,0.00000106,0.00001243,-0.00001324,-0.00000131,-0.00001438,
 0.00000638,-0.00000351,0.00000383,-0.00000259,-0.00000200,0.00000382,0
 .00000137,-0.00000298,-0.00000213,0.00000167,0.00000217,0.00000035,0.0
 0000090,-0.00000096,0.00000290,0.00000399,-0.00000280,-0.00000344,-0.0
 0000106,0.00000673,0.00000134,0.00000327,0.00000052,0.00000409,0.00000
 299,-0.00000203,-0.00000267,0.00000596,0.00000152,0.00000210,0.0009888
 5,0.00016720,-0.00085430,-0.00019058,-0.00008702,0.00095532,-0.0001716
 2,-0.00002848,0.00044236,0.00002903,-0.00000452,-0.00006372,-0.0007172
 1,-0.00063209,-0.00002189,0.00978943,0.00303229,-0.01053455,-0.1376939
 4,-0.05947367,0.19826118,-0.00000978,0.00001365,-0.00002344,0.00007255
 ,-0.00004531,-0.00000659,0.00003694,0.00003242,-0.00003898,-0.00063998
 ,-0.00082301,0.00021029,0.00001225,0.00017930,-0.00007962,-0.00007820,
 0.00000554,0.00000187,0.00006635,-0.00002498,-0.00002391,-0.00002291,0
 .00002992,-0.00000382,0.00000287,0.00000297,0.00000603,-0.00000153,-0.
 00000260,-0.00000487,-0.00000389,0.00000131,-0.00000540,-0.00001128,0.
 00001339,0.00000155,0.00008296,0.00001038,-0.00000306,-0.00034735,-0.0
 0058899,0.00119478,-0.00025524,0.00053636,0.00088367,-0.00036589,-0.00
 068722,0.00008834,0.00775593,0.00207208,0.00349853,0.00026219,0.000597
 83,0.00104209,-0.23906652,-0.07405503,-0.10549016,-0.00009519,-0.00006
 498,-0.00022598,-0.00048393,0.00056472,-0.00027997,0.00000762,0.000013
 61,-0.00000368,0.00000867,-0.00000790,0.00000978,-0.00000344,-0.000005
 49,0.00000335,-0.00000617,0.00001634,-0.00002373,-0.00001293,0.0000335
 4,-0.00000602,-0.00055372,0.00013255,-0.00031100,-0.00002467,0.0001787
 7,-0.00004575,-0.00001759,-0.00001272,0.00000435,0.00001890,-0.0000033
 2,0.00002786,0.00005651,0.00000480,0.00004941,0.00000859,-0.00000364,0
 .00000347,-0.00000140,-0.00000125,0.00000161,0.00000231,-0.00000279,-0
 .00000156,-0.00000005,0.00000150,0.00000055,0.00000053,-0.00000054,0.0
 0000211,0.00000215,-0.00000330,-0.00000200,0.00000072,0.00000482,0.000
 00303,0.00000131,0.00000059,0.00000251,0.00000408,-0.00000193,-0.00000
 329,0.00000483,0.00000140,0.00000118,0.00006735,0.00007707,-0.00021752
 ,0.00050214,-0.00025915,-0.00037451,0.00025800,0.00035511,0.00019423,0
 .00000894,0.00004088,0.00014797,0.00011725,0.00024044,-0.00000988,-0.0
 0825673,-0.00442950,-0.00276941,-0.01468064,-0.00468065,-0.00959827,0.
 25550766,0.00001300,-0.00000971,0.00002105,-0.00006249,0.00004416,0.00
 000504,0.00000156,-0.00006076,-0.00002611,-0.00020011,0.00038817,0.000
 09847,-0.00001551,-0.00016204,-0.00008819,0.00004780,0.00009901,-0.000
 03992,-0.00003234,-0.00003763,0.00004747,0.00001809,-0.00002506,0.0000
 0026,0.00000232,-0.00000094,-0.00000216,0.00000061,0.00000145,0.000001
 30,0.00000095,0.00000486,-0.00000024,-0.00000295,-0.00000311,0.0000019
 1,-0.00007109,-0.00005736,0.00000121,-0.00025476,0.00124976,-0.0000772
 1,-0.00028041,0.00002152,0.00080405,-0.00082181,0.00062766,0.00045372,
 -0.02208535,-0.00718414,-0.00936583,0.00238002,-0.00382926,-0.00304513
 ,-0.07267638,-0.07455573,-0.03912488,0.00025201,-0.00023840,0.00004272
 ,0.00058694,-0.00054638,0.00028525,-0.00000345,-0.00000650,-0.00000196
 ,-0.00001078,-0.00000495,-0.00001502,0.00000788,0.00000879,-0.00000484
 ,0.00001917,-0.00001311,0.00002999,0.00002227,-0.00001070,0.00000084,0
 .00013171,0.00018724,0.00010887,-0.00006170,-0.00032959,-0.00006376,0.
 00009075,0.00000219,0.00001648,-0.00001162,0.00002810,-0.00000413,-0.0
 0000883,-0.00000148,-0.00000167,0.00000767,-0.00000031,-0.00000030,-0.
 00000072,-0.00000181,0.00000201,-0.00000160,0.00000228,0.00000161,-0.0
 0000046,-0.00000131,-0.00000032,0.00000098,-0.00000043,-0.00000015,-0.
 00000650,0.00000264,0.00000509,-0.00000115,-0.00000666,-0.00001071,0.0
 0000666,-0.00000459,0.00000215,-0.00000280,-0.00000081,0.00000341,-0.0
 0000228,-0.00000144,-0.00000108,-0.00012727,-0.00006520,0.00014256,-0.
 00041501,0.00039107,0.00053005,-0.00123317,-0.00043600,-0.00107881,-0.
 00010761,0.00009801,-0.00025446,0.00036986,0.00014567,0.00017639,0.020
 80043,0.00878287,0.00995791,-0.00672846,-0.00364312,-0.00465312,0.0806
 1646,0.07909179,-0.00000544,-0.00000191,0.00003037,0.00000020,-0.00000
 100,-0.00005321,0.00014968,0.00018047,-0.00007889,-0.00037003,-0.00017
 582,-0.00012905,-0.00002856,-0.00003177,0.00007848,0.00018691,-0.00010
 774,-0.00006888,-0.00014712,0.00008949,-0.00001043,0.00005001,-0.00005
 387,0.00000412,-0.00000870,-0.00001545,-0.00001514,0.00000438,0.000011
 25,0.00001181,0.00000781,0.00000150,0.00001278,0.00003913,-0.00003880,
 -0.00000482,-0.00017503,0.00003886,0.00002253,0.00105763,0.00122541,-0
 .00081710,-0.00004612,0.00001994,0.00066862,-0.00156411,0.00003328,0.0
 0027511,-0.01666787,-0.00390622,-0.00882333,0.00230096,-0.00334809,-0.
 00190968,-0.10392529,-0.03936834,-0.10179306,-0.00054560,-0.00033218,-
 0.00074370,0.00046160,0.00007702,0.00023794,-0.00000807,-0.00002374,-0
 .00000081,0.00000515,0.00000457,-0.00000693,-0.00001511,-0.00000426,-0
 .00000712,-0.00000394,0.00004810,-0.00001464,-0.00001587,0.00000484,0.
 00000723,0.00005166,0.00000746,0.00034467,0.00000553,0.00006715,0.0000
 6705,-0.00003181,0.00001148,-0.00000317,-0.00001881,-0.00001470,-0.000
 04427,-0.00004712,-0.00001113,-0.00002856,-0.00002240,0.00000871,-0.00
 000758,0.00000360,0.00000244,-0.00000424,-0.00000746,0.00000776,0.0000
 0506,0.00000401,-0.00000200,-0.00000231,-0.00000141,-0.00000018,-0.000
 00455,-0.00000814,0.00001135,0.00000613,0.00000116,-0.00002343,-0.0000
 0941,-0.00000290,-0.00000148,-0.00000596,-0.00001038,0.00000412,0.0000
 0793,-0.00001172,-0.00000105,-0.00000228,-0.00004422,-0.00000393,0.000
 21293,0.00033373,0.00020541,0.00072383,-0.00109964,-0.00070118,-0.0003
 0711,0.00028546,0.00017058,0.00023365,-0.00015222,-0.00005146,0.000187
 36,-0.01171708,-0.00617941,-0.00682875,0.01933685,0.00709824,0.0110866
 2,0.11219769,0.04519344,0.10735641,-0.00003453,0.00000710,0.00004286,0
 .00003583,0.00004897,-0.00007673,-0.00055079,0.00046126,0.00032746,0.0
 0009717,0.00001383,0.00010518,0.00001475,0.00001080,-0.00000844,0.0000
 4371,-0.00034364,-0.00017099,-0.00004182,0.00011366,0.00004700,0.00000
 135,-0.00002088,-0.00000079,-0.00001156,-0.00000116,-0.00003233,-0.000
 00022,0.00000673,0.00001338,-0.00000657,0.00000413,0.00001291,0.000005
 69,-0.00002199,-0.00000274,-0.00012648,0.00008562,0.00003041,0.0016514
 6,-0.00500163,0.00080633,-0.00038335,0.00179297,0.00114274,0.00329320,
 -0.00024322,-0.00682162,-0.00036648,0.00071811,0.00005825,0.00015053,-
 0.00003079,-0.00010450,-0.00029428,0.00020156,0.00003046,-0.06641461,0
 .01343624,0.06908992,-0.00127740,-0.00985044,-0.03162505,-0.00000325,-
 0.00001221,-0.00000563,0.00000502,0.00000242,-0.00000186,-0.00001068,-
 0.00001088,-0.00001057,0.00002496,0.00012189,0.00000459,-0.00003351,-0
 .00001912,0.00003231,-0.00000254,0.00001982,-0.00002443,-0.00000797,-0
 .00000574,0.00001338,-0.00000196,0.00000097,0.00000159,-0.00000542,-0.
 00000112,-0.00001025,0.00000627,0.00000137,0.00000867,-0.00000674,0.00
 000336,0.00000254,-0.00000440,-0.00000685,0.00001077,-0.00000393,0.000
 00297,0.00000018,0.00000462,0.00000120,-0.00000194,0.00000364,-0.00000
 220,0.00000173,-0.00000062,0.00000512,-0.00000028,0.00000466,-0.000002
 78,-0.00001287,0.00000619,-0.00000397,0.00000424,-0.00001399,0.0000033
 8,0.00000428,-0.00000649,0.00000299,0.00000439,0.00079190,-0.00061650,
 0.00028825,0.00012177,-0.00004300,-0.00013840,0.00004169,-0.00014804,0
 .00004360,0.00012198,0.00026420,0.00010510,0.00003595,0.00002749,-0.00
 000777,0.00023865,-0.00041930,-0.00012741,0.00011900,-0.00020932,0.000
 07217,0.00004644,-0.00008001,0.00010748,0.06673324,-0.00003078,0.00000
 479,0.00003955,0.00001983,0.00005066,-0.00006479,-0.00062602,0.0004417
 3,0.00034452,0.00005109,0.00000007,0.00010227,0.00001284,0.00000244,-0
 .00001573,0.00017558,-0.00025007,-0.00013396,-0.00004992,0.00007670,-0
 .00005771,0.00001612,-0.00002247,0.00002202,-0.00000453,-0.00000108,-0
 .00001176,0.00000185,0.00000363,0.00000690,0.00001365,-0.00000036,0.00
 000432,0.00002443,-0.00002244,-0.00000295,-0.00019568,0.00003483,0.000
 04901,0.00433540,-0.00687615,0.00150603,0.00154458,0.00165274,0.001077
 36,-0.00878181,0.00421573,0.02312375,0.00293240,-0.00278483,0.00251761
 ,0.00022587,0.00018393,-0.00005968,0.00024855,-0.00043550,-0.00032027,
 0.01138472,-0.04813728,-0.02611289,-0.00958192,-0.00753471,-0.03043932
 ,-0.00000675,-0.00002706,-0.00000634,0.00000580,0.00000157,-0.00000210
 ,-0.00001352,-0.00000849,-0.00000980,0.00003620,0.00014452,-0.00002282
 ,-0.00005289,0.00000673,0.00001423,0.00000142,-0.00001668,-0.00001723,
 0.00001253,0.00001234,0.00001191,-0.00000595,-0.00000001,0.00000586,-0
 .00000670,-0.00000320,-0.00001635,-0.00000331,0.00000043,0.00000443,-0
 .00001150,0.00000327,-0.00000423,0.00000581,0.00000426,-0.00000351,-0.
 00000301,0.00000569,0.00000257,-0.00000148,-0.00000318,-0.00000189,-0.
 00000133,0.00000040,-0.00000292,-0.00000219,0.00000408,0.00000340,-0.0
 0000269,-0.00001706,0.00000531,-0.00000915,-0.00000067,-0.00000663,-0.
 00001113,0.00000894,0.00000634,-0.00000987,0.00000075,-0.00000090,-0.0
 0058359,0.00116740,-0.00000631,-0.00077611,-0.00056953,0.00099398,-0.0
 0003228,-0.00004679,-0.00001219,-0.00016147,0.00000895,-0.00005847,-0.
 00004995,-0.00002769,-0.00003648,-0.00009213,0.00017844,-0.00005892,-0
 .00005601,0.00011117,0.00001182,-0.00001323,0.00006616,0.00004912,-0.0
 0338482,0.05822011,-0.00003207,0.00000467,0.00003288,-0.00000617,-0.00
 000297,-0.00006993,-0.00005591,0.00008810,-0.00003133,0.00001689,0.000
 01197,0.00001788,0.00001444,-0.00001461,0.00000379,0.00020629,-0.00019
 253,-0.00012423,-0.00010491,0.00012065,0.00011248,0.00002020,-0.000038
 43,-0.00002039,-0.00001510,0.00000373,-0.00004974,-0.00000055,0.000006
 49,0.00001940,-0.00000699,0.00000344,0.00001920,0.00002304,-0.00002958
 ,-0.00002420,-0.00013441,0.00005859,0.00002898,0.00214490,-0.00230120,
 0.00138635,-0.00056869,0.00066092,-0.00068195,0.00672234,-0.00200865,-
 0.01081914,-0.00199064,0.00215257,-0.00029445,-0.00022096,-0.00004962,
 -0.00029462,-0.00021256,0.00024291,0.00037922,0.06271439,-0.03038088,-
 0.30351756,-0.00873903,-0.00829269,-0.00929468,-0.00000674,-0.00002460
 ,-0.00000314,0.00000204,0.00000697,0.00000338,-0.00001654,-0.00001369,
 -0.00001489,0.00002069,0.00014489,0.00000585,-0.00000470,-0.00000443,0
 .00000602,0.00001214,-0.00000570,0.00003900,-0.00000862,0.00001250,0.0
 0002110,-0.00000670,0.00000856,-0.00000695,-0.00000663,0.00000473,-0.0
 0000996,-0.00001535,-0.00000850,-0.00000412,-0.00000662,0.00000223,0.0
 0000456,-0.00000869,-0.00001345,0.00001858,-0.00000677,0.00000742,0.00
 000175,0.00000371,-0.00000073,-0.00000376,0.00000645,-0.00000378,0.000
 00317,-0.00000860,0.00001149,0.00000334,0.00000885,0.00000020,-0.00003
 574,0.00001617,-0.00000881,0.00001002,-0.00001845,0.00000031,0.0000115
 5,-0.00000741,0.00000218,0.00000396,0.00001001,0.00002755,0.00168844,0
 .00053245,0.00027306,-0.00059422,0.00001473,0.00009928,0.00001656,0.00
 007851,-0.00010595,0.00004475,0.00010782,0.00002226,0.00009007,-0.0000
 3133,-0.00006091,0.00010593,0.00005486,-0.00000998,-0.00001908,-0.0000
 1298,-0.00000854,0.00002481,-0.06073827,0.03845285,0.32298651,0.000010
 81,-0.00000771,0.00002301,-0.00001880,0.00010085,-0.00003058,-0.000044
 10,0.00036664,-0.00053735,-0.00022925,-0.00002496,0.00006904,0.0000771
 8,-0.00002476,-0.00009066,0.00023149,-0.00009880,-0.00009912,-0.000169
 00,0.00008886,0.00001176,0.00005012,-0.00005559,-0.00001441,-0.0000031
 9,-0.00000732,-0.00001411,0.00000361,0.00000653,0.00000963,0.00001164,
 -0.00000148,0.00001078,0.00002982,-0.00003492,0.00000298,-0.00018869,0
 .00002342,0.00003132,-0.00062595,-0.00349956,0.00280701,-0.00017870,0.
 00016944,0.00043954,0.00154892,0.00277582,-0.00047657,-0.00113209,-0.0
 0028413,0.00110124,0.00005245,-0.00044755,0.00034504,-0.00011958,0.000
 03034,0.00049774,-0.28207745,0.09584882,0.02991980,-0.02210430,0.00035
 722,-0.00637783,-0.00001625,-0.00003449,-0.00000137,-0.00000911,-0.000
 00341,-0.00001955,-0.00001002,-0.00000045,-0.00000796,0.00001731,0.000
 10289,0.00002150,0.00003635,0.00002414,-0.00001783,-0.00000356,0.00001
 987,0.00003292,0.00000385,-0.00003595,-0.00001753,0.00000210,0.0000033
 9,0.00001233,-0.00003396,-0.00000109,-0.00003716,-0.00000596,-0.000002
 17,0.00000709,-0.00002148,0.00000726,-0.00000634,0.00000413,0.00000083
 ,-0.00000315,-0.00000597,0.00000803,0.00000469,0.00000042,-0.00000386,
 -0.00000217,-0.00000073,0.00000018,-0.00000398,-0.00000845,0.00001006,
 0.00000644,0.00000189,-0.00002057,-0.00001115,-0.00000114,-0.00000230,
 -0.00000435,-0.00001298,0.00000453,0.00000923,-0.00001258,-0.00000127,
 -0.00000350,-0.00023012,0.00017492,-0.00068977,0.00016887,-0.00002135,
 -0.00021435,0.00004180,-0.00005714,-0.00007884,0.00003199,-0.00032605,
 0.00013902,0.00016443,0.00013100,0.00011793,0.00034409,-0.00028588,0.0
 0004019,0.00006003,-0.00022146,-0.00002601,0.00002298,-0.00007048,0.00
 011153,-0.00399010,0.00351306,0.00026147,0.30833722,0.00001171,0.00001
 416,-0.00001959,0.00006163,0.00012539,0.00004897,-0.00002162,0.0004277
 3,-0.00094258,-0.00023000,-0.00002355,-0.00000335,0.00004811,0.0000085
 8,-0.00006589,0.00001232,-0.00027623,-0.00005282,0.00012499,0.00003039
 ,0.00005415,-0.00001135,0.00006918,-0.00003772,-0.00000300,-0.00000357
 ,0.00000101,-0.00000112,0.00000295,-0.00000185,-0.00001733,0.00000194,
 -0.00000452,0.00001280,-0.00000261,0.00000261,0.00006141,0.00009463,-0
 .00000093,-0.00157797,-0.00703266,0.00330600,0.00283107,-0.00050124,0.
 00269857,0.02013745,-0.00422279,-0.00457521,0.00084905,0.00084568,-0.0
 0077188,0.00056850,-0.00056398,0.00047513,-0.00040536,0.00020758,0.000
 12535,0.10636597,-0.08610485,-0.01167965,-0.03323369,0.00646572,-0.004
 33804,-0.00000292,-0.00000044,0.00000230,-0.00000700,-0.00000170,-0.00
 000187,-0.00000017,-0.00000313,-0.00000053,0.00001693,0.00002844,0.000
 00954,0.00002400,0.00000830,-0.00000893,0.00005717,-0.00001133,-0.0000
 6655,0.00000093,0.00002706,0.00000809,-0.00000601,0.00000232,-0.000007
 37,-0.00002070,0.00000615,-0.00001045,0.00000446,-0.00000086,0.0000069
 4,-0.00000457,-0.00000230,0.00000494,-0.00000291,-0.00000254,0.0000042
 5,0.00000104,-0.00000261,-0.00000189,0.00000292,0.00000209,0.00000005,
 0.00000108,-0.00000116,0.00000282,0.00000753,-0.00000284,-0.00000368,-
 0.00000205,0.00001366,0.00000517,0.00000379,0.00000092,0.00000408,-0.0
 0000100,0.00000299,-0.00000211,0.00000536,0.00000745,0.00000108,0.0007
 8584,-0.00186073,0.00153083,-0.00002595,0.00012627,-0.00030428,0.00003
 354,0.00015842,-0.00008744,-0.00105097,-0.00024844,-0.00017546,-0.0001
 7943,0.00035061,-0.00022705,-0.00001208,0.00045303,0.00014606,-0.00008
 019,0.00015950,0.00000710,-0.00006023,-0.00000486,-0.00017284,0.003121
 43,0.00017278,0.00114972,-0.09819342,0.09106050,0.00000748,-0.00001225
 ,0.00002659,-0.00000888,0.00005677,-0.00005885,-0.00006162,0.00031343,
 -0.00032842,-0.00012401,-0.00004489,0.00003520,0.00004651,-0.00001904,
 -0.00006698,0.00016089,-0.00008120,-0.00009547,-0.00014886,0.00011308,
 0.00005286,0.00001119,-0.00005780,-0.00000558,-0.00000943,-0.00000002,
 -0.00003073,0.00000064,0.00000499,0.00001300,0.00000080,0.00000218,0.0
 0001500,0.00000110,-0.00001465,-0.00000165,-0.00010106,0.00002292,0.00
 001784,-0.00254502,-0.00034428,-0.00120809,-0.00265956,0.00096869,-0.0
 0256646,-0.01453547,0.00471841,0.00393048,-0.00011194,-0.00010288,0.00
 079487,0.00040082,0.00013030,-0.00016164,-0.00062195,0.00077339,-0.000
 71027,0.03572379,-0.01318566,-0.05301299,-0.01590984,0.00339669,0.0014
 6793,-0.00000610,-0.00001242,-0.00000461,-0.00000248,-0.00000235,-0.00
 000962,-0.00000613,-0.00000003,-0.00000522,0.00000895,0.00001312,0.000
 04196,0.00003074,-0.00000273,-0.00000672,-0.00002479,0.00003566,0.0000
 2989,-0.00000398,-0.00005123,-0.00002210,0.00000640,0.00000251,0.00001
 021,-0.00002317,-0.00000223,-0.00002287,0.00000466,-0.00000044,0.00000
 667,-0.00000981,0.00000498,-0.00000043,-0.00000396,-0.00000594,0.00000
 791,-0.00000469,0.00000412,0.00000126,0.00000302,0.00000013,-0.0000019
 3,0.00000293,-0.00000170,0.00000051,-0.00000564,0.00000752,0.00000133,
 0.00000613,-0.00000646,-0.00001845,0.00000445,-0.00000378,0.00000243,-
 0.00001240,-0.00000100,0.00000541,-0.00000652,-0.00000186,0.00000251,-
 0.00046623,0.00143634,-0.00080084,-0.00018049,-0.00038541,0.00019427,-
 0.00006398,-0.00016422,0.00002233,0.00015193,0.00019065,0.00016774,0.0
 0002298,-0.00002895,-0.00001085,0.00060847,-0.00046647,-0.00099057,0.0
 0020186,-0.00023207,0.00037414,-0.00001086,-0.00006470,0.00011956,0.02
 751070,-0.01086899,-0.00117543,-0.02724759,0.01396977,0.05397489\\0.00
 011767,-0.00028212,0.00083803,0.00047736,0.00063578,-0.00156071,0.0002
 3946,0.00070449,-0.00111574,0.00029720,0.00034008,0.00312477,0.0024083
 1,-0.00029444,-0.00174848,0.00341792,0.03224998,-0.00040348,0.00263281
 ,0.00082024,-0.00156056,0.01486476,-0.01193230,0.00278555,-0.00100072,
 -0.00037408,-0.00261113,0.00032240,0.00095916,0.00148751,0.00386036,0.
 00072970,0.00257403,0.00002607,-0.00499513,-0.00100182,-0.02003223,-0.
 01408306,0.00137517,0.00051875,0.03205954,-0.00800870,0.00067357,-0.00
 333017,-0.00997284,-0.01389726,-0.01218382,-0.00329916,-0.00110153,0.0
 0018032,0.00412346,0.00138441,0.00022375,-0.00188249,0.00017154,0.0007
 9796,-0.00201397,-0.00073678,-0.00534468,0.00008274,0.01561612,-0.0122
 6160,0.01540382,-0.00018811,-0.00061946,-0.00016547,0.00018096,-0.0001
 1113,-0.00034573,-0.00022501,0.00049176,0.00011784,0.00019221,-0.00041
 433,0.00030798,-0.00007155,0.00006490,-0.00013939,0.00000384,-0.000185
 17,0.00288100,-0.00042045,-0.00086727,-0.00117314,-0.00168230,-0.00193
 713,0.00162116,-0.00028059,-0.00072142,-0.00095030,-0.00086599,0.00093
 706,-0.00005935,-0.00423927,0.00092902,-0.00010950,0.00028716,0.000202
 45,-0.00094074,-0.00067962,0.00044184,0.00017186,0.00037167,0.00003452
 ,-0.00019859,-0.00042753,0.00009488,-0.00029070,-0.00154130,0.00100166
 ,-0.00040617,-0.00142369,-0.00419769,-0.00191277,-0.00154093,0.0005689
 7,-0.00031326,-0.00085900,0.00004502,0.00038907,-0.00115788,-0.0007623
 2,0.00026894,0.00181955,-0.00001648,0.00344376,0.00032428,-0.00079389,
 -0.00266489,0.00052229,-0.00009435,0.00098323,-0.00068692,0.00030783,-
 0.00023183,0.00091667,0.00024653,0.00005686,-0.00055477,0.00087658,0.0
 0040185,0.00087147,0.00000614,-0.00025065,-0.00012284,0.00027372,0.001
 36846,0.00044769,0.00066901,0.00048327,0.00076974,-0.00109085,0.001041
 22\\\@

 Writing a WFNX file to "036_lig_c2.wfx"


 THE REAL VOYAGE OF DISCOVERY CONSISTS NOT IN SEEKING NEW LANDSCAPES 
 BUT IN HAVING NEW EYES.
                                                    -- MARCEL PROUST
 Job cpu time:       0 days  2 hours 35 minutes 11.4 seconds.
 Elapsed time:       0 days  0 hours 27 minutes 39.7 seconds.
 File lengths (MBytes):  RWF=   1052 Int=      0 D2E=      0 Chk=     15 Scr=      1
 Normal termination of Gaussian 16 at Fri Nov 18 10:23:36 2022.
