 Entering Gaussian System, Link 0=g16
 Initial command:
 /software/gaussian/G16-A.03/avx2/g16/l1.exe "/scratch/lcmd/5211288.slurm/Gau-316157.inp" -scrdir="/scratch/lcmd/5211288.slurm/"
 Entering Link 1 = /software/gaussian/G16-A.03/avx2/g16/l1.exe PID=    316158.
  
 Copyright (c) 1988,1990,1992,1993,1995,1998,2003,2009,2016,
            Gaussian, Inc.  All Rights Reserved.
  
 This is part of the Gaussian(R) 16 program.  It is based on
 the Gaussian(R) 09 system (copyright 2009, Gaussian, Inc.),
 the Gaussian(R) 03 system (copyright 2003, Gaussian, Inc.),
 the Gaussian(R) 98 system (copyright 1998, Gaussian, Inc.),
 the Gaussian(R) 94 system (copyright 1995, Gaussian, Inc.),
 the Gaussian 92(TM) system (copyright 1992, Gaussian, Inc.),
 the Gaussian 90(TM) system (copyright 1990, Gaussian, Inc.),
 the Gaussian 88(TM) system (copyright 1988, Gaussian, Inc.),
 the Gaussian 86(TM) system (copyright 1986, Carnegie Mellon
 University), and the Gaussian 82(TM) system (copyright 1983,
 Carnegie Mellon University). Gaussian is a federally registered
 trademark of Gaussian, Inc.
  
 This software contains proprietary and confidential information,
 including trade secrets, belonging to Gaussian, Inc.
  
 This software is provided under written license and may be
 used, copied, transmitted, or stored only in accord with that
 written license.
  
 The following legend is applicable only to US Government
 contracts under FAR:
  
                    RESTRICTED RIGHTS LEGEND
  
 Use, reproduction and disclosure by the US Government is
 subject to restrictions as set forth in subparagraphs (a)
 and (c) of the Commercial Computer Software - Restricted
 Rights clause in FAR 52.227-19.
  
 Gaussian, Inc.
 340 Quinnipiac St., Bldg. 40, Wallingford CT 06492
  
  
 ---------------------------------------------------------------
 Warning -- This program may not be used in any manner that
 competes with the business of Gaussian, Inc. or will provide
 assistance to any competitor of Gaussian, Inc.  The licensee
 of this program is prohibited from giving any competitor of
 Gaussian, Inc. access to this program.  By using this program,
 the user acknowledges that Gaussian, Inc. is engaged in the
 business of creating and licensing software in the field of
 computational chemistry and represents and warrants to the
 licensee that it is not a competitor of Gaussian, Inc. and that
 it will not use this program in any manner prohibited above.
 ---------------------------------------------------------------
  

 Cite this work as:
 Gaussian 16, Revision A.03,
 M. J. Frisch, G. W. Trucks, H. B. Schlegel, G. E. Scuseria, 
 M. A. Robb, J. R. Cheeseman, G. Scalmani, V. Barone, 
 G. A. Petersson, H. Nakatsuji, X. Li, M. Caricato, A. V. Marenich, 
 J. Bloino, B. G. Janesko, R. Gomperts, B. Mennucci, H. P. Hratchian, 
 J. V. Ortiz, A. F. Izmaylov, J. L. Sonnenberg, D. Williams-Young, 
 F. Ding, F. Lipparini, F. Egidi, J. Goings, B. Peng, A. Petrone, 
 T. Henderson, D. Ranasinghe, V. G. Zakrzewski, J. Gao, N. Rega, 
 G. Zheng, W. Liang, M. Hada, M. Ehara, K. Toyota, R. Fukuda, 
 J. Hasegawa, M. Ishida, T. Nakajima, Y. Honda, O. Kitao, H. Nakai, 
 T. Vreven, K. Throssell, J. A. Montgomery, Jr., J. E. Peralta, 
 F. Ogliaro, M. J. Bearpark, J. J. Heyd, E. N. Brothers, K. N. Kudin, 
 V. N. Staroverov, T. A. Keith, R. Kobayashi, J. Normand, 
 K. Raghavachari, A. P. Rendell, J. C. Burant, S. S. Iyengar, 
 J. Tomasi, M. Cossi, J. M. Millam, M. Klene, C. Adamo, R. Cammi, 
 J. W. Ochterski, R. L. Martin, K. Morokuma, O. Farkas, 
 J. B. Foresman, and D. J. Fox, Gaussian, Inc., Wallingford CT, 2016.
 
 ******************************************
 Gaussian 16:  ES64L-G16RevA.03 25-Dec-2016
                18-Nov-2022 
 ******************************************
 %nprocs=8
 Will use up to    8 processors via shared memory.
 %mem=16000MB
 %chk=047_lig_c2.chk
 ----------------------------------------------------------------------
 #p pop=(regular,nbo,savenbos) freq=noraman def2svp empiricaldispersion
 =gd3bj output=wfx pbe1pbe
 ----------------------------------------------------------------------
 1/10=4,30=1,38=1/1,3;
 2/12=2,17=6,18=5,40=1/2;
 3/5=43,7=101,11=2,25=1,30=1,71=2,74=-13,124=41,140=1/1,2,3;
 4//1;
 5/5=2,38=5,98=1/2;
 8/6=4,10=90,11=11/1;
 11/6=1,8=1,9=11,15=111,16=1/1,2,10;
 10/6=1/2;
 6/28=1,40=1,73=1/1,7;
 7/8=1,10=1,25=1/1,2,3,16;
 1/10=4,30=1/3;
 99/6=200/99;
 Leave Link    1 at Fri Nov 18 09:55:57 2022, MaxMem=  2097152000 cpu:               0.4 elap:               0.4
 (Enter /software/gaussian/G16-A.03/avx2/g16/l101.exe)
 ----------
 047_lig_c2
 ----------
 Symbolic Z-matrix:
 Charge =  0 Multiplicity = 1
 C                    -0.50922   3.44063   0.96497 
 C                    -0.04569   2.50091  -0.16064 
 C                    -1.18125   1.63198  -0.59438 
 N                    -1.35639   0.38551  -0.38503 
 C                    -2.71382   0.03333  -0.81628 
 C                    -3.62359  -0.31329   0.38986 
 C                    -4.984    -0.73874  -0.16751 
 C                    -3.78704   0.88747   1.32323 
 C                    -3.02094  -1.48145   1.17375 
 C                    -3.12478   1.28268  -1.60965 
 O                    -2.16211   2.28143  -1.21507 
 C                     1.19412   1.76296   0.22838 
 N                     1.40161   0.50481   0.24515 
 C                     2.80798   0.27261   0.59398 
 C                     3.60905  -0.3152   -0.59431 
 C                     2.99689  -1.65194  -1.01798 
 C                     3.60615   0.64288  -1.78644 
 C                     5.04105  -0.55765  -0.11106 
 C                     3.25217   1.66916   1.05815 
 O                     2.20638   2.5451    0.59285 
 H                     0.29839   4.13669   1.22404 
 H                    -1.38719   4.01178   0.63731 
 H                    -0.77789   2.86134   1.86018 
 H                     0.22901   3.12597  -1.02843 
 H                    -2.63136  -0.85872  -1.45539 
 H                    -4.8811   -1.61368  -0.82802 
 H                    -5.47679   0.06503  -0.73814 
 H                    -5.66112  -1.01652   0.65434 
 H                    -4.43323   0.61852   2.1725 
 H                    -2.81693   1.19854   1.74074 
 H                    -4.24669   1.75705   0.82682 
 H                    -3.72323  -1.80646   1.95704 
 H                    -2.07954  -1.20674   1.67503 
 H                    -2.7977   -2.33658   0.51971 
 H                    -3.03639   1.14825  -2.69812 
 H                    -4.12549   1.66438  -1.37349 
 H                     2.81818  -0.46029   1.41511 
 H                     2.87476  -2.33233  -0.16265 
 H                     3.64203  -2.13763  -1.76652 
 H                     2.00329  -1.53329  -1.47741 
 H                     4.06091   1.61877  -1.55184 
 H                     2.58149   0.81532  -2.15108 
 H                     4.17849   0.20911  -2.6204 
 H                     5.05537  -1.2551    0.74099 
 H                     5.54717   0.37109   0.19813 
 H                     5.64275  -1.00254  -0.91793 
 H                     3.3017    1.76247   2.15326 
 H                     4.19899   2.01282   0.62414 
 
 ITRead=  0  0  0  0  0  0  0  0  0  0  0  0  0  0  0  0  0  0  0  0
 ITRead=  0  0  0  0  0  0  0  0  0  0  0  0  0  0  0  0  0  0  0  0
 ITRead=  0  0  0  0  0  0  0  0
 MicOpt= -1 -1 -1 -1 -1 -1 -1 -1 -1 -1 -1 -1 -1 -1 -1 -1 -1 -1 -1 -1
 MicOpt= -1 -1 -1 -1 -1 -1 -1 -1 -1 -1 -1 -1 -1 -1 -1 -1 -1 -1 -1 -1
 MicOpt= -1 -1 -1 -1 -1 -1 -1 -1
 NAtoms=     48 NQM=       48 NQMF=       0 NMMI=      0 NMMIF=      0
                NMic=       0 NMicF=      0.
                    Isotopes and Nuclear Properties:
 (Nuclear quadrupole moments (NQMom) in fm**2, nuclear magnetic moments (NMagM)
  in nuclear magnetons)

  Atom         1           2           3           4           5           6           7           8           9          10
 IAtWgt=          12          12          12          14          12          12          12          12          12          12
 AtmWgt=  12.0000000  12.0000000  12.0000000  14.0030740  12.0000000  12.0000000  12.0000000  12.0000000  12.0000000  12.0000000
 NucSpn=           0           0           0           2           0           0           0           0           0           0
 AtZEff=  -0.0000000  -0.0000000  -0.0000000  -0.0000000  -0.0000000  -0.0000000  -0.0000000  -0.0000000  -0.0000000  -0.0000000
 NQMom=    0.0000000   0.0000000   0.0000000   2.0440000   0.0000000   0.0000000   0.0000000   0.0000000   0.0000000   0.0000000
 NMagM=    0.0000000   0.0000000   0.0000000   0.4037610   0.0000000   0.0000000   0.0000000   0.0000000   0.0000000   0.0000000
 AtZNuc=   6.0000000   6.0000000   6.0000000   7.0000000   6.0000000   6.0000000   6.0000000   6.0000000   6.0000000   6.0000000

  Atom        11          12          13          14          15          16          17          18          19          20
 IAtWgt=          16          12          14          12          12          12          12          12          12          16
 AtmWgt=  15.9949146  12.0000000  14.0030740  12.0000000  12.0000000  12.0000000  12.0000000  12.0000000  12.0000000  15.9949146
 NucSpn=           0           0           2           0           0           0           0           0           0           0
 AtZEff=  -0.0000000  -0.0000000  -0.0000000  -0.0000000  -0.0000000  -0.0000000  -0.0000000  -0.0000000  -0.0000000  -0.0000000
 NQMom=    0.0000000   0.0000000   2.0440000   0.0000000   0.0000000   0.0000000   0.0000000   0.0000000   0.0000000   0.0000000
 NMagM=    0.0000000   0.0000000   0.4037610   0.0000000   0.0000000   0.0000000   0.0000000   0.0000000   0.0000000   0.0000000
 AtZNuc=   8.0000000   6.0000000   7.0000000   6.0000000   6.0000000   6.0000000   6.0000000   6.0000000   6.0000000   8.0000000

  Atom        21          22          23          24          25          26          27          28          29          30
 IAtWgt=           1           1           1           1           1           1           1           1           1           1
 AtmWgt=   1.0078250   1.0078250   1.0078250   1.0078250   1.0078250   1.0078250   1.0078250   1.0078250   1.0078250   1.0078250
 NucSpn=           1           1           1           1           1           1           1           1           1           1
 AtZEff=  -0.0000000  -0.0000000  -0.0000000  -0.0000000  -0.0000000  -0.0000000  -0.0000000  -0.0000000  -0.0000000  -0.0000000
 NQMom=    0.0000000   0.0000000   0.0000000   0.0000000   0.0000000   0.0000000   0.0000000   0.0000000   0.0000000   0.0000000
 NMagM=    2.7928460   2.7928460   2.7928460   2.7928460   2.7928460   2.7928460   2.7928460   2.7928460   2.7928460   2.7928460
 AtZNuc=   1.0000000   1.0000000   1.0000000   1.0000000   1.0000000   1.0000000   1.0000000   1.0000000   1.0000000   1.0000000

  Atom        31          32          33          34          35          36          37          38          39          40
 IAtWgt=           1           1           1           1           1           1           1           1           1           1
 AtmWgt=   1.0078250   1.0078250   1.0078250   1.0078250   1.0078250   1.0078250   1.0078250   1.0078250   1.0078250   1.0078250
 NucSpn=           1           1           1           1           1           1           1           1           1           1
 AtZEff=  -0.0000000  -0.0000000  -0.0000000  -0.0000000  -0.0000000  -0.0000000  -0.0000000  -0.0000000  -0.0000000  -0.0000000
 NQMom=    0.0000000   0.0000000   0.0000000   0.0000000   0.0000000   0.0000000   0.0000000   0.0000000   0.0000000   0.0000000
 NMagM=    2.7928460   2.7928460   2.7928460   2.7928460   2.7928460   2.7928460   2.7928460   2.7928460   2.7928460   2.7928460
 AtZNuc=   1.0000000   1.0000000   1.0000000   1.0000000   1.0000000   1.0000000   1.0000000   1.0000000   1.0000000   1.0000000

  Atom        41          42          43          44          45          46          47          48
 IAtWgt=           1           1           1           1           1           1           1           1
 AtmWgt=   1.0078250   1.0078250   1.0078250   1.0078250   1.0078250   1.0078250   1.0078250   1.0078250
 NucSpn=           1           1           1           1           1           1           1           1
 AtZEff=  -0.0000000  -0.0000000  -0.0000000  -0.0000000  -0.0000000  -0.0000000  -0.0000000  -0.0000000
 NQMom=    0.0000000   0.0000000   0.0000000   0.0000000   0.0000000   0.0000000   0.0000000   0.0000000
 NMagM=    2.7928460   2.7928460   2.7928460   2.7928460   2.7928460   2.7928460   2.7928460   2.7928460
 AtZNuc=   1.0000000   1.0000000   1.0000000   1.0000000   1.0000000   1.0000000   1.0000000   1.0000000
 Leave Link  101 at Fri Nov 18 09:55:58 2022, MaxMem=  2097152000 cpu:               1.3 elap:               0.2
 (Enter /software/gaussian/G16-A.03/avx2/g16/l103.exe)

 GradGradGradGradGradGradGradGradGradGradGradGradGradGradGradGradGradGrad
 Berny optimization.
 Initialization pass.
 Trust Radius=3.00D-01 FncErr=1.00D-07 GrdErr=1.00D-07 EigMax=2.50D+02 EigMin=1.00D-04
 Number of steps in this run=      2 maximum allowed number of steps=      2.
 GradGradGradGradGradGradGradGradGradGradGradGradGradGradGradGradGradGrad

 Leave Link  103 at Fri Nov 18 09:55:58 2022, MaxMem=  2097152000 cpu:               0.1 elap:               0.0
 (Enter /software/gaussian/G16-A.03/avx2/g16/l202.exe)
                          Input orientation:                          
 ---------------------------------------------------------------------
 Center     Atomic      Atomic             Coordinates (Angstroms)
 Number     Number       Type             X           Y           Z
 ---------------------------------------------------------------------
      1          6           0       -0.509220    3.440630    0.964970
      2          6           0       -0.045690    2.500910   -0.160640
      3          6           0       -1.181250    1.631980   -0.594380
      4          7           0       -1.356390    0.385510   -0.385030
      5          6           0       -2.713820    0.033330   -0.816280
      6          6           0       -3.623590   -0.313290    0.389860
      7          6           0       -4.984000   -0.738740   -0.167510
      8          6           0       -3.787040    0.887470    1.323230
      9          6           0       -3.020940   -1.481450    1.173750
     10          6           0       -3.124780    1.282680   -1.609650
     11          8           0       -2.162110    2.281430   -1.215070
     12          6           0        1.194120    1.762960    0.228380
     13          7           0        1.401610    0.504810    0.245150
     14          6           0        2.807980    0.272610    0.593980
     15          6           0        3.609050   -0.315200   -0.594310
     16          6           0        2.996890   -1.651940   -1.017980
     17          6           0        3.606150    0.642880   -1.786440
     18          6           0        5.041050   -0.557650   -0.111060
     19          6           0        3.252170    1.669160    1.058150
     20          8           0        2.206380    2.545100    0.592850
     21          1           0        0.298390    4.136690    1.224040
     22          1           0       -1.387190    4.011780    0.637310
     23          1           0       -0.777890    2.861340    1.860180
     24          1           0        0.229010    3.125970   -1.028430
     25          1           0       -2.631360   -0.858720   -1.455390
     26          1           0       -4.881100   -1.613680   -0.828020
     27          1           0       -5.476790    0.065030   -0.738140
     28          1           0       -5.661120   -1.016520    0.654340
     29          1           0       -4.433230    0.618520    2.172500
     30          1           0       -2.816930    1.198540    1.740740
     31          1           0       -4.246690    1.757050    0.826820
     32          1           0       -3.723230   -1.806460    1.957040
     33          1           0       -2.079540   -1.206740    1.675030
     34          1           0       -2.797700   -2.336580    0.519710
     35          1           0       -3.036390    1.148250   -2.698120
     36          1           0       -4.125490    1.664380   -1.373490
     37          1           0        2.818180   -0.460290    1.415110
     38          1           0        2.874760   -2.332330   -0.162650
     39          1           0        3.642030   -2.137630   -1.766520
     40          1           0        2.003290   -1.533290   -1.477410
     41          1           0        4.060910    1.618770   -1.551840
     42          1           0        2.581490    0.815320   -2.151080
     43          1           0        4.178490    0.209110   -2.620400
     44          1           0        5.055370   -1.255100    0.740990
     45          1           0        5.547170    0.371090    0.198130
     46          1           0        5.642750   -1.002540   -0.917930
     47          1           0        3.301700    1.762470    2.153260
     48          1           0        4.198990    2.012820    0.624140
 ---------------------------------------------------------------------
                    Distance matrix (angstroms):
                    1          2          3          4          5
     1  C    0.000000
     2  C    1.537833   0.000000
     3  C    2.480809   1.494211   0.000000
     4  N    3.445861   2.498640   1.276005   0.000000
     5  C    4.432021   3.692930   2.225689   1.467182   0.000000
     6  C    4.911412   4.585209   3.273809   2.495791   1.550032
     7  C    6.226821   5.906123   4.501493   3.804051   2.484092
     8  C    4.170261   4.336215   3.319889   3.013001   2.541429
     9  C    5.529846   5.147028   4.025443   2.947212   2.519742
    10  C    4.257531   3.614486   2.220381   2.330625   1.535969
    11  O    2.971256   2.374706   1.330086   2.220960   2.348908
    12  C    2.501701   1.494335   2.517235   2.962894   4.399424
    13  N    3.576094   2.498751   2.940491   2.831594   4.276177
    14  C    4.601934   3.698406   4.378817   4.279391   5.704066
    15  C    5.787725   4.634185   5.170927   5.019003   6.336358
    16  C    6.493009   5.219050   5.331081   4.847976   5.957602
    17  C    5.686293   4.408110   5.031752   5.163041   6.422989
    18  C    6.924564   5.935669   6.614007   6.472391   7.809264
    19  C    4.158707   3.612913   4.731538   4.996934   6.463936
    20  O    2.883562   2.375188   3.703963   4.279417   5.701141
    21  H    1.097201   2.170600   3.430679   4.404402   5.483966
    22  H    1.097454   2.172343   2.687549   3.767753   4.438574
    23  H    1.099619   2.179390   2.774687   3.391956   4.348437
    24  H    2.148869   1.104183   2.099819   3.230724   4.274304
    25  H    5.370850   4.432740   3.007947   2.078299   1.100461
    26  H    6.919118   6.384077   4.927249   4.076344   2.722110
    27  H    6.242757   5.980290   4.574676   4.147902   2.764256
    28  H    6.819439   6.676044   5.351924   4.645070   3.457092
    29  H    4.981996   5.313891   4.388405   4.007767   3.497374
    30  H    3.309730   3.604329   2.883766   2.704273   2.811885
    31  H    4.101489   4.379133   3.381179   3.421043   2.832080
    32  H    6.232657   6.046677   4.979385   3.986472   3.477792
    33  H    4.956626   4.610087   3.743725   2.702231   2.854244
    34  H    6.229892   5.606937   4.427593   3.210250   2.721834
    35  H    5.005979   4.148829   2.846271   2.958810   2.210977
    36  H    4.658419   4.337690   3.045753   3.206318   2.227918
    37  H    5.146979   4.410606   4.940757   4.624167   5.985465
    38  H    6.786009   5.647056   5.688002   5.033760   6.103753
    39  H    7.470669   6.139559   6.232808   5.767058   6.783277
    40  H    6.084226   4.712427   4.576021   4.020266   5.014232
    41  H    5.526264   4.424678   5.328897   5.677104   6.996545
    42  H    5.114148   3.702045   4.153127   4.337115   5.516657
    43  H    6.728464   5.398746   5.903908   5.971842   7.126688
    44  H    7.284553   6.398544   7.000991   6.713433   8.027793
    45  H    6.833007   5.995409   6.891266   6.928162   8.329890
    46  H    7.818811   6.723541   7.322046   7.155322   8.421141
    47  H    4.330285   4.135752   5.259600   5.480578   6.927812
    48  H    4.931739   4.344125   5.529630   5.876122   7.333494
                    6          7          8          9         10
     6  C    0.000000
     7  C    1.530485   0.000000
     8  C    1.529614   2.509896   0.000000
     9  C    1.530447   2.490823   2.494200   0.000000
    10  C    2.606525   3.102032   3.032584   3.924094   0.000000
    11  O    3.382942   4.264021   3.320616   4.539088   1.442196
    12  C    5.248545   6.677155   5.174663   5.402467   4.718254
    13  N    5.093414   6.518644   5.313264   4.936241   4.953138
    14  C    6.461427   7.894153   6.663644   6.114668   6.408890
    15  C    7.299293   8.614061   7.734696   6.960096   6.994898
    16  C    6.899620   8.077861   7.612593   6.406795   6.814463
    17  C    7.610498   8.849886   8.024284   7.562660   6.763580
    18  C    8.682547  10.026844   9.059842   8.215828   8.503727
    19  C    7.186988   8.668029   7.087438   7.020799   6.923295
    20  O    6.496164   7.941242   6.261172   6.623853   5.904742
    21  H    5.990000   7.321876   5.220920   6.525640   5.281407
    22  H    4.875341   6.012671   3.998885   5.756082   3.939040
    23  H    4.509781   5.896055   3.638607   4.935816   4.476581
    24  H    5.355612   6.546193   5.164285   6.053106   3.870845
    25  H    2.164939   2.684762   3.479297   2.729825   2.202919
    26  H    2.180729   1.101082   3.475715   2.735830   3.476278
    27  H    2.202240   1.102047   2.789428   3.475359   2.788217
    28  H    2.171638   1.100496   2.754046   2.730659   4.104265
    29  H    2.168316   2.760643   1.100525   2.720650   4.056822
    30  H    2.182019   3.477163   1.100996   2.746897   3.365556
    31  H    2.205787   2.785908   1.101758   3.480044   2.723985
    32  H    2.166919   2.691334   2.768221   1.101084   4.756281
    33  H    2.198637   3.471292   2.724892   1.101354   4.251924
    34  H    2.189214   2.793792   3.466834   1.099478   4.211911
    35  H    3.466486   3.709165   4.099114   4.680485   1.100296
    36  H    2.696755   2.822483   2.826736   4.195797   1.096762
    37  H    6.524504   7.965942   6.741946   5.932651   6.892452
    38  H    6.827177   8.018707   7.546823   6.104854   7.152383
    39  H    7.795346   8.883812   8.595863   7.312382   7.583722
    40  H    6.052840   7.153277   6.872524   5.681041   5.851861
    41  H    8.158100   9.449054   8.389943   8.197122   7.193778
    42  H    6.799497   7.974101   7.254944   6.907740   5.750921
    43  H    8.378963   9.532382   8.914149   8.311760   7.450632
    44  H    8.736970  10.093609   9.116898   8.091063   8.881480
    45  H    9.198259  10.595799   9.415943   8.820218   8.905155
    46  H    9.383519  10.656479   9.875013   8.925469   9.086820
    47  H    7.441640   8.960739   7.190606   7.173439   7.462529
    48  H    8.164462   9.618997   8.095172   8.039862   7.691588
                   11         12         13         14         15
    11  O    0.000000
    12  C    3.690073   0.000000
    13  N    4.241311   1.275255   0.000000
    14  C    5.657722   2.226960   1.467473   0.000000
    15  C    6.358783   3.290510   2.499980   1.548957   0.000000
    16  C    6.490418   4.057701   2.965128   2.517537   1.530069
    17  C    6.023631   3.336460   3.001069   2.537829   1.529412
    18  C    7.820788   4.505477   3.808048   2.484555   1.530665
    19  C    5.903967   2.221010   2.332649   1.537241   2.606851
    20  O    4.735166   1.330132   2.220661   2.350773   3.399728
    21  H    3.930052   2.725484   3.919933   4.650391   5.838338
    22  H    2.650646   3.447836   4.497781   5.619851   6.723248
    23  H    3.421918   2.785325   3.593296   4.600353   5.946442
    24  H    2.542742   2.090169   3.141254   4.174322   4.843014
    25  H    3.184100   4.933820   4.584310   5.921676   6.322942
    26  H    4.765983   7.030361   6.716557   8.043763   8.592050
    27  H    4.015843   6.951127   6.962230   8.393750   9.094930
    28  H    5.158899   7.409539   7.236300   8.566864   9.380140
    29  H    4.404417   6.062707   6.145972   7.419333   8.556012
    30  H    3.215315   4.323693   4.529253   5.814810   7.002649
    31  H    2.964753   5.473626   5.814614   7.212915   8.247817
    32  H    5.404648   6.317385   5.876778   6.988360   7.905414
    33  H    4.530654   4.650674   4.134291   5.219674   6.189087
    34  H    4.973877   5.729374   5.077705   6.183610   6.809806
    35  H    2.061043   5.180684   5.364019   6.764712   7.122470
    36  H    2.064148   5.556434   5.874813   7.340366   8.021781
    37  H    6.264037   2.998123   2.075306   1.100682   2.164323
    38  H    6.911181   4.443968   3.222706   2.713422   2.189595
    39  H    7.315752   5.018615   4.006094   3.475177   2.167121
    40  H    5.654332   3.798650   2.735523   2.863469   2.200471
    41  H    6.267257   3.377641   3.397345   2.826044   2.204831
    42  H    5.052458   2.912842   2.688950   2.807345   2.181167
    43  H    6.817087   4.408680   4.001235   3.494935   2.168918
    44  H    8.271955   4.927546   4.085719   2.721447   2.181348
    45  H    8.067189   4.570258   4.147983   2.769397   2.203466
    46  H    8.472815   5.362120   4.648885   3.456559   2.170968
    47  H    6.439580   2.854305   2.972025   2.212419   3.458369
    48  H    6.627099   3.041102   3.200478   2.228037   2.693014
                   16         17         18         19         20
    16  C    0.000000
    17  C    2.495582   0.000000
    18  C    2.489692   2.511396   0.000000
    19  C    3.924944   3.044708   3.086394   0.000000
    20  O    4.564518   3.352435   4.261209   1.441337   0.000000
    21  H    6.768810   5.675471   6.805303   3.852407   2.563588
    22  H    7.351045   6.492880   7.922248   5.214272   3.881607
    23  H    6.549997   6.118759   7.031027   4.278543   3.257607
    24  H    5.521747   4.259741   6.129140   3.951659   2.622203
    25  H    5.700677   6.424245   7.795110   6.879243   6.259793
    26  H    7.880373   8.834254  10.003914   8.971330   8.339466
    27  H    8.650407   9.161476  10.554900   9.055089   8.182505
    28  H    8.840902   9.725909  10.739313   9.317869   8.636346
    29  H    8.398859   8.961330   9.816313   7.836517   7.091645
    30  H    7.038201   7.348858   8.262035   6.125470   5.325835
    31  H    8.215470   8.350904   9.617670   7.502942   6.505219
    32  H    7.350825   8.586776   9.091159   7.845008   7.480465
    33  H    5.763736   6.908686   7.369819   6.089210   5.797976
    34  H    6.034111   7.429994   8.062783   7.275768   6.991206
    35  H    6.860350   6.723831   8.651475   7.343494   6.345732
    36  H    7.864646   7.809753   9.516123   7.768060   6.688403
    37  H    2.715123   3.476752   2.698115   2.202345   3.175339
    38  H    1.099743   3.467492   2.800886   4.200561   4.980646
    39  H    1.101096   2.780813   2.682190   4.756301   5.436513
    40  H    1.101088   2.720363   3.470846   4.271352   4.578262
    41  H    3.480616   1.101910   2.788068   2.732883   2.982795
    42  H    2.746606   1.101193   3.477954   3.387921   3.265272
    43  H    2.725332   1.100554   2.762013   4.064670   4.435205
    44  H    2.736567   3.477135   1.101195   3.450133   4.751864
    45  H    3.474982   2.789256   1.101959   2.773382   4.005372
    46  H    2.726226   2.758524   1.100459   4.093623   5.164963
    47  H    4.669889   4.106995   3.679054   1.100194   2.060853
    48  H    4.191905   2.835329   2.803016   1.096784   2.062716
                   21         22         23         24         25
    21  H    0.000000
    22  H    1.789144   0.000000
    23  H    1.785937   1.786105   0.000000
    24  H    2.469816   2.484241   3.070496   0.000000
    25  H    6.380980   5.445101   5.316691   4.923593   0.000000
    26  H    8.006549   6.782359   6.639921   6.972637   2.454565
    27  H    7.333571   5.847523   6.053947   6.481495   3.076399
    28  H    7.899107   6.599285   6.351203   7.394969   3.695309
    29  H    5.972045   4.811380   4.299918   6.186254   4.311677
    30  H    4.313342   3.343058   2.633791   4.545442   3.805523
    31  H    5.145699   3.646431   3.784159   5.034658   3.828841
    32  H    7.213304   6.407081   5.520214   6.990143   3.706085
    33  H    5.866020   5.365553   4.275260   5.604505   3.197679
    34  H    7.210068   6.504233   5.735404   6.434063   2.472399
    35  H    5.952720   4.695185   5.367830   4.166783   2.395069
    36  H    5.694751   4.129393   4.805805   4.606190   2.933456
    37  H    5.245767   6.187853   4.915591   5.053311   6.172196
    38  H    7.099916   7.684522   6.663925   6.127202   5.844661
    39  H    7.713006   8.299801   7.594626   6.316563   6.409979
    40  H    6.507933   6.834852   6.179583   5.005832   4.683536
    41  H    5.310554   6.340400   6.049781   4.150791   7.136788
    42  H    5.256946   5.808864   5.617992   3.483333   5.519076
    43  H    6.727613   7.486639   7.188576   5.161476   6.990820
    44  H    7.206497   8.322100   7.226658   6.754137   8.004188
    45  H    6.540789   7.844288   6.997867   6.113644   8.434152
    46  H    7.717636   8.773952   7.992001   6.809213   8.292795
    47  H    3.939574   5.416935   4.235146   4.628575   7.422546
    48  H    4.481672   5.933079   5.197799   4.441940   7.695705
                   26         27         28         29         30
    26  H    0.000000
    27  H    1.783534   0.000000
    28  H    1.778320   1.772774   0.000000
    29  H    3.766487   3.141209   2.546739   0.000000
    30  H    4.332194   3.808483   3.765126   1.770668   0.000000
    31  H    3.808253   2.612504   3.118181   1.772541   1.786448
    32  H    3.022315   3.720409   2.465046   2.535952   3.146139
    33  H    3.778836   4.356845   3.729036   3.019753   2.516631
    34  H    2.584476   3.811488   3.155924   3.760225   3.740101
    35  H    3.811625   3.312165   4.776445   5.094577   4.444566
    36  H    3.407956   2.188059   3.695603   3.709794   3.409951
    37  H    8.101904   8.585975   8.531512   7.370239   5.883215
    38  H    7.817451   8.707865   8.675257   8.219925   6.963137
    39  H    8.590637   9.437275   9.678122   9.397982   8.071497
    40  H    6.915417   7.684578   7.972113   7.705902   6.407332
    41  H    9.535837   9.697625  10.311637   9.328538   7.636908
    42  H    7.958692   8.215547   8.897564   8.242474   6.666038
    43  H    9.413361   9.838094  10.442414   9.864138   8.302675
    44  H   10.065973  10.717134  10.719496   9.777178   8.306200
    45  H   10.664948  11.067880  11.303068  10.176824   8.545320
    46  H   10.541964  11.172117  11.412699  10.663206   9.136710
    47  H    9.340484   9.396988   9.502720   7.819088   6.158395
    48  H    9.884751   9.963454  10.315017   8.880130   7.150733
                   31         32         33         34         35
    31  H    0.000000
    32  H    3.774919   0.000000
    33  H    3.768295   1.772261   0.000000
    34  H    4.353354   1.789847   1.768349   0.000000
    35  H    3.776330   5.556309   5.058259   4.749257   0.000000
    36  H    2.205593   4.827108   4.660763   4.621138   1.790858
    37  H    7.427992   6.700441   4.961089   5.988348   7.333625
    38  H    8.271465   6.950043   5.402695   5.713356   7.313326
    39  H    9.172014   8.259638   6.741453   6.836414   7.501079
    40  H    7.429540   6.683046   5.168560   5.261489   5.837736
    41  H    8.642532   9.199852   7.490082   8.183926   7.204652
    42  H    7.508581   7.968681   6.360271   6.782572   5.654261
    43  H    9.233802   9.351613   7.721288   8.062757   7.276161
    44  H    9.777972   8.879560   7.195951   7.930276   9.114831
    45  H    9.911399   9.683791   7.927010   8.779052   9.092290
    46  H   10.414438   9.830225   8.148552   8.665314   9.117151
    47  H    7.664050   7.881967   6.164629   7.528172   8.005282
    48  H    8.451982   8.895229   7.133714   8.239045   8.008472
                   36         37         38         39         40
    36  H    0.000000
    37  H    7.778500   0.000000
    38  H    8.151277   2.448890   0.000000
    39  H    8.657027   3.689847   1.788578   0.000000
    40  H    6.913598   3.190932   1.768196   1.770390   0.000000
    41  H    8.188470   3.830099   4.352929   3.785775   3.764946
    42  H    6.805081   3.794854   3.734643   3.161099   2.510800
    43  H    8.522246   4.310903   3.768178   2.554230   3.012288
    44  H    9.863193   2.468032   2.594619   3.010647   3.783369
    45  H    9.884480   3.101551   3.818431   3.712558   4.358117
    46  H   10.136001   3.703418   3.162366   2.451819   3.720266
    47  H    8.222575   2.391510   4.723675   5.539971   5.072442
    48  H    8.567900   2.940841   4.610092   4.822001   4.670386
                   41         42         43         44         45
    41  H    0.000000
    42  H    1.786982   0.000000
    43  H    1.772791   1.771485   0.000000
    44  H    3.808563   4.332527   3.769850   0.000000
    45  H    2.613057   3.809381   3.137457   1.783552   0.000000
    46  H    3.126552   3.767836   2.551579   1.777869   1.772452
    47  H    3.784814   4.465774   5.096030   3.765049   3.286428
    48  H    2.215678   3.428142   3.712254   3.380287   2.166645
                   46         47         48
    46  H    0.000000
    47  H    4.749527   0.000000
    48  H    3.681687   1.790534   0.000000
 Stoichiometry    C16H28N2O2
 Framework group  C1[X(C16H28N2O2)]
 Deg. of freedom   138
 Full point group                 C1      NOp   1
 Largest Abelian subgroup         C1      NOp   1
 Largest concise Abelian subgroup C1      NOp   1
                         Standard orientation:                         
 ---------------------------------------------------------------------
 Center     Atomic      Atomic             Coordinates (Angstroms)
 Number     Number       Type             X           Y           Z
 ---------------------------------------------------------------------
      1          6           0        0.509793    2.848474   -0.655190
      2          6           0        0.011946    1.766138    0.317245
      3          6           0        1.135251    0.845344    0.667945
      4          7           0        1.321535   -0.361731    0.298546
      5          6           0        2.664918   -0.770416    0.723897
      6          6           0        3.615809   -0.952344   -0.486602
      7          6           0        4.958187   -1.450634    0.053872
      8          6           0        3.806413    0.363085   -1.243594
      9          6           0        3.043755   -2.003466   -1.440628
     10          6           0        3.044797    0.360102    1.691793
     11          8           0        2.092531    1.404050    1.403194
     12          6           0       -1.211609    1.088814   -0.209234
     13          7           0       -1.414159   -0.155349   -0.402388
     14          6           0       -2.807240   -0.336763   -0.826521
     15          6           0       -3.645730   -1.078456    0.244036
     16          6           0       -3.043605   -2.460821    0.504081
     17          6           0       -3.686070   -0.289828    1.553821
     18          6           0       -5.059882   -1.251877   -0.315459
     19          6           0       -3.240334    1.110129   -1.112953
     20          8           0       -2.213714    1.914128   -0.498877
     21          1           0       -0.291023    3.574047   -0.845159
     22          1           0        1.374338    3.369215   -0.224149
     23          1           0        0.810305    2.394835   -1.610734
     24          1           0       -0.293827    2.268833    1.251600
     25          1           0        2.564084   -1.740380    1.233815
     26          1           0        4.836148   -2.406506    0.586599
     27          1           0        5.428831   -0.731699    0.743896
     28          1           0        5.663434   -1.615882   -0.774626
     29          1           0        4.481639    0.210319   -2.099099
     30          1           0        2.849809    0.728730   -1.647826
     31          1           0        4.246204    1.157273   -0.619318
     32          1           0        3.773025   -2.220740   -2.236457
     33          1           0        2.118778   -1.662590   -1.931750
     34          1           0        2.801595   -2.938696   -0.915694
     35          1           0        2.920396    0.080273    2.748614
     36          1           0        4.051569    0.768983    1.543085
     37          1           0       -2.787405   -0.952271   -1.738803
     38          1           0       -2.890546   -3.019842   -0.430533
     39          1           0       -3.711846   -3.042229    1.158169
     40          1           0       -2.066385   -2.406347    1.008530
     41          1           0       -4.136005    0.709310    1.437687
     42          1           0       -2.674809   -0.169313    1.972694
     43          1           0       -4.284594   -0.831389    2.301951
     44          1           0       -5.043247   -1.828086   -1.253723
     45          1           0       -5.558486   -0.289344   -0.513545
     46          1           0       -5.686803   -1.800772    0.403355
     47          1           0       -3.253412    1.350269   -2.186540
     48          1           0       -4.202339    1.393252   -0.668745
 ---------------------------------------------------------------------
 Rotational constants (GHZ):           0.6129221           0.1821004           0.1635025
 Leave Link  202 at Fri Nov 18 09:55:58 2022, MaxMem=  2097152000 cpu:               0.0 elap:               0.0
 (Enter /software/gaussian/G16-A.03/avx2/g16/l301.exe)
 Standard basis: def2SVP (5D, 7F)
 Ernie: Thresh=  0.10000D-02 Tol=  0.10000D-05 Strict=F.
 There are   440 symmetry adapted cartesian basis functions of A   symmetry.
 There are   420 symmetry adapted basis functions of A   symmetry.
   420 basis functions,   696 primitive gaussians,   440 cartesian basis functions
    77 alpha electrons       77 beta electrons
       nuclear repulsion energy      1713.7879360151 Hartrees.
 IExCor= 1009 DFT=T Ex+Corr=PBE1PBE ExCW=0 ScaHFX=  0.250000
 ScaDFX=  0.750000  0.750000  1.000000  1.000000 ScalE2=  1.000000  1.000000
 IRadAn=      5 IRanWt=     -1 IRanGd=            0 ICorTp=0 IEmpDi=141
 NAtoms=   48 NActive=   48 NUniq=   48 SFac= 1.00D+00 NAtFMM=   60 NAOKFM=F Big=F
 Integral buffers will be    131072 words long.
 Raffenetti 2 integral format.
 Two-electron integral symmetry is turned on.
 R6Disp:  Grimme-D3(BJ) Dispersion energy=       -0.0499068369 Hartrees.
 Nuclear repulsion after empirical dispersion term =     1713.7380291782 Hartrees.
 Leave Link  301 at Fri Nov 18 09:55:58 2022, MaxMem=  2097152000 cpu:               0.4 elap:               0.1
 (Enter /software/gaussian/G16-A.03/avx2/g16/l302.exe)
 NPDir=0 NMtPBC=     1 NCelOv=     1 NCel=       1 NClECP=     1 NCelD=      1
         NCelK=      1 NCelE2=     1 NClLst=     1 CellRange=     0.0.
 One-electron integrals computed using PRISM.
 One-electron integral symmetry used in STVInt
   1 Symmetry operations used in ECPInt.
 ECPInt:  NShTT=   20910 NPrTT=   72734 LenC2=   18702 LenP2D=   45923.
 LDataN:  DoStor=T MaxTD1= 4 Len=   56
 NBasis=   420 RedAO= T EigKep=  6.95D-04  NBF=   420
 NBsUse=   420 1.00D-06 EigRej= -1.00D+00 NBFU=   420
 Precomputing XC quadrature grid using
 IXCGrd= 4 IRadAn=           5 IRanWt=          -1 IRanGd=           0 AccXCQ= 0.00D+00.
 Generated NRdTot=       0 NPtTot=           0 NUsed=           0 NTot=          32
 NSgBfM=   436   436   436   436   436 MxSgAt=    48 MxSgA2=    48.
 Leave Link  302 at Fri Nov 18 09:55:59 2022, MaxMem=  2097152000 cpu:               4.3 elap:               0.5
 (Enter /software/gaussian/G16-A.03/avx2/g16/l303.exe)
 DipDrv:  MaxL=1.
 Leave Link  303 at Fri Nov 18 09:55:59 2022, MaxMem=  2097152000 cpu:               0.5 elap:               0.1
 (Enter /software/gaussian/G16-A.03/avx2/g16/l401.exe)
 ExpMin= 1.22D-01 ExpMax= 2.27D+03 ExpMxC= 3.41D+02 IAcc=3 IRadAn=         5 AccDes= 0.00D+00
 Harris functional with IExCor= 1009 and IRadAn=       5 diagonalized for initial guess.
 HarFok:  IExCor= 1009 AccDes= 0.00D+00 IRadAn=         5 IDoV= 1 UseB2=F ITyADJ=14
 ICtDFT=  3500011 ScaDFX=  1.000000  1.000000  1.000000  1.000000
 FoFCou: FMM=F IPFlag=           0 FMFlag=      100000 FMFlg1=           0
         NFxFlg=           0 DoJE=T BraDBF=F KetDBF=T FulRan=T
         wScrn=  0.000000 ICntrl=       500 IOpCl=  0 I1Cent=   200000004 NGrid=           0
         NMat0=    1 NMatS0=      1 NMatT0=    0 NMatD0=    1 NMtDS0=    0 NMtDT0=    0
 Petite list used in FoFCou.
 Harris En= -885.143272358619    
 JPrj=0 DoOrth=F DoCkMO=F.
 Leave Link  401 at Fri Nov 18 09:56:02 2022, MaxMem=  2097152000 cpu:              18.7 elap:               2.4
 (Enter /software/gaussian/G16-A.03/avx2/g16/l502.exe)
 Integral symmetry usage will be decided dynamically.
 Closed shell SCF:
 Using DIIS extrapolation, IDIIS=  1040.
 NGot=  2097152000 LenX=  2096756356 LenY=  2096562315
 Requested convergence on RMS density matrix=1.00D-08 within 128 cycles.
 Requested convergence on MAX density matrix=1.00D-06.
 Requested convergence on             energy=1.00D-06.
 No special actions if energy rises.
 Fock matrices will be formed incrementally for  20 cycles.
 Integral accuracy reduced to 1.0D-05 until final iterations.

 Cycle   1  Pass 0  IDiag  1:
 FoFJK:  IHMeth= 1 ICntrl=       0 DoSepK=F KAlg= 0 I1Cent=           0 FoldK=F
 IRaf= 820000000 NMat=       1 IRICut=       1 DoRegI=T DoRafI=F ISym2E= 0 IDoP0=0 IntGTp=1.
 FoFCou: FMM=F IPFlag=           0 FMFlag=      100000 FMFlg1=           0
         NFxFlg=           0 DoJE=F BraDBF=F KetDBF=F FulRan=T
         wScrn=  0.000000 ICntrl=         0 IOpCl=  0 I1Cent=           0 NGrid=           0
         NMat0=    1 NMatS0=      1 NMatT0=    0 NMatD0=    1 NMtDS0=    0 NMtDT0=    0
 Symmetry not used in FoFCou.
 E= -884.375314040012    
 DIIS: error= 2.42D-02 at cycle   1 NSaved=   1.
 NSaved= 1 IEnMin= 1 EnMin= -884.375314040012     IErMin= 1 ErrMin= 2.42D-02
 ErrMax= 2.42D-02  0.00D+00 EMaxC= 1.00D-01 BMatC= 4.75D-01 BMatP= 4.75D-01
 IDIUse=3 WtCom= 7.58D-01 WtEn= 2.42D-01
 Coeff-Com:  0.100D+01
 Coeff-En:   0.100D+01
 Coeff:      0.100D+01
 Gap=     0.248 Goal=   None    Shift=    0.000
 GapD=    0.248 DampG=1.000 DampE=0.500 DampFc=0.5000 IDamp=-1.
 Damping current iteration by 5.00D-01
 RMSDP=4.41D-03 MaxDP=1.85D-01              OVMax= 2.34D-01

 Cycle   2  Pass 0  IDiag  1:
 RMSU=  2.19D-03    CP:  9.84D-01
 E= -884.582304947637     Delta-E=       -0.206990907625 Rises=F Damp=T
 DIIS: error= 6.51D-03 at cycle   2 NSaved=   2.
 NSaved= 2 IEnMin= 2 EnMin= -884.582304947637     IErMin= 2 ErrMin= 6.51D-03
 ErrMax= 6.51D-03  0.00D+00 EMaxC= 1.00D-01 BMatC= 3.93D-02 BMatP= 4.75D-01
 IDIUse=3 WtCom= 9.35D-01 WtEn= 6.51D-02
 Coeff-Com:  0.109D+00 0.891D+00
 Coeff-En:   0.181D+00 0.819D+00
 Coeff:      0.114D+00 0.886D+00
 Gap=     0.309 Goal=   None    Shift=    0.000
 RMSDP=1.44D-03 MaxDP=5.04D-02 DE=-2.07D-01 OVMax= 2.17D-01

 Cycle   3  Pass 0  IDiag  1:
 RMSU=  1.31D-03    CP:  9.79D-01  7.34D-01
 E= -884.836703876739     Delta-E=       -0.254398929102 Rises=F Damp=F
 DIIS: error= 1.19D-02 at cycle   3 NSaved=   3.
 NSaved= 3 IEnMin= 3 EnMin= -884.836703876739     IErMin= 2 ErrMin= 6.51D-03
 ErrMax= 1.19D-02  0.00D+00 EMaxC= 1.00D-01 BMatC= 5.34D-02 BMatP= 3.93D-02
 IDIUse=2 WtCom= 0.00D+00 WtEn= 1.00D+00
 Coeff-En:   0.000D+00 0.000D+00 0.100D+01
 Coeff:      0.000D+00 0.000D+00 0.100D+01
 Gap=     0.258 Goal=   None    Shift=    0.000
 RMSDP=2.02D-03 MaxDP=9.95D-02 DE=-2.54D-01 OVMax= 2.16D-01

 Cycle   4  Pass 0  IDiag  1:
 RMSU=  1.14D-03    CP:  9.85D-01  1.19D+00 -1.00D-02
 E= -884.647666431947     Delta-E=        0.189037444792 Rises=F Damp=F
 DIIS: error= 2.47D-02 at cycle   4 NSaved=   4.
 NSaved= 4 IEnMin= 3 EnMin= -884.836703876739     IErMin= 2 ErrMin= 6.51D-03
 ErrMax= 2.47D-02  0.00D+00 EMaxC= 1.00D-01 BMatC= 2.64D-01 BMatP= 3.93D-02
 IDIUse=2 WtCom= 0.00D+00 WtEn= 1.00D+00
 Coeff-En:   0.000D+00 0.000D+00 0.777D+00 0.223D+00
 Coeff:      0.000D+00 0.000D+00 0.777D+00 0.223D+00
 Gap=     0.254 Goal=   None    Shift=    0.000
 RMSDP=1.09D-03 MaxDP=6.31D-02 DE= 1.89D-01 OVMax= 1.15D-01

 Cycle   5  Pass 0  IDiag  1:
 RMSU=  1.73D-04    CP:  9.82D-01  9.19D-01  4.83D-01  4.66D-01
 E= -884.868943272830     Delta-E=       -0.221276840884 Rises=F Damp=F
 DIIS: error= 6.67D-03 at cycle   5 NSaved=   5.
 NSaved= 5 IEnMin= 5 EnMin= -884.868943272830     IErMin= 2 ErrMin= 6.51D-03
 ErrMax= 6.67D-03  0.00D+00 EMaxC= 1.00D-01 BMatC= 1.83D-02 BMatP= 3.93D-02
 IDIUse=3 WtCom= 9.33D-01 WtEn= 6.67D-02
 Coeff-Com: -0.183D-02 0.132D-01 0.292D+00-0.767D-01 0.773D+00
 Coeff-En:   0.000D+00 0.000D+00 0.301D+00 0.000D+00 0.699D+00
 Coeff:     -0.171D-02 0.123D-01 0.293D+00-0.715D-01 0.768D+00
 Gap=     0.271 Goal=   None    Shift=    0.000
 RMSDP=3.62D-04 MaxDP=1.77D-02 DE=-2.21D-01 OVMax= 3.98D-02

 Cycle   6  Pass 0  IDiag  1:
 RMSU=  3.89D-05    CP:  9.81D-01  8.41D-01  6.68D-01  2.90D-01  8.24D-01
 E= -884.885271937277     Delta-E=       -0.016328664447 Rises=F Damp=F
 DIIS: error= 2.32D-04 at cycle   6 NSaved=   6.
 NSaved= 6 IEnMin= 6 EnMin= -884.885271937277     IErMin= 6 ErrMin= 2.32D-04
 ErrMax= 2.32D-04  0.00D+00 EMaxC= 1.00D-01 BMatC= 4.13D-05 BMatP= 1.83D-02
 IDIUse=3 WtCom= 9.98D-01 WtEn= 2.32D-03
 Coeff-Com: -0.232D-02 0.445D-02 0.102D+00-0.533D-01 0.378D+00 0.571D+00
 Coeff-En:   0.000D+00 0.000D+00 0.000D+00 0.000D+00 0.000D+00 0.100D+01
 Coeff:     -0.232D-02 0.444D-02 0.102D+00-0.531D-01 0.377D+00 0.572D+00
 Gap=     0.272 Goal=   None    Shift=    0.000
 RMSDP=1.74D-05 MaxDP=1.33D-03 DE=-1.63D-02 OVMax= 9.34D-04

 Cycle   7  Pass 0  IDiag  1:
 RMSU=  9.94D-06    CP:  9.81D-01  8.44D-01  6.65D-01  2.91D-01  8.57D-01
                    CP:  7.28D-01
 E= -884.885308866301     Delta-E=       -0.000036929024 Rises=F Damp=F
 DIIS: error= 6.43D-05 at cycle   7 NSaved=   7.
 NSaved= 7 IEnMin= 7 EnMin= -884.885308866301     IErMin= 7 ErrMin= 6.43D-05
 ErrMax= 6.43D-05  0.00D+00 EMaxC= 1.00D-01 BMatC= 1.80D-06 BMatP= 4.13D-05
 IDIUse=1 WtCom= 1.00D+00 WtEn= 0.00D+00
 Coeff-Com: -0.970D-03 0.150D-02 0.348D-01-0.220D-01 0.141D+00 0.252D+00
 Coeff-Com:  0.594D+00
 Coeff:     -0.970D-03 0.150D-02 0.348D-01-0.220D-01 0.141D+00 0.252D+00
 Coeff:      0.594D+00
 Gap=     0.272 Goal=   None    Shift=    0.000
 RMSDP=4.97D-06 MaxDP=4.26D-04 DE=-3.69D-05 OVMax= 1.92D-04

 Initial convergence to 1.0D-05 achieved.  Increase integral accuracy.
 Cycle   8  Pass 1  IDiag  1:
 E= -884.885302725660     Delta-E=        0.000006140641 Rises=F Damp=F
 DIIS: error= 7.88D-05 at cycle   1 NSaved=   1.
 NSaved= 1 IEnMin= 1 EnMin= -884.885302725660     IErMin= 1 ErrMin= 7.88D-05
 ErrMax= 7.88D-05  0.00D+00 EMaxC= 1.00D-01 BMatC= 1.45D-06 BMatP= 1.45D-06
 IDIUse=1 WtCom= 1.00D+00 WtEn= 0.00D+00
 Coeff-Com:  0.100D+01
 Coeff:      0.100D+01
 Gap=     0.272 Goal=   None    Shift=    0.000
 RMSDP=4.97D-06 MaxDP=4.26D-04 DE= 6.14D-06 OVMax= 2.73D-04

 Cycle   9  Pass 1  IDiag  1:
 RMSU=  3.99D-05    CP:  1.00D+00
 E= -884.885303768949     Delta-E=       -0.000001043290 Rises=F Damp=F
 DIIS: error= 3.62D-05 at cycle   2 NSaved=   2.
 NSaved= 2 IEnMin= 2 EnMin= -884.885303768949     IErMin= 2 ErrMin= 3.62D-05
 ErrMax= 3.62D-05  0.00D+00 EMaxC= 1.00D-01 BMatC= 6.55D-07 BMatP= 1.45D-06
 IDIUse=1 WtCom= 1.00D+00 WtEn= 0.00D+00
 Coeff-Com:  0.359D+00 0.641D+00
 Coeff:      0.359D+00 0.641D+00
 Gap=     0.272 Goal=   None    Shift=    0.000
 RMSDP=3.94D-06 MaxDP=4.05D-04 DE=-1.04D-06 OVMax= 3.29D-04

 Cycle  10  Pass 1  IDiag  1:
 RMSU=  3.91D-06    CP:  1.00D+00  1.00D+00
 E= -884.885303962742     Delta-E=       -0.000000193792 Rises=F Damp=F
 DIIS: error= 3.04D-05 at cycle   3 NSaved=   3.
 NSaved= 3 IEnMin= 3 EnMin= -884.885303962742     IErMin= 3 ErrMin= 3.04D-05
 ErrMax= 3.04D-05  0.00D+00 EMaxC= 1.00D-01 BMatC= 4.19D-07 BMatP= 6.55D-07
 IDIUse=1 WtCom= 1.00D+00 WtEn= 0.00D+00
 Coeff-Com:  0.123D-01 0.442D+00 0.546D+00
 Coeff:      0.123D-01 0.442D+00 0.546D+00
 Gap=     0.272 Goal=   None    Shift=    0.000
 RMSDP=2.01D-06 MaxDP=1.40D-04 DE=-1.94D-07 OVMax= 2.06D-04

 Cycle  11  Pass 1  IDiag  1:
 RMSU=  7.47D-07    CP:  1.00D+00  1.02D+00  5.44D-01
 E= -884.885304305880     Delta-E=       -0.000000343138 Rises=F Damp=F
 DIIS: error= 1.07D-05 at cycle   4 NSaved=   4.
 NSaved= 4 IEnMin= 4 EnMin= -884.885304305880     IErMin= 4 ErrMin= 1.07D-05
 ErrMax= 1.07D-05  0.00D+00 EMaxC= 1.00D-01 BMatC= 3.45D-08 BMatP= 4.19D-07
 IDIUse=1 WtCom= 1.00D+00 WtEn= 0.00D+00
 Coeff-Com: -0.544D-02 0.273D+00 0.365D+00 0.368D+00
 Coeff:     -0.544D-02 0.273D+00 0.365D+00 0.368D+00
 Gap=     0.272 Goal=   None    Shift=    0.000
 RMSDP=4.69D-07 MaxDP=2.47D-05 DE=-3.43D-07 OVMax= 4.61D-05

 Cycle  12  Pass 1  IDiag  1:
 RMSU=  1.40D-07    CP:  1.00D+00  1.02D+00  5.72D-01  4.20D-01
 E= -884.885304333765     Delta-E=       -0.000000027886 Rises=F Damp=F
 DIIS: error= 4.44D-07 at cycle   5 NSaved=   5.
 NSaved= 5 IEnMin= 5 EnMin= -884.885304333765     IErMin= 5 ErrMin= 4.44D-07
 ErrMax= 4.44D-07  0.00D+00 EMaxC= 1.00D-01 BMatC= 1.72D-10 BMatP= 3.45D-08
 IDIUse=1 WtCom= 1.00D+00 WtEn= 0.00D+00
 Coeff-Com: -0.286D-02 0.127D+00 0.171D+00 0.183D+00 0.521D+00
 Coeff:     -0.286D-02 0.127D+00 0.171D+00 0.183D+00 0.521D+00
 Gap=     0.272 Goal=   None    Shift=    0.000
 RMSDP=4.18D-08 MaxDP=1.80D-06 DE=-2.79D-08 OVMax= 2.73D-06

 Cycle  13  Pass 1  IDiag  1:
 RMSU=  3.80D-08    CP:  1.00D+00  1.02D+00  5.71D-01  4.33D-01  9.09D-01
 E= -884.885304333906     Delta-E=       -0.000000000141 Rises=F Damp=F
 DIIS: error= 1.61D-07 at cycle   6 NSaved=   6.
 NSaved= 6 IEnMin= 6 EnMin= -884.885304333906     IErMin= 6 ErrMin= 1.61D-07
 ErrMax= 1.61D-07  0.00D+00 EMaxC= 1.00D-01 BMatC= 1.19D-11 BMatP= 1.72D-10
 IDIUse=1 WtCom= 1.00D+00 WtEn= 0.00D+00
 Coeff-Com: -0.756D-03 0.303D-01 0.408D-01 0.480D-01 0.234D+00 0.648D+00
 Coeff:     -0.756D-03 0.303D-01 0.408D-01 0.480D-01 0.234D+00 0.648D+00
 Gap=     0.272 Goal=   None    Shift=    0.000
 RMSDP=1.38D-08 MaxDP=9.89D-07 DE=-1.41D-10 OVMax= 1.45D-06

 Cycle  14  Pass 1  IDiag  1:
 RMSU=  1.17D-08    CP:  1.00D+00  1.02D+00  5.72D-01  4.35D-01  9.43D-01
                    CP:  8.74D-01
 E= -884.885304333899     Delta-E=        0.000000000007 Rises=F Damp=F
 DIIS: error= 1.12D-07 at cycle   7 NSaved=   7.
 NSaved= 7 IEnMin= 6 EnMin= -884.885304333906     IErMin= 7 ErrMin= 1.12D-07
 ErrMax= 1.12D-07  0.00D+00 EMaxC= 1.00D-01 BMatC= 5.25D-12 BMatP= 1.19D-11
 IDIUse=1 WtCom= 1.00D+00 WtEn= 0.00D+00
 Coeff-Com: -0.391D-04-0.366D-03-0.426D-03 0.290D-02 0.720D-01 0.440D+00
 Coeff-Com:  0.486D+00
 Coeff:     -0.391D-04-0.366D-03-0.426D-03 0.290D-02 0.720D-01 0.440D+00
 Coeff:      0.486D+00
 Gap=     0.272 Goal=   None    Shift=    0.000
 RMSDP=6.71D-09 MaxDP=4.54D-07 DE= 6.82D-12 OVMax= 6.59D-07

 SCF Done:  E(RPBE1PBE) =  -884.885304334     A.U. after   14 cycles
            NFock= 14  Conv=0.67D-08     -V/T= 2.0104
 KE= 8.757429724937D+02 PE=-5.482588788852D+03 EE= 2.008222482846D+03
 Leave Link  502 at Fri Nov 18 09:57:04 2022, MaxMem=  2097152000 cpu:             495.9 elap:              62.2
 (Enter /software/gaussian/G16-A.03/avx2/g16/l801.exe)
 DoSCS=F DFT=T ScalE2(SS,OS)=  1.000000  1.000000
 Range of M.O.s used for correlation:     1   420
 NBasis=   420 NAE=    77 NBE=    77 NFC=     0 NFV=     0
 NROrb=    420 NOA=    77 NOB=    77 NVA=   343 NVB=   343

 **** Warning!!: The largest alpha MO coefficient is  0.12303706D+02

 Leave Link  801 at Fri Nov 18 09:57:04 2022, MaxMem=  2097152000 cpu:               0.2 elap:               0.0
 (Enter /software/gaussian/G16-A.03/avx2/g16/l1101.exe)
 Using compressed storage, NAtomX=    48.
 Will process     49 centers per pass.
   1 Symmetry operations used in ECPInt.
 ECPInt:  NShTT=   20910 NPrTT=   72734 LenC2=   18702 LenP2D=   45923.
 LDataN:  DoStor=T MaxTD1= 5 Len=  102
 R6Disp: Adding Grimme-D3(BJ) dispersion energy 1st derivatives to the gradient.
 Leave Link 1101 at Fri Nov 18 09:57:05 2022, MaxMem=  2097152000 cpu:               5.9 elap:               0.7
 (Enter /software/gaussian/G16-A.03/avx2/g16/l1102.exe)
 Symmetrizing basis deriv contribution to polar:
 IMax=3 JMax=2 DiffMx= 0.00D+00
 Leave Link 1102 at Fri Nov 18 09:57:05 2022, MaxMem=  2097152000 cpu:               0.5 elap:               0.1
 (Enter /software/gaussian/G16-A.03/avx2/g16/l1110.exe)
 Forming Gx(P) for the SCF density, NAtomX=    48.
 Integral derivatives from FoFJK, PRISM(SPDF).
 Do as many integral derivatives as possible in FoFJK.
 G2DrvN: MDV=    2097148408.
 G2DrvN: will do    49 centers at a time, making    1 passes.
 Calling FoFCou, ICntrl=  3107 FMM=F I1Cent=   0 AccDes= 0.00D+00.
 FoFJK:  IHMeth= 1 ICntrl=    3107 DoSepK=F KAlg= 0 I1Cent=           0 FoldK=F
 IRaf=         0 NMat=       1 IRICut=       1 DoRegI=T DoRafI=F ISym2E= 0 IDoP0=0 IntGTp=1.
 FoFCou: FMM=F IPFlag=           0 FMFlag=      100000 FMFlg1=           0
         NFxFlg=           0 DoJE=F BraDBF=F KetDBF=F FulRan=T
         wScrn=  0.000000 ICntrl=      3107 IOpCl=  0 I1Cent=           0 NGrid=           0
         NMat0=    1 NMatS0=      1 NMatT0=    0 NMatD0=    1 NMtDS0=    0 NMtDT0=    0
 Symmetry not used in FoFCou.
 End of G2Drv F.D. properties file   721 does not exist.
 End of G2Drv F.D. properties file   722 does not exist.
 End of G2Drv F.D. properties file   788 does not exist.
 Leave Link 1110 at Fri Nov 18 10:00:07 2022, MaxMem=  2097152000 cpu:            1446.2 elap:             181.2
 (Enter /software/gaussian/G16-A.03/avx2/g16/l1002.exe)
 Minotr:  Closed shell wavefunction.
          IDoAtm=111111111111111111111111111111111111111111111111
          Direct CPHF calculation.
          Differentiating once with respect to electric field.
                with respect to dipole field.
          Differentiating once with respect to nuclear coordinates.
          Requested convergence is 1.0D-08 RMS, and 1.0D-07 maximum.
          Secondary convergence is 1.0D-12 RMS, and 1.0D-12 maximum.
          NewPWx=T KeepS1=F KeepF1=F KeepIn=T MapXYZ=F SortEE=F KeepMc=T.
        14543 words used for storage of precomputed grid.
 Two-electron integrals replicated using symmetry.
          MDV=    2097152000 using IRadAn=       1.
          Solving linear equations simultaneously, MaxMat=     384.
 FoF2E skips out because all densities are zero.
 CalDSu exits because no D1Ps are significant.
 FoFJK:  IHMeth= 1 ICntrl=       0 DoSepK=F KAlg= 0 I1Cent=           0 FoldK=F
 IRaf= 800000000 NMat=     144 IRICut=     360 DoRegI=T DoRafI=T ISym2E= 2 IDoP0=3 IntGTp=3.
 FoFCou: FMM=F IPFlag=           0 FMFlag=      100000 FMFlg1=           0
         NFxFlg=           0 DoJE=F BraDBF=F KetDBF=F FulRan=T
         wScrn=  0.000000 ICntrl=         0 IOpCl=  0 I1Cent=           0 NGrid=           0
         NMat0=  144 NMatS0=    144 NMatT0=    0 NMatD0=  144 NMtDS0=    0 NMtDT0=    0
 Integrals replicated using symmetry in FoFCou.
 Raff kept on since  74.76% of shell-pairs survive, threshold=   0.20 IRatSp=75.
          There are   147 degrees of freedom in the 1st order CPHF.  IDoFFX=6 NUNeed=     3.
    144 vectors produced by pass  0 Test12= 2.64D-14 1.00D-09 XBig12= 1.39D+02 4.47D+00.
 AX will form   144 AO Fock derivatives at one time.
    144 vectors produced by pass  1 Test12= 2.64D-14 1.00D-09 XBig12= 4.69D+01 1.51D+00.
    144 vectors produced by pass  2 Test12= 2.64D-14 1.00D-09 XBig12= 4.35D-01 6.05D-02.
    144 vectors produced by pass  3 Test12= 2.64D-14 1.00D-09 XBig12= 1.37D-03 2.30D-03.
    144 vectors produced by pass  4 Test12= 2.64D-14 1.00D-09 XBig12= 2.75D-06 1.51D-04.
     84 vectors produced by pass  5 Test12= 2.64D-14 1.00D-09 XBig12= 2.87D-09 5.70D-06.
      9 vectors produced by pass  6 Test12= 2.64D-14 1.00D-09 XBig12= 2.77D-12 1.43D-07.
      3 vectors produced by pass  7 Test12= 2.64D-14 1.00D-09 XBig12= 2.95D-15 4.86D-09.
 InvSVY:  IOpt=1 It=  1 EMax= 2.60D-15
 Solved reduced A of dimension   816 with   147 vectors.
 FullF1:  Do perturbations      1 to       3.
 Isotropic polarizability for W=    0.000000      184.94 Bohr**3.
 End of Minotr F.D. properties file   721 does not exist.
 End of Minotr F.D. properties file   722 does not exist.
 End of Minotr F.D. properties file   788 does not exist.
 Leave Link 1002 at Fri Nov 18 10:06:58 2022, MaxMem=  2097152000 cpu:            3283.8 elap:             411.5
 (Enter /software/gaussian/G16-A.03/avx2/g16/l601.exe)
 Copying SCF densities to generalized density rwf, IOpCl= 0 IROHF=0.

 **********************************************************************

            Population analysis using the SCF density.

 **********************************************************************

 Orbital symmetries:
       Occupied  (A) (A) (A) (A) (A) (A) (A) (A) (A) (A) (A) (A)
                 (A) (A) (A) (A) (A) (A) (A) (A) (A) (A) (A) (A)
                 (A) (A) (A) (A) (A) (A) (A) (A) (A) (A) (A) (A)
                 (A) (A) (A) (A) (A) (A) (A) (A) (A) (A) (A) (A)
                 (A) (A) (A) (A) (A) (A) (A) (A) (A) (A) (A) (A)
                 (A) (A) (A) (A) (A) (A) (A) (A) (A) (A) (A) (A)
                 (A) (A) (A) (A) (A)
       Virtual   (A) (A) (A) (A) (A) (A) (A) (A) (A) (A) (A) (A)
                 (A) (A) (A) (A) (A) (A) (A) (A) (A) (A) (A) (A)
                 (A) (A) (A) (A) (A) (A) (A) (A) (A) (A) (A) (A)
                 (A) (A) (A) (A) (A) (A) (A) (A) (A) (A) (A) (A)
                 (A) (A) (A) (A) (A) (A) (A) (A) (A) (A) (A) (A)
                 (A) (A) (A) (A) (A) (A) (A) (A) (A) (A) (A) (A)
                 (A) (A) (A) (A) (A) (A) (A) (A) (A) (A) (A) (A)
                 (A) (A) (A) (A) (A) (A) (A) (A) (A) (A) (A) (A)
                 (A) (A) (A) (A) (A) (A) (A) (A) (A) (A) (A) (A)
                 (A) (A) (A) (A) (A) (A) (A) (A) (A) (A) (A) (A)
                 (A) (A) (A) (A) (A) (A) (A) (A) (A) (A) (A) (A)
                 (A) (A) (A) (A) (A) (A) (A) (A) (A) (A) (A) (A)
                 (A) (A) (A) (A) (A) (A) (A) (A) (A) (A) (A) (A)
                 (A) (A) (A) (A) (A) (A) (A) (A) (A) (A) (A) (A)
                 (A) (A) (A) (A) (A) (A) (A) (A) (A) (A) (A) (A)
                 (A) (A) (A) (A) (A) (A) (A) (A) (A) (A) (A) (A)
                 (A) (A) (A) (A) (A) (A) (A) (A) (A) (A) (A) (A)
                 (A) (A) (A) (A) (A) (A) (A) (A) (A) (A) (A) (A)
                 (A) (A) (A) (A) (A) (A) (A) (A) (A) (A) (A) (A)
                 (A) (A) (A) (A) (A) (A) (A) (A) (A) (A) (A) (A)
                 (A) (A) (A) (A) (A) (A) (A) (A) (A) (A) (A) (A)
                 (A) (A) (A) (A) (A) (A) (A) (A) (A) (A) (A) (A)
                 (A) (A) (A) (A) (A) (A) (A) (A) (A) (A) (A) (A)
                 (A) (A) (A) (A) (A) (A) (A) (A) (A) (A) (A) (A)
                 (A) (A) (A) (A) (A) (A) (A) (A) (A) (A) (A) (A)
                 (A) (A) (A) (A) (A) (A) (A) (A) (A) (A) (A) (A)
                 (A) (A) (A) (A) (A) (A) (A) (A) (A) (A) (A) (A)
                 (A) (A) (A) (A) (A) (A) (A) (A) (A) (A) (A) (A)
                 (A) (A) (A) (A) (A) (A) (A)
 The electronic state is 1-A.
 Alpha  occ. eigenvalues --  -19.24300 -19.24274 -14.35211 -14.35171 -10.31192
 Alpha  occ. eigenvalues --  -10.31138 -10.28569 -10.28552 -10.26307 -10.25704
 Alpha  occ. eigenvalues --  -10.25689 -10.24272 -10.24252 -10.23640 -10.22362
 Alpha  occ. eigenvalues --  -10.22361 -10.21908 -10.21829 -10.21137 -10.21129
 Alpha  occ. eigenvalues --   -1.11796  -1.11583  -0.91497  -0.90677  -0.85448
 Alpha  occ. eigenvalues --   -0.83304  -0.81875  -0.76660  -0.74327  -0.69734
 Alpha  occ. eigenvalues --   -0.69670  -0.69084  -0.68987  -0.66696  -0.65189
 Alpha  occ. eigenvalues --   -0.64906  -0.59621  -0.55792  -0.55187  -0.54501
 Alpha  occ. eigenvalues --   -0.51990  -0.51590  -0.51192  -0.49951  -0.47501
 Alpha  occ. eigenvalues --   -0.46802  -0.46345  -0.45089  -0.44907  -0.44482
 Alpha  occ. eigenvalues --   -0.44135  -0.43418  -0.42712  -0.41553  -0.40955
 Alpha  occ. eigenvalues --   -0.39440  -0.39345  -0.39178  -0.38896  -0.37923
 Alpha  occ. eigenvalues --   -0.37308  -0.36947  -0.36755  -0.36555  -0.36525
 Alpha  occ. eigenvalues --   -0.36054  -0.34787  -0.34276  -0.34219  -0.33439
 Alpha  occ. eigenvalues --   -0.33373  -0.32867  -0.32831  -0.27939  -0.25161
 Alpha  occ. eigenvalues --   -0.24474  -0.24300
 Alpha virt. eigenvalues --    0.02863   0.03195   0.05987   0.06467   0.08498
 Alpha virt. eigenvalues --    0.09066   0.09507   0.09778   0.10107   0.10463
 Alpha virt. eigenvalues --    0.11311   0.11518   0.12200   0.12474   0.13564
 Alpha virt. eigenvalues --    0.14042   0.14419   0.14729   0.15068   0.15563
 Alpha virt. eigenvalues --    0.16263   0.16569   0.16955   0.17026   0.17768
 Alpha virt. eigenvalues --    0.18297   0.18808   0.19331   0.20062   0.20368
 Alpha virt. eigenvalues --    0.20663   0.21013   0.21338   0.21744   0.21865
 Alpha virt. eigenvalues --    0.22088   0.23539   0.24604   0.24982   0.25207
 Alpha virt. eigenvalues --    0.25541   0.25798   0.26366   0.27760   0.28329
 Alpha virt. eigenvalues --    0.29236   0.32446   0.33956   0.36333   0.39106
 Alpha virt. eigenvalues --    0.39923   0.40827   0.41313   0.41961   0.42899
 Alpha virt. eigenvalues --    0.43197   0.43789   0.44451   0.45347   0.46836
 Alpha virt. eigenvalues --    0.49912   0.50042   0.52144   0.52294   0.52915
 Alpha virt. eigenvalues --    0.53196   0.53550   0.54923   0.55553   0.56781
 Alpha virt. eigenvalues --    0.57857   0.57924   0.58421   0.59116   0.60164
 Alpha virt. eigenvalues --    0.60256   0.60769   0.61439   0.61967   0.63506
 Alpha virt. eigenvalues --    0.63885   0.64402   0.64653   0.65394   0.65485
 Alpha virt. eigenvalues --    0.65924   0.66284   0.66334   0.66929   0.67280
 Alpha virt. eigenvalues --    0.67355   0.67859   0.68268   0.68718   0.68939
 Alpha virt. eigenvalues --    0.69189   0.69524   0.69951   0.70153   0.70437
 Alpha virt. eigenvalues --    0.70516   0.71210   0.71797   0.72258   0.72405
 Alpha virt. eigenvalues --    0.72650   0.72951   0.73351   0.73748   0.74083
 Alpha virt. eigenvalues --    0.74405   0.74714   0.74836   0.75157   0.75241
 Alpha virt. eigenvalues --    0.75867   0.76523   0.76996   0.77328   0.78967
 Alpha virt. eigenvalues --    0.79256   0.79387   0.81136   0.81896   0.83719
 Alpha virt. eigenvalues --    0.84945   0.85538   0.87799   0.88232   0.88751
 Alpha virt. eigenvalues --    0.90415   0.92488   0.96014   0.96708   0.97871
 Alpha virt. eigenvalues --    1.00236   1.03080   1.05353   1.06664   1.08149
 Alpha virt. eigenvalues --    1.09573   1.10421   1.12281   1.12792   1.14508
 Alpha virt. eigenvalues --    1.15437   1.16116   1.17763   1.18337   1.18909
 Alpha virt. eigenvalues --    1.20028   1.21867   1.21964   1.24058   1.25248
 Alpha virt. eigenvalues --    1.26017   1.27189   1.29857   1.30884   1.32849
 Alpha virt. eigenvalues --    1.33802   1.35145   1.37637   1.38601   1.40326
 Alpha virt. eigenvalues --    1.43201   1.45176   1.48204   1.48517   1.50308
 Alpha virt. eigenvalues --    1.52249   1.53151   1.54737   1.55647   1.56462
 Alpha virt. eigenvalues --    1.57058   1.57286   1.57563   1.58025   1.58442
 Alpha virt. eigenvalues --    1.58744   1.59728   1.60464   1.61350   1.62370
 Alpha virt. eigenvalues --    1.64487   1.65352   1.65660   1.67047   1.67678
 Alpha virt. eigenvalues --    1.68415   1.69626   1.70462   1.72835   1.73202
 Alpha virt. eigenvalues --    1.75200   1.75830   1.76203   1.77566   1.78227
 Alpha virt. eigenvalues --    1.78494   1.78885   1.79459   1.80461   1.80503
 Alpha virt. eigenvalues --    1.80987   1.81363   1.82543   1.83547   1.83946
 Alpha virt. eigenvalues --    1.84170   1.84812   1.85571   1.85940   1.85979
 Alpha virt. eigenvalues --    1.86356   1.86572   1.87029   1.87064   1.88528
 Alpha virt. eigenvalues --    1.88608   1.88872   1.89050   1.90066   1.90949
 Alpha virt. eigenvalues --    1.92036   1.92668   1.93412   1.93633   1.93827
 Alpha virt. eigenvalues --    1.95668   1.95879   1.96624   1.96851   1.98266
 Alpha virt. eigenvalues --    1.98701   1.98873   1.99346   1.99579   1.99943
 Alpha virt. eigenvalues --    2.02337   2.02869   2.04733   2.06077   2.06608
 Alpha virt. eigenvalues --    2.07929   2.08477   2.10725   2.11936   2.12352
 Alpha virt. eigenvalues --    2.14850   2.17041   2.18962   2.19615   2.21648
 Alpha virt. eigenvalues --    2.21838   2.22404   2.23729   2.24692   2.26942
 Alpha virt. eigenvalues --    2.27734   2.29543   2.30310   2.31627   2.32167
 Alpha virt. eigenvalues --    2.34230   2.36103   2.36787   2.38468   2.40828
 Alpha virt. eigenvalues --    2.41514   2.42368   2.43096   2.43503   2.43730
 Alpha virt. eigenvalues --    2.44576   2.45205   2.46011   2.47259   2.48783
 Alpha virt. eigenvalues --    2.51871   2.53523   2.54013   2.54977   2.56404
 Alpha virt. eigenvalues --    2.58180   2.62435   2.64052   2.64502   2.65121
 Alpha virt. eigenvalues --    2.65212   2.66724   2.67496   2.67825   2.68034
 Alpha virt. eigenvalues --    2.68347   2.70076   2.71314   2.73634   2.74783
 Alpha virt. eigenvalues --    2.78017   2.80319   2.84176   2.85591   2.86176
 Alpha virt. eigenvalues --    2.88036   2.88928   2.89135   2.90159   2.90562
 Alpha virt. eigenvalues --    2.91215   2.92089   2.92800   2.93194   2.93353
 Alpha virt. eigenvalues --    2.93924   2.95260   2.96605   2.97301   2.98414
 Alpha virt. eigenvalues --    2.99560   2.99613   3.00388   3.01743   3.04399
 Alpha virt. eigenvalues --    3.05280   3.05492   3.06203   3.06471   3.07630
 Alpha virt. eigenvalues --    3.09330   3.11810   3.12855   3.15151   3.15475
 Alpha virt. eigenvalues --    3.18070   3.20747   3.31023   3.34283   3.40833
 Alpha virt. eigenvalues --    3.47899   3.63266   3.67531
     Molecular Orbital Coefficients:
                          73        74        75        76        77
                           O         O         O         O         O
     Eigenvalues --    -0.32831  -0.27939  -0.25161  -0.24474  -0.24300
   1 1   C  1S          0.00216   0.00477   0.01287   0.00071  -0.00197
   2        2S         -0.00506  -0.01160  -0.01834  -0.00395   0.00471
   3        3S         -0.00162  -0.02103  -0.15234   0.02641  -0.00072
   4        4PX         0.04471   0.00821   0.02467   0.01189   0.01499
   5        4PY        -0.00094   0.03169   0.06860   0.00070  -0.01349
   6        4PZ        -0.00616  -0.00343  -0.03536   0.00911   0.01411
   7        5PX         0.02836   0.00428   0.03653  -0.01043   0.01683
   8        5PY        -0.00152   0.01931   0.10727  -0.00360  -0.01448
   9        5PZ         0.00066   0.00275  -0.02602  -0.00041   0.01197
  10        6D 0        0.00069  -0.00218  -0.00016  -0.00056  -0.00043
  11        6D+1       -0.00017   0.00164   0.00063  -0.00040  -0.00065
  12        6D-1        0.00152   0.00011   0.00256  -0.00019   0.00091
  13        6D+2        0.00096  -0.00002   0.00119   0.00029   0.00087
  14        6D-2        0.00169  -0.00011  -0.00088  -0.00082   0.00308
  15 2   C  1S          0.00106  -0.01522   0.00252   0.00564  -0.00117
  16        2S         -0.00327   0.02477  -0.02278  -0.01299   0.00181
  17        3S         -0.00539   0.28381   0.16152  -0.06698   0.02368
  18        4PX        -0.02887  -0.00291  -0.04066  -0.01594  -0.05662
  19        4PY         0.00457  -0.08194  -0.01252   0.01363   0.00735
  20        4PZ         0.01619  -0.02003   0.04035  -0.00481  -0.03093
  21        5PX        -0.02189  -0.00459  -0.03012  -0.00805  -0.05187
  22        5PY         0.00063  -0.15148  -0.02042   0.00901   0.00253
  23        5PZ         0.00649  -0.02627  -0.05841   0.00170  -0.02197
  24        6D 0        0.00059  -0.00283   0.00235  -0.00415   0.00030
  25        6D+1       -0.00076   0.00107   0.00102  -0.00566   0.00100
  26        6D-1        0.00191  -0.00017   0.01020   0.00122  -0.00120
  27        6D+2        0.00071   0.00047   0.00176   0.00420  -0.00067
  28        6D-2        0.00070   0.00025  -0.00321   0.00101   0.00252
  29 3   C  1S         -0.01060  -0.03803   0.00741   0.01145   0.03274
  30        2S          0.02866   0.09985  -0.02160  -0.03382  -0.08455
  31        3S          0.02316  -0.10382  -0.05699   0.01023  -0.01540
  32        4PX         0.04839   0.00754   0.06121   0.07856  -0.04214
  33        4PY        -0.00303  -0.06542   0.04958   0.06085   0.04280
  34        4PZ         0.00847  -0.03731  -0.10851  -0.13278   0.06474
  35        5PX         0.00151   0.10675   0.04633   0.02502  -0.07189
  36        5PY        -0.01665   0.00034   0.04795   0.04482  -0.03552
  37        5PZ        -0.01596   0.04980  -0.07334  -0.09998  -0.00714
  38        6D 0        0.00114  -0.00219   0.01664   0.01892   0.00089
  39        6D+1        0.00143  -0.00731   0.00078   0.00193   0.00835
  40        6D-1        0.00134  -0.00722   0.01794   0.01801   0.00371
  41        6D+2        0.00405  -0.00155   0.00533   0.00462   0.00041
  42        6D-2        0.00235  -0.01963  -0.00670  -0.00490   0.02327
  43 4   N  1S         -0.00117  -0.06289   0.01262   0.01806   0.07846
  44        2S          0.00004  -0.12899   0.02139   0.03379   0.16668
  45        3S         -0.03640  -0.15540   0.09085   0.08588   0.19815
  46        4PX         0.01202  -0.23573  -0.05536  -0.04972   0.27203
  47        4PY        -0.00445  -0.17981  -0.05412  -0.05170   0.21130
  48        4PZ         0.02720  -0.16304   0.24524   0.28324   0.12164
  49        5PX        -0.00793   0.15259   0.05416   0.05630  -0.16948
  50        5PY        -0.00617   0.13939   0.05065   0.03552  -0.15314
  51        5PZ        -0.01726   0.10752  -0.18135  -0.20281  -0.07804
  52        6D 0       -0.00156  -0.00302  -0.00807  -0.00947   0.00626
  53        6D+1       -0.00260   0.00836  -0.00023  -0.00175  -0.01100
  54        6D-1       -0.00111   0.00721  -0.01013  -0.01181  -0.00530
  55        6D+2       -0.00303  -0.00227  -0.00385  -0.00405  -0.00108
  56        6D-2       -0.00122   0.00799   0.00418   0.00498  -0.01164
  57 5   C  1S         -0.00040  -0.01833   0.00635   0.00765   0.02379
  58        2S         -0.00787   0.04277  -0.01707  -0.02212  -0.05424
  59        3S          0.05795   0.05003  -0.00564   0.00626  -0.10476
  60        4PX         0.01673  -0.12228  -0.02016  -0.01057   0.13807
  61        4PY        -0.11854  -0.02513  -0.01839  -0.01689   0.01603
  62        4PZ        -0.06209  -0.02747   0.10760   0.11677   0.01903
  63        5PX         0.01063  -0.03830   0.02903   0.04693   0.03107
  64        5PY        -0.02666   0.01750  -0.02737  -0.01786  -0.05817
  65        5PZ        -0.04218   0.01465   0.02799   0.02019  -0.01233
  66        6D 0       -0.00047  -0.00679   0.00107   0.00182   0.00623
  67        6D+1       -0.00298  -0.00286   0.01155   0.01321   0.00187
  68        6D-1       -0.01069  -0.00734  -0.00455  -0.00448   0.00835
  69        6D+2       -0.00006   0.00041  -0.00870  -0.00959   0.00338
  70        6D-2        0.00285  -0.01265   0.00277   0.00360   0.01476
  71 6   C  1S          0.00395   0.00006   0.01884   0.02131  -0.00325
  72        2S         -0.00928   0.00150  -0.04348  -0.04862   0.00443
  73        3S         -0.03492   0.00581  -0.12054  -0.15703   0.02245
  74        4PX         0.01896   0.04157   0.07648   0.08140  -0.03960
  75        4PY         0.22331   0.00346  -0.01759  -0.02053   0.00450
  76        4PZ         0.04639   0.00568  -0.09991  -0.10596   0.01696
  77        5PX         0.01952   0.01303   0.03708   0.04280  -0.01602
  78        5PY         0.07557  -0.04695   0.00669   0.00587   0.07437
  79        5PZ         0.02008   0.01436  -0.08329  -0.09413   0.01131
  80        6D 0        0.00021  -0.00254  -0.00225  -0.00225   0.00323
  81        6D+1       -0.00882   0.00094   0.00387   0.00418  -0.00112
  82        6D-1       -0.01206  -0.00282  -0.00148  -0.00143   0.00248
  83        6D+2       -0.00288   0.00274  -0.00185  -0.00198  -0.00242
  84        6D-2       -0.00140  -0.00073   0.00110   0.00117   0.00017
  85 7   C  1S          0.00740  -0.00777   0.00012   0.00036   0.00665
  86        2S         -0.01714   0.01810   0.00042  -0.00074  -0.01728
  87        3S         -0.02987   0.00605   0.02254   0.03038   0.00200
  88        4PX         0.01945  -0.04064  -0.02537  -0.02612   0.03324
  89        4PY        -0.08939   0.01092   0.00454   0.00423  -0.01254
  90        4PZ        -0.01086  -0.01503   0.00171   0.00002   0.00708
  91        5PX         0.01218  -0.01554  -0.03373  -0.03907   0.00890
  92        5PY        -0.04174   0.01392   0.00785   0.00767  -0.01957
  93        5PZ        -0.00231  -0.01191  -0.00526  -0.00884   0.00619
  94        6D 0       -0.00078  -0.00045   0.00131   0.00144   0.00007
  95        6D+1       -0.00568   0.00101   0.00336   0.00343  -0.00174
  96        6D-1       -0.00612  -0.00145  -0.00133  -0.00139   0.00133
  97        6D+2       -0.00449  -0.00021  -0.00173  -0.00175   0.00088
  98        6D-2       -0.00473  -0.00105   0.00106   0.00109   0.00028
  99 8   C  1S         -0.02038  -0.00095  -0.00093  -0.00061   0.00015
 100        2S          0.04675   0.00099   0.00285   0.00229   0.00044
 101        3S          0.07551   0.04914  -0.00046   0.00147  -0.06452
 102        4PX        -0.01459  -0.01527   0.00743   0.00907   0.00475
 103        4PY        -0.18425  -0.00569  -0.02055  -0.01976   0.00629
 104        4PZ         0.02854  -0.00187   0.03249   0.03246  -0.00386
 105        5PX        -0.01115  -0.01088   0.01677   0.01909  -0.00010
 106        5PY        -0.10059  -0.01582  -0.02020  -0.02096   0.02243
 107        5PZ         0.02840   0.00440   0.02874   0.03078  -0.01192
 108        6D 0        0.00298  -0.00023  -0.00233  -0.00252   0.00047
 109        6D+1       -0.00447   0.00079   0.00183   0.00194  -0.00036
 110        6D-1       -0.00786  -0.00120   0.00128   0.00148   0.00062
 111        6D+2       -0.00019   0.00023  -0.00165  -0.00164   0.00004
 112        6D-2       -0.00141  -0.00140  -0.00059  -0.00065   0.00098
 113 9   C  1S          0.02481   0.00010  -0.00102  -0.00127   0.00111
 114        2S         -0.05773  -0.00252   0.00343   0.00147  -0.00463
 115        3S         -0.06998   0.00652   0.00139   0.02540   0.03580
 116        4PX        -0.03175  -0.05184   0.01045   0.01177   0.03467
 117        4PY        -0.17693   0.00033   0.01154   0.01342  -0.00350
 118        4PZ        -0.09168  -0.02437   0.03035   0.03179   0.01251
 119        5PX        -0.01819  -0.04209   0.01750   0.01036   0.02225
 120        5PY        -0.08646  -0.00312   0.00924   0.01572   0.00984
 121        5PZ        -0.04935  -0.04656   0.03595   0.03592   0.03423
 122        6D 0       -0.00197  -0.00077  -0.00233  -0.00255   0.00080
 123        6D+1       -0.00700   0.00251   0.00135   0.00162  -0.00182
 124        6D-1       -0.00579  -0.00173  -0.00112  -0.00121   0.00134
 125        6D+2       -0.00282   0.00118  -0.00008   0.00022  -0.00032
 126        6D-2       -0.00140  -0.00040   0.00196   0.00184  -0.00040
 127 10  C  1S          0.00889   0.02384  -0.00737  -0.00906  -0.02233
 128        2S         -0.02011  -0.05892   0.01994   0.02572   0.05498
 129        3S         -0.06249  -0.09688   0.02802   0.02142   0.13860
 130        4PX         0.03674   0.05634   0.01662   0.01762  -0.04468
 131        4PY         0.10037   0.07975  -0.01052  -0.01823  -0.08296
 132        4PZ         0.06769   0.05878  -0.07392  -0.08350  -0.04929
 133        5PX         0.02775   0.01974  -0.00226  -0.00195  -0.01086
 134        5PY         0.04239   0.07265  -0.02027  -0.02795  -0.08352
 135        5PZ         0.04971   0.05542  -0.02934  -0.02561  -0.06601
 136        6D 0       -0.00091  -0.00226  -0.00795  -0.00889   0.00289
 137        6D+1       -0.00051  -0.00079  -0.00187  -0.00265  -0.00009
 138        6D-1       -0.00466   0.00114   0.00600   0.00731  -0.00212
 139        6D+2        0.00249   0.00107   0.00313   0.00383  -0.00232
 140        6D-2       -0.00334   0.00482  -0.00126  -0.00178  -0.00531
 141 11  O  1S         -0.01106  -0.00741   0.00283   0.00509   0.01318
 142        2S         -0.02293  -0.01739   0.00689   0.01237   0.02953
 143        3S         -0.01187  -0.05509   0.01094   0.02285   0.07574
 144        4PX         0.00134   0.02207  -0.11872  -0.14256  -0.00633
 145        4PY        -0.10474   0.08761  -0.08255  -0.09515  -0.06680
 146        4PZ        -0.04384   0.09450   0.17330   0.20349  -0.12171
 147        5PX         0.00420   0.01934  -0.09928  -0.11410  -0.01208
 148        5PY        -0.07835   0.06738  -0.06805  -0.07925  -0.04668
 149        5PZ        -0.03190   0.07261   0.14711   0.17180  -0.09993
 150        6D 0       -0.00016   0.00086  -0.00242  -0.00238  -0.00071
 151        6D+1        0.00180   0.00119   0.00010   0.00031  -0.00141
 152        6D-1        0.00202  -0.00187  -0.00219  -0.00290   0.00179
 153        6D+2       -0.00098   0.00333  -0.00164  -0.00226  -0.00232
 154        6D-2        0.00106   0.00143   0.00158   0.00186  -0.00101
 155 12  C  1S          0.01046  -0.03910  -0.00768  -0.00382  -0.03356
 156        2S         -0.02892   0.10249   0.01744   0.01198   0.08777
 157        3S         -0.02006  -0.10404  -0.02758  -0.00002   0.00262
 158        4PX         0.04579  -0.00398   0.05748  -0.04712  -0.02128
 159        4PY        -0.01114  -0.07324   0.01121  -0.01425  -0.06456
 160        4PZ        -0.00677   0.00276  -0.14031   0.15243  -0.00383
 161        5PX        -0.00174  -0.11115  -0.03429  -0.01834  -0.07195
 162        5PY         0.02507   0.02665  -0.00142  -0.00641   0.03319
 163        5PZ        -0.01112  -0.02883  -0.12517   0.10204  -0.01847
 164        6D 0        0.00139   0.00289   0.00216  -0.00031   0.00177
 165        6D+1        0.00062   0.00210  -0.00449   0.00468   0.00200
 166        6D-1        0.00316   0.00482   0.02722  -0.02166   0.00654
 167        6D+2       -0.00426   0.00260   0.00522  -0.00548   0.00274
 168        6D-2        0.00354   0.02173  -0.00477   0.00840   0.02346
 169 13  N  1S         -0.00054  -0.06409  -0.01001  -0.00367  -0.07993
 170        2S         -0.00319  -0.13195  -0.01651  -0.01151  -0.16857
 171        3S          0.03201  -0.15653  -0.07239   0.02072  -0.21173
 172        4PX         0.01271   0.24438  -0.04543   0.08453   0.25846
 173        4PY        -0.02289  -0.23441  -0.05537   0.01316  -0.25457
 174        4PZ         0.02514   0.04524   0.27246  -0.24690   0.05364
 175        5PX        -0.00802  -0.15472   0.06248  -0.07309  -0.15447
 176        5PY         0.02166   0.17568   0.03572  -0.01118   0.17991
 177        5PZ        -0.01316  -0.01910  -0.20241   0.17843  -0.03021
 178        6D 0       -0.00090  -0.00760  -0.00244   0.00056  -0.00931
 179        6D+1        0.00127   0.00276   0.00213  -0.00237   0.00400
 180        6D-1       -0.00299  -0.00033  -0.01481   0.01430  -0.00174
 181        6D+2        0.00160  -0.00384  -0.00196   0.00248  -0.00029
 182        6D-2       -0.00271  -0.01087   0.00372  -0.00510  -0.01420
 183 14  C  1S         -0.00180  -0.01898  -0.00595   0.00052  -0.02506
 184        2S          0.01281   0.04428   0.01926  -0.00555   0.05875
 185        3S         -0.05376   0.05345  -0.00190   0.03753   0.09920
 186        4PX         0.00707   0.12328  -0.01595   0.03522   0.13244
 187        4PY         0.12991  -0.03757  -0.03525   0.02734  -0.03024
 188        4PZ         0.00316   0.00811   0.11667  -0.09838   0.02416
 189        5PX         0.00198   0.04203   0.03789  -0.03435   0.04233
[...]
 292,0.00000028,0.00000047,0.00000004,-0.00000130,-0.00000080,0.0000055
 0,0.00000082,0.00000041,-0.00002199,0.00002759,-0.00001421,-0.00028403
 ,-0.00074115,-0.00007268,-0.00025176,0.00046721,0.00022280,-0.00000743
 ,-0.00030590,-0.00070870,0.00220646,0.00484698,0.00233367,0.00034279,0
 .00089554,-0.00010154,0.00017527,0.00087881,0.00017722,-0.10294221,-0.
 24255185,-0.06340890,0.00113652,-0.00062782,0.00001334,0.00090229,0.00
 037295,-0.00003896,-0.00000003,0.00000685,0.00000256,-0.00000252,0.000
 00500,0.00000424,-0.00000070,-0.00000276,0.00000080,-0.00001413,0.0000
 0691,-0.00000727,0.00000496,0.00000256,0.00000268,0.00000170,0.0000009
 7,0.00000091,-0.00000061,0.00000165,-0.00000174,-0.00000131,-0.0000011
 4,0.00000188,-0.00000193,-0.00000136,0.00000209,0.00000179,-0.00000160
 ,-0.00000236,-0.00000028,0.00000206,-0.00000144,-0.00000438,0.00000027
 ,0.00000208,0.00000197,-0.00000345,-0.00000596,0.00000484,0.00000468,0
 .00000319,0.00000172,-0.00000200,0.00000035,-0.00000311,0.00000227,0.0
 0000086,-0.00004178,-0.00002922,-0.00000569,0.00026219,0.00013919,-0.0
 0002700,0.00013902,0.00012859,0.00029742,0.00016055,0.00020316,0.00000
 764,-0.00012774,0.00014778,-0.00025336,-0.00005164,0.00016948,-0.00011
 799,-0.00006455,-0.00008469,0.00001384,-0.00719589,-0.01416599,-0.0073
 0867,0.11061425,0.26028445,-0.00000969,0.00000694,-0.00001133,-0.00000
 199,0.00000172,0.00005131,0.00002037,-0.00003153,0.00002103,-0.0000143
 8,0.00001866,0.00000501,0.00000919,-0.00000030,-0.00000216,0.00000159,
 0.00000057,0.00000004,-0.00000014,0.00000006,0.00000070,-0.00000038,-0
 .00000019,0.00000076,0.00000065,-0.00000161,0.00000007,0.00000314,0.00
 000319,0.00000387,-0.00002433,0.00001690,-0.00002096,-0.00012621,-0.00
 025689,-0.00002722,-0.00011080,0.00020669,-0.00012968,0.00050058,0.000
 16446,0.00012081,-0.00242832,-0.00829013,-0.00420284,-0.00228911,0.000
 73202,-0.00071094,0.00014098,-0.00124147,0.00036164,-0.03375726,-0.063
 20801,-0.06666452,0.00054743,-0.00052800,0.00021171,0.00027163,0.00018
 053,-0.00016216,0.00000203,-0.00000205,0.00000385,-0.00000346,0.000003
 71,0.00000239,0.00000381,-0.00000107,-0.00000222,-0.00000649,0.0000071
 3,-0.00000401,0.00000371,0.00000085,0.00000154,0.00000089,0.00000005,0
 .00000006,-0.00000051,0.00000114,-0.00000087,-0.00000081,-0.00000040,0
 .00000102,-0.00000075,-0.00000044,0.00000107,0.00000025,-0.00000086,-0
 .00000123,-0.00000030,0.00000107,-0.00000084,-0.00000263,0.00000073,0.
 00000137,0.00000063,-0.00000073,-0.00000331,0.00000260,0.00000248,0.00
 000046,-0.00000010,-0.00000228,-0.00000153,-0.00000217,0.00000119,0.00
 000002,-0.00010407,0.00014594,-0.00000993,-0.00017309,-0.00029757,0.00
 015018,0.00000629,0.00043756,0.00029265,-0.00046939,-0.00072341,0.0003
 8466,-0.00016932,0.00055093,-0.00003206,0.00016822,0.00014538,0.000094
 65,-0.00005385,-0.00009230,-0.00006991,0.01126153,0.02052578,0.0080701
 6,0.03796672,0.07054029,0.06760216,-0.00004010,-0.00001733,-0.00005373
 ,0.00019850,0.00016401,-0.00019720,0.00019003,0.00009487,0.00009299,-0
 .00009758,-0.00009767,-0.00004484,0.00002435,0.00004119,0.00001000,-0.
 00000441,0.00000197,-0.00001912,-0.00000255,-0.00000100,0.00001107,0.0
 0000588,-0.00000193,0.00000712,0.00000318,0.00000762,0.00000881,0.0000
 1663,0.00002980,0.00002423,-0.00011441,-0.00004650,-0.00005499,-0.0009
 8423,-0.00121374,-0.00016714,-0.00103862,0.00171219,0.00158301,-0.0048
 5468,-0.00015065,-0.00399607,-0.01730110,0.01184744,0.02304293,0.00110
 782,0.00135525,0.00164460,0.00110546,-0.00059895,0.00138647,-0.1221394
 3,0.05938042,0.10956461,-0.00041667,-0.00038659,-0.00010201,0.00086296
 ,0.00045506,0.00021978,0.00001018,-0.00001328,-0.00000041,-0.00001745,
 0.00002553,0.00001672,0.00001336,-0.00000963,0.00000909,-0.00012876,0.
 00008361,-0.00002627,-0.00001341,-0.00001277,-0.00000738,0.00000047,-0
 .00000299,-0.00000335,0.00000211,0.00000120,-0.00000060,-0.00000538,-0
 .00000233,0.00000185,-0.00000549,-0.00000273,0.00000277,0.00000009,-0.
 00000023,-0.00000963,0.00000305,-0.00000144,-0.00000200,-0.00000512,-0
 .00000349,0.00000267,0.00000261,0.00000666,-0.00000730,-0.00000156,-0.
 00000348,-0.00000521,-0.00000603,-0.00000508,-0.00000955,-0.00000908,0
 .00000111,-0.00000491,0.00019032,-0.00021768,-0.00022536,0.00000601,-0
 .00002291,-0.00007995,0.00002259,-0.00084635,-0.00082230,0.00042510,0.
 00000704,-0.00024961,-0.00001141,-0.00002000,-0.00009722,0.00019807,-0
 .00035069,-0.00006346,0.00023646,0.00019342,-0.00088728,-0.00045683,-0
 .00042436,-0.00153673,0.00751858,-0.00564432,-0.01153994,0.13524927,0.
 00000759,0.00000796,0.00002271,-0.00001710,0.00000681,0.00011083,-0.00
 008583,-0.00004239,-0.00004322,0.00005397,0.00003306,0.00001477,-0.000
 01453,-0.00001576,-0.00000170,0.00000079,-0.00000149,0.00000749,0.0000
 0112,0.00000078,-0.00000492,-0.00000205,0.00000097,-0.00000320,-0.0000
 0110,-0.00000149,-0.00000239,-0.00000874,-0.00001509,-0.00001349,0.000
 07130,0.00001377,0.00003999,-0.00005328,-0.00003352,-0.00005743,0.0001
 2470,0.00016341,-0.00044462,0.00059886,-0.00043297,0.00099546,0.002198
 62,-0.00346696,-0.00394570,-0.00127299,0.00041154,0.00071009,-0.000035
 94,-0.00005774,-0.00088836,0.06020868,-0.08979189,-0.08294587,0.000000
 42,0.00009920,0.00034917,0.00044812,0.00008722,-0.00012991,-0.00000932
 ,0.00001526,0.00000100,0.00001105,-0.00000853,-0.00000460,-0.00000689,
 0.00000305,-0.00000377,0.00004385,-0.00002637,0.00000487,0.00000339,0.
 00000494,0.00000175,-0.00000084,0.00000117,0.00000108,-0.00000057,-0.0
 0000153,0.00000086,0.00000274,0.00000136,-0.00000150,0.00000288,0.0000
 0161,-0.00000192,-0.00000011,0.00000020,0.00000496,-0.00000129,-0.0000
 0038,0.00000129,0.00000362,0.00000098,-0.00000206,-0.00000118,-0.00000
 207,0.00000516,-0.00000138,-0.00000032,0.00000100,0.00000293,0.0000040
 9,0.00000535,0.00000552,-0.00000080,0.00000211,0.00000708,0.00013433,-
 0.00023735,-0.00006291,-0.00001722,0.00007624,-0.00006999,0.00034341,-
 0.00015873,0.00002163,-0.00010648,0.00011954,0.00007858,-0.00010029,-0
 .00011311,-0.00023042,0.00006735,0.00013511,0.00020661,0.00007452,0.00
 056959,-0.01162315,0.00873779,0.01496842,0.01503975,-0.00974410,-0.018
 90220,-0.06557265,0.09320265,0.00002446,-0.00001303,0.00001406,0.00004
 215,0.00001912,-0.00010003,-0.00005279,-0.00000579,-0.00002975,0.00003
 945,0.00001438,0.00000487,-0.00001508,-0.00001412,-0.00000309,0.000000
 12,0.00000034,0.00000576,0.00000121,-0.00000090,-0.00000387,-0.0000014
 4,0.00000057,-0.00000246,-0.00000238,-0.00000347,-0.00000357,-0.000010
 64,-0.00001215,-0.00000661,0.00004852,0.00000436,0.00002683,-0.0002788
 8,-0.00019262,0.00005683,-0.00055365,0.00011023,0.00063772,-0.00128001
 ,0.00029667,-0.00033234,-0.00660294,0.00464108,0.00652089,-0.00053489,
 0.00051585,0.00054594,-0.00060668,0.00031307,0.00117165,0.11104241,-0.
 08316499,-0.19772876,-0.00031014,0.00020513,-0.00008393,0.00042345,-0.
 00004442,0.00013836,-0.00000672,0.00001209,0.00000136,0.00000785,-0.00
 000675,-0.00000541,-0.00000379,-0.00000078,-0.00000118,-0.00001785,0.0
 0001985,-0.00001408,0.00000122,0.00000314,0.00000199,-0.00000104,0.000
 00127,0.00000148,-0.00000017,-0.00000136,0.00000124,0.00000232,0.00000
 116,-0.00000188,0.00000176,0.00000136,-0.00000211,0.00000059,0.0000013
 3,0.00000368,-0.00000085,-0.00000043,0.00000163,0.00000339,0.00000065,
 -0.00000222,-0.00000118,0.00000002,0.00000434,-0.00000151,-0.00000040,
 0.00000169,0.00000047,0.00000271,0.00000271,0.00000428,-0.00000173,0.0
 0000037,-0.00027536,-0.00014567,0.00032399,0.00004795,-0.00011816,-0.0
 0009667,0.00031367,0.00016881,0.00020036,-0.00000987,0.00021873,0.0001
 7246,0.00005782,0.00001753,-0.00008078,0.00009020,-0.00008443,0.000190
 39,0.00009936,-0.00024535,0.00003873,0.01170299,-0.01110281,-0.0153421
 3,0.00392730,-0.00135180,-0.00551828,-0.11739955,0.08982206,0.20931949
 ,0.00006304,-0.00006256,-0.00012315,-0.00059817,-0.00041203,0.00008261
 ,-0.00002039,0.00027368,0.00016363,-0.00009593,-0.00008824,-0.00000973
 ,0.00003005,0.00001686,-0.00000684,0.00000473,0.00000529,-0.00002344,-
 0.00000473,-0.00000188,0.00001492,-0.00001100,-0.00000653,0.00000521,-
 0.00001011,0.00000166,0.00000430,0.00000621,0.00002044,-0.00000064,-0.
 00012080,-0.00007651,-0.00004877,0.00259826,0.00583828,-0.00059337,-0.
 00024437,-0.00167887,0.00136037,0.00234260,-0.00171175,-0.00921010,-0.
 00078144,-0.00103827,0.00054339,0.00024873,0.00001048,-0.00031388,-0.0
 0023993,-0.00028726,0.00027464,0.00002080,0.00004134,-0.00020986,-0.04
 915640,-0.00457857,0.00438511,-0.01247525,0.00424866,-0.03364791,0.000
 04137,0.00002533,-0.00005863,-0.00002386,0.00002583,0.00007766,-0.0000
 6349,-0.00002529,0.00003479,0.00007587,-0.00012112,0.00011668,-0.00001
 250,-0.00000793,-0.00000487,0.00000199,0.00000141,-0.00000025,0.000004
 52,-0.00000049,0.00000044,-0.00000639,-0.00000288,0.00000102,-0.000006
 69,-0.00000117,0.00000391,0.00000372,0.00000257,-0.00001100,0.00000636
 ,-0.00000140,0.00000045,-0.00000431,-0.00000425,0.00000363,0.00000442,
 0.00000272,-0.00001016,0.00000290,0.00000230,0.00000094,-0.00000778,-0
 .00000771,-0.00000323,-0.00000991,0.00000033,-0.00000616,0.00087504,0.
 00065332,0.00028766,0.00001017,0.00003326,0.00000523,-0.00001368,-0.00
 010959,-0.00005739,-0.00001589,0.00001695,0.00003214,0.00011643,0.0004
 4460,-0.00021353,0.00006488,0.00013618,0.00010353,0.00012079,0.0001910
 6,-0.00001109,0.00004566,0.00017807,0.00001674,0.00023713,-0.00026040,
 0.00013391,0.00004428,-0.00002131,-0.00000880,0.05388314,0.00008061,0.
 00005990,0.00008426,0.00053698,0.00030239,-0.00032042,-0.00002398,-0.0
 0024518,-0.00015080,0.00002906,0.00007417,0.00003091,-0.00002423,0.000
 00121,0.00000739,0.00000158,0.00000281,0.00001089,0.00000200,-0.000002
 22,-0.00000581,-0.00000478,-0.00000203,-0.00000526,-0.00000663,-0.0000
 0833,-0.00000768,-0.00001588,-0.00002495,-0.00000840,0.00011466,0.0000
 6271,0.00004862,-0.00396219,-0.00646339,0.00110526,-0.00180358,0.00113
 361,-0.00099725,0.00290802,-0.00147004,-0.02690855,-0.00368411,-0.0034
 3070,-0.00080248,0.00099840,-0.00023619,-0.00089285,-0.00012609,-0.000
 31398,0.00052563,-0.00032677,0.00018538,0.00004704,-0.00506820,-0.0482
 0394,-0.03094338,0.01449687,0.00058423,0.02603795,-0.00002072,-0.00001
 665,0.00004775,0.00001566,-0.00004654,-0.00003580,-0.00000103,0.000016
 20,-0.00000510,-0.00006054,0.00013694,-0.00008627,0.00001511,0.0000087
 3,0.00000637,-0.00000067,0.00000196,0.00000187,-0.00000005,-0.00000153
 ,0.00000190,0.00000290,0.00000197,-0.00000181,0.00000273,0.00000269,-0
 .00000238,-0.00000102,0.00000453,0.00000589,0.00000035,-0.00000008,0.0
 0000383,0.00000316,0.00000253,-0.00000153,-0.00000229,-0.00000407,0.00
 000359,0.00000241,0.00000244,0.00000415,0.00000598,0.00000690,0.000006
 80,0.00000797,0.00000194,0.00000301,0.00054323,0.00104960,-0.00016537,
 0.00000418,-0.00003601,0.00006530,-0.00015174,-0.00045946,-0.00015837,
 -0.00002789,0.00002138,-0.00001603,0.00006845,0.00014795,-0.00001759,0
 .00000256,0.00004489,-0.00005561,0.00004665,0.00007290,-0.00005855,0.0
 0005313,-0.00006882,0.00002990,0.00017438,0.00003635,-0.00000784,0.000
 07389,-0.00003892,0.00001638,-0.00412125,0.05491608,0.00007822,0.00000
 087,-0.00010879,-0.00015303,-0.00013713,-0.00017712,0.00008211,0.00008
 805,0.00010003,-0.00012499,-0.00003370,0.00002119,0.00004664,0.0000257
 5,-0.00000816,0.00000773,0.00000477,-0.00002512,-0.00000566,-0.0000011
 8,0.00001686,-0.00001241,-0.00000658,0.00000788,-0.00000911,0.00000110
 ,0.00000567,0.00001716,0.00002342,0.00000395,-0.00012896,-0.00003603,-
 0.00005069,0.00288178,0.00277225,0.00017628,-0.00025339,-0.00072738,-0
 .00054031,0.00253460,0.00019310,-0.00448881,-0.00095145,-0.00099730,0.
 00085156,0.00040653,-0.00007521,-0.00030466,0.00003818,0.00006767,0.00
 026197,-0.00021466,-0.00008675,-0.00021438,-0.00221952,-0.02672536,-0.
 32079413,-0.01192416,0.00541236,-0.00576934,0.00000666,-0.00004333,-0.
 00006416,-0.00003353,0.00000137,0.00005469,-0.00005554,-0.00001736,0.0
 0003093,0.00004162,-0.00005246,0.00007175,-0.00000519,-0.00000476,-0.0
 0000320,0.00000358,0.00000232,-0.00000034,0.00000475,0.00000073,-0.000
 00128,-0.00000874,-0.00000428,0.00000362,-0.00000995,-0.00000326,0.000
 00670,0.00000575,0.00000047,-0.00001481,0.00000660,-0.00000027,-0.0000
 0180,-0.00001038,-0.00000462,0.00000648,0.00000643,0.00000055,-0.00001
 658,0.00000661,0.00000633,0.00000182,-0.00000235,-0.00000776,-0.000000
 44,-0.00001342,0.00000401,-0.00000449,0.00007677,-0.00007744,0.0016464
 1,-0.00000707,-0.00003704,0.00003306,-0.00010291,-0.00015663,-0.000056
 17,-0.00001588,0.00003677,0.00002559,-0.00009127,-0.00012263,0.0001250
 9,-0.00003701,-0.00004355,0.00001714,-0.00000078,-0.00008326,-0.000018
 03,0.00000248,-0.00015025,0.00004044,-0.00003870,0.00012777,-0.0000914
 3,0.00007956,-0.00000245,0.00005747,0.01076957,0.02346852,0.33937606,0
 .00005479,-0.00006834,-0.00012352,-0.00046556,-0.00070436,-0.00037344,
 0.00013039,0.00034506,0.00001503,-0.00015342,-0.00010003,-0.00005549,0
 .00005486,0.00005212,0.00001533,-0.00000285,0.00000375,-0.00003034,-0.
 00000509,-0.00000170,0.00001864,0.00000293,-0.00000416,0.00001152,0.00
 000132,0.00000791,0.00001096,0.00001952,0.00006693,0.00002984,-0.00027
 413,-0.00011711,-0.00012979,-0.00075680,0.00415726,0.00203822,-0.00075
 596,-0.00034890,0.00018232,-0.00133776,-0.00341475,0.00152948,-0.00117
 562,0.00034685,0.00131891,0.00016389,0.00018062,-0.00021862,-0.0001624
 1,-0.00015405,0.00046082,-0.00012164,0.00109860,0.00055292,-0.24632175
 ,-0.07751306,0.09848685,-0.02703595,-0.00208160,0.00117199,0.00003839,
 -0.00009105,-0.00002453,-0.00005518,0.00000651,0.00002026,0.00001008,-
 0.00000272,0.00001512,-0.00004139,0.00002820,-0.00000252,-0.00001516,-
 0.00001614,-0.00000775,0.00000245,-0.00000249,-0.00000353,0.00000362,0
 .00000288,-0.00000209,-0.00000964,-0.00000474,0.00000427,-0.00001035,-
 0.00000518,0.00000642,0.00000215,-0.00000044,-0.00001689,0.00000550,-0
 .00000057,-0.00000409,-0.00001107,-0.00000507,0.00000631,0.00000593,0.
 00000710,-0.00001630,0.00000255,0.00000024,-0.00000409,-0.00001147,-0.
 00001346,-0.00001507,-0.00002264,-0.00000195,-0.00001043,-0.00044596,-
 0.00058376,-0.00057845,-0.00000157,0.00009166,-0.00001811,0.00008623,-
 0.00006154,-0.00008441,0.00000168,-0.00000822,0.00006993,0.00034428,0.
 00032473,-0.00045109,0.00006165,0.00014535,0.00011833,0.00010402,0.000
 26018,-0.00001187,-0.00000485,0.00007107,-0.00012987,-0.00004740,0.000
 89226,0.00024334,0.00021693,-0.00005022,0.00009325,0.00306992,-0.00075
 726,-0.00067326,0.27486248,-0.00011507,0.00010246,-0.00001685,0.000461
 78,0.00067094,0.00073117,0.00017320,-0.00040155,0.00017825,-0.00018449
 ,-0.00001803,-0.00001877,0.00001969,0.00007977,-0.00001016,0.00000381,
 -0.00000442,-0.00000634,-0.00000071,0.00000290,0.00000414,0.00000303,0
 .00000077,0.00000182,0.00000821,0.00000575,0.00001033,-0.00000169,-0.0
 0000014,0.00000894,0.00001068,0.00012038,-0.00002481,0.00023956,-0.007
 28688,-0.00215600,-0.00398366,-0.00123109,-0.00185031,-0.02016976,-0.0
 0343742,0.01179346,-0.00069151,0.00098984,0.00094976,0.00008218,0.0000
 8115,0.00023492,0.00016559,-0.00012460,-0.00031364,-0.00052251,-0.0011
 0217,-0.00038598,-0.08607720,-0.07591771,0.03912624,0.02927391,0.00590
 123,-0.00405585,-0.00000436,0.00004274,0.00000797,0.00000873,0.0000372
 0,0.00002315,0.00000567,-0.00001926,-0.00001768,-0.00000263,0.00003077
 ,0.00000321,0.00000017,-0.00000576,-0.00000145,0.00000102,-0.00000172,
 -0.00000127,-0.00000131,0.00000175,-0.00000167,-0.00000254,-0.00000104
 ,0.00000144,-0.00000243,-0.00000114,0.00000133,0.00000120,-0.00000409,
 -0.00000470,-0.00000112,0.00000088,-0.00000161,-0.00000719,-0.00000142
 ,0.00000070,0.00000535,0.00000203,-0.00001060,0.00000117,0.00000055,-0
 .00000217,0.00000024,0.00000139,-0.00000522,-0.00000144,0.00001288,-0.
 00000334,-0.00119174,-0.00244969,-0.00091591,-0.00001688,0.00012894,-0
 .00003040,0.00007461,0.00001331,-0.00005848,0.00006409,0.00010492,0.00
 008968,0.00000583,0.00055845,-0.00040340,0.00010946,0.00007352,0.00019
 323,0.00011146,0.00020451,-0.00001027,-0.00002765,0.00023609,0.0000711
 4,0.00150654,-0.00039437,-0.00010669,0.00018850,0.00048887,0.00010327,
 0.00245663,0.00219062,-0.00260022,0.07802359,0.08031787,0.00006596,-0.
 00000344,-0.00005895,-0.00023040,-0.00049377,-0.00024534,-0.00002010,0
 .00019655,-0.00003634,-0.00005276,-0.00005314,-0.00000790,0.00000693,0
 .00002280,0.00000358,0.00000084,0.00000216,-0.00001233,-0.00000232,-0.
 00000132,0.00000756,-0.00000543,-0.00000387,0.00000185,-0.00000627,0.0
 0000095,0.00000226,-0.00000534,0.00002218,0.00000393,-0.00009477,-0.00
 006357,-0.00004154,-0.00277445,0.00085904,-0.00064530,-0.00222583,-0.0
 0109002,-0.00117247,-0.00854158,-0.00176537,0.00562933,0.00055912,-0.0
 0002732,0.00028140,-0.00030486,0.00016536,-0.00001088,-0.00077854,-0.0
 0114780,-0.00059338,0.00057282,-0.00031688,-0.00031023,0.10666227,0.03
 860806,-0.10019609,-0.01554715,-0.00381115,0.00716493,0.00001273,-0.00
 000397,-0.00001583,-0.00001655,-0.00000533,0.00002192,-0.00003567,-0.0
 0001295,0.00000850,-0.00000818,0.00003678,-0.00000931,-0.00000622,-0.0
 0000555,-0.00000169,0.00000041,0.00000025,-0.00000020,0.00000261,-0.00
 000086,0.00000111,-0.00000286,-0.00000112,-0.00000043,-0.00000326,-0.0
 0000034,0.00000090,0.00000123,0.00000273,-0.00000544,0.00000410,-0.000
 00137,0.00000151,-0.00000122,-0.00000238,0.00000083,0.00000167,0.00000
 140,-0.00000445,0.00000052,-0.00000020,0.00000039,-0.00000607,-0.00000
 359,-0.00000408,-0.00000688,-0.00000202,-0.00000618,-0.00019644,-0.000
 96294,0.00002766,0.00003002,0.00010909,0.00001593,0.00002127,0.0000737
 0,0.00006489,-0.00001579,-0.00000267,0.00000693,0.00016679,0.00009194,
 -0.00114294,-0.00000098,0.00006036,0.00005220,0.00020462,0.00024052,0.
 00028222,-0.00006223,0.00013455,0.00002124,0.00001763,-0.00035470,0.00
 028426,-0.00009523,-0.00006238,-0.00008716,0.02615031,0.01009195,-0.01
 018842,-0.10343451,-0.04052036,0.10091155\\-0.00113768,-0.00010085,0.0
 0186173,0.00039006,-0.00100887,-0.00032978,-0.00213454,0.03045949,-0.0
 0783981,-0.00207941,-0.00275454,-0.00846545,-0.01578806,-0.00996496,-0
 .00343429,-0.00006368,0.00041293,0.00313952,0.00073331,-0.00006305,-0.
 00194263,-0.00030866,0.00032227,-0.00108801,-0.00283138,-0.00210809,-0
 .00289585,-0.00107830,-0.00604191,0.00004848,0.01815411,-0.01156188,0.
 01280023,0.00174385,0.03064593,0.00099577,0.00283808,-0.00007078,0.007
 09552,0.01612706,-0.00924519,0.00393597,0.00001212,-0.00041924,-0.0031
 7037,0.00305792,-0.00060407,0.00321045,0.00039751,0.00056217,0.0010169
 1,-0.00049862,0.00054806,0.00197058,0.00135260,-0.00582033,0.00093165,
 -0.01878029,-0.01419144,-0.00792288,-0.00004147,-0.00040122,-0.0005627
 9,0.00044557,-0.00023123,-0.00019544,0.00000010,0.00025319,-0.00000529
 ,0.00030089,-0.00094974,0.00000174,0.00385320,0.00066242,0.00154180,0.
 00028169,0.00022984,0.00044115,-0.00048799,0.00017613,-0.00003717,0.00
 076486,0.00032458,-0.00001910,0.00075966,0.00019261,-0.00020319,0.0000
 5455,0.00010795,0.00131474,-0.00042844,0.00056774,0.00021524,0.0009106
 3,0.00162403,0.00073997,0.00024905,-0.00208844,0.00338518,0.00147453,0
 .00125498,0.00082396,0.00071637,0.00053727,0.00064249,0.00090649,-0.00
 089488,0.00087029,-0.00407525,0.00032130,-0.00110718,-0.00167226,0.000
 82169,-0.00089851,-0.00107994,0.00125810,-0.00089030,-0.00012387,-0.00
 314095,-0.00285421,0.00038498,0.00051701,-0.00038393,-0.00016666,-0.00
 019945,-0.00132975,-0.00077772,0.00020255,0.00023913,-0.00028627,0.000
 09676,-0.00043780,0.00052385,0.00021514,-0.00002577,-0.00079597,0.0002
 9075,0.00004034,-0.00083333,0.00030003,-0.00065351,-0.00096323,-0.0010
 4382,-0.00056983\\\@

 Writing a WFNX file to "047_lig_c2.wfx"


 Any fool can criticize, condemn, and complain -- and most do.
 -- Dale Carnegie
 Job cpu time:       0 days  2 hours  1 minutes 51.4 seconds.
 Elapsed time:       0 days  0 hours 15 minutes 17.2 seconds.
 File lengths (MBytes):  RWF=    895 Int=      0 D2E=      0 Chk=     13 Scr=      1
 Normal termination of Gaussian 16 at Fri Nov 18 10:11:17 2022.
