 Entering Gaussian System, Link 0=g16
 Initial command:
 /software/gaussian/G16-A.03/avx/g16/l1.exe "/scratch/lcmd/1334143.slurm/Gau-12683.inp" -scrdir="/scratch/lcmd/1334143.slurm/"
 Entering Link 1 = /software/gaussian/G16-A.03/avx/g16/l1.exe PID=     12684.
  
 Copyright (c) 1988,1990,1992,1993,1995,1998,2003,2009,2016,
            Gaussian, Inc.  All Rights Reserved.
  
 This is part of the Gaussian(R) 16 program.  It is based on
 the Gaussian(R) 09 system (copyright 2009, Gaussian, Inc.),
 the Gaussian(R) 03 system (copyright 2003, Gaussian, Inc.),
 the Gaussian(R) 98 system (copyright 1998, Gaussian, Inc.),
 the Gaussian(R) 94 system (copyright 1995, Gaussian, Inc.),
 the Gaussian 92(TM) system (copyright 1992, Gaussian, Inc.),
 the Gaussian 90(TM) system (copyright 1990, Gaussian, Inc.),
 the Gaussian 88(TM) system (copyright 1988, Gaussian, Inc.),
 the Gaussian 86(TM) system (copyright 1986, Carnegie Mellon
 University), and the Gaussian 82(TM) system (copyright 1983,
 Carnegie Mellon University). Gaussian is a federally registered
 trademark of Gaussian, Inc.
  
 This software contains proprietary and confidential information,
 including trade secrets, belonging to Gaussian, Inc.
  
 This software is provided under written license and may be
 used, copied, transmitted, or stored only in accord with that
 written license.
  
 The following legend is applicable only to US Government
 contracts under FAR:
  
                    RESTRICTED RIGHTS LEGEND
  
 Use, reproduction and disclosure by the US Government is
 subject to restrictions as set forth in subparagraphs (a)
 and (c) of the Commercial Computer Software - Restricted
 Rights clause in FAR 52.227-19.
  
 Gaussian, Inc.
 340 Quinnipiac St., Bldg. 40, Wallingford CT 06492
  
  
 ---------------------------------------------------------------
 Warning -- This program may not be used in any manner that
 competes with the business of Gaussian, Inc. or will provide
 assistance to any competitor of Gaussian, Inc.  The licensee
 of this program is prohibited from giving any competitor of
 Gaussian, Inc. access to this program.  By using this program,
 the user acknowledges that Gaussian, Inc. is engaged in the
 business of creating and licensing software in the field of
 computational chemistry and represents and warrants to the
 licensee that it is not a competitor of Gaussian, Inc. and that
 it will not use this program in any manner prohibited above.
 ---------------------------------------------------------------
  

 Cite this work as:
 Gaussian 16, Revision A.03,
 M. J. Frisch, G. W. Trucks, H. B. Schlegel, G. E. Scuseria, 
 M. A. Robb, J. R. Cheeseman, G. Scalmani, V. Barone, 
 G. A. Petersson, H. Nakatsuji, X. Li, M. Caricato, A. V. Marenich, 
 J. Bloino, B. G. Janesko, R. Gomperts, B. Mennucci, H. P. Hratchian, 
 J. V. Ortiz, A. F. Izmaylov, J. L. Sonnenberg, D. Williams-Young, 
 F. Ding, F. Lipparini, F. Egidi, J. Goings, B. Peng, A. Petrone, 
 T. Henderson, D. Ranasinghe, V. G. Zakrzewski, J. Gao, N. Rega, 
 G. Zheng, W. Liang, M. Hada, M. Ehara, K. Toyota, R. Fukuda, 
 J. Hasegawa, M. Ishida, T. Nakajima, Y. Honda, O. Kitao, H. Nakai, 
 T. Vreven, K. Throssell, J. A. Montgomery, Jr., J. E. Peralta, 
 F. Ogliaro, M. J. Bearpark, J. J. Heyd, E. N. Brothers, K. N. Kudin, 
 V. N. Staroverov, T. A. Keith, R. Kobayashi, J. Normand, 
 K. Raghavachari, A. P. Rendell, J. C. Burant, S. S. Iyengar, 
 J. Tomasi, M. Cossi, J. M. Millam, M. Klene, C. Adamo, R. Cammi, 
 J. W. Ochterski, R. L. Martin, K. Morokuma, O. Farkas, 
 J. B. Foresman, and D. J. Fox, Gaussian, Inc., Wallingford CT, 2016.
 
 ******************************************
 Gaussian 16:  ES64L-G16RevA.03 25-Dec-2016
                 4-Aug-2022 
 ******************************************
 %nprocs=8
 Will use up to    8 processors via shared memory.
 %mem=32000MB
 %chk=box_17.chk
 ----------------------------------------------------------------------
 #p pop=(regular,nbo,savenbos) freq=noraman def2svp empiricaldispersion
 =gd3bj output=wfx pbe1pbe
 ----------------------------------------------------------------------
 1/10=4,30=1,38=1/1,3;
 2/12=2,17=6,18=5,40=1/2;
 3/5=43,7=101,11=2,25=1,30=1,71=2,74=-13,124=41,140=1/1,2,3;
 4//1;
 5/5=2,38=5,98=1/2;
 8/6=4,10=90,11=11/1;
 11/6=1,8=1,9=11,15=111,16=1/1,2,10;
 10/6=1/2;
 6/28=1,40=1,73=1/1,7;
 7/8=1,10=1,25=1/1,2,3,16;
 1/10=4,30=1/3;
 99/6=200/99;
 Leave Link    1 at Thu Aug  4 09:26:01 2022, MaxMem=  4194304000 cpu:               0.5 elap:               0.1
 (Enter /software/gaussian/G16-A.03/avx/g16/l101.exe)
 ------
 box_17
 ------
 Symbolic Z-matrix:
 Charge =  0 Multiplicity = 1
 N                     1.14038   0.48724  -0.78239 
 C                     0.99498   1.75397  -0.76167 
 O                     1.87124   2.46391  -1.4764 
 C                     2.65495   1.51232  -2.22333 
 C                     2.38148   0.1809   -1.52056 
 C                     0.00001   2.58603   0.00001 
 C                    -0.99495   1.75396   0.76168 
 N                    -1.14037   0.48723   0.78238 
 C                    -2.38146   0.18088   1.52057 
 C                    -2.65492   1.51229   2.22336 
 O                    -1.8712    2.46389   1.47644 
 C                    -3.42113  -0.28184   0.52247 
 C                     3.42113  -0.28185  -0.52245 
 C                     0.78669   3.46284   0.99379 
 C                    -0.7867    3.46282  -0.99379 
 C                     3.49468  -1.64159  -0.20123 
 C                     4.38915  -2.08355   0.77113 
 C                     5.21662  -1.17664   1.43094 
 C                     5.14119   0.18069   1.12183 
 C                     4.24385   0.62613   0.15358 
 C                    -3.49476  -1.64159   0.20129 
 C                    -4.38925  -2.08352  -0.77107 
 C                    -5.21667  -1.17658  -1.43089 
 C                    -5.14117   0.18075  -1.12183 
 C                    -4.2438    0.62617  -0.15359 
 H                     3.70358   1.83121  -2.20317 
 H                     2.28865   1.52029  -3.26099 
 H                     2.15069  -0.63275  -2.2222 
 H                    -2.15066  -0.63279   2.22219 
 H                    -2.28861   1.52024   3.26102 
 H                    -3.70354   1.83119   2.20322 
 H                     1.36439   2.83858   1.69137 
 H                     1.48132   4.11263   0.44575 
 H                     0.08846   4.08415   1.56955 
 H                    -1.36439   2.83854  -1.69135 
 H                    -1.48133   4.11261  -0.44575 
 H                    -0.08848   4.08413  -1.56956 
 H                     2.81962  -2.34368  -0.69977 
 H                     4.43258  -3.14674   1.01773 
 H                     5.91804  -1.52635   2.19219 
 H                     5.78254   0.89816   1.63944 
 H                     4.18669   1.69623  -0.06562 
 H                    -2.81974  -2.3437    0.69984 
 H                    -4.43275  -3.14672  -1.01763 
 H                    -5.91811  -1.52627  -2.19214 
 H                    -5.78247   0.89825  -1.63945 
 H                    -4.18658   1.69627   0.06559 
 
 ITRead=  0  0  0  0  0  0  0  0  0  0  0  0  0  0  0  0  0  0  0  0
 ITRead=  0  0  0  0  0  0  0  0  0  0  0  0  0  0  0  0  0  0  0  0
 ITRead=  0  0  0  0  0  0  0
 MicOpt= -1 -1 -1 -1 -1 -1 -1 -1 -1 -1 -1 -1 -1 -1 -1 -1 -1 -1 -1 -1
 MicOpt= -1 -1 -1 -1 -1 -1 -1 -1 -1 -1 -1 -1 -1 -1 -1 -1 -1 -1 -1 -1
 MicOpt= -1 -1 -1 -1 -1 -1 -1
 NAtoms=     47 NQM=       47 NQMF=       0 NMMI=      0 NMMIF=      0
                NMic=       0 NMicF=      0.
                    Isotopes and Nuclear Properties:
 (Nuclear quadrupole moments (NQMom) in fm**2, nuclear magnetic moments (NMagM)
  in nuclear magnetons)

  Atom         1           2           3           4           5           6           7           8           9          10
 IAtWgt=          14          12          16          12          12          12          12          14          12          12
 AtmWgt=  14.0030740  12.0000000  15.9949146  12.0000000  12.0000000  12.0000000  12.0000000  14.0030740  12.0000000  12.0000000
 NucSpn=           2           0           0           0           0           0           0           2           0           0
 AtZEff=  -0.0000000  -0.0000000  -0.0000000  -0.0000000  -0.0000000  -0.0000000  -0.0000000  -0.0000000  -0.0000000  -0.0000000
 NQMom=    2.0440000   0.0000000   0.0000000   0.0000000   0.0000000   0.0000000   0.0000000   2.0440000   0.0000000   0.0000000
 NMagM=    0.4037610   0.0000000   0.0000000   0.0000000   0.0000000   0.0000000   0.0000000   0.4037610   0.0000000   0.0000000
 AtZNuc=   7.0000000   6.0000000   8.0000000   6.0000000   6.0000000   6.0000000   6.0000000   7.0000000   6.0000000   6.0000000

  Atom        11          12          13          14          15          16          17          18          19          20
 IAtWgt=          16          12          12          12          12          12          12          12          12          12
 AtmWgt=  15.9949146  12.0000000  12.0000000  12.0000000  12.0000000  12.0000000  12.0000000  12.0000000  12.0000000  12.0000000
 NucSpn=           0           0           0           0           0           0           0           0           0           0
 AtZEff=  -0.0000000  -0.0000000  -0.0000000  -0.0000000  -0.0000000  -0.0000000  -0.0000000  -0.0000000  -0.0000000  -0.0000000
 NQMom=    0.0000000   0.0000000   0.0000000   0.0000000   0.0000000   0.0000000   0.0000000   0.0000000   0.0000000   0.0000000
 NMagM=    0.0000000   0.0000000   0.0000000   0.0000000   0.0000000   0.0000000   0.0000000   0.0000000   0.0000000   0.0000000
 AtZNuc=   8.0000000   6.0000000   6.0000000   6.0000000   6.0000000   6.0000000   6.0000000   6.0000000   6.0000000   6.0000000

  Atom        21          22          23          24          25          26          27          28          29          30
 IAtWgt=          12          12          12          12          12           1           1           1           1           1
 AtmWgt=  12.0000000  12.0000000  12.0000000  12.0000000  12.0000000   1.0078250   1.0078250   1.0078250   1.0078250   1.0078250
 NucSpn=           0           0           0           0           0           1           1           1           1           1
 AtZEff=  -0.0000000  -0.0000000  -0.0000000  -0.0000000  -0.0000000  -0.0000000  -0.0000000  -0.0000000  -0.0000000  -0.0000000
 NQMom=    0.0000000   0.0000000   0.0000000   0.0000000   0.0000000   0.0000000   0.0000000   0.0000000   0.0000000   0.0000000
 NMagM=    0.0000000   0.0000000   0.0000000   0.0000000   0.0000000   2.7928460   2.7928460   2.7928460   2.7928460   2.7928460
 AtZNuc=   6.0000000   6.0000000   6.0000000   6.0000000   6.0000000   1.0000000   1.0000000   1.0000000   1.0000000   1.0000000

  Atom        31          32          33          34          35          36          37          38          39          40
 IAtWgt=           1           1           1           1           1           1           1           1           1           1
 AtmWgt=   1.0078250   1.0078250   1.0078250   1.0078250   1.0078250   1.0078250   1.0078250   1.0078250   1.0078250   1.0078250
 NucSpn=           1           1           1           1           1           1           1           1           1           1
 AtZEff=  -0.0000000  -0.0000000  -0.0000000  -0.0000000  -0.0000000  -0.0000000  -0.0000000  -0.0000000  -0.0000000  -0.0000000
 NQMom=    0.0000000   0.0000000   0.0000000   0.0000000   0.0000000   0.0000000   0.0000000   0.0000000   0.0000000   0.0000000
 NMagM=    2.7928460   2.7928460   2.7928460   2.7928460   2.7928460   2.7928460   2.7928460   2.7928460   2.7928460   2.7928460
 AtZNuc=   1.0000000   1.0000000   1.0000000   1.0000000   1.0000000   1.0000000   1.0000000   1.0000000   1.0000000   1.0000000

  Atom        41          42          43          44          45          46          47
 IAtWgt=           1           1           1           1           1           1           1
 AtmWgt=   1.0078250   1.0078250   1.0078250   1.0078250   1.0078250   1.0078250   1.0078250
 NucSpn=           1           1           1           1           1           1           1
 AtZEff=  -0.0000000  -0.0000000  -0.0000000  -0.0000000  -0.0000000  -0.0000000  -0.0000000
 NQMom=    0.0000000   0.0000000   0.0000000   0.0000000   0.0000000   0.0000000   0.0000000
 NMagM=    2.7928460   2.7928460   2.7928460   2.7928460   2.7928460   2.7928460   2.7928460
 AtZNuc=   1.0000000   1.0000000   1.0000000   1.0000000   1.0000000   1.0000000   1.0000000
 Leave Link  101 at Thu Aug  4 09:26:01 2022, MaxMem=  4194304000 cpu:               0.7 elap:               0.1
 (Enter /software/gaussian/G16-A.03/avx/g16/l103.exe)

 GradGradGradGradGradGradGradGradGradGradGradGradGradGradGradGradGradGrad
 Berny optimization.
 Initialization pass.
 Trust Radius=3.00D-01 FncErr=1.00D-07 GrdErr=1.00D-07 EigMax=2.50D+02 EigMin=1.00D-04
 Number of steps in this run=      2 maximum allowed number of steps=      2.
 GradGradGradGradGradGradGradGradGradGradGradGradGradGradGradGradGradGrad

 Leave Link  103 at Thu Aug  4 09:26:01 2022, MaxMem=  4194304000 cpu:               0.1 elap:               0.0
 (Enter /software/gaussian/G16-A.03/avx/g16/l202.exe)
                          Input orientation:                          
 ---------------------------------------------------------------------
 Center     Atomic      Atomic             Coordinates (Angstroms)
 Number     Number       Type             X           Y           Z
 ---------------------------------------------------------------------
      1          7           0        1.140380    0.487240   -0.782390
      2          6           0        0.994980    1.753970   -0.761670
      3          8           0        1.871240    2.463910   -1.476400
      4          6           0        2.654950    1.512320   -2.223330
      5          6           0        2.381480    0.180900   -1.520560
      6          6           0        0.000010    2.586030    0.000010
      7          6           0       -0.994950    1.753960    0.761680
      8          7           0       -1.140370    0.487230    0.782380
      9          6           0       -2.381460    0.180880    1.520570
     10          6           0       -2.654920    1.512290    2.223360
     11          8           0       -1.871200    2.463890    1.476440
     12          6           0       -3.421130   -0.281840    0.522470
     13          6           0        3.421130   -0.281850   -0.522450
     14          6           0        0.786690    3.462840    0.993790
     15          6           0       -0.786700    3.462820   -0.993790
     16          6           0        3.494680   -1.641590   -0.201230
     17          6           0        4.389150   -2.083550    0.771130
     18          6           0        5.216620   -1.176640    1.430940
     19          6           0        5.141190    0.180690    1.121830
     20          6           0        4.243850    0.626130    0.153580
     21          6           0       -3.494760   -1.641590    0.201290
     22          6           0       -4.389250   -2.083520   -0.771070
     23          6           0       -5.216670   -1.176580   -1.430890
     24          6           0       -5.141170    0.180750   -1.121830
     25          6           0       -4.243800    0.626170   -0.153590
     26          1           0        3.703580    1.831210   -2.203170
     27          1           0        2.288650    1.520290   -3.260990
     28          1           0        2.150690   -0.632750   -2.222200
     29          1           0       -2.150660   -0.632790    2.222190
     30          1           0       -2.288610    1.520240    3.261020
     31          1           0       -3.703540    1.831190    2.203220
     32          1           0        1.364390    2.838580    1.691370
     33          1           0        1.481320    4.112630    0.445750
     34          1           0        0.088460    4.084150    1.569550
     35          1           0       -1.364390    2.838540   -1.691350
     36          1           0       -1.481330    4.112610   -0.445750
     37          1           0       -0.088480    4.084130   -1.569560
     38          1           0        2.819620   -2.343680   -0.699770
     39          1           0        4.432580   -3.146740    1.017730
     40          1           0        5.918040   -1.526350    2.192190
     41          1           0        5.782540    0.898160    1.639440
     42          1           0        4.186690    1.696230   -0.065620
     43          1           0       -2.819740   -2.343700    0.699840
     44          1           0       -4.432750   -3.146720   -1.017630
     45          1           0       -5.918110   -1.526270   -2.192140
     46          1           0       -5.782470    0.898250   -1.639450
     47          1           0       -4.186580    1.696270    0.065590
 ---------------------------------------------------------------------
                    Distance matrix (angstroms):
                    1          2          3          4          5
     1  N    0.000000
     2  C    1.275216   0.000000
     3  O    2.218790   1.335172   0.000000
     4  C    2.328308   2.224937   1.441398   0.000000
     5  C    1.476167   2.229988   2.339750   1.530147   0.000000
     6  C    2.513466   1.504143   2.386672   3.625576   3.710550
     7  C    2.923759   2.506076   3.705142   4.721276   4.368457
     8  N    2.765922   2.923772   4.251958   4.948692   4.219099
     9  C    4.219104   4.368476   5.681506   6.415212   5.651024
    10  C    4.948693   4.721290   5.922831   6.925877   6.415205
    11  O    4.251949   3.705146   4.767087   5.922822   5.681491
    12  C    4.806404   5.029470   6.288386   6.904866   6.169148
    13  C    2.420927   3.176160   3.294143   2.588256   1.513682
    14  C    3.483405   2.458711   2.876795   4.200570   4.431302
    15  C    3.551395   2.479603   2.880170   4.142605   4.591933
    16  C    3.226824   4.253519   4.595296   3.839425   2.510242
    17  C    4.424578   5.347563   5.663096   4.990443   3.796092
    18  C    4.927784   5.587330   5.735660   5.210216   4.311877
    19  C    4.441453   4.818074   4.759881   4.375468   3.820762
    20  C    3.244512   3.558773   3.415194   2.993265   2.543501
    21  C    5.194619   5.710944   6.961590   7.324265   6.388774
    22  C    6.098011   6.611834   7.769836   8.041137   7.178587
    23  C    6.603100   6.900766   7.968294   8.355869   7.718982
    24  C    6.298176   6.344846   7.383254   7.985353   7.533210
    25  C    5.422553   5.393191   6.520800   7.256848   6.779470
    26  H    3.224107   3.069267   2.070259   1.096231   2.222032
    27  H    2.920475   2.823967   2.061410   1.100444   2.198108
    28  H    2.085223   3.027416   3.197439   2.203544   1.098904
    29  H    4.594879   4.949252   6.280509   6.888979   5.933849
    30  H    5.401317   5.197945   6.374795   7.383559   6.816677
    31  H    5.846677   5.556314   6.709554   7.754123   7.322395
    32  H    3.420302   2.707443   3.229867   4.330056   4.291180
    33  H    3.842918   2.694006   2.562221   3.906790   4.487222
    34  H    4.424468   3.418494   3.883464   5.252344   5.481066
    35  H    3.553687   2.758120   3.264330   4.265789   4.596059
    36  H    4.486647   3.434399   3.875587   5.199049   5.615591
    37  H    3.881669   2.693737   2.544463   3.816809   4.619341
    38  H    3.292534   4.485965   4.961401   4.149348   2.690570
    39  H    5.223488   6.245023   6.652860   5.947376   4.660806
    40  H    5.977349   6.612285   6.764416   6.275196   5.404301
    41  H    5.252025   5.423880   5.240067   5.007994   4.697581
    42  H    3.354910   3.267236   2.817968   2.652501   2.769812
    43  H    5.088593   5.786104   7.060767   7.306575   6.193260
    44  H    6.657385   7.317276   8.451623   8.567138   7.599982
    45  H    7.474216   7.784410   8.781104   9.095678   8.499920
    46  H    6.987799   6.887422   7.813908   8.479862   8.196268
    47  H    5.527868   5.247500   6.297951   7.216615   6.924712
                    6          7          8          9         10
     6  C    0.000000
     7  C    1.504137   0.000000
     8  N    2.513470   1.275218   0.000000
     9  C    3.710559   2.230001   1.476170   0.000000
    10  C    3.625584   2.224952   2.328311   1.530146   0.000000
    11  O    2.386669   1.335177   2.218787   2.339754   1.441405
    12  C    4.494646   3.176169   2.420927   1.513680   2.588244
    13  C    4.494637   5.029441   4.806386   6.169125   6.904838
    14  C    1.541188   2.479594   3.551409   4.591942   4.142604
    15  C    1.541205   2.458708   3.483389   4.431297   4.200579
    16  C    5.488714   5.710843   5.194521   6.388663   7.324150
    17  C    6.454778   6.611740   6.097920   7.178472   8.041017
    18  C    6.589254   6.900719   6.603061   7.718919   8.355801
    19  C    5.785834   6.344848   6.298189   7.533210   7.985353
    20  C    4.677068   5.393219   5.422592   6.779502   7.256879
    21  C    5.488780   4.253569   3.226870   2.510246   3.839408
    22  C    6.454833   5.347602   4.424611   3.796096   4.990427
    23  C    6.589268   5.587338   4.927783   4.311871   5.210195
    24  C    5.785813   4.818064   4.441435   3.820769   4.375470
    25  C    4.677025   3.558744   3.244476   2.543503   2.993266
    26  H    4.374950   5.556302   5.846678   7.322400   7.754121
    27  H    4.124051   5.197933   5.401318   6.816690   7.383566
    28  H    4.463652   4.949240   4.594881   5.933861   6.888983
    29  H    4.463661   3.027430   2.085230   1.098908   2.203553
    30  H    4.124061   2.823983   2.920483   2.198107   1.100447
    31  H    4.374951   3.069277   3.224105   2.222033   1.096224
    32  H    2.187696   2.758117   3.553721   4.596078   4.265784
    33  H    2.173355   3.434392   4.486658   5.615600   5.199052
    34  H    2.171553   2.693737   3.881687   4.619353   3.816813
    35  H    2.187704   2.707426   3.420261   4.291156   4.330053
    36  H    2.173365   2.694009   3.842907   4.487221   3.906805
    37  H    2.171563   3.418488   4.424453   5.481060   5.252354
    38  H    5.722057   5.785969   5.088452   6.193105   7.306421
    39  H    7.317656   7.317138   6.657244   7.599806   8.566957
    40  H    7.532622   7.784358   7.474170   8.499848   9.095600
    41  H    6.242939   6.887469   6.987854   8.196311   8.479909
    42  H    4.280694   5.247585   5.527961   6.924802   7.216709
    43  H    5.722149   4.486034   3.292607   2.690575   4.149330
    44  H    7.317744   6.245084   5.223542   4.660812   5.947358
    45  H    7.532641   6.612297   5.977353   5.404301   6.275181
    46  H    6.242876   5.423837   5.251980   4.697575   5.007985
    47  H    4.280597   3.267166   3.354841   2.769807   2.652509
                   11         12         13         14         15
    11  O    0.000000
    12  C    3.294143   0.000000
    13  C    6.288355   6.921588   0.000000
    14  C    2.880144   5.652479   4.823066   0.000000
    15  C    2.876810   4.823043   5.652482   2.534962   0.000000
    16  C    6.961481   7.085273   1.399101   5.900550   6.709200
    17  C    7.769727   8.019256   2.420028   6.617381   7.788876
    18  C    7.968232   8.731364   2.800030   6.429631   7.965159
    19  C    7.383249   8.595725   2.424089   5.454409   7.098458
    20  C    6.520825   7.727380   1.399397   4.550256   5.888098
    21  C    4.595315   1.399106   7.085353   6.709253   5.900577
    22  C    5.663110   2.420032   8.019343   7.788915   6.617391
    23  C    5.735657   2.800025   8.731403   7.965150   6.429597
    24  C    4.759878   2.424098   8.595710   7.098414   5.454337
    25  C    3.415178   1.399402   7.727335   5.888039   4.550171
    26  H    6.709544   7.915528   2.714704   4.625042   4.928221
    27  H    6.374792   7.082643   3.468403   4.912488   4.286187
    28  H    6.280503   6.221055   2.150883   5.383024   5.187576
    29  H    3.197447   2.150885   6.221017   5.187598   5.383023
    30  H    2.061415   3.468393   7.082606   4.286198   4.912510
    31  H    2.070263   2.714696   7.915500   4.928201   4.625045
    32  H    3.264296   5.831342   4.343761   1.100025   3.496705
    33  H    3.875572   6.584168   4.900176   1.097764   2.763773
    34  H    2.544441   5.698725   5.877509   1.097748   2.778969
    35  H    3.229878   4.343725   5.831326   3.496695   1.100019
    36  H    2.562243   4.900149   6.584169   2.763764   1.097764
    37  H    3.883476   5.877486   5.698735   2.778972   1.097747
    38  H    7.060624   6.685209   2.155087   6.380958   6.841596
    39  H    8.451463   8.374586   3.406285   7.548486   8.658717
    40  H    8.781035   9.568535   3.892635   7.256647   8.944038
    41  H    7.813950   9.345992   3.412103   5.652695   7.527702
    42  H    6.298038   7.882737   2.169695   3.975331   5.358820
    43  H    4.961427   2.155086   6.685333   6.841685   6.381012
    44  H    6.652884   3.406291   8.374731   8.658790   7.548528
    45  H    6.764417   3.892637   9.568587   8.944032   7.256613
    46  H    5.240041   3.412102   9.345939   7.527612   5.652576
    47  H    2.817929   2.169694   7.882639   5.358707   3.975194
                   16         17         18         19         20
    16  C    0.000000
    17  C    1.393158   0.000000
    18  C    2.417692   1.393751   0.000000
    19  C    2.789657   2.411501   1.394125   0.000000
    20  C    2.414477   2.782956   2.414106   1.393249   0.000000
    21  C    7.001021   7.916823   8.810015   8.873992   8.064175
    22  C    7.916841   8.912838   9.896667   9.976924   9.095471
    23  C    8.809990   9.896629  10.818670  10.753782   9.760212
    24  C    8.873913   9.976841  10.753741  10.524302   9.481753
    25  C    8.064061   9.095357   9.760144   9.481729   8.493206
    26  H    4.013944   4.964052   4.954110   3.980774   2.701551
    27  H    4.562250   5.801530   6.153101   5.398206   4.035049
    28  H    2.628381   4.009432   4.800122   4.559310   3.407408
    29  H    6.225794   6.854152   7.429580   7.419139   6.837674
    30  H    7.445186   7.986196   8.182349   7.846812   7.288940
    31  H    8.346014   9.103170   9.445248   9.062163   8.295433
    32  H    5.309613   5.850075   5.570412   4.653276   3.943479
    33  H    6.130518   6.852298   6.549767   5.414045   4.457871
    34  H    6.893627   7.561345   7.348003   6.400589   5.588393
    35  H    6.775145   7.962035   8.317455   7.569724   6.304830
    36  H    7.611260   8.621817   8.738459   7.859712   6.729965
    37  H    6.891678   7.972972   8.051260   7.059028   5.804831
    38  H    1.094157   2.166712   3.412846   3.883344   3.402412
    39  H    2.151975   1.092278   2.160267   3.403639   3.875167
    40  H    3.407993   2.160414   1.092606   2.159433   3.404705
    41  H    3.882357   3.403835   2.160679   1.092709   2.156234
    42  H    3.411497   3.876581   3.399092   2.148946   1.093814
    43  H    6.416914   7.213935   8.153503   8.362238   7.681965
    44  H    8.110245   9.063990  10.148254  10.359019   9.533599
    45  H    9.621727  10.739234  11.714570  11.670657  10.648975
    46  H    9.725470  10.870321  11.606569  11.290080  10.189019
    47  H    8.379395   9.398296   9.926629   9.508939   8.498535
                   21         22         23         24         25
    21  C    0.000000
    22  C    1.393161   0.000000
    23  C    2.417689   1.393745   0.000000
    24  C    2.789666   2.411501   1.394117   0.000000
    25  C    2.414485   2.782958   2.414100   1.393255   0.000000
    26  H    8.346129   9.103292   9.445320   9.062170   8.295405
    27  H    7.445314   7.986332   8.182433   7.846821   7.288915
    28  H    6.225927   6.854293   7.429665   7.419152   6.837655
    29  H    2.628368   4.009427   4.800116   4.559327   3.407425
    30  H    4.562227   5.801511   6.153080   5.398213   4.035058
    31  H    4.013915   4.964026   4.954089   3.980790   2.701575
    32  H    6.775220   7.962101   8.317474   7.569707   6.304794
    33  H    7.611319   8.621863   8.738455   7.859667   6.729904
    34  H    6.891712   7.972988   8.051231   7.058972   5.804766
    35  H    5.309626   5.850074   5.570376   4.653200   3.943385
    36  H    6.130528   6.852289   6.549717   5.413967   4.457787
    37  H    6.893658   7.561357   7.347968   6.400509   5.588304
    38  H    6.416871   7.213915   8.153442   8.362120   7.681811
    39  H    8.110165   9.063936  10.148167  10.358890   9.533436
    40  H    9.621734  10.739254  11.714556  11.670606  10.648898
    41  H    9.725580  10.870432  11.606640  11.290116  10.189035
    42  H    8.379556   9.398453   9.926741   9.509008   8.498584
    43  H    1.094149   2.166710   3.412836   3.883345   3.402413
    44  H    2.151978   1.092281   2.160270   3.403641   3.875173
    45  H    3.407995   2.160412   1.092613   2.159425   3.404702
    46  H    3.882361   3.403836   2.160682   1.092704   2.156227
    47  H    3.411501   3.876582   3.399089   2.148955   1.093814
                   26         27         28         29         30
    26  H    0.000000
    27  H    1.793790   0.000000
    28  H    2.912547   2.394514   0.000000
    29  H    7.741268   7.376211   6.184999   0.000000
    30  H    8.115443   7.967931   7.376209   2.394522   0.000000
    31  H    8.618683   8.115454   7.741276   2.912558   1.793783
    32  H    4.653391   5.207496   5.290031   4.968677   4.188822
    33  H    4.142474   4.594772   5.484947   6.234262   5.372020
    34  H    5.690189   5.894771   6.393693   5.262045   3.883963
    35  H    5.192398   4.188825   4.968646   5.290005   5.207501
    36  H    5.930987   5.372006   6.234243   5.484955   4.594804
    37  H    4.456100   3.883936   5.262013   6.393691   5.894795
    38  H    4.524522   4.666052   2.385905   6.014040   7.530720
    39  H    5.973745   6.684688   4.693007   7.149106   8.484542
    40  H    5.957871   7.224380   5.871821   8.118083   8.818912
    41  H    4.467472   6.050498   5.517815   8.100560   8.255905
    42  H    2.195617   3.720739   3.770979   7.128844   7.281965
    43  H    8.271097   7.530886   6.014220   2.385882   4.666023
    44  H    9.611720   8.484743   7.149316   4.692996   6.684661
    45  H   10.190668   8.819007   8.118178   5.871822   7.224365
    46  H    9.548473   8.255865   8.100530   5.517825   6.050499
    47  H    8.210975   7.281875   7.128766   3.770996   3.720759
                   31         32         33         34         35
    31  H    0.000000
    32  H    5.192373   0.000000
    33  H    5.930973   1.785622   0.000000
    34  H    4.456078   1.787255   1.789915   0.000000
    35  H    4.653391   4.346152   3.780022   3.780977   0.000000
    36  H    4.142480   3.780021   3.093876   2.554699   1.785623
    37  H    5.690190   3.780991   2.554713   3.144093   1.787253
    38  H    8.270944   5.889912   6.692324   7.343436   6.733838
    39  H    9.611536   6.759559   7.857197   8.453500   8.761709
    40  H   10.190584   6.327651   7.384621   8.114764   9.336377
    41  H    9.548513   4.825762   5.500746   6.525179   8.120212
    42  H    8.211064   3.515303   3.663266   5.017114   5.895961
    43  H    4.524485   6.733951   7.761951   7.108536   5.889944
    44  H    5.973710   8.761811   9.477123   8.911808   6.759591
    45  H    5.957856   9.336400   9.669913   9.039138   6.327616
    46  H    4.467487   8.120151   8.212365   7.410497   4.825645
    47  H    2.195676   5.895871   6.173201   5.122483   3.515164
                   36         37         38         39         40
    36  H    0.000000
    37  H    1.789914   0.000000
    38  H    7.761854   7.108468   0.000000
    39  H    9.477039   8.911764   2.489247   0.000000
    40  H    9.669916   9.039167   4.316442   2.492310   0.000000
    41  H    8.212461   7.410598   4.975975   4.309308   2.490410
    42  H    6.173317   5.122595   4.311832   4.968749   4.298872
    43  H    6.692358   7.343498   5.810447   7.303566   8.901908
    44  H    7.857213   8.453550   7.303614   9.095975  10.957527
    45  H    7.384569   8.114726   8.901868  10.957462  12.622076
    46  H    5.500621   6.525047   9.240620  11.303530  12.548390
    47  H    3.663133   5.016973   8.123657   9.932333  10.817165
                   41         42         43         44         45
    41  H    0.000000
    42  H    2.467971   0.000000
    43  H    9.240764   8.123855   0.000000
    44  H   11.303682   9.932534   2.489246   0.000000
    45  H   12.548469  10.817281   4.316438   2.492313   0.000000
    46  H   12.020839  10.124123   4.975971   4.309314   2.490414
    47  H   10.124097   8.374298   4.311830   4.968754   4.298873
                   46         47
    46  H    0.000000
    47  H    2.467967   0.000000
 Stoichiometry    C21H22N2O2
 Framework group  C1[X(C21H22N2O2)]
 Deg. of freedom   135
 Full point group                 C1      NOp   1
 Largest Abelian subgroup         C1      NOp   1
 Largest concise Abelian subgroup C1      NOp   1
                         Standard orientation:                         
 ---------------------------------------------------------------------
 Center     Atomic      Atomic             Coordinates (Angstroms)
 Number     Number       Type             X           Y           Z
 ---------------------------------------------------------------------
      1          7           0        1.130017   -0.135345   -0.797299
      2          6           0        0.984901    1.131384   -0.774651
      3          8           0        1.851707    1.841337   -1.500805
      4          6           0        2.625549    0.889761   -2.257971
      5          6           0        2.361324   -0.441672   -1.551696
      6          6           0        0.000011    1.963431    0.000034
      7          6           0       -0.984869    1.131347    0.774679
      8          7           0       -1.130005   -0.135384    0.797263
      9          6           0       -2.361302   -0.441747    1.551669
     10          6           0       -2.625517    0.889650    2.258010
     11          8           0       -1.851665    1.841264    1.500888
     12          6           0       -3.413979   -0.904450    0.567288
     13          6           0        3.413981   -0.904439   -0.567322
     14          6           0        0.799663    2.840223    0.983421
     15          6           0       -0.799671    2.840238   -0.983342
     16          6           0        3.491740   -2.264185   -0.247119
     17          6           0        4.398892   -2.706162    0.713412
     18          6           0        5.234948   -1.799263    1.362324
     19          6           0        5.155468   -0.441928    1.054255
     20          6           0        4.245501    0.003529    0.097870
     21          6           0       -3.491817   -2.264194    0.247078
     22          6           0       -4.398989   -2.706107   -0.713469
     23          6           0       -5.234995   -1.799156   -1.362359
     24          6           0       -5.155447   -0.441831   -1.054293
     25          6           0       -4.245449    0.003572   -0.097903
     26          1           0        3.674353    1.208651   -2.251566
     27          1           0        2.245665    0.897749   -3.290735
     28          1           0        2.121347   -1.255309   -2.250262
     29          1           0       -2.121315   -1.255430    2.250185
     30          1           0       -2.245623    0.897582    3.290774
     31          1           0       -3.674311    1.208550    2.251637
     32          1           0        1.386467    2.215951    1.673350
     33          1           0        1.487042    3.490023    0.426326
     34          1           0        0.109048    3.461523    1.568305
     35          1           0       -1.386465    2.215970   -1.673273
     36          1           0       -1.487051    3.490018   -0.426223
     37          1           0       -0.109067    3.461558   -1.568213
     38          1           0        2.810196   -2.966266   -0.736771
     39          1           0        4.445554   -3.769356    0.959402
     40          1           0        5.946296   -2.148987    2.114299
     41          1           0        5.803555    0.275533    1.563417
     42          1           0        4.185469    1.073633   -0.120542
     43          1           0       -2.810313   -2.966313    0.736715
     44          1           0       -4.445720   -3.769303   -0.959456
     45          1           0       -5.946364   -2.148832   -2.114346
     46          1           0       -5.803483    0.275678   -1.563440
     47          1           0       -4.185358    1.073668    0.120527
 ---------------------------------------------------------------------
 Rotational constants (GHZ):           0.3612330           0.1262209           0.1132672
 Leave Link  202 at Thu Aug  4 09:26:01 2022, MaxMem=  4194304000 cpu:               0.1 elap:               0.0
 (Enter /software/gaussian/G16-A.03/avx/g16/l301.exe)
 Standard basis: def2SVP (5D, 7F)
 Ernie: Thresh=  0.10000D-02 Tol=  0.10000D-05 Strict=F.
 There are   485 symmetry adapted cartesian basis functions of A   symmetry.
 There are   460 symmetry adapted basis functions of A   symmetry.
   460 basis functions,   779 primitive gaussians,   485 cartesian basis functions
    89 alpha electrons       89 beta electrons
       nuclear repulsion energy      2134.3609499214 Hartrees.
 IExCor= 1009 DFT=T Ex+Corr=PBE1PBE ExCW=0 ScaHFX=  0.250000
 ScaDFX=  0.750000  0.750000  1.000000  1.000000 ScalE2=  1.000000  1.000000
 IRadAn=      5 IRanWt=     -1 IRanGd=            0 ICorTp=0 IEmpDi=141
 NAtoms=   47 NActive=   47 NUniq=   47 SFac= 1.00D+00 NAtFMM=   60 NAOKFM=F Big=F
 Integral buffers will be    131072 words long.
 Raffenetti 2 integral format.
 Two-electron integral symmetry is turned on.
 R6Disp:  Grimme-D3(BJ) Dispersion energy=       -0.0540489064 Hartrees.
 Nuclear repulsion after empirical dispersion term =     2134.3069010151 Hartrees.
 Leave Link  301 at Thu Aug  4 09:26:01 2022, MaxMem=  4194304000 cpu:               0.4 elap:               0.1
 (Enter /software/gaussian/G16-A.03/avx/g16/l302.exe)
 NPDir=0 NMtPBC=     1 NCelOv=     1 NCel=       1 NClECP=     1 NCelD=      1
         NCelK=      1 NCelE2=     1 NClLst=     1 CellRange=     0.0.
 One-electron integrals computed using PRISM.
 One-electron integral symmetry used in STVInt
   1 Symmetry operations used in ECPInt.
 ECPInt:  NShTT=   23436 NPrTT=   84646 LenC2=   20371 LenP2D=   49721.
 LDataN:  DoStor=T MaxTD1= 4 Len=   56
 NBasis=   460 RedAO= T EigKep=  2.87D-04  NBF=   460
 NBsUse=   460 1.00D-06 EigRej= -1.00D+00 NBFU=   460
 Precomputing XC quadrature grid using
 IXCGrd= 4 IRadAn=           5 IRanWt=          -1 IRanGd=           0 AccXCQ= 0.00D+00.
 Generated NRdTot=       0 NPtTot=           0 NUsed=           0 NTot=          32
 NSgBfM=   479   479   479   479   479 MxSgAt=    47 MxSgA2=    47.
 Leave Link  302 at Thu Aug  4 09:26:02 2022, MaxMem=  4194304000 cpu:               7.5 elap:               1.0
 (Enter /software/gaussian/G16-A.03/avx/g16/l303.exe)
 DipDrv:  MaxL=1.
 Leave Link  303 at Thu Aug  4 09:26:02 2022, MaxMem=  4194304000 cpu:               0.6 elap:               0.1
 (Enter /software/gaussian/G16-A.03/avx/g16/l401.exe)
 ExpMin= 1.22D-01 ExpMax= 2.27D+03 ExpMxC= 3.41D+02 IAcc=3 IRadAn=         5 AccDes= 0.00D+00
 Harris functional with IExCor= 1009 and IRadAn=       5 diagonalized for initial guess.
 HarFok:  IExCor= 1009 AccDes= 0.00D+00 IRadAn=         5 IDoV= 1 UseB2=F ITyADJ=14
 ICtDFT=  3500011 ScaDFX=  1.000000  1.000000  1.000000  1.000000
 FoFCou: FMM=F IPFlag=           0 FMFlag=      100000 FMFlg1=           0
         NFxFlg=           0 DoJE=T BraDBF=F KetDBF=T FulRan=T
         wScrn=  0.000000 ICntrl=       500 IOpCl=  0 I1Cent=   200000004 NGrid=           0
         NMat0=    1 NMatS0=      1 NMatT0=    0 NMatD0=    1 NMtDS0=    0 NMtDT0=    0
 Petite list used in FoFCou.
 Harris En= -1071.68086721391    
 JPrj=0 DoOrth=F DoCkMO=F.
 Leave Link  401 at Thu Aug  4 09:26:08 2022, MaxMem=  4194304000 cpu:              42.7 elap:               5.4
 (Enter /software/gaussian/G16-A.03/avx/g16/l502.exe)
 Integral symmetry usage will be decided dynamically.
 Closed shell SCF:
 Using DIIS extrapolation, IDIIS=  1040.
 NGot=  4194304000 LenX=  4193824455 LenY=  4193588745
 Requested convergence on RMS density matrix=1.00D-08 within 128 cycles.
 Requested convergence on MAX density matrix=1.00D-06.
 Requested convergence on             energy=1.00D-06.
 No special actions if energy rises.
 Fock matrices will be formed incrementally for  20 cycles.
 Integral accuracy reduced to 1.0D-05 until final iterations.

 Cycle   1  Pass 0  IDiag  1:
 FoFJK:  IHMeth= 1 ICntrl=       0 DoSepK=F KAlg= 0 I1Cent=           0 FoldK=F
 IRaf= 790000000 NMat=       1 IRICut=       1 DoRegI=T DoRafI=F ISym2E= 0 IDoP0=0 IntGTp=1.
 FoFCou: FMM=F IPFlag=           0 FMFlag=      100000 FMFlg1=           0
         NFxFlg=           0 DoJE=F BraDBF=F KetDBF=F FulRan=T
         wScrn=  0.000000 ICntrl=         0 IOpCl=  0 I1Cent=           0 NGrid=           0
         NMat0=    1 NMatS0=      1 NMatT0=    0 NMatD0=    1 NMtDS0=    0 NMtDT0=    0
 Symmetry not used in FoFCou.
 E= -1071.00638200008    
 DIIS: error= 3.19D-02 at cycle   1 NSaved=   1.
 NSaved= 1 IEnMin= 1 EnMin= -1071.00638200008     IErMin= 1 ErrMin= 3.19D-02
 ErrMax= 3.19D-02  0.00D+00 EMaxC= 1.00D-01 BMatC= 4.00D-01 BMatP= 4.00D-01
 IDIUse=3 WtCom= 6.81D-01 WtEn= 3.19D-01
 Coeff-Com:  0.100D+01
 Coeff-En:   0.100D+01
 Coeff:      0.100D+01
 Gap=     0.272 Goal=   None    Shift=    0.000
 GapD=    0.272 DampG=1.000 DampE=0.500 DampFc=0.5000 IDamp=-1.
 Damping current iteration by 5.00D-01
 RMSDP=4.39D-03 MaxDP=2.39D-01              OVMax= 2.12D-01

 Cycle   2  Pass 0  IDiag  1:
 RMSU=  2.16D-03    CP:  9.76D-01
 E= -1071.20310992620     Delta-E=       -0.196727926120 Rises=F Damp=T
 DIIS: error= 6.20D-03 at cycle   2 NSaved=   2.
 NSaved= 2 IEnMin= 2 EnMin= -1071.20310992620     IErMin= 2 ErrMin= 6.20D-03
 ErrMax= 6.20D-03  0.00D+00 EMaxC= 1.00D-01 BMatC= 3.29D-02 BMatP= 4.00D-01
 IDIUse=3 WtCom= 9.38D-01 WtEn= 6.20D-02
 Coeff-Com:  0.574D-01 0.943D+00
 Coeff-En:   0.748D-01 0.925D+00
 Coeff:      0.584D-01 0.942D+00
 Gap=     0.272 Goal=   None    Shift=    0.000
 RMSDP=1.39D-03 MaxDP=5.41D-02 DE=-1.97D-01 OVMax= 1.99D-01

 Cycle   3  Pass 0  IDiag  1:
 RMSU=  1.33D-03    CP:  9.56D-01  8.87D-01
 E= -1071.40471614066     Delta-E=       -0.201606214463 Rises=F Damp=F
 DIIS: error= 1.24D-02 at cycle   3 NSaved=   3.
 NSaved= 3 IEnMin= 3 EnMin= -1071.40471614066     IErMin= 2 ErrMin= 6.20D-03
 ErrMax= 1.24D-02  0.00D+00 EMaxC= 1.00D-01 BMatC= 4.87D-02 BMatP= 3.29D-02
 IDIUse=2 WtCom= 0.00D+00 WtEn= 1.00D+00
 Coeff-En:   0.000D+00 0.000D+00 0.100D+01
 Coeff:      0.000D+00 0.000D+00 0.100D+01
 Gap=     0.238 Goal=   None    Shift=    0.000
 RMSDP=2.06D-03 MaxDP=1.40D-01 DE=-2.02D-01 OVMax= 1.94D-01

 Cycle   4  Pass 0  IDiag  1:
 RMSU=  1.12D-03    CP:  9.66D-01  1.43D+00  5.14D-02
 E= -1071.21984727047     Delta-E=        0.184868870192 Rises=F Damp=F
 DIIS: error= 2.64D-02 at cycle   4 NSaved=   4.
 NSaved= 4 IEnMin= 3 EnMin= -1071.40471614066     IErMin= 2 ErrMin= 6.20D-03
 ErrMax= 2.64D-02  0.00D+00 EMaxC= 1.00D-01 BMatC= 2.53D-01 BMatP= 3.29D-02
 IDIUse=2 WtCom= 0.00D+00 WtEn= 1.00D+00
 Coeff-En:   0.000D+00 0.000D+00 0.784D+00 0.216D+00
 Coeff:      0.000D+00 0.000D+00 0.784D+00 0.216D+00
 Gap=     0.218 Goal=   None    Shift=    0.000
 RMSDP=1.13D-03 MaxDP=8.94D-02 DE= 1.85D-01 OVMax= 1.04D-01

 Cycle   5  Pass 0  IDiag  1:
 RMSU=  1.68D-04    CP:  9.60D-01  1.12D+00  5.61D-01  4.82D-01
 E= -1071.43152706776     Delta-E=       -0.211679797288 Rises=F Damp=F
 DIIS: error= 7.56D-03 at cycle   5 NSaved=   5.
 NSaved= 5 IEnMin= 5 EnMin= -1071.43152706776     IErMin= 2 ErrMin= 6.20D-03
 ErrMax= 7.56D-03  0.00D+00 EMaxC= 1.00D-01 BMatC= 1.91D-02 BMatP= 3.29D-02
 IDIUse=3 WtCom= 9.24D-01 WtEn= 7.56D-02
 Coeff-Com:  0.938D-03 0.101D-01 0.282D+00-0.102D+00 0.808D+00
 Coeff-En:   0.000D+00 0.000D+00 0.329D+00 0.000D+00 0.671D+00
 Coeff:      0.867D-03 0.934D-02 0.286D+00-0.939D-01 0.798D+00
 Gap=     0.234 Goal=   None    Shift=    0.000
 RMSDP=3.92D-04 MaxDP=2.75D-02 DE=-2.12D-01 OVMax= 3.97D-02

 Cycle   6  Pass 0  IDiag  1:
 RMSU=  4.69D-05    CP:  9.58D-01  1.02D+00  7.39D-01  2.93D-01  9.59D-01
 E= -1071.44842119836     Delta-E=       -0.016894130608 Rises=F Damp=F
 DIIS: error= 3.88D-04 at cycle   6 NSaved=   6.
 NSaved= 6 IEnMin= 6 EnMin= -1071.44842119836     IErMin= 6 ErrMin= 3.88D-04
 ErrMax= 3.88D-04  0.00D+00 EMaxC= 1.00D-01 BMatC= 5.40D-05 BMatP= 1.91D-02
 IDIUse=3 WtCom= 9.96D-01 WtEn= 3.88D-03
 Coeff-Com: -0.172D-03 0.225D-02 0.128D+00-0.691D-01 0.457D+00 0.482D+00
 Coeff-En:   0.000D+00 0.000D+00 0.000D+00 0.000D+00 0.000D+00 0.100D+01
 Coeff:     -0.171D-03 0.225D-02 0.127D+00-0.688D-01 0.456D+00 0.484D+00
 Gap=     0.233 Goal=   None    Shift=    0.000
 RMSDP=2.82D-05 MaxDP=1.64D-03 DE=-1.69D-02 OVMax= 1.98D-03

 Cycle   7  Pass 0  IDiag  1:
 RMSU=  1.40D-05    CP:  9.58D-01  1.02D+00  7.37D-01  2.98D-01  9.45D-01
                    CP:  5.49D-01
 E= -1071.44847486462     Delta-E=       -0.000053666256 Rises=F Damp=F
 DIIS: error= 9.86D-05 at cycle   7 NSaved=   7.
 NSaved= 7 IEnMin= 7 EnMin= -1071.44847486462     IErMin= 7 ErrMin= 9.86D-05
 ErrMax= 9.86D-05  0.00D+00 EMaxC= 1.00D-01 BMatC= 3.91D-06 BMatP= 5.40D-05
 IDIUse=1 WtCom= 1.00D+00 WtEn= 0.00D+00
 Coeff-Com: -0.437D-04-0.337D-04 0.437D-01-0.269D-01 0.166D+00 0.257D+00
 Coeff-Com:  0.560D+00
 Coeff:     -0.437D-04-0.337D-04 0.437D-01-0.269D-01 0.166D+00 0.257D+00
 Coeff:      0.560D+00
 Gap=     0.233 Goal=   None    Shift=    0.000
 RMSDP=6.53D-06 MaxDP=2.68D-04 DE=-5.37D-05 OVMax= 4.73D-04

 Initial convergence to 1.0D-05 achieved.  Increase integral accuracy.
 Cycle   8  Pass 1  IDiag  1:
 E= -1071.44843150697     Delta-E=        0.000043357652 Rises=F Damp=F
 DIIS: error= 1.74D-04 at cycle   1 NSaved=   1.
 NSaved= 1 IEnMin= 1 EnMin= -1071.44843150697     IErMin= 1 ErrMin= 1.74D-04
 ErrMax= 1.74D-04  0.00D+00 EMaxC= 1.00D-01 BMatC= 3.90D-06 BMatP= 3.90D-06
 IDIUse=3 WtCom= 9.98D-01 WtEn= 1.74D-03
 Coeff-Com:  0.100D+01
 Coeff-En:   0.100D+01
 Coeff:      0.100D+01
 Gap=     0.233 Goal=   None    Shift=    0.000
 RMSDP=6.53D-06 MaxDP=2.68D-04 DE= 4.34D-05 OVMax= 4.75D-04

 Cycle   9  Pass 1  IDiag  1:
 RMSU=  1.13D-04    CP:  1.00D+00
 E= -1071.44843510498     Delta-E=       -0.000003598016 Rises=F Damp=F
 DIIS: error= 3.45D-05 at cycle   2 NSaved=   2.
 NSaved= 2 IEnMin= 2 EnMin= -1071.44843510498     IErMin= 2 ErrMin= 3.45D-05
 ErrMax= 3.45D-05  0.00D+00 EMaxC= 1.00D-01 BMatC= 8.59D-07 BMatP= 3.90D-06
 IDIUse=1 WtCom= 1.00D+00 WtEn= 0.00D+00
 Coeff-Com:  0.230D+00 0.770D+00
 Coeff:      0.230D+00 0.770D+00
 Gap=     0.233 Goal=   None    Shift=    0.000
 RMSDP=6.26D-06 MaxDP=4.54D-04 DE=-3.60D-06 OVMax= 5.17D-04

 Cycle  10  Pass 1  IDiag  1:
 RMSU=  6.13D-06    CP:  1.00D+00  1.01D+00
 E= -1071.44843456903     Delta-E=        0.000000535951 Rises=F Damp=F
 DIIS: error= 5.35D-05 at cycle   3 NSaved=   3.
 NSaved= 3 IEnMin= 2 EnMin= -1071.44843510498     IErMin= 2 ErrMin= 3.45D-05
 ErrMax= 5.35D-05  0.00D+00 EMaxC= 1.00D-01 BMatC= 1.42D-06 BMatP= 8.59D-07
 IDIUse=1 WtCom= 1.00D+00 WtEn= 0.00D+00
 Coeff-Com:  0.637D-02 0.561D+00 0.432D+00
 Coeff:      0.637D-02 0.561D+00 0.432D+00
 Gap=     0.233 Goal=   None    Shift=    0.000
 RMSDP=3.85D-06 MaxDP=2.41D-04 DE= 5.36D-07 OVMax= 3.46D-04

 Cycle  11  Pass 1  IDiag  1:
 RMSU=  1.05D-06    CP:  1.00D+00  1.02D+00  4.19D-01
 E= -1071.44843587399     Delta-E=       -0.000001304956 Rises=F Damp=F
 DIIS: error= 1.09D-05 at cycle   4 NSaved=   4.
 NSaved= 4 IEnMin= 4 EnMin= -1071.44843587399     IErMin= 4 ErrMin= 1.09D-05
 ErrMax= 1.09D-05  0.00D+00 EMaxC= 1.00D-01 BMatC= 5.44D-08 BMatP= 8.59D-07
 IDIUse=1 WtCom= 1.00D+00 WtEn= 0.00D+00
 Coeff-Com: -0.512D-02 0.329D+00 0.276D+00 0.401D+00
 Coeff:     -0.512D-02 0.329D+00 0.276D+00 0.401D+00
 Gap=     0.233 Goal=   None    Shift=    0.000
 RMSDP=5.66D-07 MaxDP=2.23D-05 DE=-1.30D-06 OVMax= 4.53D-05

 Cycle  12  Pass 1  IDiag  1:
 RMSU=  3.02D-07    CP:  1.00D+00  1.02D+00  4.40D-01  5.63D-01
 E= -1071.44843592184     Delta-E=       -0.000000047853 Rises=F Damp=F
 DIIS: error= 8.78D-07 at cycle   5 NSaved=   5.
 NSaved= 5 IEnMin= 5 EnMin= -1071.44843592184     IErMin= 5 ErrMin= 8.78D-07
 ErrMax= 8.78D-07  0.00D+00 EMaxC= 1.00D-01 BMatC= 4.06D-10 BMatP= 5.44D-08
 IDIUse=1 WtCom= 1.00D+00 WtEn= 0.00D+00
 Coeff-Com: -0.287D-02 0.172D+00 0.145D+00 0.220D+00 0.466D+00
 Coeff:     -0.287D-02 0.172D+00 0.145D+00 0.220D+00 0.466D+00
 Gap=     0.233 Goal=   None    Shift=    0.000
 RMSDP=6.91D-08 MaxDP=3.06D-06 DE=-4.79D-08 OVMax= 5.69D-06

 Cycle  13  Pass 1  IDiag  1:
 RMSU=  6.70D-08    CP:  1.00D+00  1.02D+00  4.39D-01  5.60D-01  9.74D-01
 E= -1071.44843592218     Delta-E=       -0.000000000337 Rises=F Damp=F
 DIIS: error= 2.71D-07 at cycle   6 NSaved=   6.
 NSaved= 6 IEnMin= 6 EnMin= -1071.44843592218     IErMin= 6 ErrMin= 2.71D-07
 ErrMax= 2.71D-07  0.00D+00 EMaxC= 1.00D-01 BMatC= 2.19D-11 BMatP= 4.06D-10
 IDIUse=1 WtCom= 1.00D+00 WtEn= 0.00D+00
 Coeff-Com: -0.719D-03 0.403D-01 0.338D-01 0.551D-01 0.210D+00 0.662D+00
 Coeff:     -0.719D-03 0.403D-01 0.338D-01 0.551D-01 0.210D+00 0.662D+00
 Gap=     0.233 Goal=   None    Shift=    0.000
 RMSDP=2.04D-08 MaxDP=5.85D-07 DE=-3.37D-10 OVMax= 1.73D-06

 Cycle  14  Pass 1  IDiag  1:
 RMSU=  1.57D-08    CP:  1.00D+00  1.02D+00  4.39D-01  5.65D-01  9.93D-01
                    CP:  8.64D-01
 E= -1071.44843592222     Delta-E=       -0.000000000040 Rises=F Damp=F
 DIIS: error= 1.02D-07 at cycle   7 NSaved=   7.
 NSaved= 7 IEnMin= 7 EnMin= -1071.44843592222     IErMin= 7 ErrMin= 1.02D-07
 ErrMax= 1.02D-07  0.00D+00 EMaxC= 1.00D-01 BMatC= 5.85D-12 BMatP= 2.19D-11
 IDIUse=1 WtCom= 1.00D+00 WtEn= 0.00D+00
 Coeff-Com:  0.134D-04-0.233D-02-0.209D-02-0.373D-03 0.524D-01 0.394D+00
 Coeff-Com:  0.558D+00
 Coeff:      0.134D-04-0.233D-02-0.209D-02-0.373D-03 0.524D-01 0.394D+00
 Coeff:      0.558D+00
 Gap=     0.233 Goal=   None    Shift=    0.000
 RMSDP=1.03D-08 MaxDP=5.68D-07 DE=-3.96D-11 OVMax= 5.82D-07

 Cycle  15  Pass 1  IDiag  1:
 RMSU=  4.67D-09    CP:  1.00D+00  1.02D+00  4.38D-01  5.67D-01  1.00D+00
                    CP:  9.13D-01  6.06D-01
 E= -1071.44843592225     Delta-E=       -0.000000000035 Rises=F Damp=F
 DIIS: error= 1.23D-08 at cycle   8 NSaved=   8.
 NSaved= 8 IEnMin= 8 EnMin= -1071.44843592225     IErMin= 8 ErrMin= 1.23D-08
 ErrMax= 1.23D-08  0.00D+00 EMaxC= 1.00D-01 BMatC= 1.32D-13 BMatP= 5.85D-12
 IDIUse=1 WtCom= 1.00D+00 WtEn= 0.00D+00
 Coeff-Com:  0.402D-04-0.289D-02-0.249D-02-0.273D-02 0.102D-01 0.126D+00
 Coeff-Com:  0.226D+00 0.646D+00
 Coeff:      0.402D-04-0.289D-02-0.249D-02-0.273D-02 0.102D-01 0.126D+00
 Coeff:      0.226D+00 0.646D+00
 Gap=     0.233 Goal=   None    Shift=    0.000
 RMSDP=1.36D-09 MaxDP=4.25D-08 DE=-3.55D-11 OVMax= 7.94D-08

 SCF Done:  E(RPBE1PBE) =  -1071.44843592     A.U. after   15 cycles
            NFock= 15  Conv=0.14D-08     -V/T= 2.0100
 KE= 1.060875320025D+03 PE=-6.757770280550D+03 EE= 2.491139623588D+03
 Leave Link  502 at Thu Aug  4 09:28:34 2022, MaxMem=  4194304000 cpu:            1169.4 elap:             146.2
 (Enter /software/gaussian/G16-A.03/avx/g16/l801.exe)
 DoSCS=F DFT=T ScalE2(SS,OS)=  1.000000  1.000000
 Range of M.O.s used for correlation:     1   460
 NBasis=   460 NAE=    89 NBE=    89 NFC=     0 NFV=     0
 NROrb=    460 NOA=    89 NOB=    89 NVA=   371 NVB=   371

 **** Warning!!: The largest alpha MO coefficient is  0.10235182D+02

 Leave Link  801 at Thu Aug  4 09:28:34 2022, MaxMem=  4194304000 cpu:               0.2 elap:               0.1
 (Enter /software/gaussian/G16-A.03/avx/g16/l1101.exe)
 Using compressed storage, NAtomX=    47.
 Will process     48 centers per pass.
   1 Symmetry operations used in ECPInt.
 ECPInt:  NShTT=   23436 NPrTT=   84646 LenC2=   20371 LenP2D=   49721.
 LDataN:  DoStor=T MaxTD1= 5 Len=  102
 R6Disp: Adding Grimme-D3(BJ) dispersion energy 1st derivatives to the gradient.
 Leave Link 1101 at Thu Aug  4 09:28:36 2022, MaxMem=  4194304000 cpu:               8.8 elap:               1.2
 (Enter /software/gaussian/G16-A.03/avx/g16/l1102.exe)
 Symmetrizing basis deriv contribution to polar:
 IMax=3 JMax=2 DiffMx= 0.00D+00
 Leave Link 1102 at Thu Aug  4 09:28:37 2022, MaxMem=  4194304000 cpu:               0.8 elap:               0.2
 (Enter /software/gaussian/G16-A.03/avx/g16/l1110.exe)
 Forming Gx(P) for the SCF density, NAtomX=    47.
 Integral derivatives from FoFJK, PRISM(SPDF).
 Do as many integral derivatives as possible in FoFJK.
 G2DrvN: MDV=    4194300480.
 G2DrvN: will do    48 centers at a time, making    1 passes.
 Calling FoFCou, ICntrl=  3107 FMM=F I1Cent=   0 AccDes= 0.00D+00.
 FoFJK:  IHMeth= 1 ICntrl=    3107 DoSepK=F KAlg= 0 I1Cent=           0 FoldK=F
 IRaf=         0 NMat=       1 IRICut=       1 DoRegI=T DoRafI=F ISym2E= 0 IDoP0=0 IntGTp=1.
 FoFCou: FMM=F IPFlag=           0 FMFlag=      100000 FMFlg1=           0
         NFxFlg=           0 DoJE=F BraDBF=F KetDBF=F FulRan=T
         wScrn=  0.000000 ICntrl=      3107 IOpCl=  0 I1Cent=           0 NGrid=           0
         NMat0=    1 NMatS0=      1 NMatT0=    0 NMatD0=    1 NMtDS0=    0 NMtDT0=    0
 Symmetry not used in FoFCou.
 End of G2Drv F.D. properties file   721 does not exist.
 End of G2Drv F.D. properties file   722 does not exist.
 End of G2Drv F.D. properties file   788 does not exist.
 Leave Link 1110 at Thu Aug  4 09:37:21 2022, MaxMem=  4194304000 cpu:            4190.9 elap:             523.9
 (Enter /software/gaussian/G16-A.03/avx/g16/l1002.exe)
 Minotr:  Closed shell wavefunction.
          IDoAtm=11111111111111111111111111111111111111111111111
          Direct CPHF calculation.
          Differentiating once with respect to electric field.
                with respect to dipole field.
          Differentiating once with respect to nuclear coordinates.
          Requested convergence is 1.0D-08 RMS, and 1.0D-07 maximum.
          Secondary convergence is 1.0D-12 RMS, and 1.0D-12 maximum.
          NewPWx=T KeepS1=F KeepF1=F KeepIn=T MapXYZ=F SortEE=F KeepMc=T.
        14273 words used for storage of precomputed grid.
 Two-electron integrals replicated using symmetry.
          MDV=    4194304000 using IRadAn=       1.
          Solving linear equations simultaneously, MaxMat=     384.
 FoF2E skips out because all densities are zero.
 CalDSu exits because no D1Ps are significant.
 FoFJK:  IHMeth= 1 ICntrl=       0 DoSepK=F KAlg= 0 I1Cent=           0 FoldK=F
 IRaf= 760000000 NMat=     141 IRICut=     352 DoRegI=T DoRafI=T ISym2E= 2 IDoP0=3 IntGTp=3.
 FoFCou: FMM=F IPFlag=           0 FMFlag=      100000 FMFlg1=           0
         NFxFlg=           0 DoJE=F BraDBF=F KetDBF=F FulRan=T
         wScrn=  0.000000 ICntrl=         0 IOpCl=  0 I1Cent=           0 NGrid=           0
         NMat0=  141 NMatS0=    141 NMatT0=    0 NMatD0=  141 NMtDS0=    0 NMtDT0=    0
 Integrals replicated using symmetry in FoFCou.
 Raff kept on since  70.38% of shell-pairs survive, threshold=   0.20 IRatSp=70.
          There are   144 degrees of freedom in the 1st order CPHF.  IDoFFX=6 NUNeed=     3.
    141 vectors produced by pass  0 Test12= 3.30D-14 1.00D-09 XBig12= 2.58D+02 4.83D+00.
 AX will form   141 AO Fock derivatives at one time.
    141 vectors produced by pass  1 Test12= 3.30D-14 1.00D-09 XBig12= 7.42D+01 1.26D+00.
    141 vectors produced by pass  2 Test12= 3.30D-14 1.00D-09 XBig12= 6.21D-01 9.70D-02.
    141 vectors produced by pass  3 Test12= 3.30D-14 1.00D-09 XBig12= 3.38D-03 5.42D-03.
    141 vectors produced by pass  4 Test12= 3.30D-14 1.00D-09 XBig12= 9.91D-06 3.55D-04.
    110 vectors produced by pass  5 Test12= 3.30D-14 1.00D-09 XBig12= 1.55D-08 9.90D-06.
     29 vectors produced by pass  6 Test12= 3.30D-14 1.00D-09 XBig12= 1.74D-11 3.29D-07.
      3 vectors produced by pass  7 Test12= 3.30D-14 1.00D-09 XBig12= 1.89D-14 1.17D-08.
      1 vectors produced by pass  8 Test12= 3.30D-14 1.00D-09 XBig12= 9.73D-16 2.32D-09.
 InvSVY:  IOpt=1 It=  1 EMax= 5.33D-15
 Solved reduced A of dimension   848 with   144 vectors.
 FullF1:  Do perturbations      1 to       3.
 Isotropic polarizability for W=    0.000000      226.66 Bohr**3.
 End of Minotr F.D. properties file   721 does not exist.
 End of Minotr F.D. properties file   722 does not exist.
 End of Minotr F.D. properties file   788 does not exist.
 Leave Link 1002 at Thu Aug  4 09:53:54 2022, MaxMem=  4194304000 cpu:            7941.3 elap:             992.8
 (Enter /software/gaussian/G16-A.03/avx/g16/l601.exe)
 Copying SCF densities to generalized density rwf, IOpCl= 0 IROHF=0.

 **********************************************************************

            Population analysis using the SCF density.

 **********************************************************************

 Orbital symmetries:
       Occupied  (A) (A) (A) (A) (A) (A) (A) (A) (A) (A) (A) (A)
                 (A) (A) (A) (A) (A) (A) (A) (A) (A) (A) (A) (A)
                 (A) (A) (A) (A) (A) (A) (A) (A) (A) (A) (A) (A)
                 (A) (A) (A) (A) (A) (A) (A) (A) (A) (A) (A) (A)
                 (A) (A) (A) (A) (A) (A) (A) (A) (A) (A) (A) (A)
                 (A) (A) (A) (A) (A) (A) (A) (A) (A) (A) (A) (A)
                 (A) (A) (A) (A) (A) (A) (A) (A) (A) (A) (A) (A)
                 (A) (A) (A) (A) (A)
       Virtual   (A) (A) (A) (A) (A) (A) (A) (A) (A) (A) (A) (A)
                 (A) (A) (A) (A) (A) (A) (A) (A) (A) (A) (A) (A)
                 (A) (A) (A) (A) (A) (A) (A) (A) (A) (A) (A) (A)
                 (A) (A) (A) (A) (A) (A) (A) (A) (A) (A) (A) (A)
                 (A) (A) (A) (A) (A) (A) (A) (A) (A) (A) (A) (A)
                 (A) (A) (A) (A) (A) (A) (A) (A) (A) (A) (A) (A)
                 (A) (A) (A) (A) (A) (A) (A) (A) (A) (A) (A) (A)
                 (A) (A) (A) (A) (A) (A) (A) (A) (A) (A) (A) (A)
                 (A) (A) (A) (A) (A) (A) (A) (A) (A) (A) (A) (A)
                 (A) (A) (A) (A) (A) (A) (A) (A) (A) (A) (A) (A)
                 (A) (A) (A) (A) (A) (A) (A) (A) (A) (A) (A) (A)
                 (A) (A) (A) (A) (A) (A) (A) (A) (A) (A) (A) (A)
                 (A) (A) (A) (A) (A) (A) (A) (A) (A) (A) (A) (A)
                 (A) (A) (A) (A) (A) (A) (A) (A) (A) (A) (A) (A)
                 (A) (A) (A) (A) (A) (A) (A) (A) (A) (A) (A) (A)
                 (A) (A) (A) (A) (A) (A) (A) (A) (A) (A) (A) (A)
                 (A) (A) (A) (A) (A) (A) (A) (A) (A) (A) (A) (A)
                 (A) (A) (A) (A) (A) (A) (A) (A) (A) (A) (A) (A)
                 (A) (A) (A) (A) (A) (A) (A) (A) (A) (A) (A) (A)
                 (A) (A) (A) (A) (A) (A) (A) (A) (A) (A) (A) (A)
                 (A) (A) (A) (A) (A) (A) (A) (A) (A) (A) (A) (A)
                 (A) (A) (A) (A) (A) (A) (A) (A) (A) (A) (A) (A)
                 (A) (A) (A) (A) (A) (A) (A) (A) (A) (A) (A) (A)
                 (A) (A) (A) (A) (A) (A) (A) (A) (A) (A) (A) (A)
                 (A) (A) (A) (A) (A) (A) (A) (A) (A) (A) (A) (A)
                 (A) (A) (A) (A) (A) (A) (A) (A) (A) (A) (A) (A)
                 (A) (A) (A) (A) (A) (A) (A) (A) (A) (A) (A) (A)
                 (A) (A) (A) (A) (A) (A) (A) (A) (A) (A) (A) (A)
                 (A) (A) (A) (A) (A) (A) (A) (A) (A) (A) (A) (A)
                 (A) (A) (A) (A) (A) (A) (A) (A) (A) (A) (A) (A)
                 (A) (A) (A) (A) (A) (A) (A) (A) (A) (A) (A)
 The electronic state is 1-A.
 Alpha  occ. eigenvalues --  -19.24518 -19.24512 -14.35426 -14.35422 -10.31114
 Alpha  occ. eigenvalues --  -10.31113 -10.29004 -10.29004 -10.27145 -10.26550
 Alpha  occ. eigenvalues --  -10.26549 -10.24201 -10.24201 -10.23717 -10.23717
 Alpha  occ. eigenvalues --  -10.23661 -10.23661 -10.23594 -10.23594 -10.23538
 Alpha  occ. eigenvalues --  -10.23537 -10.23419 -10.23419 -10.23264 -10.23263
 Alpha  occ. eigenvalues --   -1.11925  -1.11707  -0.91741  -0.90950  -0.87594
 Alpha  occ. eigenvalues --   -0.87041  -0.85593  -0.79731  -0.78442  -0.75985
 Alpha  occ. eigenvalues --   -0.75972  -0.74959  -0.73894  -0.70720  -0.66488
 Alpha  occ. eigenvalues --   -0.65958  -0.64415  -0.62025  -0.61842  -0.60244
 Alpha  occ. eigenvalues --   -0.59542  -0.59002  -0.54940  -0.53938  -0.53380
 Alpha  occ. eigenvalues --   -0.52146  -0.50666  -0.50273  -0.48699  -0.47470
 Alpha  occ. eigenvalues --   -0.46686  -0.46484  -0.46372  -0.45762  -0.44944
 Alpha  occ. eigenvalues --   -0.44128  -0.44100  -0.43873  -0.43054  -0.42939
 Alpha  occ. eigenvalues --   -0.42280  -0.41858  -0.40795  -0.38375  -0.38356
 Alpha  occ. eigenvalues --   -0.37980  -0.37504  -0.37304  -0.37014  -0.36560
 Alpha  occ. eigenvalues --   -0.35937  -0.35738  -0.35333  -0.34936  -0.34675
 Alpha  occ. eigenvalues --   -0.34428  -0.28488  -0.26514  -0.26426  -0.26333
 Alpha  occ. eigenvalues --   -0.26009  -0.25225  -0.24739  -0.24044
 Alpha virt. eigenvalues --   -0.00756  -0.00715  -0.00234  -0.00211   0.03912
 Alpha virt. eigenvalues --    0.03986   0.06502   0.07450   0.08387   0.08859
 Alpha virt. eigenvalues --    0.09230   0.09724   0.10670   0.12293   0.12395
 Alpha virt. eigenvalues --    0.12444   0.12825   0.13156   0.13407   0.13453
 Alpha virt. eigenvalues --    0.14391   0.14587   0.14672   0.15084   0.15996
 Alpha virt. eigenvalues --    0.16311   0.17125   0.17621   0.18204   0.18280
 Alpha virt. eigenvalues --    0.18489   0.19037   0.19889   0.20438   0.21467
 Alpha virt. eigenvalues --    0.23377   0.23483   0.24685   0.25771   0.26029
 Alpha virt. eigenvalues --    0.26369   0.29872   0.30062   0.30374   0.31342
 Alpha virt. eigenvalues --    0.31434   0.31560   0.32129   0.33829   0.35304
 Alpha virt. eigenvalues --    0.36168   0.36678   0.36897   0.37601   0.39394
 Alpha virt. eigenvalues --    0.40433   0.41236   0.41956   0.42689   0.43093
 Alpha virt. eigenvalues --    0.43288   0.44280   0.44418   0.45202   0.45229
 Alpha virt. eigenvalues --    0.47628   0.47641   0.48339   0.48476   0.49949
 Alpha virt. eigenvalues --    0.50062   0.51163   0.51164   0.51439   0.51556
 Alpha virt. eigenvalues --    0.51727   0.52891   0.53269   0.53423   0.53457
 Alpha virt. eigenvalues --    0.53955   0.54981   0.54993   0.56792   0.56840
 Alpha virt. eigenvalues --    0.58834   0.59285   0.60088   0.60298   0.61458
 Alpha virt. eigenvalues --    0.61744   0.62620   0.62907   0.62909   0.64035
 Alpha virt. eigenvalues --    0.64602   0.64827   0.65082   0.65265   0.65770
 Alpha virt. eigenvalues --    0.66051   0.66369   0.67211   0.67231   0.67367
 Alpha virt. eigenvalues --    0.67831   0.67979   0.67990   0.68334   0.68728
 Alpha virt. eigenvalues --    0.68991   0.69094   0.69899   0.70057   0.70388
 Alpha virt. eigenvalues --    0.70798   0.72100   0.72346   0.72460   0.72708
 Alpha virt. eigenvalues --    0.73344   0.73973   0.74751   0.74917   0.75515
 Alpha virt. eigenvalues --    0.76465   0.76548   0.76834   0.77028   0.77178
 Alpha virt. eigenvalues --    0.77540   0.78769   0.79245   0.81244   0.81495
 Alpha virt. eigenvalues --    0.82441   0.82504   0.84256   0.84879   0.86951
 Alpha virt. eigenvalues --    0.87168   0.87841   0.88869   0.92391   0.93031
 Alpha virt. eigenvalues --    0.93121   0.94807   0.96360   0.96487   0.97377
 Alpha virt. eigenvalues --    1.01227   1.02343   1.02800   1.05326   1.06897
 Alpha virt. eigenvalues --    1.08376   1.08380   1.09108   1.10121   1.12218
 Alpha virt. eigenvalues --    1.12228   1.12881   1.13570   1.17147   1.20999
 Alpha virt. eigenvalues --    1.21553   1.21883   1.23635   1.23909   1.24990
 Alpha virt. eigenvalues --    1.25733   1.25862   1.26178   1.27900   1.28582
 Alpha virt. eigenvalues --    1.28716   1.30183   1.30451   1.30489   1.31589
 Alpha virt. eigenvalues --    1.32448   1.33078   1.33508   1.33638   1.37295
 Alpha virt. eigenvalues --    1.37509   1.38169   1.40256   1.42568   1.45542
 Alpha virt. eigenvalues --    1.47111   1.50777   1.51346   1.53675   1.55347
 Alpha virt. eigenvalues --    1.56719   1.57787   1.59458   1.59887   1.60452
 Alpha virt. eigenvalues --    1.62095   1.62656   1.65081   1.65443   1.65567
 Alpha virt. eigenvalues --    1.67086   1.67611   1.67773   1.69194   1.69271
 Alpha virt. eigenvalues --    1.70514   1.71360   1.72574   1.72748   1.73607
 Alpha virt. eigenvalues --    1.73843   1.74912   1.75264   1.75673   1.76549
 Alpha virt. eigenvalues --    1.76606   1.76983   1.77777   1.77809   1.78307
 Alpha virt. eigenvalues --    1.78787   1.79062   1.79733   1.79892   1.81073
 Alpha virt. eigenvalues --    1.81503   1.81867   1.82133   1.82360   1.83152
 Alpha virt. eigenvalues --    1.83378   1.84523   1.85445   1.86383   1.86397
 Alpha virt. eigenvalues --    1.86759   1.87859   1.89337   1.89605   1.89858
 Alpha virt. eigenvalues --    1.90634   1.91407   1.91732   1.93334   1.94726
 Alpha virt. eigenvalues --    1.95660   1.96187   1.96261   1.97554   1.97874
 Alpha virt. eigenvalues --    1.98749   1.98813   1.99317   1.99380   2.01010
 Alpha virt. eigenvalues --    2.01309   2.03078   2.03267   2.04838   2.05505
 Alpha virt. eigenvalues --    2.06240   2.07987   2.09170   2.09255   2.09924
 Alpha virt. eigenvalues --    2.11086   2.11653   2.15026   2.15240   2.15823
 Alpha virt. eigenvalues --    2.15883   2.16033   2.17620   2.18328   2.18945
 Alpha virt. eigenvalues --    2.21212   2.21607   2.24980   2.26436   2.26491
 Alpha virt. eigenvalues --    2.28808   2.29673   2.30759   2.30959   2.31579
 Alpha virt. eigenvalues --    2.31694   2.32753   2.32852   2.34402   2.35572
 Alpha virt. eigenvalues --    2.36104   2.36231   2.38667   2.39218   2.39745
 Alpha virt. eigenvalues --    2.40755   2.41260   2.42464   2.45188   2.48531
 Alpha virt. eigenvalues --    2.49880   2.52270   2.53575   2.53686   2.56568
 Alpha virt. eigenvalues --    2.56621   2.57686   2.60899   2.62448   2.62817
 Alpha virt. eigenvalues --    2.65135   2.65290   2.65743   2.66322   2.66366
 Alpha virt. eigenvalues --    2.67587   2.70487   2.71114   2.72507   2.74499
 Alpha virt. eigenvalues --    2.74857   2.74861   2.75213   2.77079   2.79156
 Alpha virt. eigenvalues --    2.79282   2.84151   2.84753   2.84878   2.85748
 Alpha virt. eigenvalues --    2.87140   2.88144   2.88717   2.89642   2.89684
 Alpha virt. eigenvalues --    2.90778   2.90910   2.93374   2.94984   2.96179
 Alpha virt. eigenvalues --    2.96338   2.97953   3.00534   3.00816   3.03928
 Alpha virt. eigenvalues --    3.04634   3.04664   3.05632   3.06833   3.06860
 Alpha virt. eigenvalues --    3.11261   3.11314   3.15265   3.15288   3.18319
 Alpha virt. eigenvalues --    3.20455   3.27674   3.27689   3.29105   3.30229
 Alpha virt. eigenvalues --    3.40285   3.47052   3.64551   3.65653   3.65774
 Alpha virt. eigenvalues --    3.66501
     Molecular Orbital Coefficients:
                          85        86        87        88        89
                           O         O         O         O         O
     Eigenvalues --    -0.26333  -0.26009  -0.25225  -0.24739  -0.24044
   1 1   N  1S         -0.02257  -0.00629  -0.01445   0.01142  -0.07936
   2        2S         -0.05017  -0.01474  -0.02831   0.02180  -0.16815
   3        3S         -0.04833  -0.03378  -0.09051   0.07074  -0.21015
   4        4PX        -0.07606   0.01556   0.14294  -0.15077  -0.20832
   5        4PY        -0.07102  -0.01967  -0.01647   0.00975  -0.22163
   6        4PZ        -0.10634  -0.12756   0.17888  -0.21928   0.20106
   7        5PX         0.05738  -0.00106  -0.12112   0.12018   0.11716
   8        5PY         0.04638  -0.00245   0.00510  -0.00470   0.16383
   9        5PZ         0.08296   0.08819  -0.12394   0.14789  -0.12648
  10        6D 0       -0.00309  -0.00170   0.00273  -0.00435  -0.00335
  11        6D+1        0.00029   0.00344   0.00149  -0.00039  -0.01056
  12        6D-1        0.00421   0.00432  -0.01062   0.01260  -0.00939
  13        6D+2       -0.00207  -0.00116  -0.00168   0.00184  -0.00096
  14        6D-2        0.00495   0.00102  -0.00798   0.00910   0.01034
  15 2   C  1S         -0.00811   0.00260  -0.00540   0.00431  -0.03454
  16        2S          0.02151  -0.00712   0.01372  -0.01143   0.09077
  17        3S          0.01284   0.06903   0.02593   0.00223  -0.00083
  18        4PX         0.04100   0.02815  -0.08528   0.10501   0.00367
  19        4PY        -0.03390  -0.02364  -0.02355   0.02095  -0.05686
  20        4PZ         0.04510   0.02100  -0.10623   0.13350  -0.00729
  21        5PX         0.02203  -0.01744  -0.05115   0.04796   0.04390
  22        5PY         0.01528  -0.00891  -0.02351   0.02411   0.03832
  23        5PZ         0.03428   0.04560  -0.08355   0.11066  -0.05079
  24        6D 0        0.00369   0.00325  -0.00424   0.00671  -0.00216
  25        6D+1        0.00035   0.00080   0.00082  -0.00092   0.00185
  26        6D-1       -0.01043  -0.01100   0.01743  -0.01880   0.01701
  27        6D+2       -0.00149  -0.00330   0.00066  -0.00205   0.00034
  28        6D-2       -0.00844  -0.00066   0.01306  -0.01271  -0.01816
  29 3   O  1S          0.00163   0.00370  -0.00021   0.00072  -0.01347
  30        2S          0.00354   0.00808  -0.00051   0.00134  -0.03012
  31        3S          0.00140   0.02009  -0.00532   0.01247  -0.07797
  32        4PX        -0.08551  -0.08368   0.11994  -0.16020   0.05829
  33        4PY         0.02007  -0.00414   0.01461  -0.01455   0.10637
  34        4PZ        -0.10451  -0.07940   0.13951  -0.18250  -0.02339
  35        5PX        -0.06682  -0.06560   0.10090  -0.13255   0.05635
  36        5PY         0.01476  -0.00347   0.01480  -0.01575   0.07870
  37        5PZ        -0.08661  -0.06456   0.11742  -0.15232  -0.02048
  38        6D 0       -0.00074  -0.00147  -0.00031   0.00036   0.00195
  39        6D+1        0.00052   0.00089   0.00046  -0.00041  -0.00110
  40        6D-1        0.00157   0.00159  -0.00241   0.00327  -0.00090
  41        6D+2        0.00049  -0.00002   0.00055  -0.00068   0.00269
  42        6D-2        0.00179   0.00140  -0.00171   0.00244   0.00025
  43 4   C  1S         -0.00066  -0.00904   0.00044  -0.00300   0.02422
  44        2S          0.00137   0.02166  -0.00378   0.01071  -0.06056
  45        3S         -0.01086   0.02753   0.00060  -0.00704  -0.17276
  46        4PX         0.03297   0.03017  -0.01226   0.02218   0.02191
  47        4PY        -0.01579  -0.04175   0.00022  -0.00923   0.09681
  48        4PZ         0.03392   0.04882  -0.03039   0.04552  -0.05712
  49        5PX         0.00187   0.00763   0.01161  -0.01260  -0.00137
  50        5PY        -0.00470  -0.02527   0.00699  -0.00920   0.11506
  51        5PZ         0.00561   0.01515  -0.00716   0.00330  -0.05807
  52        6D 0       -0.00666  -0.00584   0.00687  -0.00954   0.00015
  53        6D+1       -0.00145  -0.00136   0.00214  -0.00263   0.00053
  54        6D-1       -0.00135  -0.00075   0.00264  -0.00337  -0.00091
  55        6D+2        0.00022  -0.00039  -0.00142   0.00171   0.00167
  56        6D-2       -0.00006  -0.00076   0.00302  -0.00365   0.00582
  57 5   C  1S         -0.00783  -0.00194  -0.00231   0.00076  -0.02604
  58        2S          0.01259  -0.00165   0.00498  -0.00583   0.05769
  59        3S          0.06676   0.03722   0.01307   0.03802   0.19124
  60        4PX        -0.03037   0.01183   0.04048  -0.04100  -0.11570
  61        4PY        -0.00802  -0.00358  -0.01351   0.01430  -0.01845
  62        4PZ        -0.06076  -0.07612   0.04784  -0.06679   0.08234
  63        5PX         0.01245   0.02246  -0.03106   0.04746  -0.01929
  64        5PY        -0.00071  -0.00328   0.01579  -0.00822   0.08571
  65        5PZ        -0.01412  -0.01746   0.01589  -0.00431   0.03839
  66        6D 0        0.00714   0.00891  -0.00055   0.00322  -0.00415
  67        6D+1       -0.00157   0.00069   0.00914  -0.00960   0.00125
  68        6D-1        0.00346  -0.00007  -0.00551   0.00578   0.01032
  69        6D+2       -0.00914  -0.01053   0.00274  -0.00568   0.00247
  70        6D-2        0.00334   0.00709  -0.00128   0.00303  -0.01477
  71 6   C  1S          0.00000   0.00966  -0.00000   0.00173   0.00000
  72        2S         -0.00000  -0.01504   0.00000  -0.00155  -0.00000
  73        3S         -0.00000  -0.16255  -0.00000  -0.07530   0.00000
  74        4PX        -0.03133  -0.00000   0.03169   0.00001   0.06031
  75        4PY         0.00000   0.05267  -0.00000   0.00216   0.00000
  76        4PZ        -0.00754  -0.00000   0.04902   0.00000  -0.04499
  77        5PX         0.00184  -0.00000  -0.03217   0.00000   0.04428
  78        5PY         0.00000   0.07098  -0.00001   0.01588   0.00000
  79        5PZ         0.05252   0.00000  -0.04150  -0.00001  -0.05136
  80        6D 0       -0.00000  -0.00105   0.00000  -0.00702   0.00000
  81        6D+1        0.00000   0.00305  -0.00000   0.00172  -0.00000
  82        6D-1       -0.00328  -0.00000   0.00767   0.00000   0.00252
  83        6D+2        0.00000   0.00010  -0.00000   0.00482  -0.00000
  84        6D-2       -0.00244  -0.00000   0.00564   0.00000  -0.00208
  85 7   C  1S          0.00811   0.00260   0.00539   0.00431   0.03454
  86        2S         -0.02151  -0.00712  -0.01372  -0.01144  -0.09078
  87        3S         -0.01284   0.06904  -0.02593   0.00224   0.00083
  88        4PX         0.04100  -0.02814  -0.08526  -0.10503   0.00368
  89        4PY         0.03391  -0.02364   0.02355   0.02096   0.05686
  90        4PZ         0.04510  -0.02099  -0.10621  -0.13351  -0.00727
  91        5PX         0.02203   0.01744  -0.05114  -0.04796   0.04390
  92        5PY        -0.01528  -0.00891   0.02351   0.02412  -0.03833
  93        5PZ         0.03428  -0.04559  -0.08353  -0.11068  -0.05078
  94        6D 0       -0.00369   0.00325   0.00424   0.00671   0.00216
  95        6D+1       -0.00035   0.00080  -0.00082  -0.00092  -0.00185
  96        6D-1       -0.01042   0.01100   0.01743   0.01881   0.01701
  97        6D+2        0.00149  -0.00330  -0.00066  -0.00205  -0.00034
  98        6D-2       -0.00844   0.00066   0.01306   0.01271  -0.01816
  99 8   N  1S          0.02257  -0.00629   0.01445   0.01143   0.07937
 100        2S          0.05018  -0.01474   0.02830   0.02181   0.16816
 101        3S          0.04834  -0.03379   0.09049   0.07077   0.21015
 102        4PX        -0.07605  -0.01557   0.14292   0.15078  -0.20834
 103        4PY         0.07104  -0.01968   0.01646   0.00976   0.22163
 104        4PZ        -0.10632   0.12755   0.17885   0.21932   0.20107
 105        5PX         0.05737   0.00106  -0.12111  -0.12020   0.11717
 106        5PY        -0.04639  -0.00244  -0.00509  -0.00470  -0.16383
 107        5PZ         0.08295  -0.08818  -0.12392  -0.14792  -0.12648
 108        6D 0        0.00309  -0.00170  -0.00273  -0.00435   0.00335
 109        6D+1       -0.00029   0.00344  -0.00149  -0.00039   0.01056
 110        6D-1        0.00421  -0.00432  -0.01062  -0.01260  -0.00939
 111        6D+2        0.00207  -0.00116   0.00168   0.00184   0.00096
 112        6D-2        0.00495  -0.00102  -0.00798  -0.00910   0.01034
 113 9   C  1S          0.00784  -0.00194   0.00231   0.00076   0.02604
 114        2S         -0.01259  -0.00165  -0.00498  -0.00583  -0.05769
 115        3S         -0.06676   0.03722  -0.01307   0.03800  -0.19126
 116        4PX        -0.03037  -0.01183   0.04047   0.04100  -0.11571
 117        4PY         0.00802  -0.00358   0.01350   0.01430   0.01844
 118        4PZ        -0.06075   0.07611   0.04783   0.06681   0.08234
 119        5PX         0.01245  -0.02246  -0.03105  -0.04747  -0.01928
 120        5PY         0.00071  -0.00327  -0.01579  -0.00822  -0.08572
 121        5PZ        -0.01411   0.01746   0.01589   0.00432   0.03839
 122        6D 0       -0.00714   0.00891   0.00055   0.00322   0.00416
 123        6D+1        0.00157   0.00069  -0.00914  -0.00961  -0.00125
 124        6D-1        0.00346   0.00007  -0.00551  -0.00578   0.01032
 125        6D+2        0.00914  -0.01053  -0.00274  -0.00568  -0.00247
 126        6D-2        0.00333  -0.00709  -0.00128  -0.00303  -0.01477
 127 10  C  1S          0.00066  -0.00904  -0.00044  -0.00301  -0.02422
 128        2S         -0.00137   0.02166   0.00378   0.01071   0.06056
 129        3S          0.01086   0.02753  -0.00060  -0.00703   0.17277
 130        4PX         0.03297  -0.03017  -0.01226  -0.02218   0.02191
 131        4PY         0.01579  -0.04175  -0.00021  -0.00923  -0.09681
 132        4PZ         0.03392  -0.04883  -0.03038  -0.04553  -0.05713
 133        5PX         0.00187  -0.00763   0.01160   0.01260  -0.00137
 134        5PY         0.00470  -0.02527  -0.00699  -0.00921  -0.11507
 135        5PZ         0.00562  -0.01515  -0.00716  -0.00330  -0.05808
 136        6D 0        0.00666  -0.00584  -0.00687  -0.00954  -0.00015
 137        6D+1        0.00145  -0.00136  -0.00214  -0.00263  -0.00053
 138        6D-1       -0.00135   0.00075   0.00264   0.00337  -0.00091
 139        6D+2       -0.00022  -0.00039   0.00142   0.00171  -0.00167
 140        6D-2       -0.00006   0.00076   0.00302   0.00365   0.00582
 141 11  O  1S         -0.00163   0.00370   0.00020   0.00072   0.01347
 142        2S         -0.00354   0.00808   0.00051   0.00134   0.03012
 143        3S         -0.00140   0.02009   0.00532   0.01248   0.07797
 144        4PX        -0.08550   0.08367   0.11992   0.16023   0.05828
 145        4PY        -0.02007  -0.00414  -0.01462  -0.01457  -0.10638
 146        4PZ        -0.10450   0.07939   0.13948   0.18253  -0.02341
 147        5PX        -0.06681   0.06559   0.10088   0.13258   0.05634
 148        5PY        -0.01476  -0.00347  -0.01481  -0.01577  -0.07870
 149        5PZ        -0.08660   0.06455   0.11739   0.15234  -0.02050
 150        6D 0        0.00074  -0.00147   0.00031   0.00036  -0.00195
 151        6D+1       -0.00052   0.00089  -0.00046  -0.00041   0.00110
 152        6D-1        0.00157  -0.00159  -0.00241  -0.00327  -0.00090
 153        6D+2       -0.00049  -0.00002  -0.00055  -0.00068  -0.00269
 154        6D-2        0.00179  -0.00140  -0.00171  -0.00244   0.00025
 155 12  C  1S         -0.01295   0.01114   0.01809   0.02211   0.00519
 156        2S          0.02932  -0.02617  -0.05058  -0.05985  -0.02455
 157        3S          0.06170  -0.05128  -0.02717  -0.06385   0.07600
 158        4PX        -0.06000   0.11322  -0.16191  -0.13520   0.01473
 159        4PY         0.00581   0.00569  -0.04722  -0.04735  -0.00621
 160        4PZ         0.15069  -0.18999   0.06015   0.00925  -0.03102
 161        5PX        -0.02988   0.06946  -0.12433  -0.11930   0.01789
 162        5PY         0.01483   0.00492  -0.00610  -0.01702   0.10264
 163        5PZ         0.12196  -0.14669   0.01719  -0.03155  -0.01977
 164        6D 0       -0.00084   0.00433  -0.00433  -0.00328   0.00316
 165        6D+1        0.00206  -0.00102  -0.00255  -0.00307  -0.00124
 166        6D-1       -0.00462   0.00045  -0.00250  -0.00263   0.00095
 167        6D+2       -0.00094  -0.00253   0.00127   0.00056  -0.00199
 168        6D-2        0.00726  -0.00321   0.00021  -0.00054  -0.00053
 169 13  C  1S          0.01295   0.01114  -0.01809   0.02210  -0.00519
 170        2S         -0.02932  -0.02618   0.05058  -0.05984   0.02455
 171        3S         -0.06169  -0.05128   0.02718  -0.06384  -0.07599
 172        4PX        -0.05998  -0.11321  -0.16193   0.13517   0.01472
 173        4PY        -0.00581   0.00570   0.04724  -0.04735   0.00621
 174        4PZ         0.15069   0.18999   0.06016  -0.00926  -0.03101
 175        5PX        -0.02987  -0.06946  -0.12435   0.11929   0.01787
 176        5PY        -0.01483   0.00492   0.00611  -0.01703  -0.10264
 177        5PZ         0.12196   0.14670   0.01719   0.03154  -0.01977
 178        6D 0        0.00084   0.00433   0.00433  -0.00328  -0.00316
 179        6D+1       -0.00206  -0.00102   0.00255  -0.00307   0.00124
[...]
 00372,-0.00000361,0.00000073,-0.00000220,0.00000117,-0.00000003,0.0000
 0112,0.00000159,0.00000121,0.00000052,0.00000090,0.00000196,-0.0000006
 5,-0.00145828,-0.00027891,0.00268620,0.04192269,-0.00003013,0.00004911
 ,0.00003388,0.00005741,-0.00004933,-0.00004746,-0.00004194,0.00002988,
 0.00003133,0.00000672,-0.00001637,-0.00001539,0.00000596,-0.00002485,-
 0.00001118,0.00003622,-0.00000278,-0.00000491,0.00002232,0.00013956,-0
 .00001271,-0.00011622,-0.00013135,0.00000109,0.00040474,-0.00027504,0.
 00011817,-0.00011463,0.00004110,-0.00008947,-0.00003661,-0.00010854,-0
 .00000169,-0.00075677,0.00159075,-0.00191973,0.00000266,0.00000138,0.0
 0001168,-0.00001414,-0.00000279,0.00002039,-0.00003124,-0.00000824,0.0
 0001532,-0.00000898,-0.00000685,-0.00000524,0.00000095,0.00000123,0.00
 000148,-0.00000129,0.00000142,0.,0.00000174,0.00000234,0.00000293,-0.0
 0000346,0.00000128,0.00000036,0.00216979,-0.00529383,0.00043262,-0.009
 55451,-0.33075675,-0.06526903,-0.00377729,-0.01360202,-0.00705637,0.00
 354155,-0.00053490,0.00198430,0.00004672,0.00078994,0.00040271,-0.0000
 0306,-0.00000076,0.00000295,-0.00000094,0.00000057,0.00000440,-0.00000
 719,0.00000606,0.00000572,-0.00001853,-0.00000466,0.00000350,-0.000006
 78,-0.00004873,-0.00002999,-0.00000462,0.00001223,0.00002351,0.0000036
 7,0.00000204,-0.00000346,-0.00000665,-0.00000980,-0.00000227,0.0000056
 1,0.00001057,0.00000226,0.00000853,0.00000037,-0.00001206,0.00000271,0
 .00001431,-0.00000179,-0.00000065,-0.00001210,0.00000601,0.00000030,-0
 .00000090,-0.00000047,-0.00000073,0.00000096,-0.00000226,0.00000047,0.
 00000025,-0.00000071,0.00000120,-0.00000014,-0.00000065,0.00000336,0.0
 0000185,-0.00000096,-0.00045485,0.00065751,0.00044794,0.00945763,0.347
 59884,-0.00002627,0.00001540,0.00000059,0.00002962,-0.00000898,-0.0000
 2220,-0.00002449,0.00000288,0.00001745,0.00000342,-0.00000450,-0.00000
 261,0.00001013,-0.00000750,0.00000706,0.00002529,0.00000376,-0.0000047
 9,-0.00004095,0.00014303,0.00000971,-0.00006183,0.00000273,0.00000186,
 0.00036593,-0.00104951,-0.00002760,-0.00022787,0.00014920,-0.00014058,
 0.00003463,-0.00008359,0.00001919,-0.00653686,-0.00124986,0.00096745,0
 .00000651,-0.00000584,0.00000567,-0.00000630,-0.00000527,0.00001751,-0
 .00001932,-0.00000404,0.00000267,-0.00000287,0.00000110,-0.00000448,0.
 00000138,-0.00000354,0.00000004,-0.00000176,0.00000145,-0.00000269,0.0
 0000075,0.00000136,0.00000112,-0.00000369,0.00000304,-0.00000244,-0.00
 015903,-0.02195169,-0.00012599,-0.01205783,-0.06524393,-0.06296955,0.0
 0041305,0.01511385,0.00709751,-0.00510122,0.00141115,0.00240498,-0.000
 03481,0.00040604,-0.00097860,-0.00000272,-0.00000179,0.00000109,-0.000
 00008,0.00000331,-0.00000056,0.00000093,-0.00000045,0.00000118,0.00000
 321,0.00005104,-0.00002400,0.00002598,-0.00008565,-0.00004639,0.000059
 24,0.00000227,0.00003057,0.00000309,0.00000252,-0.00000042,-0.00000548
 ,-0.00000657,-0.00000176,0.00000389,0.00000555,-0.00000067,-0.00000220
 ,0.00000285,0.00000173,-0.00000082,0.00000254,-0.00000544,0.00000338,-
 0.00000572,0.00000857,0.00000056,-0.00000309,0.00000373,-0.00000220,0.
 00000226,-0.00000034,-0.00000142,0.00000009,-0.00000075,-0.00000031,-0
 .00000033,-0.00000062,0.00000267,0.00000175,0.00000046,0.00249564,0.00
 081296,-0.00164339,0.01774013,0.07070013,0.05730197,-0.00001362,0.0000
 1712,0.00002589,0.00003827,-0.00001445,-0.00003437,-0.00003226,0.00000
 805,0.00003070,0.00000247,-0.00001195,-0.00001771,0.00000331,-0.000012
 20,-0.00001141,0.00002452,0.00000578,-0.00000537,0.00000178,0.00008908
 ,0.00002019,-0.00013149,-0.00014520,-0.00003462,-0.00044928,-0.0000762
 1,0.00037071,-0.00000875,0.00002556,-0.00003975,0.00000187,-0.00006780
 ,-0.00002474,-0.00022052,0.00059663,0.00085486,-0.00000232,0.00000251,
 0.00000514,-0.00000801,-0.00000529,0.00001431,-0.00002595,-0.00001368,
 0.00000776,-0.00000337,-0.00000228,0.00000077,-0.00000076,0.00000034,0
 .00000181,-0.00000024,0.00000023,0.00000143,0.00000022,0.00000087,0.00
 000155,-0.00000087,-0.00000003,0.00000195,0.00221926,0.00362348,-0.004
 34528,-0.00655690,-0.00845882,-0.01159163,-0.16658458,-0.05729257,-0.1
 3875910,0.00265684,0.00207318,-0.00052150,0.00439326,0.00028880,-0.002
 78531,-0.00000155,-0.00000018,0.00000258,-0.00000106,-0.00000056,0.000
 00609,-0.00000385,0.00000554,0.00000105,0.00006172,-0.00005918,0.00005
 955,-0.00001976,-0.00001323,-0.00000627,-0.00001700,0.00001963,0.00000
 804,0.00000416,0.00000162,-0.00000019,-0.00000501,-0.00000647,-0.00000
 187,0.00000308,0.00000670,0.00000050,0.00000508,0.00000346,-0.00000904
 ,0.00000192,0.00000873,-0.00000142,-0.00000004,-0.00000947,0.00000573,
 0.00000179,-0.00000032,-0.00000329,0.00000117,-0.00000047,-0.00000142,
 0.00000091,-0.00000007,-0.00000062,0.00000101,-0.00000011,-0.00000048,
 0.00000136,0.00000003,-0.00000147,-0.00030080,-0.00034720,-0.00059180,
 -0.00155716,-0.00048615,0.00256064,0.16814503,-0.00001106,0.00001292,0
 .00001112,0.00002289,-0.00001521,-0.00002043,-0.00001802,0.00000707,0.
 00001621,0.00000202,-0.00000523,-0.00000906,0.00000186,-0.00000317,-0.
 00000132,0.00000930,0.00000645,0.00000516,0.00012193,-0.00004668,-0.00
 005045,-0.00003325,0.00004311,-0.00000455,-0.00009201,0.00005172,0.000
 04704,0.00006774,-0.00001183,0.00001321,-0.00011001,0.00006341,-0.0000
 2153,0.00047981,-0.00111280,0.00054082,-0.00000036,-0.00000085,0.00000
 294,-0.00000315,-0.00000199,0.00000679,-0.00000987,-0.00000891,0.00000
 950,-0.00000056,-0.00000066,-0.00000048,-0.00000003,0.00000018,-0.0000
 0026,-0.00000037,0.00000007,-0.00000001,0.00000024,0.00000046,0.000000
 81,-0.00000114,0.00000026,0.00000022,0.00310836,-0.00206774,0.00132483
 ,0.01377210,0.01022338,0.01496766,-0.05731944,-0.08726179,-0.06599101,
 -0.02021925,-0.00377645,-0.02140484,0.00093416,-0.00529584,-0.00125488
 ,-0.00000135,0.00000002,0.00000127,-0.00000053,0.00000107,0.00000267,-
 0.00000173,0.00000197,0.00000086,-0.00004598,-0.00000587,-0.00006193,-
 0.00004106,0.00000606,-0.00000030,-0.00003177,0.00003364,0.00005964,0.
 00000114,0.00000055,-0.00000115,-0.00000326,-0.00000269,-0.00000022,0.
 00000304,0.00000552,0.00000108,0.00000793,0.00000173,-0.00001594,0.000
 00517,0.00001444,-0.00000019,-0.00000761,-0.00000346,0.00000044,-0.000
 00010,0.00000028,0.00000033,0.00000003,0.00000025,-0.00000009,0.000000
 07,0.00000015,-0.00000027,0.00000024,-0.00000018,-0.00000036,0.0000010
 5,0.00000019,-0.00000050,0.00065535,0.00034009,0.00071472,-0.00080075,
 0.00077552,0.00012624,0.06066325,0.08735558,-0.00002273,0.00000015,0.0
 0000046,0.00002573,0.00000981,-0.00002008,-0.00002873,-0.00000488,0.00
 002102,0.00000615,-0.00000587,-0.00000654,0.00001178,-0.00000552,0.000
 00172,0.00000033,-0.00000116,-0.00000806,0.00008058,0.00004149,-0.0000
 5421,0.00006996,0.00003629,0.00006634,0.00053572,0.00005712,-0.0004476
 1,-0.00000594,-0.00000924,0.00006280,-0.00003619,-0.00005401,0.0000152
 6,0.00066916,0.00035836,-0.00009308,0.00000313,-0.00000340,0.00000405,
 -0.00000528,-0.00000110,0.00000915,-0.00000307,0.00000414,0.00000637,-
 0.00000183,0.00000265,0.00000025,-0.00000124,-0.00000274,0.00000130,-0
 .00000120,0.00000054,-0.00000029,0.00000015,0.00000115,0.00000120,-0.0
 0000332,0.00000161,-0.00000131,-0.00436219,0.00206752,0.00331813,-0.00
 781883,-0.00707449,-0.00550105,-0.13883714,-0.06613445,-0.18767089,-0.
 00440609,0.00069008,-0.00070476,-0.00255635,-0.00184416,0.00427967,-0.
 00000305,-0.00000169,0.00000037,0.00000085,0.00000224,0.00000061,0.000
 00142,0.00000060,-0.00000064,-0.00004526,0.00007229,-0.00000382,0.0000
 0010,-0.00000010,-0.00001249,0.00000735,-0.00000783,0.00002189,0.00000
 061,0.00000138,-0.00000181,-0.00000357,-0.00000370,-0.00000020,0.00000
 349,0.00000410,0.00000055,0.00000527,0.00000040,-0.00000973,0.00000306
 ,0.00000750,-0.00000075,-0.00000487,-0.00000230,-0.00000040,0.00000251
 ,-0.00000281,-0.00000179,0.00000112,0.00000071,-0.00000075,-0.00000062
 ,0.00000027,-0.00000147,-0.00000030,-0.00000091,-0.00000106,0.00000266
 ,0.00000066,0.00000008,-0.00043362,-0.00036848,-0.00034690,0.00252636,
 0.00049107,-0.00163631,0.15250111,0.07130486,0.19052803,-0.00000421,-0
 .00000702,0.00002504,0.00003406,0.00002085,-0.00002984,-0.00002916,-0.
 00002054,0.00003821,-0.00000752,-0.00000442,-0.00001301,-0.00000189,-0
 .00000541,-0.00000768,0.00003682,0.00002250,-0.00001853,-0.00004236,0.
 00028868,-0.00001353,-0.00009473,-0.00022792,0.00005186,0.00000054,0.0
 0082141,-0.00040910,-0.00003690,0.00015083,0.00005299,0.00003322,-0.00
 016371,-0.00000155,0.00177965,-0.00152394,-0.00562945,-0.00000459,0.00
 000128,-0.00000019,-0.00000492,-0.00002553,0.00003581,-0.00004955,-0.0
 0003546,-0.00002608,0.00000090,0.00000016,0.00000330,-0.00000105,-0.00
 000057,0.00000155,0.00000059,-0.00000079,0.00000214,-0.00000070,-0.000
 00012,0.00000079,0.00000078,0.00000039,0.00000245,-0.00042271,-0.00087
 347,0.00041767,0.00433931,-0.00012693,-0.00293478,0.00466179,-0.003309
 10,0.00033783,-0.14709936,0.11232316,-0.08985269,-0.00633253,0.0145144
 0,-0.00766631,-0.00000040,0.00000023,0.00000245,-0.00000207,0.00000080
 ,0.00000743,-0.00000073,0.00000304,-0.00000143,-0.00028599,-0.00011782
 ,-0.00016810,0.00001265,-0.00003539,-0.00001834,0.00006410,0.00002091,
 0.00002745,0.00001268,0.00000483,0.00000769,-0.00001241,-0.00000977,-0
 .00000534,0.00000343,0.00000953,-0.00000508,-0.00002086,0.00002635,0.0
 0000766,-0.00000252,-0.00000297,-0.00001716,0.00001148,-0.00000763,0.0
 0002075,0.00000108,0.00000009,-0.00000308,0.00000159,-0.00000120,-0.00
 000031,0.00000101,-0.00000024,-0.00000030,0.00000072,0.00000006,-0.000
 00037,-0.00000014,-0.00000102,-0.00000167,-0.00051669,-0.00005656,0.00
 051284,0.00017591,-0.00017674,-0.00004068,-0.00173525,-0.00020523,0.00
 242474,0.14714555,0.00001372,-0.00000499,-0.00000699,-0.00002164,0.000
 00216,0.00002166,0.00002216,-0.00000161,-0.00001817,-0.00000451,0.0000
 0618,0.00001078,-0.00000629,0.00000224,0.00000063,-0.00000940,0.000002
 43,-0.00000953,-0.00004971,-0.00000273,0.00004666,0.00006083,0.0000193
 6,0.00000871,-0.00031881,0.00035175,-0.00032191,0.00001731,0.00004267,
 0.00001196,0.00004802,-0.00001789,0.00001460,-0.00129239,0.00058320,-0
 .00225999,-0.00000005,0.00000139,-0.00000261,0.00000168,-0.00000194,-0
 .00000288,0.00000931,0.00000450,-0.00000034,0.00000024,-0.00000166,-0.
 00000131,0.00000116,0.00000105,-0.00000058,0.00000054,-0.00000006,-0.0
 0000033,0.00000011,-0.00000056,-0.00000079,0.00000174,-0.00000022,-0.0
 0000002,-0.00077597,-0.00035399,-0.00070118,-0.00072843,-0.00487511,-0
 .00280566,0.01874193,-0.01289722,0.01588849,0.11253317,-0.18195008,0.0
 8783657,-0.00736952,0.00968971,-0.00646247,0.00000191,0.00000069,-0.00
 000100,-0.00000005,-0.00000101,-0.00000248,0.00000023,-0.00000198,0.00
 000062,-0.00009817,-0.00002516,-0.00008702,0.00001600,0.00000015,0.000
 00459,0.00002890,-0.00000847,-0.00001421,0.00000040,-0.00000095,0.0000
 0167,0.00000138,0.00000201,-0.00000037,-0.00000242,-0.00000282,-0.0000
 0180,-0.00000740,0.00000605,0.00001198,-0.00000797,-0.00001271,-0.0000
 0719,0.00000481,0.00000202,-0.00000014,-0.00000162,0.00000088,0.000001
 72,-0.00000121,-0.00000014,0.00000033,0.00000011,-0.00000018,0.0000009
 1,-0.00000006,0.00000062,0.00000066,-0.00000156,-0.00000004,0.00000046
 ,-0.00003144,0.00001213,0.00014873,0.00090539,-0.00075769,0.00071508,-
 0.00054741,0.00103591,0.00035600,-0.12089570,0.18838887,-0.00002101,0.
 00000388,0.00000294,0.00003052,0.00000752,-0.00001999,-0.00002654,-0.0
 0000628,0.00002003,0.00000322,-0.00000407,-0.00000199,0.00000839,-0.00
 000804,0.00000132,0.00002932,-0.00000387,-0.00001823,-0.00006495,0.000
 21852,0.00010994,0.00001335,-0.00012976,-0.00005614,-0.00022700,0.0010
 6896,-0.00010178,0.00000295,0.00003959,-0.00003154,0.00014547,-0.00018
 062,-0.00003200,-0.00582670,-0.00312148,0.00128337,0.00000323,-0.00000
 312,0.00000409,-0.00000895,-0.00000562,0.00002040,-0.00002409,-0.00000
 175,0.00001314,-0.00000224,0.00000088,-0.00000103,-0.00000062,-0.00000
 179,0.00000082,-0.00000107,0.00000044,-0.00000041,0.00000057,0.0000011
 8,0.00000133,-0.00000299,0.00000185,-0.00000145,0.00048092,-0.00062441
 ,-0.00056110,-0.00298628,-0.00215414,0.00378691,0.00403180,-0.00629493
 ,0.00679163,-0.08958577,0.08789162,-0.11249962,-0.01168738,0.01547508,
 -0.00528137,-0.00000271,-0.00000139,0.00000029,0.00000061,0.00000223,0
 .00000015,0.00000079,0.00000010,0.00000037,-0.00016604,-0.00003045,-0.
 00019979,-0.00001159,-0.00001932,-0.00001585,-0.00003844,-0.00002011,-
 0.00000502,0.00000422,0.00000198,0.00000006,-0.00000681,-0.00000699,-0
 .00000242,0.00000324,0.00000503,-0.00000252,-0.00000373,0.00001120,0.0
 0000055,-0.00000656,-0.00000441,-0.00001205,0.00000554,-0.00000987,0.0
 0000820,0.00000125,-0.00000205,-0.00000061,0.00000052,0.00000065,-0.00
 000062,-0.00000048,0.00000036,-0.00000106,-0.00000037,-0.00000066,-0.0
 0000090,0.00000236,0.00000078,0.00000031,0.00048440,0.00016776,-0.0005
 2802,0.00012127,-0.00032207,0.00023482,0.00236703,0.00068643,-0.001692
 26,0.10028901,-0.09299467,0.11037740,0.00007595,-0.00007272,-0.0000392
 1,-0.00010179,0.00009358,0.00009258,0.00010024,-0.00004805,-0.00007155
 ,-0.00002090,0.00002945,0.00003424,-0.00002632,0.00002927,0.00000242,-
 0.00004379,-0.00003183,-0.00002051,-0.00152826,0.00094253,0.00084046,-
 0.00039762,-0.00081955,-0.00015284,-0.00062464,-0.00004208,0.00250866,
 -0.00023598,0.00039279,-0.00152210,0.00097532,-0.00089722,-0.00017024,
 0.00527271,0.01727563,0.00444369,-0.00000893,0.00000746,-0.00002190,0.
 00002301,-0.00000011,-0.00003639,-0.00002781,-0.00000522,-0.00005232,0
 .00001125,0.00000296,0.00000764,-0.00000028,0.00000275,-0.00000113,0.0
 0000411,-0.00000274,0.00000292,-0.00000284,-0.00000443,-0.00000508,0.0
 0001018,-0.00000426,0.00000318,0.00124563,0.00272487,-0.00512322,-0.00
 107418,0.00016765,-0.00006080,0.00120515,-0.00026370,-0.00619563,0.003
 16410,-0.02010926,-0.00369509,-0.04848519,-0.01213628,-0.01303805,0.00
 000969,0.00000264,-0.00000482,0.00000012,-0.00000661,-0.00000606,0.000
 00681,-0.00000752,-0.00000637,0.00025152,0.00002801,0.00014364,-0.0000
 4191,-0.00004313,0.00006270,0.00012518,-0.00004605,-0.00030687,0.00000
 405,-0.00000179,0.00001149,0.00001639,0.00001090,-0.00000038,-0.000018
 79,-0.00003315,-0.00000904,-0.00002590,0.00001973,0.00008398,-0.000047
 35,-0.00013258,0.00001296,0.00005914,0.00000847,0.00001523,-0.00000272
 ,0.00000446,-0.00000114,0.00000090,-0.00000336,0.00000267,0.00000136,-
 0.00000105,0.00000266,-0.00000014,0.00000156,0.00000236,-0.00000859,-0
 .00000358,0.00000036,0.00013042,0.00091806,0.00013782,-0.00048065,-0.0
 0012616,0.00057091,0.00011140,-0.00089979,-0.00030192,-0.00160861,-0.0
 0023931,0.00267235,0.04200853,-0.00003256,0.00004961,0.00002331,0.0000
 5186,-0.00007236,-0.00002865,-0.00003966,0.00003681,0.00002879,0.00000
 802,-0.00001443,-0.00001311,0.00000597,-0.00001865,-0.00000578,0.00002
 406,0.00005298,-0.00001551,0.00078643,-0.00035989,-0.00005093,0.000064
 89,0.00026374,0.00019380,-0.00123695,-0.00082936,-0.00093700,-0.000089
 11,0.00027069,-0.00074022,-0.00060138,0.00033497,-0.00043295,-0.002698
 68,-0.01427595,-0.00605384,0.00000364,-0.00000168,0.00001200,-0.000016
 21,-0.00000654,0.00001397,-0.00001757,0.00003446,0.00012378,-0.0000075
 9,-0.00000540,-0.00000651,0.00000153,0.00000033,0.00000006,-0.00000199
 ,0.00000180,-0.00000141,0.00000167,0.00000221,0.00000281,-0.00000436,0
 .00000204,-0.00000086,0.00315034,-0.00048111,0.00208413,0.00019642,0.0
 0067848,0.00043214,-0.00109405,0.00155815,-0.00186412,0.00202500,-0.00
 558566,0.00064188,-0.01256143,-0.32866963,-0.05662421,-0.00000364,-0.0
 0000060,0.00000247,-0.00000050,0.00000211,0.00000256,-0.00000532,0.000
 00429,0.00000554,0.00000841,0.00009061,0.00004579,-0.00042683,0.000147
 79,0.00004227,-0.00025016,0.00050870,0.00029413,0.00000283,-0.00000315
 ,-0.00000833,-0.00000726,-0.00000477,0.00000145,0.00000616,0.00002058,
 0.00000094,0.00003379,-0.00000741,-0.00008790,-0.00001677,0.00001063,-
 0.00000898,-0.00002732,-0.00002946,-0.00002660,-0.00000023,-0.00000076
 ,0.00000287,-0.00000196,0.00000185,-0.00000176,-0.00000003,0.00000019,
 -0.00000066,0.00000102,-0.00000004,-0.00000078,0.00000358,0.00000221,-
 0.00000061,-0.00019864,-0.00078832,-0.00032204,-0.00011060,-0.00008064
 ,0.00003825,0.00013071,-0.00036066,0.00001587,-0.00037431,0.00076322,0
 .00036584,0.01331875,0.34675801,-0.00000206,-0.00000356,-0.00003671,-0
 .00002420,0.00001566,0.00001297,0.00002799,0.00001488,-0.00004444,0.00
 001433,0.00000330,0.00000530,0.00000974,0.00000894,0.00000811,-0.00002
 182,-0.00011863,0.00000381,-0.00041637,0.00037390,0.00049100,0.0004929
 2,-0.00003012,0.00006938,0.00187931,0.00029593,-0.00155746,-0.00203359
 ,0.00041584,-0.00088952,0.00058936,-0.00018046,-0.00051544,0.00162615,
 0.01335247,0.00692836,0.00000476,-0.00000154,0.00000089,-0.00000539,0.
 00006086,-0.00004815,0.00007377,0.00008359,0.00009825,-0.00000006,0.00
 000179,-0.00000151,0.00000022,-0.00000003,-0.00000137,-0.00000067,0.00
 000075,-0.00000258,0.00000087,-0.00000010,-0.00000146,-0.00000097,-0.0
 0000063,-0.00000299,-0.00514949,0.00150855,0.00202870,-0.00011955,0.00
 035259,-0.00104422,-0.00630969,-0.00131783,0.00081508,-0.00045726,-0.0
 2182399,0.00012368,-0.01274374,-0.05583433,-0.05882225,-0.00000022,-0.
 00000096,-0.00000239,0.00000278,-0.00000111,-0.00000752,0.00000092,-0.
 00000230,0.00000017,-0.00000245,-0.00018641,-0.00007747,0.00035449,0.0
 0001873,0.00003016,-0.00006637,-0.00029722,-0.00141807,-0.00002476,-0.
 00000779,-0.00001672,0.00002287,0.00000770,0.00000122,-0.00001009,-0.0
 0003056,0.00000681,0.00006873,-0.00007668,-0.00010721,0.00004305,0.000
 05069,0.00007205,-0.00005776,0.00000725,-0.00006967,0.00000014,-0.0000
 0095,0.00000109,-0.00000065,0.00000096,0.00000046,-0.00000147,0.000000
 50,0.00000008,-0.00000167,-0.00000046,0.00000031,0.00000036,0.00000061
 ,0.00000244,-0.00004968,0.00080018,0.00037062,0.00056526,0.00006613,-0
 .00049474,-0.00006074,-0.00100509,-0.00012097,0.00259494,0.00062084,-0
 .00159027,0.01918774,0.06285809,0.05580220\\0.00333857,-0.00072904,-0.
 00860149,0.00059836,0.03024005,-0.00232176,-0.01681792,-0.01361688,0.0
 1356762,0.00028019,-0.00590426,-0.00117007,0.01378296,-0.00913634,-0.0
 0616177,0.00000232,0.00014769,0.00000674,-0.00058959,0.03024472,0.0023
 1497,-0.00334031,-0.00072932,0.00860174,-0.01378430,-0.00913701,0.0061
 6415,-0.00029049,-0.00590537,0.00116765,0.01681851,-0.01361592,-0.0135
 6856,-0.00188242,0.00018236,-0.00268061,0.00188552,0.00017875,0.002683
 77,0.00124618,-0.00064286,0.00144108,-0.00125222,-0.00064148,-0.001448
 68,-0.00111485,-0.00376345,-0.00169988,0.00128384,0.00158573,0.0007974
 9,-0.00057456,-0.00042200,-0.00043888,0.00031816,0.00095800,0.00015079
 ,-0.00051067,0.00097710,0.00040867,0.00111786,-0.00377077,0.00170539,-
 0.00128654,0.00158995,-0.00080476,0.00058159,-0.00041767,0.00044986,-0
 .00032634,0.00095155,-0.00016034,0.00051114,0.00098204,-0.00040886,-0.
 00065478,-0.00106997,0.00091870,-0.00042324,0.00053514,0.00082535,-0.0
 0357344,-0.00006624,0.00211511,0.00357383,-0.00006883,-0.00211365,0.00
 042374,0.00053482,-0.00082349,0.00065918,-0.00107114,-0.00091727,0.000
 19484,0.00028224,0.00022387,-0.00046977,-0.00037073,-0.00010555,-0.000
 01970,-0.00034190,-0.00048289,-0.00019259,0.00028439,-0.00022142,0.000
 47014,-0.00037044,0.00010578,0.00001922,-0.00034232,0.00048348,-0.0015
 4184,0.00001295,-0.00000271,-0.00062714,0.00037109,-0.00041591,-0.0000
 3862,0.00019281,0.00007883,0.00001609,0.00003421,-0.00011488,0.0007766
 8,0.00061947,0.00017879,0.00153926,0.00001612,-0.00000001,0.00062683,0
 .00036836,0.00041654,0.00003621,0.00019210,-0.00008206,-0.00001333,0.0
 0003362,0.00011733,-0.00077659,0.00061866,-0.00017821\\\@

 Writing a WFNX file to "box_17.wfx"


 EVERY WORD THAT YOU WRITE IS A BLOW THAT SMITES THE DEVIL.
     -- ST. BERNARD OF CLAIRVAUX
 Job cpu time:       0 days  4 hours 47 minutes 52.5 seconds.
 Elapsed time:       0 days  0 hours 35 minutes 59.6 seconds.
 File lengths (MBytes):  RWF=   1084 Int=      0 D2E=      0 Chk=     16 Scr=      1
 Normal termination of Gaussian 16 at Thu Aug  4 10:02:06 2022.
