 Entering Gaussian System, Link 0=g16
 Initial command:
 /software/gaussian/G16-A.03/avx/g16/l1.exe "/scratch/lcmd/1361331.slurm/Gau-19738.inp" -scrdir="/scratch/lcmd/1361331.slurm/"
 Entering Link 1 = /software/gaussian/G16-A.03/avx/g16/l1.exe PID=     19739.
  
 Copyright (c) 1988,1990,1992,1993,1995,1998,2003,2009,2016,
            Gaussian, Inc.  All Rights Reserved.
  
 This is part of the Gaussian(R) 16 program.  It is based on
 the Gaussian(R) 09 system (copyright 2009, Gaussian, Inc.),
 the Gaussian(R) 03 system (copyright 2003, Gaussian, Inc.),
 the Gaussian(R) 98 system (copyright 1998, Gaussian, Inc.),
 the Gaussian(R) 94 system (copyright 1995, Gaussian, Inc.),
 the Gaussian 92(TM) system (copyright 1992, Gaussian, Inc.),
 the Gaussian 90(TM) system (copyright 1990, Gaussian, Inc.),
 the Gaussian 88(TM) system (copyright 1988, Gaussian, Inc.),
 the Gaussian 86(TM) system (copyright 1986, Carnegie Mellon
 University), and the Gaussian 82(TM) system (copyright 1983,
 Carnegie Mellon University). Gaussian is a federally registered
 trademark of Gaussian, Inc.
  
 This software contains proprietary and confidential information,
 including trade secrets, belonging to Gaussian, Inc.
  
 This software is provided under written license and may be
 used, copied, transmitted, or stored only in accord with that
 written license.
  
 The following legend is applicable only to US Government
 contracts under FAR:
  
                    RESTRICTED RIGHTS LEGEND
  
 Use, reproduction and disclosure by the US Government is
 subject to restrictions as set forth in subparagraphs (a)
 and (c) of the Commercial Computer Software - Restricted
 Rights clause in FAR 52.227-19.
  
 Gaussian, Inc.
 340 Quinnipiac St., Bldg. 40, Wallingford CT 06492
  
  
 ---------------------------------------------------------------
 Warning -- This program may not be used in any manner that
 competes with the business of Gaussian, Inc. or will provide
 assistance to any competitor of Gaussian, Inc.  The licensee
 of this program is prohibited from giving any competitor of
 Gaussian, Inc. access to this program.  By using this program,
 the user acknowledges that Gaussian, Inc. is engaged in the
 business of creating and licensing software in the field of
 computational chemistry and represents and warrants to the
 licensee that it is not a competitor of Gaussian, Inc. and that
 it will not use this program in any manner prohibited above.
 ---------------------------------------------------------------
  

 Cite this work as:
 Gaussian 16, Revision A.03,
 M. J. Frisch, G. W. Trucks, H. B. Schlegel, G. E. Scuseria, 
 M. A. Robb, J. R. Cheeseman, G. Scalmani, V. Barone, 
 G. A. Petersson, H. Nakatsuji, X. Li, M. Caricato, A. V. Marenich, 
 J. Bloino, B. G. Janesko, R. Gomperts, B. Mennucci, H. P. Hratchian, 
 J. V. Ortiz, A. F. Izmaylov, J. L. Sonnenberg, D. Williams-Young, 
 F. Ding, F. Lipparini, F. Egidi, J. Goings, B. Peng, A. Petrone, 
 T. Henderson, D. Ranasinghe, V. G. Zakrzewski, J. Gao, N. Rega, 
 G. Zheng, W. Liang, M. Hada, M. Ehara, K. Toyota, R. Fukuda, 
 J. Hasegawa, M. Ishida, T. Nakajima, Y. Honda, O. Kitao, H. Nakai, 
 T. Vreven, K. Throssell, J. A. Montgomery, Jr., J. E. Peralta, 
 F. Ogliaro, M. J. Bearpark, J. J. Heyd, E. N. Brothers, K. N. Kudin, 
 V. N. Staroverov, T. A. Keith, R. Kobayashi, J. Normand, 
 K. Raghavachari, A. P. Rendell, J. C. Burant, S. S. Iyengar, 
 J. Tomasi, M. Cossi, J. M. Millam, M. Klene, C. Adamo, R. Cammi, 
 J. W. Ochterski, R. L. Martin, K. Morokuma, O. Farkas, 
 J. B. Foresman, and D. J. Fox, Gaussian, Inc., Wallingford CT, 2016.
 
 ******************************************
 Gaussian 16:  ES64L-G16RevA.03 25-Dec-2016
                 3-Nov-2022 
 ******************************************
 %nprocs=8
 Will use up to    8 processors via shared memory.
 %mem=32000MB
 %chk=01_lig_b.chk
 ----------------------------------------------------------------------
 #p pop=(regular,nbo,savenbos) freq=noraman def2svp empiricaldispersion
 =gd3bj output=wfx pbe1pbe
 ----------------------------------------------------------------------
 1/10=4,30=1,38=1/1,3;
 2/12=2,17=6,18=5,40=1/2;
 3/5=43,7=101,11=2,25=1,30=1,71=2,74=-13,124=41,140=1/1,2,3;
 4//1;
 5/5=2,38=5,98=1/2;
 8/6=4,10=90,11=11/1;
 11/6=1,8=1,9=11,15=111,16=1/1,2,10;
 10/6=1/2;
 6/28=1,40=1,73=1/1,7;
 7/8=1,10=1,25=1/1,2,3,16;
 1/10=4,30=1/3;
 99/6=200/99;
 Leave Link    1 at Thu Nov  3 08:04:19 2022, MaxMem=  4194304000 cpu:               0.6 elap:               0.1
 (Enter /software/gaussian/G16-A.03/avx/g16/l101.exe)
 --------
 01_lig_b
 --------
 Symbolic Z-matrix:
 Charge =  0 Multiplicity = 1
 C                     2.18644   3.20331   0.25506 
 C                     1.57706   1.81247   0.4446 
 C                     2.57051   0.73918   0.08414 
 N                     2.3298   -0.41154  -0.41248 
 C                     3.55581  -1.19981  -0.36486 
 C                     4.60161  -0.19091   0.13231 
 O                     3.82638   0.98224   0.4476 
 N                    -0.27533   0.58853  -0.6912 
 C                     0.29551   1.67444  -0.33897 
 O                    -0.36342   2.80092  -0.58943 
 C                    -1.51882   2.43113  -1.36821 
 C                    -1.61706   0.90618  -1.17439 
 H                    -1.78      0.36452  -2.11928 
 C                    -2.69621   0.48553  -0.19299 
 C                    -4.00868   0.91355  -0.42369 
 C                    -5.04063   0.54747   0.43569 
 C                    -4.77285  -0.2604    1.54007 
 C                    -3.47187  -0.70097   1.76767 
 C                    -2.43782  -0.33517   0.90718 
 C                     1.21418   1.55938   1.93113 
 H                     2.43141   3.39508  -0.79947 
 H                     3.10548   3.2883    0.84747 
 H                     1.47313   3.96851   0.58508 
 H                     3.78771  -1.613    -1.35715 
 H                     3.37977  -2.03561   0.33101 
 H                     5.34163   0.09133  -0.63069 
 H                     5.1263   -0.50389   1.04482 
 H                    -1.32049   2.72106  -2.4115 
 H                    -2.38192   2.98659  -0.98324 
 H                    -4.23632   1.53373  -1.29634 
 H                    -6.05922   0.88964   0.23764 
 H                    -5.58001  -0.55305   2.21568 
 H                    -3.24967  -1.35009   2.61763 
 H                    -1.43559  -0.72379   1.09787 
 H                     2.09506   1.75433   2.55868 
 H                     0.89797   0.51491   2.07642 
 H                     0.40333   2.23536   2.23729 
 
 ITRead=  0  0  0  0  0  0  0  0  0  0  0  0  0  0  0  0  0  0  0  0
 ITRead=  0  0  0  0  0  0  0  0  0  0  0  0  0  0  0  0  0
 MicOpt= -1 -1 -1 -1 -1 -1 -1 -1 -1 -1 -1 -1 -1 -1 -1 -1 -1 -1 -1 -1
 MicOpt= -1 -1 -1 -1 -1 -1 -1 -1 -1 -1 -1 -1 -1 -1 -1 -1 -1
 NAtoms=     37 NQM=       37 NQMF=       0 NMMI=      0 NMMIF=      0
                NMic=       0 NMicF=      0.
                    Isotopes and Nuclear Properties:
 (Nuclear quadrupole moments (NQMom) in fm**2, nuclear magnetic moments (NMagM)
  in nuclear magnetons)

  Atom         1           2           3           4           5           6           7           8           9          10
 IAtWgt=          12          12          12          14          12          12          16          14          12          16
 AtmWgt=  12.0000000  12.0000000  12.0000000  14.0030740  12.0000000  12.0000000  15.9949146  14.0030740  12.0000000  15.9949146
 NucSpn=           0           0           0           2           0           0           0           2           0           0
 AtZEff=  -0.0000000  -0.0000000  -0.0000000  -0.0000000  -0.0000000  -0.0000000  -0.0000000  -0.0000000  -0.0000000  -0.0000000
 NQMom=    0.0000000   0.0000000   0.0000000   2.0440000   0.0000000   0.0000000   0.0000000   2.0440000   0.0000000   0.0000000
 NMagM=    0.0000000   0.0000000   0.0000000   0.4037610   0.0000000   0.0000000   0.0000000   0.4037610   0.0000000   0.0000000
 AtZNuc=   6.0000000   6.0000000   6.0000000   7.0000000   6.0000000   6.0000000   8.0000000   7.0000000   6.0000000   8.0000000

  Atom        11          12          13          14          15          16          17          18          19          20
 IAtWgt=          12          12           1          12          12          12          12          12          12          12
 AtmWgt=  12.0000000  12.0000000   1.0078250  12.0000000  12.0000000  12.0000000  12.0000000  12.0000000  12.0000000  12.0000000
 NucSpn=           0           0           1           0           0           0           0           0           0           0
 AtZEff=  -0.0000000  -0.0000000  -0.0000000  -0.0000000  -0.0000000  -0.0000000  -0.0000000  -0.0000000  -0.0000000  -0.0000000
 NQMom=    0.0000000   0.0000000   0.0000000   0.0000000   0.0000000   0.0000000   0.0000000   0.0000000   0.0000000   0.0000000
 NMagM=    0.0000000   0.0000000   2.7928460   0.0000000   0.0000000   0.0000000   0.0000000   0.0000000   0.0000000   0.0000000
 AtZNuc=   6.0000000   6.0000000   1.0000000   6.0000000   6.0000000   6.0000000   6.0000000   6.0000000   6.0000000   6.0000000

  Atom        21          22          23          24          25          26          27          28          29          30
 IAtWgt=           1           1           1           1           1           1           1           1           1           1
 AtmWgt=   1.0078250   1.0078250   1.0078250   1.0078250   1.0078250   1.0078250   1.0078250   1.0078250   1.0078250   1.0078250
 NucSpn=           1           1           1           1           1           1           1           1           1           1
 AtZEff=  -0.0000000  -0.0000000  -0.0000000  -0.0000000  -0.0000000  -0.0000000  -0.0000000  -0.0000000  -0.0000000  -0.0000000
 NQMom=    0.0000000   0.0000000   0.0000000   0.0000000   0.0000000   0.0000000   0.0000000   0.0000000   0.0000000   0.0000000
 NMagM=    2.7928460   2.7928460   2.7928460   2.7928460   2.7928460   2.7928460   2.7928460   2.7928460   2.7928460   2.7928460
 AtZNuc=   1.0000000   1.0000000   1.0000000   1.0000000   1.0000000   1.0000000   1.0000000   1.0000000   1.0000000   1.0000000

  Atom        31          32          33          34          35          36          37
 IAtWgt=           1           1           1           1           1           1           1
 AtmWgt=   1.0078250   1.0078250   1.0078250   1.0078250   1.0078250   1.0078250   1.0078250
 NucSpn=           1           1           1           1           1           1           1
 AtZEff=  -0.0000000  -0.0000000  -0.0000000  -0.0000000  -0.0000000  -0.0000000  -0.0000000
 NQMom=    0.0000000   0.0000000   0.0000000   0.0000000   0.0000000   0.0000000   0.0000000
 NMagM=    2.7928460   2.7928460   2.7928460   2.7928460   2.7928460   2.7928460   2.7928460
 AtZNuc=   1.0000000   1.0000000   1.0000000   1.0000000   1.0000000   1.0000000   1.0000000
 Leave Link  101 at Thu Nov  3 08:04:19 2022, MaxMem=  4194304000 cpu:               2.7 elap:               0.6
 (Enter /software/gaussian/G16-A.03/avx/g16/l103.exe)

 GradGradGradGradGradGradGradGradGradGradGradGradGradGradGradGradGradGrad
 Berny optimization.
 Initialization pass.
 Trust Radius=3.00D-01 FncErr=1.00D-07 GrdErr=1.00D-07 EigMax=2.50D+02 EigMin=1.00D-04
 Number of steps in this run=      2 maximum allowed number of steps=      2.
 GradGradGradGradGradGradGradGradGradGradGradGradGradGradGradGradGradGrad

 Leave Link  103 at Thu Nov  3 08:04:19 2022, MaxMem=  4194304000 cpu:               0.4 elap:               0.1
 (Enter /software/gaussian/G16-A.03/avx/g16/l202.exe)
                          Input orientation:                          
 ---------------------------------------------------------------------
 Center     Atomic      Atomic             Coordinates (Angstroms)
 Number     Number       Type             X           Y           Z
 ---------------------------------------------------------------------
      1          6           0        2.186440    3.203310    0.255060
      2          6           0        1.577060    1.812470    0.444600
      3          6           0        2.570510    0.739180    0.084140
      4          7           0        2.329800   -0.411540   -0.412480
      5          6           0        3.555810   -1.199810   -0.364860
      6          6           0        4.601610   -0.190910    0.132310
      7          8           0        3.826380    0.982240    0.447600
      8          7           0       -0.275330    0.588530   -0.691200
      9          6           0        0.295510    1.674440   -0.338970
     10          8           0       -0.363420    2.800920   -0.589430
     11          6           0       -1.518820    2.431130   -1.368210
     12          6           0       -1.617060    0.906180   -1.174390
     13          1           0       -1.780000    0.364520   -2.119280
     14          6           0       -2.696210    0.485530   -0.192990
     15          6           0       -4.008680    0.913550   -0.423690
     16          6           0       -5.040630    0.547470    0.435690
     17          6           0       -4.772850   -0.260400    1.540070
     18          6           0       -3.471870   -0.700970    1.767670
     19          6           0       -2.437820   -0.335170    0.907180
     20          6           0        1.214180    1.559380    1.931130
     21          1           0        2.431410    3.395080   -0.799470
     22          1           0        3.105480    3.288300    0.847470
     23          1           0        1.473130    3.968510    0.585080
     24          1           0        3.787710   -1.613000   -1.357150
     25          1           0        3.379770   -2.035610    0.331010
     26          1           0        5.341630    0.091330   -0.630690
     27          1           0        5.126300   -0.503890    1.044820
     28          1           0       -1.320490    2.721060   -2.411500
     29          1           0       -2.381920    2.986590   -0.983240
     30          1           0       -4.236320    1.533730   -1.296340
     31          1           0       -6.059220    0.889640    0.237640
     32          1           0       -5.580010   -0.553050    2.215680
     33          1           0       -3.249670   -1.350090    2.617630
     34          1           0       -1.435590   -0.723790    1.097870
     35          1           0        2.095060    1.754330    2.558680
     36          1           0        0.897970    0.514910    2.076420
     37          1           0        0.403330    2.235360    2.237290
 ---------------------------------------------------------------------
                    Distance matrix (angstroms):
                    1          2          3          4          5
     1  C    0.000000
     2  C    1.530263   0.000000
     3  C    2.499732   1.506262   0.000000
     4  N    3.678764   2.499485   1.276217   0.000000
     5  C    4.652627   3.693847   2.220833   1.458334   0.000000
     6  C    4.167594   3.641285   2.234447   2.346613   1.535824
     7  O    2.767603   2.397651   1.329809   2.218583   2.344065
     8  N    3.713865   2.493876   2.953414   2.804376   4.240553
     9  C    2.503184   1.508444   2.495868   2.914627   4.346440
    10  O    2.716039   2.410750   3.648618   4.195789   5.605055
    11  C    4.118279   3.640535   4.657750   4.879146   6.319993
    12  C    4.667627   3.693899   4.375789   4.230201   5.643502
    13  H    5.424838   4.465411   4.891050   4.517288   5.830608
    14  C    5.606010   4.519749   5.280102   5.110155   6.477474
    15  C    6.639519   5.723852   6.601063   6.475517   7.854378
    16  C    7.701731   6.737516   7.621666   7.480797   8.808669
    17  C    7.879102   6.768914   7.552736   7.367695   8.595221
    18  C    7.039024   5.793064   6.435733   6.204530   7.361033
    19  C    5.859171   4.576636   5.187966   4.947478   6.187834
    20  C    2.541064   1.550970   2.433872   3.259086   4.285782
    21  H    1.099463   2.186842   2.802485   3.827590   4.750387
    22  H    1.096726   2.162509   2.714199   3.984717   4.670725
    23  H    1.096930   2.163110   3.447282   4.573166   5.652563
    24  H    5.325423   4.457255   3.015235   2.112205   1.099610
    25  H    5.373648   4.250928   2.900915   2.071912   1.101720
    26  H    4.519314   4.276746   2.934246   3.061309   2.219653
    27  H    4.796856   4.280525   3.000032   3.154784   2.222148
    28  H    4.431892   4.168769   5.029508   5.209019   6.583332
    29  H    4.738171   4.369303   5.542266   5.837239   7.291432
    30  H    6.815144   6.074863   6.990706   6.905014   8.310065
    31  H    8.564128   7.694623   8.632406   8.514187   9.857870
    32  H    8.847147   7.743130   8.523162   8.336207   9.515287
    33  H    7.474388   6.166131   6.682673   6.418172   7.431850
    34  H    5.408470   3.991921   4.383693   4.069007   5.223050
    35  H    2.722969   2.177393   2.716603   3.684276   4.405431
    36  H    3.493566   2.192638   2.610913   3.017129   3.995526
    37  H    2.836484   2.184082   3.401658   4.211727   5.339448
                    6          7          8          9         10
     6  C    0.000000
     7  O    1.441066   0.000000
     8  N    5.007019   4.275032   0.000000
     9  C    4.716369   3.683053   1.276372   0.000000
    10  O    5.841530   4.683743   2.216481   1.328863   0.000000
    11  C    6.825417   5.828174   2.323744   2.218943   1.441594
    12  C    6.448483   5.680464   1.461032   2.223977   2.346025
    13  H    6.789927   6.196931   2.086534   3.032018   3.206741
    14  C    7.336318   6.572766   2.473759   3.222609   3.310605
    15  C    8.698624   7.883656   3.757007   4.371748   4.108230
    16  C    9.675228   8.877670   4.896902   5.508589   5.291994
    17  C    9.479827   8.756963   5.091850   5.741313   5.774905
    18  C    8.253220   7.605277   4.233996   4.926830   5.242291
    19  C    7.083418   6.417709   2.843309   3.614210   4.046979
    20  C    4.215916   3.059010   3.168249   2.451642   3.222339
    21  H    4.293868   3.053346   3.900626   2.781138   2.864999
    22  H    3.854187   2.448981   4.591965   3.450814   3.786223
    23  H    5.224286   3.804536   4.013760   2.739236   2.472985
    24  H    2.214332   3.161311   4.668888   4.903000   6.107697
    25  H    2.221552   3.052945   4.614193   4.870935   6.184715
    26  H    1.099754   2.062138   5.639247   5.296665   6.315946
    27  H    1.098149   2.062776   5.777954   5.476909   6.612834
    28  H    7.072610   6.139073   2.932486   2.828825   2.059684
    29  H    7.753106   6.678900   3.205261   3.050484   2.064922
    30  H    9.117260   8.267563   4.116921   4.633987   4.135801
    31  H   10.715968   9.888263   5.865731   6.428918   6.064584
    32  H   10.398892   9.693472   6.155712   6.783044   6.806656
    33  H    8.316436   7.760108   4.853174   5.518837   5.987199
    34  H    6.137104   5.569714   2.503829   3.288271   4.052174
    35  H    3.994249   2.837296   4.188026   3.411911   4.129173
    36  H    4.242015   3.383347   3.006954   2.746193   3.731448
    37  H    5.286141   4.060858   3.427635   2.638820   2.982970
                   11         12         13         14         15
    11  C    0.000000
    12  C    1.540354   0.000000
    13  H    2.214317   1.101255   0.000000
    14  C    2.559834   1.518110   2.136511   0.000000
    15  C    3.065056   2.506681   2.853677   1.399643   0.000000
    16  C    4.382394   3.800245   4.146450   2.428040   1.391930
    17  C    5.127488   4.322987   4.768492   2.805769   2.412150
    18  C    4.843366   3.831314   4.371049   2.419425   2.774328
    19  C    3.697888   2.558814   3.175178   1.396670   2.407928
    20  C    4.372057   4.252863   5.176739   4.577793   5.765461
    21  H    4.105725   4.767106   5.353706   5.926701   6.911871
    22  H    5.198858   5.662579   6.420125   6.526690   7.607007
    23  H    3.889813   4.692853   5.557442   5.488164   6.356150
    24  H    6.671909   5.965837   5.957417   6.913777   8.248545
    25  H    6.843632   5.990715   6.195787   6.599110   7.991014
    26  H    7.285902   7.027301   7.280669   8.059395   9.388674
    27  H    7.654716   7.237824   7.646087   7.981403   9.360209
    28  H    1.100840   2.216345   2.418641   3.436857   3.800638
    29  H    1.096211   2.224782   2.920299   2.641699   2.693871
    30  H    2.862743   2.696148   2.842145   2.165189   1.094514
    31  H    5.056696   4.661211   4.913507   3.414467   2.154679
    32  H    6.184081   5.415432   5.837284   3.898287   3.403861
    33  H    5.760242   4.704847   5.247679   3.402264   3.866496
    34  H    4.005246   2.802302   3.413662   2.172081   3.408346
    35  H    5.379466   5.332448   6.231450   5.669022   6.845223
    36  H    4.623662   4.128708   4.979763   4.250790   5.521293
    37  H    4.090552   4.181896   5.219835   4.309909   5.319194
                   16         17         18         19         20
    16  C    0.000000
    17  C    1.394279   0.000000
    18  C    2.407027   1.392283   0.000000
    19  C    2.788544   2.420435   1.394099   0.000000
    20  C    6.510219   6.269693   5.205282   4.239681   0.000000
    21  H    8.091099   8.410550   7.629977   6.366853   3.508222
    22  H    8.604698   8.668394   7.747424   6.622785   2.782175
    23  H    7.359001   7.603154   6.903303   5.824169   2.771789
    24  H    9.263989   9.138194   7.955991   6.746648   5.244029
    25  H    8.808314   8.430801   7.126726   6.088335   4.491561
    26  H   10.446844  10.350779   9.168296   7.941460   5.074834
    27  H   10.239280   9.914521   8.630752   7.567253   4.510799
    28  H    5.164342   6.035130   5.814137   4.647860   5.160667
    29  H    3.877036   4.756741   4.727959   3.822421   4.843802
    30  H    2.149314   3.398822   3.868646   3.403364   6.334443
    31  H    1.092625   2.161866   3.400796   3.881106   7.497920
    32  H    2.161120   1.092520   2.160289   3.410719   7.120698
    33  H    3.401343   2.160703   1.092319   2.148209   5.372360
    34  H    3.879549   3.398172   2.143732   1.091720   3.595618
    35  H    7.541994   7.229446   6.135544   5.257420   1.098988
    36  H    6.161171   5.748650   4.546338   3.635554   1.100916
    37  H    5.977578   5.788590   4.884644   4.055731   1.099164
                   21         22         23         24         25
    21  H    0.000000
    22  H    1.782746   0.000000
    23  H    1.778792   1.787764   0.000000
    24  H    5.218373   5.417428   6.346873   0.000000
    25  H    5.627590   5.355930   6.304703   1.787428   0.000000
    26  H    4.405977   4.172043   5.610340   2.418089   3.049202
    27  H    5.085844   4.301554   5.793045   2.965031   2.430238
    28  H    4.138804   5.525564   4.282515   6.781551   7.227705
    29  H    4.834127   5.792589   4.276120   7.704568   7.755438
    30  H    6.940470   7.847067   6.485809   8.619203   8.566988
    31  H    8.913115   9.493007   8.144719  10.284386   9.882325
    32  H    9.426649   9.595088   8.535230  10.081805   9.275108
    33  H    8.152784   8.064494   7.397540   8.086576   7.046137
    34  H    5.959755   6.064724   5.544482   5.839579   5.049420
    35  H    3.752648   2.510429   3.030592   5.434860   4.580026
    36  H    4.349432   3.751681   3.805556   4.966689   3.963703
    37  H    3.831445   3.215882   2.622609   6.259705   5.543851
                   26         27         28         29         30
    26  H    0.000000
    27  H    1.791086   0.000000
    28  H    7.380421   7.994220   0.000000
    29  H    8.255910   8.524661   1.799185   0.000000
    30  H    9.708797   9.863649   3.339970   2.376475   0.000000
    31  H   11.461705  11.300855   5.729538   4.405710   2.467977
    32  H   11.304834  10.770256   7.090423   5.743685   4.300516
    33  H    9.297296   8.564266   6.751899   5.703161   4.960752
    34  H    7.041523   6.565788   4.918935   4.358151   4.321195
    35  H    4.845396   4.071823   6.107638   5.840121   7.415943
    36  H    5.220534   4.470003   5.470840   5.121367   6.226912
    37  H    6.099916   5.588553   4.981838   4.323630   5.874111
                   31         32         33         34         35
    31  H    0.000000
    32  H    2.494722   0.000000
    33  H    4.309793   2.495460   0.000000
    34  H    4.972032   4.295913   2.448021   0.000000
    35  H    8.522159   8.021742   6.181184   4.554178   0.000000
    36  H    7.205833   6.566899   4.579744   2.817346   1.789347
    37  H    6.897399   6.601216   5.132691   3.665580   1.787913
                   36         37
    36  H    0.000000
    37  H    1.797358   0.000000
 Stoichiometry    C15H18N2O2
 Framework group  C1[X(C15H18N2O2)]
 Deg. of freedom   105
 Full point group                 C1      NOp   1
 Largest Abelian subgroup         C1      NOp   1
 Largest concise Abelian subgroup C1      NOp   1
                         Standard orientation:                         
 ---------------------------------------------------------------------
 Center     Atomic      Atomic             Coordinates (Angstroms)
 Number     Number       Type             X           Y           Z
 ---------------------------------------------------------------------
      1          6           0        2.346187    2.036559    1.042686
      2          6           0        1.688226    0.702565    0.683169
      3          6           0        2.662248   -0.200352   -0.027358
      4          7           0        2.406618   -1.071763   -0.924033
      5          6           0        3.605517   -1.872433   -1.143820
      6          6           0        4.660959   -1.166971   -0.279458
      7          8           0        3.909669   -0.163943    0.431996
      8          7           0       -0.154283    0.070078   -0.873925
      9          6           0        0.434777    0.921160   -0.127069
     10          8           0       -0.179601    2.086792    0.045319
     11          6           0       -1.314224    2.083390   -0.843956
     12          6           0       -1.465877    0.601719   -1.236820
     13          1           0       -1.607924    0.458637   -2.319461
     14          6           0       -2.594824   -0.107983   -0.511245
     15          6           0       -3.883759    0.430638   -0.598048
     16          6           0       -4.959140   -0.185018    0.035981
     17          6           0       -4.759285   -1.356846    0.764605
     18          6           0       -3.482083   -1.905457    0.843554
     19          6           0       -2.404569   -1.289736    0.208443
     20          6           0        1.259935   -0.070534    1.957686
     21          1           0        2.637942    2.596855    0.142816
     22          1           0        3.243459    1.855463    1.646768
     23          1           0        1.643874    2.653292    1.616839
     24          1           0        3.863555   -1.895571   -2.212475
     25          1           0        3.377254   -2.899031   -0.815522
     26          1           0        5.438465   -0.652521   -0.862796
     27          1           0        5.139835   -1.819477    0.462731
     28          1           0       -1.066535    2.732478   -1.697878
     29          1           0       -2.174615    2.491595   -0.301025
     30          1           0       -4.058254    1.340418   -1.180983
     31          1           0       -5.958419    0.249342   -0.045273
     32          1           0       -5.600740   -1.845524    1.261342
     33          1           0       -3.313004   -2.833377    1.394496
     34          1           0       -1.422741   -1.763715    0.265098
     35          1           0        2.121031   -0.161167    2.634498
     36          1           0        0.906955   -1.079436    1.693986
     37          1           0        0.458448    0.476536    2.473915
 ---------------------------------------------------------------------
 Rotational constants (GHZ):           0.8151089           0.2059980           0.1888973
 Leave Link  202 at Thu Nov  3 08:04:20 2022, MaxMem=  4194304000 cpu:               1.4 elap:               0.3
 (Enter /software/gaussian/G16-A.03/avx/g16/l301.exe)
 Standard basis: def2SVP (5D, 7F)
 Ernie: Thresh=  0.10000D-02 Tol=  0.10000D-05 Strict=F.
 There are   375 symmetry adapted cartesian basis functions of A   symmetry.
 There are   356 symmetry adapted basis functions of A   symmetry.
   356 basis functions,   601 primitive gaussians,   375 cartesian basis functions
    69 alpha electrons       69 beta electrons
       nuclear repulsion energy      1438.1772268616 Hartrees.
 IExCor= 1009 DFT=T Ex+Corr=PBE1PBE ExCW=0 ScaHFX=  0.250000
 ScaDFX=  0.750000  0.750000  1.000000  1.000000 ScalE2=  1.000000  1.000000
 IRadAn=      5 IRanWt=     -1 IRanGd=            0 ICorTp=0 IEmpDi=141
 NAtoms=   37 NActive=   37 NUniq=   37 SFac= 1.00D+00 NAtFMM=   60 NAOKFM=F Big=F
 Integral buffers will be    131072 words long.
 Raffenetti 2 integral format.
 Two-electron integral symmetry is turned on.
 R6Disp:  Grimme-D3(BJ) Dispersion energy=       -0.0392626576 Hartrees.
 Nuclear repulsion after empirical dispersion term =     1438.1379642040 Hartrees.
 Leave Link  301 at Thu Nov  3 08:04:20 2022, MaxMem=  4194304000 cpu:               0.7 elap:               0.2
 (Enter /software/gaussian/G16-A.03/avx/g16/l302.exe)
 NPDir=0 NMtPBC=     1 NCelOv=     1 NCel=       1 NClECP=     1 NCelD=      1
         NCelK=      1 NCelE2=     1 NClLst=     1 CellRange=     0.0.
 One-electron integrals computed using PRISM.
 One-electron integral symmetry used in STVInt
   1 Symmetry operations used in ECPInt.
 ECPInt:  NShTT=   14196 NPrTT=   51022 LenC2=   12940 LenP2D=   32913.
 LDataN:  DoStor=T MaxTD1= 4 Len=   56
 NBasis=   356 RedAO= T EigKep=  2.82D-04  NBF=   356
 NBsUse=   356 1.00D-06 EigRej= -1.00D+00 NBFU=   356
 Precomputing XC quadrature grid using
 IXCGrd= 4 IRadAn=           5 IRanWt=          -1 IRanGd=           0 AccXCQ= 0.00D+00.
 Generated NRdTot=       0 NPtTot=           0 NUsed=           0 NTot=          32
 NSgBfM=   373   373   373   373   373 MxSgAt=    37 MxSgA2=    37.
 Leave Link  302 at Thu Nov  3 08:04:23 2022, MaxMem=  4194304000 cpu:              22.9 elap:               3.3
 (Enter /software/gaussian/G16-A.03/avx/g16/l303.exe)
 DipDrv:  MaxL=1.
 Leave Link  303 at Thu Nov  3 08:04:24 2022, MaxMem=  4194304000 cpu:               3.4 elap:               0.7
 (Enter /software/gaussian/G16-A.03/avx/g16/l401.exe)
 ExpMin= 1.22D-01 ExpMax= 2.27D+03 ExpMxC= 3.41D+02 IAcc=3 IRadAn=         5 AccDes= 0.00D+00
 Harris functional with IExCor= 1009 and IRadAn=       5 diagonalized for initial guess.
 HarFok:  IExCor= 1009 AccDes= 0.00D+00 IRadAn=         5 IDoV= 1 UseB2=F ITyADJ=14
 ICtDFT=  3500011 ScaDFX=  1.000000  1.000000  1.000000  1.000000
 FoFCou: FMM=F IPFlag=           0 FMFlag=      100000 FMFlg1=           0
         NFxFlg=           0 DoJE=T BraDBF=F KetDBF=T FulRan=T
         wScrn=  0.000000 ICntrl=       500 IOpCl=  0 I1Cent=   200000004 NGrid=           0
         NMat0=    1 NMatS0=      1 NMatT0=    0 NMatD0=    1 NMtDS0=    0 NMtDT0=    0
 Petite list used in FoFCou.
 Harris En= -840.994734712073    
 JPrj=0 DoOrth=F DoCkMO=F.
 Leave Link  401 at Thu Nov  3 08:04:28 2022, MaxMem=  4194304000 cpu:              30.4 elap:               3.9
 (Enter /software/gaussian/G16-A.03/avx/g16/l502.exe)
 Integral symmetry usage will be decided dynamically.
 Closed shell SCF:
 Using DIIS extrapolation, IDIIS=  1040.
 NGot=  4194304000 LenX=  4194015657 LenY=  4193874591
 Requested convergence on RMS density matrix=1.00D-08 within 128 cycles.
 Requested convergence on MAX density matrix=1.00D-06.
 Requested convergence on             energy=1.00D-06.
 No special actions if energy rises.
 Fock matrices will be formed incrementally for  20 cycles.
 Integral accuracy reduced to 1.0D-05 until final iterations.

 Cycle   1  Pass 0  IDiag  1:
 FoFJK:  IHMeth= 1 ICntrl=       0 DoSepK=F KAlg= 0 I1Cent=           0 FoldK=F
 IRaf= 850000000 NMat=       1 IRICut=       1 DoRegI=T DoRafI=F ISym2E= 0 IDoP0=0 IntGTp=1.
 FoFCou: FMM=F IPFlag=           0 FMFlag=      100000 FMFlg1=           0
         NFxFlg=           0 DoJE=F BraDBF=F KetDBF=F FulRan=T
         wScrn=  0.000000 ICntrl=         0 IOpCl=  0 I1Cent=           0 NGrid=           0
         NMat0=    1 NMatS0=      1 NMatT0=    0 NMatD0=    1 NMtDS0=    0 NMtDT0=    0
 Symmetry not used in FoFCou.
 E= -840.473255817138    
 DIIS: error= 3.40D-02 at cycle   1 NSaved=   1.
 NSaved= 1 IEnMin= 1 EnMin= -840.473255817138     IErMin= 1 ErrMin= 3.40D-02
 ErrMax= 3.40D-02  0.00D+00 EMaxC= 1.00D-01 BMatC= 3.21D-01 BMatP= 3.21D-01
 IDIUse=3 WtCom= 6.60D-01 WtEn= 3.40D-01
 Coeff-Com:  0.100D+01
 Coeff-En:   0.100D+01
 Coeff:      0.100D+01
 Gap=     0.280 Goal=   None    Shift=    0.000
 GapD=    0.280 DampG=1.000 DampE=0.500 DampFc=0.5000 IDamp=-1.
 Damping current iteration by 5.00D-01
 RMSDP=4.46D-03 MaxDP=2.15D-01              OVMax= 2.20D-01

 Cycle   2  Pass 0  IDiag  1:
 RMSU=  2.20D-03    CP:  9.79D-01
 E= -840.620665427390     Delta-E=       -0.147409610252 Rises=F Damp=T
 DIIS: error= 4.99D-03 at cycle   2 NSaved=   2.
 NSaved= 2 IEnMin= 2 EnMin= -840.620665427390     IErMin= 2 ErrMin= 4.99D-03
 ErrMax= 4.99D-03  0.00D+00 EMaxC= 1.00D-01 BMatC= 2.94D-02 BMatP= 3.21D-01
 IDIUse=3 WtCom= 9.50D-01 WtEn= 4.99D-02
 Coeff-Com:  0.808D-01 0.919D+00
 Coeff-En:   0.116D+00 0.884D+00
 Coeff:      0.825D-01 0.917D+00
 Gap=     0.290 Goal=   None    Shift=    0.000
 RMSDP=1.44D-03 MaxDP=4.15D-02 DE=-1.47D-01 OVMax= 1.91D-01

 Cycle   3  Pass 0  IDiag  1:
 RMSU=  1.40D-03    CP:  9.65D-01  9.00D-01
 E= -840.778519795136     Delta-E=       -0.157854367746 Rises=F Damp=F
 DIIS: error= 1.08D-02 at cycle   3 NSaved=   3.
 NSaved= 3 IEnMin= 3 EnMin= -840.778519795136     IErMin= 2 ErrMin= 4.99D-03
 ErrMax= 1.08D-02  0.00D+00 EMaxC= 1.00D-01 BMatC= 4.30D-02 BMatP= 2.94D-02
 IDIUse=2 WtCom= 0.00D+00 WtEn= 1.00D+00
 Coeff-En:   0.000D+00 0.000D+00 0.100D+01
 Coeff:      0.000D+00 0.000D+00 0.100D+01
 Gap=     0.238 Goal=   None    Shift=    0.000
 RMSDP=2.08D-03 MaxDP=8.98D-02 DE=-1.58D-01 OVMax= 2.06D-01

 Cycle   4  Pass 0  IDiag  1:
 RMSU=  1.20D-03    CP:  9.73D-01  1.35D+00  1.66D-02
 E= -840.622223478487     Delta-E=        0.156296316649 Rises=F Damp=F
 DIIS: error= 2.25D-02 at cycle   4 NSaved=   4.
 NSaved= 4 IEnMin= 3 EnMin= -840.778519795136     IErMin= 2 ErrMin= 4.99D-03
 ErrMax= 2.25D-02  0.00D+00 EMaxC= 1.00D-01 BMatC= 2.18D-01 BMatP= 2.94D-02
 IDIUse=2 WtCom= 0.00D+00 WtEn= 1.00D+00
 Coeff-En:   0.000D+00 0.000D+00 0.780D+00 0.220D+00
 Coeff:      0.000D+00 0.000D+00 0.780D+00 0.220D+00
 Gap=     0.226 Goal=   None    Shift=    0.000
 RMSDP=1.12D-03 MaxDP=6.22D-02 DE= 1.56D-01 OVMax= 1.04D-01

 Cycle   5  Pass 0  IDiag  1:
 RMSU=  1.75D-04    CP:  9.69D-01  1.09D+00  5.29D-01  4.96D-01
 E= -840.803272706326     Delta-E=       -0.181049227839 Rises=F Damp=F
 DIIS: error= 6.34D-03 at cycle   5 NSaved=   5.
 NSaved= 5 IEnMin= 5 EnMin= -840.803272706326     IErMin= 2 ErrMin= 4.99D-03
 ErrMax= 6.34D-03  0.00D+00 EMaxC= 1.00D-01 BMatC= 1.57D-02 BMatP= 2.94D-02
 IDIUse=3 WtCom= 9.37D-01 WtEn= 6.34D-02
 Coeff-Com: -0.181D-02 0.153D-01 0.268D+00-0.109D+00 0.828D+00
 Coeff-En:   0.000D+00 0.000D+00 0.314D+00 0.000D+00 0.686D+00
 Coeff:     -0.169D-02 0.143D-01 0.271D+00-0.102D+00 0.819D+00
 Gap=     0.240 Goal=   None    Shift=    0.000
 RMSDP=3.85D-04 MaxDP=1.73D-02 DE=-1.81D-01 OVMax= 3.60D-02

 Cycle   6  Pass 0  IDiag  1:
 RMSU=  5.03D-05    CP:  9.67D-01  1.01D+00  7.09D-01  3.08D-01  9.19D-01
 E= -840.817126929998     Delta-E=       -0.013854223672 Rises=F Damp=F
 DIIS: error= 3.23D-04 at cycle   6 NSaved=   6.
 NSaved= 6 IEnMin= 6 EnMin= -840.817126929998     IErMin= 6 ErrMin= 3.23D-04
 ErrMax= 3.23D-04  0.00D+00 EMaxC= 1.00D-01 BMatC= 3.87D-05 BMatP= 1.57D-02
 IDIUse=3 WtCom= 9.97D-01 WtEn= 3.23D-03
 Coeff-Com: -0.187D-02 0.605D-02 0.126D+00-0.705D-01 0.468D+00 0.472D+00
 Coeff-En:   0.000D+00 0.000D+00 0.000D+00 0.000D+00 0.000D+00 0.100D+01
 Coeff:     -0.186D-02 0.603D-02 0.126D+00-0.703D-01 0.467D+00 0.474D+00
 Gap=     0.239 Goal=   None    Shift=    0.000
 RMSDP=2.75D-05 MaxDP=1.04D-03 DE=-1.39D-02 OVMax= 2.37D-03

 Cycle   7  Pass 0  IDiag  1:
 RMSU=  1.57D-05    CP:  9.67D-01  1.01D+00  7.08D-01  3.12D-01  9.23D-01
                    CP:  5.82D-01
 E= -840.817164747205     Delta-E=       -0.000037817206 Rises=F Damp=F
 DIIS: error= 9.12D-05 at cycle   7 NSaved=   7.
 NSaved= 7 IEnMin= 7 EnMin= -840.817164747205     IErMin= 7 ErrMin= 9.12D-05
 ErrMax= 9.12D-05  0.00D+00 EMaxC= 1.00D-01 BMatC= 3.62D-06 BMatP= 3.87D-05
 IDIUse=1 WtCom= 1.00D+00 WtEn= 0.00D+00
 Coeff-Com: -0.686D-03 0.128D-02 0.429D-01-0.273D-01 0.170D+00 0.269D+00
 Coeff-Com:  0.544D+00
 Coeff:     -0.686D-03 0.128D-02 0.429D-01-0.273D-01 0.170D+00 0.269D+00
 Coeff:      0.544D+00
 Gap=     0.239 Goal=   None    Shift=    0.000
 RMSDP=7.37D-06 MaxDP=2.38D-04 DE=-3.78D-05 OVMax= 5.68D-04

 Initial convergence to 1.0D-05 achieved.  Increase integral accuracy.
 Cycle   8  Pass 1  IDiag  1:
 E= -840.817188859276     Delta-E=       -0.000024112072 Rises=F Damp=F
 DIIS: error= 8.83D-05 at cycle   1 NSaved=   1.
 NSaved= 1 IEnMin= 1 EnMin= -840.817188859276     IErMin= 1 ErrMin= 8.83D-05
 ErrMax= 8.83D-05  0.00D+00 EMaxC= 1.00D-01 BMatC= 1.60D-06 BMatP= 1.60D-06
 IDIUse=1 WtCom= 1.00D+00 WtEn= 0.00D+00
 Coeff-Com:  0.100D+01
 Coeff:      0.100D+01
 Gap=     0.239 Goal=   None    Shift=    0.000
 RMSDP=7.37D-06 MaxDP=2.38D-04 DE=-2.41D-05 OVMax= 3.40D-04

 Cycle   9  Pass 1  IDiag  1:
 RMSU=  7.36D-05    CP:  1.00D+00
 E= -840.817189846984     Delta-E=       -0.000000987708 Rises=F Damp=F
 DIIS: error= 4.55D-05 at cycle   2 NSaved=   2.
 NSaved= 2 IEnMin= 2 EnMin= -840.817189846984     IErMin= 2 ErrMin= 4.55D-05
 ErrMax= 4.55D-05  0.00D+00 EMaxC= 1.00D-01 BMatC= 7.52D-07 BMatP= 1.60D-06
 IDIUse=1 WtCom= 1.00D+00 WtEn= 0.00D+00
 Coeff-Com:  0.365D+00 0.635D+00
 Coeff:      0.365D+00 0.635D+00
 Gap=     0.239 Goal=   None    Shift=    0.000
 RMSDP=5.28D-06 MaxDP=2.82D-04 DE=-9.88D-07 OVMax= 4.38D-04

 Cycle  10  Pass 1  IDiag  1:
 RMSU=  5.24D-06    CP:  1.00D+00  1.01D+00
 E= -840.817189991907     Delta-E=       -0.000000144923 Rises=F Damp=F
 DIIS: error= 4.35D-05 at cycle   3 NSaved=   3.
 NSaved= 3 IEnMin= 3 EnMin= -840.817189991907     IErMin= 3 ErrMin= 4.35D-05
 ErrMax= 4.35D-05  0.00D+00 EMaxC= 1.00D-01 BMatC= 5.95D-07 BMatP= 7.52D-07
 IDIUse=1 WtCom= 1.00D+00 WtEn= 0.00D+00
 Coeff-Com:  0.182D-01 0.467D+00 0.515D+00
 Coeff:      0.182D-01 0.467D+00 0.515D+00
 Gap=     0.239 Goal=   None    Shift=    0.000
 RMSDP=2.72D-06 MaxDP=1.54D-04 DE=-1.45D-07 OVMax= 2.45D-04

 Cycle  11  Pass 1  IDiag  1:
 RMSU=  9.84D-07    CP:  1.00D+00  1.01D+00  5.36D-01
 E= -840.817190491761     Delta-E=       -0.000000499854 Rises=F Damp=F
 DIIS: error= 5.40D-06 at cycle   4 NSaved=   4.
 NSaved= 4 IEnMin= 4 EnMin= -840.817190491761     IErMin= 4 ErrMin= 5.40D-06
 ErrMax= 5.40D-06  0.00D+00 EMaxC= 1.00D-01 BMatC= 2.96D-08 BMatP= 5.95D-07
 IDIUse=1 WtCom= 1.00D+00 WtEn= 0.00D+00
 Coeff-Com: -0.451D-02 0.263D+00 0.320D+00 0.421D+00
 Coeff:     -0.451D-02 0.263D+00 0.320D+00 0.421D+00
 Gap=     0.239 Goal=   None    Shift=    0.000
 RMSDP=5.50D-07 MaxDP=2.35D-05 DE=-5.00D-07 OVMax= 3.38D-05

 Cycle  12  Pass 1  IDiag  1:
 RMSU=  1.84D-07    CP:  1.00D+00  1.01D+00  5.52D-01  4.81D-01
 E= -840.817190518264     Delta-E=       -0.000000026503 Rises=F Damp=F
 DIIS: error= 1.08D-06 at cycle   5 NSaved=   5.
 NSaved= 5 IEnMin= 5 EnMin= -840.817190518264     IErMin= 5 ErrMin= 1.08D-06
 ErrMax= 1.08D-06  0.00D+00 EMaxC= 1.00D-01 BMatC= 3.67D-10 BMatP= 2.96D-08
 IDIUse=1 WtCom= 1.00D+00 WtEn= 0.00D+00
 Coeff-Com: -0.293D-02 0.151D+00 0.184D+00 0.253D+00 0.415D+00
 Coeff:     -0.293D-02 0.151D+00 0.184D+00 0.253D+00 0.415D+00
 Gap=     0.239 Goal=   None    Shift=    0.000
 RMSDP=6.51D-08 MaxDP=2.89D-06 DE=-2.65D-08 OVMax= 6.25D-06

 Cycle  13  Pass 1  IDiag  1:
 RMSU=  5.80D-08    CP:  1.00D+00  1.01D+00  5.50D-01  4.81D-01  8.50D-01
 E= -840.817190518551     Delta-E=       -0.000000000287 Rises=F Damp=F
 DIIS: error= 2.26D-07 at cycle   6 NSaved=   6.
 NSaved= 6 IEnMin= 6 EnMin= -840.817190518551     IErMin= 6 ErrMin= 2.26D-07
 ErrMax= 2.26D-07  0.00D+00 EMaxC= 1.00D-01 BMatC= 1.83D-11 BMatP= 3.67D-10
 IDIUse=1 WtCom= 1.00D+00 WtEn= 0.00D+00
 Coeff-Com: -0.104D-02 0.502D-01 0.611D-01 0.871D-01 0.211D+00 0.592D+00
 Coeff:     -0.104D-02 0.502D-01 0.611D-01 0.871D-01 0.211D+00 0.592D+00
 Gap=     0.239 Goal=   None    Shift=    0.000
 RMSDP=1.84D-08 MaxDP=1.03D-06 DE=-2.87D-10 OVMax= 1.81D-06

 Cycle  14  Pass 1  IDiag  1:
 RMSU=  1.59D-08    CP:  1.00D+00  1.01D+00  5.50D-01  4.82D-01  8.76D-01
                    CP:  8.77D-01
 E= -840.817190518563     Delta-E=       -0.000000000012 Rises=F Damp=F
 DIIS: error= 6.01D-08 at cycle   7 NSaved=   7.
 NSaved= 7 IEnMin= 7 EnMin= -840.817190518563     IErMin= 7 ErrMin= 6.01D-08
 ErrMax= 6.01D-08  0.00D+00 EMaxC= 1.00D-01 BMatC= 3.56D-12 BMatP= 1.83D-11
 IDIUse=1 WtCom= 1.00D+00 WtEn= 0.00D+00
 Coeff-Com: -0.833D-04 0.258D-02 0.296D-02 0.667D-02 0.426D-01 0.341D+00
 Coeff-Com:  0.604D+00
 Coeff:     -0.833D-04 0.258D-02 0.296D-02 0.667D-02 0.426D-01 0.341D+00
 Coeff:      0.604D+00
 Gap=     0.239 Goal=   None    Shift=    0.000
 RMSDP=7.59D-09 MaxDP=3.07D-07 DE=-1.18D-11 OVMax= 4.54D-07

 SCF Done:  E(RPBE1PBE) =  -840.817190519     A.U. after   14 cycles
            NFock= 14  Conv=0.76D-08     -V/T= 2.0097
 KE= 8.327308986133D+02 PE=-4.831469794254D+03 EE= 1.719783740918D+03
 Leave Link  502 at Thu Nov  3 08:05:56 2022, MaxMem=  4194304000 cpu:             694.3 elap:              88.5
 (Enter /software/gaussian/G16-A.03/avx/g16/l801.exe)
 DoSCS=F DFT=T ScalE2(SS,OS)=  1.000000  1.000000
 Range of M.O.s used for correlation:     1   356
 NBasis=   356 NAE=    69 NBE=    69 NFC=     0 NFV=     0
 NROrb=    356 NOA=    69 NOB=    69 NVA=   287 NVB=   287

 **** Warning!!: The largest alpha MO coefficient is  0.13777725D+02

 Leave Link  801 at Thu Nov  3 08:05:56 2022, MaxMem=  4194304000 cpu:               0.9 elap:               0.2
 (Enter /software/gaussian/G16-A.03/avx/g16/l1101.exe)
 Using compressed storage, NAtomX=    37.
 Will process     38 centers per pass.
   1 Symmetry operations used in ECPInt.
 ECPInt:  NShTT=   14196 NPrTT=   51022 LenC2=   12940 LenP2D=   32913.
 LDataN:  DoStor=T MaxTD1= 5 Len=  102
 R6Disp: Adding Grimme-D3(BJ) dispersion energy 1st derivatives to the gradient.
 Leave Link 1101 at Thu Nov  3 08:05:58 2022, MaxMem=  4194304000 cpu:              13.1 elap:               2.0
 (Enter /software/gaussian/G16-A.03/avx/g16/l1102.exe)
 Symmetrizing basis deriv contribution to polar:
 IMax=3 JMax=2 DiffMx= 0.00D+00
 Leave Link 1102 at Thu Nov  3 08:05:59 2022, MaxMem=  4194304000 cpu:               1.3 elap:               0.2
 (Enter /software/gaussian/G16-A.03/avx/g16/l1110.exe)
 Forming Gx(P) for the SCF density, NAtomX=    37.
 Integral derivatives from FoFJK, PRISM(SPDF).
 Do as many integral derivatives as possible in FoFJK.
 G2DrvN: MDV=    4194301200.
 G2DrvN: will do    38 centers at a time, making    1 passes.
 Calling FoFCou, ICntrl=  3107 FMM=F I1Cent=   0 AccDes= 0.00D+00.
 FoFJK:  IHMeth= 1 ICntrl=    3107 DoSepK=F KAlg= 0 I1Cent=           0 FoldK=F
 IRaf=         0 NMat=       1 IRICut=       1 DoRegI=T DoRafI=F ISym2E= 0 IDoP0=0 IntGTp=1.
 FoFCou: FMM=F IPFlag=           0 FMFlag=      100000 FMFlg1=           0
         NFxFlg=           0 DoJE=F BraDBF=F KetDBF=F FulRan=T
         wScrn=  0.000000 ICntrl=      3107 IOpCl=  0 I1Cent=           0 NGrid=           0
         NMat0=    1 NMatS0=      1 NMatT0=    0 NMatD0=    1 NMtDS0=    0 NMtDT0=    0
 Symmetry not used in FoFCou.
 End of G2Drv F.D. properties file   721 does not exist.
 End of G2Drv F.D. properties file   722 does not exist.
 End of G2Drv F.D. properties file   788 does not exist.
 Leave Link 1110 at Thu Nov  3 08:11:01 2022, MaxMem=  4194304000 cpu:            2234.4 elap:             302.1
 (Enter /software/gaussian/G16-A.03/avx/g16/l1002.exe)
 Minotr:  Closed shell wavefunction.
          IDoAtm=1111111111111111111111111111111111111
          Direct CPHF calculation.
          Differentiating once with respect to electric field.
                with respect to dipole field.
          Differentiating once with respect to nuclear coordinates.
          Requested convergence is 1.0D-08 RMS, and 1.0D-07 maximum.
          Secondary convergence is 1.0D-12 RMS, and 1.0D-12 maximum.
          NewPWx=T KeepS1=F KeepF1=F KeepIn=T MapXYZ=F SortEE=F KeepMc=T.
        11202 words used for storage of precomputed grid.
 Keep R1 ints in memory in canonical form, NReq=2045675063.
 FoFCou: FMM=F IPFlag=           0 FMFlag=           0 FMFlg1=           0
         NFxFlg=           0 DoJE=F BraDBF=F KetDBF=F FulRan=T
         wScrn=  0.000000 ICntrl=       600 IOpCl=  0 I1Cent=           0 NGrid=           0
         NMat0=    1 NMatS0=  63546 NMatT0=    0 NMatD0=    1 NMtDS0=    0 NMtDT0=    0
 Symmetry not used in FoFCou.
 Two-electron integral symmetry not used.
          MDV=    4194304000 using IRadAn=       1.
          Solving linear equations simultaneously, MaxMat=       0.
          There are   114 degrees of freedom in the 1st order CPHF.  IDoFFX=6 NUNeed=     3.
    111 vectors produced by pass  0 Test12= 1.98D-14 1.00D-09 XBig12= 1.50D+02 5.23D+00.
 AX will form   111 AO Fock derivatives at one time.
    111 vectors produced by pass  1 Test12= 1.98D-14 1.00D-09 XBig12= 3.77D+01 1.43D+00.
    111 vectors produced by pass  2 Test12= 1.98D-14 1.00D-09 XBig12= 3.62D-01 5.01D-02.
    111 vectors produced by pass  3 Test12= 1.98D-14 1.00D-09 XBig12= 1.76D-03 2.60D-03.
    111 vectors produced by pass  4 Test12= 1.98D-14 1.00D-09 XBig12= 4.28D-06 1.36D-04.
     94 vectors produced by pass  5 Test12= 1.98D-14 1.00D-09 XBig12= 5.47D-09 5.54D-06.
     23 vectors produced by pass  6 Test12= 1.98D-14 1.00D-09 XBig12= 6.53D-12 1.70D-07.
      3 vectors produced by pass  7 Test12= 1.98D-14 1.00D-09 XBig12= 6.81D-15 5.57D-09.
 InvSVY:  IOpt=1 It=  1 EMax= 7.11D-15
 Solved reduced A of dimension   675 with   114 vectors.
 FullF1:  Do perturbations      1 to       3.
 Isotropic polarizability for W=    0.000000      168.08 Bohr**3.
 End of Minotr F.D. properties file   721 does not exist.
 End of Minotr F.D. properties file   722 does not exist.
 End of Minotr F.D. properties file   788 does not exist.
 Leave Link 1002 at Thu Nov  3 08:17:50 2022, MaxMem=  4194304000 cpu:            2999.2 elap:             409.1
 (Enter /software/gaussian/G16-A.03/avx/g16/l601.exe)
 Copying SCF densities to generalized density rwf, IOpCl= 0 IROHF=0.

 **********************************************************************

            Population analysis using the SCF density.

 **********************************************************************

 Orbital symmetries:
       Occupied  (A) (A) (A) (A) (A) (A) (A) (A) (A) (A) (A) (A)
                 (A) (A) (A) (A) (A) (A) (A) (A) (A) (A) (A) (A)
                 (A) (A) (A) (A) (A) (A) (A) (A) (A) (A) (A) (A)
                 (A) (A) (A) (A) (A) (A) (A) (A) (A) (A) (A) (A)
                 (A) (A) (A) (A) (A) (A) (A) (A) (A) (A) (A) (A)
                 (A) (A) (A) (A) (A) (A) (A) (A) (A)
       Virtual   (A) (A) (A) (A) (A) (A) (A) (A) (A) (A) (A) (A)
                 (A) (A) (A) (A) (A) (A) (A) (A) (A) (A) (A) (A)
                 (A) (A) (A) (A) (A) (A) (A) (A) (A) (A) (A) (A)
                 (A) (A) (A) (A) (A) (A) (A) (A) (A) (A) (A) (A)
                 (A) (A) (A) (A) (A) (A) (A) (A) (A) (A) (A) (A)
                 (A) (A) (A) (A) (A) (A) (A) (A) (A) (A) (A) (A)
                 (A) (A) (A) (A) (A) (A) (A) (A) (A) (A) (A) (A)
                 (A) (A) (A) (A) (A) (A) (A) (A) (A) (A) (A) (A)
                 (A) (A) (A) (A) (A) (A) (A) (A) (A) (A) (A) (A)
                 (A) (A) (A) (A) (A) (A) (A) (A) (A) (A) (A) (A)
                 (A) (A) (A) (A) (A) (A) (A) (A) (A) (A) (A) (A)
                 (A) (A) (A) (A) (A) (A) (A) (A) (A) (A) (A) (A)
                 (A) (A) (A) (A) (A) (A) (A) (A) (A) (A) (A) (A)
                 (A) (A) (A) (A) (A) (A) (A) (A) (A) (A) (A) (A)
                 (A) (A) (A) (A) (A) (A) (A) (A) (A) (A) (A) (A)
                 (A) (A) (A) (A) (A) (A) (A) (A) (A) (A) (A) (A)
                 (A) (A) (A) (A) (A) (A) (A) (A) (A) (A) (A) (A)
                 (A) (A) (A) (A) (A) (A) (A) (A) (A) (A) (A) (A)
                 (A) (A) (A) (A) (A) (A) (A) (A) (A) (A) (A) (A)
                 (A) (A) (A) (A) (A) (A) (A) (A) (A) (A) (A) (A)
                 (A) (A) (A) (A) (A) (A) (A) (A) (A) (A) (A) (A)
                 (A) (A) (A) (A) (A) (A) (A) (A) (A) (A) (A) (A)
                 (A) (A) (A) (A) (A) (A) (A) (A) (A) (A) (A) (A)
                 (A) (A) (A) (A) (A) (A) (A) (A) (A) (A) (A)
 The electronic state is 1-A.
 Alpha  occ. eigenvalues --  -19.24737 -19.24511 -14.35281 -14.35271 -10.31435
 Alpha  occ. eigenvalues --  -10.31191 -10.29084 -10.29033 -10.27178 -10.26674
 Alpha  occ. eigenvalues --  -10.25755 -10.24154 -10.23664 -10.23630 -10.23582
 Alpha  occ. eigenvalues --  -10.23355 -10.23295 -10.22932 -10.22799  -1.12175
 Alpha  occ. eigenvalues --   -1.11847  -0.91814  -0.90615  -0.87267  -0.85578
 Alpha  occ. eigenvalues --   -0.79349  -0.76876  -0.75714  -0.74227  -0.70737
 Alpha  occ. eigenvalues --   -0.66219  -0.65496  -0.64126  -0.61783  -0.59554
 Alpha  occ. eigenvalues --   -0.59403  -0.54802  -0.53627  -0.52353  -0.51761
 Alpha  occ. eigenvalues --   -0.50977  -0.48833  -0.47734  -0.46661  -0.45867
 Alpha  occ. eigenvalues --   -0.44694  -0.44630  -0.44049  -0.43284  -0.42624
 Alpha  occ. eigenvalues --   -0.41862  -0.41392  -0.40609  -0.38884  -0.37809
 Alpha  occ. eigenvalues --   -0.37518  -0.37372  -0.36882  -0.36157  -0.36018
 Alpha  occ. eigenvalues --   -0.35312  -0.34963  -0.34853  -0.28308  -0.26299
 Alpha  occ. eigenvalues --   -0.25681  -0.25374  -0.24769  -0.24264
 Alpha virt. eigenvalues --   -0.00362   0.00167   0.02490   0.03720   0.06347
 Alpha virt. eigenvalues --    0.07741   0.08189   0.09114   0.10657   0.11004
 Alpha virt. eigenvalues --    0.11598   0.11861   0.12451   0.12908   0.13302
 Alpha virt. eigenvalues --    0.13541   0.14168   0.14970   0.15630   0.16499
 Alpha virt. eigenvalues --    0.16766   0.17391   0.17954   0.18765   0.19202
 Alpha virt. eigenvalues --    0.20055   0.20216   0.21769   0.23504   0.24904
 Alpha virt. eigenvalues --    0.26269   0.26938   0.27273   0.29070   0.30478
 Alpha virt. eigenvalues --    0.31739   0.32259   0.33391   0.34373   0.35421
 Alpha virt. eigenvalues --    0.37212   0.39230   0.41238   0.41595   0.42443
 Alpha virt. eigenvalues --    0.43402   0.43970   0.45240   0.46143   0.46318
 Alpha virt. eigenvalues --    0.46884   0.47595   0.49510   0.50002   0.50218
 Alpha virt. eigenvalues --    0.50274   0.51312   0.51757   0.52620   0.54362
 Alpha virt. eigenvalues --    0.55246   0.55816   0.56804   0.57757   0.59552
 Alpha virt. eigenvalues --    0.59976   0.60502   0.61476   0.61713   0.61966
 Alpha virt. eigenvalues --    0.62855   0.63487   0.64033   0.64873   0.65005
 Alpha virt. eigenvalues --    0.65324   0.65588   0.65875   0.66885   0.66991
 Alpha virt. eigenvalues --    0.67280   0.67479   0.68273   0.68397   0.68691
 Alpha virt. eigenvalues --    0.68959   0.69369   0.70086   0.70237   0.71071
 Alpha virt. eigenvalues --    0.71260   0.71943   0.72486   0.72896   0.73751
 Alpha virt. eigenvalues --    0.74492   0.75223   0.75644   0.76065   0.77283
 Alpha virt. eigenvalues --    0.77952   0.78644   0.79744   0.81652   0.82933
 Alpha virt. eigenvalues --    0.83369   0.84185   0.87055   0.87469   0.89512
 Alpha virt. eigenvalues --    0.90395   0.93483   0.93978   0.96425   0.97140
 Alpha virt. eigenvalues --    0.98421   0.99789   1.04556   1.05585   1.07615
 Alpha virt. eigenvalues --    1.09457   1.10364   1.12632   1.15212   1.16972
 Alpha virt. eigenvalues --    1.18426   1.21052   1.22473   1.23708   1.24017
 Alpha virt. eigenvalues --    1.25795   1.27114   1.28834   1.30322   1.30579
 Alpha virt. eigenvalues --    1.31297   1.33044   1.33551   1.34237   1.35114
 Alpha virt. eigenvalues --    1.37564   1.38814   1.41373   1.43325   1.45806
 Alpha virt. eigenvalues --    1.48738   1.50761   1.53688   1.54133   1.55156
 Alpha virt. eigenvalues --    1.56571   1.59118   1.60176   1.61971   1.63057
 Alpha virt. eigenvalues --    1.64753   1.65649   1.66322   1.66894   1.68138
 Alpha virt. eigenvalues --    1.68423   1.69687   1.71007   1.71634   1.71924
 Alpha virt. eigenvalues --    1.73509   1.74918   1.75667   1.76049   1.76605
 Alpha virt. eigenvalues --    1.77381   1.77760   1.78282   1.79041   1.80023
 Alpha virt. eigenvalues --    1.80164   1.80590   1.81579   1.82836   1.83247
 Alpha virt. eigenvalues --    1.83412   1.84366   1.84929   1.85692   1.86877
 Alpha virt. eigenvalues --    1.87238   1.87694   1.88315   1.89115   1.89756
 Alpha virt. eigenvalues --    1.92375   1.92885   1.93528   1.94356   1.95442
 Alpha virt. eigenvalues --    1.96023   1.97935   1.99069   1.99366   1.99597
 Alpha virt. eigenvalues --    2.00402   2.00809   2.02324   2.04836   2.05805
 Alpha virt. eigenvalues --    2.06437   2.07188   2.09420   2.11210   2.13650
 Alpha virt. eigenvalues --    2.14503   2.15421   2.16011   2.16756   2.19401
 Alpha virt. eigenvalues --    2.19841   2.22964   2.25790   2.26458   2.28775
 Alpha virt. eigenvalues --    2.31106   2.31537   2.32485   2.33409   2.34117
 Alpha virt. eigenvalues --    2.34890   2.36321   2.37403   2.38264   2.38973
 Alpha virt. eigenvalues --    2.40823   2.41739   2.43642   2.46731   2.50164
 Alpha virt. eigenvalues --    2.54161   2.55518   2.56479   2.60166   2.60206
 Alpha virt. eigenvalues --    2.63844   2.64243   2.65136   2.65729   2.66351
 Alpha virt. eigenvalues --    2.66997   2.68422   2.72399   2.73344   2.73773
 Alpha virt. eigenvalues --    2.74763   2.75932   2.79704   2.81883   2.82813
 Alpha virt. eigenvalues --    2.83543   2.85582   2.86820   2.89411   2.89811
 Alpha virt. eigenvalues --    2.90251   2.90893   2.93338   2.94156   2.95783
 Alpha virt. eigenvalues --    2.96642   2.97076   3.00046   3.00866   3.02749
 Alpha virt. eigenvalues --    3.04210   3.05040   3.06391   3.06825   3.09480
 Alpha virt. eigenvalues --    3.10991   3.14919   3.16481   3.19075   3.26168
 Alpha virt. eigenvalues --    3.27588   3.33501   3.40417   3.47493   3.62350
 Alpha virt. eigenvalues --    3.65139   3.66611
     Molecular Orbital Coefficients:
                          65        66        67        68        69
                           O         O         O         O         O
     Eigenvalues --    -0.26299  -0.25681  -0.25374  -0.24769  -0.24264
   1 1   C  1S          0.00026  -0.00426   0.00459   0.00146  -0.00220
   2        2S         -0.00209   0.00533  -0.00128  -0.00057   0.00248
   3        3S          0.01366   0.07076  -0.13374  -0.03620   0.04595
   4        4PX        -0.00051  -0.02695   0.02179   0.01016   0.01350
   5        4PY        -0.00044  -0.01430   0.03384   0.00625  -0.02343
   6        4PZ         0.00095  -0.00040  -0.00031   0.00666  -0.00165
   7        5PX        -0.00815  -0.03462   0.04235  -0.01757   0.02417
   8        5PY        -0.00084  -0.02158   0.05727   0.03095  -0.03687
   9        5PZ         0.00014  -0.00178   0.01568   0.01325  -0.00823
  10        6D 0       -0.00006  -0.00058   0.00119   0.00026  -0.00028
  11        6D+1        0.00010  -0.00057  -0.00085   0.00019   0.00225
  12        6D-1       -0.00004   0.00155  -0.00191  -0.00040  -0.00027
  13        6D+2        0.00015  -0.00100   0.00045   0.00049   0.00163
  14        6D-2        0.00003  -0.00031   0.00018  -0.00010   0.00146
  15 2   C  1S          0.00093   0.00198  -0.00433   0.00204  -0.00020
  16        2S         -0.00082  -0.00070   0.01076  -0.00051   0.00466
  17        3S         -0.01498  -0.04929   0.02153  -0.06921  -0.04337
  18        4PX         0.00118   0.03735  -0.03531  -0.01067  -0.05629
  19        4PY         0.00018   0.01094  -0.02770  -0.00319   0.04264
  20        4PZ         0.00114  -0.01967   0.03408   0.01227  -0.01444
  21        5PX         0.01637   0.05323  -0.00238   0.09470  -0.09365
  22        5PY        -0.01153  -0.04168   0.07976  -0.00086   0.02832
  23        5PZ        -0.00348  -0.03945   0.07128   0.02767  -0.00850
  24        6D 0       -0.00039  -0.00412   0.00714   0.00060  -0.00227
  25        6D+1        0.00005  -0.00030  -0.00132  -0.00476   0.00417
  26        6D-1        0.00029   0.00371  -0.00533   0.00060   0.00015
  27        6D+2        0.00007   0.00016  -0.00077   0.00538   0.00064
  28        6D-2       -0.00044  -0.00063   0.00112   0.00319   0.00053
  29 3   C  1S          0.00106  -0.01288   0.00709   0.00889   0.03345
  30        2S         -0.00184   0.03579  -0.02039  -0.02080  -0.08794
  31        3S         -0.01555  -0.03897   0.06159  -0.02464   0.02303
  32        4PX        -0.00218  -0.02379   0.03796   0.03483  -0.01043
  33        4PY         0.00263  -0.02262   0.04551   0.15445  -0.02429
  34        4PZ         0.00663   0.02149  -0.07438  -0.10046   0.10504
  35        5PX         0.00444   0.03326  -0.02507   0.01103  -0.10384
  36        5PY        -0.00437  -0.02577   0.04496   0.06631  -0.01505
  37        5PZ        -0.00100   0.02167  -0.05604  -0.11373   0.04956
  38        6D 0       -0.00065  -0.00541   0.01427   0.02330  -0.01505
  39        6D+1        0.00055  -0.00483   0.00350   0.01207   0.01180
  40        6D-1       -0.00037   0.00254  -0.00214  -0.00499  -0.00511
  41        6D+2        0.00063  -0.00526   0.00488   0.01057   0.00887
  42        6D-2        0.00109   0.00159  -0.00860  -0.00978   0.01696
  43 4   N  1S          0.00412  -0.01611   0.00016   0.03419   0.07503
  44        2S          0.00832  -0.03461   0.00249   0.07331   0.15958
  45        3S          0.01303  -0.02827  -0.02634   0.06640   0.18821
  46        4PX         0.01961  -0.04742  -0.04805   0.05675   0.34329
  47        4PY         0.00702   0.03795  -0.11495  -0.18081   0.14594
  48        4PZ         0.00384  -0.08256   0.12344   0.28639   0.01958
  49        5PX        -0.01539   0.02594   0.04433  -0.03555  -0.22360
  50        5PY        -0.00405  -0.02478   0.07988   0.13006  -0.11805
  51        5PZ        -0.00108   0.06749  -0.10354  -0.21049  -0.01413
  52        6D 0        0.00053   0.00265  -0.00833  -0.01321   0.01198
  53        6D+1       -0.00071   0.00252  -0.00094  -0.00911  -0.00841
  54        6D-1       -0.00013   0.00079   0.00008  -0.00021  -0.00345
  55        6D+2       -0.00051   0.00312  -0.00224  -0.00934  -0.00886
  56        6D-2       -0.00035  -0.00148   0.00490   0.00749  -0.00630
  57 5   C  1S          0.00130  -0.00629   0.00117   0.01217   0.02559
  58        2S         -0.00295   0.01637  -0.00425  -0.03051  -0.06473
  59        3S         -0.00240   0.01975  -0.01066  -0.03783  -0.07258
  60        4PX         0.00720  -0.01731  -0.01790   0.01800   0.12910
  61        4PY         0.00000   0.02755  -0.04386  -0.08796  -0.00635
  62        4PZ        -0.00089  -0.02173   0.04418   0.08083  -0.02661
  63        5PX         0.00018   0.00151  -0.00602  -0.00913   0.01120
  64        5PY        -0.00061   0.01142  -0.01399  -0.02504  -0.02180
  65        5PZ        -0.00194  -0.00455   0.01266  -0.00185  -0.01857
  66        6D 0        0.00017   0.00264  -0.00577  -0.01052   0.00407
  67        6D+1        0.00049  -0.00376   0.00393   0.01237   0.00564
  68        6D-1       -0.00018   0.00254  -0.00363  -0.00905  -0.00139
  69        6D+2        0.00085   0.00067  -0.00678  -0.00705   0.01607
  70        6D-2        0.00047  -0.00154  -0.00057   0.00268   0.00852
  71 6   C  1S         -0.00163   0.00357   0.00277  -0.00974  -0.02283
  72        2S          0.00437  -0.00761  -0.00950   0.02353   0.05751
  73        3S          0.00491  -0.02348   0.00425   0.05100   0.10334
  74        4PX        -0.00642   0.00810   0.01920  -0.01863  -0.08560
  75        4PY        -0.00331  -0.00159   0.02805   0.04319  -0.06917
  76        4PZ        -0.00125   0.02872  -0.03446  -0.07596  -0.03406
  77        5PX        -0.00273   0.01184  -0.00331  -0.02950  -0.04647
  78        5PY        -0.00393   0.01044   0.00657  -0.01612  -0.06668
  79        5PZ        -0.00280   0.01794  -0.00723  -0.02744  -0.06364
  80        6D 0       -0.00012  -0.00021   0.00117   0.00242  -0.00194
  81        6D+1        0.00014   0.00271  -0.00518  -0.01064   0.00208
  82        6D-1        0.00018  -0.00051   0.00019   0.00291   0.00215
  83        6D+2       -0.00034  -0.00132   0.00373   0.00498  -0.00485
  84        6D-2       -0.00028  -0.00122   0.00377   0.00567  -0.00455
  85 7   O  1S          0.00019  -0.00399   0.00222   0.00178   0.01289
  86        2S          0.00062  -0.00827   0.00424   0.00481   0.02776
  87        3S          0.00136  -0.02575   0.01403   0.01697   0.08631
  88        4PX        -0.00160   0.04029  -0.04493  -0.09406  -0.04525
  89        4PY         0.00200   0.05170  -0.10074  -0.21555   0.04986
  90        4PZ        -0.01046  -0.03226   0.11616   0.17296  -0.16672
  91        5PX        -0.00067   0.03362  -0.03863  -0.07961  -0.03466
  92        5PY         0.00205   0.04187  -0.08355  -0.17069   0.04453
  93        5PZ        -0.00786  -0.02732   0.09553   0.14880  -0.13654
  94        6D 0        0.00020   0.00061  -0.00214  -0.00375   0.00311
  95        6D+1       -0.00003  -0.00022  -0.00005  -0.00083   0.00062
  96        6D-1        0.00016  -0.00051  -0.00021   0.00094   0.00248
  97        6D+2       -0.00010   0.00072  -0.00071  -0.00255  -0.00125
  98        6D-2       -0.00012  -0.00124   0.00182   0.00175   0.00024
  99 8   N  1S          0.00194   0.00887  -0.01855  -0.02708  -0.07579
 100        2S          0.00197   0.01733  -0.03414  -0.06009  -0.16275
 101        3S          0.02038   0.02887  -0.10694  -0.04813  -0.17657
 102        4PX         0.01731   0.02854  -0.09222   0.13199   0.12412
 103        4PY         0.02577   0.13374  -0.18447  -0.01939  -0.30662
 104        4PZ        -0.02600  -0.13560   0.21821  -0.20248  -0.06139
 105        5PX        -0.01836  -0.03641   0.06507  -0.10239  -0.06756
 106        5PY        -0.01599  -0.09458   0.12455   0.01567   0.20795
 107        5PZ         0.02063   0.09647  -0.17136   0.14081   0.04884
 108        6D 0        0.00164   0.01061  -0.01112   0.00600  -0.00698
 109        6D+1       -0.00069   0.00056   0.00143  -0.00262  -0.00085
 110        6D-1        0.00039   0.00371  -0.00639   0.00910   0.00659
 111        6D+2        0.00108   0.00462  -0.00580   0.00030  -0.00763
 112        6D-2       -0.00116  -0.00050   0.00599  -0.00886  -0.00963
 113 9   C  1S          0.00151  -0.00010  -0.00905  -0.00534  -0.03601
 114        2S         -0.00625  -0.00026   0.02061   0.01093   0.09506
 115        3S          0.01733   0.03461   0.07982   0.08859  -0.00985
 116        4PX        -0.00322  -0.05664   0.05378  -0.09152  -0.02318
 117        4PY         0.00395  -0.03052   0.05002  -0.06135  -0.04064
 118        4PZ         0.01451   0.07928  -0.12899   0.08160  -0.02536
 119        5PX         0.00083  -0.01408   0.03090   0.00726  -0.05509
 120        5PY        -0.00239  -0.04443   0.01821  -0.03316   0.06379
 121        5PZ         0.01188   0.07436  -0.09527   0.09900  -0.00015
 122        6D 0       -0.00293  -0.01322   0.02009  -0.01150   0.00551
 123        6D+1        0.00036  -0.00237  -0.00093   0.00527   0.01146
 124        6D-1       -0.00226  -0.00700   0.01032  -0.01102  -0.00338
 125        6D+2       -0.00228  -0.00852   0.01167  -0.00093   0.01638
 126        6D-2        0.00184   0.00465  -0.01165   0.01114   0.00929
 127 10  O  1S         -0.00134   0.00092  -0.00404  -0.00052  -0.01340
 128        2S         -0.00265   0.00304  -0.00775  -0.00228  -0.02987
 129        3S         -0.00519   0.01742  -0.02707   0.00024  -0.07981
 130        4PX         0.03268   0.05452  -0.14640   0.11034  -0.01045
 131        4PY         0.01392   0.00593  -0.08340   0.10449   0.09999
 132        4PZ        -0.04229  -0.15661   0.19228  -0.13241   0.03988
 133        5PX         0.02537   0.04440  -0.12086   0.08232  -0.01441
 134        5PY         0.01002   0.00912  -0.06528   0.08210   0.07849
 135        5PZ        -0.03367  -0.12921   0.16092  -0.11540   0.02962
 136        6D 0        0.00032   0.00238  -0.00345   0.00241  -0.00076
 137        6D+1       -0.00040   0.00031  -0.00038  -0.00062  -0.00078
 138        6D-1        0.00075   0.00147  -0.00248   0.00064  -0.00239
 139        6D+2        0.00062  -0.00088  -0.00129  -0.00024   0.00025
 140        6D-2       -0.00079  -0.00113   0.00137  -0.00216  -0.00236
 141 11  C  1S         -0.00500   0.01325   0.02207   0.00491   0.02404
 142        2S          0.01313  -0.03207  -0.05786  -0.01101  -0.05873
 143        3S          0.00447  -0.04972  -0.05500  -0.05561  -0.12911
 144        4PX        -0.02392   0.01028   0.04889  -0.03264   0.00732
 145        4PY        -0.00497   0.02518   0.10937   0.00163   0.10841
 146        4PZ         0.02360   0.03070  -0.03101   0.03571   0.03138
 147        5PX        -0.01212   0.00178   0.01818   0.00616   0.03064
 148        5PY         0.01709   0.00937   0.04064   0.03192   0.09836
 149        5PZ         0.01524   0.00010   0.01432   0.00264   0.03598
 150        6D 0       -0.00161  -0.00251   0.00893  -0.00618   0.00054
 151        6D+1       -0.00039   0.00171  -0.00066  -0.00176  -0.00362
 152        6D-1        0.00195   0.00295  -0.00808   0.00616   0.00140
 153        6D+2        0.00099   0.00637  -0.00369   0.00306  -0.00156
 154        6D-2       -0.00070   0.00246  -0.00086  -0.00074  -0.00294
 155 12  C  1S          0.00083   0.00253  -0.00107  -0.01041  -0.02380
 156        2S         -0.00290  -0.01563   0.00896   0.01642   0.06016
 157        3S          0.01000   0.01538  -0.09761   0.10247   0.04889
 158        4PX         0.00737  -0.01392  -0.01906   0.05798   0.10210
 159        4PY         0.01292   0.00395  -0.09305   0.01256  -0.08231
 160        4PZ        -0.01083  -0.11646   0.02945  -0.04936  -0.00611
 161        5PX        -0.01213  -0.02052   0.05899  -0.02520   0.04879
 162        5PY         0.02079   0.00180  -0.01027   0.02654   0.03148
 163        5PZ         0.00049  -0.04392  -0.03108   0.02832   0.00442
 164        6D 0        0.00199   0.01644   0.00052   0.00632   0.00451
 165        6D+1        0.00211   0.00034  -0.01215   0.01192   0.00756
 166        6D-1        0.00024  -0.00162  -0.00171  -0.00026  -0.00103
 167        6D+2       -0.00077  -0.00426   0.01286  -0.00157   0.01350
 168        6D-2       -0.00162  -0.00946   0.00487  -0.00194   0.00617
 169 13  H  1S          0.01491   0.14741  -0.02223   0.07786   0.05091
 170        2S          0.01725   0.09226  -0.01591   0.05282   0.02255
 171        3PX        -0.00029   0.00214   0.00029   0.00124   0.00172
 172        3PY         0.00017   0.00294  -0.00263   0.00100  -0.00248
 173        3PZ         0.00031   0.00327  -0.00046   0.00210   0.00170
 174 14  C  1S          0.00507   0.01547  -0.02491   0.01790  -0.00257
 175        2S         -0.01356  -0.04097   0.05912  -0.04352   0.00608
 176        3S         -0.01808  -0.05522   0.19067  -0.08292   0.09247
 177        4PX        -0.01914  -0.00433   0.11727  -0.07140  -0.00038
 178        4PY        -0.00251   0.11843   0.14981  -0.04278   0.02890
 179        4PZ         0.01779   0.26540   0.09352   0.02212   0.02322
 180        5PX        -0.00469   0.00447   0.11751  -0.06211   0.03646
 181        5PY        -0.00789   0.08670   0.12033  -0.07549  -0.02423
 182        5PZ         0.01788   0.18383   0.05351   0.03189   0.02264
 183        6D 0        0.01000   0.00583   0.00382   0.00002   0.00087
 184        6D+1        0.01196  -0.00449  -0.00380   0.00089  -0.00104
 185        6D-1       -0.00827  -0.00071  -0.00182   0.00122   0.00113
 186        6D+2        0.01014  -0.00043   0.00243   0.00044   0.00330
 187        6D-2        0.00354  -0.00558  -0.00037  -0.00263  -0.00267
 188 15  C  1S         -0.00076  -0.00131   0.00222  -0.00401  -0.00468
 189        2S          0.00253   0.00113  -0.00260   0.00877   0.01341
 190        3S          0.00324   0.01576  -0.01459   0.01548   0.02111
 191        4PX        -0.04187   0.04570  -0.01494   0.03210   0.02497
 192        4PY        -0.16667   0.09337   0.04444  -0.00185   0.01423
 193        4PZ        -0.23968   0.14101   0.05862   0.00643   0.02251
 194        5PX        -0.02577   0.02998  -0.01565   0.02757   0.01803
 195        5PY        -0.12181   0.06579   0.02569   0.00800   0.01214
 196        5PZ        -0.16950   0.10480   0.04228   0.00475   0.01875
 197        6D 0       -0.00778  -0.00132  -0.00205   0.00076   0.00014
 198        6D+1        0.00692   0.01264   0.00582   0.00066   0.00164
 199        6D-1        0.00127  -0.00348  -0.00068  -0.00030   0.00010
 200        6D+2       -0.00148   0.00219   0.00474  -0.00173   0.00085
 201        6D-2        0.00553   0.00558   0.00734  -0.00245   0.00037
 202 16  C  1S          0.00027   0.00302  -0.00426   0.00397   0.00160
 203        2S         -0.00014  -0.00735   0.00941  -0.00904  -0.00384
 204        3S         -0.00154  -0.01026   0.00203  -0.00657  -0.01592
 205        4PX        -0.05417  -0.03282   0.00143  -0.01488  -0.00976
 206        4PY        -0.16114  -0.06945  -0.05058   0.00603  -0.00623
 207        4PZ        -0.24049  -0.08875  -0.09928   0.02754  -0.00389
 208        5PX        -0.03872  -0.02196  -0.00108  -0.00586  -0.00521
 209        5PY        -0.11237  -0.05196  -0.03376   0.00642   0.00232
 210        5PZ        -0.17017  -0.06257  -0.06965   0.01502  -0.00796
 211        6D 0        0.00758  -0.01328  -0.00642  -0.00045  -0.00220
 212        6D+1       -0.00695   0.00136   0.00001   0.00045   0.00065
 213        6D-1       -0.00105   0.00576   0.00262   0.00052   0.00119
 214        6D+2        0.00161  -0.00580  -0.00467   0.00125  -0.00038
 215        6D-2       -0.00637   0.00386   0.00234  -0.00058   0.00011
 216 17  C  1S          0.00061   0.00230  -0.00426   0.00176  -0.00252
 217        2S         -0.00139  -0.00539   0.00935  -0.00424   0.00517
 218        3S         -0.00588  -0.01744   0.02016  -0.01697   0.01392
 219        4PX         0.00169  -0.05423  -0.02147   0.00313   0.00607
 220        4PY         0.00169  -0.15071  -0.09439   0.00488  -0.02440
 221        4PZ         0.00371  -0.23529  -0.13857   0.00774  -0.03150
 222        5PX        -0.00118  -0.04109  -0.01591  -0.00434  -0.00041
 223        5PY         0.00278  -0.10700  -0.06712   0.01179  -0.00612
 224        5PZ         0.00254  -0.16812  -0.10224   0.00422  -0.02885
 225        6D 0        0.00961   0.00338   0.00350  -0.00089   0.00013
 226        6D+1        0.01166  -0.00383  -0.00113  -0.00015  -0.00025
 227        6D-1       -0.00831  -0.00021  -0.00117   0.00054   0.00021
 228        6D+2        0.00977  -0.00008   0.00151  -0.00076  -0.00022
 229        6D-2        0.00398  -0.00362  -0.00071  -0.00087  -0.00106
 230 18  C  1S          0.00096   0.00129  -0.00108   0.00219   0.00227
 231        2S         -0.00278  -0.00248   0.00077  -0.00409  -0.00639
 232        3S          0.00330   0.00597  -0.02041  -0.01052  -0.05575
 233        4PX         0.04930  -0.03143  -0.00550  -0.01354  -0.01910
 234        4PY         0.15383  -0.08894  -0.01295  -0.01535  -0.01091
 235        4PZ         0.24904  -0.12128  -0.04825  -0.00434  -0.01673
 236        5PX         0.03151  -0.02861  -0.00513  -0.02963  -0.03714
 237        5PY         0.11201  -0.05851  -0.00901  -0.01173  -0.01737
 238        5PZ         0.17432  -0.08761  -0.02930  -0.00405  -0.00387
 239        6D 0       -0.00823  -0.00209  -0.00343   0.00097  -0.00066
 240        6D+1        0.00633   0.01201   0.00767  -0.00047   0.00182
 241        6D-1        0.00177  -0.00360   0.00002  -0.00050   0.00059
 242        6D+2       -0.00165   0.00258   0.00441  -0.00103   0.00174
 243        6D-2        0.00568   0.00769   0.00490  -0.00080   0.00016
 244 19  C  1S         -0.00005   0.00103  -0.00227  -0.00007  -0.00291
 245        2S         -0.00178  -0.00423   0.00648  -0.00175   0.00728
 246        3S          0.00235   0.00766  -0.00190  -0.00168  -0.00985
 247        4PX         0.05907   0.01277   0.04691  -0.00317   0.03565
 248        4PY         0.16059   0.09299   0.03116   0.00226  -0.00914
 249        4PZ         0.24253   0.10287   0.11908  -0.02777   0.01957
 250        5PX         0.04467   0.01770   0.01383   0.00414  -0.00918
 251        5PY         0.10631   0.07065  -0.00315  -0.01817  -0.05954
 252        5PZ         0.17010   0.07143   0.09643   0.00500   0.06501
 253        6D 0        0.00693  -0.01287  -0.00526  -0.00113  -0.00206
 254        6D+1       -0.00702   0.00120  -0.00210   0.00164   0.00071
 255        6D-1       -0.00063   0.00607   0.00329   0.00044   0.00146
 256        6D+2        0.00069  -0.00558  -0.00442   0.00116  -0.00056
 257        6D-2       -0.00695   0.00228   0.00247  -0.00119  -0.00028
 258 20  C  1S          0.00238   0.01084  -0.01583  -0.00294   0.00507
 259        2S         -0.00491  -0.02595   0.03914   0.00249  -0.00908
 260        3S         -0.01514  -0.01278   0.03322   0.05086  -0.02856
 261        4PX         0.00696  -0.00018   0.00684   0.00907   0.00966
 262        4PY         0.00537  -0.00410   0.00689  -0.00649  -0.01107
 263        4PZ         0.00572   0.04754  -0.08040  -0.02176   0.02690
 264        5PX        -0.00118  -0.00845   0.01489  -0.01420   0.00713
 265        5PY         0.00906   0.01039  -0.01723  -0.00223   0.00159
 266        5PZ        -0.00131   0.02384  -0.06110  -0.03678   0.02794
 267        6D 0        0.00010  -0.00035   0.00075   0.00035   0.00004
 268        6D+1        0.00033   0.00092  -0.00146   0.00351   0.00236
 269        6D-1       -0.00016   0.00101  -0.00187  -0.00220  -0.00039
 270        6D+2        0.00035   0.00135  -0.00191  -0.00035  -0.00020
 271        6D-2       -0.00011  -0.00072   0.00159   0.00087  -0.00101
 272 21  H  1S         -0.00151  -0.01351   0.02647   0.00248  -0.00793
 273        2S          0.00088  -0.00692   0.01554   0.01171  -0.00752
 274        3PX         0.00003  -0.00048   0.00042   0.00007  -0.00006
 275        3PY         0.00001   0.00014  -0.00043  -0.00056   0.00004
 276        3PZ         0.00002  -0.00003  -0.00003  -0.00016  -0.00000
 277 22  H  1S          0.00025  -0.01682   0.00637   0.01019   0.01927
 278        2S          0.00095  -0.01057   0.00731   0.00827  -0.00379
 279        3PX         0.00007   0.00029  -0.00004  -0.00032  -0.00045
 280        3PY         0.00009  -0.00026   0.00028   0.00022   0.00018
 281        3PZ         0.00000   0.00033  -0.00019   0.00028  -0.00010
 282 23  H  1S         -0.00070   0.01260  -0.00003  -0.00392  -0.02282
 283        2S         -0.00734  -0.01243   0.01384  -0.01422  -0.00302
 284        3PX         0.00006   0.00060  -0.00011   0.00015  -0.00060
 285        3PY         0.00012  -0.00032   0.00016   0.00026   0.00010
 286        3PZ         0.00016   0.00022  -0.00017   0.00028   0.00003
 287 24  H  1S          0.00083   0.03501  -0.06729  -0.13155   0.03078
 288        2S          0.00073   0.01811  -0.04237  -0.08945   0.03799
 289        3PX         0.00021  -0.00040  -0.00068   0.00020   0.00387
 290        3PY         0.00007   0.00049  -0.00106  -0.00183   0.00076
 291        3PZ         0.00004   0.00069  -0.00149  -0.00276   0.00116
 292 25  H  1S         -0.00456  -0.02804   0.07835   0.12462  -0.09049
 293        2S         -0.00223  -0.02234   0.05311   0.10004  -0.04932
 294        3PX         0.00007  -0.00110   0.00146   0.00350   0.00097
 295        3PY        -0.00012  -0.00044   0.00165   0.00272  -0.00256
 296        3PZ         0.00013  -0.00027   0.00005   0.00121   0.00111
 297 26  H  1S         -0.00452  -0.02194   0.06046   0.09156  -0.06750
 298        2S         -0.00354  -0.01292   0.04262   0.06168  -0.06027
 299        3PX        -0.00008   0.00067  -0.00085  -0.00275  -0.00066
 300        3PY         0.00011   0.00060  -0.00130  -0.00152   0.00085
 301        3PZ        -0.00014   0.00045   0.00009  -0.00109  -0.00217
 302 27  H  1S          0.00067   0.02695  -0.04993  -0.10567   0.01499
 303        2S         -0.00057   0.01940  -0.02967  -0.07602  -0.00686
 304        3PX        -0.00022  -0.00020   0.00138   0.00090  -0.00276
 305        3PY        -0.00012   0.00046   0.00011  -0.00052  -0.00230
 306        3PZ        -0.00003  -0.00023   0.00081   0.00185  -0.00122
 307 28  H  1S         -0.02755  -0.03639   0.10764  -0.06517   0.01318
 308        2S         -0.01947  -0.01744   0.08955  -0.04796   0.01853
 309        3PX        -0.00026   0.00139  -0.00084   0.00018  -0.00051
 310        3PY         0.00038   0.00142  -0.00043   0.00177   0.00209
 311        3PZ        -0.00040   0.00020   0.00182  -0.00023   0.00133
 312 29  H  1S          0.02702   0.02214  -0.04814   0.05687   0.03489
 313        2S         -0.01069   0.03248  -0.01369   0.04727   0.04856
 314        3PX         0.00134  -0.00092   0.00028   0.00021   0.00142
 315        3PY        -0.00007  -0.00137   0.00371  -0.00122   0.00240
 316        3PZ        -0.00062   0.00078   0.00134  -0.00085   0.00017
 317 30  H  1S         -0.00104   0.00612  -0.00835   0.00424  -0.00079
 318        2S          0.00803   0.00898  -0.01678   0.00817  -0.00602
 319        3PX        -0.00138   0.00153  -0.00062   0.00087   0.00025
 320        3PY        -0.00562   0.00346   0.00101   0.00028   0.00029
 321        3PZ        -0.00816   0.00446   0.00198   0.00017   0.00100
 322 31  H  1S          0.00432   0.00734  -0.01277   0.01356   0.00719
 323        2S          0.00181   0.00634  -0.00838   0.01009   0.00638
 324        3PX        -0.00167  -0.00067  -0.00058   0.00008  -0.00006
 325        3PY        -0.00549  -0.00240  -0.00170   0.00005  -0.00042
 326        3PZ        -0.00807  -0.00306  -0.00341   0.00106  -0.00004
 327 32  H  1S         -0.00180  -0.00163   0.00223  -0.00504  -0.00687
 328        2S         -0.00086   0.00017  -0.00060  -0.00198  -0.00545
 329        3PX         0.00005  -0.00176  -0.00073   0.00003  -0.00007
 330        3PY        -0.00002  -0.00514  -0.00313  -0.00010  -0.00113
 331        3PZ         0.00016  -0.00792  -0.00466   0.00035  -0.00089
 332 33  H  1S          0.00229   0.01175  -0.01957   0.00940  -0.00837
 333        2S          0.00288   0.00788  -0.00884   0.00768  -0.00136
 334        3PX         0.00175  -0.00103  -0.00005   0.00005   0.00015
 335        3PY         0.00521  -0.00254  -0.00111  -0.00009  -0.00049
 336        3PZ         0.00817  -0.00434  -0.00143  -0.00031  -0.00057
 337 34  H  1S          0.00169  -0.00741   0.01244   0.00590   0.02710
 338        2S         -0.00021   0.00954  -0.02529  -0.00133  -0.01429
 339        3PX         0.00267   0.00338  -0.00239   0.00135  -0.00245
 340        3PY         0.00523   0.00331   0.00020   0.00097   0.00005
 341        3PZ         0.00759   0.00271   0.00425  -0.00114   0.00110
 342 35  H  1S          0.00769   0.02028  -0.03036   0.00723   0.02254
 343        2S          0.00709   0.01005  -0.00944   0.03818   0.00572
 344        3PX        -0.00014  -0.00083   0.00149   0.00076  -0.00080
 345        3PY         0.00014  -0.00010   0.00016  -0.00042  -0.00046
 346        3PZ        -0.00001   0.00114  -0.00183  -0.00135   0.00047
 347 36  H  1S         -0.00851  -0.01402   0.01903   0.00538  -0.00151
 348        2S          0.01567   0.01790  -0.03196  -0.01681   0.02334
 349        3PX        -0.00035  -0.00066   0.00013  -0.00125   0.00171
[...]
 .00000059,-0.00017455,0.00003835,0.00008933,0.00003546,-0.00004270,-0.
 00003903,-0.00002527,-0.00010701,0.00004638,0.00022705,0.00059035,-0.0
 0060265,0.00058149,-0.00008845,-0.00000389,0.00008050,-0.00281970,-0.0
 0031529,0.00382002,-0.00112636,-0.00020319,0.00036084,-0.00494380,0.00
 246911,0.00028304,-0.00024833,0.01718366,-0.02318594,-0.06921802,0.038
 01308,-0.04411006,0.00806637,-0.01408690,0.01889175,-0.00002012,-0.000
 03979,-0.00000031,0.00000679,0.00000700,-0.00000428,-0.00000541,-0.000
 00588,0.00000005,0.00000217,0.00000179,0.00000585,0.00000069,0.0000017
 1,-0.00000287,-0.00000631,0.00000720,-0.00000002,0.00000230,0.00000227
 ,-0.00000231,-0.00000337,-0.00000087,0.00000063,-0.00000650,-0.0000882
 7,0.00000196,0.00002370,-0.00000157,-0.00001788,0.00005865,-0.00016272
 ,-0.00013683,-0.00018128,0.00079991,-0.00112087,0.00093553,-0.00099264
 ,-0.00021770,0.06833127,-0.00001288,0.00000741,-0.00002718,0.00003346,
 0.00000259,0.00000411,0.00003099,0.00001580,0.00000991,-0.00001358,-0.
 00000376,-0.00001936,0.00000074,-0.00000716,0.00000361,-0.00000042,-0.
 00000264,0.00000483,-0.00003628,-0.00000269,-0.00001638,-0.00017363,-0
 .00008394,-0.00006859,0.00005354,0.00023839,0.00009128,0.00000014,-0.0
 0010730,-0.00003718,0.00001769,0.00015726,0.00010423,0.00038849,-0.000
 21491,0.00012017,-0.00009788,0.00000689,0.00004203,-0.00076593,0.00511
 331,0.00324653,-0.00008946,-0.00037351,-0.00087080,0.00292000,0.004778
 18,0.00261816,-0.00084819,-0.00123510,0.00755162,0.03818314,-0.1471230
 7,0.14220861,0.00346705,-0.00062255,0.00578454,-0.00003382,-0.00000857
 ,-0.00000443,0.00000816,0.00000586,-0.00000428,-0.00001037,-0.00000650
 ,-0.00000023,0.00000543,-0.00000018,0.00000975,0.00000216,0.00000014,-
 0.00000167,0.00000154,0.00000213,0.00000253,-0.00000102,0.00000065,-0.
 00000033,-0.00000397,0.00000077,-0.00000152,0.00001665,-0.00005028,-0.
 00001183,0.00006672,0.00000411,-0.00002421,-0.00013650,-0.00073102,-0.
 00042827,-0.00001746,-0.00009660,0.00044031,-0.00069765,-0.00247932,-0
 .00226514,-0.04141809,0.14528984,0.00001654,-0.00000711,0.00001985,-0.
 00002845,-0.00000413,-0.00000029,-0.00004821,0.00006047,0.00001982,0.0
 0002163,-0.00006095,0.00000497,-0.00000276,0.00002578,-0.00000436,-0.0
 0000429,0.00001480,0.00000375,0.00003425,-0.00003814,-0.00000837,0.000
 06292,0.00004723,0.00010880,-0.00012547,-0.00009688,-0.00006633,0.0000
 9580,0.00009023,0.00005759,0.00010048,0.00001498,-0.00023304,-0.000716
 76,0.00037294,-0.00025224,0.00006595,0.00007333,-0.00010911,0.00406206
 ,0.00341970,0.00098067,0.00054109,-0.00091399,0.00013316,-0.00040477,0
 .00279426,0.00354216,0.00202882,0.00216518,0.00018422,-0.04343586,0.14
 180927,-0.22607479,-0.00646746,0.01111885,-0.00957452,0.00003502,0.000
 02220,-0.00000183,-0.00000725,-0.00000241,0.00000066,0.00000829,0.0000
 0817,0.00000296,-0.00000564,-0.00000742,-0.00000788,0.00000484,-0.0000
 0214,-0.00000294,0.00000941,-0.00000851,0.00000707,0.00000092,-0.00000
 294,-0.00000083,0.00000467,-0.00000032,0.00000164,0.00004032,0.0000923
 0,-0.00002127,0.00002675,-0.00002422,-0.00000286,-0.00012675,-0.000455
 80,-0.00038152,0.00012672,0.00014874,-0.00004944,-0.00065009,-0.002226
 22,-0.00090926,0.04543211,-0.15607930,0.23336853,-0.00000247,-0.000017
 96,-0.00000368,-0.00007701,-0.00005094,0.00003962,-0.00016893,-0.00014
 446,-0.00008248,0.00013525,0.00008035,-0.00015347,-0.00004289,0.000082
 44,0.00001407,-0.00002726,0.00003616,0.00001743,0.00019478,0.00000325,
 0.00008111,-0.00055197,-0.00103088,0.00175483,-0.00011171,-0.00080449,
 0.00021924,-0.00025081,0.00027350,-0.00019616,-0.00006298,0.00024459,-
 0.00015304,-0.00144261,-0.00054278,-0.00012749,0.00007781,0.00005601,-
 0.00016351,-0.00000148,0.00135385,-0.00030281,0.00146795,0.00132501,0.
 00020613,0.00053281,-0.00064164,0.00037978,-0.00117204,-0.00060910,0.0
 0400477,-0.01474498,0.00889751,-0.00586466,-0.30095608,0.09783233,-0.0
 4649797,-0.00004253,-0.00016144,0.00010333,0.00000018,0.00000982,-0.00
 000405,0.00000659,0.00000673,-0.00000049,-0.00000460,0.00000814,-0.000
 00402,0.00001345,-0.00000280,-0.00001191,-0.00000956,0.00000006,0.0000
 1134,0.00001312,0.00000090,-0.00000639,0.00000837,-0.00000208,0.000006
 36,-0.00001648,0.00005758,-0.00004048,-0.00003750,-0.00002354,-0.00001
 289,-0.00001376,-0.00006267,0.00025257,-0.00009066,-0.00015921,-0.0001
 2580,-0.00069873,0.00035353,-0.00028818,0.00077886,-0.00082831,-0.0006
 9901,0.31736247,0.00005201,-0.00005049,-0.00003495,-0.00007519,-0.0000
 1874,-0.00000828,-0.00022620,0.00030414,0.00011726,0.00006196,-0.00028
 534,-0.00002881,-0.00001163,0.00006624,0.00000022,-0.00003637,0.000056
 31,0.00002688,0.00009478,-0.00015714,-0.00007575,0.00046757,0.00025211
 ,-0.00064108,-0.00031671,-0.00160119,-0.00012513,-0.00079472,0.0007280
 8,-0.00005125,0.00003758,0.00012425,0.00057110,0.00034864,-0.00215744,
 -0.00239194,0.00031607,0.00025104,-0.00038738,0.01568423,-0.00074981,0
 .00116335,0.00079702,0.00266105,0.00576025,-0.00059643,-0.00091751,0.0
 0005147,-0.00065555,0.00462061,0.00402829,-0.00894533,0.00671298,-0.00
 028756,0.09978634,-0.08319238,0.02660019,0.00018802,-0.00023277,0.0001
 6440,0.00000203,0.00002738,-0.00002128,0.00001015,0.00002514,0.0000156
 4,-0.00001186,-0.00001969,-0.00000028,0.00002604,-0.00001207,-0.000014
 09,0.00004242,-0.00002669,0.00002677,0.00000823,-0.00001008,-0.0000077
 3,0.00001040,-0.00000424,0.00000482,-0.00003952,-0.00009139,-0.0000491
 0,-0.00004233,0.00008992,0.00002620,0.00093405,-0.00006687,0.00019179,
 -0.00010774,-0.00065807,-0.00048562,-0.00043001,0.00019455,0.00001347,
 -0.00068476,-0.00246550,-0.00234140,-0.10555321,0.07641035,-0.00005510
 ,0.00003392,-0.00012669,0.00008725,0.00008289,0.00010177,0.00020930,0.
 00010005,0.00010578,-0.00012309,-0.00004702,-0.00001358,0.00002706,-0.
 00010591,0.00000475,0.00001073,-0.00003862,-0.00000494,-0.00026789,-0.
 00000321,-0.00009565,-0.00071897,-0.00065279,-0.00023213,0.00080388,0.
 00177952,0.00071250,0.00084130,-0.00151970,-0.00015880,-0.00056844,-0.
 00008435,0.00015618,-0.00145104,-0.00216283,-0.00077549,0.00033951,0.0
 0033454,-0.00034115,-0.02195689,0.00717224,0.00122024,0.00054822,0.005
 68334,-0.00157878,0.00026846,-0.00002078,-0.00101323,0.00341403,0.0041
 9663,0.00032375,0.01869408,-0.00619318,0.00687552,-0.04661322,0.025993
 34,-0.05990519,-0.00014809,-0.00020755,0.00001402,0.00002628,0.0000270
 8,-0.00000681,-0.00003792,-0.00003700,-0.00000254,0.00001828,-0.000001
 66,0.00002498,0.00000132,0.00000768,0.00000050,0.00000010,0.00001996,0
 .00000067,-0.00001230,0.00000318,0.00000310,-0.00002178,0.00000089,-0.
 00000947,0.00003537,-0.00007622,0.00004689,0.00000477,-0.00012283,0.00
 003055,-0.00118031,0.00043905,-0.00017203,-0.00012543,-0.00051153,-0.0
 0026882,0.00085936,-0.00019570,0.00021420,-0.00069397,-0.00241156,-0.0
 0073077,0.04794572,-0.03152012,0.05553606,0.00075859,0.00021390,0.0004
 5773,0.00601640,0.00106843,0.00664870,0.00042465,0.00020099,-0.0000832
 1,0.00001094,0.00006348,-0.00018070,-0.00000944,-0.00001149,0.00006208
 ,-0.00009991,0.00005234,-0.00004480,-0.00005740,-0.00005142,0.00045593
 ,0.00055752,0.00054650,0.00000924,-0.00075119,-0.00067717,0.00099635,0
 .00037384,-0.00017275,-0.00000657,0.00014843,-0.00000919,0.00002834,0.
 00005523,0.00002375,-0.00000697,-0.00001241,0.00001359,-0.00001150,0.0
 0001546,-0.00002189,0.00002302,0.00003805,0.00000054,0.00000966,-0.000
 01636,-0.00000505,0.00001042,-0.00001298,0.00001192,-0.00000017,0.0000
 0948,0.00001927,-0.00006584,0.00004022,-0.00008931,-0.00001324,-0.2297
 2251,-0.04089503,-0.12908903,0.00012998,0.00015209,0.00009966,0.000111
 47,0.00008836,-0.00011957,-0.00010542,-0.00003040,-0.00016101,-0.00000
 428,-0.00000796,-0.00000083,0.00002778,-0.00003676,0.00001418,0.000024
 20,-0.00002065,-0.00001281,0.00003070,0.00000153,0.00000301,-0.0000111
 3,-0.00000577,-0.00002620,0.00002111,-0.00000100,0.00002577,-0.0000022
 1,0.00000767,-0.00000378,-0.00000721,-0.00000169,-0.00000293,-0.000012
 18,0.00000106,0.00000331,0.00000351,-0.00000171,0.00000312,-0.00000278
 ,0.00010504,0.00001768,0.24219619,0.00096495,0.00037233,0.00055637,0.0
 0399606,-0.00032521,0.00425002,-0.00125695,-0.00014185,-0.00093942,0.0
 0028699,-0.00003734,0.00008580,0.00000007,0.00003864,-0.00005928,0.000
 13078,-0.00015771,-0.00012567,0.00046455,-0.00004872,0.00058373,0.0002
 2115,0.00056503,0.00000544,-0.00091611,-0.00058733,0.00041506,-0.00005
 395,0.00024397,0.00010860,-0.00006272,0.00000366,-0.00011885,0.0001147
 3,0.00001189,-0.00023020,-0.00002457,0.00002290,-0.00001619,-0.0000169
 7,-0.00002759,0.00004378,0.00001753,0.00003865,-0.00002391,-0.00001459
 ,0.00000413,0.00000060,-0.00000299,0.00000238,0.00000989,-0.00003786,0
 .00002818,-0.00004177,0.00015711,-0.00011690,0.00000447,-0.04086345,-0
 .05605618,-0.02919784,0.00000355,-0.00004297,-0.00021806,-0.00041235,0
 .00015964,0.00018723,0.00017442,-0.00006803,0.00005545,0.00001226,-0.0
 0000214,0.00002421,-0.00002152,-0.00003909,-0.00001705,-0.00002293,0.0
 0001617,0.00004432,0.00005984,0.00000139,-0.00002974,0.00001605,0.0000
 1457,0.00000497,0.00001877,0.00001975,-0.00000318,-0.00001201,0.000006
 08,-0.00000670,-0.00000127,-0.00000097,-0.00000423,-0.00001035,0.00000
 300,-0.00000002,0.00000780,0.00000133,-0.00000303,0.00006110,0.0001194
 8,0.00003795,0.04477815,0.05426211,-0.00133043,-0.00128216,0.00173958,
 -0.02358159,-0.00451551,-0.01979423,-0.00309666,0.00023657,-0.00052984
 ,0.00046900,-0.00016869,0.00048374,-0.00000279,0.00009764,-0.00012034,
 0.00057024,-0.00057618,0.00002726,0.00060026,0.00053957,0.00103322,-0.
 00071812,0.00001372,-0.00075236,0.00388073,0.00018764,-0.00484014,-0.0
 0070515,0.00025217,-0.00016146,-0.00017450,0.00001072,0.00021921,0.000
 04032,-0.00024020,0.00070145,-0.00006185,0.00001480,-0.00003688,-0.000
 13068,0.00023541,-0.00033497,-0.00010665,-0.00009446,0.00015462,-0.000
 01910,0.00001695,-0.00001311,-0.00003465,-0.00001105,0.00002321,0.0000
 0908,0.00000298,0.00002514,-0.00007899,0.00005499,0.00004740,-0.126518
 14,-0.02833216,-0.13113649,0.00023524,-0.00028385,0.00035441,0.0007807
 9,0.00075454,0.00003885,0.00005143,0.00016473,-0.00003358,0.00003956,0
 .00002004,0.00002050,-0.00000524,0.00000437,-0.00000972,-0.00008476,0.
 00008171,0.00005072,0.00000995,0.00003058,-0.00004795,-0.00000202,-0.0
 0001334,-0.00000975,-0.00007727,0.00002027,-0.00005157,0.00002713,-0.0
 0000765,-0.00000189,-0.00002132,-0.00000171,0.00001404,-0.00000513,-0.
 00000520,0.00000557,-0.00001452,-0.00001763,0.00001757,0.00003609,-0.0
 0002309,-0.00009509,0.13687790,0.02947672,0.14518940,-0.00012706,0.000
 06043,0.00203465,-0.00400565,-0.00586402,0.00073598,-0.00027668,-0.002
 20392,0.00024731,0.00019732,0.00065518,-0.00043055,-0.00018873,0.00014
 065,0.00002846,-0.00004991,-0.00002419,0.00013438,0.00007331,0.0002849
 3,0.00004808,-0.00016725,-0.00006334,0.00014780,-0.00000211,0.00110718
 ,-0.00027781,-0.00004910,-0.00010667,-0.00033514,0.00008502,0.00006379
 ,0.00000071,0.00004183,0.00004606,-0.00001900,-0.00000038,-0.00001736,
 0.00002651,0.00011693,0.00009824,-0.00012326,-0.00001330,-0.00004333,0
 .00001877,0.00004095,-0.00000681,0.00000561,0.00000410,-0.00001806,-0.
 00000204,0.00003471,-0.00004911,0.00014079,-0.00027376,0.00021383,0.00
 004632,-0.07004936,-0.07487823,0.00890706,0.00024214,-0.00067432,0.000
 14752,0.00035894,0.00028530,-0.00002693,0.00002081,-0.00022883,-0.0000
 3875,0.00004793,-0.00001051,-0.00003234,-0.00003293,0.00005413,0.00009
 125,0.00000450,0.00002408,-0.00003333,-0.00004909,-0.00002084,-0.00000
 391,-0.00002573,-0.00001830,-0.00000531,0.00000933,0.00001635,-0.00000
 156,0.00002341,-0.00001629,0.00001488,0.00001016,-0.00000254,0.0000063
 9,0.00002423,-0.00000562,-0.00000476,-0.00001958,-0.00000977,0.0000047
 3,-0.00009384,-0.00040797,-0.00018906,-0.00530478,-0.02267694,0.004773
 39,0.07125659,0.00006202,0.00088626,0.00134688,-0.00057811,-0.00327230
 ,-0.00062872,0.00097799,-0.00002424,-0.00088506,0.00013355,0.00064999,
 -0.00011595,-0.00013604,0.00005664,0.00003787,0.00003422,-0.00004297,0
 .00002438,-0.00014897,0.00013631,0.00002428,0.00042694,0.00061119,-0.0
 0023053,-0.00066728,-0.00101443,-0.00059793,0.00001127,0.00043486,0.00
 014801,-0.00008111,-0.00003023,-0.00000668,0.00006353,-0.00003193,0.00
 001606,-0.00000094,0.00002288,-0.00002147,-0.00001626,-0.00002582,0.00
 006321,0.00002532,0.00002372,0.00001405,-0.00003213,0.00000203,0.00000
 613,0.00000459,0.00002195,-0.00001222,0.00001691,-0.00000205,-0.000083
 66,0.00002827,-0.00020828,-0.00007637,-0.07597314,-0.29971711,0.032695
 47,-0.00023483,-0.00012980,-0.00004029,0.00008864,0.00000903,-0.000115
 03,-0.00002081,0.00030514,-0.00015952,0.00000179,-0.00000358,0.0000057
 7,0.00001337,-0.00000063,0.00004079,-0.00000712,0.00001050,-0.00000808
 ,-0.00001829,0.00001860,-0.00000473,0.00002318,0.00001381,-0.00000627,
 0.00000348,-0.00000695,0.00000557,-0.00001116,0.00000908,-0.00001163,-
 0.00000645,-0.00000211,-0.00000512,-0.00000779,0.00000338,0.00000470,0
 .00001164,0.00002070,-0.00000008,-0.00018439,0.00022319,0.00004694,0.0
 0083233,-0.00222034,0.00093193,0.08233877,0.31651629,0.00102597,0.0000
 0222,-0.00640558,0.00882469,0.02720552,-0.00527610,0.00051836,0.003421
 25,0.00107458,-0.00053210,-0.00066444,0.00071855,0.00026186,-0.0003545
 7,-0.00000738,0.00005487,0.00003398,-0.00003591,-0.00041001,-0.0004938
 6,-0.00021487,-0.00012245,-0.00057552,0.00046895,0.00191821,0.00256437
 ,0.00139515,-0.00021489,-0.00053987,-0.00008267,0.00017170,0.00001834,
 0.00000653,-0.00032736,-0.00013359,-0.00003646,0.00002765,-0.00001085,
 0.00002512,0.00003825,-0.00008849,0.00004832,-0.00001469,0.00000672,-0
 .00002293,0.00001908,0.00000374,-0.00001671,0.00004688,-0.00000310,-0.
 00002898,0.00003778,-0.00008093,0.00007971,-0.00019578,0.00016610,-0.0
 0011833,0.00756370,0.02801205,-0.04820207,0.00089255,0.00179769,-0.000
 08585,0.00010768,-0.00008904,0.00003574,-0.00015936,-0.00016138,-0.000
 00926,-0.00004791,0.00004109,0.00000864,-0.00000455,0.00006026,-0.0000
 8278,-0.00002419,-0.00002610,-0.00000191,-0.00002871,-0.00001231,-0.00
 001492,-0.00002399,-0.00001153,0.00000130,-0.00001766,-0.00004737,-0.0
 0001062,0.00000407,-0.00000388,0.00000587,0.00000902,0.00000488,-0.000
 00117,0.00001697,-0.00000106,0.00000030,0.00001425,0.00003211,-0.00000
 945,-0.00032176,-0.00021238,0.00014425,-0.00338235,-0.01714911,0.00247
 322,-0.01218346,-0.03502277,0.05391162,-0.00009006,0.00048227,-0.00043
 408,-0.00419453,0.00349793,0.00052744,0.00016327,-0.00076847,0.0008788
 9,-0.00002477,0.00005252,0.00005211,0.00003328,0.00011892,-0.00019075,
 0.00018300,-0.00020930,-0.00004797,0.00023183,0.00021564,0.00047498,0.
 00018654,-0.00000977,0.00000337,-0.00007767,-0.00019942,-0.00075041,0.
 00021117,-0.00027886,-0.00001525,0.00008453,-0.00000910,0.00005139,-0.
 00003588,0.00000407,0.00001186,0.00001007,-0.00000822,0.00001149,0.000
 01690,0.00005190,-0.00001369,-0.00001603,0.00001743,-0.00000695,0.0000
 1005,0.00000159,-0.00001021,0.00000543,-0.00001043,0.00000838,-0.00002
 752,0.00000251,0.00004987,0.00005921,0.00004697,0.00003542,-0.19992893
 ,0.12862352,0.05556308,0.00021272,-0.00023787,-0.00013568,-0.00003778,
 0.00009543,0.00006766,0.00004086,-0.00055327,0.00033925,-0.00000176,-0
 .00000239,0.00001684,-0.00007276,0.00002716,0.00000959,-0.00002947,0.0
 0003092,0.00002575,0.00000188,0.00002031,-0.00001123,-0.00000270,-0.00
 000011,0.00001207,0.00000515,-0.00000415,-0.00000120,0.00000175,-0.000
 00153,0.00000565,0.00000467,-0.00000168,-0.00000064,0.00000564,0.00000
 070,-0.00000205,0.00000003,0.00000101,-0.00000363,0.00003203,-0.000037
 05,0.00001079,-0.01486155,0.01492170,0.00836847,0.00813703,-0.00697300
 ,-0.00354232,0.20976436,-0.00058814,0.00099618,0.00003410,-0.00534506,
 0.00270685,0.00235458,-0.00018904,-0.00098805,0.00022705,0.00027309,0.
 00089433,-0.00025667,-0.00015934,0.00013211,-0.00006731,0.00000887,-0.
 00006697,-0.00001226,-0.00025498,0.00019836,0.00020635,-0.00030839,-0.
 00019456,0.00000718,0.00068929,0.00023332,-0.00012728,-0.00043389,0.00
 008144,-0.00003891,0.00002290,0.00002508,-0.00008876,0.00003324,0.0000
 6497,-0.00006141,-0.00000988,-0.00001997,0.00002211,0.00002588,0.00009
 776,-0.00011965,-0.00005971,-0.00000019,0.00000121,0.00003247,0.000007
 80,-0.00001940,-0.00000604,-0.00002479,0.00003433,-0.00005725,0.000029
 34,0.00011311,0.00005966,0.00011129,0.00008298,0.12899192,-0.15446488,
 -0.04672088,0.00010320,0.00002302,-0.00012266,-0.00005406,-0.00001347,
 0.00001874,0.00019123,-0.00004161,0.00009619,0.00005521,-0.00001322,-0
 .00000825,-0.00003432,0.00003840,0.00005697,0.00000025,0.00002096,-0.0
 0000883,-0.00002399,0.00002917,-0.00000171,-0.00002110,-0.00001752,0.0
 0001033,0.00000014,0.00003280,-0.00001744,0.00001154,-0.00001244,0.000
 01120,0.00000587,-0.00000246,0.00000336,0.00000612,-0.00000555,-0.0000
 0672,-0.00001121,-0.00003076,-0.00000342,0.00013705,-0.00014941,-0.000
 04664,-0.00614170,0.00393707,0.00242480,0.02195803,-0.01324281,-0.0076
 8818,-0.13890787,0.15962838,-0.00064041,-0.00127644,0.00139256,0.02277
 493,-0.01890054,-0.01159979,-0.00081266,0.00242726,-0.00614707,0.00079
 556,-0.00058917,-0.00049515,-0.00038061,-0.00034321,0.00062174,0.00000
 037,-0.00022769,0.00012750,0.00055325,-0.00014534,0.00052953,-0.000491
 41,0.00017421,0.00054310,0.00260738,-0.00194874,0.00024435,-0.00031133
 ,0.00065923,0.00063358,-0.00057266,-0.00003405,-0.00027334,-0.00004691
 ,0.00007038,-0.00024514,0.00003082,0.00002972,0.00000271,0.00002367,-0
 .00002642,0.00005943,-0.00001403,0.00004004,-0.00003501,0.00001343,0.0
 0001294,-0.00001342,0.00003693,-0.00001619,-0.00000737,-0.00002859,-0.
 00001185,0.00003823,0.00004106,0.00002924,0.00000672,0.05382841,-0.045
 26138,-0.06292521,-0.00037171,0.00001985,0.00009771,-0.00000610,0.0001
 2262,-0.00003393,0.00006728,0.00082720,0.00015433,0.00006747,0.0000183
 3,-0.00003442,0.00034897,-0.00020627,0.00005535,0.00001701,0.00001977,
 0.00000582,0.00008736,-0.00006470,-0.00000301,0.00009565,0.00001923,0.
 00010713,0.00002985,0.00000228,-0.00002721,-0.00001153,-0.00000556,-0.
 00000487,0.00001156,0.00000038,-0.00000256,0.00001173,0.00000267,-0.00
 000465,0.00000364,0.00001557,-0.00001229,-0.00001214,-0.00005490,0.000
 01546,-0.01253458,0.01228965,0.00535024,-0.00385338,0.00262008,0.00026
 611,-0.06135831,0.04971180,0.07161284\\0.00080798,0.00015579,-0.002027
 57,0.00067879,0.00121139,-0.00003588,0.01151421,0.02888304,0.01484056,
 0.00623293,-0.00443756,-0.00083501,0.00924246,-0.01446932,-0.00100473,
 -0.00034512,-0.00440346,-0.00306645,-0.02361766,-0.00597055,-0.0098113
 8,-0.00198234,0.00530772,-0.01004861,0.00800392,0.02898768,0.00702912,
 0.01182921,-0.02003462,0.00504185,-0.00194563,-0.00470978,-0.00226206,
 -0.01613472,-0.00407756,-0.00595780,0.00188763,-0.00261962,0.00208626,
 -0.00080998,-0.00044399,0.00319467,0.00142695,0.00102571,-0.00126523,0
 .00010725,0.00005524,0.00003430,0.00088785,0.00028635,-0.00073802,0.00
 066428,0.00001624,0.00060015,0.00029455,0.00224729,-0.00135096,-0.0020
 1880,-0.00248934,0.00171653,0.00012969,0.00033125,-0.00000820,-0.00058
 664,-0.00015845,0.00015536,0.00010505,-0.00074140,0.00025532,-0.000669
 50,0.00158672,-0.00008036,-0.00385803,0.00204105,0.00065548,-0.0008826
 0,0.00027043,0.00026745,-0.00158056,-0.00029579,-0.00034951,0.00061850
 ,0.00028111,0.00066187,0.00026986,-0.00160252,0.00032231,-0.00047385,-
 0.00013367,-0.00023517,0.00019781,-0.00003149,-0.00021139,0.00012577,-
 0.00010800,-0.00013113,0.00069964,-0.00003730,-0.00078239,-0.00192812,
 -0.00357807,0.00375385,-0.00026872,-0.00006755,-0.00089848,0.00096036,
 -0.00237573,0.00132071,0.00041756,0.00009872,-0.00083548\\\@

 Writing a WFNX file to "01_lig_b.wfx"


 MISERY NO LONGER LOVES COMPANY.  NOWADAYS IT INSISTS ON IT.

                                              -- BAKER'S LAW
 Job cpu time:       0 days  2 hours 22 minutes  3.0 seconds.
 Elapsed time:       0 days  0 hours 19 minutes  6.0 seconds.
 File lengths (MBytes):  RWF=    530 Int=      0 D2E=      0 Chk=     10 Scr=      1
 Normal termination of Gaussian 16 at Thu Nov  3 08:23:25 2022.
