 Entering Gaussian System, Link 0=g16
 Initial command:
 /software/gaussian/G16-A.03/avx/g16/l1.exe "/scratch/lcmd/1361332.slurm/Gau-144531.inp" -scrdir="/scratch/lcmd/1361332.slurm/"
 Entering Link 1 = /software/gaussian/G16-A.03/avx/g16/l1.exe PID=    144532.
  
 Copyright (c) 1988,1990,1992,1993,1995,1998,2003,2009,2016,
            Gaussian, Inc.  All Rights Reserved.
  
 This is part of the Gaussian(R) 16 program.  It is based on
 the Gaussian(R) 09 system (copyright 2009, Gaussian, Inc.),
 the Gaussian(R) 03 system (copyright 2003, Gaussian, Inc.),
 the Gaussian(R) 98 system (copyright 1998, Gaussian, Inc.),
 the Gaussian(R) 94 system (copyright 1995, Gaussian, Inc.),
 the Gaussian 92(TM) system (copyright 1992, Gaussian, Inc.),
 the Gaussian 90(TM) system (copyright 1990, Gaussian, Inc.),
 the Gaussian 88(TM) system (copyright 1988, Gaussian, Inc.),
 the Gaussian 86(TM) system (copyright 1986, Carnegie Mellon
 University), and the Gaussian 82(TM) system (copyright 1983,
 Carnegie Mellon University). Gaussian is a federally registered
 trademark of Gaussian, Inc.
  
 This software contains proprietary and confidential information,
 including trade secrets, belonging to Gaussian, Inc.
  
 This software is provided under written license and may be
 used, copied, transmitted, or stored only in accord with that
 written license.
  
 The following legend is applicable only to US Government
 contracts under FAR:
  
                    RESTRICTED RIGHTS LEGEND
  
 Use, reproduction and disclosure by the US Government is
 subject to restrictions as set forth in subparagraphs (a)
 and (c) of the Commercial Computer Software - Restricted
 Rights clause in FAR 52.227-19.
  
 Gaussian, Inc.
 340 Quinnipiac St., Bldg. 40, Wallingford CT 06492
  
  
 ---------------------------------------------------------------
 Warning -- This program may not be used in any manner that
 competes with the business of Gaussian, Inc. or will provide
 assistance to any competitor of Gaussian, Inc.  The licensee
 of this program is prohibited from giving any competitor of
 Gaussian, Inc. access to this program.  By using this program,
 the user acknowledges that Gaussian, Inc. is engaged in the
 business of creating and licensing software in the field of
 computational chemistry and represents and warrants to the
 licensee that it is not a competitor of Gaussian, Inc. and that
 it will not use this program in any manner prohibited above.
 ---------------------------------------------------------------
  

 Cite this work as:
 Gaussian 16, Revision A.03,
 M. J. Frisch, G. W. Trucks, H. B. Schlegel, G. E. Scuseria, 
 M. A. Robb, J. R. Cheeseman, G. Scalmani, V. Barone, 
 G. A. Petersson, H. Nakatsuji, X. Li, M. Caricato, A. V. Marenich, 
 J. Bloino, B. G. Janesko, R. Gomperts, B. Mennucci, H. P. Hratchian, 
 J. V. Ortiz, A. F. Izmaylov, J. L. Sonnenberg, D. Williams-Young, 
 F. Ding, F. Lipparini, F. Egidi, J. Goings, B. Peng, A. Petrone, 
 T. Henderson, D. Ranasinghe, V. G. Zakrzewski, J. Gao, N. Rega, 
 G. Zheng, W. Liang, M. Hada, M. Ehara, K. Toyota, R. Fukuda, 
 J. Hasegawa, M. Ishida, T. Nakajima, Y. Honda, O. Kitao, H. Nakai, 
 T. Vreven, K. Throssell, J. A. Montgomery, Jr., J. E. Peralta, 
 F. Ogliaro, M. J. Bearpark, J. J. Heyd, E. N. Brothers, K. N. Kudin, 
 V. N. Staroverov, T. A. Keith, R. Kobayashi, J. Normand, 
 K. Raghavachari, A. P. Rendell, J. C. Burant, S. S. Iyengar, 
 J. Tomasi, M. Cossi, J. M. Millam, M. Klene, C. Adamo, R. Cammi, 
 J. W. Ochterski, R. L. Martin, K. Morokuma, O. Farkas, 
 J. B. Foresman, and D. J. Fox, Gaussian, Inc., Wallingford CT, 2016.
 
 ******************************************
 Gaussian 16:  ES64L-G16RevA.03 25-Dec-2016
                 3-Nov-2022 
 ******************************************
 %nprocs=8
 Will use up to    8 processors via shared memory.
 %mem=32000MB
 %chk=02_lig_b.chk
 ----------------------------------------------------------------------
 #p pop=(regular,nbo,savenbos) freq=noraman def2svp empiricaldispersion
 =gd3bj output=wfx pbe1pbe
 ----------------------------------------------------------------------
 1/10=4,30=1,38=1/1,3;
 2/12=2,17=6,18=5,40=1/2;
 3/5=43,7=101,11=2,25=1,30=1,71=2,74=-13,124=41,140=1/1,2,3;
 4//1;
 5/5=2,38=5,98=1/2;
 8/6=4,10=90,11=11/1;
 11/6=1,8=1,9=11,15=111,16=1/1,2,10;
 10/6=1/2;
 6/28=1,40=1,73=1/1,7;
 7/8=1,10=1,25=1/1,2,3,16;
 1/10=4,30=1/3;
 99/6=200/99;
 Leave Link    1 at Thu Nov  3 08:04:19 2022, MaxMem=  4194304000 cpu:               0.4 elap:               0.1
 (Enter /software/gaussian/G16-A.03/avx/g16/l101.exe)
 --------
 02_lig_b
 --------
 Symbolic Z-matrix:
 Charge =  0 Multiplicity = 1
 C                     0.71705  -2.69877   1.04511 
 C                    -0.00011  -1.82132   0.00005 
 C                     1.02327  -0.99493  -0.72851 
 N                     1.03901   0.26551  -0.94739 
 C                     2.18204   0.54422  -1.81675 
 C                     3.02815  -0.71999  -1.68504 
 H                     3.41039  -1.09086  -2.64435 
 O                     2.02398  -1.6978   -1.24815 
 C                     4.12115  -0.68551  -0.65096 
 C                     4.09947   0.22776   0.41092 
 C                     5.0937    0.17963   1.38701 
 C                     6.1116   -0.76958   1.31354 
 C                     6.13994  -1.67685   0.25465 
 C                     5.14836  -1.63287  -0.72124 
 N                    -1.03905   0.26559   0.94751 
 C                    -1.02334  -0.99488   0.72875 
 O                    -2.024    -1.69769   1.24854 
 C                    -3.02819  -0.71981   1.68522 
 H                    -3.41057  -1.09059   2.64451 
 C                    -2.18203   0.54435   1.81694 
 C                    -4.12104  -0.68543   0.65097 
 C                    -5.14815  -1.63293   0.72111 
 C                    -6.13959  -1.67704  -0.25491 
 C                    -6.1112   -0.76976  -1.31381 
 C                    -5.09341   0.17957  -1.38714 
 C                    -4.09931   0.22782  -0.41091 
 C                    -0.71745  -2.6984   -1.04518 
 H                     1.25498  -2.07583   1.77465 
 H                     1.44395  -3.3501    0.54354 
 H                    -0.01901  -3.31565   1.57721 
 H                     2.67843   1.46751  -1.49047 
 H                     1.81296   0.69606  -2.84419 
 H                     3.32345   0.99873   0.48029 
 H                     5.07263   0.90124   2.2069 
 H                     6.89095  -0.79768   2.07892 
 H                     6.94043  -2.41723   0.18643 
 H                     5.16974  -2.34414  -1.55196 
 H                    -1.81289   0.69609   2.84437 
 H                    -2.67836   1.46768   1.49067 
 H                    -5.16956  -2.34418   1.55184 
 H                    -6.93999  -2.41751  -0.18681 
 H                    -6.89044  -0.79796  -2.07929 
 H                    -5.0723    0.90119  -2.20703 
 H                    -3.32336   0.99887  -0.4802 
 H                     0.01845  -3.31538  -1.57737 
 H                    -1.25522  -2.0752   -1.77463 
 H                    -1.44453  -3.34964  -0.54375 
 
 ITRead=  0  0  0  0  0  0  0  0  0  0  0  0  0  0  0  0  0  0  0  0
 ITRead=  0  0  0  0  0  0  0  0  0  0  0  0  0  0  0  0  0  0  0  0
 ITRead=  0  0  0  0  0  0  0
 MicOpt= -1 -1 -1 -1 -1 -1 -1 -1 -1 -1 -1 -1 -1 -1 -1 -1 -1 -1 -1 -1
 MicOpt= -1 -1 -1 -1 -1 -1 -1 -1 -1 -1 -1 -1 -1 -1 -1 -1 -1 -1 -1 -1
 MicOpt= -1 -1 -1 -1 -1 -1 -1
 NAtoms=     47 NQM=       47 NQMF=       0 NMMI=      0 NMMIF=      0
                NMic=       0 NMicF=      0.
                    Isotopes and Nuclear Properties:
 (Nuclear quadrupole moments (NQMom) in fm**2, nuclear magnetic moments (NMagM)
  in nuclear magnetons)

  Atom         1           2           3           4           5           6           7           8           9          10
 IAtWgt=          12          12          12          14          12          12           1          16          12          12
 AtmWgt=  12.0000000  12.0000000  12.0000000  14.0030740  12.0000000  12.0000000   1.0078250  15.9949146  12.0000000  12.0000000
 NucSpn=           0           0           0           2           0           0           1           0           0           0
 AtZEff=  -0.0000000  -0.0000000  -0.0000000  -0.0000000  -0.0000000  -0.0000000  -0.0000000  -0.0000000  -0.0000000  -0.0000000
 NQMom=    0.0000000   0.0000000   0.0000000   2.0440000   0.0000000   0.0000000   0.0000000   0.0000000   0.0000000   0.0000000
 NMagM=    0.0000000   0.0000000   0.0000000   0.4037610   0.0000000   0.0000000   2.7928460   0.0000000   0.0000000   0.0000000
 AtZNuc=   6.0000000   6.0000000   6.0000000   7.0000000   6.0000000   6.0000000   1.0000000   8.0000000   6.0000000   6.0000000

  Atom        11          12          13          14          15          16          17          18          19          20
 IAtWgt=          12          12          12          12          14          12          16          12           1          12
 AtmWgt=  12.0000000  12.0000000  12.0000000  12.0000000  14.0030740  12.0000000  15.9949146  12.0000000   1.0078250  12.0000000
 NucSpn=           0           0           0           0           2           0           0           0           1           0
 AtZEff=  -0.0000000  -0.0000000  -0.0000000  -0.0000000  -0.0000000  -0.0000000  -0.0000000  -0.0000000  -0.0000000  -0.0000000
 NQMom=    0.0000000   0.0000000   0.0000000   0.0000000   2.0440000   0.0000000   0.0000000   0.0000000   0.0000000   0.0000000
 NMagM=    0.0000000   0.0000000   0.0000000   0.0000000   0.4037610   0.0000000   0.0000000   0.0000000   2.7928460   0.0000000
 AtZNuc=   6.0000000   6.0000000   6.0000000   6.0000000   7.0000000   6.0000000   8.0000000   6.0000000   1.0000000   6.0000000

  Atom        21          22          23          24          25          26          27          28          29          30
 IAtWgt=          12          12          12          12          12          12          12           1           1           1
 AtmWgt=  12.0000000  12.0000000  12.0000000  12.0000000  12.0000000  12.0000000  12.0000000   1.0078250   1.0078250   1.0078250
 NucSpn=           0           0           0           0           0           0           0           1           1           1
 AtZEff=  -0.0000000  -0.0000000  -0.0000000  -0.0000000  -0.0000000  -0.0000000  -0.0000000  -0.0000000  -0.0000000  -0.0000000
 NQMom=    0.0000000   0.0000000   0.0000000   0.0000000   0.0000000   0.0000000   0.0000000   0.0000000   0.0000000   0.0000000
 NMagM=    0.0000000   0.0000000   0.0000000   0.0000000   0.0000000   0.0000000   0.0000000   2.7928460   2.7928460   2.7928460
 AtZNuc=   6.0000000   6.0000000   6.0000000   6.0000000   6.0000000   6.0000000   6.0000000   1.0000000   1.0000000   1.0000000

  Atom        31          32          33          34          35          36          37          38          39          40
 IAtWgt=           1           1           1           1           1           1           1           1           1           1
 AtmWgt=   1.0078250   1.0078250   1.0078250   1.0078250   1.0078250   1.0078250   1.0078250   1.0078250   1.0078250   1.0078250
 NucSpn=           1           1           1           1           1           1           1           1           1           1
 AtZEff=  -0.0000000  -0.0000000  -0.0000000  -0.0000000  -0.0000000  -0.0000000  -0.0000000  -0.0000000  -0.0000000  -0.0000000
 NQMom=    0.0000000   0.0000000   0.0000000   0.0000000   0.0000000   0.0000000   0.0000000   0.0000000   0.0000000   0.0000000
 NMagM=    2.7928460   2.7928460   2.7928460   2.7928460   2.7928460   2.7928460   2.7928460   2.7928460   2.7928460   2.7928460
 AtZNuc=   1.0000000   1.0000000   1.0000000   1.0000000   1.0000000   1.0000000   1.0000000   1.0000000   1.0000000   1.0000000

  Atom        41          42          43          44          45          46          47
 IAtWgt=           1           1           1           1           1           1           1
 AtmWgt=   1.0078250   1.0078250   1.0078250   1.0078250   1.0078250   1.0078250   1.0078250
 NucSpn=           1           1           1           1           1           1           1
 AtZEff=  -0.0000000  -0.0000000  -0.0000000  -0.0000000  -0.0000000  -0.0000000  -0.0000000
 NQMom=    0.0000000   0.0000000   0.0000000   0.0000000   0.0000000   0.0000000   0.0000000
 NMagM=    2.7928460   2.7928460   2.7928460   2.7928460   2.7928460   2.7928460   2.7928460
 AtZNuc=   1.0000000   1.0000000   1.0000000   1.0000000   1.0000000   1.0000000   1.0000000
 Leave Link  101 at Thu Nov  3 08:04:19 2022, MaxMem=  4194304000 cpu:               1.0 elap:               0.1
 (Enter /software/gaussian/G16-A.03/avx/g16/l103.exe)

 GradGradGradGradGradGradGradGradGradGradGradGradGradGradGradGradGradGrad
 Berny optimization.
 Initialization pass.
 Trust Radius=3.00D-01 FncErr=1.00D-07 GrdErr=1.00D-07 EigMax=2.50D+02 EigMin=1.00D-04
 Number of steps in this run=      2 maximum allowed number of steps=      2.
 GradGradGradGradGradGradGradGradGradGradGradGradGradGradGradGradGradGrad

 Leave Link  103 at Thu Nov  3 08:04:19 2022, MaxMem=  4194304000 cpu:               0.2 elap:               0.0
 (Enter /software/gaussian/G16-A.03/avx/g16/l202.exe)
                          Input orientation:                          
 ---------------------------------------------------------------------
 Center     Atomic      Atomic             Coordinates (Angstroms)
 Number     Number       Type             X           Y           Z
 ---------------------------------------------------------------------
      1          6           0        0.717050   -2.698770    1.045110
      2          6           0       -0.000110   -1.821320    0.000050
      3          6           0        1.023270   -0.994930   -0.728510
      4          7           0        1.039010    0.265510   -0.947390
      5          6           0        2.182040    0.544220   -1.816750
      6          6           0        3.028150   -0.719990   -1.685040
      7          1           0        3.410390   -1.090860   -2.644350
      8          8           0        2.023980   -1.697800   -1.248150
      9          6           0        4.121150   -0.685510   -0.650960
     10          6           0        4.099470    0.227760    0.410920
     11          6           0        5.093700    0.179630    1.387010
     12          6           0        6.111600   -0.769580    1.313540
     13          6           0        6.139940   -1.676850    0.254650
     14          6           0        5.148360   -1.632870   -0.721240
     15          7           0       -1.039050    0.265590    0.947510
     16          6           0       -1.023340   -0.994880    0.728750
     17          8           0       -2.024000   -1.697690    1.248540
     18          6           0       -3.028190   -0.719810    1.685220
     19          1           0       -3.410570   -1.090590    2.644510
     20          6           0       -2.182030    0.544350    1.816940
     21          6           0       -4.121040   -0.685430    0.650970
     22          6           0       -5.148150   -1.632930    0.721110
     23          6           0       -6.139590   -1.677040   -0.254910
     24          6           0       -6.111200   -0.769760   -1.313810
     25          6           0       -5.093410    0.179570   -1.387140
     26          6           0       -4.099310    0.227820   -0.410910
     27          6           0       -0.717450   -2.698400   -1.045180
     28          1           0        1.254980   -2.075830    1.774650
     29          1           0        1.443950   -3.350100    0.543540
     30          1           0       -0.019010   -3.315650    1.577210
     31          1           0        2.678430    1.467510   -1.490470
     32          1           0        1.812960    0.696060   -2.844190
     33          1           0        3.323450    0.998730    0.480290
     34          1           0        5.072630    0.901240    2.206900
     35          1           0        6.890950   -0.797680    2.078920
     36          1           0        6.940430   -2.417230    0.186430
     37          1           0        5.169740   -2.344140   -1.551960
     38          1           0       -1.812890    0.696090    2.844370
     39          1           0       -2.678360    1.467680    1.490670
     40          1           0       -5.169560   -2.344180    1.551840
     41          1           0       -6.939990   -2.417510   -0.186810
     42          1           0       -6.890440   -0.797960   -2.079290
     43          1           0       -5.072300    0.901190   -2.207030
     44          1           0       -3.323360    0.998870   -0.480200
     45          1           0        0.018450   -3.315380   -1.577370
     46          1           0       -1.255220   -2.075200   -1.774630
     47          1           0       -1.444530   -3.349640   -0.543750
 ---------------------------------------------------------------------
                    Distance matrix (angstroms):
                    1          2          3          4          5
     1  C    0.000000
     2  C    1.541554   0.000000
     3  C    2.478421   1.503671   0.000000
     4  N    3.586178   2.516401   1.279400   0.000000
     5  C    4.566555   3.695716   2.212690   1.462868   0.000000
     6  C    4.087844   3.636319   2.238322   2.339234   1.526917
     7  H    4.842682   4.376978   3.062350   3.216031   2.206185
     8  O    2.822950   2.381218   1.328711   2.217027   2.318392
     9  C    4.303227   4.324195   3.114260   3.239120   2.575160
    10  C    4.517471   4.601532   3.500897   3.348559   2.956214
    11  C    5.249490   5.645738   4.735337   4.679456   4.344510
    12  C    5.735416   6.339118   5.487427   5.649282   5.192902
    13  C    5.574664   6.147024   5.254706   5.589020   4.988870
    14  C    4.888010   5.202165   4.174133   4.532301   3.839130
    15  N    3.446860   2.516400   2.941278   2.812291   4.253726
    16  C    2.456070   1.503664   2.512413   2.941312   4.372969
    17  O    2.925218   2.381206   3.699791   4.249505   5.666828
    18  C    4.284022   3.636261   4.723993   4.944048   6.403754
    19  H    4.709731   4.377028   5.571836   5.877033   7.338442
    20  C    4.417942   3.695708   4.372945   4.253748   5.678804
    21  C    5.255093   4.323888   5.335043   5.484994   6.879716
    22  C    5.970055   5.201705   6.371410   6.683481   8.056823
    23  C    7.053191   6.146465   7.210835   7.468958   8.753449
    24  C    7.477338   6.338567   7.161979   7.234055   8.411737
    25  C    6.925469   5.645313   6.263148   6.148767   7.297240
    26  C    5.820846   4.601228   5.276060   5.166388   6.444521
    27  C    2.535173   1.541542   2.456053   3.446662   4.417799
    28  H    1.099842   2.188431   2.736393   3.596946   4.541173
    29  H    1.097354   2.172063   2.709596   3.931855   4.613185
    30  H    1.097932   2.172743   3.433429   4.507518   5.591259
    31  H    5.256811   4.495846   3.063290   2.104148   1.097873
    32  H    5.277551   4.208815   2.821198   2.093376   1.102229
    33  H    4.558931   4.385130   3.275165   2.791872   2.604955
    34  H    5.768960   6.165648   5.348776   5.159824   4.967166
    35  H    6.542167   7.270230   6.507706   6.673389   6.257058
    36  H    6.288645   6.968568   6.154091   6.580988   5.951907
    37  H    5.166912   5.423046   4.437528   4.923282   4.164023
    38  H    4.600327   4.208762   4.865062   4.764050   6.140730
    39  H    5.393203   4.495831   4.969031   4.605235   5.951075
    40  H    5.919011   5.422605   6.735846   7.183521   8.586983
    41  H    7.760605   6.967948   8.107446   8.452309   9.728308
    42  H    8.440904   7.269633   8.030580   8.080120   9.174981
    43  H    7.553324   6.165255   6.552653   6.272072   7.273596
    44  H    5.685422   4.384986   4.788537   4.448186   5.683529
    45  H    2.783101   2.172743   2.667342   3.776399   4.431133
    46  H    3.497088   2.188434   2.729994   3.380346   4.321793
    47  H    2.760532   2.172057   3.415967   4.404566   5.471260
                    6          7          8          9         10
     6  C    0.000000
     7  H    1.097236   0.000000
     8  O    1.468109   2.059098   0.000000
     9  C    1.505045   2.154784   2.404057   0.000000
    10  C    2.537519   3.398274   3.281456   1.400757   0.000000
    11  C    3.809633   4.549675   4.460044   2.418190   1.394117
    12  C    4.301349   4.802567   4.912483   2.797895   2.420346
    13  C    3.789619   4.024677   4.381777   2.424541   2.795618
    14  C    2.501510   2.648144   3.169164   1.399139   2.417416
    15  N    4.944067   5.876983   4.249468   5.485195   5.166599
    16  C    4.724036   5.571802   3.699782   5.335268   5.276272
    17  O    5.923344   6.712334   4.756007   6.511181   6.473473
    18  C    6.930938   7.767765   5.923305   7.521434   7.302415
    19  H    7.767848   8.631195   6.712365   8.231101   7.945292
    20  C    6.403780   7.338405   5.666792   6.879910   6.444716
    21  C    7.521240   8.230793   6.510977   8.344382   8.274559
    22  C    8.571750   9.212425   7.437852   9.418073   9.438054
    23  C    9.327844   9.861802   8.223797  10.316141  10.435993
    24  C    9.147022   9.619466   8.188206  10.254143  10.403246
    25  C    8.176655   8.689602   7.362138   9.284312   9.367197
    26  C    7.302221   7.944984   6.473304   8.274525   8.239866
    27  C    4.284046   4.709628   2.925378   5.255396   5.821113
    28  H    4.117267   5.014331   3.141908   4.003936   3.906073
    29  H    3.793908   4.374208   2.505331   3.961599   4.457629
    30  H    5.163808   5.876397   3.843684   5.387328   5.556785
    31  H    2.223807   2.900424   3.241329   2.724282   2.677988
    32  H    2.196705   2.405161   2.884864   3.470841   4.005393
    33  H    2.780262   3.759963   3.456501   2.180073   1.096090
    34  H    4.685668   5.501466   5.290241   3.404476   2.150851
    35  H    5.393946   5.874481   5.963808   3.890581   3.409708
    36  H    4.657141   4.715268   5.171758   3.412978   3.888113
    37  H    2.691093   2.420607   3.225812   2.159258   3.407792
    38  H    6.779123   7.784722   6.099262   7.024171   6.410695
    39  H    6.887328   7.792137   6.295506   7.446888   6.974399
    40  H    8.962022   9.632983   7.746275   9.691275   9.686666
    41  H   10.222039  10.720535   9.055230  11.205538  11.367692
    42  H    9.926729  10.320474   8.998188  11.104408  11.315095
    43  H    8.277559   8.724422   7.617834   9.458250   9.561827
    44  H    6.689380   7.375222   6.037866   7.634594   7.515791
    45  H    3.975668   4.194305   2.597518   4.960504   5.758634
    46  H    4.493537   4.846984   3.342569   5.665618   6.225187
    47  H    5.312482   5.751944   3.905805   6.171376   6.666717
                   11         12         13         14         15
    11  C    0.000000
    12  C    1.393742   0.000000
    13  C    2.413167   1.394701   0.000000
    14  C    2.780802   2.411106   1.391951   0.000000
    15  N    6.149079   7.234456   7.469339   6.683780   0.000000
    16  C    6.263462   7.162409   7.211271   6.371765   1.279409
    17  O    7.362415   8.188626   8.224243   7.438211   2.217028
    18  C    8.176981   9.147480   9.328294   8.572088   2.339211
    19  H    8.690073   9.620096   9.862422   9.212905   3.216075
    20  C    7.297541   8.412141   8.753837   8.057125   1.462880
    21  C    9.284477  10.254414  10.316380   9.418194   3.238987
    22  C   10.422298  11.308330  11.297809  10.397042   4.532145
    23  C   11.503475  12.384473  12.290098  11.297665   5.588840
    24  C   11.564841  12.501992  12.384398  11.308129   5.649090
    25  C   10.558083  11.564895  11.503474  10.422198   4.679297
    26  C    9.367298  10.403423  10.436138   9.438107   3.348421
    27  C    6.925898   7.477956   7.053859   5.970596   3.586011
    28  H    4.469131   5.050314   5.131512   4.645868   3.380678
    29  H    5.146952   5.388779   4.993550   4.274483   4.404736
    30  H    6.196205   6.643521   6.509032   5.900537   3.776544
    31  H    3.971405   4.965249   4.991442   4.037899   4.605216
    32  H    5.378941   6.157363   5.827201   4.588652   4.764059
    33  H    2.151012   3.405144   3.891305   3.420422   4.448280
    34  H    1.092421   2.160831   3.405434   3.873171   6.272380
    35  H    2.159625   1.092695   2.159842   3.402214   8.080565
    36  H    3.405215   2.161501   1.092520   2.156525   8.452743
    37  H    3.874628   3.402562   2.156479   1.093827   7.183809
    38  H    7.077543   8.202998   8.693963   8.160676   2.093379
    39  H    7.878752   9.071940   9.443423   8.704223   2.104134
    40  H   10.570302  11.393012  11.403193  10.589255   4.923132
    41  H   12.410952  13.240496  13.108319  12.125571   6.580790
    42  H   12.513614  13.437453  13.266896  12.143891   6.673187
    43  H   10.806726  11.843374  11.765224  10.634422   5.159672
    44  H    8.660515   9.765418   9.861720   8.874356   2.791796
    45  H    6.838187   7.208671   6.596493   5.466240   4.507402
    46  H    7.442379   8.093916   7.678870   6.504700   3.596675
    47  H    7.676720   8.197642   7.807679   6.815057   3.931686
                   16         17         18         19         20
    16  C    0.000000
    17  O    1.328700   0.000000
    18  C    2.238285   1.468106   0.000000
    19  H    3.062379   2.059097   1.097237   0.000000
    20  C    2.212679   2.318360   1.526905   2.206176   0.000000
    21  C    3.114090   2.404025   1.505050   2.154791   2.575190
    22  C    4.173874   3.169020   2.501505   2.648166   3.839174
    23  C    5.254421   4.381651   3.789618   4.024688   4.988929
    24  C    5.487171   4.912423   4.301352   4.802565   5.192962
    25  C    4.735166   4.460066   3.809647   4.549666   4.344574
    26  C    3.500773   3.281505   2.537531   3.398258   2.956259
    27  C    2.478382   2.823056   4.087716   4.842702   4.566416
    28  H    2.730037   3.342378   4.493588   4.847134   4.322056
    29  H    3.415975   3.905658   5.312428   5.752028   5.471382
    30  H    2.667309   2.597268   3.975577   4.194365   4.431222
    31  H    4.969044   6.295515   6.887299   7.792166   5.951072
    32  H    4.865159   6.099405   6.779157   7.784806   6.140773
    33  H    4.788611   6.037890   6.689437   7.375373   5.683608
    34  H    6.552942   7.618074   8.277876   8.724882   7.273894
    35  H    8.031054   8.998660   9.927256  10.321192   9.175437
    36  H    8.107948   9.055762  10.222573  10.721256   9.728761
    37  H    6.736199   7.746650   8.962357   9.633456   8.587280
    38  H    2.821102   2.884688   2.196669   2.405151   1.102226
    39  H    3.063301   3.241355   2.223813   2.900383   1.097877
    40  H    4.437255   3.225599   2.691066   2.420632   4.164039
    41  H    6.153769   5.171589   4.657130   4.715283   5.951959
    42  H    6.507436   5.963741   5.393943   5.874471   6.257118
    43  H    5.348641   5.290300   4.685684   5.501452   4.967226
    44  H    3.275163   3.456633   2.780293   3.759955   2.605010
    45  H    3.433400   3.843734   5.163670   5.876405   5.591151
    46  H    2.736379   3.142148   4.117167   5.014358   4.540968
    47  H    2.709530   2.505400   3.793717   4.374200   4.613017
                   21         22         23         24         25
    21  C    0.000000
    22  C    1.399154   0.000000
    23  C    2.424552   1.391946   0.000000
    24  C    2.797894   2.411105   1.394716   0.000000
    25  C    2.418185   2.780804   2.413180   1.393736   0.000000
    26  C    1.400745   2.417421   2.795634   2.420350   1.394126
    27  C    4.302720   4.887342   5.573805   5.734488   5.248683
    28  H    5.665462   6.504320   7.678399   8.093517   7.442164
    29  H    6.170990   6.814396   7.806839   8.196841   7.676143
    30  H    4.960104   5.465577   6.595696   7.207935   6.837651
    31  H    7.446725   8.703974   9.443108   9.071614   7.878513
    32  H    7.024031   8.160430   8.693620   8.202622   7.077267
    33  H    7.634524   8.874212   9.861511   9.765192   8.660361
    34  H    9.458436  10.634563  11.765284  11.843382  10.806771
    35  H   11.104754  12.144185  13.267065  13.437533  12.513731
    36  H   11.205849  12.125790  13.108378  13.240465  12.410995
    37  H    9.691378  10.589217  11.402995  11.392761  10.570172
    38  H    3.470902   4.588739   5.827316   6.157487   5.379060
    39  H    2.724391   4.038052   4.991636   4.965444   3.971585
    40  H    2.159262   1.093822   2.156474   3.402563   3.874625
    41  H    3.412983   2.156519   1.092508   2.161505   3.405213
    42  H    3.890573   3.402204   2.159843   1.092689   2.159619
    43  H    3.404471   3.873180   3.405459   2.160840   1.092429
    44  H    2.180070   3.420435   3.891324   3.405145   2.151016
    45  H    5.386791   5.899780   6.508035   6.642458   6.195319
    46  H    4.003489   4.645344   5.130804   5.049462   4.468315
    47  H    3.960944   4.273613   4.992455   5.387632   5.145965
                   26         27         28         29         30
    26  C    0.000000
    27  C    4.516862   0.000000
    28  H    6.225102   3.497072   0.000000
    29  H    6.666350   2.760506   1.781883   0.000000
    30  H    5.758268   2.783118   1.788627   1.791623   0.000000
    31  H    6.974241   5.393059   5.024189   5.373128   6.290108
    32  H    6.410541   4.600192   5.415570   5.290018   6.244895
    33  H    7.515711   5.685482   3.925157   4.738021   5.566790
    34  H    9.561951   7.553705   4.860477   5.831636   6.641044
    35  H   11.315331   8.441593   5.787090   6.208224   7.371529
    36  H   11.367892   7.761382   5.912981   5.586508   7.153687
    37  H    9.686705   5.919572   5.144285   4.391422   6.136665
    38  H    4.005476   5.277419   4.270792   5.680887   4.573594
    39  H    2.678126   5.256608   5.301723   6.411045   5.473562
    40  H    3.407786   5.166359   6.434001   6.765136   5.241428
    41  H    3.888117   6.287742   8.433363   8.467206   7.198499
    42  H    3.409710   6.541167   9.101301   9.102456   8.180789
    43  H    2.150857   5.768159   8.046794   8.252310   7.591966
    44  H    1.096092   4.558484   5.958131   6.533669   5.810916
    45  H    5.556154   1.097925   3.781736   2.555683   3.154802
    46  H    3.905443   1.099851   4.347240   3.779524   3.781767
    47  H    4.456874   1.097356   3.779540   3.086344   2.555726
                   31         32         33         34         35
    31  H    0.000000
    32  H    1.782339   0.000000
    33  H    2.125959   3.664063   0.000000
    34  H    4.441103   6.015069   2.459739   0.000000
    35  H    5.967994   7.228710   4.302297   2.491786   0.000000
    36  H    6.005651   6.720728   4.983742   4.310826   2.491367
    37  H    4.554018   4.709633   4.325923   4.966986   4.305507
    38  H    6.289506   6.745851   5.662372   6.918008   8.864203
    39  H    6.130448   6.289544   6.104302   7.804594   9.851375
    40  H    9.239891   8.793391   9.189912  10.764029  12.170677
    41  H   10.454995   9.662822  10.837616  12.690429  14.108589
    42  H    9.851007   8.863766  10.681905  12.820833  14.395048
    43  H    7.804357   6.917720   8.815885  11.063561  12.820877
    44  H    6.104241   5.662325   6.715849   8.816047  10.682173
    45  H    5.473489   4.573483   5.811070   7.592451   8.181597
    46  H    5.301428   4.270547   5.958014   8.046954   9.101758
    47  H    6.410929   5.680753   6.533805   8.252844   9.103358
                   36         37         38         39         40
    36  H    0.000000
    37  H    2.482476   0.000000
    38  H    9.663230   8.793625   0.000000
    39  H   10.455367   9.240143   1.782384   0.000000
    40  H   12.186941  10.795124   4.709682   4.554130   0.000000
    41  H   13.885437  12.186656   6.720842   6.005841   2.482479
    42  H   14.108454  12.170320   7.228840   5.968195   4.305500
    43  H   12.690400  10.763859   6.015186   4.441266   4.966990
    44  H   10.837874   9.190056   3.664145   2.126061   4.325925
    45  H    7.199408   5.242112   6.244796   6.289938   6.136011
    46  H    8.433944   6.434440   5.415367   5.023894   5.143910
    47  H    8.468182   6.765803   5.289894   5.372874   4.390706
                   41         42         43         44         45
    41  H    0.000000
    42  H    2.491361   0.000000
    43  H    4.310838   2.491799   0.000000
    44  H    4.983748   4.302296   2.459731   0.000000
    45  H    7.152602   7.370352   6.640156   5.566348   0.000000
    46  H    5.912272   5.786179   4.859626   3.924622   1.788629
    47  H    5.585370   6.207003   5.830675   4.737466   1.791607
                   46         47
    46  H    0.000000
    47  H    1.781881   0.000000
 Stoichiometry    C21H22N2O2
 Framework group  C1[X(C21H22N2O2)]
 Deg. of freedom   135
 Full point group                 C1      NOp   1
 Largest Abelian subgroup         C1      NOp   1
 Largest concise Abelian subgroup C1      NOp   1
                         Standard orientation:                         
 ---------------------------------------------------------------------
 Center     Atomic      Atomic             Coordinates (Angstroms)
 Number     Number       Type             X           Y           Z
 ---------------------------------------------------------------------
      1          6           0        0.712850    1.047638    1.823953
      2          6           0       -0.000145   -0.000120    0.946325
      3          6           0        1.026128   -0.724469    0.119821
      4          7           0        1.042746   -0.943075   -1.140655
      5          6           0        2.189225   -1.807838   -1.419502
      6          6           0        3.034797   -1.672975   -0.155264
      7          1           0        3.420845   -2.630820    0.215449
      8          8           0        2.028892   -1.240243    0.822612
      9          6           0        4.123677   -0.634553   -0.189565
     10          6           0        4.097782    0.427384   -1.102659
     11          6           0        5.088123    1.407411   -1.054361
     12          6           0        6.106302    1.337831   -0.105156
     13          6           0        6.138845    0.278911    0.801938
     14          6           0        5.151153   -0.700906    0.757790
     15          7           0       -1.042830    0.943549   -1.140435
     16          6           0       -1.026259    0.724644    0.119999
     17          8           0       -2.028981    1.240335    0.822888
     18          6           0       -3.034893    1.673182   -0.154926
     19          1           0       -3.421086    2.630883    0.216011
     20          6           0       -2.189256    1.808474   -1.419058
     21          6           0       -4.123623    0.634601   -0.189485
     22          6           0       -5.151009    0.700501    0.758020
     23          6           0       -6.138562   -0.279460    0.801961
     24          6           0       -6.105957   -1.338089   -0.105494
     25          6           0       -5.087878   -1.407214   -1.054829
     26          6           0       -4.097666   -0.427032   -1.102911
     27          6           0       -0.713329   -1.048338    1.823227
     28          1           0        1.247879    1.779414    1.201138
     29          1           0        1.441734    0.548853    2.475205
     30          1           0       -0.025323    1.576705    2.440916
     31          1           0        2.684319   -1.479434   -2.342734
     32          1           0        1.824233   -2.836712   -1.571514
     33          1           0        3.321497    0.493797   -1.873623
     34          1           0        5.063799    2.227330   -1.775835
     35          1           0        6.882603    2.106298   -0.076924
     36          1           0        6.939596    0.213751    1.542313
     37          1           0        5.175831   -1.531652    1.468922
     38          1           0       -1.824202    2.837389   -1.570626
     39          1           0       -2.684279    1.480387   -2.342446
     40          1           0       -5.175726    1.531021    1.469407
     41          1           0       -6.939231   -0.214665    1.542437
     42          1           0       -6.882148   -2.106665   -0.077426
     43          1           0       -5.063504   -2.226894   -1.776585
     44          1           0       -3.321442   -0.493109   -1.873967
     45          1           0        0.024677   -1.577701    2.440123
     46          1           0       -1.248191   -1.779817    1.199902
     47          1           0       -1.442401   -0.549911    2.474545
 ---------------------------------------------------------------------
 Rotational constants (GHZ):           0.6334388           0.0985744           0.0967318
 Leave Link  202 at Thu Nov  3 08:04:19 2022, MaxMem=  4194304000 cpu:               0.1 elap:               0.0
 (Enter /software/gaussian/G16-A.03/avx/g16/l301.exe)
 Standard basis: def2SVP (5D, 7F)
 Ernie: Thresh=  0.10000D-02 Tol=  0.10000D-05 Strict=F.
 There are   485 symmetry adapted cartesian basis functions of A   symmetry.
 There are   460 symmetry adapted basis functions of A   symmetry.
   460 basis functions,   779 primitive gaussians,   485 cartesian basis functions
    89 alpha electrons       89 beta electrons
       nuclear repulsion energy      2122.6461647730 Hartrees.
 IExCor= 1009 DFT=T Ex+Corr=PBE1PBE ExCW=0 ScaHFX=  0.250000
 ScaDFX=  0.750000  0.750000  1.000000  1.000000 ScalE2=  1.000000  1.000000
 IRadAn=      5 IRanWt=     -1 IRanGd=            0 ICorTp=0 IEmpDi=141
 NAtoms=   47 NActive=   47 NUniq=   47 SFac= 1.00D+00 NAtFMM=   60 NAOKFM=F Big=F
 Integral buffers will be    131072 words long.
 Raffenetti 2 integral format.
 Two-electron integral symmetry is turned on.
 R6Disp:  Grimme-D3(BJ) Dispersion energy=       -0.0543053405 Hartrees.
 Nuclear repulsion after empirical dispersion term =     2122.5918594325 Hartrees.
 Leave Link  301 at Thu Nov  3 08:04:19 2022, MaxMem=  4194304000 cpu:               0.6 elap:               0.1
 (Enter /software/gaussian/G16-A.03/avx/g16/l302.exe)
 NPDir=0 NMtPBC=     1 NCelOv=     1 NCel=       1 NClECP=     1 NCelD=      1
         NCelK=      1 NCelE2=     1 NClLst=     1 CellRange=     0.0.
 One-electron integrals computed using PRISM.
 One-electron integral symmetry used in STVInt
   1 Symmetry operations used in ECPInt.
 ECPInt:  NShTT=   23436 NPrTT=   84646 LenC2=   19994 LenP2D=   49065.
 LDataN:  DoStor=T MaxTD1= 4 Len=   56
 NBasis=   460 RedAO= T EigKep=  2.88D-04  NBF=   460
 NBsUse=   460 1.00D-06 EigRej= -1.00D+00 NBFU=   460
 Precomputing XC quadrature grid using
 IXCGrd= 4 IRadAn=           5 IRanWt=          -1 IRanGd=           0 AccXCQ= 0.00D+00.
 Generated NRdTot=       0 NPtTot=           0 NUsed=           0 NTot=          32
 NSgBfM=   475   474   474   474   475 MxSgAt=    47 MxSgA2=    47.
 Leave Link  302 at Thu Nov  3 08:04:20 2022, MaxMem=  4194304000 cpu:               7.9 elap:               1.0
 (Enter /software/gaussian/G16-A.03/avx/g16/l303.exe)
 DipDrv:  MaxL=1.
 Leave Link  303 at Thu Nov  3 08:04:20 2022, MaxMem=  4194304000 cpu:               0.6 elap:               0.1
 (Enter /software/gaussian/G16-A.03/avx/g16/l401.exe)
 ExpMin= 1.22D-01 ExpMax= 2.27D+03 ExpMxC= 3.41D+02 IAcc=3 IRadAn=         5 AccDes= 0.00D+00
 Harris functional with IExCor= 1009 and IRadAn=       5 diagonalized for initial guess.
 HarFok:  IExCor= 1009 AccDes= 0.00D+00 IRadAn=         5 IDoV= 1 UseB2=F ITyADJ=14
 ICtDFT=  3500011 ScaDFX=  1.000000  1.000000  1.000000  1.000000
 FoFCou: FMM=F IPFlag=           0 FMFlag=      100000 FMFlg1=           0
         NFxFlg=           0 DoJE=T BraDBF=F KetDBF=T FulRan=T
         wScrn=  0.000000 ICntrl=       500 IOpCl=  0 I1Cent=   200000004 NGrid=           0
         NMat0=    1 NMatS0=      1 NMatT0=    0 NMatD0=    1 NMtDS0=    0 NMtDT0=    0
 Petite list used in FoFCou.
 Harris En= -1071.68383287457    
 JPrj=0 DoOrth=F DoCkMO=F.
 Leave Link  401 at Thu Nov  3 08:04:26 2022, MaxMem=  4194304000 cpu:              45.0 elap:               5.6
 (Enter /software/gaussian/G16-A.03/avx/g16/l502.exe)
 Integral symmetry usage will be decided dynamically.
 Closed shell SCF:
 Using DIIS extrapolation, IDIIS=  1040.
 NGot=  4194304000 LenX=  4193824455 LenY=  4193588745
 Requested convergence on RMS density matrix=1.00D-08 within 128 cycles.
 Requested convergence on MAX density matrix=1.00D-06.
 Requested convergence on             energy=1.00D-06.
 No special actions if energy rises.
 Fock matrices will be formed incrementally for  20 cycles.
 Integral accuracy reduced to 1.0D-05 until final iterations.

 Cycle   1  Pass 0  IDiag  1:
 FoFJK:  IHMeth= 1 ICntrl=       0 DoSepK=F KAlg= 0 I1Cent=           0 FoldK=F
 IRaf= 770000000 NMat=       1 IRICut=       1 DoRegI=T DoRafI=F ISym2E= 0 IDoP0=0 IntGTp=1.
 FoFCou: FMM=F IPFlag=           0 FMFlag=      100000 FMFlg1=           0
         NFxFlg=           0 DoJE=F BraDBF=F KetDBF=F FulRan=T
         wScrn=  0.000000 ICntrl=         0 IOpCl=  0 I1Cent=           0 NGrid=           0
         NMat0=    1 NMatS0=      1 NMatT0=    0 NMatD0=    1 NMtDS0=    0 NMtDT0=    0
 Symmetry not used in FoFCou.
 E= -1071.01034425981    
 DIIS: error= 3.25D-02 at cycle   1 NSaved=   1.
 NSaved= 1 IEnMin= 1 EnMin= -1071.01034425981     IErMin= 1 ErrMin= 3.25D-02
 ErrMax= 3.25D-02  0.00D+00 EMaxC= 1.00D-01 BMatC= 4.02D-01 BMatP= 4.02D-01
 IDIUse=3 WtCom= 6.75D-01 WtEn= 3.25D-01
 Coeff-Com:  0.100D+01
 Coeff-En:   0.100D+01
 Coeff:      0.100D+01
 Gap=     0.244 Goal=   None    Shift=    0.000
 GapD=    0.244 DampG=1.000 DampE=0.500 DampFc=0.5000 IDamp=-1.
 Damping current iteration by 5.00D-01
 RMSDP=3.94D-03 MaxDP=2.32D-01              OVMax= 1.83D-01

 Cycle   2  Pass 0  IDiag  1:
 RMSU=  1.91D-03    CP:  9.71D-01
 E= -1071.20955402144     Delta-E=       -0.199209761630 Rises=F Damp=T
 DIIS: error= 5.85D-03 at cycle   2 NSaved=   2.
 NSaved= 2 IEnMin= 2 EnMin= -1071.20955402144     IErMin= 2 ErrMin= 5.85D-03
 ErrMax= 5.85D-03  0.00D+00 EMaxC= 1.00D-01 BMatC= 3.17D-02 BMatP= 4.02D-01
 IDIUse=3 WtCom= 9.42D-01 WtEn= 5.85D-02
 Coeff-Com:  0.506D-01 0.949D+00
 Coeff-En:   0.600D-01 0.940D+00
 Coeff:      0.511D-01 0.949D+00
 Gap=     0.256 Goal=   None    Shift=    0.000
 RMSDP=1.27D-03 MaxDP=4.39D-02 DE=-1.99D-01 OVMax= 1.81D-01

 Cycle   3  Pass 0  IDiag  1:
 RMSU=  1.23D-03    CP:  9.52D-01  1.02D+00
 E= -1071.41155951766     Delta-E=       -0.202005496217 Rises=F Damp=F
 DIIS: error= 1.07D-02 at cycle   3 NSaved=   3.
 NSaved= 3 IEnMin= 3 EnMin= -1071.41155951766     IErMin= 2 ErrMin= 5.85D-03
 ErrMax= 1.07D-02  0.00D+00 EMaxC= 1.00D-01 BMatC= 4.44D-02 BMatP= 3.17D-02
 IDIUse=2 WtCom= 0.00D+00 WtEn= 1.00D+00
 Coeff-En:   0.000D+00 0.000D+00 0.100D+01
 Coeff:      0.000D+00 0.000D+00 0.100D+01
 Gap=     0.221 Goal=   None    Shift=    0.000
 RMSDP=1.74D-03 MaxDP=1.35D-01 DE=-2.02D-01 OVMax= 2.06D-01

 Cycle   4  Pass 0  IDiag  1:
 RMSU=  1.11D-03    CP:  9.58D-01  1.40D+00  9.43D-02
 E= -1071.24896271139     Delta-E=        0.162596806264 Rises=F Damp=F
 DIIS: error= 2.35D-02 at cycle   4 NSaved=   4.
 NSaved= 4 IEnMin= 3 EnMin= -1071.41155951766     IErMin= 2 ErrMin= 5.85D-03
 ErrMax= 2.35D-02  0.00D+00 EMaxC= 1.00D-01 BMatC= 2.25D-01 BMatP= 3.17D-02
 IDIUse=2 WtCom= 0.00D+00 WtEn= 1.00D+00
 Coeff-En:   0.000D+00 0.000D+00 0.780D+00 0.220D+00
 Coeff:      0.000D+00 0.000D+00 0.780D+00 0.220D+00
 Gap=     0.209 Goal=   None    Shift=    0.000
 RMSDP=9.28D-04 MaxDP=8.75D-02 DE= 1.63D-01 OVMax= 1.06D-01

 Cycle   5  Pass 0  IDiag  1:
 RMSU=  1.52D-04    CP:  9.55D-01  1.19D+00  5.64D-01  4.82D-01
 E= -1071.43711332629     Delta-E=       -0.188150614900 Rises=F Damp=F
 DIIS: error= 6.29D-03 at cycle   5 NSaved=   5.
 NSaved= 5 IEnMin= 5 EnMin= -1071.43711332629     IErMin= 2 ErrMin= 5.85D-03
 ErrMax= 6.29D-03  0.00D+00 EMaxC= 1.00D-01 BMatC= 1.63D-02 BMatP= 3.17D-02
 IDIUse=3 WtCom= 9.37D-01 WtEn= 6.29D-02
 Coeff-Com:  0.716D-03 0.874D-02 0.270D+00-0.106D+00 0.826D+00
 Coeff-En:   0.000D+00 0.000D+00 0.317D+00 0.000D+00 0.683D+00
 Coeff:      0.671D-03 0.819D-02 0.273D+00-0.990D-01 0.817D+00
 Gap=     0.224 Goal=   None    Shift=    0.000
 RMSDP=3.27D-04 MaxDP=2.52D-02 DE=-1.88D-01 OVMax= 3.84D-02

 Cycle   6  Pass 0  IDiag  1:
 RMSU=  4.09D-05    CP:  9.53D-01  1.12D+00  7.34D-01  2.96D-01  9.51D-01
 E= -1071.45166614420     Delta-E=       -0.014552817905 Rises=F Damp=F
 DIIS: error= 2.78D-04 at cycle   6 NSaved=   6.
 NSaved= 6 IEnMin= 6 EnMin= -1071.45166614420     IErMin= 6 ErrMin= 2.78D-04
 ErrMax= 2.78D-04  0.00D+00 EMaxC= 1.00D-01 BMatC= 3.91D-05 BMatP= 1.63D-02
 IDIUse=3 WtCom= 9.97D-01 WtEn= 2.78D-03
 Coeff-Com: -0.584D-04 0.127D-02 0.123D+00-0.668D-01 0.454D+00 0.489D+00
 Coeff-En:   0.000D+00 0.000D+00 0.000D+00 0.000D+00 0.000D+00 0.100D+01
 Coeff:     -0.583D-04 0.126D-02 0.122D+00-0.666D-01 0.453D+00 0.490D+00
 Gap=     0.223 Goal=   None    Shift=    0.000
 RMSDP=2.18D-05 MaxDP=7.47D-04 DE=-1.46D-02 OVMax= 1.90D-03

 Cycle   7  Pass 0  IDiag  1:
 RMSU=  1.11D-05    CP:  9.53D-01  1.12D+00  7.33D-01  3.00D-01  9.53D-01
                    CP:  5.73D-01
 E= -1071.45170482693     Delta-E=       -0.000038682735 Rises=F Damp=F
 DIIS: error= 1.11D-04 at cycle   7 NSaved=   7.
 NSaved= 7 IEnMin= 7 EnMin= -1071.45170482693     IErMin= 7 ErrMin= 1.11D-04
 ErrMax= 1.11D-04  0.00D+00 EMaxC= 1.00D-01 BMatC= 2.91D-06 BMatP= 3.91D-05
 IDIUse=3 WtCom= 9.99D-01 WtEn= 1.11D-03
 Coeff-Com: -0.249D-04-0.117D-03 0.438D-01-0.272D-01 0.173D+00 0.259D+00
 Coeff-Com:  0.552D+00
 Coeff-En:   0.000D+00 0.000D+00 0.000D+00 0.000D+00 0.000D+00 0.000D+00
 Coeff-En:   0.100D+01
 Coeff:     -0.249D-04-0.117D-03 0.437D-01-0.272D-01 0.173D+00 0.259D+00
 Coeff:      0.552D+00
 Gap=     0.223 Goal=   None    Shift=    0.000
 RMSDP=5.24D-06 MaxDP=2.40D-04 DE=-3.87D-05 OVMax= 5.65D-04

 Initial convergence to 1.0D-05 achieved.  Increase integral accuracy.
 Cycle   8  Pass 1  IDiag  1:
 E= -1071.45178669691     Delta-E=       -0.000081869981 Rises=F Damp=F
 DIIS: error= 1.32D-04 at cycle   1 NSaved=   1.
 NSaved= 1 IEnMin= 1 EnMin= -1071.45178669691     IErMin= 1 ErrMin= 1.32D-04
 ErrMax= 1.32D-04  0.00D+00 EMaxC= 1.00D-01 BMatC= 3.76D-06 BMatP= 3.76D-06
 IDIUse=3 WtCom= 9.99D-01 WtEn= 1.32D-03
 Coeff-Com:  0.100D+01
 Coeff-En:   0.100D+01
 Coeff:      0.100D+01
 Gap=     0.223 Goal=   None    Shift=    0.000
 RMSDP=5.24D-06 MaxDP=2.40D-04 DE=-8.19D-05 OVMax= 4.12D-04

 Cycle   9  Pass 1  IDiag  1:
 RMSU=  8.13D-05    CP:  1.00D+00
 E= -1071.45178982318     Delta-E=       -0.000003126268 Rises=F Damp=F
 DIIS: error= 5.56D-05 at cycle   2 NSaved=   2.
 NSaved= 2 IEnMin= 2 EnMin= -1071.45178982318     IErMin= 2 ErrMin= 5.56D-05
 ErrMax= 5.56D-05  0.00D+00 EMaxC= 1.00D-01 BMatC= 9.14D-07 BMatP= 3.76D-06
 IDIUse=1 WtCom= 1.00D+00 WtEn= 0.00D+00
 Coeff-Com:  0.245D+00 0.755D+00
 Coeff:      0.245D+00 0.755D+00
 Gap=     0.223 Goal=   None    Shift=    0.000
 RMSDP=5.53D-06 MaxDP=3.55D-04 DE=-3.13D-06 OVMax= 4.70D-04

 Cycle  10  Pass 1  IDiag  1:
 RMSU=  5.44D-06    CP:  1.00D+00  1.01D+00
 E= -1071.45178939419     Delta-E=        0.000000428994 Rises=F Damp=F
 DIIS: error= 6.25D-05 at cycle   3 NSaved=   3.
 NSaved= 3 IEnMin= 2 EnMin= -1071.45178982318     IErMin= 2 ErrMin= 5.56D-05
 ErrMax= 6.25D-05  0.00D+00 EMaxC= 1.00D-01 BMatC= 1.36D-06 BMatP= 9.14D-07
 IDIUse=1 WtCom= 1.00D+00 WtEn= 0.00D+00
 Coeff-Com:  0.130D-02 0.550D+00 0.449D+00
 Coeff:      0.130D-02 0.550D+00 0.449D+00
 Gap=     0.223 Goal=   None    Shift=    0.000
 RMSDP=3.18D-06 MaxDP=1.91D-04 DE= 4.29D-07 OVMax= 3.06D-04

 Cycle  11  Pass 1  IDiag  1:
 RMSU=  7.74D-07    CP:  1.00D+00  1.02D+00  4.41D-01
 E= -1071.45179071887     Delta-E=       -0.000001324684 Rises=F Damp=F
 DIIS: error= 7.36D-06 at cycle   4 NSaved=   4.
 NSaved= 4 IEnMin= 4 EnMin= -1071.45179071887     IErMin= 4 ErrMin= 7.36D-06
 ErrMax= 7.36D-06  0.00D+00 EMaxC= 1.00D-01 BMatC= 3.28D-08 BMatP= 9.14D-07
 IDIUse=1 WtCom= 1.00D+00 WtEn= 0.00D+00
 Coeff-Com: -0.482D-02 0.328D+00 0.281D+00 0.396D+00
 Coeff:     -0.482D-02 0.328D+00 0.281D+00 0.396D+00
 Gap=     0.223 Goal=   None    Shift=    0.000
 RMSDP=4.57D-07 MaxDP=1.68D-05 DE=-1.32D-06 OVMax= 4.13D-05

 Cycle  12  Pass 1  IDiag  1:
 RMSU=  2.29D-07    CP:  1.00D+00  1.02D+00  4.59D-01  5.06D-01
 E= -1071.45179074741     Delta-E=       -0.000000028532 Rises=F Damp=F
 DIIS: error= 1.68D-06 at cycle   5 NSaved=   5.
 NSaved= 5 IEnMin= 5 EnMin= -1071.45179074741     IErMin= 5 ErrMin= 1.68D-06
 ErrMax= 1.68D-06  0.00D+00 EMaxC= 1.00D-01 BMatC= 7.31D-10 BMatP= 3.28D-08
 IDIUse=1 WtCom= 1.00D+00 WtEn= 0.00D+00
 Coeff-Com: -0.291D-02 0.182D+00 0.156D+00 0.239D+00 0.426D+00
 Coeff:     -0.291D-02 0.182D+00 0.156D+00 0.239D+00 0.426D+00
 Gap=     0.223 Goal=   None    Shift=    0.000
 RMSDP=8.73D-08 MaxDP=4.80D-06 DE=-2.85D-08 OVMax= 7.57D-06

 Cycle  13  Pass 1  IDiag  1:
 RMSU=  7.73D-08    CP:  1.00D+00  1.02D+00  4.59D-01  5.18D-01  8.34D-01
 E= -1071.45179074815     Delta-E=       -0.000000000741 Rises=F Damp=F
 DIIS: error= 2.69D-07 at cycle   6 NSaved=   6.
 NSaved= 6 IEnMin= 6 EnMin= -1071.45179074815     IErMin= 6 ErrMin= 2.69D-07
 ErrMax= 2.69D-07  0.00D+00 EMaxC= 1.00D-01 BMatC= 2.43D-11 BMatP= 7.31D-10
 IDIUse=1 WtCom= 1.00D+00 WtEn= 0.00D+00
 Coeff-Com: -0.621D-03 0.352D-01 0.302D-01 0.520D-01 0.181D+00 0.703D+00
 Coeff:     -0.621D-03 0.352D-01 0.302D-01 0.520D-01 0.181D+00 0.703D+00
 Gap=     0.223 Goal=   None    Shift=    0.000
 RMSDP=1.90D-08 MaxDP=6.03D-07 DE=-7.41D-10 OVMax= 1.62D-06

 Cycle  14  Pass 1  IDiag  1:
 RMSU=  1.42D-08    CP:  1.00D+00  1.02D+00  4.59D-01  5.21D-01  8.70D-01
                    CP:  8.92D-01
 E= -1071.45179074817     Delta-E=       -0.000000000021 Rises=F Damp=F
 DIIS: error= 7.66D-08 at cycle   7 NSaved=   7.
 NSaved= 7 IEnMin= 7 EnMin= -1071.45179074817     IErMin= 7 ErrMin= 7.66D-08
 ErrMax= 7.66D-08  0.00D+00 EMaxC= 1.00D-01 BMatC= 4.87D-12 BMatP= 2.43D-11
 IDIUse=1 WtCom= 1.00D+00 WtEn= 0.00D+00
 Coeff-Com:  0.133D-04-0.262D-02-0.233D-02 0.434D-04 0.474D-01 0.383D+00
 Coeff-Com:  0.575D+00
 Coeff:      0.133D-04-0.262D-02-0.233D-02 0.434D-04 0.474D-01 0.383D+00
 Coeff:      0.575D+00
 Gap=     0.223 Goal=   None    Shift=    0.000
 RMSDP=6.94D-09 MaxDP=2.55D-07 DE=-2.09D-11 OVMax= 3.73D-07

 SCF Done:  E(RPBE1PBE) =  -1071.45179075     A.U. after   14 cycles
            NFock= 14  Conv=0.69D-08     -V/T= 2.0100
 KE= 1.060882155819D+03 PE=-6.734224415033D+03 EE= 2.479298609033D+03
 Leave Link  502 at Thu Nov  3 08:06:54 2022, MaxMem=  4194304000 cpu:            1186.1 elap:             148.3
 (Enter /software/gaussian/G16-A.03/avx/g16/l801.exe)
 DoSCS=F DFT=T ScalE2(SS,OS)=  1.000000  1.000000
 Range of M.O.s used for correlation:     1   460
 NBasis=   460 NAE=    89 NBE=    89 NFC=     0 NFV=     0
 NROrb=    460 NOA=    89 NOB=    89 NVA=   371 NVB=   371

 **** Warning!!: The largest alpha MO coefficient is  0.11226670D+02

 Leave Link  801 at Thu Nov  3 08:06:54 2022, MaxMem=  4194304000 cpu:               0.2 elap:               0.0
 (Enter /software/gaussian/G16-A.03/avx/g16/l1101.exe)
 Using compressed storage, NAtomX=    47.
 Will process     48 centers per pass.
   1 Symmetry operations used in ECPInt.
 ECPInt:  NShTT=   23436 NPrTT=   84646 LenC2=   19994 LenP2D=   49065.
 LDataN:  DoStor=T MaxTD1= 5 Len=  102
 R6Disp: Adding Grimme-D3(BJ) dispersion energy 1st derivatives to the gradient.
 Leave Link 1101 at Thu Nov  3 08:06:56 2022, MaxMem=  4194304000 cpu:               9.5 elap:               1.2
 (Enter /software/gaussian/G16-A.03/avx/g16/l1102.exe)
 Symmetrizing basis deriv contribution to polar:
 IMax=3 JMax=2 DiffMx= 0.00D+00
 Leave Link 1102 at Thu Nov  3 08:06:56 2022, MaxMem=  4194304000 cpu:               0.6 elap:               0.1
 (Enter /software/gaussian/G16-A.03/avx/g16/l1110.exe)
 Forming Gx(P) for the SCF density, NAtomX=    47.
 Integral derivatives from FoFJK, PRISM(SPDF).
 Do as many integral derivatives as possible in FoFJK.
 G2DrvN: MDV=    4194300480.
 G2DrvN: will do    48 centers at a time, making    1 passes.
 Calling FoFCou, ICntrl=  3107 FMM=F I1Cent=   0 AccDes= 0.00D+00.
 FoFJK:  IHMeth= 1 ICntrl=    3107 DoSepK=F KAlg= 0 I1Cent=           0 FoldK=F
 IRaf=         0 NMat=       1 IRICut=       1 DoRegI=T DoRafI=F ISym2E= 0 IDoP0=0 IntGTp=1.
 FoFCou: FMM=F IPFlag=           0 FMFlag=      100000 FMFlg1=           0
         NFxFlg=           0 DoJE=F BraDBF=F KetDBF=F FulRan=T
         wScrn=  0.000000 ICntrl=      3107 IOpCl=  0 I1Cent=           0 NGrid=           0
         NMat0=    1 NMatS0=      1 NMatT0=    0 NMatD0=    1 NMtDS0=    0 NMtDT0=    0
 Symmetry not used in FoFCou.
 End of G2Drv F.D. properties file   721 does not exist.
 End of G2Drv F.D. properties file   722 does not exist.
 End of G2Drv F.D. properties file   788 does not exist.
 Leave Link 1110 at Thu Nov  3 08:15:55 2022, MaxMem=  4194304000 cpu:            4310.1 elap:             538.8
 (Enter /software/gaussian/G16-A.03/avx/g16/l1002.exe)
 Minotr:  Closed shell wavefunction.
          IDoAtm=11111111111111111111111111111111111111111111111
          Direct CPHF calculation.
          Differentiating once with respect to electric field.
                with respect to dipole field.
          Differentiating once with respect to nuclear coordinates.
          Requested convergence is 1.0D-08 RMS, and 1.0D-07 maximum.
          Secondary convergence is 1.0D-12 RMS, and 1.0D-12 maximum.
          NewPWx=T KeepS1=F KeepF1=F KeepIn=T MapXYZ=F SortEE=F KeepMc=T.
        14343 words used for storage of precomputed grid.
 Two-electron integrals replicated using symmetry.
          MDV=    4194304000 using IRadAn=       1.
          Solving linear equations simultaneously, MaxMat=     384.
 FoF2E skips out because all densities are zero.
 CalDSu exits because no D1Ps are significant.
 FoFJK:  IHMeth= 1 ICntrl=       0 DoSepK=F KAlg= 0 I1Cent=           0 FoldK=F
 IRaf= 730000000 NMat=     141 IRICut=     352 DoRegI=T DoRafI=T ISym2E= 2 IDoP0=3 IntGTp=3.
 FoFCou: FMM=F IPFlag=           0 FMFlag=      100000 FMFlg1=           0
         NFxFlg=           0 DoJE=F BraDBF=F KetDBF=F FulRan=T
         wScrn=  0.000000 ICntrl=         0 IOpCl=  0 I1Cent=           0 NGrid=           0
         NMat0=  141 NMatS0=    141 NMatT0=    0 NMatD0=  141 NMtDS0=    0 NMtDT0=    0
 Integrals replicated using symmetry in FoFCou.
 Raff kept on since  68.39% of shell-pairs survive, threshold=   0.20 IRatSp=68.
          There are   144 degrees of freedom in the 1st order CPHF.  IDoFFX=6 NUNeed=     3.
    141 vectors produced by pass  0 Test12= 3.30D-14 1.00D-09 XBig12= 1.99D+02 4.55D+00.
 AX will form   141 AO Fock derivatives at one time.
    141 vectors produced by pass  1 Test12= 3.30D-14 1.00D-09 XBig12= 6.15D+01 1.29D+00.
    141 vectors produced by pass  2 Test12= 3.30D-14 1.00D-09 XBig12= 6.47D-01 7.89D-02.
    141 vectors produced by pass  3 Test12= 3.30D-14 1.00D-09 XBig12= 3.77D-03 5.30D-03.
    141 vectors produced by pass  4 Test12= 3.30D-14 1.00D-09 XBig12= 1.03D-05 3.17D-04.
    109 vectors produced by pass  5 Test12= 3.30D-14 1.00D-09 XBig12= 1.35D-08 1.12D-05.
     28 vectors produced by pass  6 Test12= 3.30D-14 1.00D-09 XBig12= 1.43D-11 3.29D-07.
      3 vectors produced by pass  7 Test12= 3.30D-14 1.00D-09 XBig12= 1.58D-14 1.27D-08.
      3 vectors produced by pass  8 Test12= 3.30D-14 1.00D-09 XBig12= 7.87D-16 2.86D-09.
      2 vectors produced by pass  9 Test12= 3.30D-14 1.00D-09 XBig12= 3.09D-16 1.41D-09.
 InvSVY:  IOpt=1 It=  1 EMax= 1.24D-14
 Solved reduced A of dimension   850 with   144 vectors.
 FullF1:  Do perturbations      1 to       3.
 Isotropic polarizability for W=    0.000000      226.24 Bohr**3.
 End of Minotr F.D. properties file   721 does not exist.
 End of Minotr F.D. properties file   722 does not exist.
 End of Minotr F.D. properties file   788 does not exist.
 Leave Link 1002 at Thu Nov  3 08:34:33 2022, MaxMem=  4194304000 cpu:            8948.4 elap:            1118.7
 (Enter /software/gaussian/G16-A.03/avx/g16/l601.exe)
 Copying SCF densities to generalized density rwf, IOpCl= 0 IROHF=0.

 **********************************************************************

            Population analysis using the SCF density.

 **********************************************************************

 Orbital symmetries:
       Occupied  (A) (A) (A) (A) (A) (A) (A) (A) (A) (A) (A) (A)
                 (A) (A) (A) (A) (A) (A) (A) (A) (A) (A) (A) (A)
                 (A) (A) (A) (A) (A) (A) (A) (A) (A) (A) (A) (A)
                 (A) (A) (A) (A) (A) (A) (A) (A) (A) (A) (A) (A)
                 (A) (A) (A) (A) (A) (A) (A) (A) (A) (A) (A) (A)
                 (A) (A) (A) (A) (A) (A) (A) (A) (A) (A) (A) (A)
                 (A) (A) (A) (A) (A) (A) (A) (A) (A) (A) (A) (A)
                 (A) (A) (A) (A) (A)
       Virtual   (A) (A) (A) (A) (A) (A) (A) (A) (A) (A) (A) (A)
                 (A) (A) (A) (A) (A) (A) (A) (A) (A) (A) (A) (A)
                 (A) (A) (A) (A) (A) (A) (A) (A) (A) (A) (A) (A)
                 (A) (A) (A) (A) (A) (A) (A) (A) (A) (A) (A) (A)
                 (A) (A) (A) (A) (A) (A) (A) (A) (A) (A) (A) (A)
                 (A) (A) (A) (A) (A) (A) (A) (A) (A) (A) (A) (A)
                 (A) (A) (A) (A) (A) (A) (A) (A) (A) (A) (A) (A)
                 (A) (A) (A) (A) (A) (A) (A) (A) (A) (A) (A) (A)
                 (A) (A) (A) (A) (A) (A) (A) (A) (A) (A) (A) (A)
                 (A) (A) (A) (A) (A) (A) (A) (A) (A) (A) (A) (A)
                 (A) (A) (A) (A) (A) (A) (A) (A) (A) (A) (A) (A)
                 (A) (A) (A) (A) (A) (A) (A) (A) (A) (A) (A) (A)
                 (A) (A) (A) (A) (A) (A) (A) (A) (A) (A) (A) (A)
                 (A) (A) (A) (A) (A) (A) (A) (A) (A) (A) (A) (A)
                 (A) (A) (A) (A) (A) (A) (A) (A) (A) (A) (A) (A)
                 (A) (A) (A) (A) (A) (A) (A) (A) (A) (A) (A) (A)
                 (A) (A) (A) (A) (A) (A) (A) (A) (A) (A) (A) (A)
                 (A) (A) (A) (A) (A) (A) (A) (A) (A) (A) (A) (A)
                 (A) (A) (A) (A) (A) (A) (A) (A) (A) (A) (A) (A)
                 (A) (A) (A) (A) (A) (A) (A) (A) (A) (A) (A) (A)
                 (A) (A) (A) (A) (A) (A) (A) (A) (A) (A) (A) (A)
                 (A) (A) (A) (A) (A) (A) (A) (A) (A) (A) (A) (A)
                 (A) (A) (A) (A) (A) (A) (A) (A) (A) (A) (A) (A)
                 (A) (A) (A) (A) (A) (A) (A) (A) (A) (A) (A) (A)
                 (A) (A) (A) (A) (A) (A) (A) (A) (A) (A) (A) (A)
                 (A) (A) (A) (A) (A) (A) (A) (A) (A) (A) (A) (A)
                 (A) (A) (A) (A) (A) (A) (A) (A) (A) (A) (A) (A)
                 (A) (A) (A) (A) (A) (A) (A) (A) (A) (A) (A) (A)
                 (A) (A) (A) (A) (A) (A) (A) (A) (A) (A) (A) (A)
                 (A) (A) (A) (A) (A) (A) (A) (A) (A) (A) (A) (A)
                 (A) (A) (A) (A) (A) (A) (A) (A) (A) (A) (A)
 The electronic state is 1-A.
 Alpha  occ. eigenvalues --  -19.24051 -19.24046 -14.35148 -14.35144 -10.30771
 Alpha  occ. eigenvalues --  -10.30770 -10.29654 -10.29653 -10.26653 -10.25441
 Alpha  occ. eigenvalues --  -10.25440 -10.24699 -10.24699 -10.24295 -10.24295
 Alpha  occ. eigenvalues --  -10.24256 -10.24256 -10.24211 -10.24211 -10.24190
 Alpha  occ. eigenvalues --  -10.24190 -10.24118 -10.24117 -10.22760 -10.22759
 Alpha  occ. eigenvalues --   -1.11483  -1.11260  -0.90831  -0.89870  -0.88394
 Alpha  occ. eigenvalues --   -0.88242  -0.85379  -0.80818  -0.79275  -0.76569
 Alpha  occ. eigenvalues --   -0.76564  -0.74219  -0.73544  -0.70229  -0.66550
 Alpha  occ. eigenvalues --   -0.65459  -0.63650  -0.62694  -0.62153  -0.61871
 Alpha  occ. eigenvalues --   -0.60308  -0.58144  -0.54781  -0.54060  -0.53647
 Alpha  occ. eigenvalues --   -0.52311  -0.50690  -0.49620  -0.48225  -0.47960
 Alpha  occ. eigenvalues --   -0.47151  -0.46412  -0.46140  -0.45712  -0.44562
 Alpha  occ. eigenvalues --   -0.44114  -0.43797  -0.43783  -0.43313  -0.43187
 Alpha  occ. eigenvalues --   -0.41521  -0.41165  -0.40952  -0.38858  -0.38528
 Alpha  occ. eigenvalues --   -0.38161  -0.37798  -0.37540  -0.37279  -0.36796
 Alpha  occ. eigenvalues --   -0.36225  -0.35474  -0.35369  -0.35070  -0.34734
 Alpha  occ. eigenvalues --   -0.34191  -0.28091  -0.27130  -0.27089  -0.26807
 Alpha  occ. eigenvalues --   -0.26758  -0.25165  -0.24562  -0.24068
 Alpha virt. eigenvalues --   -0.01749  -0.01528  -0.00775  -0.00770   0.03603
 Alpha virt. eigenvalues --    0.03739   0.07081   0.07333   0.08265   0.08805
 Alpha virt. eigenvalues --    0.09372   0.10266   0.10689   0.11972   0.12344
 Alpha virt. eigenvalues --    0.12586   0.13016   0.13171   0.13283   0.13715
 Alpha virt. eigenvalues --    0.14165   0.14404   0.15739   0.15800   0.16498
 Alpha virt. eigenvalues --    0.16791   0.17102   0.17270   0.18721   0.18735
 Alpha virt. eigenvalues --    0.19089   0.19216   0.20328   0.20768   0.20996
 Alpha virt. eigenvalues --    0.21697   0.24196   0.25261   0.25458   0.25993
 Alpha virt. eigenvalues --    0.27714   0.27714   0.29483   0.29694   0.30605
 Alpha virt. eigenvalues --    0.31016   0.31549   0.31939   0.33331   0.34848
 Alpha virt. eigenvalues --    0.36124   0.36371   0.36549   0.36968   0.39250
 Alpha virt. eigenvalues --    0.40408   0.41368   0.42049   0.42360   0.42832
 Alpha virt. eigenvalues --    0.42850   0.43630   0.44288   0.44716   0.46057
 Alpha virt. eigenvalues --    0.47301   0.47411   0.47751   0.48551   0.48862
 Alpha virt. eigenvalues --    0.49203   0.50446   0.50492   0.51045   0.51404
 Alpha virt. eigenvalues --    0.51424   0.52282   0.53282   0.53490   0.53809
 Alpha virt. eigenvalues --    0.54362   0.56218   0.56523   0.56978   0.57153
 Alpha virt. eigenvalues --    0.58775   0.58986   0.59644   0.60037   0.61926
 Alpha virt. eigenvalues --    0.62279   0.62370   0.62849   0.63371   0.63996
 Alpha virt. eigenvalues --    0.64440   0.64845   0.64855   0.65561   0.66174
 Alpha virt. eigenvalues --    0.66285   0.66571   0.66742   0.67038   0.67614
 Alpha virt. eigenvalues --    0.67995   0.68042   0.68100   0.68682   0.68770
 Alpha virt. eigenvalues --    0.69160   0.69266   0.69509   0.69638   0.71091
 Alpha virt. eigenvalues --    0.71213   0.72142   0.72206   0.72856   0.72886
 Alpha virt. eigenvalues --    0.73155   0.73613   0.74632   0.75241   0.75537
 Alpha virt. eigenvalues --    0.75691   0.75876   0.76214   0.76385   0.76766
 Alpha virt. eigenvalues --    0.77997   0.78325   0.79525   0.81623   0.82432
 Alpha virt. eigenvalues --    0.83001   0.83375   0.84107   0.85083   0.86132
 Alpha virt. eigenvalues --    0.87514   0.87770   0.89315   0.92977   0.93319
 Alpha virt. eigenvalues --    0.93944   0.94405   0.95453   0.97744   0.99368
 Alpha virt. eigenvalues --    1.01046   1.01276   1.03430   1.04733   1.05652
 Alpha virt. eigenvalues --    1.06325   1.08466   1.08824   1.09182   1.10327
 Alpha virt. eigenvalues --    1.12444   1.13864   1.15734   1.16979   1.19161
 Alpha virt. eigenvalues --    1.19513   1.21615   1.22116   1.25041   1.25048
 Alpha virt. eigenvalues --    1.25779   1.25780   1.26513   1.27790   1.28730
 Alpha virt. eigenvalues --    1.28969   1.29702   1.30769   1.31381   1.31680
 Alpha virt. eigenvalues --    1.32099   1.32817   1.33427   1.34539   1.36392
 Alpha virt. eigenvalues --    1.39041   1.40108   1.41215   1.44230   1.44885
 Alpha virt. eigenvalues --    1.48878   1.49659   1.51219   1.51805   1.54202
 Alpha virt. eigenvalues --    1.54914   1.56488   1.58031   1.60318   1.61184
 Alpha virt. eigenvalues --    1.64047   1.64080   1.64712   1.65852   1.66094
 Alpha virt. eigenvalues --    1.66373   1.67362   1.67894   1.68532   1.69270
 Alpha virt. eigenvalues --    1.71149   1.71549   1.71814   1.72576   1.72846
 Alpha virt. eigenvalues --    1.73615   1.73956   1.74553   1.75140   1.75287
 Alpha virt. eigenvalues --    1.76489   1.76567   1.76961   1.77023   1.77700
 Alpha virt. eigenvalues --    1.77901   1.78289   1.79096   1.79589   1.80092
 Alpha virt. eigenvalues --    1.81424   1.82175   1.82768   1.83490   1.83501
 Alpha virt. eigenvalues --    1.84589   1.85854   1.86014   1.86893   1.87085
 Alpha virt. eigenvalues --    1.87697   1.88568   1.88798   1.89804   1.90340
 Alpha virt. eigenvalues --    1.90671   1.91272   1.92478   1.93603   1.94738
 Alpha virt. eigenvalues --    1.95449   1.95874   1.97370   1.98159   1.98294
 Alpha virt. eigenvalues --    1.98703   1.98762   1.99161   2.00124   2.00836
 Alpha virt. eigenvalues --    2.01086   2.01689   2.04424   2.05272   2.05794
 Alpha virt. eigenvalues --    2.06853   2.07882   2.08635   2.09751   2.10337
 Alpha virt. eigenvalues --    2.11821   2.13132   2.14618   2.15411   2.15448
 Alpha virt. eigenvalues --    2.16104   2.16624   2.17055   2.18474   2.18480
 Alpha virt. eigenvalues --    2.20506   2.21059   2.25731   2.27394   2.28087
 Alpha virt. eigenvalues --    2.28102   2.28953   2.30211   2.30317   2.31417
 Alpha virt. eigenvalues --    2.31475   2.32395   2.32404   2.34778   2.35240
 Alpha virt. eigenvalues --    2.35581   2.35649   2.38632   2.39798   2.40946
 Alpha virt. eigenvalues --    2.41950   2.42499   2.42974   2.46104   2.47037
 Alpha virt. eigenvalues --    2.49901   2.52866   2.54018   2.54731   2.56978
 Alpha virt. eigenvalues --    2.57149   2.57819   2.60776   2.61707   2.61765
 Alpha virt. eigenvalues --    2.64732   2.64792   2.65537   2.65776   2.66548
 Alpha virt. eigenvalues --    2.66564   2.69978   2.71656   2.72115   2.74334
 Alpha virt. eigenvalues --    2.74353   2.75008   2.75239   2.75409   2.78414
 Alpha virt. eigenvalues --    2.78877   2.81210   2.83009   2.85817   2.87963
 Alpha virt. eigenvalues --    2.88152   2.88723   2.89419   2.89862   2.90019
 Alpha virt. eigenvalues --    2.91809   2.93464   2.93478   2.94510   2.96188
 Alpha virt. eigenvalues --    2.97281   2.97959   3.00197   3.00238   3.02739
 Alpha virt. eigenvalues --    3.03580   3.04858   3.05981   3.06505   3.06877
 Alpha virt. eigenvalues --    3.10792   3.10930   3.14675   3.14752   3.18462
 Alpha virt. eigenvalues --    3.21108   3.27226   3.27386   3.29065   3.29386
 Alpha virt. eigenvalues --    3.41449   3.47746   3.64725   3.64888   3.66385
 Alpha virt. eigenvalues --    3.67570
     Molecular Orbital Coefficients:
                          85        86        87        88        89
                           O         O         O         O         O
     Eigenvalues --    -0.26807  -0.26758  -0.25165  -0.24562  -0.24068
   1 1   C  1S          0.00225  -0.00040  -0.01097   0.00145  -0.00139
   2        2S         -0.00610   0.00124   0.01372  -0.00429   0.00272
   3        3S          0.01203  -0.00940   0.14661   0.01279   0.00672
   4        4PX         0.01577  -0.00126  -0.02551  -0.01039  -0.02151
   5        4PY         0.00626   0.00862  -0.04283   0.00393   0.00404
   6        4PZ         0.00415   0.01189  -0.06201   0.00293  -0.01072
   7        5PX         0.00383  -0.00120  -0.01789   0.00101  -0.02391
   8        5PY         0.00323   0.00555  -0.05407  -0.01120   0.00182
   9        5PZ        -0.00215   0.02023  -0.09756  -0.00280  -0.01485
  10        6D 0       -0.00009   0.00053  -0.00003  -0.00014  -0.00014
  11        6D+1       -0.00014  -0.00057   0.00183   0.00114  -0.00215
  12        6D-1       -0.00040   0.00055   0.00173  -0.00064   0.00198
  13        6D+2       -0.00007  -0.00006  -0.00001   0.00027  -0.00141
  14        6D-2       -0.00023  -0.00054   0.00167  -0.00052  -0.00038
  15 2   C  1S          0.00000  -0.01096  -0.00000   0.00711  -0.00000
  16        2S         -0.00000   0.01485   0.00000  -0.01353   0.00001
  17        3S         -0.00001   0.20834   0.00006  -0.10863  -0.00001
  18        4PX         0.01193   0.00001   0.00719  -0.00000   0.06151
  19        4PY        -0.02629   0.00002   0.07362   0.00001  -0.03038
  20        4PZ        -0.00000  -0.04024   0.00001   0.01324  -0.00001
  21        5PX         0.00954   0.00001  -0.08781  -0.00006   0.04146
  22        5PY        -0.03740   0.00002  -0.03432   0.00001  -0.03722
  23        5PZ        -0.00001  -0.09095  -0.00008   0.02157  -0.00001
  24        6D 0       -0.00000   0.00178   0.00000  -0.00159   0.00000
  25        6D+1       -0.00205   0.00000   0.00762   0.00000  -0.00156
  26        6D-1       -0.00048  -0.00000   0.00709   0.00000   0.00332
  27        6D+2       -0.00000   0.00148   0.00000  -0.00784   0.00000
  28        6D-2        0.00000   0.00033  -0.00000  -0.00363  -0.00000
  29 3   C  1S          0.00505  -0.00715   0.01025   0.00329  -0.03412
  30        2S         -0.01226   0.01908  -0.02662  -0.00961   0.08823
  31        3S         -0.02055  -0.08418   0.00204   0.02688   0.00693
  32        4PX        -0.00881   0.00369  -0.06805  -0.09225  -0.02042
  33        4PY         0.03416   0.03162  -0.13049  -0.14207  -0.03806
  34        4PZ         0.01127  -0.03125   0.02470   0.03106  -0.05979
  35        5PX         0.00254   0.06279  -0.07489  -0.08202   0.04591
  36        5PY         0.01882  -0.01467  -0.06939  -0.07831  -0.04735
  37        5PZ        -0.00946  -0.01310   0.02089   0.03057   0.03782
  38        6D 0       -0.00238  -0.00269  -0.00401  -0.00362  -0.00024
  39        6D+1        0.00147  -0.00601   0.01818   0.01477  -0.01687
  40        6D-1        0.00135   0.00533   0.01882   0.01847   0.01757
  41        6D+2        0.00370   0.00163   0.00425   0.00551  -0.00310
  42        6D-2        0.00025  -0.00072   0.00581   0.00738   0.00083
  43 4   N  1S          0.01376  -0.01790   0.01652   0.01069  -0.08009
  44        2S          0.02870  -0.03688   0.03512   0.02235  -0.16952
  45        3S          0.03340  -0.04420   0.03756   0.02626  -0.19376
  46        4PX         0.04075  -0.07294   0.20053   0.18777  -0.21509
  47        4PY        -0.00616   0.03790   0.19749   0.21535   0.17220
  48        4PZ         0.04424  -0.05394  -0.00186  -0.01727  -0.23575
  49        5PX        -0.03000   0.04101  -0.15322  -0.13716   0.13278
  50        5PY        -0.00149  -0.02349  -0.15306  -0.15905  -0.10664
  51        5PZ        -0.02549   0.04865   0.00302   0.01355   0.17343
  52        6D 0       -0.00087   0.00127   0.00335   0.00369   0.00357
  53        6D+1       -0.00229   0.00311  -0.00897  -0.00883   0.01065
  54        6D-1        0.00171   0.00018  -0.01154  -0.01263  -0.00855
  55        6D+2       -0.00162   0.00049  -0.00286  -0.00387   0.00440
  56        6D-2        0.00043  -0.00229  -0.00189  -0.00304  -0.00994
  57 5   C  1S          0.00838  -0.00191   0.00143  -0.00070  -0.02747
  58        2S         -0.01876   0.00656  -0.00441   0.00179   0.06885
  59        3S         -0.01819   0.00813   0.04536   0.05477   0.08513
  60        4PX        -0.01077  -0.05744   0.08291   0.07228  -0.10010
  61        4PY        -0.02205   0.00705   0.05617   0.06060   0.09139
  62        4PZ         0.00359  -0.01226   0.00830   0.00924  -0.02185
  63        5PX        -0.01306  -0.02065   0.02844   0.02360  -0.01545
  64        5PY        -0.00428   0.00405   0.02858   0.01909   0.02506
  65        5PZ         0.00244   0.00457   0.03202   0.03808   0.04068
  66        6D 0       -0.00108  -0.00133   0.00586   0.00598   0.00253
  67        6D+1        0.00237  -0.00396  -0.00065  -0.00164  -0.01619
  68        6D-1       -0.00039   0.00297  -0.00498  -0.00448   0.00750
  69        6D+2        0.00133  -0.00019   0.01445   0.01491   0.00034
  70        6D-2        0.00089  -0.00063   0.00047   0.00068  -0.00237
  71 6   C  1S          0.00138   0.01251  -0.01033  -0.00989   0.02098
  72        2S          0.00329  -0.02587   0.03143   0.03292  -0.05452
  73        3S         -0.03428  -0.05906  -0.03250  -0.05458  -0.08269
  74        4PX        -0.02094   0.02099  -0.05499  -0.05711   0.05633
  75        4PY         0.01713   0.01453  -0.05641  -0.05430  -0.01135
  76        4PZ        -0.01149   0.02322  -0.03683  -0.02693   0.08492
  77        5PX         0.00745   0.03105   0.03304   0.04098   0.05518
  78        5PY        -0.00987   0.00401  -0.03637  -0.03498   0.03917
  79        5PZ        -0.02246   0.01359  -0.02293  -0.01537   0.08991
  80        6D 0        0.00066   0.00016   0.00416   0.00469   0.00063
  81        6D+1       -0.00858  -0.00744   0.00319   0.00289   0.00232
  82        6D-1        0.00072  -0.00161   0.00434   0.00474  -0.00390
  83        6D+2        0.00826   0.00760  -0.00482  -0.00478  -0.00060
  84        6D-2       -0.00264  -0.00243  -0.00793  -0.00894  -0.00307
  85 7   H  1S         -0.03956  -0.01975   0.04151   0.04282   0.04749
  86        2S         -0.02609  -0.00592   0.01252   0.01404   0.04908
  87        3PX         0.00085   0.00155  -0.00202  -0.00211   0.00089
  88        3PY        -0.00035   0.00047   0.00008   0.00008   0.00176
  89        3PZ         0.00019   0.00087  -0.00190  -0.00163   0.00183
  90 8   O  1S          0.01103   0.01003   0.00168  -0.00027  -0.01019
  91        2S          0.02348   0.02126  -0.00089  -0.00471  -0.02254
  92        3S          0.05679   0.03217   0.05119   0.04167  -0.07210
  93        4PX         0.06754   0.07567   0.08472   0.11347   0.08819
  94        4PY         0.02948   0.01294   0.21221   0.23262   0.03091
  95        4PZ        -0.06014  -0.00609  -0.02578  -0.02187   0.10083
  96        5PX         0.05315   0.05823   0.07891   0.10596   0.07430
  97        5PY         0.02150   0.00720   0.17231   0.18644   0.01671
  98        5PZ        -0.05147  -0.00689  -0.03320  -0.03169   0.07395
  99        6D 0        0.00292   0.00128   0.00087   0.00066  -0.00287
 100        6D+1       -0.00243  -0.00143  -0.00202  -0.00294  -0.00001
 101        6D-1       -0.00075  -0.00096  -0.00306  -0.00338  -0.00093
 102        6D+2       -0.00133  -0.00119  -0.00016   0.00036   0.00062
 103        6D-2       -0.00120  -0.00117  -0.00023  -0.00027  -0.00068
 104 9   C  1S          0.00032  -0.00134   0.01760   0.01892   0.00264
 105        2S         -0.00417  -0.00013  -0.05116  -0.05581  -0.00854
 106        3S          0.03538   0.03484   0.02880   0.01474  -0.01940
 107        4PX         0.13543   0.11943   0.05129   0.06584   0.01485
 108        4PY        -0.12937  -0.13233   0.06693   0.05858  -0.01084
 109        4PZ        -0.15136  -0.15431   0.01808   0.00206  -0.03311
 110        5PX         0.07847   0.08308   0.00235   0.00035   0.03468
 111        5PY        -0.08498  -0.08328   0.09130   0.07992   0.00172
 112        5PZ        -0.11096  -0.11107  -0.01187  -0.02681  -0.02446
 113        6D 0        0.00018  -0.00108  -0.00035   0.00015  -0.00039
 114        6D+1       -0.00219  -0.00294   0.00077  -0.00026  -0.00302
 115        6D-1       -0.00149  -0.00249  -0.00029  -0.00071  -0.00296
 116        6D+2        0.00451   0.00307   0.00034   0.00096  -0.00139
 117        6D-2        0.00008  -0.00026  -0.00322  -0.00291  -0.00067
 118 10  C  1S          0.00089  -0.00035  -0.00406  -0.00427  -0.00383
 119        2S         -0.00328  -0.00057   0.00678   0.00762   0.00759
 120        3S         -0.00399   0.00687  -0.02579  -0.02803   0.03587
 121        4PX         0.06943   0.06106  -0.04132  -0.02678   0.00941
 122        4PY        -0.06446  -0.05695   0.00661  -0.00759  -0.02208
 123        4PZ        -0.08400  -0.06715   0.02836   0.01523  -0.00013
 124        5PX         0.05447   0.03947  -0.01722   0.00253  -0.00020
 125        5PY        -0.03186  -0.02573   0.04529   0.03350  -0.00457
 126        5PZ        -0.06503  -0.06194  -0.02731  -0.02768  -0.02011
 127        6D 0       -0.00701  -0.00710   0.00257   0.00189  -0.00115
 128        6D+1        0.00527   0.00503   0.00307   0.00327   0.00075
 129        6D-1        0.00323   0.00353   0.00115   0.00118   0.00082
 130        6D+2       -0.00681  -0.00734  -0.00044  -0.00088  -0.00146
 131        6D-2       -0.00458  -0.00397  -0.00216  -0.00283  -0.00046
 132 11  C  1S         -0.00028  -0.00034   0.00419   0.00451   0.00132
 133        2S          0.00074   0.00120  -0.01068  -0.01166  -0.00249
 134        3S         -0.00944  -0.00674  -0.01304  -0.02121  -0.01261
 135        4PX        -0.06057  -0.07172  -0.00390  -0.00433  -0.01480
 136        4PY         0.05837   0.06549   0.03756   0.03849   0.01935
 137        4PZ         0.07043   0.07779   0.02627   0.02619   0.01481
 138        5PX        -0.03561  -0.04167   0.00886   0.00715  -0.00367
 139        5PY         0.04489   0.04807   0.02719   0.03149   0.01615
 140        5PZ         0.05086   0.05940   0.03729   0.03341   0.01723
 141        6D 0        0.00744   0.00723  -0.00005   0.00063   0.00127
 142        6D+1        0.00297   0.00241  -0.00103  -0.00060  -0.00008
 143        6D-1        0.00548   0.00497  -0.00170  -0.00099   0.00046
 144        6D+2       -0.00719  -0.00670   0.00139   0.00022  -0.00170
 145        6D-2        0.00389   0.00389  -0.00031   0.00007   0.00061
 146 12  C  1S         -0.00068  -0.00038   0.00012   0.00026   0.00069
 147        2S          0.00150   0.00065  -0.00060  -0.00095  -0.00186
 148        3S          0.00311  -0.00089  -0.01704  -0.00796  -0.00332
 149        4PX        -0.13161  -0.12646   0.00046  -0.01120  -0.01948
 150        4PY         0.12441   0.12284  -0.00874   0.00342   0.02190
 151        4PZ         0.14959   0.14783  -0.00988   0.00503   0.02693
 152        5PX        -0.09252  -0.08933   0.00914  -0.00263  -0.01565
 153        5PY         0.08470   0.08405  -0.00914  -0.00228   0.01445
 154        5PZ         0.10841   0.10715   0.00013   0.01054   0.02215
 155        6D 0        0.00025  -0.00097  -0.00190  -0.00144  -0.00093
 156        6D+1       -0.00222  -0.00222   0.00096   0.00068  -0.00043
 157        6D-1       -0.00249  -0.00253  -0.00076  -0.00091  -0.00055
 158        6D+2        0.00411   0.00386  -0.00019   0.00010   0.00024
 159        6D-2        0.00022  -0.00010  -0.00243  -0.00209  -0.00019
 160 13  C  1S          0.00060  -0.00128   0.00398   0.00394  -0.00271
 161        2S         -0.00105   0.00358  -0.00886  -0.00848   0.00718
 162        3S         -0.00997  -0.00156  -0.00426  -0.01436   0.01067
 163        4PX        -0.06476  -0.06093   0.04450   0.03393  -0.00973
 164        4PY         0.06659   0.05002  -0.01077  -0.00154  -0.00515
 165        4PZ         0.07827   0.06351  -0.02910  -0.01803  -0.00050
 166        5PX        -0.04383  -0.03988   0.02648   0.02347  -0.00364
 167        5PY         0.04597   0.03481  -0.01432  -0.00770  -0.00651
 168        5PZ         0.05695   0.04635  -0.02115  -0.01035   0.00095
 169        6D 0       -0.00678  -0.00670   0.00075   0.00006  -0.00118
 170        6D+1        0.00524   0.00512   0.00135   0.00171   0.00090
 171        6D-1        0.00333   0.00354   0.00091   0.00115   0.00093
 172        6D+2       -0.00701  -0.00773   0.00002  -0.00057  -0.00220
 173        6D-2       -0.00432  -0.00408  -0.00017  -0.00057  -0.00060
 174 14  C  1S         -0.00120   0.00234  -0.00437  -0.00376   0.00657
 175        2S          0.00167  -0.00691   0.00863   0.00656  -0.01747
 176        3S          0.01392  -0.00267   0.02052   0.03829  -0.02321
 177        4PX         0.06109   0.08194  -0.00705  -0.00184   0.03778
 178        4PY        -0.06464  -0.06707  -0.02426  -0.02674  -0.01137
 179        4PZ        -0.07449  -0.07865  -0.03388  -0.03663  -0.01668
 180        5PX         0.04425   0.05438  -0.01002  -0.00991   0.01378
 181        5PY        -0.04442  -0.04883  -0.02604  -0.02310  -0.01263
 182        5PZ        -0.05334  -0.05483  -0.02531  -0.03340  -0.01131
 183        6D 0        0.00779   0.00708   0.00107   0.00188   0.00057
 184        6D+1        0.00295   0.00225  -0.00068  -0.00031  -0.00045
 185        6D-1        0.00539   0.00524  -0.00282  -0.00237   0.00050
 186        6D+2       -0.00713  -0.00635   0.00111   0.00023  -0.00045
 187        6D-2        0.00379   0.00441  -0.00230  -0.00195   0.00136
[...]
 00012654,-0.00067518,0.00183122,0.00163528,0.19840055,-0.00005466,0.00
 000481,0.00008731,0.00012781,-0.00002906,-0.00006407,0.00019715,-0.000
 03444,-0.00009476,-0.00013429,-0.00005954,0.00000079,0.00002641,0.0000
 4366,-0.00003014,0.00006567,0.00003967,0.00000480,-0.00001195,0.000004
 36,0.00000297,-0.00015636,-0.00001553,0.00007925,0.00000223,-0.0000008
 3,0.00000831,-0.00000768,-0.00000460,-0.00000183,-0.00000362,0.0000038
 2,0.00000743,-0.00000376,-0.00000051,-0.00000262,-0.00000107,-0.000003
 08,-0.00000080,-0.00000330,-0.00000769,-0.00000877,0.00000558,0.000768
 37,-0.00062316,-0.00032089,-0.00169722,0.00024355,0.00172331,-0.000081
 09,0.00014487,-0.00058624,-0.00128410,-0.00252150,-0.00014115,0.000070
 94,-0.00008117,-0.00056583,0.00069004,-0.00018250,-0.01376661,-0.00868
 398,-0.00096108,-0.00111873,0.00130963,0.00519477,0.00087295,-0.000177
 78,-0.00006741,-0.00188233,0.00386869,0.00196800,0.00103365,0.00345064
 ,0.00220148,-0.14697790,-0.18988204,0.01958759,-0.00003817,-0.00003639
 ,0.00012365,0.00001253,-0.00000637,-0.00000734,-0.00001475,0.00003663,
 -0.00001873,0.00000638,-0.00000046,-0.00000540,-0.00001965,-0.00000848
 ,-0.00000276,-0.00000439,0.00000733,0.00001705,0.00000870,0.00001270,0
 .00000335,0.00000127,0.00000052,-0.00000339,-0.00000168,0.00000133,-0.
 00000261,-0.00000207,0.00000249,-0.00000131,0.00000497,-0.00000020,-0.
 00000080,0.00002957,0.00019205,-0.00009699,-0.00004658,0.00034742,-0.0
 0030059,-0.00080154,-0.00037689,0.00004783,0.00030650,-0.00044154,-0.0
 0039520,0.00009033,0.00002055,0.00010651,0.00174121,-0.00119003,-0.001
 68128,0.16043350,0.19313949,0.00005375,-0.00004013,-0.00009094,-0.0000
 8899,-0.00000709,0.00011173,-0.00010755,-0.00017491,0.00008712,-0.0000
 3715,0.00011514,-0.00016832,0.00001698,-0.00001691,0.00002921,0.000003
 28,-0.00001896,0.00000243,0.00000791,-0.00000183,-0.00000218,0.0000402
 2,0.00007626,-0.00002033,0.00000732,0.00001071,-0.00000203,-0.00000216
 ,0.00000421,-0.00000658,0.00000323,0.00000210,-0.00000149,-0.00000191,
 0.00000139,-0.00000281,-0.00000058,0.00000027,-0.00000195,-0.00000006,
 0.00000040,-0.00000264,-0.00014057,-0.00075408,-0.00001057,0.00034183,
 0.00102202,-0.00000237,-0.00004161,-0.00066665,0.00029504,0.00169490,-
 0.00146645,-0.00038771,-0.00012103,-0.00015547,0.00005924,-0.00119359,
 0.00175923,-0.00146087,0.01634424,0.01446300,0.00377695,-0.00232665,0.
 00498996,-0.00158199,-0.00011961,-0.00000169,-0.00110300,-0.00502999,0
 .00241501,-0.00077522,-0.01620288,-0.01549979,0.00560279,0.00752954,0.
 01981051,-0.05423087,0.00012117,-0.00003463,0.00004006,-0.00002500,0.0
 0000994,-0.00000950,0.00002158,-0.00003506,0.00001846,-0.00001175,0.00
 002798,-0.00000009,0.00000697,0.00000251,0.00000064,0.00002230,-0.0000
 0054,-0.00003099,-0.00000409,-0.00000335,0.00000901,-0.00000418,-0.000
 00240,-0.00000065,-0.00000095,-0.00000062,0.00000087,-0.00000036,-0.00
 000107,0.00000020,-0.00000008,-0.00000203,0.00000045,0.00033640,-0.000
 40582,0.00013571,-0.00042951,-0.00097289,-0.00149062,0.00081684,0.0008
 8706,0.00007234,0.00033716,-0.00040362,-0.00024471,-0.00076665,-0.0007
 1289,0.00010285,0.00168742,-0.00163157,-0.00056906,-0.00270561,-0.0225
 6480,0.05192285,0.00108456,-0.00048124,0.00032937,0.01002772,-0.009759
 44,-0.00966594,0.00097442,-0.00044950,-0.00003178,-0.00003399,0.000207
 13,0.00009596,-0.00003245,0.00002669,-0.00004547,-0.00046108,-0.000152
 48,0.00006992,0.00003568,0.00000953,-0.00000597,-0.00071963,-0.0006192
 3,-0.00014766,-0.00000585,0.00000807,-0.00002429,0.00001675,-0.0000046
 8,0.00000591,0.00000562,-0.00000821,-0.00000048,0.00001018,0.00000035,
 0.00001125,-0.00000269,0.00000768,0.00000289,0.00001260,0.00001325,0.0
 0001597,0.00069615,-0.00036218,-0.00029321,-0.00300878,-0.00216277,-0.
 00173152,0.00040828,0.00081863,0.00033731,0.00026122,-0.00022293,-0.00
 011229,-0.00000889,0.00003011,0.00001212,0.00020855,-0.00014335,0.0002
 1737,-0.00001198,0.00001128,-0.00003151,0.00001080,0.00003737,-0.00000
 178,0.00002027,0.00000741,0.00001467,0.00001762,0.00000364,0.00000409,
 0.00000354,0.00000428,0.00002707,-0.00003434,-0.00001994,0.00005095,-0
 .17660344,0.10986489,0.09396456,0.00005421,-0.00010127,0.00014457,-0.0
 0001070,0.00022168,0.00006272,-0.00006506,0.00011342,0.00000591,-0.000
 02182,0.00002911,0.00000052,0.00003686,0.00000892,-0.00004673,-0.00000
 534,-0.00000638,-0.00001175,0.00000241,0.00000273,0.00000521,0.0000036
 6,0.00000031,0.00000364,0.00000618,-0.00000320,0.00000263,-0.00001331,
 0.00000447,0.00000295,-0.00001399,0.00001690,0.00000813,0.00011635,-0.
 00000104,-0.00006462,0.00001191,-0.00000242,-0.00000896,-0.00000533,-0
 .00000316,0.00000167,-0.00000678,0.00000206,-0.00000432,0.00000376,-0.
 00000034,-0.00000302,-0.00000368,-0.00001943,-0.00002379,0.18630558,0.
 00033572,0.00060837,0.00147629,0.01161698,-0.01165598,-0.00934282,0.00
 264600,-0.00138395,-0.00160381,-0.00033424,0.00037899,0.00029186,-0.00
 003996,0.00007524,-0.00007984,-0.00081103,-0.00037843,0.00044740,-0.00
 000821,0.00000895,-0.00003395,0.00001734,0.00110631,0.00067444,0.00003
 401,0.00007699,-0.00005478,0.00005197,-0.00002593,0.00002106,-0.000000
 69,-0.00001715,0.00000771,0.00002626,-0.00000232,0.00002662,-0.0000086
 5,0.00000462,0.00001696,0.00000506,0.00002281,0.00003946,0.00056851,-0
 .00025748,-0.00072021,-0.00393213,-0.00138835,-0.00143526,0.00002973,0
 .00059734,0.00047181,0.00015042,-0.00014627,0.00002138,0.00001804,0.00
 003802,-0.00000099,0.00020669,-0.00019906,0.00037293,-0.00003173,-0.00
 002600,-0.00002689,-0.00000229,-0.00001019,0.00002965,0.00001798,0.000
 00995,0.00001887,0.00001174,0.00000323,0.00000706,-0.00000050,0.000015
 94,-0.00003796,0.00000351,-0.00001775,0.00002963,0.10708869,-0.1331895
 1,-0.07415698,-0.00014214,-0.00005268,0.00019348,-0.00019796,0.0005652
 9,-0.00030722,-0.00011337,0.00004955,0.00001612,-0.00002490,0.00005952
 ,0.00001507,0.00001940,-0.00003684,-0.00000458,0.00000095,-0.00000046,
 -0.00002797,0.00001032,0.00000787,0.00001229,0.00000810,0.00000204,0.0
 0000440,0.00001287,-0.00000433,0.00000446,-0.00001729,0.00001518,-0.00
 000835,0.00002001,0.00002401,-0.00003039,0.00017489,0.00000259,-0.0000
 8171,0.00000436,-0.00000071,-0.00001398,0.00000903,0.00000248,0.000001
 19,0.00000739,0.00000331,0.00000255,0.00000001,-0.00000090,0.00000487,
 -0.00002078,0.00004486,-0.00002587,-0.11444010,0.14139740,0.00164102,-
 0.00023981,0.00095295,0.01429768,-0.01145176,-0.01125861,0.00106689,-0
 .00002905,-0.00006441,-0.00005388,0.00007038,0.00011559,0.00003147,0.0
 0004921,-0.00002184,-0.00031481,-0.00004704,0.00035225,0.00002508,-0.0
 0000043,-0.00001121,0.00044187,0.00077430,-0.00013584,0.00004126,0.000
 04150,-0.00003792,0.00001965,-0.00001958,-0.00000539,-0.00000443,-0.00
 000104,-0.00000036,0.00000144,0.00000177,-0.00000137,-0.00000697,0.000
 00894,-0.00000210,0.00000186,0.00001801,-0.00000110,0.00084401,-0.0008
 2610,-0.00072618,-0.00341845,-0.00117580,-0.00175946,0.00036352,-0.000
 64013,-0.00020977,-0.00044077,0.00015026,-0.00008817,0.00006907,-0.000
 00531,-0.00001211,0.00021207,-0.00036927,0.00037785,-0.00002720,0.0000
 3847,-0.00005844,0.00001301,-0.00000542,0.00003464,0.00000486,-0.00000
 696,0.00000576,0.00003098,0.00001102,0.00002629,0.00000557,0.00001952,
 0.00003413,-0.00000393,-0.00000373,0.00003630,0.09123070,-0.07414984,-
 0.11049899,-0.00016439,0.00019438,0.00036271,-0.00078882,0.00030944,-0
 .00036787,0.00000595,-0.00001609,-0.00009713,-0.00002336,0.00001833,-0
 .00001089,-0.00001579,0.00002475,-0.00000933,0.00000567,0.00000540,-0.
 00000010,0.00000202,0.00000024,0.00000370,-0.00000062,-0.00000065,0.00
 000131,-0.00000367,-0.00000285,0.00000256,-0.00000667,-0.00000220,0.00
 001109,0.00000120,0.00002085,-0.00002903,0.00013283,-0.00006069,-0.000
 11023,-0.00001351,-0.00001060,0.00000085,0.00000768,0.00000192,0.00000
 479,0.00000379,-0.00000144,0.00000188,0.00001095,-0.00001075,0.0000060
 9,-0.00001504,-0.00001386,-0.00004572,-0.09747369,0.08422845,0.1177667
 3,-0.00101464,-0.00252293,-0.00188064,-0.00765113,0.00783795,-0.007482
 82,0.00007620,0.00203321,-0.00124300,0.00038581,-0.00041103,0.00059871
 ,-0.00021135,-0.00007323,0.00003600,-0.00008565,-0.00004450,-0.0000952
 5,-0.00002358,-0.00000028,0.00000059,-0.00011045,-0.00029853,0.0002670
 4,-0.00001650,-0.00002273,0.00000382,0.00000455,0.00001268,0.00002253,
 0.00000271,-0.00001102,0.00000275,0.00001325,-0.00000666,0.00001254,0.
 00000946,-0.00000492,0.00001114,0.00000243,0.00000712,0.00001852,0.000
 20860,-0.00037443,0.00010194,0.00018239,0.00067036,0.00084633,-0.00004
 281,-0.00017343,-0.00023809,0.00000302,0.00010360,0.00003174,0.0000039
 0,-0.00001597,-0.00001836,-0.00006474,-0.00000987,-0.00009897,0.000056
 54,-0.00006191,0.00005461,-0.00001430,-0.00003880,0.00001797,-0.000013
 30,-0.00000846,0.00000403,-0.00002433,-0.00002447,-0.00002472,-0.00003
 147,-0.00000350,-0.00010987,0.00016706,0.00000629,-0.00003838,-0.11172
 916,0.07787731,-0.08766781,0.00002710,0.00058468,-0.00085704,0.0003333
 9,-0.00026746,0.00023484,0.00005425,0.00014216,-0.00016444,0.00003859,
 0.00000373,0.00001322,-0.00004075,-0.00007815,-0.00000464,-0.00001138,
 -0.00001254,-0.00002501,0.00000567,0.00000607,0.00000345,0.00000530,0.
 00000058,0.00000076,0.00000730,-0.00000003,0.00000083,-0.00000095,0.00
 000613,-0.00000843,0.00001571,0.00000555,-0.00002056,-0.00000314,-0.00
 000522,0.00000551,0.00000278,0.00000392,-0.00000634,0.00000255,0.00000
 365,0.00000093,0.00000321,0.00000445,0.00000330,-0.00000053,0.00000529
 ,0.00000708,0.00000725,0.00000316,-0.00000472,-0.00835893,0.00982403,-
 0.01457557,0.11631052,-0.00183688,-0.00231309,-0.00263266,-0.01017557,
 0.01070737,-0.01352730,-0.00024847,0.00175932,-0.00059705,0.00051474,0
 .00008828,0.00023643,-0.00006671,-0.00006119,0.00006930,-0.00010661,0.
 00001869,0.00003695,0.00001925,-0.00001872,-0.00000080,0.00025870,-0.0
 0012520,-0.00003741,-0.00000020,-0.00001092,-0.00001269,0.00000024,0.0
 0001094,0.00000498,0.00000289,-0.00000682,0.,0.00000617,-0.00000310,0.
 00000536,0.00000411,0.00000205,0.00000227,0.00000150,0.00000627,0.0000
 0641,-0.00002738,-0.00007676,0.00035769,-0.00009776,0.00163972,-0.0001
 9390,-0.00029956,-0.00001112,0.00006341,0.00015493,0.00001991,0.000064
 23,-0.00001100,-0.00001191,-0.00000340,0.00002608,0.00002176,-0.000037
 99,0.00002361,0.00002407,-0.00003561,-0.00002042,-0.00005058,-0.000003
 04,-0.00002193,-0.00003185,0.00000486,-0.00000737,-0.00000919,-0.00002
 704,0.00001314,-0.00000309,0.00000110,-0.00001294,0.00005262,0.0000182
 2,0.07987155,-0.14114904,0.10797946,-0.00058432,0.00088710,-0.00089298
 ,-0.00021517,-0.00005545,0.00002647,0.00010118,-0.00005267,-0.00019438
 ,0.00001078,0.00001162,-0.00000939,0.00000911,0.00001494,-0.00006234,-
 0.00000829,-0.00000637,-0.00000993,0.00000134,0.00000296,0.00000198,0.
 00000233,-0.00000053,0.00000155,0.00000139,-0.00000173,0.00000120,-0.0
 0000547,-0.00000106,0.00000379,-0.00003524,0.00000040,0.00001996,-0.00
 002334,0.00000985,0.00000692,0.00000138,0.00000067,0.00000235,-0.00000
 866,-0.00000042,0.00000591,-0.00001477,0.00000394,-0.00000040,0.000005
 49,0.00000767,0.00000475,0.00001660,-0.00003868,-0.00001473,0.00524769
 ,-0.00872864,0.01172829,-0.08276459,0.14682153,-0.00201456,-0.00387246
 ,-0.00255632,-0.00843127,0.01170018,-0.01365776,0.00088937,0.00152069,
 -0.00020891,0.00021113,-0.00042173,0.00050209,-0.00013778,-0.00009436,
 0.00001352,-0.00001214,0.00004963,-0.00004873,-0.00000045,-0.00001594,
 0.00000750,-0.00001738,-0.00023257,0.00007799,-0.00002652,-0.00002403,
 -0.00001088,-0.00002229,0.00001309,0.00001029,0.00000362,-0.00000569,0
 .00001687,0.00000261,-0.00000148,0.00000833,0.00000314,-0.00000658,-0.
 00000035,0.00000650,-0.00001430,-0.00000024,0.00035719,-0.00046793,0.0
 0014435,-0.00133389,0.00164485,0.00055967,0.00065524,-0.00006349,0.000
 00319,-0.00009162,-0.00003850,-0.00025880,0.00000072,-0.00002098,0.000
 01656,0.00000442,-0.00004324,-0.00013481,-0.00005618,0.00009539,-0.000
 07546,0.00004781,0.00007872,-0.00001639,-0.00000649,-0.00000043,-0.000
 00579,0.00001961,-0.00001720,0.00002030,0.00004817,0.00000787,0.000121
 10,-0.00006835,-0.00002963,0.00006180,-0.08748793,0.10504307,-0.165880
 76,-0.00085693,0.00089357,-0.00073635,-0.00000543,0.00005069,0.0001058
 9,0.00014453,-0.00019355,0.00036263,-0.00001416,0.00000544,0.00000395,
 -0.00000350,-0.00000979,-0.00002510,-0.00000217,0.00000733,-0.00000950
 ,0.00000310,0.00000481,-0.00000189,0.00000200,0.00000199,-0.00000173,0
 .00000141,0.00000200,-0.00000147,0.00000050,0.00000127,-0.00000029,-0.
 00000312,0.00001378,0.00001938,-0.00002425,-0.00001692,-0.00000549,-0.
 00000617,-0.00001273,0.00000609,-0.00000658,-0.00000546,-0.00000130,-0
 .00001257,-0.00000551,-0.00000573,0.00000383,0.00000388,-0.00000669,0.
 00001818,-0.00008051,-0.00003130,0.00776653,-0.00958422,0.01167000,0.0
 9819002,-0.11194380,0.17806277,0.00040606,0.00000221,0.00134202,-0.010
 26624,-0.00833823,0.00629710,-0.00023186,-0.00064935,-0.00276311,-0.00
 053673,-0.00046909,0.00025387,0.00020863,-0.00004889,0.00032755,0.0003
 6004,0.00015446,-0.00018167,-0.00004084,-0.00000790,0.00001656,-0.0003
 2454,-0.00052503,0.00008500,-0.00001544,-0.00002511,0.00004840,-0.0000
 0654,0.00000172,-0.00001369,-0.00000152,0.00001513,0.00000136,-0.00001
 834,0.00000761,-0.00001740,-0.00000352,0.00000249,-0.00001410,0.000003
 42,-0.00001758,-0.00002923,0.00001267,-0.00005874,0.00005564,-0.000240
 90,0.00014029,0.00034203,-0.00054867,0.00147460,0.00107334,0.00025401,
 0.00003337,0.00009204,0.00000006,0.00000871,-0.00000032,-0.00001569,0.
 00010014,0.00001061,0.00006532,0.00001588,-0.00000190,-0.00000552,-0.0
 0006692,0.00001171,-0.00003007,-0.00003715,-0.00005022,-0.00000836,0.0
 0000269,-0.00000570,-0.00000013,0.00000438,0.00000060,0.00000853,0.000
 02024,-0.00004073,-0.16948043,-0.11112934,0.08724049,0.00033347,0.0002
 1509,-0.00000541,-0.00017438,-0.00005197,0.00001286,-0.00001046,0.0001
 9839,-0.00078863,-0.00000955,-0.00002204,-0.00000281,-0.00014889,-0.00
 004432,0.00009012,0.00001591,0.00001476,0.00002158,-0.00000446,-0.0000
 0602,-0.00000522,-0.00000701,-0.00000105,-0.00000261,-0.00001130,0.000
 00223,-0.00000231,0.00000674,-0.00000736,0.00000789,-0.00000535,-0.000
 01506,-0.00000959,0.00002371,0.00002154,0.00000538,-0.00002049,0.00000
 618,0.00003214,-0.00000298,0.00000337,0.00000322,0.00000321,-0.0000010
 6,0.00000497,0.00000425,-0.00000807,0.00000360,-0.00000422,-0.00000826
 ,-0.00000203,-0.01090683,-0.01279401,0.00683948,0.01151954,0.01029844,
 -0.00773791,0.17985572,0.00120314,0.00072557,0.00091469,-0.01246863,-0
 .01202564,0.00759646,0.00016247,-0.00184607,-0.00402244,-0.00092274,-0
 .00017725,-0.00009785,0.00042190,0.00001042,0.00044788,0.00005831,-0.0
 0011959,0.00023343,-0.00004861,-0.00000428,0.00000642,0.00014978,0.000
 51336,0.00030363,0.00002867,0.00004822,0.00002771,0.00000737,-0.000024
 43,-0.00001987,-0.00000294,0.00001707,0.00002154,-0.00001375,0.0000088
 0,-0.00000934,-0.00001572,-0.00000010,-0.00000759,-0.00000082,-0.00002
 388,-0.00002821,0.00038193,0.00060399,-0.00027443,-0.00263238,-0.00148
 363,0.00192959,0.00066939,0.00118093,0.00003947,0.00104793,-0.00036117
 ,-0.00019611,-0.00006763,0.00005541,0.00004496,-0.00013265,0.00017698,
 -0.00007437,-0.00001970,-0.00002685,0.00000013,0.00002626,0.00009674,-
 0.00006460,0.00004016,0.00003740,0.00003351,-0.00000761,-0.00000168,-0
 .00001742,0.00000201,-0.00001154,0.00001922,-0.00007980,-0.00008367,0.
 00005649,-0.10964973,-0.14370662,0.07895053,0.00026729,-0.00005557,-0.
 00005072,0.00005200,0.00004965,-0.00013722,-0.00022125,0.00056526,-0.0
 0030879,-0.00004776,0.00000069,-0.00002073,-0.00019997,-0.00000942,0.0
 0015632,0.00002945,0.00003662,0.00003506,-0.00000345,-0.00000473,-0.00
 000522,-0.00000616,0.00000284,-0.00000323,-0.00000670,0.00000317,-0.00
 000314,0.00000302,-0.00000095,0.00000228,0.00002665,0.00000475,0.00001
 708,0.00002552,0.00007117,0.00001523,0.00003616,0.00000505,-0.00001495
 ,-0.00001320,-0.00000778,-0.00000882,-0.00000928,0.00000151,-0.0000093
 4,-0.00001430,0.00001141,-0.00001779,-0.00000177,0.00000056,0.00001816
 ,0.01226570,0.01240206,-0.00862504,-0.01190723,-0.00934352,0.00608479,
 0.12158864,0.15268875,-0.00001932,-0.00053918,0.00173315,-0.01706487,-
 0.01427852,0.00885167,-0.00022580,-0.00212434,-0.00455569,-0.00071573,
 -0.00075907,0.00059790,0.00032672,-0.00004123,0.00053403,0.00001764,-0
 .00006892,0.00007884,-0.00004918,-0.00000401,0.00001351,-0.00032803,0.
 00044970,0.00058444,0.00001952,0.00002134,0.00001061,0.00000731,-0.000
 02352,-0.00001027,-0.00000013,0.00001028,0.00000773,-0.00000636,0.0000
 0497,-0.00000538,-0.00000979,0.00000421,-0.00000244,0.00000169,-0.0000
 0778,-0.00001473,0.00011290,0.00026279,-0.00002143,-0.00043824,-0.0002
 8939,0.00114380,0.00016030,-0.00076129,-0.00142315,0.00060042,-0.00018
 385,-0.00011626,-0.00003930,0.00001815,0.00000830,-0.00005286,0.000120
 91,-0.00009084,0.00005717,0.00002524,0.00004346,-0.00001113,-0.0000517
 3,-0.00000530,0.00000302,-0.00002040,-0.00001464,-0.00001606,0.0000077
 0,-0.00004395,-0.00001348,-0.00000292,-0.00002402,0.00000685,-0.000003
 09,-0.00001388,0.08950907,0.08202728,-0.10726042,0.00023491,-0.0000265
 6,0.00010587,0.00001292,0.00013722,-0.00004865,0.00006305,0.00030769,-
 0.00036753,0.00000161,0.00000406,-0.00001659,-0.00023529,-0.00006781,0
 .00016993,0.00001960,0.00001873,0.00001846,-0.00000209,-0.00000293,-0.
 00000102,-0.00000309,0.00000102,-0.00000009,-0.00000294,0.00000031,-0.
 00000084,-0.00000339,0.00000044,0.00000226,-0.00000487,-0.00000794,0.0
 0000471,-0.00000322,0.00004846,0.00001765,0.00002083,0.00001283,-0.000
 00003,-0.00001959,-0.00000013,0.00000502,-0.00000974,0.00000668,-0.000
 00335,0.00000017,0.00000137,-0.00000266,0.00000443,-0.00001414,0.00000
 658,0.00656490,0.00914180,-0.00620390,0.01407445,0.00958301,-0.0081122
 5,-0.09254500,-0.08293737,0.11442139\\0.00070355,0.00068273,0.00199371
 ,-0.00000675,0.00056035,-0.00000467,0.00632522,-0.03469602,0.00073084,
 0.00843579,0.00437811,0.00045130,0.01119034,0.00672381,-0.01112035,0.0
 0440633,0.00665272,0.00106219,-0.00132483,0.00092506,-0.00011568,-0.02
 413807,0.01341095,0.00925328,0.00133795,-0.00071541,0.00123686,-0.0024
 8111,-0.00050381,-0.00003171,0.00029134,-0.00060374,-0.00001337,-0.000
 36302,0.00021019,-0.00022444,-0.00002123,-0.00048299,-0.00027199,-0.00
 014396,-0.00088370,-0.00121687,-0.00843233,0.00438960,-0.00045242,-0.0
 0633603,-0.03470950,-0.00072172,0.02414222,0.01341465,-0.00925590,-0.0
 0440195,0.00665728,-0.00106736,0.00132482,0.00092473,0.00011635,-0.011
 18861,0.00672183,0.01113183,-0.00133282,-0.00070849,-0.00124487,0.0001
 4015,-0.00089231,0.00121729,0.00001071,-0.00049631,0.00028117,0.000364
 11,0.00021665,0.00021530,-0.00029687,-0.00060727,0.00001394,0.00248355
 ,-0.00050883,0.00003875,-0.00069092,0.00068310,-0.00198716,0.00026679,
 -0.00032126,0.00016857,-0.00042985,0.00051313,-0.00026408,0.00003414,0
 .00032694,-0.00051459,-0.00348363,0.00066316,0.00226906,-0.00126908,-0
 .00075844,0.00122157,-0.00011342,0.00415742,0.00039564,-0.00041145,0.0
 0027990,-0.00054241,0.00007476,-0.00003010,-0.00009076,-0.00008553,0.0
 0004257,-0.00013768,0.00052427,-0.00025157,-0.00018951,0.00127036,-0.0
 0076330,-0.00122308,0.00348400,0.00066497,-0.00227460,-0.00052444,-0.0
 0024896,0.00018737,0.00009161,0.00004799,0.00013670,-0.00007220,-0.000
 03051,0.00009410,0.00041244,0.00028415,0.00053932,0.00011414,0.0041578
 5,-0.00039755,-0.00003902,0.00032873,0.00051743,-0.00027070,-0.0003190
 5,-0.00017302,0.00042922,0.00051302,0.00026322\\\@

 Writing a WFNX file to "02_lig_b.wfx"


 TO DETECT ERRORS, THE PROGRAMMER MUST HAVE A CONNIVING MIND,
 ONE THAT DELIGHTS IN UNCOVERING FLAWS WHERE BEAUTY AND
 PERFECTION WERE ONCE THOUGHT TO LIE.

             -- THE PSYCHOLOGY OF COMPUTER PROGRAMMING
                GERALD M. WEINBERG
 Job cpu time:       0 days  5 hours 16 minutes 28.5 seconds.
 Elapsed time:       0 days  0 hours 39 minutes 34.0 seconds.
 File lengths (MBytes):  RWF=   1084 Int=      0 D2E=      0 Chk=     16 Scr=      1
 Normal termination of Gaussian 16 at Thu Nov  3 08:43:56 2022.
