 Entering Gaussian System, Link 0=g16
 Initial command:
 /software/gaussian/G16-A.03/avx/g16/l1.exe "/scratch/lcmd/1361333.slurm/Gau-58062.inp" -scrdir="/scratch/lcmd/1361333.slurm/"
 Entering Link 1 = /software/gaussian/G16-A.03/avx/g16/l1.exe PID=     58065.
  
 Copyright (c) 1988,1990,1992,1993,1995,1998,2003,2009,2016,
            Gaussian, Inc.  All Rights Reserved.
  
 This is part of the Gaussian(R) 16 program.  It is based on
 the Gaussian(R) 09 system (copyright 2009, Gaussian, Inc.),
 the Gaussian(R) 03 system (copyright 2003, Gaussian, Inc.),
 the Gaussian(R) 98 system (copyright 1998, Gaussian, Inc.),
 the Gaussian(R) 94 system (copyright 1995, Gaussian, Inc.),
 the Gaussian 92(TM) system (copyright 1992, Gaussian, Inc.),
 the Gaussian 90(TM) system (copyright 1990, Gaussian, Inc.),
 the Gaussian 88(TM) system (copyright 1988, Gaussian, Inc.),
 the Gaussian 86(TM) system (copyright 1986, Carnegie Mellon
 University), and the Gaussian 82(TM) system (copyright 1983,
 Carnegie Mellon University). Gaussian is a federally registered
 trademark of Gaussian, Inc.
  
 This software contains proprietary and confidential information,
 including trade secrets, belonging to Gaussian, Inc.
  
 This software is provided under written license and may be
 used, copied, transmitted, or stored only in accord with that
 written license.
  
 The following legend is applicable only to US Government
 contracts under FAR:
  
                    RESTRICTED RIGHTS LEGEND
  
 Use, reproduction and disclosure by the US Government is
 subject to restrictions as set forth in subparagraphs (a)
 and (c) of the Commercial Computer Software - Restricted
 Rights clause in FAR 52.227-19.
  
 Gaussian, Inc.
 340 Quinnipiac St., Bldg. 40, Wallingford CT 06492
  
  
 ---------------------------------------------------------------
 Warning -- This program may not be used in any manner that
 competes with the business of Gaussian, Inc. or will provide
 assistance to any competitor of Gaussian, Inc.  The licensee
 of this program is prohibited from giving any competitor of
 Gaussian, Inc. access to this program.  By using this program,
 the user acknowledges that Gaussian, Inc. is engaged in the
 business of creating and licensing software in the field of
 computational chemistry and represents and warrants to the
 licensee that it is not a competitor of Gaussian, Inc. and that
 it will not use this program in any manner prohibited above.
 ---------------------------------------------------------------
  

 Cite this work as:
 Gaussian 16, Revision A.03,
 M. J. Frisch, G. W. Trucks, H. B. Schlegel, G. E. Scuseria, 
 M. A. Robb, J. R. Cheeseman, G. Scalmani, V. Barone, 
 G. A. Petersson, H. Nakatsuji, X. Li, M. Caricato, A. V. Marenich, 
 J. Bloino, B. G. Janesko, R. Gomperts, B. Mennucci, H. P. Hratchian, 
 J. V. Ortiz, A. F. Izmaylov, J. L. Sonnenberg, D. Williams-Young, 
 F. Ding, F. Lipparini, F. Egidi, J. Goings, B. Peng, A. Petrone, 
 T. Henderson, D. Ranasinghe, V. G. Zakrzewski, J. Gao, N. Rega, 
 G. Zheng, W. Liang, M. Hada, M. Ehara, K. Toyota, R. Fukuda, 
 J. Hasegawa, M. Ishida, T. Nakajima, Y. Honda, O. Kitao, H. Nakai, 
 T. Vreven, K. Throssell, J. A. Montgomery, Jr., J. E. Peralta, 
 F. Ogliaro, M. J. Bearpark, J. J. Heyd, E. N. Brothers, K. N. Kudin, 
 V. N. Staroverov, T. A. Keith, R. Kobayashi, J. Normand, 
 K. Raghavachari, A. P. Rendell, J. C. Burant, S. S. Iyengar, 
 J. Tomasi, M. Cossi, J. M. Millam, M. Klene, C. Adamo, R. Cammi, 
 J. W. Ochterski, R. L. Martin, K. Morokuma, O. Farkas, 
 J. B. Foresman, and D. J. Fox, Gaussian, Inc., Wallingford CT, 2016.
 
 ******************************************
 Gaussian 16:  ES64L-G16RevA.03 25-Dec-2016
                 3-Nov-2022 
 ******************************************
 %nprocs=8
 Will use up to    8 processors via shared memory.
 %mem=32000MB
 %chk=03_lig_b.chk
 ----------------------------------------------------------------------
 #p pop=(regular,nbo,savenbos) freq=noraman def2svp empiricaldispersion
 =gd3bj output=wfx pbe1pbe
 ----------------------------------------------------------------------
 1/10=4,30=1,38=1/1,3;
 2/12=2,17=6,18=5,40=1/2;
 3/5=43,7=101,11=2,25=1,30=1,71=2,74=-13,124=41,140=1/1,2,3;
 4//1;
 5/5=2,38=5,98=1/2;
 8/6=4,10=90,11=11/1;
 11/6=1,8=1,9=11,15=111,16=1/1,2,10;
 10/6=1/2;
 6/28=1,40=1,73=1/1,7;
 7/8=1,10=1,25=1/1,2,3,16;
 1/10=4,30=1/3;
 99/6=200/99;
 Leave Link    1 at Thu Nov  3 08:04:19 2022, MaxMem=  4194304000 cpu:               0.4 elap:               0.1
 (Enter /software/gaussian/G16-A.03/avx/g16/l101.exe)
 --------
 03_lig_b
 --------
 Symbolic Z-matrix:
 Charge =  0 Multiplicity = 1
 C                    -3.84081  -1.29999   0.00735 
 C                    -2.97537  -0.56947  -1.00389 
 H                    -2.66671  -1.27445  -1.78933 
 C                    -3.6017    0.71821  -1.5655 
 O                    -2.90032   1.77751  -0.8827 
 C                    -1.84468   1.21866  -0.29789 
 N                    -1.76321  -0.05369  -0.35863 
 N                     0.91883   0.49629   0.14513 
 C                     0.51077   1.69237   0.30921 
 C                    -0.92014   2.14434   0.45561 
 C                    -1.08797   3.58953  -0.01538 
 C                    -1.25776   2.00742   1.96084 
 O                     1.43836   2.62613   0.48606 
 C                     2.71802   1.9663    0.43456 
 C                     2.37876   0.47584   0.22779 
 H                     2.62087  -0.11657   1.12595 
 C                     3.0383   -0.20657  -0.98884 
 C                     4.55499  -0.13936  -0.7957 
 C                     2.6039   -1.67354  -1.03367 
 C                     2.63303   0.48316  -2.29119 
 H                    -4.13504  -0.63096   0.83167 
 H                    -3.27684  -2.15271   0.41014 
 H                    -4.75187  -1.68156  -0.47812 
 H                    -4.67272   0.82223  -1.3469 
 H                    -3.43465   0.85243  -2.64511 
 H                    -0.85858   3.69379  -1.0852 
 H                    -0.41192   4.24265   0.5496 
 H                    -2.12294   3.91583   0.14564 
 H                    -1.03975   0.98892   2.31616 
 H                    -2.31955   2.23746   2.12962 
 H                    -0.64839   2.71776   2.53731 
 H                     3.24011   2.171     1.3785 
 H                     3.28781   2.41011  -0.39385 
 H                     4.85559  -0.63883   0.1388 
 H                     4.92913   0.89692  -0.76588 
 H                     5.06818  -0.6471   -1.62631 
 H                     2.75105  -2.17065  -0.06317 
 H                     3.18397  -2.21669  -1.79575 
 H                     1.54116  -1.79216  -1.29824 
 H                     2.95731   1.5357   -2.33356 
 H                     1.5407    0.45279  -2.4259 
 H                     3.08883  -0.0312   -3.15081 
 
 ITRead=  0  0  0  0  0  0  0  0  0  0  0  0  0  0  0  0  0  0  0  0
 ITRead=  0  0  0  0  0  0  0  0  0  0  0  0  0  0  0  0  0  0  0  0
 ITRead=  0  0
 MicOpt= -1 -1 -1 -1 -1 -1 -1 -1 -1 -1 -1 -1 -1 -1 -1 -1 -1 -1 -1 -1
 MicOpt= -1 -1 -1 -1 -1 -1 -1 -1 -1 -1 -1 -1 -1 -1 -1 -1 -1 -1 -1 -1
 MicOpt= -1 -1
 NAtoms=     42 NQM=       42 NQMF=       0 NMMI=      0 NMMIF=      0
                NMic=       0 NMicF=      0.
                    Isotopes and Nuclear Properties:
 (Nuclear quadrupole moments (NQMom) in fm**2, nuclear magnetic moments (NMagM)
  in nuclear magnetons)

  Atom         1           2           3           4           5           6           7           8           9          10
 IAtWgt=          12          12           1          12          16          12          14          14          12          12
 AtmWgt=  12.0000000  12.0000000   1.0078250  12.0000000  15.9949146  12.0000000  14.0030740  14.0030740  12.0000000  12.0000000
 NucSpn=           0           0           1           0           0           0           2           2           0           0
 AtZEff=  -0.0000000  -0.0000000  -0.0000000  -0.0000000  -0.0000000  -0.0000000  -0.0000000  -0.0000000  -0.0000000  -0.0000000
 NQMom=    0.0000000   0.0000000   0.0000000   0.0000000   0.0000000   0.0000000   2.0440000   2.0440000   0.0000000   0.0000000
 NMagM=    0.0000000   0.0000000   2.7928460   0.0000000   0.0000000   0.0000000   0.4037610   0.4037610   0.0000000   0.0000000
 AtZNuc=   6.0000000   6.0000000   1.0000000   6.0000000   8.0000000   6.0000000   7.0000000   7.0000000   6.0000000   6.0000000

  Atom        11          12          13          14          15          16          17          18          19          20
 IAtWgt=          12          12          16          12          12           1          12          12          12          12
 AtmWgt=  12.0000000  12.0000000  15.9949146  12.0000000  12.0000000   1.0078250  12.0000000  12.0000000  12.0000000  12.0000000
 NucSpn=           0           0           0           0           0           1           0           0           0           0
 AtZEff=  -0.0000000  -0.0000000  -0.0000000  -0.0000000  -0.0000000  -0.0000000  -0.0000000  -0.0000000  -0.0000000  -0.0000000
 NQMom=    0.0000000   0.0000000   0.0000000   0.0000000   0.0000000   0.0000000   0.0000000   0.0000000   0.0000000   0.0000000
 NMagM=    0.0000000   0.0000000   0.0000000   0.0000000   0.0000000   2.7928460   0.0000000   0.0000000   0.0000000   0.0000000
 AtZNuc=   6.0000000   6.0000000   8.0000000   6.0000000   6.0000000   1.0000000   6.0000000   6.0000000   6.0000000   6.0000000

  Atom        21          22          23          24          25          26          27          28          29          30
 IAtWgt=           1           1           1           1           1           1           1           1           1           1
 AtmWgt=   1.0078250   1.0078250   1.0078250   1.0078250   1.0078250   1.0078250   1.0078250   1.0078250   1.0078250   1.0078250
 NucSpn=           1           1           1           1           1           1           1           1           1           1
 AtZEff=  -0.0000000  -0.0000000  -0.0000000  -0.0000000  -0.0000000  -0.0000000  -0.0000000  -0.0000000  -0.0000000  -0.0000000
 NQMom=    0.0000000   0.0000000   0.0000000   0.0000000   0.0000000   0.0000000   0.0000000   0.0000000   0.0000000   0.0000000
 NMagM=    2.7928460   2.7928460   2.7928460   2.7928460   2.7928460   2.7928460   2.7928460   2.7928460   2.7928460   2.7928460
 AtZNuc=   1.0000000   1.0000000   1.0000000   1.0000000   1.0000000   1.0000000   1.0000000   1.0000000   1.0000000   1.0000000

  Atom        31          32          33          34          35          36          37          38          39          40
 IAtWgt=           1           1           1           1           1           1           1           1           1           1
 AtmWgt=   1.0078250   1.0078250   1.0078250   1.0078250   1.0078250   1.0078250   1.0078250   1.0078250   1.0078250   1.0078250
 NucSpn=           1           1           1           1           1           1           1           1           1           1
 AtZEff=  -0.0000000  -0.0000000  -0.0000000  -0.0000000  -0.0000000  -0.0000000  -0.0000000  -0.0000000  -0.0000000  -0.0000000
 NQMom=    0.0000000   0.0000000   0.0000000   0.0000000   0.0000000   0.0000000   0.0000000   0.0000000   0.0000000   0.0000000
 NMagM=    2.7928460   2.7928460   2.7928460   2.7928460   2.7928460   2.7928460   2.7928460   2.7928460   2.7928460   2.7928460
 AtZNuc=   1.0000000   1.0000000   1.0000000   1.0000000   1.0000000   1.0000000   1.0000000   1.0000000   1.0000000   1.0000000

  Atom        41          42
 IAtWgt=           1           1
 AtmWgt=   1.0078250   1.0078250
 NucSpn=           1           1
 AtZEff=  -0.0000000  -0.0000000
 NQMom=    0.0000000   0.0000000
 NMagM=    2.7928460   2.7928460
 AtZNuc=   1.0000000   1.0000000
 Leave Link  101 at Thu Nov  3 08:04:19 2022, MaxMem=  4194304000 cpu:               1.0 elap:               0.1
 (Enter /software/gaussian/G16-A.03/avx/g16/l103.exe)

 GradGradGradGradGradGradGradGradGradGradGradGradGradGradGradGradGradGrad
 Berny optimization.
 Initialization pass.
 Trust Radius=3.00D-01 FncErr=1.00D-07 GrdErr=1.00D-07 EigMax=2.50D+02 EigMin=1.00D-04
 Number of steps in this run=      2 maximum allowed number of steps=      2.
 GradGradGradGradGradGradGradGradGradGradGradGradGradGradGradGradGradGrad

 Leave Link  103 at Thu Nov  3 08:04:19 2022, MaxMem=  4194304000 cpu:               0.2 elap:               0.0
 (Enter /software/gaussian/G16-A.03/avx/g16/l202.exe)
                          Input orientation:                          
 ---------------------------------------------------------------------
 Center     Atomic      Atomic             Coordinates (Angstroms)
 Number     Number       Type             X           Y           Z
 ---------------------------------------------------------------------
      1          6           0       -3.840810   -1.299990    0.007350
      2          6           0       -2.975370   -0.569470   -1.003890
      3          1           0       -2.666710   -1.274450   -1.789330
      4          6           0       -3.601700    0.718210   -1.565500
      5          8           0       -2.900320    1.777510   -0.882700
      6          6           0       -1.844680    1.218660   -0.297890
      7          7           0       -1.763210   -0.053690   -0.358630
      8          7           0        0.918830    0.496290    0.145130
      9          6           0        0.510770    1.692370    0.309210
     10          6           0       -0.920140    2.144340    0.455610
     11          6           0       -1.087970    3.589530   -0.015380
     12          6           0       -1.257760    2.007420    1.960840
     13          8           0        1.438360    2.626130    0.486060
     14          6           0        2.718020    1.966300    0.434560
     15          6           0        2.378760    0.475840    0.227790
     16          1           0        2.620870   -0.116570    1.125950
     17          6           0        3.038300   -0.206570   -0.988840
     18          6           0        4.554990   -0.139360   -0.795700
     19          6           0        2.603900   -1.673540   -1.033670
     20          6           0        2.633030    0.483160   -2.291190
     21          1           0       -4.135040   -0.630960    0.831670
     22          1           0       -3.276840   -2.152710    0.410140
     23          1           0       -4.751870   -1.681560   -0.478120
     24          1           0       -4.672720    0.822230   -1.346900
     25          1           0       -3.434650    0.852430   -2.645110
     26          1           0       -0.858580    3.693790   -1.085200
     27          1           0       -0.411920    4.242650    0.549600
     28          1           0       -2.122940    3.915830    0.145640
     29          1           0       -1.039750    0.988920    2.316160
     30          1           0       -2.319550    2.237460    2.129620
     31          1           0       -0.648390    2.717760    2.537310
     32          1           0        3.240110    2.171000    1.378500
     33          1           0        3.287810    2.410110   -0.393850
     34          1           0        4.855590   -0.638830    0.138800
     35          1           0        4.929130    0.896920   -0.765880
     36          1           0        5.068180   -0.647100   -1.626310
     37          1           0        2.751050   -2.170650   -0.063170
     38          1           0        3.183970   -2.216690   -1.795750
     39          1           0        1.541160   -1.792160   -1.298240
     40          1           0        2.957310    1.535700   -2.333560
     41          1           0        1.540700    0.452790   -2.425900
     42          1           0        3.088830   -0.031200   -3.150810
 ---------------------------------------------------------------------
                    Distance matrix (angstroms):
                    1          2          3          4          5
     1  C    0.000000
     2  C    1.518306   0.000000
     3  H    2.146444   1.099629   0.000000
     4  C    2.569856   1.538121   2.212465   0.000000
     5  O    3.338820   2.351305   3.192336   1.442313   0.000000
     6  C    3.228204   2.230315   3.019226   2.223602   1.329922
     7  N    2.450230   1.466875   2.086497   2.330753   2.218324
     8  N    5.089182   4.197724   4.442269   4.838460   4.157387
     9  C    5.289762   4.358133   4.827243   4.623412   3.614337
    10  C    4.538134   3.703900   4.447290   3.648218   2.418006
    11  C    5.611243   4.672977   5.412728   4.119003   2.705600
    12  C    4.628956   4.287210   5.178763   4.426194   3.291896
    13  O    6.596455   5.649144   6.102747   5.766391   4.627937
    14  C    7.339578   6.396402   6.666593   6.745134   5.773782
    15  C    6.471879   5.592532   5.708682   6.248242   5.549434
    16  H    6.663712   6.004935   6.148012   6.830896   6.172986
    17  C    7.036343   6.024629   5.859035   6.728845   6.262192
    18  C    8.513601   7.545506   7.377580   8.237694   7.698286
    19  C    6.538926   5.687540   5.339440   6.671790   6.498383
    20  C    7.097430   5.849728   5.606095   6.281221   5.854669
    21  H    1.101670   2.172072   3.072412   2.801988   3.203799
    22  H    1.098833   2.144065   2.445663   3.500124   4.154495
    23  H    1.100594   2.160817   2.496578   2.874749   3.944247
    24  H    2.651393   2.221594   2.935283   1.098039   2.066263
    25  H    3.439974   2.219536   2.417790   1.100672   2.060915
    26  H    5.918209   4.760546   5.333717   4.075472   2.807461
    27  H    6.540044   5.669313   6.402583   5.202886   3.784248
    28  H    5.493176   4.708075   5.565860   3.916568   2.496841
    29  H    4.291346   4.147039   4.962347   4.658772   3.783689
    30  H    4.396796   4.257680   5.273727   4.195943   3.102083
    31  H    5.721412   5.362911   6.223437   5.436294   4.201396
    32  H    8.004202   7.198482   7.536365   7.588682   6.555360
    33  H    8.046305   6.962576   7.140004   7.190316   6.239560
    34  H    8.722487   7.914195   7.791450   8.733381   8.187570
    35  H    9.073927   8.042889   7.966121   8.570087   7.879681
    36  H    9.081036   8.067969   7.762001   8.776935   8.362337
    37  H    6.649484   6.020018   5.756294   7.138623   6.942448
    38  H    7.310201   6.424784   5.926071   7.396754   7.335249
    39  H    5.559892   4.688353   4.267946   5.729083   5.713314
    40  H    7.728870   6.434008   6.310525   6.654233   6.039478
    41  H    6.160649   4.843761   4.592481   5.220633   4.884568
    42  H    7.720344   6.455503   6.043636   6.916503   6.654748
                    6          7          8          9         10
     6  C    0.000000
     7  N    1.276402   0.000000
     8  N    2.890514   2.783809   0.000000
     9  C    2.478128   2.943760   1.274379   0.000000
    10  C    1.509775   2.491002   2.488831   1.507718   0.000000
    11  C    2.504685   3.721132   3.690683   2.502108   1.529239
    12  C    2.463428   3.143819   3.212143   2.440253   1.548694
    13  O    3.657034   4.259693   2.218640   1.328009   2.407399
    14  C    4.681205   4.979049   2.341321   2.227712   3.642575
    15  C    4.320366   4.216658   1.462411   2.230686   3.703854
    16  H    4.873530   4.629048   2.057801   2.896869   4.254389
    17  C    5.133438   4.845104   2.504407   3.417501   4.825190
    18  C    6.561083   6.333879   3.809314   4.575126   6.062847
    19  C    5.356870   4.706511   2.989514   4.184958   5.404907
    20  C    4.956218   4.832176   2.978978   3.567668   4.788470
    21  H    3.153212   2.715812   5.223374   5.220573   4.263718
    22  H    3.730754   2.699624   4.969012   5.398223   4.901096
    23  H    4.110415   3.405338   6.106415   6.300688   5.494681
    24  H    3.042267   3.195178   5.796363   5.510754   4.367937
    25  H    2.858596   2.973677   5.183152   4.999984   4.195981
    26  H    2.778222   3.922992   3.859651   2.797352   2.186019
    27  H    3.451892   4.594497   3.996211   2.722696   2.161024
    28  H    2.747521   4.017559   4.576638   3.450646   2.163559
    29  H    2.744804   2.960563   2.965146   2.631882   2.193387
    30  H    2.675119   3.427867   4.178155   3.409065   2.183879
    31  H    3.422977   4.160556   3.621275   2.712841   2.176266
    32  H    5.438044   5.744569   3.116760   2.970146   4.261469
    33  H    5.269840   5.619996   3.092778   2.953201   4.301053
    34  H    6.966677   6.663208   4.097147   4.933659   6.419148
    35  H    6.797576   6.771774   4.131943   4.616326   6.104265
    36  H    7.282403   6.973309   4.654293   5.476253   6.927229
    37  H    5.715177   4.994733   3.242374   4.481121   5.689104
    38  H    6.271566   5.587349   4.032138   5.182432   6.397728
    39  H    4.640005   3.850196   2.776259   3.973355   4.962864
    40  H    5.225282   5.358154   3.373378   3.604766   4.815032
    41  H    4.071337   3.930133   2.645526   3.174609   4.149720
    42  H    5.834451   5.598131   3.981252   4.646378   5.814730
                   11         12         13         14         15
    11  C    0.000000
    12  C    2.537193   0.000000
    13  O    2.749895   3.134779   0.000000
    14  C    4.162077   4.258879   1.440680   0.000000
    15  C    4.666092   4.309696   2.361102   1.542505   0.000000
    16  H    5.365939   4.500238   3.054536   2.196772   1.102841
    17  C    5.690703   5.662022   3.572020   2.617253   1.543005
    18  C    6.808562   6.781979   4.359384   3.053163   2.482334
    19  C    6.508973   6.117922   4.706934   3.926469   2.502360
    20  C    5.354875   5.961659   3.705762   3.104294   2.531791
    21  H    5.273961   4.063842   6.464586   7.339475   6.634702
    22  H    6.159995   4.877298   6.713880   7.273595   6.239258
    23  H    6.436045   5.636125   7.602946   8.362961   7.483219
    24  H    4.720310   4.899773   6.630166   7.688012   7.233464
    25  H    4.462522   5.223756   6.057761   6.969966   6.495468
    26  H    1.099093   3.504504   2.980720   4.252759   4.749686
    27  H    1.096728   2.775481   2.457786   3.871889   4.698969
    28  H    1.097070   2.772276   3.802903   5.226761   5.666179
    29  H    3.493075   1.100510   3.488660   4.314687   4.038657
    30  H    2.818849   1.099456   4.119981   5.322017   5.366039
    31  H    2.733028   1.099196   2.927550   4.039674   4.418566
    32  H    4.763130   4.538360   2.061527   1.097954   2.222527
    33  H    4.547716   5.135069   2.059459   1.099041   2.225805
    34  H    7.295801   6.906194   4.738989   3.382807   2.717553
    35  H    6.634673   6.851702   4.091821   2.733795   2.769310
    36  H    7.644757   7.741553   5.324635   4.074346   3.454224
    37  H    6.922430   6.133795   5.003390   4.166915   2.688339
    38  H    7.425051   7.189161   5.630872   4.763276   3.463062
    39  H    6.125410   5.735186   4.766087   4.302745   2.859050
    40  H    5.094749   6.035827   3.383268   2.811612   2.831702
    41  H    4.749700   5.430630   3.635023   3.443694   2.782974
    42  H    6.355019   7.012687   4.797111   4.120969   3.489445
                   16         17         18         19         20
    16  H    0.000000
    17  C    2.157472   0.000000
    18  C    2.726551   1.530415   0.000000
    19  C    2.662405   1.530593   2.493409   0.000000
    20  C    3.469390   1.528426   2.513554   2.496710   0.000000
    21  H    6.781852   7.412906   8.854752   7.069638   7.536597
    22  H    6.280226   6.754672   8.175891   6.074314   7.012243
    23  H    7.705811   7.945010   9.439114   7.376724   7.906326
    24  H    7.758401   7.787584   9.294036   7.699103   7.374323
    25  H    7.199248   6.764894   8.260648   6.741020   6.089200
    26  H    5.613787   5.514324   6.639547   6.387461   4.894272
    27  H    5.341610   5.836641   6.758849   6.826655   5.610310
    28  H    6.302776   6.702210   7.869272   7.414502   6.351426
    29  H    4.004853   5.383560   6.500600   5.620164   5.913779
    30  H    5.563862   6.663680   7.840030   7.038656   6.866526
    31  H    4.551200   5.880232   6.807882   6.527848   6.251045
    32  H    2.383320   3.361230   3.434213   4.582992   4.084602
    33  H    3.023030   2.695048   2.875244   4.189666   2.782404
    34  H    2.498238   2.181963   1.101418   2.741426   3.479006
    35  H    3.151864   2.200600   1.102155   3.476445   2.787444
    36  H    3.720984   2.172751   1.100489   2.734498   2.765775
    37  H    2.377014   2.190203   2.813706   1.100292   3.467089
    38  H    3.641966   2.170923   2.682368   1.101026   2.799676
    39  H    3.138483   2.202556   3.473826   1.101583   2.712049
    40  H    3.848558   2.202348   2.779104   3.480493   1.102177
    41  H    3.755872   2.177775   3.477663   2.754991   1.101024
    42  H    4.303133   2.169659   2.776305   2.722998   1.100575
                   21         22         23         24         25
    21  H    0.000000
    22  H    1.797197   0.000000
    23  H    1.788796   1.785134   0.000000
    24  H    2.673393   3.726384   2.651416   0.000000
    25  H    3.844345   4.288394   3.584971   1.794179   0.000000
    26  H    5.754393   6.501199   6.664881   4.781423   4.140384
    27  H    6.139484   7.009126   7.415365   5.783632   5.553077
    28  H    5.019211   6.182930   6.215394   4.277782   4.346641
    29  H    3.795859   4.302014   5.359039   5.161808   5.510751
    30  H    3.634352   4.811092   5.298604   4.430178   5.095076
    31  H    5.126389   5.929172   6.729441   5.905536   6.172534
    32  H    7.908403   7.880535   9.064271   8.477020   7.904460
    33  H    8.114722   8.034946   9.021381   8.173109   7.258513
    34  H    9.017292   8.276586   9.683551   9.753496   8.871420
    35  H    9.329832   8.832962  10.022631   9.619703   8.572415
    36  H    9.525817   8.720857   9.940917   9.855056   8.693944
    37  H    7.112638   6.046470   7.530286   8.106643   7.353116
    38  H    7.936358   6.827306   8.062262   8.435880   7.344865
    39  H    6.172856   5.124615   6.347209   6.741640   5.793669
    40  H    8.063159   7.745766   8.557153   7.726571   6.435921
    41  H    6.633272   6.167694   6.924286   6.317224   4.996186
    42  H    8.270681   7.596244   8.446510   8.013994   6.602448
                   26         27         28         29         30
    26  H    0.000000
    27  H    1.781382   0.000000
    28  H    1.778447   1.788179   0.000000
    29  H    4.349528   3.755218   3.801481   0.000000
    30  H    3.819738   3.186895   2.606100   1.797648   0.000000
    31  H    3.757578   2.516386   3.054465   1.786325   1.785966
    32  H    5.018761   4.279735   5.772927   4.538031   5.610563
    33  H    4.395264   4.235127   5.642203   5.300161   6.151438
    34  H    7.274717   7.193349   8.333358   6.491957   7.982421
    35  H    6.435995   6.438262   7.725049   6.718256   7.919869
    36  H    7.366316   7.660009   8.698985   7.451607   8.775321
    37  H    6.961726   7.177066   7.800296   5.478527   7.067584
    38  H    7.195892   7.755912   8.339070   6.709959   8.095475
    39  H    5.991643   6.606661   6.934808   5.240171   6.549286
    40  H    4.558154   5.195373   6.133546   6.155920   6.946776
    41  H    4.249483   5.198977   5.659304   5.425246   6.232122
    42  H    5.807266   6.649367   7.321760   6.926296   7.891789
                   31         32         33         34         35
    31  H    0.000000
    32  H    4.094169   0.000000
    33  H    4.917318   1.789043   0.000000
    34  H    6.878469   3.470126   3.469537   0.000000
    35  H    6.733146   3.012380   2.263202   1.783923   0.000000
    36  H    7.831806   4.506929   3.746359   1.777885   1.773040
    37  H    6.497326   4.600817   4.623940   2.610815   3.827247
    38  H    7.603367   5.415795   4.835637   3.004403   3.714940
    39  H    6.312286   5.075235   4.639804   3.792189   4.358084
    40  H    6.174440   3.776635   2.153206   3.800607   2.598795
    41  H    5.878406   4.507072   3.318542   4.331029   3.799260
    42  H    7.340184   5.038573   3.687874   3.783145   3.152142
                   36         37         38         39         40
    36  H    0.000000
    37  H    3.183348   0.000000
    38  H    2.458164   1.786441   0.000000
    39  H    3.722722   1.769883   1.768210   0.000000
    40  H    3.117786   4.351350   3.797505   3.761917   0.000000
    41  H    3.780505   3.732275   3.197428   2.512254   1.785498
    42  H    2.573181   3.771586   2.573248   2.988022   1.772109
                   41         42
    41  H    0.000000
    42  H    1.776639   0.000000
 Stoichiometry    C14H24N2O2
 Framework group  C1[X(C14H24N2O2)]
 Deg. of freedom   120
 Full point group                 C1      NOp   1
 Largest Abelian subgroup         C1      NOp   1
 Largest concise Abelian subgroup C1      NOp   1
                         Standard orientation:                         
 ---------------------------------------------------------------------
 Center     Atomic      Atomic             Coordinates (Angstroms)
 Number     Number       Type             X           Y           Z
 ---------------------------------------------------------------------
      1          6           0        3.762050   -2.113296   -1.114322
      2          6           0        2.899492   -1.804278    0.096361
      3          1           0        2.506585   -2.745251    0.507918
      4          6           0        3.582716   -0.924318    1.156875
      5          8           0        2.987804    0.376409    0.971255
      6          6           0        1.926690    0.200557    0.189075
      7          7           0        1.757317   -0.969657   -0.291666
      8          7           0       -0.854272   -0.043899   -0.560299
      9          6           0       -0.359528    1.073948   -0.200174
     10          6           0        1.103857    1.427996   -0.120378
     11          6           0        1.345097    2.525554    0.916803
     12          6           0        1.504117    1.905316   -1.538266
     13          8           0       -1.212813    2.068120    0.016927
     14          6           0       -2.534790    1.553320   -0.233900
     15          6           0       -2.306565    0.090590   -0.667093
     16          1           0       -2.543993   -0.050787   -1.734753
     17          6           0       -3.068541   -0.981561    0.139598
     18          6           0       -4.566171   -0.716995   -0.031510
     19          6           0       -2.736078   -2.363122   -0.429146
     20          6           0       -2.681586   -0.934153    1.617470
     21          1           0        4.140053   -1.187449   -1.576488
     22          1           0        3.162412   -2.671012   -1.847002
     23          1           0        4.620893   -2.735291   -0.819675
     24          1           0        4.667634   -0.825802    1.019258
     25          1           0        3.372894   -1.240172    2.190165
     26          1           0        1.071616    2.191734    1.927633
     27          1           0        0.742505    3.407433    0.667837
     28          1           0        2.406188    2.804109    0.924244
     29          1           0        1.235847    1.149672   -2.292027
     30          1           0        2.585864    2.097822   -1.577882
     31          1           0        0.972367    2.838366   -1.772558
     32          1           0       -2.995619    2.175156   -1.012654
     33          1           0       -3.113056    1.655232    0.695140
     34          1           0       -4.853901   -0.754339   -1.094025
     35          1           0       -4.868161    0.263639    0.370864
     36          1           0       -5.151884   -1.481735    0.500647
     37          1           0       -2.868980   -2.395749   -1.520894
     38          1           0       -3.387492   -3.125860    0.024892
     39          1           0       -1.697750   -2.667206   -0.222042
     40          1           0       -2.936298    0.027002    2.092967
     41          1           0       -1.601562   -1.106539    1.744296
     42          1           0       -3.211955   -1.721656    2.174079
 ---------------------------------------------------------------------
 Rotational constants (GHZ):           0.6719299           0.2710571           0.2240824
 Leave Link  202 at Thu Nov  3 08:04:19 2022, MaxMem=  4194304000 cpu:               0.1 elap:               0.0
 (Enter /software/gaussian/G16-A.03/avx/g16/l301.exe)
 Standard basis: def2SVP (5D, 7F)
 Ernie: Thresh=  0.10000D-02 Tol=  0.10000D-05 Strict=F.
 There are   390 symmetry adapted cartesian basis functions of A   symmetry.
 There are   372 symmetry adapted basis functions of A   symmetry.
   372 basis functions,   618 primitive gaussians,   390 cartesian basis functions
    69 alpha electrons       69 beta electrons
       nuclear repulsion energy      1460.4268890660 Hartrees.
 IExCor= 1009 DFT=T Ex+Corr=PBE1PBE ExCW=0 ScaHFX=  0.250000
 ScaDFX=  0.750000  0.750000  1.000000  1.000000 ScalE2=  1.000000  1.000000
 IRadAn=      5 IRanWt=     -1 IRanGd=            0 ICorTp=0 IEmpDi=141
 NAtoms=   42 NActive=   42 NUniq=   42 SFac= 1.00D+00 NAtFMM=   60 NAOKFM=F Big=F
 Integral buffers will be    131072 words long.
 Raffenetti 2 integral format.
 Two-electron integral symmetry is turned on.
 R6Disp:  Grimme-D3(BJ) Dispersion energy=       -0.0422596020 Hartrees.
 Nuclear repulsion after empirical dispersion term =     1460.3846294640 Hartrees.
 Leave Link  301 at Thu Nov  3 08:04:19 2022, MaxMem=  4194304000 cpu:               0.6 elap:               0.1
 (Enter /software/gaussian/G16-A.03/avx/g16/l302.exe)
 NPDir=0 NMtPBC=     1 NCelOv=     1 NCel=       1 NClECP=     1 NCelD=      1
         NCelK=      1 NCelE2=     1 NClLst=     1 CellRange=     0.0.
 One-electron integrals computed using PRISM.
 One-electron integral symmetry used in STVInt
   1 Symmetry operations used in ECPInt.
 ECPInt:  NShTT=   16290 NPrTT=   56922 LenC2=   15108 LenP2D=   37667.
 LDataN:  DoStor=T MaxTD1= 4 Len=   56
 NBasis=   372 RedAO= T EigKep=  6.13D-04  NBF=   372
 NBsUse=   372 1.00D-06 EigRej= -1.00D+00 NBFU=   372
 Precomputing XC quadrature grid using
 IXCGrd= 4 IRadAn=           5 IRanWt=          -1 IRanGd=           0 AccXCQ= 0.00D+00.
 Generated NRdTot=       0 NPtTot=           0 NUsed=           0 NTot=          32
 NSgBfM=   388   388   388   388   388 MxSgAt=    42 MxSgA2=    42.
 Leave Link  302 at Thu Nov  3 08:04:20 2022, MaxMem=  4194304000 cpu:               6.5 elap:               0.8
 (Enter /software/gaussian/G16-A.03/avx/g16/l303.exe)
 DipDrv:  MaxL=1.
 Leave Link  303 at Thu Nov  3 08:04:20 2022, MaxMem=  4194304000 cpu:               0.5 elap:               0.1
 (Enter /software/gaussian/G16-A.03/avx/g16/l401.exe)
 ExpMin= 1.22D-01 ExpMax= 2.27D+03 ExpMxC= 3.41D+02 IAcc=3 IRadAn=         5 AccDes= 0.00D+00
 Harris functional with IExCor= 1009 and IRadAn=       5 diagonalized for initial guess.
 HarFok:  IExCor= 1009 AccDes= 0.00D+00 IRadAn=         5 IDoV= 1 UseB2=F ITyADJ=14
 ICtDFT=  3500011 ScaDFX=  1.000000  1.000000  1.000000  1.000000
 FoFCou: FMM=F IPFlag=           0 FMFlag=      100000 FMFlg1=           0
         NFxFlg=           0 DoJE=T BraDBF=F KetDBF=T FulRan=T
         wScrn=  0.000000 ICntrl=       500 IOpCl=  0 I1Cent=   200000004 NGrid=           0
         NMat0=    1 NMatS0=      1 NMatT0=    0 NMatD0=    1 NMtDS0=    0 NMtDT0=    0
 Petite list used in FoFCou.
 Harris En= -806.623404668881    
 JPrj=0 DoOrth=F DoCkMO=F.
 Leave Link  401 at Thu Nov  3 08:04:25 2022, MaxMem=  4194304000 cpu:              36.4 elap:               4.6
 (Enter /software/gaussian/G16-A.03/avx/g16/l502.exe)
 Integral symmetry usage will be decided dynamically.
 Closed shell SCF:
 Using DIIS extrapolation, IDIIS=  1040.
 NGot=  4194304000 LenX=  4193992314 LenY=  4193839773
 Requested convergence on RMS density matrix=1.00D-08 within 128 cycles.
 Requested convergence on MAX density matrix=1.00D-06.
 Requested convergence on             energy=1.00D-06.
 No special actions if energy rises.
 Fock matrices will be formed incrementally for  20 cycles.
 Integral accuracy reduced to 1.0D-05 until final iterations.

 Cycle   1  Pass 0  IDiag  1:
 FoFJK:  IHMeth= 1 ICntrl=       0 DoSepK=F KAlg= 0 I1Cent=           0 FoldK=F
 IRaf= 860000000 NMat=       1 IRICut=       1 DoRegI=T DoRafI=F ISym2E= 0 IDoP0=0 IntGTp=1.
 FoFCou: FMM=F IPFlag=           0 FMFlag=      100000 FMFlg1=           0
         NFxFlg=           0 DoJE=F BraDBF=F KetDBF=F FulRan=T
         wScrn=  0.000000 ICntrl=         0 IOpCl=  0 I1Cent=           0 NGrid=           0
         NMat0=    1 NMatS0=      1 NMatT0=    0 NMatD0=    1 NMtDS0=    0 NMtDT0=    0
 Symmetry not used in FoFCou.
 E= -805.958203617283    
 DIIS: error= 3.45D-02 at cycle   1 NSaved=   1.
 NSaved= 1 IEnMin= 1 EnMin= -805.958203617283     IErMin= 1 ErrMin= 3.45D-02
 ErrMax= 3.45D-02  0.00D+00 EMaxC= 1.00D-01 BMatC= 4.16D-01 BMatP= 4.16D-01
 IDIUse=3 WtCom= 6.55D-01 WtEn= 3.45D-01
 Coeff-Com:  0.100D+01
 Coeff-En:   0.100D+01
 Coeff:      0.100D+01
 Gap=     0.242 Goal=   None    Shift=    0.000
 GapD=    0.242 DampG=1.000 DampE=0.500 DampFc=0.5000 IDamp=-1.
 Damping current iteration by 5.00D-01
 RMSDP=4.61D-03 MaxDP=1.97D-01              OVMax= 2.45D-01

 Cycle   2  Pass 0  IDiag  1:
 RMSU=  2.29D-03    CP:  9.86D-01
 E= -806.137040429801     Delta-E=       -0.178836812518 Rises=F Damp=T
 DIIS: error= 6.66D-03 at cycle   2 NSaved=   2.
 NSaved= 2 IEnMin= 2 EnMin= -806.137040429801     IErMin= 2 ErrMin= 6.66D-03
 ErrMax= 6.66D-03  0.00D+00 EMaxC= 1.00D-01 BMatC= 3.64D-02 BMatP= 4.16D-01
 IDIUse=3 WtCom= 9.33D-01 WtEn= 6.66D-02
 Coeff-Com:  0.112D+00 0.888D+00
 Coeff-En:   0.181D+00 0.819D+00
 Coeff:      0.116D+00 0.884D+00
 Gap=     0.314 Goal=   None    Shift=    0.000
 RMSDP=1.49D-03 MaxDP=5.43D-02 DE=-1.79D-01 OVMax= 2.20D-01

 Cycle   3  Pass 0  IDiag  1:
 RMSU=  1.37D-03    CP:  9.80D-01  7.43D-01
 E= -806.351933409791     Delta-E=       -0.214892979991 Rises=F Damp=F
 DIIS: error= 1.11D-02 at cycle   3 NSaved=   3.
 NSaved= 3 IEnMin= 3 EnMin= -806.351933409791     IErMin= 2 ErrMin= 6.66D-03
 ErrMax= 1.11D-02  0.00D+00 EMaxC= 1.00D-01 BMatC= 5.26D-02 BMatP= 3.64D-02
 IDIUse=2 WtCom= 0.00D+00 WtEn= 1.00D+00
 Coeff-En:   0.000D+00 0.000D+00 0.100D+01
 Coeff:      0.000D+00 0.000D+00 0.100D+01
 Gap=     0.249 Goal=   None    Shift=    0.000
 RMSDP=2.21D-03 MaxDP=1.03D-01 DE=-2.15D-01 OVMax= 2.22D-01

 Cycle   4  Pass 0  IDiag  1:
 RMSU=  1.22D-03    CP:  9.88D-01  1.22D+00 -7.09D-02
 E= -806.160172549612     Delta-E=        0.191760860180 Rises=F Damp=F
 DIIS: error= 2.58D-02 at cycle   4 NSaved=   4.
 NSaved= 4 IEnMin= 3 EnMin= -806.351933409791     IErMin= 2 ErrMin= 6.66D-03
 ErrMax= 2.58D-02  0.00D+00 EMaxC= 1.00D-01 BMatC= 2.68D-01 BMatP= 3.64D-02
 IDIUse=2 WtCom= 0.00D+00 WtEn= 1.00D+00
 Coeff-En:   0.000D+00 0.000D+00 0.780D+00 0.220D+00
 Coeff:      0.000D+00 0.000D+00 0.780D+00 0.220D+00
 Gap=     0.245 Goal=   None    Shift=    0.000
 RMSDP=1.19D-03 MaxDP=6.07D-02 DE= 1.92D-01 OVMax= 1.16D-01

 Cycle   5  Pass 0  IDiag  1:
 RMSU=  1.85D-04    CP:  9.85D-01  9.30D-01  4.61D-01  4.78D-01
 E= -806.382636686315     Delta-E=       -0.222464136703 Rises=F Damp=F
 DIIS: error= 6.84D-03 at cycle   5 NSaved=   5.
 NSaved= 5 IEnMin= 5 EnMin= -806.382636686315     IErMin= 2 ErrMin= 6.66D-03
 ErrMax= 6.84D-03  0.00D+00 EMaxC= 1.00D-01 BMatC= 1.90D-02 BMatP= 3.64D-02
 IDIUse=3 WtCom= 9.32D-01 WtEn= 6.84D-02
 Coeff-Com: -0.409D-02 0.188D-01 0.278D+00-0.981D-01 0.805D+00
 Coeff-En:   0.000D+00 0.000D+00 0.312D+00 0.000D+00 0.688D+00
 Coeff:     -0.381D-02 0.175D-01 0.280D+00-0.914D-01 0.797D+00
 Gap=     0.265 Goal=   None    Shift=    0.000
 RMSDP=4.02D-04 MaxDP=1.86D-02 DE=-2.22D-01 OVMax= 3.99D-02

 Cycle   6  Pass 0  IDiag  1:
 RMSU=  3.87D-05    CP:  9.83D-01  8.50D-01  6.58D-01  2.92D-01  8.45D-01
 E= -806.399498632885     Delta-E=       -0.016861946570 Rises=F Damp=F
 DIIS: error= 2.32D-04 at cycle   6 NSaved=   6.
 NSaved= 6 IEnMin= 6 EnMin= -806.399498632885     IErMin= 6 ErrMin= 2.32D-04
 ErrMax= 2.32D-04  0.00D+00 EMaxC= 1.00D-01 BMatC= 3.22D-05 BMatP= 1.90D-02
 IDIUse=3 WtCom= 9.98D-01 WtEn= 2.32D-03
 Coeff-Com: -0.305D-02 0.711D-02 0.108D+00-0.578D-01 0.393D+00 0.553D+00
 Coeff-En:   0.000D+00 0.000D+00 0.000D+00 0.000D+00 0.000D+00 0.100D+01
 Coeff:     -0.305D-02 0.709D-02 0.107D+00-0.577D-01 0.392D+00 0.554D+00
 Gap=     0.265 Goal=   None    Shift=    0.000
 RMSDP=1.88D-05 MaxDP=1.45D-03 DE=-1.69D-02 OVMax= 9.49D-04

 Cycle   7  Pass 0  IDiag  1:
 RMSU=  1.20D-05    CP:  9.83D-01  8.53D-01  6.55D-01  2.94D-01  8.71D-01
                    CP:  7.30D-01
 E= -806.399526540638     Delta-E=       -0.000027907753 Rises=F Damp=F
 DIIS: error= 6.60D-05 at cycle   7 NSaved=   7.
 NSaved= 7 IEnMin= 7 EnMin= -806.399526540638     IErMin= 7 ErrMin= 6.60D-05
 ErrMax= 6.60D-05  0.00D+00 EMaxC= 1.00D-01 BMatC= 2.09D-06 BMatP= 3.22D-05
 IDIUse=1 WtCom= 1.00D+00 WtEn= 0.00D+00
 Coeff-Com: -0.111D-02 0.197D-02 0.330D-01-0.213D-01 0.132D+00 0.255D+00
 Coeff-Com:  0.600D+00
 Coeff:     -0.111D-02 0.197D-02 0.330D-01-0.213D-01 0.132D+00 0.255D+00
 Coeff:      0.600D+00
 Gap=     0.265 Goal=   None    Shift=    0.000
 RMSDP=6.34D-06 MaxDP=4.09D-04 DE=-2.79D-05 OVMax= 1.89D-04

 Initial convergence to 1.0D-05 achieved.  Increase integral accuracy.
 Cycle   8  Pass 1  IDiag  1:
 E= -806.399584655293     Delta-E=       -0.000058114655 Rises=F Damp=F
 DIIS: error= 7.61D-05 at cycle   1 NSaved=   1.
 NSaved= 1 IEnMin= 1 EnMin= -806.399584655293     IErMin= 1 ErrMin= 7.61D-05
 ErrMax= 7.61D-05  0.00D+00 EMaxC= 1.00D-01 BMatC= 1.17D-06 BMatP= 1.17D-06
 IDIUse=1 WtCom= 1.00D+00 WtEn= 0.00D+00
 Coeff-Com:  0.100D+01
 Coeff:      0.100D+01
 Gap=     0.265 Goal=   None    Shift=    0.000
 RMSDP=6.34D-06 MaxDP=4.09D-04 DE=-5.81D-05 OVMax= 2.43D-04

 Cycle   9  Pass 1  IDiag  1:
 RMSU=  3.97D-05    CP:  1.00D+00
 E= -806.399585470493     Delta-E=       -0.000000815200 Rises=F Damp=F
 DIIS: error= 3.41D-05 at cycle   2 NSaved=   2.
 NSaved= 2 IEnMin= 2 EnMin= -806.399585470493     IErMin= 2 ErrMin= 3.41D-05
 ErrMax= 3.41D-05  0.00D+00 EMaxC= 1.00D-01 BMatC= 5.54D-07 BMatP= 1.17D-06
 IDIUse=1 WtCom= 1.00D+00 WtEn= 0.00D+00
 Coeff-Com:  0.369D+00 0.631D+00
 Coeff:      0.369D+00 0.631D+00
 Gap=     0.265 Goal=   None    Shift=    0.000
 RMSDP=3.98D-06 MaxDP=3.10D-04 DE=-8.15D-07 OVMax= 2.75D-04

 Cycle  10  Pass 1  IDiag  1:
 RMSU=  3.94D-06    CP:  1.00D+00  1.01D+00
 E= -806.399585675575     Delta-E=       -0.000000205082 Rises=F Damp=F
 DIIS: error= 2.43D-05 at cycle   3 NSaved=   3.
 NSaved= 3 IEnMin= 3 EnMin= -806.399585675575     IErMin= 3 ErrMin= 2.43D-05
 ErrMax= 2.43D-05  0.00D+00 EMaxC= 1.00D-01 BMatC= 3.16D-07 BMatP= 5.54D-07
 IDIUse=1 WtCom= 1.00D+00 WtEn= 0.00D+00
 Coeff-Com:  0.147D-01 0.427D+00 0.558D+00
 Coeff:      0.147D-01 0.427D+00 0.558D+00
 Gap=     0.265 Goal=   None    Shift=    0.000
 RMSDP=1.97D-06 MaxDP=1.09D-04 DE=-2.05D-07 OVMax= 1.75D-04

 Cycle  11  Pass 1  IDiag  1:
 RMSU=  8.27D-07    CP:  1.00D+00  1.02D+00  5.66D-01
 E= -806.399585933629     Delta-E=       -0.000000258054 Rises=F Damp=F
 DIIS: error= 9.94D-06 at cycle   4 NSaved=   4.
 NSaved= 4 IEnMin= 4 EnMin= -806.399585933629     IErMin= 4 ErrMin= 9.94D-06
 ErrMax= 9.94D-06  0.00D+00 EMaxC= 1.00D-01 BMatC= 3.18D-08 BMatP= 3.16D-07
 IDIUse=1 WtCom= 1.00D+00 WtEn= 0.00D+00
 Coeff-Com: -0.585D-02 0.263D+00 0.376D+00 0.367D+00
 Coeff:     -0.585D-02 0.263D+00 0.376D+00 0.367D+00
 Gap=     0.265 Goal=   None    Shift=    0.000
 RMSDP=5.21D-07 MaxDP=2.14D-05 DE=-2.58D-07 OVMax= 4.50D-05

 Cycle  12  Pass 1  IDiag  1:
 RMSU=  1.80D-07    CP:  1.00D+00  1.02D+00  5.91D-01  4.22D-01
 E= -806.399585959673     Delta-E=       -0.000000026044 Rises=F Damp=F
 DIIS: error= 5.22D-07 at cycle   5 NSaved=   5.
 NSaved= 5 IEnMin= 5 EnMin= -806.399585959673     IErMin= 5 ErrMin= 5.22D-07
 ErrMax= 5.22D-07  0.00D+00 EMaxC= 1.00D-01 BMatC= 2.18D-10 BMatP= 3.18D-08
 IDIUse=1 WtCom= 1.00D+00 WtEn= 0.00D+00
 Coeff-Com: -0.327D-02 0.125D+00 0.180D+00 0.188D+00 0.510D+00
 Coeff:     -0.327D-02 0.125D+00 0.180D+00 0.188D+00 0.510D+00
 Gap=     0.265 Goal=   None    Shift=    0.000
 RMSDP=4.59D-08 MaxDP=2.22D-06 DE=-2.60D-08 OVMax= 2.13D-06

 Cycle  13  Pass 1  IDiag  1:
 RMSU=  4.08D-08    CP:  1.00D+00  1.02D+00  5.91D-01  4.40D-01  9.18D-01
 E= -806.399585959850     Delta-E=       -0.000000000177 Rises=F Damp=F
 DIIS: error= 7.12D-08 at cycle   6 NSaved=   6.
 NSaved= 6 IEnMin= 6 EnMin= -806.399585959850     IErMin= 6 ErrMin= 7.12D-08
 ErrMax= 7.12D-08  0.00D+00 EMaxC= 1.00D-01 BMatC= 4.75D-12 BMatP= 2.18D-10
 IDIUse=1 WtCom= 1.00D+00 WtEn= 0.00D+00
 Coeff-Com: -0.296D-03 0.744D-02 0.112D-01 0.161D-01 0.137D+00 0.829D+00
 Coeff:     -0.296D-03 0.744D-02 0.112D-01 0.161D-01 0.137D+00 0.829D+00
 Gap=     0.265 Goal=   None    Shift=    0.000
 RMSDP=1.25D-08 MaxDP=6.42D-07 DE=-1.77D-10 OVMax= 3.93D-07

 Cycle  14  Pass 1  IDiag  1:
 RMSU=  8.55D-09    CP:  1.00D+00  1.02D+00  5.91D-01  4.42D-01  9.62D-01
                    CP:  9.59D-01
 E= -806.399585959851     Delta-E=       -0.000000000001 Rises=F Damp=F
 DIIS: error= 4.31D-08 at cycle   7 NSaved=   7.
 NSaved= 7 IEnMin= 7 EnMin= -806.399585959851     IErMin= 7 ErrMin= 4.31D-08
 ErrMax= 4.31D-08  0.00D+00 EMaxC= 1.00D-01 BMatC= 7.21D-13 BMatP= 4.75D-12
 IDIUse=1 WtCom= 1.00D+00 WtEn= 0.00D+00
 Coeff-Com:  0.479D-04-0.352D-02-0.481D-02-0.269D-02 0.318D-01 0.373D+00
 Coeff-Com:  0.606D+00
 Coeff:      0.479D-04-0.352D-02-0.481D-02-0.269D-02 0.318D-01 0.373D+00
 Coeff:      0.606D+00
 Gap=     0.265 Goal=   None    Shift=    0.000
 RMSDP=4.10D-09 MaxDP=1.20D-07 DE=-1.36D-12 OVMax= 1.62D-07

 SCF Done:  E(RPBE1PBE) =  -806.399585960     A.U. after   14 cycles
            NFock= 14  Conv=0.41D-08     -V/T= 2.0102
 KE= 7.982626511480D+02 PE=-4.794922115363D+03 EE= 1.729875248791D+03
 Leave Link  502 at Thu Nov  3 08:06:13 2022, MaxMem=  4194304000 cpu:             864.0 elap:             108.1
 (Enter /software/gaussian/G16-A.03/avx/g16/l801.exe)
 DoSCS=F DFT=T ScalE2(SS,OS)=  1.000000  1.000000
 Range of M.O.s used for correlation:     1   372
 NBasis=   372 NAE=    69 NBE=    69 NFC=     0 NFV=     0
 NROrb=    372 NOA=    69 NOB=    69 NVA=   303 NVB=   303

 **** Warning!!: The largest alpha MO coefficient is  0.10661381D+02

 Leave Link  801 at Thu Nov  3 08:06:13 2022, MaxMem=  4194304000 cpu:               0.2 elap:               0.0
 (Enter /software/gaussian/G16-A.03/avx/g16/l1101.exe)
 Using compressed storage, NAtomX=    42.
 Will process     43 centers per pass.
   1 Symmetry operations used in ECPInt.
 ECPInt:  NShTT=   16290 NPrTT=   56922 LenC2=   15108 LenP2D=   37667.
 LDataN:  DoStor=T MaxTD1= 5 Len=  102
 R6Disp: Adding Grimme-D3(BJ) dispersion energy 1st derivatives to the gradient.
 Leave Link 1101 at Thu Nov  3 08:06:14 2022, MaxMem=  4194304000 cpu:               6.6 elap:               0.8
 (Enter /software/gaussian/G16-A.03/avx/g16/l1102.exe)
 Symmetrizing basis deriv contribution to polar:
 IMax=3 JMax=2 DiffMx= 0.00D+00
 Leave Link 1102 at Thu Nov  3 08:06:14 2022, MaxMem=  4194304000 cpu:               0.5 elap:               0.1
 (Enter /software/gaussian/G16-A.03/avx/g16/l1110.exe)
 Forming Gx(P) for the SCF density, NAtomX=    42.
 Integral derivatives from FoFJK, PRISM(SPDF).
 Do as many integral derivatives as possible in FoFJK.
 G2DrvN: MDV=    4194300840.
 G2DrvN: will do    43 centers at a time, making    1 passes.
 Calling FoFCou, ICntrl=  3107 FMM=F I1Cent=   0 AccDes= 0.00D+00.
 FoFJK:  IHMeth= 1 ICntrl=    3107 DoSepK=F KAlg= 0 I1Cent=           0 FoldK=F
 IRaf=         0 NMat=       1 IRICut=       1 DoRegI=T DoRafI=F ISym2E= 0 IDoP0=0 IntGTp=1.
 FoFCou: FMM=F IPFlag=           0 FMFlag=      100000 FMFlg1=           0
         NFxFlg=           0 DoJE=F BraDBF=F KetDBF=F FulRan=T
         wScrn=  0.000000 ICntrl=      3107 IOpCl=  0 I1Cent=           0 NGrid=           0
         NMat0=    1 NMatS0=      1 NMatT0=    0 NMatD0=    1 NMtDS0=    0 NMtDT0=    0
 Symmetry not used in FoFCou.
 End of G2Drv F.D. properties file   721 does not exist.
 End of G2Drv F.D. properties file   722 does not exist.
 End of G2Drv F.D. properties file   788 does not exist.
 Leave Link 1110 at Thu Nov  3 08:12:49 2022, MaxMem=  4194304000 cpu:            3157.6 elap:             394.8
 (Enter /software/gaussian/G16-A.03/avx/g16/l1002.exe)
 Minotr:  Closed shell wavefunction.
          IDoAtm=111111111111111111111111111111111111111111
          Direct CPHF calculation.
          Differentiating once with respect to electric field.
                with respect to dipole field.
          Differentiating once with respect to nuclear coordinates.
          Requested convergence is 1.0D-08 RMS, and 1.0D-07 maximum.
          Secondary convergence is 1.0D-12 RMS, and 1.0D-12 maximum.
          NewPWx=T KeepS1=F KeepF1=F KeepIn=T MapXYZ=F SortEE=F KeepMc=T.
        12706 words used for storage of precomputed grid.
 Keep R1 ints in memory in canonical form, NReq=2436596038.
 FoFCou: FMM=F IPFlag=           0 FMFlag=           0 FMFlg1=           0
         NFxFlg=           0 DoJE=F BraDBF=F KetDBF=F FulRan=T
         wScrn=  0.000000 ICntrl=       600 IOpCl=  0 I1Cent=           0 NGrid=           0
         NMat0=    1 NMatS0=  69378 NMatT0=    0 NMatD0=    1 NMtDS0=    0 NMtDT0=    0
 Symmetry not used in FoFCou.
 Two-electron integral symmetry not used.
          MDV=    4194304000 using IRadAn=       1.
          Solving linear equations simultaneously, MaxMat=       0.
          There are   129 degrees of freedom in the 1st order CPHF.  IDoFFX=6 NUNeed=     3.
    126 vectors produced by pass  0 Test12= 2.09D-14 1.00D-09 XBig12= 1.20D+02 3.90D+00.
 AX will form   126 AO Fock derivatives at one time.
    126 vectors produced by pass  1 Test12= 2.09D-14 1.00D-09 XBig12= 3.36D+01 1.11D+00.
    126 vectors produced by pass  2 Test12= 2.09D-14 1.00D-09 XBig12= 2.92D-01 4.86D-02.
    126 vectors produced by pass  3 Test12= 2.09D-14 1.00D-09 XBig12= 8.08D-04 2.84D-03.
    126 vectors produced by pass  4 Test12= 2.09D-14 1.00D-09 XBig12= 1.58D-06 9.43D-05.
     77 vectors produced by pass  5 Test12= 2.09D-14 1.00D-09 XBig12= 1.86D-09 3.30D-06.
     10 vectors produced by pass  6 Test12= 2.09D-14 1.00D-09 XBig12= 1.92D-12 1.05D-07.
      3 vectors produced by pass  7 Test12= 2.09D-14 1.00D-09 XBig12= 1.93D-15 2.50D-09.
 InvSVY:  IOpt=1 It=  1 EMax= 7.11D-15
 Solved reduced A of dimension   720 with   129 vectors.
 FullF1:  Do perturbations      1 to       3.
 Isotropic polarizability for W=    0.000000      163.56 Bohr**3.
 End of Minotr F.D. properties file   721 does not exist.
 End of Minotr F.D. properties file   722 does not exist.
 End of Minotr F.D. properties file   788 does not exist.
 Leave Link 1002 at Thu Nov  3 08:20:02 2022, MaxMem=  4194304000 cpu:            3464.7 elap:             433.2
 (Enter /software/gaussian/G16-A.03/avx/g16/l601.exe)
 Copying SCF densities to generalized density rwf, IOpCl= 0 IROHF=0.

 **********************************************************************

            Population analysis using the SCF density.

 **********************************************************************

 Orbital symmetries:
       Occupied  (A) (A) (A) (A) (A) (A) (A) (A) (A) (A) (A) (A)
                 (A) (A) (A) (A) (A) (A) (A) (A) (A) (A) (A) (A)
                 (A) (A) (A) (A) (A) (A) (A) (A) (A) (A) (A) (A)
                 (A) (A) (A) (A) (A) (A) (A) (A) (A) (A) (A) (A)
                 (A) (A) (A) (A) (A) (A) (A) (A) (A) (A) (A) (A)
                 (A) (A) (A) (A) (A) (A) (A) (A) (A)
       Virtual   (A) (A) (A) (A) (A) (A) (A) (A) (A) (A) (A) (A)
                 (A) (A) (A) (A) (A) (A) (A) (A) (A) (A) (A) (A)
                 (A) (A) (A) (A) (A) (A) (A) (A) (A) (A) (A) (A)
                 (A) (A) (A) (A) (A) (A) (A) (A) (A) (A) (A) (A)
                 (A) (A) (A) (A) (A) (A) (A) (A) (A) (A) (A) (A)
                 (A) (A) (A) (A) (A) (A) (A) (A) (A) (A) (A) (A)
                 (A) (A) (A) (A) (A) (A) (A) (A) (A) (A) (A) (A)
                 (A) (A) (A) (A) (A) (A) (A) (A) (A) (A) (A) (A)
                 (A) (A) (A) (A) (A) (A) (A) (A) (A) (A) (A) (A)
                 (A) (A) (A) (A) (A) (A) (A) (A) (A) (A) (A) (A)
                 (A) (A) (A) (A) (A) (A) (A) (A) (A) (A) (A) (A)
                 (A) (A) (A) (A) (A) (A) (A) (A) (A) (A) (A) (A)
                 (A) (A) (A) (A) (A) (A) (A) (A) (A) (A) (A) (A)
                 (A) (A) (A) (A) (A) (A) (A) (A) (A) (A) (A) (A)
                 (A) (A) (A) (A) (A) (A) (A) (A) (A) (A) (A) (A)
                 (A) (A) (A) (A) (A) (A) (A) (A) (A) (A) (A) (A)
                 (A) (A) (A) (A) (A) (A) (A) (A) (A) (A) (A) (A)
                 (A) (A) (A) (A) (A) (A) (A) (A) (A) (A) (A) (A)
                 (A) (A) (A) (A) (A) (A) (A) (A) (A) (A) (A) (A)
                 (A) (A) (A) (A) (A) (A) (A) (A) (A) (A) (A) (A)
                 (A) (A) (A) (A) (A) (A) (A) (A) (A) (A) (A) (A)
                 (A) (A) (A) (A) (A) (A) (A) (A) (A) (A) (A) (A)
                 (A) (A) (A) (A) (A) (A) (A) (A) (A) (A) (A) (A)
                 (A) (A) (A) (A) (A) (A) (A) (A) (A) (A) (A) (A)
                 (A) (A) (A) (A) (A) (A) (A) (A) (A) (A) (A) (A)
                 (A) (A) (A)
 The electronic state is 1-A.
 Alpha  occ. eigenvalues --  -19.24316 -19.24305 -14.34821 -14.34807 -10.30932
 Alpha  occ. eigenvalues --  -10.30880 -10.28622 -10.28471 -10.26843 -10.25946
 Alpha  occ. eigenvalues --  -10.25554 -10.24068 -10.23400 -10.22567 -10.22439
 Alpha  occ. eigenvalues --  -10.22280 -10.21586 -10.21008  -1.11742  -1.11512
 Alpha  occ. eigenvalues --   -0.91437  -0.90370  -0.85893  -0.82771  -0.78558
 Alpha  occ. eigenvalues --   -0.75406  -0.71441  -0.70175  -0.69517  -0.68913
 Alpha  occ. eigenvalues --   -0.65531  -0.64159  -0.60946  -0.59647  -0.55270
 Alpha  occ. eigenvalues --   -0.54162  -0.52301  -0.51429  -0.50882  -0.48875
 Alpha  occ. eigenvalues --   -0.47039  -0.46344  -0.45642  -0.44771  -0.44609
 Alpha  occ. eigenvalues --   -0.44186  -0.43189  -0.41796  -0.41336  -0.40373
 Alpha  occ. eigenvalues --   -0.39981  -0.39116  -0.38944  -0.38065  -0.37520
 Alpha  occ. eigenvalues --   -0.37022  -0.36701  -0.36453  -0.36284  -0.35371
 Alpha  occ. eigenvalues --   -0.34887  -0.34469  -0.33723  -0.33250  -0.32507
 Alpha  occ. eigenvalues --   -0.27946  -0.25003  -0.24218  -0.23889
 Alpha virt. eigenvalues --    0.02591   0.04132   0.05957   0.07013   0.08440
 Alpha virt. eigenvalues --    0.09488   0.09854   0.10153   0.11139   0.11765
 Alpha virt. eigenvalues --    0.12337   0.12778   0.13373   0.13663   0.14145
 Alpha virt. eigenvalues --    0.14325   0.14411   0.15166   0.15421   0.15743
 Alpha virt. eigenvalues --    0.16810   0.16859   0.17536   0.18067   0.18529
 Alpha virt. eigenvalues --    0.18713   0.19453   0.19981   0.20722   0.21313
 Alpha virt. eigenvalues --    0.21660   0.22175   0.23956   0.24482   0.25215
 Alpha virt. eigenvalues --    0.25247   0.26041   0.28190   0.28593   0.29578
 Alpha virt. eigenvalues --    0.31805   0.35131   0.35778   0.38946   0.40312
 Alpha virt. eigenvalues --    0.41171   0.41643   0.42341   0.43163   0.43550
 Alpha virt. eigenvalues --    0.44816   0.45181   0.45723   0.48870   0.49832
 Alpha virt. eigenvalues --    0.50711   0.52582   0.52911   0.53897   0.54362
 Alpha virt. eigenvalues --    0.55556   0.56168   0.57228   0.58611   0.59743
 Alpha virt. eigenvalues --    0.60388   0.60494   0.60833   0.62067   0.62649
 Alpha virt. eigenvalues --    0.63454   0.63906   0.64172   0.64417   0.65220
 Alpha virt. eigenvalues --    0.65484   0.65785   0.66340   0.66728   0.66823
 Alpha virt. eigenvalues --    0.67099   0.67527   0.67783   0.68222   0.68583
 Alpha virt. eigenvalues --    0.69118   0.69455   0.69687   0.69896   0.70425
 Alpha virt. eigenvalues --    0.70699   0.71046   0.71557   0.71823   0.72090
 Alpha virt. eigenvalues --    0.72933   0.73206   0.73688   0.73947   0.73958
 Alpha virt. eigenvalues --    0.74166   0.75068   0.75486   0.75655   0.76689
 Alpha virt. eigenvalues --    0.78512   0.79456   0.81177   0.81741   0.83643
 Alpha virt. eigenvalues --    0.83789   0.84723   0.86077   0.87532   0.90914
 Alpha virt. eigenvalues --    0.92829   0.94732   0.95180   0.97083   0.99804
 Alpha virt. eigenvalues --    1.02243   1.02787   1.04856   1.05313   1.07895
 Alpha virt. eigenvalues --    1.10432   1.11998   1.13308   1.13923   1.15940
 Alpha virt. eigenvalues --    1.18098   1.18880   1.20995   1.24011   1.24221
 Alpha virt. eigenvalues --    1.25208   1.26686   1.27510   1.31050   1.33244
 Alpha virt. eigenvalues --    1.33879   1.35941   1.36751   1.39136   1.40550
 Alpha virt. eigenvalues --    1.42026   1.45258   1.46680   1.47185   1.49251
 Alpha virt. eigenvalues --    1.50393   1.52806   1.54083   1.54582   1.55446
 Alpha virt. eigenvalues --    1.55959   1.56537   1.57700   1.58773   1.59108
 Alpha virt. eigenvalues --    1.59459   1.61595   1.63725   1.64051   1.64368
 Alpha virt. eigenvalues --    1.65507   1.66544   1.68358   1.69861   1.71031
 Alpha virt. eigenvalues --    1.71840   1.72795   1.73996   1.75389   1.76115
 Alpha virt. eigenvalues --    1.77063   1.77902   1.78501   1.79244   1.80136
 Alpha virt. eigenvalues --    1.80614   1.81553   1.81769   1.82461   1.82909
 Alpha virt. eigenvalues --    1.83608   1.84105   1.84336   1.85192   1.85739
 Alpha virt. eigenvalues --    1.86236   1.86630   1.86821   1.87472   1.88455
 Alpha virt. eigenvalues --    1.88854   1.89425   1.90195   1.90804   1.91902
 Alpha virt. eigenvalues --    1.92547   1.92845   1.94055   1.95863   1.96449
 Alpha virt. eigenvalues --    1.96904   1.98033   1.98485   1.99007   1.99675
 Alpha virt. eigenvalues --    1.99853   2.00818   2.02290   2.02613   2.03514
 Alpha virt. eigenvalues --    2.04627   2.06656   2.08123   2.08473   2.09494
 Alpha virt. eigenvalues --    2.10712   2.14622   2.17765   2.18848   2.19584
 Alpha virt. eigenvalues --    2.20242   2.22046   2.22926   2.24817   2.26379
 Alpha virt. eigenvalues --    2.29546   2.31113   2.33094   2.34339   2.35962
 Alpha virt. eigenvalues --    2.37188   2.37936   2.39192   2.40403   2.42008
 Alpha virt. eigenvalues --    2.42931   2.43565   2.44071   2.44618   2.47376
 Alpha virt. eigenvalues --    2.47781   2.50188   2.51006   2.53777   2.54628
 Alpha virt. eigenvalues --    2.55215   2.58575   2.62510   2.63964   2.64676
 Alpha virt. eigenvalues --    2.65548   2.66240   2.67658   2.67890   2.69284
 Alpha virt. eigenvalues --    2.71627   2.72864   2.73745   2.74665   2.76280
 Alpha virt. eigenvalues --    2.80704   2.83439   2.84265   2.86874   2.87860
 Alpha virt. eigenvalues --    2.89091   2.89712   2.90527   2.91718   2.92280
 Alpha virt. eigenvalues --    2.92907   2.93182   2.94864   2.95512   2.96307
 Alpha virt. eigenvalues --    2.96486   2.97240   2.98964   2.99608   3.00285
 Alpha virt. eigenvalues --    3.02620   3.04421   3.05054   3.05862   3.06834
 Alpha virt. eigenvalues --    3.08098   3.08779   3.09469   3.12330   3.15624
 Alpha virt. eigenvalues --    3.17511   3.19665   3.30964   3.34095   3.41150
 Alpha virt. eigenvalues --    3.48105   3.62456   3.66268
     Molecular Orbital Coefficients:
                          65        66        67        68        69
                           O         O         O         O         O
     Eigenvalues --    -0.32507  -0.27946  -0.25003  -0.24218  -0.23889
   1 1   C  1S          0.00044  -0.00009   0.02847  -0.02182  -0.00672
   2        2S         -0.00119  -0.00256  -0.07019   0.05338   0.01202
   3        3S          0.00232   0.01537  -0.11918   0.10232   0.06040
   4        4PX        -0.00283  -0.01608   0.07309  -0.05410  -0.02816
   5        4PY        -0.00728   0.00235  -0.03464   0.02660   0.01667
   6        4PZ        -0.00669   0.00663  -0.09477   0.07049   0.02999
   7        5PX        -0.00115  -0.01268   0.03453  -0.02520  -0.02460
   8        5PY        -0.00097   0.03138   0.00228   0.00456   0.04709
   9        5PZ        -0.00280   0.01706  -0.06872   0.05679   0.04131
  10        6D 0        0.00024   0.00279  -0.00176   0.00144   0.00377
  11        6D+1        0.00057   0.00164   0.00361  -0.00263   0.00083
  12        6D-1        0.00068   0.00150  -0.00235   0.00194   0.00164
  13        6D+2       -0.00013  -0.00082  -0.00069   0.00039  -0.00083
  14        6D-2       -0.00008   0.00068  -0.00005   0.00005   0.00127
  15 2   C  1S         -0.00110   0.02145   0.00668  -0.00489   0.02625
  16        2S          0.00356  -0.04844  -0.01891   0.01758  -0.05906
  17        3S         -0.00571  -0.08941  -0.01152  -0.00088  -0.14604
  18        4PX         0.00905   0.12032  -0.00626   0.00651   0.13106
  19        4PY         0.01370  -0.00916  -0.03105   0.02372  -0.02648
  20        4PZ         0.01136   0.03806   0.11397  -0.08137   0.01692
  21        5PX         0.00259   0.01437   0.03319  -0.03862  -0.00139
  22        5PY         0.00151  -0.02570  -0.04283   0.01793  -0.05951
  23        5PZ         0.00602   0.00143   0.02516  -0.01386  -0.00124
  24        6D 0        0.00040   0.00673   0.00128  -0.00090   0.00652
  25        6D+1        0.00074   0.00597   0.01305  -0.00972   0.00370
  26        6D-1        0.00085   0.00481  -0.00793   0.00649   0.00630
  27        6D+2        0.00031   0.00866  -0.00635   0.00602   0.01288
  28        6D-2        0.00057   0.00963   0.00891  -0.00590   0.00851
  29 3   H  1S         -0.01000  -0.06070   0.08685  -0.06846  -0.07730
  30        2S         -0.00623  -0.02409   0.05617  -0.05456  -0.04709
  31        3PX        -0.00010   0.00076   0.00137  -0.00113   0.00073
  32        3PY        -0.00016  -0.00192   0.00264  -0.00206  -0.00235
  33        3PZ         0.00046   0.00206   0.00190  -0.00119   0.00195
  34 4   C  1S         -0.00212  -0.02452  -0.01332   0.00656  -0.02099
  35        2S          0.00497   0.06085   0.03741  -0.01837   0.05100
  36        3S          0.01330   0.10432   0.03875  -0.01237   0.13618
  37        4PX        -0.00808  -0.07496   0.00819  -0.01446  -0.06851
  38        4PY        -0.00876  -0.05648  -0.01113   0.01706  -0.05861
  39        4PZ        -0.01624  -0.06877  -0.09534   0.06285  -0.04552
  40        5PX        -0.00596  -0.03603  -0.00825   0.00611  -0.03239
  41        5PY        -0.00287  -0.06332  -0.02791   0.02378  -0.07185
  42        5PZ        -0.00928  -0.06556  -0.02973   0.01369  -0.07471
  43        6D 0       -0.00001   0.00193  -0.00763   0.00538   0.00319
  44        6D+1        0.00013   0.00004  -0.00064   0.00039  -0.00088
  45        6D-1        0.00114  -0.00107   0.00873  -0.00649  -0.00341
  46        6D+2       -0.00038  -0.00346   0.00220  -0.00271  -0.00548
  47        6D-2        0.00043  -0.00320  -0.00431   0.00310  -0.00216
  48 5   O  1S          0.00220   0.00836   0.00319  -0.00602   0.01211
  49        2S          0.00494   0.01924   0.00643  -0.01184   0.02742
  50        3S          0.00274   0.05802   0.02869  -0.04413   0.07030
  51        4PX         0.00373  -0.04900  -0.17528   0.14048   0.00379
  52        4PY         0.01074  -0.06677  -0.08488   0.05182  -0.04248
  53        4PZ         0.01678  -0.10252   0.19203  -0.14596  -0.15761
  54        5PX         0.00184  -0.03980  -0.14636   0.11454   0.00114
  55        5PY         0.00633  -0.05004  -0.07124   0.04960  -0.02535
  56        5PZ         0.01254  -0.07851   0.15823  -0.11957  -0.12739
  57        6D 0       -0.00028  -0.00055  -0.00362   0.00186  -0.00013
  58        6D+1       -0.00037  -0.00053  -0.00009  -0.00011  -0.00098
  59        6D-1       -0.00053   0.00245  -0.00213   0.00128   0.00299
  60        6D+2        0.00020  -0.00322  -0.00131   0.00088  -0.00227
  61        6D-2       -0.00042   0.00075   0.00247  -0.00272  -0.00004
  62 6   C  1S         -0.00086   0.04002   0.00789  -0.01505   0.03263
  63        2S          0.00262  -0.10323  -0.01876   0.04458  -0.08583
  64        3S          0.01336   0.06908  -0.06034  -0.09212  -0.00112
  65        4PX        -0.01336   0.01210   0.08169  -0.09240  -0.04156
  66        4PY         0.01561   0.06590   0.06899  -0.02514   0.03398
  67        4PZ        -0.00288   0.04632  -0.12246   0.10161   0.08884
  68        5PX        -0.00924  -0.08655   0.05916   0.01311  -0.08704
  69        5PY         0.02143   0.02617   0.05096  -0.06483  -0.02553
  70        5PZ        -0.00212  -0.03809  -0.08922   0.10538   0.00167
  71        6D 0        0.00049   0.00337   0.02257  -0.01721  -0.00170
  72        6D+1       -0.00019   0.01139   0.00612  -0.00453   0.01012
  73        6D-1        0.00017   0.00193   0.01648  -0.01083  -0.00090
  74        6D+2       -0.00185   0.01236   0.00239  -0.00293   0.01311
  75        6D-2        0.00074   0.01527  -0.00850   0.00675   0.01871
  76 7   N  1S          0.00264   0.06404   0.02649  -0.01527   0.07677
  77        2S          0.00459   0.12929   0.04936  -0.02936   0.16425
  78        3S          0.01965   0.17232   0.13813  -0.05867   0.18274
  79        4PX         0.01035   0.28156  -0.05402   0.06233   0.32669
  80        4PY         0.00327   0.09860  -0.05436   0.04949   0.11443
  81        4PZ         0.00535   0.17002   0.31650  -0.23539   0.10308
  82        5PX        -0.00338  -0.19171   0.06072  -0.06797  -0.21110
  83        5PY        -0.00045  -0.08184   0.04329  -0.01745  -0.09962
  84        5PZ        -0.00162  -0.11771  -0.22891   0.16539  -0.07059
  85        6D 0        0.00012   0.00225  -0.01182   0.00942   0.00723
  86        6D+1       -0.00019  -0.01115  -0.00503   0.00369  -0.01236
  87        6D-1       -0.00043  -0.00483  -0.00996   0.00707  -0.00118
  88        6D+2        0.00026  -0.00265  -0.00228   0.00024  -0.00742
  89        6D-2       -0.00063  -0.00719   0.00607  -0.00645  -0.00858
  90 8   N  1S         -0.00152   0.06280  -0.01030   0.01030  -0.08003
  91        2S          0.00101   0.12650  -0.02135   0.02469  -0.16826
  92        3S         -0.06210   0.18256  -0.01830   0.00825  -0.21458
  93        4PX        -0.05019  -0.19078   0.01316  -0.05045   0.20744
  94        4PY         0.02015   0.27533  -0.10067  -0.05430  -0.29168
  95        4PZ        -0.00738   0.05193   0.20396   0.31320  -0.07544
  96        5PX         0.02889   0.11722   0.01836   0.03309  -0.11914
  97        5PY        -0.02709  -0.19003   0.07654   0.03771   0.20064
  98        5PZ        -0.00255  -0.04075  -0.15580  -0.23271   0.05603
  99        6D 0        0.00176   0.00711  -0.00741  -0.00776  -0.00887
 100        6D+1        0.00073   0.00160  -0.00148  -0.00045  -0.00220
 101        6D-1        0.00075  -0.00489  -0.00964  -0.01619   0.00537
 102        6D+2       -0.00183   0.00673  -0.00321  -0.00482  -0.00489
 103        6D-2        0.00718   0.00786   0.00037   0.00232  -0.01314
 104 9   C  1S         -0.01571   0.03978  -0.01464   0.01227  -0.03202
 105        2S          0.04293  -0.10200   0.04177  -0.03473   0.08457
 106        3S          0.03079   0.05726  -0.06814   0.05414   0.00318
 107        4PX        -0.08040   0.01821   0.03626  -0.00914  -0.03775
 108        4PY         0.01507   0.06702   0.03051   0.05344  -0.05357
 109        4PZ        -0.01503   0.02204  -0.11415  -0.18171  -0.02083
 110        5PX        -0.03157   0.09801  -0.04921   0.05262  -0.06554
 111        5PY        -0.03471  -0.03484   0.05903   0.03190   0.04495
 112        5PZ        -0.02694  -0.00514  -0.07014  -0.12072   0.01097
 113        6D 0       -0.00147  -0.00172   0.01009   0.01274   0.00040
 114        6D+1       -0.00084  -0.00705   0.00143  -0.00045   0.00540
 115        6D-1       -0.00240   0.00202   0.01915   0.02579  -0.00349
 116        6D+2       -0.00050  -0.01173   0.00724   0.00614   0.01254
 117        6D-2       -0.00860  -0.01792   0.00317  -0.00591   0.01970
 118 10  C  1S          0.00164   0.01388   0.00396  -0.00207  -0.00148
 119        2S         -0.00233  -0.02220  -0.00785   0.00351   0.00072
 120        3S         -0.01275  -0.26049  -0.01860   0.04213   0.03980
 121        4PX         0.04173   0.03284  -0.04250   0.02648  -0.05822
 122        4PY         0.01709   0.07455  -0.00229  -0.01684   0.02230
 123        4PZ         0.01456  -0.01564   0.05658   0.01757  -0.02245
 124        5PX         0.00607   0.04997  -0.09107   0.11548  -0.04102
 125        5PY         0.02532   0.10864  -0.09196  -0.07694   0.02465
 126        5PZ         0.01854  -0.02821  -0.00586  -0.00367  -0.00827
 127        6D 0        0.00081   0.00321  -0.00567   0.00086   0.00209
 128        6D+1       -0.00023   0.00008   0.00469   0.00674   0.00153
 129        6D-1        0.00101   0.00121   0.00705  -0.00132  -0.00245
 130        6D+2       -0.00196  -0.00063   0.00358  -0.00324   0.00049
 131        6D-2       -0.00235   0.00016  -0.00205  -0.00145   0.00328
 132 11  C  1S         -0.00641  -0.00703  -0.00486  -0.00145   0.00142
 133        2S          0.01397   0.01028   0.00208   0.00084  -0.00168
 134        3S          0.01561   0.07509   0.13505   0.03702  -0.02883
 135        4PX        -0.05826  -0.01342   0.01159  -0.01276   0.02042
 136        4PY         0.00114  -0.03641  -0.02117  -0.00525  -0.00342
 137        4PZ        -0.02004  -0.00253  -0.03463  -0.00726   0.01334
 138        5PX        -0.02093  -0.01485   0.00973  -0.05432   0.01866
 139        5PY         0.01137  -0.03351  -0.04707  -0.00243   0.00064
 140        5PZ        -0.00525  -0.00213  -0.05213  -0.01558   0.01521
 141        6D 0        0.00101   0.00287  -0.00196  -0.00027   0.00069
 142        6D+1       -0.00032  -0.00073   0.00137  -0.00016   0.00038
 143        6D-1        0.00013   0.00081   0.00165   0.00037  -0.00018
 144        6D+2       -0.00307  -0.00054   0.00023  -0.00099   0.00182
 145        6D-2       -0.00253   0.00023   0.00099  -0.00092   0.00225
 146 12  C  1S         -0.00013  -0.00280   0.02128   0.00261  -0.00446
 147        2S          0.00029   0.01277  -0.05278  -0.00323   0.01183
 148        3S          0.01211  -0.02336  -0.04173  -0.03803  -0.00268
 149        4PX        -0.00924  -0.00687   0.03289   0.01450   0.00979
 150        4PY        -0.00454  -0.00379   0.06884   0.01169  -0.01614
 151        4PZ        -0.00297   0.03491  -0.05876  -0.01035   0.01884
 152        5PX        -0.00146  -0.00268   0.03677  -0.00845  -0.00597
 153        5PY        -0.00534   0.00224   0.04783   0.03419  -0.00541
 154        5PZ         0.00125   0.03438  -0.01373  -0.01839   0.00783
 155        6D 0        0.00085   0.00163  -0.00412  -0.00100   0.00004
 156        6D+1        0.00094  -0.00036   0.00041  -0.00048  -0.00254
 157        6D-1        0.00029   0.00045  -0.00033   0.00066   0.00118
 158        6D+2       -0.00086  -0.00015   0.00087   0.00218   0.00222
 159        6D-2       -0.00058   0.00001  -0.00111   0.00189   0.00212
 160 13  O  1S         -0.01759   0.00965  -0.00492   0.00497  -0.01232
 161        2S         -0.03523   0.02212  -0.01015   0.00965  -0.02787
 162        3S         -0.02924   0.06183  -0.03116   0.03037  -0.07576
 163        4PX        -0.03978   0.02213  -0.02971  -0.00543  -0.01714
 164        4PY        -0.16149  -0.11175  -0.03807  -0.09517   0.11117
 165        4PZ        -0.09544  -0.03058   0.20444   0.27184   0.03310
 166        5PX        -0.03449   0.01905  -0.02670  -0.00885  -0.02137
 167        5PY        -0.11572  -0.08649  -0.03039  -0.08137   0.08535
 168        5PZ        -0.06767  -0.02231   0.16877   0.22339   0.02442
 169        6D 0       -0.00209  -0.00060  -0.00204  -0.00234   0.00045
 170        6D+1       -0.00095   0.00082  -0.00031  -0.00105  -0.00097
 171        6D-1        0.00341   0.00135  -0.00330  -0.00329  -0.00119
 172        6D+2       -0.00259  -0.00231   0.00035  -0.00217   0.00173
 173        6D-2       -0.00140   0.00308   0.00033   0.00081  -0.00295
 174 14  C  1S          0.01323  -0.02431  -0.00054  -0.00426   0.02519
 175        2S         -0.02882   0.05908   0.00493   0.01077  -0.06329
 176        3S         -0.08966   0.10651  -0.02763   0.01195  -0.13761
 177        4PX        -0.02353   0.03653   0.00942  -0.00263  -0.02991
 178        4PY         0.17300  -0.11675   0.03139   0.00156   0.11033
 179        4PZ         0.07862  -0.03335  -0.05248  -0.07991   0.03097
 180        5PX        -0.03584   0.01240  -0.00822  -0.01540  -0.00250
 181        5PY         0.09387  -0.10130   0.02713  -0.01083   0.11052
 182        5PZ         0.02832  -0.03164  -0.00258  -0.00717   0.03341
 183        6D 0        0.00030  -0.00171  -0.00005   0.00002   0.00169
 184        6D+1       -0.00001   0.00098   0.00918   0.01227  -0.00144
 185        6D-1       -0.00467   0.00113  -0.00170  -0.00226  -0.00080
 186        6D+2        0.00842   0.00183  -0.00175  -0.00142  -0.00198
 187        6D-2        0.00397   0.00211  -0.00233  -0.00362  -0.00424
 188 15  C  1S         -0.00937   0.02099  -0.00786  -0.00058  -0.02623
 189        2S          0.01231  -0.05006   0.02311   0.00545   0.06316
 190        3S          0.08658  -0.05021   0.02281  -0.03127   0.08496
 191        4PX        -0.09538  -0.10297   0.00845  -0.03349   0.12282
 192        4PY        -0.22148   0.07017  -0.03584  -0.03166  -0.05517
 193        4PZ        -0.01960   0.00532   0.08609   0.11411  -0.00682
 194        5PX        -0.03355  -0.04820   0.02403   0.01763   0.05834
 195        5PY        -0.09682  -0.01945   0.00784   0.01654   0.04497
 196        5PZ         0.02129  -0.00248   0.02368   0.00917   0.01849
 197        6D 0        0.01252   0.00058  -0.00640  -0.00849  -0.00013
 198        6D+1       -0.00262  -0.00360  -0.00981  -0.01580   0.00548
 199        6D-1       -0.00606   0.00190  -0.00389  -0.00462  -0.00171
 200        6D+2        0.00532  -0.01104   0.00114  -0.00142   0.01004
 201        6D-2        0.00144  -0.01226   0.00564   0.00402   0.01467
 202 16  H  1S          0.09312  -0.02011  -0.09879  -0.14137   0.02782
 203        2S          0.05627   0.00396  -0.07083  -0.09958   0.00245
 204        3PX        -0.00136  -0.00116   0.00039  -0.00036   0.00161
 205        3PY        -0.00455   0.00217  -0.00173  -0.00237  -0.00227
 206        3PZ         0.00403  -0.00083  -0.00238  -0.00341   0.00097
 207 17  C  1S          0.00426   0.00530  -0.01524  -0.01993  -0.00572
 208        2S         -0.01157  -0.01194   0.03557   0.04507   0.01404
 209        3S         -0.02034  -0.05565   0.09692   0.15741   0.06647
 210        4PX         0.09042   0.01594   0.04683   0.07115  -0.00416
 211        4PY         0.26398  -0.04602   0.06632   0.08182   0.02434
 212        4PZ         0.13987   0.01574  -0.05700  -0.06953  -0.01071
 213        5PX         0.01871   0.01998   0.03252   0.05775  -0.01870
 214        5PY         0.10787  -0.02385   0.05342   0.08065  -0.00276
 215        5PZ         0.04922   0.05598  -0.02995  -0.02796  -0.06201
 216        6D 0        0.01223   0.00069  -0.00224  -0.00258  -0.00021
 217        6D+1        0.00044   0.00129  -0.00131  -0.00141  -0.00137
 218        6D-1       -0.01305   0.00169  -0.00137  -0.00182  -0.00048
 219        6D+2        0.00437  -0.00418  -0.00137  -0.00336   0.00354
 220        6D-2        0.01080  -0.00079   0.00256   0.00336   0.00080
 221 18  C  1S          0.01064   0.00790  -0.00077   0.00268  -0.00583
 222        2S         -0.02442  -0.01831   0.00064  -0.00704   0.01654
 223        3S         -0.04868   0.00661   0.00227  -0.00957  -0.02573
 224        4PX        -0.07339  -0.03429  -0.01796  -0.03700   0.02065
 225        4PY        -0.08846   0.01121  -0.00096  -0.00239  -0.00040
 226        4PZ        -0.05040  -0.00607   0.00554   0.00376   0.00284
 227        5PX        -0.04071  -0.00954  -0.02116  -0.03630  -0.00442
 228        5PY        -0.03960   0.00625  -0.00015  -0.00015   0.00498
 229        5PZ        -0.02525  -0.01211   0.00245  -0.00545   0.01230
 230        6D 0        0.00563   0.00026  -0.00123  -0.00138   0.00015
 231        6D+1        0.00356  -0.00035  -0.00216  -0.00292   0.00058
 232        6D-1       -0.00474   0.00033  -0.00012  -0.00030   0.00025
 233        6D+2        0.00323  -0.00164   0.00075   0.00056   0.00079
 234        6D-2        0.01124  -0.00077   0.00230   0.00334  -0.00003
 235 19  C  1S          0.03691  -0.00163  -0.00091  -0.00118   0.00015
 236        2S         -0.08579   0.00720   0.00250   0.00267   0.00200
 237        3S         -0.10533  -0.01097   0.00014   0.00084  -0.04849
 238        4PX        -0.03015  -0.04836   0.00064  -0.01059   0.02902
 239        4PY        -0.26265   0.03863  -0.01603  -0.01285  -0.02113
 240        4PZ        -0.10820   0.00138   0.00113   0.00025  -0.00185
 241        5PX        -0.01003  -0.04676   0.00098  -0.00849   0.01345
 242        5PY        -0.13305   0.05159  -0.01753  -0.00972  -0.03745
 243        5PZ        -0.05207  -0.00960  -0.00168  -0.00413   0.00030
 244        6D 0        0.00590   0.00121  -0.00163  -0.00182  -0.00011
 245        6D+1        0.00055  -0.00095   0.00031   0.00023   0.00057
 246        6D-1       -0.00576   0.00120  -0.00147  -0.00166  -0.00046
 247        6D+2        0.00208  -0.00163  -0.00136  -0.00215   0.00012
 248        6D-2        0.01038   0.00126   0.00122   0.00214  -0.00072
 249 20  C  1S         -0.02001  -0.00015  -0.00087  -0.00108   0.00016
 250        2S          0.04651   0.00273   0.00075   0.00605   0.00020
 251        3S          0.06689  -0.05068   0.00166  -0.05481   0.03625
 252        4PX        -0.06043  -0.02308   0.02377   0.02075   0.01096
 253        4PY        -0.11531   0.01331  -0.00243  -0.00019  -0.00669
 254        4PZ        -0.15549  -0.01030   0.03328   0.03765   0.00528
 255        5PX        -0.03214  -0.01962   0.03194   0.01588  -0.00192
 256        5PY        -0.05147   0.01365  -0.01278  -0.01176  -0.00596
 257        5PZ        -0.09021  -0.00272   0.04138   0.05337  -0.00221
 258        6D 0        0.00635   0.00043   0.00023   0.00090   0.00021
 259        6D+1        0.00055  -0.00048  -0.00095  -0.00151   0.00006
 260        6D-1       -0.01168   0.00199  -0.00209  -0.00232  -0.00143
 261        6D+2        0.00215  -0.00137  -0.00001  -0.00101   0.00033
 262        6D-2        0.00326  -0.00006  -0.00051  -0.00057   0.00030
 263 21  H  1S         -0.00583  -0.01197   0.01044  -0.00716  -0.00811
 264        2S         -0.00543  -0.01809   0.02341  -0.02021  -0.02098
 265        3PX        -0.00006  -0.00010   0.00074  -0.00055  -0.00006
 266        3PY         0.00006   0.00012  -0.00045   0.00022  -0.00018
 267        3PZ        -0.00036  -0.00103  -0.00256   0.00186  -0.00035
 268 22  H  1S          0.00987   0.01420   0.01523  -0.01065   0.00621
 269        2S          0.00679   0.03824   0.04069  -0.02776   0.03103
 270        3PX         0.00031  -0.00034   0.00188  -0.00128  -0.00085
 271        3PY         0.00005   0.00063   0.00003  -0.00005   0.00050
 272        3PZ         0.00021   0.00063  -0.00130   0.00097   0.00061
 273 23  H  1S         -0.00057  -0.01550   0.02895  -0.02223  -0.02386
 274        2S         -0.00021  -0.00575   0.04966  -0.03950  -0.01762
 275        3PX        -0.00014  -0.00063   0.00076  -0.00067  -0.00094
 276        3PY        -0.00034  -0.00080  -0.00047   0.00023  -0.00045
 277        3PZ        -0.00021   0.00046  -0.00292   0.00208   0.00120
 278 24  H  1S         -0.00476  -0.05130   0.05369  -0.04459  -0.06300
 279        2S         -0.00387  -0.05145   0.02784  -0.02849  -0.06818
 280        3PX         0.00013   0.00075  -0.00153   0.00105   0.00086
 281        3PY        -0.00022  -0.00126  -0.00191   0.00172  -0.00093
 282        3PZ        -0.00042  -0.00235  -0.00299   0.00190  -0.00172
 283 25  H  1S         -0.00929   0.00107  -0.10552   0.07502   0.02646
 284        2S         -0.00571  -0.00574  -0.08235   0.05847   0.01286
[...]
 88,-0.00000296,-0.00002134,0.00003203,0.00000510,-0.00000971,0.0000363
 6,-0.00000207,0.00001441,0.00012630,-0.00039709,-0.00008908,0.00043393
 ,0.00024841,0.00014588,-0.00066333,-0.00080273,0.00028528,-0.00001025,
 0.00012225,0.00058482,-0.00008038,0.00048767,-0.00219266,0.00045842,0.
 00056526,0.00020996,0.10175472,-0.09090877,-0.17728471,-0.00041663,0.0
 0059261,0.00067598,-0.00000484,0.00000025,0.00000047,-0.00000643,-0.00
 000557,-0.00000447,0.00000999,0.00000181,0.00000241,0.00000731,-0.0000
 0064,0.00000094,0.00000056,0.00000245,0.00000610,-0.00000689,0.0000007
 4,0.00000149,-0.00000932,0.00001324,0.00000443,0.00001172,-0.00001194,
 0.00000161,-0.00001494,-0.00000107,0.00000863,0.00001513,-0.00000649,-
 0.00001320,-0.00000755,0.00000392,0.00000803,-0.00000044,-0.00002273,-
 0.00000394,-0.00005870,-0.00010583,0.00007439,0.00007499,-0.00011915,-
 0.00020378,-0.00019611,0.00025188,0.00019222,-0.00056479,-0.00026768,0
 .00025720,0.01488146,-0.01414104,-0.01553215,-0.11090922,0.09981497,0.
 18664504,0.00000261,-0.00000058,0.00000122,-0.00007240,-0.00004444,-0.
 00002654,-0.00000598,0.00000936,0.00000145,-0.00001755,-0.00003316,-0.
 00003159,0.00010721,-0.00009192,0.00009837,0.00002883,0.00016387,0.000
 00539,0.00002019,-0.00015502,-0.00015634,-0.00023216,0.00096677,0.0005
 3055,0.00023547,-0.00013975,0.00000299,0.00002585,0.00000572,-0.000003
 29,-0.00000468,-0.00000149,-0.00001058,-0.00001290,-0.00001610,0.00000
 132,0.00023766,0.00022782,-0.00000341,-0.00014334,0.00004427,-0.000031
 26,-0.00040590,-0.00004448,0.00030997,-0.00001340,-0.00004695,0.000054
 91,-0.00658564,0.00056463,-0.00113699,0.00047647,-0.00247829,0.0001044
 2,-0.30380142,-0.02534823,-0.06504513,0.00062660,0.00104635,-0.0003664
 6,0.00000007,0.00000062,-0.00000016,-0.00000085,-0.00000312,-0.0000012
 2,0.00000802,0.00000139,-0.00000135,0.00000717,-0.00000372,0.00000479,
 0.00000398,0.00000060,0.00000877,0.00000076,-0.00000098,0.00000158,-0.
 00000152,-0.00000102,0.00000170,0.00000075,0.00000208,0.00000205,0.000
 00384,-0.00000187,-0.00000070,0.00000007,0.00000224,0.00000305,-0.0000
 0142,0.00000130,-0.00000593,-0.00001906,-0.00001276,0.00001157,0.00000
 164,0.00003194,-0.00003041,0.00014229,0.00015568,0.00004762,-0.0004835
 8,-0.00000783,-0.00018453,0.00032474,0.00010415,-0.00010292,-0.0021172
 4,-0.00047875,0.00081546,-0.01359790,-0.00172938,-0.00475604,0.3248040
 6,-0.00001919,0.00000590,-0.00002339,0.00009808,0.00011965,0.00005072,
 0.00001117,0.00000008,-0.00003021,0.00002657,0.00005344,0.00002201,-0.
 00017019,0.00005054,-0.00014289,0.00013194,-0.00020751,0.00005124,-0.0
 0011978,0.00002987,0.00017839,0.00004686,-0.00003269,0.00028987,0.0002
 3982,-0.00082704,-0.00008083,0.00002401,-0.00003781,0.00012571,-0.0000
 1775,-0.00001354,0.00000578,-0.00005025,0.00003656,-0.00003301,0.00062
 756,0.00070884,-0.00007276,-0.00022876,0.00007067,0.00017498,-0.000867
 33,0.00109734,0.00028727,0.00005487,-0.00009221,-0.00001445,-0.0295770
 4,-0.00052964,-0.00659812,-0.00077893,-0.00629096,-0.00022322,-0.02279
 850,-0.04872395,-0.00501464,-0.00102049,0.00160049,-0.00089536,0.00000
 662,-0.00000570,0.00000036,0.00000224,0.00000038,0.00001672,-0.0000178
 6,-0.00000919,0.00000454,-0.00001667,0.00000561,-0.00000120,0.00000208
 ,-0.00001174,-0.00000297,0.00000528,-0.00000648,-0.00000169,0.00000885
 ,-0.00000001,0.00000076,-0.00001041,0.00001145,-0.00000131,0.00001035,
 0.00000086,-0.00002177,-0.00001837,0.00000605,0.00002655,0.00000749,0.
 00000216,0.00000587,0.00002479,0.00004829,0.00004752,-0.00001173,0.000
 07875,-0.00003784,0.00013585,-0.00002723,-0.00019672,-0.00208599,-0.00
 019149,-0.00025370,0.00007157,-0.00001491,0.00023861,0.01328585,0.0005
 0196,0.00231719,0.01443102,0.00062088,0.00469760,0.02767111,0.05217759
 ,0.00000566,-0.00003441,-0.00000894,0.00007838,0.00010069,0.00008333,-
 0.00000386,-0.00003731,0.00000016,0.00001236,0.00005794,0.00005248,-0.
 00023114,0.00013450,-0.00015828,0.00010421,-0.00026751,0.00005890,-0.0
 0002794,0.00020468,0.00001227,-0.00024464,0.00027792,-0.00004804,0.000
 27327,-0.00066292,-0.00005150,0.00002616,-0.00001586,0.00004837,-0.000
 02029,-0.00001568,0.00002312,-0.00002024,0.00001091,-0.00001419,0.0005
 5236,0.00066348,0.00006571,-0.00017984,0.00009513,0.00009973,-0.001136
 68,0.00023756,-0.00004672,-0.00004912,-0.00002428,0.00011605,-0.000375
 30,0.00047208,-0.00208883,0.00042219,-0.00006410,0.00005281,-0.0644808
 6,-0.00578720,-0.06193651,0.00097732,0.00027404,0.00021400,0.00000715,
 0.00000735,-0.00000665,0.00002034,0.00002025,-0.00000364,-0.00002038,0
 .00000306,-0.00000593,-0.00001291,0.00000515,-0.00001009,-0.00000987,0
 .00000418,-0.00002561,0.00000033,0.00000558,-0.00000917,0.00000785,0.0
 0000331,-0.00000098,-0.00000782,0.00001236,-0.00000627,0.00000782,-0.0
 0000560,-0.00002763,-0.00001359,0.00000654,0.00001245,0.00000556,0.000
 00957,0.00000362,0.00003937,0.00002636,0.00000609,0.00005959,0.0000393
 0,-0.00002717,0.00033196,-0.00002570,0.00019963,-0.00007096,0.00005356
 ,0.00061852,-0.00032129,0.00009649,0.00017628,-0.02689886,-0.00298486,
 -0.00562643,0.02160360,0.00242898,0.00566599,0.06950693,0.00464948,0.0
 6241740,0.00000475,0.00001140,0.00001181,0.00003052,-0.00002427,-0.000
 02814,0.00002297,0.00002247,0.00001358,-0.00000684,-0.00001944,-0.0000
 0775,-0.00003330,0.00010906,-0.00003645,0.00001865,-0.00021334,-0.0000
 1940,-0.00002506,0.00012593,0.00009707,-0.00019411,0.00037740,0.000163
 63,-0.00044286,-0.00062657,-0.00003262,-0.00000328,-0.00004612,0.00006
 584,0.00002429,-0.00002467,0.00007142,0.00000119,0.00003895,0.00000016
 ,0.00024432,0.00053714,0.00010117,0.00002361,0.00001520,-0.00030232,0.
 00024956,-0.00100717,-0.00007534,-0.00010476,0.00010110,0.00009819,0.0
 0067099,0.00861409,0.00146973,0.00086276,0.00106421,0.00040396,-0.0001
 6197,0.00064069,-0.00147758,-0.07087048,-0.07788730,0.00115217,-0.0000
 0611,-0.00000101,0.00000572,0.00000038,0.00000060,-0.00000473,0.000002
 68,0.00000115,-0.00000137,-0.00000136,0.00000361,0.00000320,0.00000488
 ,-0.00000802,0.00000191,-0.00004688,0.00002215,-0.00004211,-0.00000613
 ,0.00001672,0.00001092,0.00001355,0.00000567,-0.00003573,-0.00000284,0
 .00000288,-0.00001436,0.00000097,-0.00000333,0.00000191,0.00000005,0.0
 0000254,0.00001460,0.00009651,0.00004626,-0.00012978,0.00043329,-0.000
 01225,-0.00013554,0.00008503,-0.00013950,0.00017102,-0.00000819,-0.000
 26013,-0.00023413,-0.00003731,0.00007645,0.00003408,0.00064267,0.00039
 005,-0.00017813,0.00000145,-0.00028186,-0.00007299,0.00029452,0.000266
 50,-0.00001575,0.07040131,0.00000657,0.00000141,0.00000952,0.00001748,
 -0.00002083,-0.00001459,0.00001258,0.00000702,0.00001366,-0.00000137,-
 0.00000867,0.00000514,-0.00003913,0.00007773,-0.00002601,0.00002655,-0
 .00013678,-0.00000479,-0.00001272,0.00009590,0.00003623,-0.00016601,0.
 00063425,0.00022187,-0.00048512,-0.00088609,0.00002943,0.00001881,0.00
 001373,0.00004148,-0.00000779,-0.00000863,0.00002209,-0.00000715,0.000
 01345,-0.00000338,0.00036257,0.00066861,0.00013455,-0.00077019,-0.0002
 5066,-0.00132016,0.00054635,-0.00089295,-0.00081791,-0.00008813,0.0000
 6320,0.00009063,-0.00432763,-0.01238707,-0.00133391,-0.00085971,0.0003
 9429,-0.00067880,0.00145634,-0.00017849,0.00395788,-0.07747170,-0.2908
 4771,0.00658335,-0.00000323,0.00000177,0.00000335,0.00000293,0.0000034
 8,-0.00000604,0.00000098,0.00000152,-0.00000309,-0.00000207,0.00000172
 ,0.00000073,0.00000132,-0.00000277,-0.00000326,-0.00002201,0.00000889,
 -0.00001454,-0.00000422,0.00001215,0.00000823,0.00000495,0.00000612,-0
 .00001322,0.00000035,0.00000093,-0.00001094,-0.00000159,0.00000267,0.0
 0000431,0.00000054,0.00000421,0.00001081,0.00033102,0.00021559,-0.0003
 5988,0.00022641,0.00056794,-0.00054013,0.00007105,0.00030203,0.0000358
 3,0.00071853,0.00028824,0.00032368,-0.00000767,-0.00011220,0.00003161,
 -0.00026398,-0.00104083,-0.00000103,-0.00000561,0.00032542,-0.00014298
 ,0.00011999,0.00025391,-0.00017385,0.08425203,0.31448890,-0.00000932,0
 .00000422,-0.00000685,0.00001504,0.00001722,0.00000360,-0.00000223,-0.
 00000102,-0.00000718,0.00000983,0.00001400,0.00001739,-0.00005509,-0.0
 0003156,-0.00004762,0.00007228,0.00006026,0.00006918,-0.00004935,-0.00
 005836,-0.00001657,-0.00000051,-0.00040839,-0.00009873,0.00058925,0.00
 056625,0.00010068,-0.00000177,-0.00005244,-0.00000596,-0.00001553,-0.0
 0000339,0.00001774,-0.00003293,0.00001112,-0.00001436,-0.00085067,-0.0
 0031859,0.00016542,0.00108671,-0.00010020,-0.00174578,0.00033356,0.000
 51144,0.00140105,-0.00021852,-0.00007229,0.00019770,0.00942851,0.02558
 131,0.00188793,0.00119776,-0.00000794,0.00110405,-0.00155343,0.0015128
 6,-0.00505463,0.00082627,0.00600091,-0.04578997,0.00000265,-0.00000027
 ,0.00000079,0.00000125,0.00000005,0.00000226,-0.00000564,-0.00000444,0
 .00000092,-0.00000627,0.00000002,-0.00000158,-0.00000076,-0.00000641,-
 0.00000524,0.00001089,-0.00000536,0.00000713,0.00001666,-0.00002165,-0
 .00001080,-0.00001476,0.00000542,0.00000099,0.00000902,0.00000278,-0.0
 0000416,-0.00001360,-0.00000020,0.00001214,0.00001029,-0.00000772,-0.0
 0001383,-0.00019717,-0.00006883,0.00028850,-0.00064723,-0.00108672,-0.
 00117292,0.00023210,-0.00023325,-0.00000463,-0.00052734,-0.00033661,0.
 00007855,-0.00009617,-0.00013750,-0.00004713,0.00017869,0.00181918,0.0
 0003964,-0.00023537,0.00019629,0.00009902,0.00001089,-0.00021450,-0.00
 009713,-0.00033424,-0.00765250,0.04901704,0.00000658,0.00000501,0.0000
 0793,-0.00003847,-0.00003600,-0.00002630,0.00000092,0.00000585,0.00001
 112,-0.00000920,-0.00001295,-0.00001377,0.00004871,-0.00006338,0.00006
 860,-0.00005414,0.00025608,-0.00002565,0.00005138,-0.00010960,-0.00011
 048,0.00026725,0.00015661,0.00118527,0.00003293,-0.00039872,0.00050023
 ,0.00006004,0.00000409,0.00002700,-0.00000765,0.00000159,-0.00004722,-
 0.00004382,-0.00001722,-0.00000293,0.00030956,-0.00012380,-0.00018876,
 -0.00039727,0.00004605,-0.00016950,-0.00082641,0.00042584,0.00065718,-
 0.00001204,-0.00002838,-0.00007598,-0.00760336,-0.00072570,-0.00096828
 ,0.00073118,0.00137129,-0.00204492,0.00048158,-0.00074960,0.00063170,-
 0.31854509,-0.00924264,-0.03142511,-0.00000246,0.00000072,0.00000251,-
 0.00000009,-0.00000098,-0.00000245,0.00000426,0.00000310,-0.00000160,0
 .00000334,-0.00000104,-0.00000079,0.00000785,0.00000444,-0.00000188,0.
 00002086,-0.00001314,0.00001104,-0.00000001,-0.00000306,-0.00000015,-0
 .00000327,-0.00000096,0.00001234,0.00000335,0.00000223,-0.00000019,-0.
 00000997,0.00000425,0.00001096,0.00000338,-0.00000084,-0.00001067,0.00
 001202,0.00001305,-0.00000713,-0.00000270,0.00007282,-0.00009050,-0.00
 054648,-0.00007717,-0.00005486,0.00013509,-0.00005507,0.00013284,0.000
 26763,-0.00012400,0.00011236,0.00029360,-0.00002464,0.00002079,-0.0000
 5060,-0.00004900,-0.00004369,0.00036193,0.00052159,-0.00010030,-0.0057
 3186,0.00152205,-0.00038835,0.34082857,-0.00001208,-0.00001525,-0.0000
 2626,-0.00003026,0.00004825,0.00005198,-0.00003363,-0.00002515,-0.0000
 2508,0.00001844,0.00002736,-0.00000878,0.00006674,-0.00014926,0.000050
 51,0.00000428,0.00023129,-0.00000242,0.00003122,-0.00017405,-0.0000990
 1,-0.00003197,0.00012594,0.00001612,0.00008728,-0.00029748,-0.00030954
 ,0.00005926,0.00004263,-0.00006854,-0.00002480,0.00003065,-0.00009092,
 -0.00002833,-0.00002850,-0.00001363,0.00005104,-0.00016799,-0.00010757
 ,-0.00042190,-0.00034724,0.00002049,-0.00033714,0.00046132,-0.00053264
 ,0.00010900,-0.00006988,-0.00005483,0.01415880,-0.00084087,0.00015010,
 0.00038104,-0.00132790,0.00262220,0.00157414,0.00080364,-0.00016544,-0
 .01049084,-0.04737167,-0.00117921,0.00000913,0.00000130,-0.00000750,-0
 .00000046,-0.00000184,0.00000926,-0.00000746,-0.00000441,0.00000412,-0
 .00000083,-0.00000443,0.00000268,0.00000234,0.00000860,0.00000722,0.00
 002683,-0.00004740,0.00004584,-0.00000348,-0.00000715,0.00001340,-0.00
 001122,0.00000542,0.00003694,0.00000388,0.00000026,0.00000996,-0.00000
 578,0.00000703,0.00000984,0.00000055,0.00000019,-0.00000753,0.00006770
 ,0.00002450,-0.00006470,0.00005323,0.00015546,0.00008277,0.00089656,0.
 00046923,0.00040834,0.00021290,0.00021249,0.00011530,-0.00033586,0.000
 00554,0.00002697,-0.00022854,0.00012187,-0.00018371,0.00001463,-0.0000
 1032,0.00004531,-0.00036662,-0.00043184,0.00024410,-0.02948101,0.00088
 550,-0.00306249,0.00885913,0.04765174,-0.00002649,-0.00001073,-0.00003
 377,0.00008611,0.00010585,0.00007753,-0.00001058,-0.00003225,-0.000018
 43,0.00003784,0.00007136,0.00009341,-0.00023836,0.00000044,-0.00021227
 ,0.00035232,-0.00015767,0.00017025,-0.00018897,0.00000099,0.00004874,-
 0.00011333,0.00039012,0.00071142,0.00051582,-0.00227489,-0.00089066,0.
 00013302,-0.00012371,0.00009196,-0.00006795,-0.00003745,0.00002054,-0.
 00013779,0.00005460,-0.00007646,0.00100498,0.00097596,0.00003128,-0.00
 052006,0.00011981,-0.00015380,-0.00133035,-0.00028823,0.00101441,0.000
 02389,0.00010218,0.00030567,-0.02786120,-0.00172997,-0.00243975,-0.000
 39084,0.00286375,-0.00519923,-0.00035565,-0.00127626,0.00063404,-0.029
 13375,-0.00079215,-0.04781200,0.00001191,0.00000334,-0.00000525,0.0000
 0994,0.00000831,0.00000403,-0.00002291,-0.00001225,0.00000311,-0.00001
 841,0.00000336,-0.00001707,-0.00001617,-0.00000546,-0.00003162,0.00001
 745,-0.00000520,0.00000591,0.00001631,-0.00000973,-0.00000495,-0.00002
 247,0.00003551,0.00000362,0.00002190,0.00001022,-0.00003445,-0.0000367
 0,0.00001643,0.00006102,0.00001674,0.00000065,-0.00000372,0.00006871,0
 .00000983,0.00002418,0.00002762,0.00011931,0.00000261,-0.00191345,0.00
 023118,-0.00026829,0.00027899,-0.00007425,-0.00000164,-0.00004197,0.00
 018757,0.00013942,0.00016610,-0.00021462,-0.00000084,0.00016349,-0.000
 01323,-0.00001757,0.00030021,0.00058426,0.00033865,0.00038390,-0.00016
 939,-0.00135812,0.03493910,-0.00082259,0.05155357,-0.00001377,-0.00000
 640,-0.00001944,0.00004659,0.00006151,0.00004662,-0.00000479,-0.000012
 50,-0.00001311,0.00002765,0.00003964,0.00003450,-0.00009324,-0.0000292
 8,-0.00007611,0.00014477,-0.00002989,0.00004472,-0.00009267,-0.0000347
 7,0.00002524,0.00010506,0.00030786,0.00106364,0.00011034,-0.00100235,-
 0.00000935,0.00005138,-0.00002032,0.00000653,-0.00002699,-0.00000453,-
 0.00001776,-0.00004853,0.00001316,-0.00002725,0.00031229,0.00031951,-0
 .00014632,-0.00031379,0.00021653,-0.00026410,-0.00094535,0.00065314,-0
 .00188073,0.00034508,-0.00014606,-0.00038972,0.00228702,-0.00454785,-0
 .00778004,0.00091712,-0.00076685,-0.00080589,0.00011095,-0.00007061,0.
 00011183,-0.09331005,0.05569627,0.09047042,0.00000624,0.00000032,-0.00
 000349,0.00000446,0.00000300,0.00000530,-0.00001378,-0.00000644,0.0000
 0267,-0.00000999,0.00000079,-0.00000286,-0.00000047,-0.00000138,-0.000
 00680,0.00001397,-0.00002085,0.00000985,0.00000511,-0.00000307,0.00000
 346,-0.00001077,0.00001368,0.00000922,0.00000954,0.00000401,-0.0000126
 1,-0.00001574,0.00000760,0.00002160,0.00000598,-0.00000027,-0.00000125
 ,0.00008412,0.00004802,-0.00004565,0.00006881,0.00013877,0.00022847,0.
 00009409,-0.00005150,0.00022148,-0.00003804,-0.00005552,-0.00003953,-0
 .00003053,0.00030445,0.00009497,-0.00009579,-0.00019872,-0.00011929,0.
 00020652,-0.00014845,0.00018523,-0.00019778,0.00009716,0.00019923,0.00
 355243,-0.00515237,-0.00877542,-0.01004712,0.01516407,0.02387105,0.096
 79968,0.00000370,0.00000049,0.00000343,-0.00001955,-0.00000945,-0.0000
 0495,-0.00000094,0.00000397,0.00000021,-0.00001544,-0.00001704,-0.0000
 2279,0.00005280,0.00001536,0.00003788,-0.00005124,-0.00001724,-0.00003
 823,0.00003559,0.00001526,0.00000598,0.00019839,0.00014879,-0.00023997
 ,-0.00047019,-0.00046432,-0.00001192,0.00000098,0.00001775,0.00003301,
 0.00001229,-0.00000718,0.00001655,0.00000788,0.00000432,0.00000855,0.0
 0036715,0.00028961,0.00005179,-0.00038373,-0.00009704,-0.00017743,0.00
 088418,-0.00192112,0.00287480,-0.00039542,0.00054015,0.00078543,-0.006
 67084,0.00600369,0.01230081,-0.00049811,0.00022275,-0.00009775,-0.0005
 2869,0.00102837,0.00088036,0.05583926,-0.10710358,-0.10323529,-0.00000
 164,-0.00000138,-0.00000030,-0.00000314,-0.00000198,0.00000042,0.00000
 565,0.00000266,0.00000046,0.00000593,-0.00000019,0.00000135,0.00000031
 ,0.00000214,0.00000550,-0.00002457,0.00001200,-0.00001886,-0.00001136,
 0.00001419,0.00001004,0.00001299,0.00000121,-0.00001363,-0.00000274,0.
 00000116,0.00000034,0.00000667,0.00000003,-0.00000382,-0.00000490,0.00
 000142,0.00000792,0.00019831,0.00010094,-0.00023332,0.00034502,0.00044
 953,0.00010103,-0.00021870,-0.00001858,-0.00000337,0.00010658,-0.00008
 365,-0.00011131,-0.00004989,0.00017830,-0.00027736,-0.00002841,0.00017
 976,-0.00021073,0.00031499,-0.00013118,-0.00002661,-0.00011345,-0.0000
 2734,-0.00004530,0.01329176,-0.01256693,-0.02241070,-0.00141793,0.0000
 0243,0.00215499,-0.06077953,0.11323192,0.00001054,0.00000357,0.0000123
 4,-0.00001389,-0.00004402,-0.00002676,0.00000871,0.00001167,0.00001174
 ,-0.00000868,-0.00002524,-0.00002423,0.00007986,0.00004404,0.00006396,
 -0.00012113,-0.00008828,-0.00010584,0.00006532,0.00008736,0.00005512,-
 0.00041500,-0.00007537,0.00049462,-0.00006936,0.00035017,0.00030683,-0
 .00004180,-0.00000267,-0.00005872,0.00005164,0.00001545,-0.00002741,0.
 00007017,-0.00001653,0.00002577,-0.00001723,-0.00033168,-0.00015730,0.
 00010284,0.00073230,0.00013998,-0.00261099,0.00382004,-0.00372499,0.00
 077570,-0.00068681,-0.00153542,0.01212003,-0.01372936,-0.02163035,0.00
 134415,-0.00078170,0.00097555,0.00025828,-0.00157139,0.00096474,0.0896
 6227,-0.10169525,-0.20818339,-0.00000661,0.00000024,0.00000211,-0.0000
 0383,-0.00000326,-0.00000495,0.00000983,0.00000445,-0.00000023,0.00000
 732,-0.00000004,0.00000412,0.00000407,0.00000254,0.00000963,-0.0000036
 8,-0.00000403,0.00000771,-0.00001229,0.00001784,0.00000495,0.00001397,
 -0.00002373,0.00000608,-0.00002082,-0.00000629,0.00001130,0.00002237,-
 0.00000788,-0.00002729,-0.00001099,0.00000957,0.00001217,-0.00004099,-
 0.00005495,0.00002136,0.00000083,-0.00003414,0.00025560,-0.00000113,0.
 00023926,0.00043050,-0.00002496,0.00003279,-0.00003455,-0.00095681,0.0
 0033568,0.00017363,-0.00025768,-0.00002795,0.00037957,-0.00019332,0.00
 093070,0.00022665,0.00006966,0.00008515,-0.00006587,-0.00109753,0.0017
 2602,0.00099146,-0.00252955,0.00285893,0.00324451,-0.09621927,0.107902
 81,0.22677528\\-0.00054627,0.00112628,0.00317591,-0.01108523,-0.014258
 26,-0.00498089,0.00232550,-0.00055236,0.00334100,0.00071704,-0.0051535
 8,-0.00124004,0.01964349,-0.01083000,0.01129887,-0.00755006,0.03158453
 ,-0.00100121,-0.00165780,-0.00004275,-0.00862879,0.00301542,0.00123512
 ,0.00114151,-0.00387809,0.03081154,0.00500869,0.00039847,0.00146535,-0
 .00012589,0.00039940,0.00020180,-0.00180105,-0.00106971,-0.00212166,0.
 00147935,-0.01658712,-0.01748818,-0.00511358,0.00198293,-0.00487186,-0
 .00132031,0.01734590,-0.00840668,0.00186936,-0.00457679,0.00039305,-0.
 00008693,-0.00028679,-0.00032369,-0.00280927,-0.00018785,0.00079201,0.
 00168454,0.00333038,0.00133055,0.00327748,0.00067898,0.00059091,0.0006
 3903,-0.00083970,0.00090920,-0.00006767,0.00106396,-0.00055062,-0.0026
 9250,0.00105158,0.00070401,-0.00063577,0.00116105,-0.00090566,0.000616
 16,0.00037798,0.00056364,0.00068861,0.00002140,0.00023432,0.00000408,-
 0.00037545,-0.00053764,0.00014664,0.00039889,-0.00038827,0.00039101,0.
 00176850,-0.00073289,0.00257715,0.00043682,-0.00004152,-0.00060987,-0.
 00006390,-0.00076973,-0.00078298,-0.00110874,-0.00073885,-0.00017078,-
 0.00099622,-0.00047597,0.00002725,-0.00033318,-0.00000889,-0.00035714,
 0.00039602,0.00020121,-0.00015395,-0.00074252,0.00018173,0.00018883,-0
 .00186663,0.00014224,-0.00045149,-0.00163495,0.00062779,-0.00055696,-0
 .00015339,-0.00407444,-0.00253383,0.00003975,0.00036827,-0.00042261,-0
 .00027182,-0.00034822,-0.00134876,-0.00074126,0.00015819,0.00033679\\\
 @

 Writing a WFNX file to "03_lig_b.wfx"


 ROSE IS A RED
 TY COBB IS BLUE
 'CAUSE PETE JUST HIT
 NO. 4592.
 Job cpu time:       0 days  2 hours 58 minutes 43.2 seconds.
 Elapsed time:       0 days  0 hours 22 minutes 20.7 seconds.
 File lengths (MBytes):  RWF=    630 Int=      0 D2E=      0 Chk=     11 Scr=      1
 Normal termination of Gaussian 16 at Thu Nov  3 08:26:44 2022.
