 Entering Gaussian System, Link 0=g16
 Initial command:
 /software/gaussian/G16-A.03/avx/g16/l1.exe "/scratch/lcmd/1361334.slurm/Gau-58064.inp" -scrdir="/scratch/lcmd/1361334.slurm/"
 Entering Link 1 = /software/gaussian/G16-A.03/avx/g16/l1.exe PID=     58066.
  
 Copyright (c) 1988,1990,1992,1993,1995,1998,2003,2009,2016,
            Gaussian, Inc.  All Rights Reserved.
  
 This is part of the Gaussian(R) 16 program.  It is based on
 the Gaussian(R) 09 system (copyright 2009, Gaussian, Inc.),
 the Gaussian(R) 03 system (copyright 2003, Gaussian, Inc.),
 the Gaussian(R) 98 system (copyright 1998, Gaussian, Inc.),
 the Gaussian(R) 94 system (copyright 1995, Gaussian, Inc.),
 the Gaussian 92(TM) system (copyright 1992, Gaussian, Inc.),
 the Gaussian 90(TM) system (copyright 1990, Gaussian, Inc.),
 the Gaussian 88(TM) system (copyright 1988, Gaussian, Inc.),
 the Gaussian 86(TM) system (copyright 1986, Carnegie Mellon
 University), and the Gaussian 82(TM) system (copyright 1983,
 Carnegie Mellon University). Gaussian is a federally registered
 trademark of Gaussian, Inc.
  
 This software contains proprietary and confidential information,
 including trade secrets, belonging to Gaussian, Inc.
  
 This software is provided under written license and may be
 used, copied, transmitted, or stored only in accord with that
 written license.
  
 The following legend is applicable only to US Government
 contracts under FAR:
  
                    RESTRICTED RIGHTS LEGEND
  
 Use, reproduction and disclosure by the US Government is
 subject to restrictions as set forth in subparagraphs (a)
 and (c) of the Commercial Computer Software - Restricted
 Rights clause in FAR 52.227-19.
  
 Gaussian, Inc.
 340 Quinnipiac St., Bldg. 40, Wallingford CT 06492
  
  
 ---------------------------------------------------------------
 Warning -- This program may not be used in any manner that
 competes with the business of Gaussian, Inc. or will provide
 assistance to any competitor of Gaussian, Inc.  The licensee
 of this program is prohibited from giving any competitor of
 Gaussian, Inc. access to this program.  By using this program,
 the user acknowledges that Gaussian, Inc. is engaged in the
 business of creating and licensing software in the field of
 computational chemistry and represents and warrants to the
 licensee that it is not a competitor of Gaussian, Inc. and that
 it will not use this program in any manner prohibited above.
 ---------------------------------------------------------------
  

 Cite this work as:
 Gaussian 16, Revision A.03,
 M. J. Frisch, G. W. Trucks, H. B. Schlegel, G. E. Scuseria, 
 M. A. Robb, J. R. Cheeseman, G. Scalmani, V. Barone, 
 G. A. Petersson, H. Nakatsuji, X. Li, M. Caricato, A. V. Marenich, 
 J. Bloino, B. G. Janesko, R. Gomperts, B. Mennucci, H. P. Hratchian, 
 J. V. Ortiz, A. F. Izmaylov, J. L. Sonnenberg, D. Williams-Young, 
 F. Ding, F. Lipparini, F. Egidi, J. Goings, B. Peng, A. Petrone, 
 T. Henderson, D. Ranasinghe, V. G. Zakrzewski, J. Gao, N. Rega, 
 G. Zheng, W. Liang, M. Hada, M. Ehara, K. Toyota, R. Fukuda, 
 J. Hasegawa, M. Ishida, T. Nakajima, Y. Honda, O. Kitao, H. Nakai, 
 T. Vreven, K. Throssell, J. A. Montgomery, Jr., J. E. Peralta, 
 F. Ogliaro, M. J. Bearpark, J. J. Heyd, E. N. Brothers, K. N. Kudin, 
 V. N. Staroverov, T. A. Keith, R. Kobayashi, J. Normand, 
 K. Raghavachari, A. P. Rendell, J. C. Burant, S. S. Iyengar, 
 J. Tomasi, M. Cossi, J. M. Millam, M. Klene, C. Adamo, R. Cammi, 
 J. W. Ochterski, R. L. Martin, K. Morokuma, O. Farkas, 
 J. B. Foresman, and D. J. Fox, Gaussian, Inc., Wallingford CT, 2016.
 
 ******************************************
 Gaussian 16:  ES64L-G16RevA.03 25-Dec-2016
                 3-Nov-2022 
 ******************************************
 %nprocs=8
 Will use up to    8 processors via shared memory.
 %mem=32000MB
 %chk=04_lig_b.chk
 ----------------------------------------------------------------------
 #p pop=(regular,nbo,savenbos) freq=noraman def2svp empiricaldispersion
 =gd3bj output=wfx pbe1pbe
 ----------------------------------------------------------------------
 1/10=4,30=1,38=1/1,3;
 2/12=2,17=6,18=5,40=1/2;
 3/5=43,7=101,11=2,25=1,30=1,71=2,74=-13,124=41,140=1/1,2,3;
 4//1;
 5/5=2,38=5,98=1/2;
 8/6=4,10=90,11=11/1;
 11/6=1,8=1,9=11,15=111,16=1/1,2,10;
 10/6=1/2;
 6/28=1,40=1,73=1/1,7;
 7/8=1,10=1,25=1/1,2,3,16;
 1/10=4,30=1/3;
 99/6=200/99;
 Leave Link    1 at Thu Nov  3 08:04:19 2022, MaxMem=  4194304000 cpu:               0.4 elap:               0.1
 (Enter /software/gaussian/G16-A.03/avx/g16/l101.exe)
 --------
 04_lig_b
 --------
 Symbolic Z-matrix:
 Charge =  0 Multiplicity = 1
 C                     1.30557   3.81433  -0.33599 
 C                     1.04289   2.45542   0.31421 
 C                     2.20902   1.52241   0.10486 
 N                     2.17109   0.24891   0.06532 
 C                     3.53787  -0.26759   0.00425 
 H                     3.68529  -0.84481   0.93198 
 C                     4.37895   1.02542   0.01017 
 O                     3.40917   2.08943   0.07119 
 C                     3.76239  -1.21664  -1.1922 
 C                     3.45781  -0.51398  -2.51495 
 C                     5.22081  -1.67853  -1.15359 
 C                     2.84743  -2.43435  -1.04088 
 N                    -0.56993   0.61119  -0.12434 
 C                    -0.22712   1.838    -0.21776 
 O                    -1.11727   2.66405  -0.75657 
 C                    -2.20246   1.83995  -1.23932 
 C                    -1.95924   0.48435  -0.56348 
 H                    -2.02795  -0.36363  -1.25868 
 C                    -2.86446   0.20686   0.64039 
 C                    -4.26971  -0.10724   0.21318 
 C                    -4.55292  -1.35477  -0.36047 
 C                    -5.83765  -1.65165  -0.8063 
 C                    -6.85985  -0.70856  -0.68713 
 C                    -6.58991   0.53198  -0.11429 
 C                    -5.30173   0.8289    0.33203 
 C                     0.8781    2.59437   1.84782 
 H                     1.41665   3.72412  -1.42574 
 H                     2.22683   4.24764   0.07191 
 H                     0.46704   4.49197  -0.13281 
 H                     4.9763    1.17136  -0.90042 
 H                     5.0339    1.11794   0.88677 
 H                     3.59622  -1.2108   -3.35551 
 H                     4.1161    0.35066  -2.69859 
 H                     2.4139   -0.16487  -2.54134 
 H                     5.41913  -2.38506  -1.97367 
 H                     5.44597  -2.19317  -0.20624 
 H                     5.92935  -0.84179  -1.26548 
 H                     3.10485  -3.19702  -1.79205 
 H                     1.78516  -2.18506  -1.1927 
 H                     2.93302  -2.88586  -0.04116 
 H                    -2.12532   1.8018   -2.33619 
 H                    -3.15182   2.31389  -0.95889 
 H                    -2.84422   1.07697   1.31754 
 H                    -2.42729  -0.65224   1.17129 
 H                    -3.74923  -2.09361  -0.44049 
 H                    -6.04542  -2.63068  -1.24508 
 H                    -7.86834  -0.94466  -1.0351 
 H                    -7.38656   1.27252  -0.00846 
 H                    -5.09857   1.79937   0.79533 
 H                     1.76117   3.09786   2.26603 
 H                     0.78214   1.60412   2.31792 
 H                    -0.01196   3.19791   2.07649 
 
 ITRead=  0  0  0  0  0  0  0  0  0  0  0  0  0  0  0  0  0  0  0  0
 ITRead=  0  0  0  0  0  0  0  0  0  0  0  0  0  0  0  0  0  0  0  0
 ITRead=  0  0  0  0  0  0  0  0  0  0  0  0
 MicOpt= -1 -1 -1 -1 -1 -1 -1 -1 -1 -1 -1 -1 -1 -1 -1 -1 -1 -1 -1 -1
 MicOpt= -1 -1 -1 -1 -1 -1 -1 -1 -1 -1 -1 -1 -1 -1 -1 -1 -1 -1 -1 -1
 MicOpt= -1 -1 -1 -1 -1 -1 -1 -1 -1 -1 -1 -1
 NAtoms=     52 NQM=       52 NQMF=       0 NMMI=      0 NMMIF=      0
                NMic=       0 NMicF=      0.
                    Isotopes and Nuclear Properties:
 (Nuclear quadrupole moments (NQMom) in fm**2, nuclear magnetic moments (NMagM)
  in nuclear magnetons)

  Atom         1           2           3           4           5           6           7           8           9          10
 IAtWgt=          12          12          12          14          12           1          12          16          12          12
 AtmWgt=  12.0000000  12.0000000  12.0000000  14.0030740  12.0000000   1.0078250  12.0000000  15.9949146  12.0000000  12.0000000
 NucSpn=           0           0           0           2           0           1           0           0           0           0
 AtZEff=  -0.0000000  -0.0000000  -0.0000000  -0.0000000  -0.0000000  -0.0000000  -0.0000000  -0.0000000  -0.0000000  -0.0000000
 NQMom=    0.0000000   0.0000000   0.0000000   2.0440000   0.0000000   0.0000000   0.0000000   0.0000000   0.0000000   0.0000000
 NMagM=    0.0000000   0.0000000   0.0000000   0.4037610   0.0000000   2.7928460   0.0000000   0.0000000   0.0000000   0.0000000
 AtZNuc=   6.0000000   6.0000000   6.0000000   7.0000000   6.0000000   1.0000000   6.0000000   8.0000000   6.0000000   6.0000000

  Atom        11          12          13          14          15          16          17          18          19          20
 IAtWgt=          12          12          14          12          16          12          12           1          12          12
 AtmWgt=  12.0000000  12.0000000  14.0030740  12.0000000  15.9949146  12.0000000  12.0000000   1.0078250  12.0000000  12.0000000
 NucSpn=           0           0           2           0           0           0           0           1           0           0
 AtZEff=  -0.0000000  -0.0000000  -0.0000000  -0.0000000  -0.0000000  -0.0000000  -0.0000000  -0.0000000  -0.0000000  -0.0000000
 NQMom=    0.0000000   0.0000000   2.0440000   0.0000000   0.0000000   0.0000000   0.0000000   0.0000000   0.0000000   0.0000000
 NMagM=    0.0000000   0.0000000   0.4037610   0.0000000   0.0000000   0.0000000   0.0000000   2.7928460   0.0000000   0.0000000
 AtZNuc=   6.0000000   6.0000000   7.0000000   6.0000000   8.0000000   6.0000000   6.0000000   1.0000000   6.0000000   6.0000000

  Atom        21          22          23          24          25          26          27          28          29          30
 IAtWgt=          12          12          12          12          12          12           1           1           1           1
 AtmWgt=  12.0000000  12.0000000  12.0000000  12.0000000  12.0000000  12.0000000   1.0078250   1.0078250   1.0078250   1.0078250
 NucSpn=           0           0           0           0           0           0           1           1           1           1
 AtZEff=  -0.0000000  -0.0000000  -0.0000000  -0.0000000  -0.0000000  -0.0000000  -0.0000000  -0.0000000  -0.0000000  -0.0000000
 NQMom=    0.0000000   0.0000000   0.0000000   0.0000000   0.0000000   0.0000000   0.0000000   0.0000000   0.0000000   0.0000000
 NMagM=    0.0000000   0.0000000   0.0000000   0.0000000   0.0000000   0.0000000   2.7928460   2.7928460   2.7928460   2.7928460
 AtZNuc=   6.0000000   6.0000000   6.0000000   6.0000000   6.0000000   6.0000000   1.0000000   1.0000000   1.0000000   1.0000000

  Atom        31          32          33          34          35          36          37          38          39          40
 IAtWgt=           1           1           1           1           1           1           1           1           1           1
 AtmWgt=   1.0078250   1.0078250   1.0078250   1.0078250   1.0078250   1.0078250   1.0078250   1.0078250   1.0078250   1.0078250
 NucSpn=           1           1           1           1           1           1           1           1           1           1
 AtZEff=  -0.0000000  -0.0000000  -0.0000000  -0.0000000  -0.0000000  -0.0000000  -0.0000000  -0.0000000  -0.0000000  -0.0000000
 NQMom=    0.0000000   0.0000000   0.0000000   0.0000000   0.0000000   0.0000000   0.0000000   0.0000000   0.0000000   0.0000000
 NMagM=    2.7928460   2.7928460   2.7928460   2.7928460   2.7928460   2.7928460   2.7928460   2.7928460   2.7928460   2.7928460
 AtZNuc=   1.0000000   1.0000000   1.0000000   1.0000000   1.0000000   1.0000000   1.0000000   1.0000000   1.0000000   1.0000000

  Atom        41          42          43          44          45          46          47          48          49          50
 IAtWgt=           1           1           1           1           1           1           1           1           1           1
 AtmWgt=   1.0078250   1.0078250   1.0078250   1.0078250   1.0078250   1.0078250   1.0078250   1.0078250   1.0078250   1.0078250
 NucSpn=           1           1           1           1           1           1           1           1           1           1
 AtZEff=  -0.0000000  -0.0000000  -0.0000000  -0.0000000  -0.0000000  -0.0000000  -0.0000000  -0.0000000  -0.0000000  -0.0000000
 NQMom=    0.0000000   0.0000000   0.0000000   0.0000000   0.0000000   0.0000000   0.0000000   0.0000000   0.0000000   0.0000000
 NMagM=    2.7928460   2.7928460   2.7928460   2.7928460   2.7928460   2.7928460   2.7928460   2.7928460   2.7928460   2.7928460
 AtZNuc=   1.0000000   1.0000000   1.0000000   1.0000000   1.0000000   1.0000000   1.0000000   1.0000000   1.0000000   1.0000000

  Atom        51          52
 IAtWgt=           1           1
 AtmWgt=   1.0078250   1.0078250
 NucSpn=           1           1
 AtZEff=  -0.0000000  -0.0000000
 NQMom=    0.0000000   0.0000000
 NMagM=    2.7928460   2.7928460
 AtZNuc=   1.0000000   1.0000000
 Leave Link  101 at Thu Nov  3 08:04:19 2022, MaxMem=  4194304000 cpu:               1.0 elap:               0.1
 (Enter /software/gaussian/G16-A.03/avx/g16/l103.exe)

 GradGradGradGradGradGradGradGradGradGradGradGradGradGradGradGradGradGrad
 Berny optimization.
 Initialization pass.
 Trust Radius=3.00D-01 FncErr=1.00D-07 GrdErr=1.00D-07 EigMax=2.50D+02 EigMin=1.00D-04
 Number of steps in this run=      2 maximum allowed number of steps=      2.
 GradGradGradGradGradGradGradGradGradGradGradGradGradGradGradGradGradGrad

 Leave Link  103 at Thu Nov  3 08:04:19 2022, MaxMem=  4194304000 cpu:               0.2 elap:               0.0
 (Enter /software/gaussian/G16-A.03/avx/g16/l202.exe)
 Stoichiometry    C20H28N2O2
 Framework group  C1[X(C20H28N2O2)]
 Deg. of freedom   150
 Full point group                 C1      NOp   1
 Largest Abelian subgroup         C1      NOp   1
 Largest concise Abelian subgroup C1      NOp   1
                         Standard orientation:                         
 ---------------------------------------------------------------------
 Center     Atomic      Atomic             Coordinates (Angstroms)
 Number     Number       Type             X           Y           Z
 ---------------------------------------------------------------------
      1          6           0        1.533468   -3.126198    0.882605
      2          6           0        1.222432   -2.013527   -0.119202
      3          6           0        2.378463   -1.051975   -0.234111
      4          7           0        2.319028    0.178794   -0.560419
      5          6           0        3.677580    0.700135   -0.705779
      6          1           0        3.780154    0.987075   -1.765375
      7          6           0        4.541081   -0.534294   -0.374301
      8          8           0        3.589082   -1.577331   -0.087792
      9          6           0        3.929000    1.954701    0.157614
     10          6           0        3.686268    1.660202    1.637654
     11          6           0        5.376416    2.395679   -0.071181
     12          6           0        2.987229    3.071292   -0.299724
     13          7           0       -0.406117   -0.131890   -0.163595
     14          6           0       -0.037988   -1.277666    0.264174
     15          8           0       -0.892547   -1.919737    1.053171
     16          6           0       -1.973855   -0.998862    1.322590
     17          6           0       -1.780307    0.106637    0.276656
     18          1           0       -1.838573    1.118271    0.701268
     19          6           0       -2.734277    0.020072   -0.918407
     20          6           0       -4.128217    0.434404   -0.542699
     21          6           0       -4.412511    1.792299   -0.340435
     22          6           0       -5.685033    2.196298    0.053145
     23          6           0       -6.693741    1.251992    0.251408
     24          6           0       -6.422802   -0.099064    0.048452
     25          6           0       -5.146850   -0.503219   -0.345726
     26          6           0        1.003596   -2.588832   -1.540313
     27          1           0        1.683111   -2.725603    1.895108
     28          1           0        2.446694   -3.652371    0.579258
     29          1           0        0.700375   -3.839218    0.916787
     30          1           0        5.174223   -0.408155    0.514810
     31          1           0        5.164741   -0.870682   -1.213252
     32          1           0        3.843050    2.570261    2.236377
     33          1           0        4.366405    0.889336    2.034960
     34          1           0        2.650523    1.326484    1.805541
     35          1           0        5.592125    3.309546    0.502721
     36          1           0        5.557069    2.617560   -1.134740
     37          1           0        6.103604    1.631230    0.247406
     38          1           0        3.258427    4.019498    0.189709
     39          1           0        1.935973    2.869130   -0.039717
     40          1           0        3.027635    3.216718   -1.389608
     41          1           0       -1.856920   -0.646303    2.358234
     42          1           0       -2.924218   -1.539755    1.228849
     43          1           0       -2.723373   -1.007887   -1.317423
     44          1           0       -2.332619    0.693051   -1.690933
     45          1           0       -3.619886    2.528273   -0.508644
     46          1           0       -5.894087    3.258756    0.200372
     47          1           0       -7.692777    1.571475    0.557572
     48          1           0       -7.209315   -0.844044    0.192162
     49          1           0       -4.943462   -1.564563   -0.518690
     50          1           0        1.879551   -3.185439   -1.831824
     51          1           0        0.872454   -1.776316   -2.270668
     52          1           0        0.116736   -3.238562   -1.549712
 ---------------------------------------------------------------------
 Rotational constants (GHZ):           0.4477803           0.1089624           0.0939068
 Leave Link  202 at Thu Nov  3 08:04:19 2022, MaxMem=  4194304000 cpu:               0.1 elap:               0.0
 (Enter /software/gaussian/G16-A.03/avx/g16/l301.exe)
 Standard basis: def2SVP (5D, 7F)
 Ernie: Thresh=  0.10000D-02 Tol=  0.10000D-05 Strict=F.
 There are   500 symmetry adapted cartesian basis functions of A   symmetry.
 There are   476 symmetry adapted basis functions of A   symmetry.
   476 basis functions,   796 primitive gaussians,   500 cartesian basis functions
    89 alpha electrons       89 beta electrons
       nuclear repulsion energy      2094.9914696337 Hartrees.
 IExCor= 1009 DFT=T Ex+Corr=PBE1PBE ExCW=0 ScaHFX=  0.250000
 ScaDFX=  0.750000  0.750000  1.000000  1.000000 ScalE2=  1.000000  1.000000
 IRadAn=      5 IRanWt=     -1 IRanGd=            0 ICorTp=0 IEmpDi=141
 NAtoms=   52 NActive=   52 NUniq=   52 SFac= 1.00D+00 NAtFMM=   60 NAOKFM=F Big=F
 Integral buffers will be    131072 words long.
 Raffenetti 2 integral format.
 Two-electron integral symmetry is turned on.
 R6Disp:  Grimme-D3(BJ) Dispersion energy=       -0.0563047061 Hartrees.
 Nuclear repulsion after empirical dispersion term =     2094.9351649275 Hartrees.
 Leave Link  301 at Thu Nov  3 08:04:19 2022, MaxMem=  4194304000 cpu:               0.6 elap:               0.1
 (Enter /software/gaussian/G16-A.03/avx/g16/l302.exe)
 NPDir=0 NMtPBC=     1 NCelOv=     1 NCel=       1 NClECP=     1 NCelD=      1
         NCelK=      1 NCelE2=     1 NClLst=     1 CellRange=     0.0.
 One-electron integrals computed using PRISM.
 One-electron integral symmetry used in STVInt
   1 Symmetry operations used in ECPInt.
 ECPInt:  NShTT=   26106 NPrTT=   92202 LenC2=   22143 LenP2D=   53471.
 LDataN:  DoStor=T MaxTD1= 4 Len=   56
 NBasis=   476 RedAO= T EigKep=  2.84D-04  NBF=   476
 NBsUse=   476 1.00D-06 EigRej= -1.00D+00 NBFU=   476
 Precomputing XC quadrature grid using
 IXCGrd= 4 IRadAn=           5 IRanWt=          -1 IRanGd=           0 AccXCQ= 0.00D+00.
 Generated NRdTot=       0 NPtTot=           0 NUsed=           0 NTot=          32
 NSgBfM=   491   491   491   491   491 MxSgAt=    52 MxSgA2=    52.
 Leave Link  302 at Thu Nov  3 08:04:20 2022, MaxMem=  4194304000 cpu:               9.4 elap:               1.2
 (Enter /software/gaussian/G16-A.03/avx/g16/l303.exe)
 DipDrv:  MaxL=1.
 Leave Link  303 at Thu Nov  3 08:04:21 2022, MaxMem=  4194304000 cpu:               0.7 elap:               0.1
 (Enter /software/gaussian/G16-A.03/avx/g16/l401.exe)
 ExpMin= 1.22D-01 ExpMax= 2.27D+03 ExpMxC= 3.41D+02 IAcc=3 IRadAn=         5 AccDes= 0.00D+00
 Harris functional with IExCor= 1009 and IRadAn=       5 diagonalized for initial guess.
 HarFok:  IExCor= 1009 AccDes= 0.00D+00 IRadAn=         5 IDoV= 1 UseB2=F ITyADJ=14
 ICtDFT=  3500011 ScaDFX=  1.000000  1.000000  1.000000  1.000000
 FoFCou: FMM=F IPFlag=           0 FMFlag=      100000 FMFlg1=           0
         NFxFlg=           0 DoJE=T BraDBF=F KetDBF=T FulRan=T
         wScrn=  0.000000 ICntrl=       500 IOpCl=  0 I1Cent=   200000004 NGrid=           0
         NMat0=    1 NMatS0=      1 NMatT0=    0 NMatD0=    1 NMtDS0=    0 NMtDT0=    0
 Petite list used in FoFCou.
 Harris En= -1037.30562737736    
 JPrj=0 DoOrth=F DoCkMO=F.
 Leave Link  401 at Thu Nov  3 08:04:27 2022, MaxMem=  4194304000 cpu:              50.1 elap:               6.3
 (Enter /software/gaussian/G16-A.03/avx/g16/l502.exe)
 Integral symmetry usage will be decided dynamically.
 Closed shell SCF:
 Using DIIS extrapolation, IDIIS=  1040.
 NGot=  4194304000 LenX=  4193794512 LenY=  4193544012
 Requested convergence on RMS density matrix=1.00D-08 within 128 cycles.
 Requested convergence on MAX density matrix=1.00D-06.
 Requested convergence on             energy=1.00D-06.
 No special actions if energy rises.
 Fock matrices will be formed incrementally for  20 cycles.
 Integral accuracy reduced to 1.0D-05 until final iterations.

 Cycle   1  Pass 0  IDiag  1:
 FoFJK:  IHMeth= 1 ICntrl=       0 DoSepK=F KAlg= 0 I1Cent=           0 FoldK=F
 IRaf= 760000000 NMat=       1 IRICut=       1 DoRegI=T DoRafI=F ISym2E= 0 IDoP0=0 IntGTp=1.
 FoFCou: FMM=F IPFlag=           0 FMFlag=      100000 FMFlg1=           0
         NFxFlg=           0 DoJE=F BraDBF=F KetDBF=F FulRan=T
         wScrn=  0.000000 ICntrl=         0 IOpCl=  0 I1Cent=           0 NGrid=           0
         NMat0=    1 NMatS0=      1 NMatT0=    0 NMatD0=    1 NMtDS0=    0 NMtDT0=    0
 Symmetry not used in FoFCou.
 E= -1036.50104667135    
 DIIS: error= 3.48D-02 at cycle   1 NSaved=   1.
 NSaved= 1 IEnMin= 1 EnMin= -1036.50104667135     IErMin= 1 ErrMin= 3.48D-02
 ErrMax= 3.48D-02  0.00D+00 EMaxC= 1.00D-01 BMatC= 4.85D-01 BMatP= 4.85D-01
 IDIUse=3 WtCom= 6.52D-01 WtEn= 3.48D-01
 Coeff-Com:  0.100D+01
 Coeff-En:   0.100D+01
 Coeff:      0.100D+01
 Gap=     0.259 Goal=   None    Shift=    0.000
 GapD=    0.259 DampG=1.000 DampE=0.500 DampFc=0.5000 IDamp=-1.
 Damping current iteration by 5.00D-01
 RMSDP=4.05D-03 MaxDP=1.98D-01              OVMax= 2.36D-01

 Cycle   2  Pass 0  IDiag  1:
 RMSU=  1.99D-03    CP:  9.77D-01
 E= -1036.72645127770     Delta-E=       -0.225404606343 Rises=F Damp=T
 DIIS: error= 6.31D-03 at cycle   2 NSaved=   2.
 NSaved= 2 IEnMin= 2 EnMin= -1036.72645127770     IErMin= 2 ErrMin= 6.31D-03
 ErrMax= 6.31D-03  0.00D+00 EMaxC= 1.00D-01 BMatC= 3.92D-02 BMatP= 4.85D-01
 IDIUse=3 WtCom= 9.37D-01 WtEn= 6.31D-02
 Coeff-Com:  0.864D-01 0.914D+00
 Coeff-En:   0.134D+00 0.866D+00
 Coeff:      0.895D-01 0.911D+00
 Gap=     0.272 Goal=   None    Shift=    0.000
 RMSDP=1.32D-03 MaxDP=5.71D-02 DE=-2.25D-01 OVMax= 2.08D-01

 Cycle   3  Pass 0  IDiag  1:
 RMSU=  1.27D-03    CP:  9.66D-01  8.33D-01
 E= -1036.97740334440     Delta-E=       -0.250952066706 Rises=F Damp=F
 DIIS: error= 1.16D-02 at cycle   3 NSaved=   3.
 NSaved= 3 IEnMin= 3 EnMin= -1036.97740334440     IErMin= 2 ErrMin= 6.31D-03
 ErrMax= 1.16D-02  0.00D+00 EMaxC= 1.00D-01 BMatC= 5.84D-02 BMatP= 3.92D-02
 IDIUse=2 WtCom= 0.00D+00 WtEn= 1.00D+00
 Coeff-En:   0.000D+00 0.000D+00 0.100D+01
 Coeff:      0.000D+00 0.000D+00 0.100D+01
 Gap=     0.226 Goal=   None    Shift=    0.000
 RMSDP=1.88D-03 MaxDP=1.13D-01 DE=-2.51D-01 OVMax= 2.36D-01

 Cycle   4  Pass 0  IDiag  1:
 RMSU=  1.11D-03    CP:  9.72D-01  1.28D+00  2.88D-02
 E= -1036.75906906420     Delta-E=        0.218334280202 Rises=F Damp=F
 DIIS: error= 2.72D-02 at cycle   4 NSaved=   4.
 NSaved= 4 IEnMin= 3 EnMin= -1036.97740334440     IErMin= 2 ErrMin= 6.31D-03
 ErrMax= 2.72D-02  0.00D+00 EMaxC= 1.00D-01 BMatC= 3.02D-01 BMatP= 3.92D-02
 IDIUse=2 WtCom= 0.00D+00 WtEn= 1.00D+00
 Coeff-En:   0.000D+00 0.000D+00 0.782D+00 0.218D+00
 Coeff:      0.000D+00 0.000D+00 0.782D+00 0.218D+00
 Gap=     0.215 Goal=   None    Shift=    0.000
 RMSDP=1.02D-03 MaxDP=6.68D-02 DE= 2.18D-01 OVMax= 1.20D-01

 Cycle   5  Pass 0  IDiag  1:
 RMSU=  1.72D-04    CP:  9.69D-01  1.01D+00  5.25D-01  4.79D-01
 E= -1037.01083056539     Delta-E=       -0.251761501188 Rises=F Damp=F
 DIIS: error= 7.31D-03 at cycle   5 NSaved=   5.
 NSaved= 5 IEnMin= 5 EnMin= -1037.01083056539     IErMin= 2 ErrMin= 6.31D-03
 ErrMax= 7.31D-03  0.00D+00 EMaxC= 1.00D-01 BMatC= 2.19D-02 BMatP= 3.92D-02
 IDIUse=3 WtCom= 9.27D-01 WtEn= 7.31D-02
 Coeff-Com: -0.210D-02 0.149D-01 0.281D+00-0.981D-01 0.804D+00
 Coeff-En:   0.000D+00 0.000D+00 0.319D+00 0.000D+00 0.681D+00
 Coeff:     -0.194D-02 0.138D-01 0.284D+00-0.910D-01 0.795D+00
 Gap=     0.232 Goal=   None    Shift=    0.000
 RMSDP=3.47D-04 MaxDP=2.13D-02 DE=-2.52D-01 OVMax= 3.97D-02

 Cycle   6  Pass 0  IDiag  1:
 RMSU=  3.80D-05    CP:  9.67D-01  9.37D-01  7.07D-01  2.95D-01  8.61D-01
 E= -1037.03030844299     Delta-E=       -0.019477877598 Rises=F Damp=F
 DIIS: error= 2.75D-04 at cycle   6 NSaved=   6.
 NSaved= 6 IEnMin= 6 EnMin= -1037.03030844299     IErMin= 6 ErrMin= 2.75D-04
 ErrMax= 2.75D-04  0.00D+00 EMaxC= 1.00D-01 BMatC= 4.00D-05 BMatP= 2.19D-02
 IDIUse=3 WtCom= 9.97D-01 WtEn= 2.75D-03
 Coeff-Com: -0.185D-02 0.484D-02 0.110D+00-0.582D-01 0.397D+00 0.549D+00
 Coeff-En:   0.000D+00 0.000D+00 0.000D+00 0.000D+00 0.000D+00 0.100D+01
 Coeff:     -0.185D-02 0.483D-02 0.110D+00-0.581D-01 0.395D+00 0.550D+00
 Gap=     0.231 Goal=   None    Shift=    0.000
 RMSDP=1.70D-05 MaxDP=1.60D-03 DE=-1.95D-02 OVMax= 1.12D-03

 Cycle   7  Pass 0  IDiag  1:
 RMSU=  1.07D-05    CP:  9.67D-01  9.40D-01  7.04D-01  2.97D-01  8.85D-01
                    CP:  7.26D-01
 E= -1037.03034371595     Delta-E=       -0.000035272967 Rises=F Damp=F
 DIIS: error= 8.45D-05 at cycle   7 NSaved=   7.
 NSaved= 7 IEnMin= 7 EnMin= -1037.03034371595     IErMin= 7 ErrMin= 8.45D-05
 ErrMax= 8.45D-05  0.00D+00 EMaxC= 1.00D-01 BMatC= 2.90D-06 BMatP= 4.00D-05
 IDIUse=1 WtCom= 1.00D+00 WtEn= 0.00D+00
 Coeff-Com: -0.683D-03 0.120D-02 0.353D-01-0.219D-01 0.137D+00 0.262D+00
 Coeff-Com:  0.587D+00
 Coeff:     -0.683D-03 0.120D-02 0.353D-01-0.219D-01 0.137D+00 0.262D+00
 Coeff:      0.587D+00
 Gap=     0.231 Goal=   None    Shift=    0.000
 RMSDP=5.74D-06 MaxDP=3.91D-04 DE=-3.53D-05 OVMax= 4.07D-04

 Initial convergence to 1.0D-05 achieved.  Increase integral accuracy.
 Cycle   8  Pass 1  IDiag  1:
 E= -1037.03032240926     Delta-E=        0.000021306696 Rises=F Damp=F
 DIIS: error= 8.85D-05 at cycle   1 NSaved=   1.
 NSaved= 1 IEnMin= 1 EnMin= -1037.03032240926     IErMin= 1 ErrMin= 8.85D-05
 ErrMax= 8.85D-05  0.00D+00 EMaxC= 1.00D-01 BMatC= 3.27D-06 BMatP= 3.27D-06
 IDIUse=1 WtCom= 1.00D+00 WtEn= 0.00D+00
 Coeff-Com:  0.100D+01
 Coeff:      0.100D+01
 Gap=     0.231 Goal=   None    Shift=    0.000
 RMSDP=5.74D-06 MaxDP=3.91D-04 DE= 2.13D-05 OVMax= 4.75D-04

 Cycle   9  Pass 1  IDiag  1:
 RMSU=  6.78D-05    CP:  1.00D+00
 E= -1037.03032482006     Delta-E=       -0.000002410804 Rises=F Damp=F
 DIIS: error= 4.72D-05 at cycle   2 NSaved=   2.
 NSaved= 2 IEnMin= 2 EnMin= -1037.03032482006     IErMin= 2 ErrMin= 4.72D-05
 ErrMax= 4.72D-05  0.00D+00 EMaxC= 1.00D-01 BMatC= 1.44D-06 BMatP= 3.27D-06
 IDIUse=1 WtCom= 1.00D+00 WtEn= 0.00D+00
 Coeff-Com:  0.352D+00 0.648D+00
 Coeff:      0.352D+00 0.648D+00
 Gap=     0.231 Goal=   None    Shift=    0.000
 RMSDP=5.32D-06 MaxDP=3.66D-04 DE=-2.41D-06 OVMax= 4.87D-04

 Cycle  10  Pass 1  IDiag  1:
 RMSU=  5.29D-06    CP:  1.00D+00  1.01D+00
 E= -1037.03032500827     Delta-E=       -0.000000188206 Rises=F Damp=F
 DIIS: error= 4.25D-05 at cycle   3 NSaved=   3.
 NSaved= 3 IEnMin= 3 EnMin= -1037.03032500827     IErMin= 3 ErrMin= 4.25D-05
 ErrMax= 4.25D-05  0.00D+00 EMaxC= 1.00D-01 BMatC= 1.23D-06 BMatP= 1.44D-06
 IDIUse=1 WtCom= 1.00D+00 WtEn= 0.00D+00
 Coeff-Com:  0.463D-02 0.479D+00 0.517D+00
 Coeff:      0.463D-02 0.479D+00 0.517D+00
 Gap=     0.231 Goal=   None    Shift=    0.000
 RMSDP=2.71D-06 MaxDP=2.08D-04 DE=-1.88D-07 OVMax= 2.70D-04

 Cycle  11  Pass 1  IDiag  1:
 RMSU=  8.40D-07    CP:  1.00D+00  1.02D+00  5.26D-01
 E= -1037.03032606658     Delta-E=       -0.000001058310 Rises=F Damp=F
 DIIS: error= 9.61D-06 at cycle   4 NSaved=   4.
 NSaved= 4 IEnMin= 4 EnMin= -1037.03032606658     IErMin= 4 ErrMin= 9.61D-06
 ErrMax= 9.61D-06  0.00D+00 EMaxC= 1.00D-01 BMatC= 4.08D-08 BMatP= 1.23D-06
 IDIUse=1 WtCom= 1.00D+00 WtEn= 0.00D+00
 Coeff-Com: -0.543D-02 0.287D+00 0.326D+00 0.392D+00
 Coeff:     -0.543D-02 0.287D+00 0.326D+00 0.392D+00
 Gap=     0.231 Goal=   None    Shift=    0.000
 RMSDP=4.81D-07 MaxDP=2.63D-05 DE=-1.06D-06 OVMax= 3.46D-05

 Cycle  12  Pass 1  IDiag  1:
 RMSU=  2.19D-07    CP:  1.00D+00  1.02D+00  5.40D-01  4.98D-01
 E= -1037.03032609979     Delta-E=       -0.000000033213 Rises=F Damp=F
 DIIS: error= 1.15D-06 at cycle   5 NSaved=   5.
 NSaved= 5 IEnMin= 5 EnMin= -1037.03032609979     IErMin= 5 ErrMin= 1.15D-06
 ErrMax= 1.15D-06  0.00D+00 EMaxC= 1.00D-01 BMatC= 5.29D-10 BMatP= 4.08D-08
 IDIUse=1 WtCom= 1.00D+00 WtEn= 0.00D+00
 Coeff-Com: -0.321D-02 0.158D+00 0.180D+00 0.229D+00 0.437D+00
 Coeff:     -0.321D-02 0.158D+00 0.180D+00 0.229D+00 0.437D+00
 Gap=     0.231 Goal=   None    Shift=    0.000
 RMSDP=6.50D-08 MaxDP=4.36D-06 DE=-3.32D-08 OVMax= 7.34D-06

 Cycle  13  Pass 1  IDiag  1:
 RMSU=  5.96D-08    CP:  1.00D+00  1.02D+00  5.40D-01  5.11D-01  9.01D-01
 E= -1037.03032610021     Delta-E=       -0.000000000421 Rises=F Damp=F
 DIIS: error= 2.85D-07 at cycle   6 NSaved=   6.
 NSaved= 6 IEnMin= 6 EnMin= -1037.03032610021     IErMin= 6 ErrMin= 2.85D-07
 ErrMax= 2.85D-07  0.00D+00 EMaxC= 1.00D-01 BMatC= 3.59D-11 BMatP= 5.29D-10
 IDIUse=1 WtCom= 1.00D+00 WtEn= 0.00D+00
 Coeff-Com: -0.102D-02 0.469D-01 0.535D-01 0.722D-01 0.230D+00 0.599D+00
 Coeff:     -0.102D-02 0.469D-01 0.535D-01 0.722D-01 0.230D+00 0.599D+00
 Gap=     0.231 Goal=   None    Shift=    0.000
 RMSDP=2.11D-08 MaxDP=1.70D-06 DE=-4.21D-10 OVMax= 2.41D-06

 Cycle  14  Pass 1  IDiag  1:
 RMSU=  1.66D-08    CP:  1.00D+00  1.02D+00  5.40D-01  5.16D-01  9.33D-01
                    CP:  8.35D-01
 E= -1037.03032610022     Delta-E=       -0.000000000010 Rises=F Damp=F
 DIIS: error= 1.01D-07 at cycle   7 NSaved=   7.
 NSaved= 7 IEnMin= 7 EnMin= -1037.03032610022     IErMin= 7 ErrMin= 1.01D-07
 ErrMax= 1.01D-07  0.00D+00 EMaxC= 1.00D-01 BMatC= 8.10D-12 BMatP= 3.59D-11
 IDIUse=1 WtCom= 1.00D+00 WtEn= 0.00D+00
 Coeff-Com: -0.283D-04-0.288D-03-0.206D-03 0.270D-02 0.579D-01 0.365D+00
 Coeff-Com:  0.575D+00
 Coeff:     -0.283D-04-0.288D-03-0.206D-03 0.270D-02 0.579D-01 0.365D+00
 Coeff:      0.575D+00
 Gap=     0.231 Goal=   None    Shift=    0.000
 RMSDP=7.71D-09 MaxDP=5.42D-07 DE=-1.00D-11 OVMax= 7.21D-07

 SCF Done:  E(RPBE1PBE) =  -1037.03032610     A.U. after   14 cycles
            NFock= 14  Conv=0.77D-08     -V/T= 2.0103
 KE= 1.026448748439D+03 PE=-6.597737241699D+03 EE= 2.439323002232D+03
 Leave Link  502 at Thu Nov  3 08:07:11 2022, MaxMem=  4194304000 cpu:            1309.2 elap:             163.7
 (Enter /software/gaussian/G16-A.03/avx/g16/l801.exe)
 DoSCS=F DFT=T ScalE2(SS,OS)=  1.000000  1.000000
 Range of M.O.s used for correlation:     1   476
 NBasis=   476 NAE=    89 NBE=    89 NFC=     0 NFV=     0
 NROrb=    476 NOA=    89 NOB=    89 NVA=   387 NVB=   387

 **** Warning!!: The largest alpha MO coefficient is  0.16071005D+02

 Leave Link  801 at Thu Nov  3 08:07:11 2022, MaxMem=  4194304000 cpu:               0.2 elap:               0.0
 (Enter /software/gaussian/G16-A.03/avx/g16/l1101.exe)
 Using compressed storage, NAtomX=    52.
 Will process     53 centers per pass.
   1 Symmetry operations used in ECPInt.
 ECPInt:  NShTT=   26106 NPrTT=   92202 LenC2=   22143 LenP2D=   53471.
 LDataN:  DoStor=T MaxTD1= 5 Len=  102
 R6Disp: Adding Grimme-D3(BJ) dispersion energy 1st derivatives to the gradient.
 Leave Link 1101 at Thu Nov  3 08:07:12 2022, MaxMem=  4194304000 cpu:              10.7 elap:               1.4
 (Enter /software/gaussian/G16-A.03/avx/g16/l1102.exe)
 Symmetrizing basis deriv contribution to polar:
 IMax=3 JMax=2 DiffMx= 0.00D+00
 Leave Link 1102 at Thu Nov  3 08:07:12 2022, MaxMem=  4194304000 cpu:               0.6 elap:               0.1
 (Enter /software/gaussian/G16-A.03/avx/g16/l1110.exe)
 Forming Gx(P) for the SCF density, NAtomX=    52.
 Integral derivatives from FoFJK, PRISM(SPDF).
 Do as many integral derivatives as possible in FoFJK.
 G2DrvN: MDV=    4194300120.
 G2DrvN: will do    53 centers at a time, making    1 passes.
 Calling FoFCou, ICntrl=  3107 FMM=F I1Cent=   0 AccDes= 0.00D+00.
 FoFJK:  IHMeth= 1 ICntrl=    3107 DoSepK=F KAlg= 0 I1Cent=           0 FoldK=F
 IRaf=         0 NMat=       1 IRICut=       1 DoRegI=T DoRafI=F ISym2E= 0 IDoP0=0 IntGTp=1.
 FoFCou: FMM=F IPFlag=           0 FMFlag=      100000 FMFlg1=           0
         NFxFlg=           0 DoJE=F BraDBF=F KetDBF=F FulRan=T
         wScrn=  0.000000 ICntrl=      3107 IOpCl=  0 I1Cent=           0 NGrid=           0
         NMat0=    1 NMatS0=      1 NMatT0=    0 NMatD0=    1 NMtDS0=    0 NMtDT0=    0
 Symmetry not used in FoFCou.
 End of G2Drv F.D. properties file   721 does not exist.
 End of G2Drv F.D. properties file   722 does not exist.
 End of G2Drv F.D. properties file   788 does not exist.
 Leave Link 1110 at Thu Nov  3 08:17:43 2022, MaxMem=  4194304000 cpu:            5042.5 elap:             630.4
 (Enter /software/gaussian/G16-A.03/avx/g16/l1002.exe)
 Minotr:  Closed shell wavefunction.
          IDoAtm=11111111111111111111111111111111111111111111111111
          IDoAtm=11
          Direct CPHF calculation.
          Differentiating once with respect to electric field.
                with respect to dipole field.
          Differentiating once with respect to nuclear coordinates.
          Requested convergence is 1.0D-08 RMS, and 1.0D-07 maximum.
          Secondary convergence is 1.0D-12 RMS, and 1.0D-12 maximum.
          NewPWx=T KeepS1=F KeepF1=F KeepIn=T MapXYZ=F SortEE=F KeepMc=T.
        15882 words used for storage of precomputed grid.
 Two-electron integrals replicated using symmetry.
          MDV=    4194304000 using IRadAn=       1.
          Solving linear equations simultaneously, MaxMat=     384.
 FoF2E skips out because all densities are zero.
 CalDSu exits because no D1Ps are significant.
 FoFJK:  IHMeth= 1 ICntrl=       0 DoSepK=F KAlg= 0 I1Cent=           0 FoldK=F
 IRaf= 720000000 NMat=     156 IRICut=     390 DoRegI=T DoRafI=T ISym2E= 2 IDoP0=3 IntGTp=3.
 FoFCou: FMM=F IPFlag=           0 FMFlag=      100000 FMFlg1=           0
         NFxFlg=           0 DoJE=F BraDBF=F KetDBF=F FulRan=T
         wScrn=  0.000000 ICntrl=         0 IOpCl=  0 I1Cent=           0 NGrid=           0
         NMat0=  156 NMatS0=    156 NMatT0=    0 NMatD0=  156 NMtDS0=    0 NMtDT0=    0
 Integrals replicated using symmetry in FoFCou.
 Raff kept on since  67.03% of shell-pairs survive, threshold=   0.20 IRatSp=67.
          There are   159 degrees of freedom in the 1st order CPHF.  IDoFFX=6 NUNeed=     3.
    156 vectors produced by pass  0 Test12= 3.44D-14 1.00D-09 XBig12= 2.02D+02 5.29D+00.
 AX will form   156 AO Fock derivatives at one time.
    156 vectors produced by pass  1 Test12= 3.44D-14 1.00D-09 XBig12= 5.97D+01 1.42D+00.
    156 vectors produced by pass  2 Test12= 3.44D-14 1.00D-09 XBig12= 5.00D-01 6.07D-02.
    156 vectors produced by pass  3 Test12= 3.44D-14 1.00D-09 XBig12= 2.04D-03 2.72D-03.
    156 vectors produced by pass  4 Test12= 3.44D-14 1.00D-09 XBig12= 4.75D-06 1.37D-04.
    108 vectors produced by pass  5 Test12= 3.44D-14 1.00D-09 XBig12= 5.57D-09 4.65D-06.
     17 vectors produced by pass  6 Test12= 3.44D-14 1.00D-09 XBig12= 5.54D-12 1.19D-07.
      3 vectors produced by pass  7 Test12= 3.44D-14 1.00D-09 XBig12= 5.57D-15 3.65D-09.
      1 vectors produced by pass  8 Test12= 3.44D-14 1.00D-09 XBig12= 2.72D-16 1.54D-09.
 InvSVY:  IOpt=1 It=  1 EMax= 5.33D-15
 Solved reduced A of dimension   909 with   159 vectors.
 FullF1:  Do perturbations      1 to       3.
 Isotropic polarizability for W=    0.000000      225.70 Bohr**3.
 End of Minotr F.D. properties file   721 does not exist.
 End of Minotr F.D. properties file   722 does not exist.
 End of Minotr F.D. properties file   788 does not exist.
 Leave Link 1002 at Thu Nov  3 08:38:07 2022, MaxMem=  4194304000 cpu:            9795.6 elap:            1224.6
 (Enter /software/gaussian/G16-A.03/avx/g16/l601.exe)
 Copying SCF densities to generalized density rwf, IOpCl= 0 IROHF=0.

 **********************************************************************

            Population analysis using the SCF density.

 **********************************************************************

 Orbital symmetries:
       Occupied  (A) (A) (A) (A) (A) (A) (A) (A) (A) (A) (A) (A)
                 (A) (A) (A) (A) (A) (A) (A) (A) (A) (A) (A) (A)
                 (A) (A) (A) (A) (A) (A) (A) (A) (A) (A) (A) (A)
                 (A) (A) (A) (A) (A) (A) (A) (A) (A) (A) (A) (A)
                 (A) (A) (A) (A) (A) (A) (A) (A) (A) (A) (A) (A)
                 (A) (A) (A) (A) (A) (A) (A) (A) (A) (A) (A) (A)
                 (A) (A) (A) (A) (A) (A) (A) (A) (A) (A) (A) (A)
                 (A) (A) (A) (A) (A)
       Virtual   (A) (A) (A) (A) (A) (A) (A) (A) (A) (A) (A) (A)
                 (A) (A) (A) (A) (A) (A) (A) (A) (A) (A) (A) (A)
                 (A) (A) (A) (A) (A) (A) (A) (A) (A) (A) (A) (A)
                 (A) (A) (A) (A) (A) (A) (A) (A) (A) (A) (A) (A)
                 (A) (A) (A) (A) (A) (A) (A) (A) (A) (A) (A) (A)
                 (A) (A) (A) (A) (A) (A) (A) (A) (A) (A) (A) (A)
                 (A) (A) (A) (A) (A) (A) (A) (A) (A) (A) (A) (A)
                 (A) (A) (A) (A) (A) (A) (A) (A) (A) (A) (A) (A)
                 (A) (A) (A) (A) (A) (A) (A) (A) (A) (A) (A) (A)
                 (A) (A) (A) (A) (A) (A) (A) (A) (A) (A) (A) (A)
                 (A) (A) (A) (A) (A) (A) (A) (A) (A) (A) (A) (A)
                 (A) (A) (A) (A) (A) (A) (A) (A) (A) (A) (A) (A)
                 (A) (A) (A) (A) (A) (A) (A) (A) (A) (A) (A) (A)
                 (A) (A) (A) (A) (A) (A) (A) (A) (A) (A) (A) (A)
                 (A) (A) (A) (A) (A) (A) (A) (A) (A) (A) (A) (A)
                 (A) (A) (A) (A) (A) (A) (A) (A) (A) (A) (A) (A)
                 (A) (A) (A) (A) (A) (A) (A) (A) (A) (A) (A) (A)
                 (A) (A) (A) (A) (A) (A) (A) (A) (A) (A) (A) (A)
                 (A) (A) (A) (A) (A) (A) (A) (A) (A) (A) (A) (A)
                 (A) (A) (A) (A) (A) (A) (A) (A) (A) (A) (A) (A)
                 (A) (A) (A) (A) (A) (A) (A) (A) (A) (A) (A) (A)
                 (A) (A) (A) (A) (A) (A) (A) (A) (A) (A) (A) (A)
                 (A) (A) (A) (A) (A) (A) (A) (A) (A) (A) (A) (A)
                 (A) (A) (A) (A) (A) (A) (A) (A) (A) (A) (A) (A)
                 (A) (A) (A) (A) (A) (A) (A) (A) (A) (A) (A) (A)
                 (A) (A) (A) (A) (A) (A) (A) (A) (A) (A) (A) (A)
                 (A) (A) (A) (A) (A) (A) (A) (A) (A) (A) (A) (A)
                 (A) (A) (A) (A) (A) (A) (A) (A) (A) (A) (A) (A)
                 (A) (A) (A) (A) (A) (A) (A) (A) (A) (A) (A) (A)
                 (A) (A) (A) (A) (A) (A) (A) (A) (A) (A) (A) (A)
                 (A) (A) (A) (A) (A) (A) (A) (A) (A) (A) (A) (A)
                 (A) (A) (A) (A) (A) (A) (A) (A) (A) (A) (A) (A)
                 (A) (A) (A)
 The electronic state is 1-A.
 Alpha  occ. eigenvalues --  -19.24500 -19.24393 -14.35026 -14.34913 -10.31124
 Alpha  occ. eigenvalues --  -10.31045 -10.28638 -10.28553 -10.26999 -10.26185
 Alpha  occ. eigenvalues --  -10.25635 -10.24522 -10.24134 -10.24002 -10.23989
 Alpha  occ. eigenvalues --  -10.23858 -10.23800 -10.23749 -10.23555 -10.23439
 Alpha  occ. eigenvalues --  -10.22694 -10.22331 -10.21661 -10.21074  -1.11884
 Alpha  occ. eigenvalues --   -1.11643  -0.91643  -0.90649  -0.87929  -0.86015
 Alpha  occ. eigenvalues --   -0.82873  -0.80512  -0.76664  -0.76203  -0.75105
 Alpha  occ. eigenvalues --   -0.70979  -0.70117  -0.69581  -0.68979  -0.65666
 Alpha  occ. eigenvalues --   -0.64331  -0.62675  -0.61926  -0.59910  -0.59008
 Alpha  occ. eigenvalues --   -0.55376  -0.54317  -0.53076  -0.52445  -0.51045
 Alpha  occ. eigenvalues --   -0.50974  -0.49200  -0.47887  -0.47232  -0.46813
 Alpha  occ. eigenvalues --   -0.46113  -0.45322  -0.44754  -0.44657  -0.44308
 Alpha  occ. eigenvalues --   -0.43480  -0.43277  -0.41907  -0.41644  -0.41211
 Alpha  occ. eigenvalues --   -0.40085  -0.39830  -0.39159  -0.38902  -0.37686
 Alpha  occ. eigenvalues --   -0.37502  -0.37245  -0.36786  -0.36736  -0.36489
 Alpha  occ. eigenvalues --   -0.35916  -0.35702  -0.35168  -0.34727  -0.34337
 Alpha  occ. eigenvalues --   -0.33819  -0.33318  -0.32599  -0.28175  -0.26816
 Alpha  occ. eigenvalues --   -0.26270  -0.24954  -0.24295  -0.23932
 Alpha virt. eigenvalues --   -0.00831  -0.00397   0.02519   0.04084   0.05789
 Alpha virt. eigenvalues --    0.06695   0.07510   0.08660   0.09152   0.09556
 Alpha virt. eigenvalues --    0.10311   0.10536   0.11334   0.12107   0.12469
 Alpha virt. eigenvalues --    0.13008   0.13096   0.13119   0.13960   0.14074
 Alpha virt. eigenvalues --    0.14135   0.14731   0.15065   0.15342   0.15585
 Alpha virt. eigenvalues --    0.16600   0.16700   0.17086   0.17772   0.18019
 Alpha virt. eigenvalues --    0.18301   0.18682   0.18889   0.19453   0.19989
 Alpha virt. eigenvalues --    0.20667   0.21203   0.21773   0.22088   0.23366
 Alpha virt. eigenvalues --    0.24049   0.25162   0.25516   0.26088   0.26758
 Alpha virt. eigenvalues --    0.28030   0.28435   0.29386   0.29861   0.30957
 Alpha virt. eigenvalues --    0.32156   0.32989   0.33686   0.35020   0.36097
 Alpha virt. eigenvalues --    0.37939   0.39033   0.40165   0.40642   0.41228
 Alpha virt. eigenvalues --    0.42091   0.42406   0.42951   0.43378   0.43651
 Alpha virt. eigenvalues --    0.44870   0.45096   0.45706   0.46700   0.47732
 Alpha virt. eigenvalues --    0.48668   0.49455   0.50467   0.50650   0.51721
 Alpha virt. eigenvalues --    0.51909   0.52852   0.53412   0.54017   0.54789
 Alpha virt. eigenvalues --    0.55120   0.55458   0.55964   0.57090   0.57742
 Alpha virt. eigenvalues --    0.59143   0.59833   0.60220   0.60446   0.61040
 Alpha virt. eigenvalues --    0.61675   0.62304   0.62758   0.63138   0.63744
 Alpha virt. eigenvalues --    0.64268   0.64466   0.64980   0.65299   0.65581
 Alpha virt. eigenvalues --    0.65963   0.66167   0.66485   0.66729   0.66783
 Alpha virt. eigenvalues --    0.67084   0.67647   0.67901   0.68311   0.68582
 Alpha virt. eigenvalues --    0.68830   0.69031   0.69502   0.69678   0.70053
 Alpha virt. eigenvalues --    0.70555   0.70747   0.71274   0.71591   0.71794
 Alpha virt. eigenvalues --    0.72243   0.72599   0.72810   0.73498   0.73615
 Alpha virt. eigenvalues --    0.73750   0.73879   0.74324   0.75024   0.75184
 Alpha virt. eigenvalues --    0.75341   0.75650   0.75939   0.76600   0.76774
 Alpha virt. eigenvalues --    0.77400   0.78823   0.79931   0.80584   0.81683
 Alpha virt. eigenvalues --    0.82284   0.82617   0.83534   0.83867   0.84545
 Alpha virt. eigenvalues --    0.86127   0.87737   0.89074   0.91372   0.92307
 Alpha virt. eigenvalues --    0.94443   0.95094   0.96268   0.96799   0.98829
 Alpha virt. eigenvalues --    1.01268   1.01664   1.02748   1.05176   1.06712
 Alpha virt. eigenvalues --    1.07056   1.08544   1.10807   1.11752   1.12567
 Alpha virt. eigenvalues --    1.13315   1.14523   1.15961   1.17162   1.18189
 Alpha virt. eigenvalues --    1.20654   1.21507   1.21684   1.24038   1.24344
 Alpha virt. eigenvalues --    1.25167   1.25416   1.26388   1.27152   1.29145
 Alpha virt. eigenvalues --    1.29535   1.30869   1.31228   1.31905   1.32280
 Alpha virt. eigenvalues --    1.33701   1.35938   1.37432   1.39452   1.40665
 Alpha virt. eigenvalues --    1.41783   1.42406   1.46776   1.47993   1.48462
 Alpha virt. eigenvalues --    1.50017   1.51122   1.53056   1.53814   1.54529
 Alpha virt. eigenvalues --    1.55287   1.55967   1.56590   1.57988   1.59044
 Alpha virt. eigenvalues --    1.59452   1.60919   1.61623   1.62928   1.64097
 Alpha virt. eigenvalues --    1.64269   1.65393   1.66411   1.66754   1.68221
 Alpha virt. eigenvalues --    1.68740   1.69206   1.70100   1.70975   1.71965
 Alpha virt. eigenvalues --    1.72707   1.73987   1.74433   1.75210   1.75668
 Alpha virt. eigenvalues --    1.76074   1.76399   1.76780   1.77621   1.77942
 Alpha virt. eigenvalues --    1.78338   1.78840   1.79257   1.80053   1.80578
 Alpha virt. eigenvalues --    1.80708   1.81758   1.81762   1.82612   1.83314
 Alpha virt. eigenvalues --    1.83782   1.84264   1.84756   1.85098   1.85947
 Alpha virt. eigenvalues --    1.86329   1.86619   1.86763   1.86908   1.87753
 Alpha virt. eigenvalues --    1.88258   1.88712   1.89402   1.89625   1.90803
 Alpha virt. eigenvalues --    1.92320   1.92468   1.92600   1.94070   1.94145
 Alpha virt. eigenvalues --    1.95759   1.96026   1.96432   1.97181   1.98047
 Alpha virt. eigenvalues --    1.98275   1.98849   1.98950   1.99224   1.99802
 Alpha virt. eigenvalues --    2.00148   2.00710   2.01584   2.02412   2.02738
 Alpha virt. eigenvalues --    2.04323   2.05387   2.06663   2.07355   2.08797
 Alpha virt. eigenvalues --    2.09225   2.10487   2.12090   2.12430   2.13912
 Alpha virt. eigenvalues --    2.16014   2.16763   2.17767   2.18164   2.19468
 Alpha virt. eigenvalues --    2.19806   2.21922   2.22834   2.24720   2.25729
 Alpha virt. eigenvalues --    2.26078   2.28139   2.29392   2.30343   2.30942
 Alpha virt. eigenvalues --    2.32036   2.32769   2.34455   2.35723   2.35865
 Alpha virt. eigenvalues --    2.37357   2.37942   2.38399   2.39066   2.40203
 Alpha virt. eigenvalues --    2.42097   2.42893   2.43408   2.44016   2.44712
 Alpha virt. eigenvalues --    2.46679   2.47291   2.48565   2.50278   2.53484
 Alpha virt. eigenvalues --    2.53726   2.54771   2.55092   2.58255   2.60308
 Alpha virt. eigenvalues --    2.62077   2.62668   2.63968   2.64653   2.65502
 Alpha virt. eigenvalues --    2.65919   2.66855   2.67097   2.67720   2.69129
 Alpha virt. eigenvalues --    2.70446   2.72474   2.73407   2.74263   2.74505
 Alpha virt. eigenvalues --    2.74757   2.76205   2.79582   2.82512   2.83985
 Alpha virt. eigenvalues --    2.86098   2.87662   2.88022   2.88811   2.89686
 Alpha virt. eigenvalues --    2.90424   2.90657   2.91216   2.91470   2.92497
 Alpha virt. eigenvalues --    2.92861   2.93039   2.94026   2.95400   2.96010
 Alpha virt. eigenvalues --    2.96563   2.98805   2.99348   2.99655   3.00595
 Alpha virt. eigenvalues --    3.01974   3.04380   3.05099   3.05952   3.07027
 Alpha virt. eigenvalues --    3.07868   3.08347   3.08948   3.10946   3.12247
 Alpha virt. eigenvalues --    3.15076   3.15617   3.17773   3.19868   3.27578
 Alpha virt. eigenvalues --    3.32323   3.34637   3.41106   3.48135   3.62465
 Alpha virt. eigenvalues --    3.65343   3.66293
     Molecular Orbital Coefficients:
                          85        86        87        88        89
                           O         O         O         O         O
     Eigenvalues --    -0.26816  -0.26270  -0.24954  -0.24295  -0.23932
   1 1   C  1S          0.00014   0.00365  -0.00390  -0.00171  -0.00115
   2        2S         -0.00099  -0.00419   0.00068   0.00149   0.00100
   3        3S          0.00873  -0.06608   0.12066   0.03679   0.02613
   4        4PX         0.00050   0.01370  -0.01746   0.01270   0.01696
   5        4PY         0.00002  -0.01258   0.01232   0.01095   0.00451
   6        4PZ        -0.00142   0.01773  -0.02874  -0.00943  -0.01270
   7        5PX        -0.00240   0.02279  -0.02257   0.04928   0.00509
   8        5PY         0.00241  -0.01891   0.03711   0.02498   0.00625
   9        5PZ        -0.00230   0.02220  -0.04501  -0.01854  -0.01275
  10        6D 0       -0.00001   0.00029  -0.00196  -0.00031  -0.00071
  11        6D+1       -0.00008   0.00016  -0.00060   0.00032   0.00023
  12        6D-1       -0.00003   0.00107  -0.00181  -0.00009   0.00014
  13        6D+2        0.00007   0.00045  -0.00060   0.00025   0.00060
  14        6D-2       -0.00010  -0.00054   0.00056  -0.00190  -0.00249
  15 2   C  1S          0.00115  -0.00556   0.00161  -0.00129   0.00166
  16        2S         -0.00272   0.00952  -0.00403   0.00281  -0.00094
  17        3S         -0.00688   0.06974   0.01776   0.02553  -0.04509
  18        4PX         0.00278  -0.02716   0.03326  -0.04188  -0.05321
  19        4PY        -0.00272   0.01077   0.02511  -0.00115  -0.00461
  20        4PZ        -0.00115  -0.01843   0.05183   0.02071   0.02286
  21        5PX         0.00302  -0.04702   0.01824  -0.13941  -0.01929
  22        5PY         0.00369  -0.02602   0.12279   0.01090   0.00494
  23        5PZ        -0.00456   0.00771  -0.00470   0.00628   0.00877
  24        6D 0       -0.00005   0.00219  -0.00519   0.00109  -0.00271
  25        6D+1       -0.00010  -0.00096  -0.00267  -0.00572   0.00325
  26        6D-1       -0.00015   0.00352  -0.00761  -0.00154  -0.00129
  27        6D+2        0.00017  -0.00127   0.00305  -0.00079   0.00264
  28        6D-2        0.00013  -0.00085   0.00079  -0.00378  -0.00177
  29 3   C  1S          0.00104   0.00023  -0.01593   0.02021   0.02804
  30        2S         -0.00243  -0.00264   0.04426  -0.05580  -0.07341
  31        3S         -0.00477   0.02735  -0.05698   0.05663  -0.01688
  32        4PX        -0.00142   0.01447  -0.01853   0.02022  -0.01423
  33        4PY        -0.00501   0.02494  -0.03347  -0.05349  -0.05630
  34        4PZ        -0.00077   0.01000  -0.12991  -0.16604   0.05116
  35        5PX         0.00132  -0.01151   0.06903  -0.05881  -0.06621
  36        5PY        -0.00096   0.00303  -0.03226  -0.04041   0.01965
  37        5PZ        -0.00095   0.01018  -0.08299  -0.11413   0.01473
  38        6D 0        0.00011  -0.00131   0.00945   0.00969  -0.00264
  39        6D+1        0.00055  -0.00250   0.00805   0.01276   0.00308
  40        6D-1       -0.00022   0.00323  -0.02013  -0.02179   0.00403
  41        6D+2        0.00031  -0.00058   0.00204   0.00989   0.00621
  42        6D-2       -0.00080   0.00197   0.00883  -0.00583  -0.02115
  43 4   N  1S          0.00306  -0.01045  -0.01786   0.03009   0.07487
  44        2S          0.00608  -0.02119  -0.03656   0.06632   0.15679
  45        3S          0.01048  -0.03556  -0.04531   0.05830   0.20503
  46        4PX         0.01347  -0.04397  -0.07830   0.11467   0.29739
  47        4PY        -0.00695   0.01637   0.10152   0.01239  -0.17669
  48        4PZ         0.00542  -0.03976   0.22427   0.30457   0.00060
  49        5PX        -0.01027   0.03381   0.03012  -0.07258  -0.18619
  50        5PY         0.00384  -0.00650  -0.08745  -0.00410   0.13056
  51        5PZ        -0.00411   0.03198  -0.16946  -0.22689  -0.00213
  52        6D 0        0.00026  -0.00033  -0.00806  -0.00358   0.01001
  53        6D+1       -0.00016   0.00076  -0.00363  -0.00735  -0.00158
  54        6D-1        0.00031  -0.00202   0.01053   0.01505   0.00035
  55        6D+2       -0.00024   0.00111  -0.00181  -0.00620  -0.00631
  56        6D-2        0.00058  -0.00212  -0.00329   0.00173   0.01200
  57 5   C  1S          0.00087  -0.00221  -0.01019   0.00641   0.02501
  58        2S         -0.00194   0.00422   0.02890  -0.01166  -0.06081
  59        3S         -0.00066   0.00253   0.02508  -0.05396  -0.07362
  60        4PX         0.00546  -0.01767  -0.03311   0.05356   0.12534
  61        4PY         0.00008  -0.00297   0.03042   0.03986  -0.00239
  62        4PZ         0.00199  -0.01629   0.09445   0.10686  -0.01669
  63        5PX         0.00103  -0.00261  -0.02374  -0.00190   0.03159
  64        5PY         0.00226  -0.00898  -0.02680  -0.00317   0.06732
  65        5PZ         0.00067  -0.00600   0.02351   0.00341  -0.01650
  66        6D 0       -0.00013   0.00102  -0.00655  -0.00764   0.00105
  67        6D+1        0.00027  -0.00167   0.00723   0.01199   0.00256
  68        6D-1        0.00021  -0.00156   0.00899   0.01152  -0.00054
  69        6D+2        0.00015  -0.00018  -0.00392  -0.00153   0.00594
  70        6D-2       -0.00072   0.00217   0.00660  -0.00290  -0.01662
  71 6   H  1S         -0.00317   0.02104  -0.10286  -0.13663  -0.00511
  72        2S         -0.00140   0.01116  -0.07543  -0.09117   0.01248
  73        3PX         0.00008  -0.00015  -0.00145  -0.00013   0.00244
  74        3PY        -0.00005   0.00010   0.00192   0.00205  -0.00160
  75        3PZ        -0.00010   0.00058  -0.00224  -0.00322  -0.00060
  76 7   C  1S         -0.00128   0.00500   0.00272  -0.00974  -0.02359
  77        2S          0.00343  -0.01382  -0.00383   0.02396   0.05951
  78        3S          0.00403  -0.01446  -0.03992   0.04747   0.12862
  79        4PX        -0.00435   0.01730   0.01338  -0.01946  -0.07337
  80        4PY         0.00302  -0.00576  -0.04105   0.02226   0.08310
  81        4PZ        -0.00261   0.01363  -0.05534  -0.07943  -0.00941
  82        5PX        -0.00183   0.00619   0.02527  -0.00600  -0.05048
  83        5PY         0.00350  -0.00913  -0.02978   0.04020   0.09224
  84        5PZ        -0.00147   0.00630  -0.00135  -0.01303  -0.02373
  85        6D 0       -0.00006   0.00022   0.00151   0.00105  -0.00199
  86        6D+1       -0.00029   0.00186  -0.00968  -0.01156   0.00095
  87        6D-1       -0.00014   0.00071  -0.00206  -0.00288  -0.00072
  88        6D+2       -0.00008   0.00052   0.00071   0.00071  -0.00241
  89        6D-2        0.00011  -0.00024  -0.00333  -0.00193   0.00447
  90 8   O  1S          0.00020   0.00055  -0.00534   0.00782   0.01080
  91        2S          0.00063   0.00045  -0.01130   0.01632   0.02474
  92        3S          0.00069   0.00302  -0.03502   0.04673   0.06675
  93        4PX        -0.00218   0.00095   0.02356  -0.03827  -0.05834
  94        4PY         0.00588  -0.02408   0.03840   0.10072   0.07558
  95        4PZ         0.00371  -0.03072   0.22490   0.24804  -0.07291
  96        5PX        -0.00151   0.00058   0.02220  -0.03025  -0.05192
  97        5PY         0.00424  -0.01759   0.03272   0.08450   0.05296
  98        5PZ         0.00317  -0.02610   0.18528   0.20459  -0.05766
  99        6D 0       -0.00009   0.00051  -0.00185  -0.00211  -0.00011
 100        6D+1       -0.00007   0.00049  -0.00127  -0.00059  -0.00012
 101        6D-1        0.00002  -0.00037   0.00351   0.00297  -0.00198
 102        6D+2       -0.00018   0.00049   0.00016  -0.00268  -0.00293
 103        6D-2        0.00007  -0.00058   0.00038  -0.00089   0.00060
 104 9   C  1S         -0.00002   0.00156  -0.01741  -0.01743   0.00868
 105        2S          0.00014  -0.00386   0.04033   0.03896  -0.02073
 106        3S         -0.00247   0.00156   0.11956   0.13328  -0.08934
 107        4PX        -0.00130   0.00520  -0.01609  -0.03298  -0.00803
 108        4PY        -0.00029   0.00902  -0.08819  -0.09182   0.03447
 109        4PZ        -0.00066   0.00921  -0.06681  -0.06606   0.02310
 110        5PX        -0.00093   0.00327  -0.00547  -0.01804  -0.00835
 111        5PY        -0.00080   0.00915  -0.06678  -0.09389   0.00108
 112        5PZ         0.00218  -0.00462  -0.04460  -0.01715   0.06542
 113        6D 0       -0.00004   0.00040  -0.00216  -0.00207   0.00051
 114        6D+1       -0.00002   0.00004   0.00067   0.00016  -0.00111
 115        6D-1       -0.00002  -0.00018   0.00259   0.00256  -0.00122
 116        6D+2       -0.00013   0.00071  -0.00285  -0.00468  -0.00083
 117        6D-2       -0.00015   0.00044   0.00091  -0.00127  -0.00304
 118 10  C  1S         -0.00000   0.00011  -0.00083  -0.00088  -0.00001
 119        2S         -0.00010   0.00091   0.00112   0.00522  -0.00116
 120        3S         -0.00097  -0.00193   0.00043  -0.06105  -0.02542
 121        4PX         0.00043   0.00196  -0.02308  -0.01239   0.01376
 122        4PY        -0.00029   0.00234  -0.00941  -0.00913   0.00053
 123        4PZ         0.00051  -0.00596   0.03636   0.03370  -0.01108
 124        5PX        -0.00052   0.00858  -0.03248  -0.01478   0.00239
 125        5PY        -0.00061   0.00362  -0.00370  -0.00083  -0.00643
 126        5PZ         0.00079  -0.00787   0.04453   0.04953  -0.00553
 127        6D 0       -0.00001   0.00007   0.00064   0.00101  -0.00059
 128        6D+1        0.00004  -0.00008  -0.00015   0.00049   0.00054
 129        6D-1       -0.00001  -0.00019   0.00265   0.00234  -0.00156
 130        6D+2        0.00001  -0.00016   0.00046  -0.00004   0.00003
 131        6D-2       -0.00003   0.00006  -0.00018  -0.00107  -0.00035
 132 11  C  1S          0.00025  -0.00058  -0.00116   0.00401   0.00503
 133        2S         -0.00072   0.00207   0.00189  -0.01068  -0.01449
 134        3S          0.00135  -0.00668  -0.00394  -0.00528   0.02667
 135        4PX         0.00150  -0.00605   0.01626   0.03548   0.01221
 136        4PY         0.00035  -0.00189   0.00926   0.01962   0.00558
 137        4PZ        -0.00005  -0.00079   0.00562   0.00187  -0.00361
 138        5PX         0.00030  -0.00208   0.02290   0.02970  -0.01229
 139        5PY         0.00013  -0.00152   0.01074   0.01677   0.00047
 140        5PZ        -0.00035   0.00043   0.00260  -0.00887  -0.01033
 141        6D 0       -0.00004   0.00030  -0.00134  -0.00137   0.00008
 142        6D+1        0.00006  -0.00044   0.00205   0.00253  -0.00003
 143        6D-1        0.00004  -0.00027   0.00122   0.00172   0.00027
 144        6D+2       -0.00004   0.00023  -0.00136  -0.00211  -0.00008
 145        6D-2       -0.00002  -0.00017   0.00225   0.00216  -0.00097
 146 12  C  1S         -0.00005   0.00029  -0.00071  -0.00082   0.00008
 147        2S          0.00012  -0.00062   0.00215   0.00133  -0.00259
 148        3S          0.00120  -0.00674  -0.00575   0.01038   0.04829
 149        4PX         0.00214  -0.00550  -0.01303   0.01175   0.03356
 150        4PY        -0.00006  -0.00124   0.01677   0.01486  -0.00813
 151        4PZ         0.00006  -0.00080   0.00269   0.00119  -0.00034
 152        5PX         0.00180  -0.00401  -0.01407   0.00927   0.02680
 153        5PY        -0.00094   0.00183   0.02018   0.00583  -0.02891
 154        5PZ        -0.00039   0.00095   0.00066  -0.00376  -0.00243
 155        6D 0       -0.00002   0.00025  -0.00151  -0.00147   0.00022
 156        6D+1        0.00003   0.00003  -0.00120  -0.00072   0.00091
 157        6D-1        0.00002  -0.00024   0.00160   0.00164  -0.00037
 158        6D+2       -0.00009   0.00043  -0.00193  -0.00302  -0.00012
 159        6D-2       -0.00001   0.00004  -0.00023  -0.00018   0.00035
 160 13  N  1S          0.00337  -0.00253   0.02929  -0.03363  -0.06821
 161        2S          0.00573  -0.00456   0.05618  -0.06872  -0.14756
 162        3S          0.02370  -0.00472   0.14696  -0.10802  -0.14891
 163        4PX         0.00413  -0.01790   0.02139   0.00628   0.24208
 164        4PY         0.00220  -0.07482   0.02382  -0.00484   0.24602
 165        4PZ         0.02547  -0.18468   0.25602  -0.25767  -0.04455
 166        5PX        -0.00571   0.01405  -0.03110   0.02860  -0.15644
 167        5PY        -0.00402   0.05160  -0.03381  -0.00048  -0.18001
 168        5PZ        -0.01673   0.13359  -0.18418   0.17788   0.02743
 169        6D 0       -0.00094   0.00842  -0.00766   0.00706  -0.00846
 170        6D+1        0.00026  -0.00173  -0.00041  -0.00202  -0.01064
 171        6D-1        0.00057  -0.00573   0.01018  -0.01002  -0.00378
 172        6D+2        0.00024   0.00398  -0.00431   0.00428  -0.00336
 173        6D-2        0.00062  -0.00207   0.00113  -0.00167   0.01181
 174 14  C  1S          0.00140   0.00111   0.00890  -0.02242  -0.02655
 175        2S         -0.00365  -0.00464  -0.02158   0.06387   0.06889
 176        3S         -0.00772  -0.01788  -0.08111  -0.07756   0.01718
 177        4PX        -0.00247   0.05103  -0.02599   0.06074  -0.06620
 178        4PY        -0.00643   0.03171  -0.08299   0.06613  -0.00215
 179        4PZ         0.00145   0.06776  -0.09554   0.08295  -0.10703
 180        5PX         0.00338   0.00056  -0.03837  -0.04654  -0.05982
 181        5PY        -0.00301   0.03429  -0.05409   0.03759  -0.06923
 182        5PZ         0.00179   0.05740  -0.06590   0.10678  -0.02669
 183        6D 0        0.00226  -0.01374   0.01636  -0.01589   0.00483
 184        6D+1        0.00008  -0.00172   0.00162   0.00053   0.00843
 185        6D-1       -0.00184   0.01187  -0.01503   0.01361   0.00083
 186        6D+2        0.00015  -0.00445   0.00578  -0.00527   0.00788
 187        6D-2       -0.00034   0.00208  -0.00276  -0.00202  -0.02196
 188 15  O  1S         -0.00084  -0.00010   0.00338  -0.00859  -0.00979
 189        2S         -0.00143  -0.00076   0.00706  -0.01777  -0.02293
 190        3S         -0.00566  -0.01108   0.02424  -0.05790  -0.05387
 191        4PX         0.02434  -0.08835   0.09476  -0.10172   0.04948
 192        4PY         0.01029  -0.09859   0.11194  -0.10894  -0.01943
 193        4PZ         0.02207  -0.12144   0.14284  -0.11196   0.18139
 194        5PX         0.02075  -0.07069   0.08156  -0.08284   0.03385
 195        5PY         0.00788  -0.08167   0.09322  -0.09372  -0.00651
 196        5PZ         0.01565  -0.09922   0.11872  -0.09261   0.14811
 197        6D 0       -0.00070   0.00196  -0.00282   0.00187  -0.00007
 198        6D+1       -0.00006   0.00101  -0.00052   0.00015  -0.00207
 199        6D-1        0.00014  -0.00119   0.00178  -0.00086   0.00238
 200        6D+2        0.00024   0.00156  -0.00215   0.00291   0.00071
 201        6D-2        0.00057  -0.00157   0.00002  -0.00056   0.00184
 202 16  C  1S         -0.00680   0.00371  -0.01259   0.01144   0.01767
 203        2S          0.01493  -0.01146   0.03390  -0.02941  -0.04216
 204        3S          0.03681   0.02306   0.06058  -0.05424  -0.12864
 205        4PX        -0.02024   0.02954  -0.00210   0.01133  -0.03452
 206        4PY        -0.00535   0.02642   0.02213  -0.03318  -0.07058
 207        4PZ        -0.01672   0.02628  -0.08737   0.07530   0.02238
 208        5PX        -0.01176   0.01492  -0.00191   0.00498   0.00283
 209        5PY        -0.01304   0.02089   0.04009  -0.04594  -0.06559
 210        5PZ        -0.00445  -0.01384  -0.04103   0.03533   0.06317
 211        6D 0       -0.00021   0.00317  -0.00718   0.00549  -0.00536
 212        6D+1        0.00023  -0.00325   0.00202  -0.00209   0.00056
 213        6D-1       -0.00116   0.00419  -0.00590   0.00504  -0.00481
 214        6D+2        0.00067  -0.00323   0.00331  -0.00355   0.00247
 215        6D-2        0.00074   0.00177  -0.00162   0.00165   0.00514
 216 17  C  1S         -0.00036   0.02331   0.01618  -0.01418  -0.01896
 217        2S          0.00129  -0.04503  -0.03743   0.03782   0.04033
 218        3S          0.00971  -0.15638  -0.05936   0.03691   0.12316
 219        4PX        -0.00789   0.06409   0.01445   0.01993   0.13626
 220        4PY        -0.01631  -0.04075   0.01153  -0.01035   0.03372
 221        4PZ        -0.00551   0.01009   0.12163  -0.09827   0.01589
 222        5PX        -0.02288   0.05679  -0.03279   0.04720   0.01416
 223        5PY        -0.01024   0.00750   0.03600  -0.01677  -0.05212
 224        5PZ        -0.01487   0.03812   0.03729  -0.01779   0.01927
 225        6D 0        0.00010  -0.00166   0.00155  -0.00266  -0.00573
 226        6D+1       -0.00128   0.00591  -0.01292   0.01180  -0.00352
 227        6D-1       -0.00066  -0.00405  -0.00029   0.00049   0.00755
 228        6D+2       -0.00076   0.00820  -0.00791   0.00775  -0.00300
 229        6D-2       -0.00006  -0.00062   0.00126  -0.00237  -0.01501
 230 18  H  1S         -0.00864  -0.07363   0.05548  -0.04663   0.08676
 231        2S          0.01211  -0.02360   0.03960  -0.04176   0.05700
 232        3PX        -0.00085   0.00017   0.00006   0.00036   0.00191
 233        3PY         0.00051   0.00281  -0.00190   0.00187  -0.00177
 234        3PZ         0.00014   0.00157   0.00269  -0.00212  -0.00124
 235 19  C  1S          0.00240  -0.01690   0.02024  -0.01888   0.00992
 236        2S         -0.00366   0.03367  -0.04741   0.04327  -0.02125
 237        3S         -0.03257   0.11632  -0.14060   0.14686  -0.04615
 238        4PX        -0.00649   0.04604  -0.07391   0.06179  -0.05029
 239        4PY         0.01015   0.02013   0.00347  -0.00033   0.00624
 240        4PZ        -0.00072  -0.02903  -0.10437   0.07559  -0.06560
 241        5PX        -0.00403   0.04285   0.00164  -0.00146  -0.04754
 242        5PY         0.00877   0.01469  -0.03309   0.02884   0.03667
 243        5PZ        -0.01673   0.01178  -0.07924   0.06647  -0.07202
 244        6D 0       -0.00059   0.00407   0.00000   0.00005  -0.00350
 245        6D+1        0.00180  -0.01105  -0.00822   0.00505  -0.00364
 246        6D-1        0.00054  -0.00095  -0.00001   0.00005   0.00185
 247        6D+2        0.00115  -0.00416  -0.00241   0.00146   0.00033
 248        6D-2       -0.00041   0.00257   0.00025   0.00003   0.00001
 249 20  C  1S         -0.00148   0.00553  -0.00275   0.00246  -0.00489
 250        2S          0.00449  -0.01540   0.00480  -0.00456   0.01317
 251        3S         -0.00391   0.02155   0.04230  -0.03799  -0.03112
 252        4PX        -0.00698   0.04901   0.05287  -0.03156   0.04340
 253        4PY        -0.00175  -0.02213  -0.01353   0.00679  -0.01359
 254        4PZ        -0.04739   0.29534   0.10315  -0.03859   0.05194
 255        5PX         0.00155   0.02448   0.09080  -0.07399   0.01419
 256        5PY        -0.00692  -0.01016  -0.02054   0.01601  -0.02386
 257        5PZ        -0.03344   0.20905   0.06194  -0.01731   0.04374
 258        6D 0       -0.00027   0.00301   0.00343  -0.00220   0.00228
 259        6D+1        0.00662  -0.00529  -0.00568   0.00335  -0.00393
 260        6D-1        0.01833   0.00370   0.00181  -0.00110   0.00131
 261        6D+2        0.00415  -0.00128  -0.00094   0.00046  -0.00067
 262        6D-2        0.00487   0.00350  -0.00011   0.00050   0.00007
 263 21  C  1S          0.00100  -0.00099   0.00168  -0.00137   0.00239
 264        2S         -0.00326   0.00279  -0.00524   0.00420  -0.00705
 265        3S          0.01437  -0.02222   0.01653  -0.01869   0.01147
 266        4PX         0.07357   0.06156   0.01377  -0.00407   0.00429
 267        4PY        -0.01719  -0.01821  -0.00550   0.00223   0.00006
 268        4PZ         0.26311   0.18920   0.07894  -0.03773   0.05142
 269        5PX         0.05150   0.04358   0.00282   0.00653   0.02252
 270        5PY        -0.01790   0.00076  -0.01489   0.01121  -0.02147
 271        5PZ         0.18478   0.13245   0.06119  -0.03133   0.03357
 272        6D 0        0.00646  -0.00435  -0.00173   0.00064  -0.00091
 273        6D+1       -0.01069   0.00416   0.00191  -0.00079   0.00092
 274        6D-1        0.00444  -0.01237  -0.00491   0.00201  -0.00255
 275        6D+2       -0.00273  -0.00019   0.00056  -0.00038   0.00063
 276        6D-2        0.00219  -0.00259  -0.00235   0.00129  -0.00211
 277 22  C  1S         -0.00028   0.00122  -0.00105   0.00086  -0.00166
 278        2S          0.00034  -0.00310   0.00170  -0.00120   0.00477
 279        3S         -0.00430   0.00897  -0.00962   0.01190   0.01319
 280        4PX         0.08711  -0.03317  -0.00656   0.00027   0.00070
 281        4PY        -0.02712   0.00878   0.00305  -0.00098  -0.00015
 282        4PZ         0.30466  -0.08547  -0.05079   0.02276  -0.03054
 283        5PX         0.06088  -0.02189  -0.00756   0.00365   0.00823
 284        5PY        -0.01621  -0.00150   0.00517  -0.00394   0.00521
 285        5PZ         0.21366  -0.05956  -0.03589   0.01545  -0.02473
 286        6D 0       -0.00484  -0.00658  -0.00269   0.00123  -0.00167
 287        6D+1        0.00769   0.01402   0.00592  -0.00275   0.00364
 288        6D-1       -0.00479   0.00576   0.00256  -0.00112   0.00144
 289        6D+2        0.00216   0.00444   0.00226  -0.00113   0.00159
 290        6D-2       -0.00191   0.00023   0.00003   0.00001   0.00004
 291 23  C  1S         -0.00004  -0.00000   0.00034  -0.00022   0.00034
 292        2S         -0.00003   0.00026  -0.00124   0.00098  -0.00029
 293        3S          0.00717  -0.01690   0.00914  -0.00997   0.00428
 294        4PX         0.01188  -0.07413  -0.03686   0.01762  -0.02278
 295        4PY        -0.00298   0.02559   0.01109  -0.00491   0.00736
 296        4PZ         0.04392  -0.27933  -0.12020   0.05402  -0.07133
 297        5PX         0.01102  -0.05910  -0.02221   0.00856  -0.01589
 298        5PY        -0.00333   0.02001   0.00641  -0.00155   0.00850
 299        5PZ         0.03032  -0.19765  -0.08929   0.04140  -0.05358
 300        6D 0       -0.00046   0.00304   0.00116  -0.00049   0.00063
 301        6D+1        0.00671  -0.00394  -0.00197   0.00088  -0.00117
 302        6D-1        0.01806   0.00454   0.00088  -0.00036   0.00038
 303        6D+2        0.00363  -0.00122  -0.00015  -0.00004   0.00018
 304        6D-2        0.00431   0.00220   0.00008   0.00011  -0.00011
 305 24  C  1S         -0.00059   0.00245  -0.00174   0.00155  -0.00169
 306        2S          0.00206  -0.00618   0.00397  -0.00347   0.00426
 307        3S         -0.00601   0.00367  -0.01249   0.01187   0.01576
 308        4PX        -0.06909  -0.06235  -0.00611  -0.00137   0.00094
 309        4PY         0.02393   0.01995   0.00321  -0.00048  -0.00005
 310        4PZ        -0.25936  -0.17595  -0.05752   0.02502  -0.03056
 311        5PX        -0.05153  -0.03850  -0.01170   0.00523   0.00266
 312        5PY         0.01411   0.02129  -0.00071   0.00330  -0.00154
 313        5PZ        -0.18201  -0.12479  -0.04173   0.01846  -0.02353
 314        6D 0        0.00649  -0.00497  -0.00259   0.00119  -0.00172
 315        6D+1       -0.01084   0.00504   0.00321  -0.00155   0.00214
 316        6D-1        0.00443  -0.01222  -0.00540   0.00241  -0.00330
 317        6D+2       -0.00271   0.00052   0.00046  -0.00020   0.00049
 318        6D-2        0.00252  -0.00331  -0.00243   0.00134  -0.00156
 319 25  C  1S         -0.00012  -0.00413   0.00337  -0.00307   0.00275
 320        2S          0.00066   0.01122  -0.00989   0.00920  -0.00857
 321        3S          0.00166  -0.01473   0.02678  -0.02588  -0.00938
 322        4PX        -0.08642   0.04782   0.00727   0.00164   0.00281
 323        4PY         0.03308  -0.00679  -0.00862   0.00530  -0.00361
 324        4PZ        -0.30382   0.10381   0.07671  -0.03829   0.05252
 325        5PX        -0.06050   0.02075   0.01151  -0.00518   0.01617
 326        5PY         0.02861  -0.01723   0.01139  -0.01333  -0.00712
 327        5PZ        -0.21385   0.07528   0.06168  -0.03283   0.03723
 328        6D 0       -0.00477  -0.00605  -0.00196   0.00080  -0.00084
 329        6D+1        0.00715   0.01407   0.00456  -0.00178   0.00220
 330        6D-1       -0.00449   0.00635   0.00289  -0.00123   0.00158
 331        6D+2        0.00213   0.00337   0.00243  -0.00131   0.00199
 332        6D-2       -0.00203   0.00058  -0.00006   0.00013  -0.00006
 333 26  C  1S          0.00019  -0.00741   0.01965   0.00248   0.00459
 334        2S         -0.00103   0.01885  -0.04808  -0.00322  -0.01226
 335        3S          0.00126   0.00174  -0.04927  -0.03162   0.00442
 336        4PX        -0.00079   0.00050  -0.00404  -0.00444   0.01611
 337        4PY        -0.00202   0.02659  -0.07041  -0.01432  -0.00943
 338        4PZ         0.00134   0.01925  -0.05653  -0.01103  -0.01913
 339        5PX        -0.00244   0.01032  -0.00809   0.02031  -0.00713
 340        5PY        -0.00211   0.01904  -0.05809  -0.02366  -0.00538
 341        5PZ         0.00271  -0.00118  -0.01787  -0.01905  -0.00444
 342        6D 0       -0.00005   0.00117  -0.00393  -0.00078   0.00022
 343        6D+1        0.00008   0.00032  -0.00066   0.00012  -0.00300
 344        6D-1       -0.00001   0.00019   0.00025  -0.00047   0.00026
 345        6D+2        0.00006  -0.00056   0.00123  -0.00013   0.00024
 346        6D-2        0.00011   0.00049   0.00061   0.00206  -0.00349
 347 27  H  1S         -0.00126   0.01146  -0.02889  -0.00424  -0.00775
 348        2S          0.00039   0.00248  -0.01285  -0.00933   0.00111
 349        3PX        -0.00007   0.00055  -0.00043   0.00015  -0.00016
 350        3PY         0.00001  -0.00022  -0.00026  -0.00022   0.00015
 351        3PZ         0.00002   0.00007   0.00023   0.00010  -0.00013
 352 28  H  1S          0.00065   0.01040  -0.00845   0.00955   0.02026
 353        2S         -0.00009   0.01085  -0.01130  -0.01263   0.00310
 354        3PX        -0.00001  -0.00012   0.00006  -0.00031  -0.00054
 355        3PY        -0.00004   0.00023  -0.00027  -0.00008  -0.00011
 356        3PZ        -0.00000   0.00033  -0.00019   0.00020  -0.00005
 357 29  H  1S         -0.00093  -0.00403   0.00980  -0.01441  -0.01921
 358        2S         -0.00263   0.01428  -0.01095   0.01277  -0.01478
 359        3PX        -0.00000  -0.00033   0.00050  -0.00057  -0.00033
 360        3PY        -0.00008   0.00018  -0.00026   0.00038  -0.00029
 361        3PZ         0.00002   0.00025  -0.00039  -0.00001   0.00001
 362 30  H  1S         -0.00341   0.01928  -0.07199  -0.09585  -0.01127
 363        2S         -0.00287   0.01548  -0.05105  -0.08013  -0.02437
 364        3PX        -0.00006   0.00017   0.00114   0.00103  -0.00154
 365        3PY         0.00008  -0.00009  -0.00215  -0.00061   0.00283
 366        3PZ         0.00011  -0.00056   0.00108   0.00147   0.00089
 367 31  H  1S          0.00046  -0.00746   0.08372   0.08137  -0.04257
 368        2S         -0.00037  -0.00196   0.05722   0.04939  -0.04373
 369        3PX        -0.00013   0.00064  -0.00148  -0.00194  -0.00109
 370        3PY         0.00010  -0.00035   0.00083   0.00253   0.00135
 371        3PZ        -0.00010   0.00032   0.00099  -0.00004  -0.00217
 372 32  H  1S          0.00019  -0.00182   0.01504   0.01690  -0.00503
 373        2S          0.00039  -0.00250   0.01364   0.01811  -0.00061
 374        3PX         0.00004  -0.00011  -0.00059  -0.00052   0.00078
 375        3PY        -0.00003   0.00023  -0.00099  -0.00113  -0.00000
 376        3PZ        -0.00001   0.00001   0.00043   0.00029  -0.00050
 377 33  H  1S          0.00055  -0.00123  -0.00412   0.00251   0.00824
 378        2S          0.00057  -0.00167  -0.00121   0.00561   0.00908
 379        3PX         0.00000   0.00008  -0.00109  -0.00107   0.00066
 380        3PY         0.00007  -0.00037   0.00098   0.00126   0.00046
 381        3PZ         0.00001  -0.00012   0.00090   0.00105  -0.00028
 382 34  H  1S         -0.00037  -0.00101   0.01179   0.00312  -0.00769
 383        2S         -0.00116   0.01426  -0.04260  -0.00735   0.00285
 384        3PX        -0.00005   0.00020   0.00114   0.00157  -0.00123
 385        3PY        -0.00000  -0.00015   0.00188   0.00210  -0.00073
 386        3PZ        -0.00000  -0.00036   0.00320   0.00248  -0.00173
 387 35  H  1S          0.00039  -0.00351   0.02253   0.03008  -0.00111
 388        2S          0.00035  -0.00249   0.01756   0.02762   0.00085
 389        3PX         0.00005  -0.00023   0.00040   0.00090   0.00062
 390        3PY         0.00000   0.00004  -0.00043  -0.00044   0.00017
 391        3PZ        -0.00000   0.00004  -0.00040  -0.00049   0.00010
 392 36  H  1S         -0.00012   0.00175  -0.00958  -0.00798   0.00231
 393        2S         -0.00053   0.00390  -0.01604  -0.02081  -0.00307
 394        3PX         0.00004  -0.00020   0.00056   0.00111   0.00044
 395        3PY         0.00001  -0.00009   0.00073   0.00100  -0.00011
 396        3PZ         0.00000  -0.00006   0.00051   0.00048  -0.00021
 397 37  H  1S          0.00038  -0.00103  -0.00203  -0.00265   0.00095
 398        2S          0.00003   0.00138  -0.01395  -0.01197   0.00631
 399        3PX         0.00005  -0.00021   0.00056   0.00119   0.00056
 400        3PY         0.00004  -0.00027   0.00116   0.00136  -0.00004
 401        3PZ        -0.00001   0.00003   0.00010   0.00014  -0.00011
 402 38  H  1S          0.00079  -0.00448   0.01970   0.02680   0.00203
 403        2S          0.00059  -0.00331   0.01639   0.02354   0.00069
 404        3PX         0.00005  -0.00011  -0.00069  -0.00002   0.00126
 405        3PY        -0.00002   0.00010  -0.00032  -0.00046  -0.00008
 406        3PZ        -0.00002   0.00008  -0.00030  -0.00061  -0.00024
 407 39  H  1S         -0.00167   0.00482   0.00238  -0.01755  -0.02265
 408        2S          0.00020   0.00200  -0.00989  -0.00758  -0.01051
 409        3PX        -0.00005   0.00017   0.00035  -0.00033  -0.00151
 410        3PY        -0.00012   0.00021   0.00216   0.00057  -0.00314
 411        3PZ         0.00000  -0.00005   0.00026   0.00001  -0.00014
 412 40  H  1S         -0.00007   0.00156  -0.00995  -0.00849   0.00294
 413        2S         -0.00030   0.00274  -0.01281  -0.01394   0.00071
 414        3PX         0.00005  -0.00015  -0.00035   0.00016   0.00099
 415        3PY         0.00003  -0.00016   0.00080   0.00109  -0.00000
 416        3PZ         0.00001  -0.00007   0.00035   0.00054   0.00006
 417 41  H  1S         -0.01370   0.04593  -0.08797   0.07134  -0.04766
 418        2S         -0.01171   0.03393  -0.06795   0.05634  -0.02952
 419        3PX        -0.00052  -0.00007   0.00129  -0.00079  -0.00062
 420        3PY         0.00014   0.00065   0.00088  -0.00090  -0.00185
 421        3PZ         0.00021  -0.00115   0.00155  -0.00105   0.00175
 422 42  H  1S          0.01659  -0.04030   0.03276  -0.02701   0.06854
 423        2S         -0.02679  -0.00463   0.01777  -0.01062   0.07367
 424        3PX         0.00163  -0.00200  -0.00071   0.00068   0.00086
 425        3PY        -0.00005  -0.00069   0.00208  -0.00217  -0.00001
 426        3PZ         0.00022   0.00054  -0.00293   0.00244   0.00067
 427 43  H  1S         -0.01127   0.01274   0.01734  -0.00969   0.01597
 428        2S          0.00220  -0.00252   0.01628  -0.01362   0.02374
 429        3PX        -0.00067   0.00113  -0.00117   0.00119   0.00020
 430        3PY        -0.00031   0.00189   0.00056  -0.00011   0.00010
 431        3PZ        -0.00038  -0.00081  -0.00292   0.00225  -0.00075
 432 44  H  1S         -0.00508   0.08243   0.04291  -0.02321   0.01157
 433        2S         -0.01125   0.02950   0.06015  -0.04921  -0.02643
 434        3PX         0.00062  -0.00008  -0.00145   0.00087  -0.00112
 435        3PY         0.00009  -0.00263  -0.00133   0.00066  -0.00073
 436        3PZ         0.00021   0.00141  -0.00095   0.00085  -0.00124
 437 45  H  1S         -0.00004   0.00792  -0.00783   0.00610  -0.00948
 438        2S         -0.00226   0.00229   0.00001   0.00051  -0.00136
 439        3PX         0.00252   0.00190   0.00104  -0.00063   0.00024
[...]
 000841,0.00000311,-0.00002619,0.00001891,0.00000048,-0.00000289,-0.000
 00391,-0.00000087,0.00000350,0.00000091,-0.00000030,0.00000100,0.00000
 224,0.00000126,0.00000179,0.00000016,0.00000173,0.00011009,0.00035978,
 -0.00031733,0.00035370,-0.00051880,0.00021501,-0.00060578,0.00025475,-
 0.00021553,0.00046435,-0.00012674,0.00005108,0.00049772,-0.00048072,0.
 00066083,-0.00003368,0.00004189,-0.00004616,0.00076132,0.00257858,-0.0
 0316880,-0.00274968,-0.00195564,0.00193114,-0.00067789,-0.00181929,0.0
 0584373,0.00016500,0.00060235,-0.00065230,-0.00325221,-0.00185697,0.00
 558762,0.00008106,-0.00865189,-0.00025200,-0.02603340,-0.11364441,-0.0
 9165494,-0.00000308,0.00000539,0.00000104,0.00000859,0.00000142,-0.000
 00511,-0.00000669,0.00000012,-0.00000303,0.00000608,0.00001272,0.00000
 990,-0.00000159,0.00000055,0.00000055,-0.00000220,0.00000038,-0.000001
 23,-0.00000083,0.00000090,0.00000125,0.00000120,0.00000073,-0.00000102
 ,-0.00000130,-0.00000140,-0.00000093,-0.00000094,0.00000093,0.00000132
 ,-0.00000080,0.00000042,-0.00000183,0.00000116,-0.00000019,-0.00000018
 ,-0.00000128,0.00000157,0.00000162,-0.00000033,-0.00000422,-0.00000039
 ,-0.00000146,0.00000032,-0.00000253,-0.00012181,0.00006125,-0.00000005
 ,0.00036476,0.00023632,-0.00034049,0.00027807,-0.00026594,0.00007338,-
 0.00048686,0.00005549,0.00016011,-0.00006720,-0.00014693,0.00010772,0.
 00021336,0.00030510,-0.00087699,-0.00005071,-0.00048213,0.00003380,0.0
 0101618,0.00167467,-0.00316879,0.02981364,0.12372987,0.08602571,0.0003
 6996,0.00024333,0.00038019,0.00310667,0.00227170,0.00308070,0.00032691
 ,0.00037883,-0.00001330,0.00001461,-0.00004997,-0.00013615,-0.00000430
 ,0.00003056,0.00003900,0.00003838,-0.00002316,0.00001062,-0.00005376,0
 .00000463,-0.00003793,0.00015299,0.00000713,0.00021883,-0.00000284,0.0
 0000991,0.00001995,-0.00000781,-0.00000937,-0.00000685,-0.00000436,-0.
 00000371,-0.00001360,-0.00000415,0.00000202,-0.00001362,0.00033625,0.0
 0048505,-0.00031328,0.00009125,-0.00058863,0.00064527,0.00034356,-0.00
 004983,0.00001777,0.00013419,0.00002341,0.00004751,0.00001418,0.000008
 84,0.00010045,-0.00000969,0.00000256,-0.00002578,-0.00000792,0.0000973
 5,0.00003580,0.00006119,-0.00000605,0.00000595,-0.00003123,-0.00000060
 ,-0.00000747,-0.00000023,-0.00000115,0.00000213,-0.00001243,-0.0000034
 5,-0.00000422,0.00000554,-0.00000542,-0.00000120,-0.00002062,-0.000003
 06,-0.00000236,-0.22957981,-0.10402941,-0.08449601,0.00014357,0.000206
 57,0.00009541,0.00023312,0.00013236,-0.00024259,-0.00012635,-0.0000889
 8,-0.00011613,0.00002307,-0.00001751,-0.00001022,0.00002087,0.00000649
 ,0.00000503,0.00000283,-0.00000476,-0.00000550,0.00000435,0.00000246,0
 .00000462,0.00000289,-0.00000043,0.00001455,0.00000426,-0.00000657,-0.
 00000314,-0.00000081,-0.00000056,0.00000361,-0.00000106,0.00000290,0.0
 0000135,0.00000306,-0.00000726,-0.00000444,0.00000239,0.00000865,0.000
 00786,0.00000004,0.00000263,0.00000310,-0.00000674,-0.00001605,-0.0000
 1972,0.00001605,0.00001235,0.00001627,0.00004062,-0.00002875,-0.000015
 03,0.00000321,-0.00000101,-0.00001468,0.00000478,0.00000828,0.00000109
 ,-0.00000409,-0.00000435,-0.00000329,-0.00000448,-0.00000161,-0.000002
 24,-0.00000599,0.00000258,-0.00000132,0.00001398,-0.00000600,-0.000002
 19,0.24171985,0.00074195,0.00042669,0.00088772,-0.00196189,-0.00208562
 ,0.00000885,-0.00189012,-0.00055183,-0.00057879,0.00038651,-0.00002548
 ,0.00019003,-0.00001242,0.00002648,-0.00010533,-0.00000275,-0.00004547
 ,0.00000054,0.00025129,-0.00022080,-0.00008466,0.00061777,0.00042095,0
 .00058953,0.00003139,-0.00003277,-0.00002439,-0.00001346,0.00002645,0.
 00002434,0.00000198,0.00000707,0.00001166,-0.00001980,0.00000783,0.000
 01698,-0.00013125,0.00050515,-0.00048662,0.00019291,-0.00074302,-0.000
 62286,-0.00031587,0.00020554,-0.00011362,-0.00005123,0.00000653,-0.000
 02699,0.00019867,0.00000852,-0.00002416,-0.00005840,-0.00000135,-0.000
 02816,-0.00003386,-0.00002391,-0.00002538,0.00004069,0.00001603,0.0000
 2923,-0.00001849,-0.00000337,-0.00000484,0.00000248,0.00000424,0.00000
 173,-0.00000950,-0.00000282,-0.00000317,0.00000140,0.00000243,0.000000
 86,-0.00002035,-0.00001655,-0.00001147,-0.10351732,-0.10559981,-0.0473
 1342,0.00009587,-0.00008667,-0.00008156,-0.00019167,0.00037229,0.00009
 930,0.00013974,0.00001513,0.00000015,-0.00002669,0.00002705,0.00004087
 ,0.00006501,0.00000553,-0.00004248,0.00000066,0.00000585,0.00001371,0.
 00000403,0.00000224,-0.00001345,-0.00000403,-0.00000009,-0.00000590,-0
 .00000274,0.00000931,0.00000776,0.00000300,-0.00000825,-0.00000073,0.0
 0001206,0.00000023,-0.00000783,0.00000691,0.00001316,0.00000562,0.0000
 0161,-0.00000029,0.00000671,-0.00000447,-0.00000408,-0.00000160,0.0000
 0154,0.00000216,-0.00001292,-0.00001028,0.00002252,-0.00002223,0.00000
 609,-0.00002347,0.00000475,0.00001891,0.00003339,0.00000478,0.00000317
 ,0.00000778,0.00000248,-0.00000285,-0.00000287,-0.00000241,-0.00000281
 ,-0.00000013,-0.00000084,-0.00000436,0.00000135,-0.00000120,0.00000271
 ,-0.00000122,-0.00000105,0.11268756,0.10807164,-0.00113746,-0.00113049
 ,0.00192343,-0.02496112,-0.01430787,-0.01497266,-0.00268742,-0.0003014
 6,0.00023294,0.00044412,0.00006879,0.00049327,-0.00002367,0.00000336,-
 0.00016535,-0.00002211,0.00002293,-0.00000555,0.00055694,-0.00033363,0
 .00006533,0.00045542,0.00079518,0.00052542,0.00004712,-0.00002513,-0.0
 0004596,-0.00002822,0.00001900,0.00002015,0.00000147,0.00000093,0.0000
 1576,-0.00002908,0.00001234,0.00002233,-0.00075100,-0.00052966,-0.0003
 5382,0.00328426,-0.00014186,-0.00536276,-0.00077643,-0.00011026,-0.000
 19168,-0.00018263,0.00006689,0.00025185,0.00002651,0.00002093,0.000666
 28,-0.00005292,-0.00001027,-0.00003802,-0.00031417,-0.00006041,-0.0002
 7973,0.00001473,0.00001637,0.00019909,-0.00001508,-0.00000397,-0.00000
 131,-0.00000096,0.00001735,-0.00000306,-0.00001812,-0.00001300,-0.0000
 0918,0.00001421,0.00001358,-0.00000323,-0.00005173,-0.00004069,-0.0000
 2161,-0.08224021,-0.04597403,-0.08113146,0.00030719,-0.00010460,0.0003
 9198,0.00064238,0.00079156,-0.00032585,-0.00000023,0.00014838,-0.00007
 308,-0.00007341,0.00004711,0.00001877,-0.00001584,0.00001026,-0.000042
 90,0.00000235,0.00000956,0.00001135,0.00001581,0.00000320,-0.00001643,
 -0.00001376,-0.00000419,-0.00000419,-0.00000283,0.00000983,0.00000608,
 0.00000359,-0.00000268,-0.00000274,0.00001732,0.00000087,-0.00000716,0
 .00000744,0.00001451,0.00000674,-0.00000416,0.00000649,0.00000213,0.00
 000170,-0.00000369,-0.00000196,0.00000281,-0.00001190,-0.00000695,-0.0
 0008115,-0.00002814,-0.00003930,-0.00005259,0.00005236,0.00000183,0.00
 002575,-0.00001686,-0.00003445,0.00000332,0.00001257,0.00000454,-0.000
 00367,-0.00000435,-0.00000456,-0.00000505,-0.00000106,-0.00000036,-0.0
 0000910,0.00000222,-0.00000175,0.00000370,-0.00000015,-0.00000267,0.09
 012221,0.05182378,0.09125126,0.00007469,0.00022054,0.00097189,-0.00233
 300,-0.00271818,0.00131950,-0.00011289,-0.00181075,0.00103559,-0.00003
 440,0.00034869,-0.00058604,-0.00019225,0.00010379,0.00001702,-0.000034
 82,0.00005575,0.00005286,0.00000647,-0.00000397,0.00011522,0.00006186,
 0.00028873,0.00003957,0.00002156,0.00004788,0.00002220,0.00001359,-0.0
 0004181,-0.00002690,-0.00000754,-0.00002776,-0.00003211,0.00001704,-0.
 00000676,-0.00001113,-0.00026148,-0.00013707,0.00047146,-0.00001408,0.
 00165919,-0.00062006,0.00014168,-0.00044016,-0.00018199,0.00005625,0.0
 0003400,-0.00004483,-0.00010115,-0.00004319,0.00001179,0.00001840,0.00
 000470,0.00003809,0.00003277,-0.00006238,-0.00010511,-0.00010766,-0.00
 000215,0.00003672,0.00005233,-0.00000395,0.00001347,-0.00000352,0.0000
 0392,-0.00000187,0.00001549,0.00000328,0.00000570,-0.00000420,0.000001
 41,-0.00000014,0.00002838,0.00001501,0.00001409,-0.04970107,-0.0215244
 8,0.00973346,0.00049187,-0.00030654,0.00019175,0.00027064,0.00031818,-
 0.00011897,0.00010098,-0.00030040,0.00009117,-0.00000389,0.00002089,-0
 .00003062,-0.00004008,-0.00003615,0.00000184,0.00000509,-0.00000672,-0
 .00002025,-0.00000249,0.00000113,0.00000937,0.00000793,0.00000474,0.00
 001899,0.00001335,-0.00001292,-0.00001090,-0.00000586,0.00000991,0.000
 00272,-0.00000706,0.00000380,0.00000523,0.00000067,-0.00001609,-0.0000
 1233,0.00000539,0.00000627,0.00000115,0.00000019,0.00001259,0.00000136
 ,-0.00001675,-0.00001919,0.00001270,0.00000745,-0.00000357,-0.00000314
 ,-0.00007071,0.00010278,-0.00000579,-0.00002260,-0.00008443,-0.0000188
 6,-0.00000577,-0.00000889,-0.00000465,0.00000694,0.00000580,0.00000355
 ,0.00000506,0.00000138,0.00000157,0.00000798,-0.00000178,0.00000053,-0
 .00000998,0.00000829,-0.00000288,-0.00081119,-0.02165368,0.01165230,0.
 04864861,0.00012399,0.00075655,-0.00059395,0.00049219,0.00336399,-0.00
 317686,0.00066632,0.00066627,-0.00067608,-0.00003637,0.00045698,-0.000
 11039,-0.00003633,-0.00006775,0.00004831,0.00000244,0.00002864,0.00001
 390,0.00003984,-0.00001476,0.00001265,-0.00017689,-0.00005320,-0.00001
 468,-0.00000039,0.00000056,-0.00001274,-0.00000465,-0.00000195,-0.0000
 0401,0.00000078,0.00000109,0.00001020,0.00000419,0.00000532,0.00000504
 ,0.00016427,0.00039618,-0.00027954,-0.00005354,0.00010496,-0.00018904,
 -0.00006882,0.00011379,-0.00001638,0.00000799,-0.00001032,-0.00000053,
 -0.00001448,-0.00009125,0.00005304,-0.00000006,0.00000837,-0.00001568,
 -0.00001451,0.00010132,0.00004899,0.00002975,-0.00002594,-0.00003158,-
 0.00001692,0.00000512,-0.00000529,-0.00000044,-0.00000630,-0.00000147,
 -0.00000103,-0.00000069,-0.00000122,0.00000259,-0.00000159,-0.00000203
 ,0.00000138,0.00000856,-0.00000259,-0.02236615,-0.27795420,0.10789663,
 0.00001680,0.00028789,-0.00015755,0.00014659,0.00002713,-0.00012610,-0
 .00011524,0.00012191,-0.00018625,-0.00001172,-0.00000805,-0.00001120,-
 0.00003354,0.00000158,-0.00000832,0.00000011,0.00000249,0.00000237,0.0
 0000231,-0.00000122,-0.00000126,0.00000013,-0.00000105,-0.00000097,-0.
 00000289,0.00000364,0.00000194,0.00000148,0.00000144,-0.00000208,0.000
 00054,-0.00000170,0.00000022,-0.00000605,0.00000307,0.00000560,-0.0000
 0605,-0.00000393,-0.00000919,0.00000461,-0.00000445,0.00000065,0.00000
 485,0.00000139,-0.00000698,0.00000301,-0.00001553,0.00000608,0.0000515
 4,-0.00005622,0.00000800,-0.00002032,0.00000107,0.00000780,0.00000046,
 -0.00000157,0.00000097,-0.00000223,-0.00000121,-0.00000006,-0.00000059
 ,-0.00000082,0.00000040,-0.00000096,-0.00000044,0.00000141,0.00000337,
 -0.00000540,0.00000563,0.00112021,-0.00943226,0.00521079,0.02382822,0.
 29225601,0.00046321,-0.00207918,-0.00650117,0.00308254,0.02603590,-0.0
 1349893,-0.00044671,0.00367643,0.00013370,-0.00027845,-0.00056365,0.00
 097788,0.00040408,-0.00036720,0.00008291,-0.00003324,0.00003296,-0.000
 08143,-0.00003035,0.00004339,-0.00005907,-0.00026850,-0.00064709,0.000
 06276,-0.00004327,-0.00001285,-0.00004844,0.00000815,0.00002837,0.0000
 1232,0.00001300,0.00002039,0.00004271,0.00001345,-0.00000299,0.0000299
 2,-0.00004191,-0.00046083,0.00080148,0.00147791,0.00340157,0.00038594,
 0.00003912,-0.00072966,0.00020224,0.00016734,0.00002466,-0.00001543,-0
 .00040088,-0.00029509,0.00011539,0.00003548,0.00000867,0.00002589,0.00
 000808,-0.00000694,-0.00004332,-0.00005663,-0.00001908,-0.00002866,0.0
 0001871,0.00000829,0.00000782,-0.00000270,-0.00000426,-0.00000326,0.00
 001300,0.00000213,0.00000412,-0.00000090,-0.00000142,0.00000042,0.0000
 2366,0.00001329,0.00000962,0.00950236,0.10277819,-0.09199168,0.0004216
 9,0.00186399,-0.00073345,0.00006429,-0.00010337,0.00010433,-0.00010128
 ,-0.00019290,0.00011761,-0.00001776,-0.00003836,0.00001335,-0.00000568
 ,-0.00001687,-0.00000288,-0.00001036,0.00000540,0.00001469,-0.00001844
 ,-0.00000562,-0.00000255,-0.00000107,0.00000815,-0.00003690,-0.0000170
 5,0.00001208,0.00000611,0.00000520,-0.00000273,-0.00000543,-0.00000611
 ,-0.00000869,-0.00000133,-0.00001346,0.00001713,0.00001044,-0.00001182
 ,-0.00002160,-0.00002448,0.00000149,-0.00001182,-0.00000292,-0.0000193
 4,-0.00001188,0.00001642,-0.00000786,-0.00005746,0.00000881,-0.0000060
 6,0.00001081,0.00000376,-0.00003975,-0.00002782,0.00001642,-0.00000454
 ,-0.00000973,-0.00000099,0.00000255,0.00000316,0.00000259,0.00000353,0
 .00000049,0.00000124,0.00000601,-0.00000192,0.00000124,-0.00000616,0.0
 0000010,0.00000105,-0.00017297,-0.01177901,0.00510829,-0.01240063,-0.1
 1346489,0.10236793,-0.00005326,0.00005338,-0.00038719,-0.00145894,0.00
 068476,-0.00099843,0.00042186,-0.00011005,0.00042625,0.00002782,-0.000
 18364,0.00020129,0.00003297,0.00000781,-0.00018195,-0.00005226,0.00000
 297,0.00000767,0.00018181,-0.00014280,-0.00003004,0.00034834,0.0002675
 1,0.00025160,0.00000692,-0.00005136,-0.00004188,0.00000650,0.00002254,
 0.00001961,0.00000488,0.00001350,0.00002608,-0.00000641,0.00000080,0.0
 0002280,0.00020899,0.00008313,0.00000488,0.00001410,-0.00059592,-0.000
 51573,0.00043120,-0.00011104,0.00017584,0.00003258,0.00001202,0.000061
 80,-0.00007097,0.00000533,0.00005316,0.00001638,0.00000152,0.00001039,
 0.00004428,-0.00000797,-0.00001713,-0.00002360,0.00001548,-0.00002083,
 0.00001188,0.00000324,0.00000349,-0.00000128,-0.00000042,-0.00000058,0
 .00000585,0.00000078,0.00000182,-0.00000245,0.00000151,-0.00000002,0.0
 0001022,0.00000066,0.00000562,-0.23130559,0.12506363,0.04473441,0.0001
 9662,-0.00023362,-0.00006415,-0.00006183,0.00011381,0.00003444,0.00014
 805,-0.00034780,0.00043669,-0.00002377,0.00001373,0.00002102,0.0000193
 9,0.00000734,-0.00001211,-0.00000481,0.00000955,0.00001473,-0.00000147
 ,-0.00000086,-0.00001110,-0.00000913,-0.00000043,-0.00001994,-0.000009
 27,0.00001315,0.00000860,0.00000369,-0.00000405,-0.00000478,0.00000734
 ,-0.00000422,-0.00000539,-0.00000214,0.00001614,0.00000946,-0.00000417
 ,-0.00001197,-0.00000782,-0.00000177,-0.00000561,-0.00000441,0.0000114
 7,0.00001703,0.00000997,0.00001364,-0.00000989,0.00000139,0.00000455,0
 .00000076,0.00002751,-0.00000308,0.00000667,0.00001023,-0.00000142,-0.
 00000400,-0.00000020,0.00000084,0.00000098,0.00000127,0.00000174,0.000
 00069,0.00000088,0.00000381,-0.00000088,0.00000070,-0.00000526,0.00000
 207,0.00000103,-0.01653476,0.01444438,0.00590146,0.00379179,-0.0037297
 5,-0.00131095,0.24362812,-0.00084535,0.00058010,0.00035673,0.00140545,
 -0.00248536,-0.00025476,-0.00045492,-0.00079599,-0.00113092,0.00034393
 ,0.00053251,-0.00060829,-0.00028127,0.00005904,0.00007033,0.00006558,-
 0.00001039,0.00003898,0.00006290,-0.00010685,0.00000385,0.00011161,0.0
 0022383,0.00028130,0.00004835,0.00006050,0.00004160,0.00000031,-0.0000
 4053,-0.00001635,-0.00001649,-0.00003162,-0.00004224,0.00001490,0.0000
 0188,-0.00001623,-0.00039063,-0.00019600,0.00028329,0.00131183,-0.0000
 6948,-0.00007851,-0.00042190,0.00015885,0.00002272,-0.00011754,-0.0000
 5334,-0.00011710,0.00000098,0.00007762,-0.00013804,0.00000063,0.000002
 28,0.00004085,0.00007326,-0.00022180,-0.00015482,-0.00010372,0.0000621
 5,0.00004437,0.00006193,-0.00001006,0.00001763,0.00000123,0.00001303,0
 .00000153,0.00001356,0.00000606,0.00000691,-0.00001146,0.00000909,0.00
 000204,0.00001949,-0.00001583,0.00000307,0.12501560,-0.13052359,-0.029
 29006,-0.00001437,-0.00002916,-0.00010764,-0.00007644,0.00002885,0.000
 00680,0.00020161,0.00023140,0.00012458,0.00000907,0.00002072,-0.000011
 83,0.00000117,0.00000653,-0.00001221,0.00001054,-0.00000880,-0.0000189
 5,-0.00000094,0.00000468,0.00000557,0.00001512,0.00000808,0.00003239,0
 .00001975,-0.00001362,-0.00000903,-0.00000404,0.00000514,0.00000641,-0
 .00000236,0.00000651,0.00000259,0.00000462,-0.00001768,-0.00001235,0.0
 0000874,0.00001404,0.00001031,-0.00000152,0.00001013,0.00000537,0.0000
 0551,0.00000681,0.00003389,-0.00000554,0.00001472,-0.00002842,-0.00012
 139,0.00007713,0.00004151,0.00001647,0.00000084,0.00000989,-0.00000577
 ,-0.00000460,-0.00000338,0.00000847,0.00000669,0.00000375,0.00000544,0
 .00000294,0.00000209,0.00000663,-0.00000215,-0.00000088,-0.00001982,0.
 00001467,-0.00000311,-0.01280069,0.00865859,0.00395922,0.02216209,-0.0
 1096350,-0.00705066,-0.13533062,0.13469491,0.00011085,-0.00118660,0.00
 186139,0.02574584,-0.01784288,-0.00947268,-0.00177983,0.00073588,-0.00
 629372,0.00078582,-0.00085663,-0.00016654,-0.00017316,-0.00012171,0.00
 071083,0.00037066,-0.00014430,-0.00000386,0.00006207,-0.00013002,0.000
 19479,0.00063212,-0.00012127,0.00020620,0.00001378,0.00012707,0.000080
 82,-0.00001888,-0.00005105,-0.00003151,-0.00002710,-0.00004055,-0.0000
 5812,0.00002060,0.00001339,-0.00003915,-0.00044095,0.00018616,0.000494
 47,0.00250629,-0.00088767,0.00086966,-0.00028204,0.00069440,0.00033666
 ,-0.00043799,-0.00017765,-0.00014516,-0.00002824,-0.00003470,-0.000178
 12,0.00001234,0.00003171,-0.00000623,0.00005717,-0.00003356,-0.0000177
 7,-0.00004154,0.00000349,-0.00004366,0.00001962,-0.00000046,0.00000414
 ,0.00000167,-0.00000138,-0.00000038,0.00000964,0.00000681,0.00000501,-
 0.00000930,0.00000315,-0.00000356,0.00002337,0.00000404,-0.00000307,0.
 04291693,-0.02818729,-0.05399241,-0.00039583,-0.00000484,0.00020828,-0
 .00000538,0.00010704,-0.00007495,-0.00023381,0.00083401,-0.00021753,0.
 00002459,0.00002370,-0.00000129,0.00010302,-0.00007323,0.00000256,0.00
 001495,-0.00001323,-0.00002966,0.00000551,0.00000390,0.00001225,0.0000
 1994,0.00000835,0.00005924,0.00002708,-0.00002093,-0.00001455,-0.00000
 554,0.00000776,0.00000843,-0.00000504,0.00000991,0.00000604,0.00000276
 ,-0.00003050,-0.00001235,0.00001393,0.00002581,0.00001009,0.00000694,0
 .00000570,0.00001196,0.00006925,0.00005365,0.00005658,0.00001605,-0.00
 000358,-0.00001876,-0.00000705,-0.00001273,0.00004103,0.00000264,0.000
 02195,0.00001274,-0.00000354,-0.00000653,-0.00000127,0.00000375,0.0000
 0363,0.00000309,0.00000325,0.00000106,0.00000221,0.00000341,-0.0000024
 9,0.00000231,-0.00001147,0.00000292,0.00001298,-0.00919407,0.00765570,
 0.00193092,-0.01165364,0.00576831,0.00239293,-0.04885148,0.03364624,0.
 06128868\\0.00024563,-0.00012023,-0.00179093,0.00068480,0.00109427,-0.
 00039474,0.00702675,0.03098395,0.00120769,0.00356109,-0.00025190,0.000
 83196,0.01375566,-0.01372284,0.00108745,-0.00411527,0.00191933,0.00031
 327,0.00011319,-0.00543212,-0.00063482,-0.02218093,-0.01125237,-0.0011
 2064,-0.00076910,-0.00030080,-0.00276417,0.00091370,0.00034565,0.00050
 663,0.00028387,0.00082961,0.00162713,0.00409384,0.00018558,0.00290412,
 -0.00298685,-0.00030543,-0.00877593,0.00304464,0.03206456,-0.00418146,
 0.01704634,-0.01593685,0.01057107,-0.00134771,-0.00544283,-0.00073537,
 -0.01613281,-0.00965198,-0.00181008,0.00247693,-0.00057433,0.00282722,
 0.00120683,0.00132539,0.00271306,-0.00103182,0.00031571,-0.00181064,0.
 00187194,-0.00260099,-0.00085645,-0.00037264,0.00122355,0.00041367,0.0
 0007729,0.00007710,0.00003152,-0.00045273,0.00021162,0.00004602,0.0005
 9397,0.00040733,0.00003289,-0.00132622,-0.00148666,0.00184235,0.000073
 50,0.00019500,-0.00000523,-0.00048620,-0.00032743,0.00025149,0.0002817
 3,-0.00047564,0.00038711,-0.00111501,-0.00018344,0.00012892,-0.0012873
 7,-0.00025002,-0.00002555,-0.00058380,0.00042838,0.00037891,0.00007671
 ,0.00028778,-0.00046182,-0.00053415,-0.00029049,-0.00127069,-0.0005967
 7,0.00044768,0.00023400,-0.00036177,0.00009244,-0.00032434,0.00037800,
 0.00003052,-0.00021303,-0.00146827,0.00113467,-0.00046975,-0.00186259,
 -0.00382655,-0.00220882,-0.00170615,0.00073322,-0.00028106,0.00060944,
 0.00061896,0.00051120,0.00054080,-0.00141476,0.00075541,-0.00065941,0.
 00123141,-0.00004907,-0.00033603,-0.00126709,-0.00174929,0.00130877,0.
 00046802,0.00068371,0.00031641,0.00002958,0.00015948,-0.00010902,0.000
 12151,0.00002790,0.00000152,0.00001347,0.00007455,-0.00023633,0.000320
 64,0.00028302,-0.00039835,-0.00073215,-0.00061298,0.00155856,-0.000967
 46,0.00233266,0.00031540,-0.00032258,-0.00061754\\\@

 Writing a WFNX file to "04_lig_b.wfx"


 IT IS DOUBTED WHETHER A MAN EVER BRINGS HIS FACULTIES TO BEAR WITH THEIR FULL FORCE
 ON A SUBJECT UNTIL HE WRITES UPON IT.

                          -- CICERO
 Job cpu time:       0 days  5 hours 52 minutes 34.5 seconds.
 Elapsed time:       0 days  0 hours 44 minutes  4.8 seconds.
 File lengths (MBytes):  RWF=   1287 Int=      0 D2E=      0 Chk=     17 Scr=      1
 Normal termination of Gaussian 16 at Thu Nov  3 08:48:26 2022.
