 Entering Gaussian System, Link 0=g16
 Initial command:
 /software/gaussian/G16-A.03/avx/g16/l1.exe "/scratch/lcmd/1361335.slurm/Gau-55461.inp" -scrdir="/scratch/lcmd/1361335.slurm/"
 Entering Link 1 = /software/gaussian/G16-A.03/avx/g16/l1.exe PID=     55464.
  
 Copyright (c) 1988,1990,1992,1993,1995,1998,2003,2009,2016,
            Gaussian, Inc.  All Rights Reserved.
  
 This is part of the Gaussian(R) 16 program.  It is based on
 the Gaussian(R) 09 system (copyright 2009, Gaussian, Inc.),
 the Gaussian(R) 03 system (copyright 2003, Gaussian, Inc.),
 the Gaussian(R) 98 system (copyright 1998, Gaussian, Inc.),
 the Gaussian(R) 94 system (copyright 1995, Gaussian, Inc.),
 the Gaussian 92(TM) system (copyright 1992, Gaussian, Inc.),
 the Gaussian 90(TM) system (copyright 1990, Gaussian, Inc.),
 the Gaussian 88(TM) system (copyright 1988, Gaussian, Inc.),
 the Gaussian 86(TM) system (copyright 1986, Carnegie Mellon
 University), and the Gaussian 82(TM) system (copyright 1983,
 Carnegie Mellon University). Gaussian is a federally registered
 trademark of Gaussian, Inc.
  
 This software contains proprietary and confidential information,
 including trade secrets, belonging to Gaussian, Inc.
  
 This software is provided under written license and may be
 used, copied, transmitted, or stored only in accord with that
 written license.
  
 The following legend is applicable only to US Government
 contracts under FAR:
  
                    RESTRICTED RIGHTS LEGEND
  
 Use, reproduction and disclosure by the US Government is
 subject to restrictions as set forth in subparagraphs (a)
 and (c) of the Commercial Computer Software - Restricted
 Rights clause in FAR 52.227-19.
  
 Gaussian, Inc.
 340 Quinnipiac St., Bldg. 40, Wallingford CT 06492
  
  
 ---------------------------------------------------------------
 Warning -- This program may not be used in any manner that
 competes with the business of Gaussian, Inc. or will provide
 assistance to any competitor of Gaussian, Inc.  The licensee
 of this program is prohibited from giving any competitor of
 Gaussian, Inc. access to this program.  By using this program,
 the user acknowledges that Gaussian, Inc. is engaged in the
 business of creating and licensing software in the field of
 computational chemistry and represents and warrants to the
 licensee that it is not a competitor of Gaussian, Inc. and that
 it will not use this program in any manner prohibited above.
 ---------------------------------------------------------------
  

 Cite this work as:
 Gaussian 16, Revision A.03,
 M. J. Frisch, G. W. Trucks, H. B. Schlegel, G. E. Scuseria, 
 M. A. Robb, J. R. Cheeseman, G. Scalmani, V. Barone, 
 G. A. Petersson, H. Nakatsuji, X. Li, M. Caricato, A. V. Marenich, 
 J. Bloino, B. G. Janesko, R. Gomperts, B. Mennucci, H. P. Hratchian, 
 J. V. Ortiz, A. F. Izmaylov, J. L. Sonnenberg, D. Williams-Young, 
 F. Ding, F. Lipparini, F. Egidi, J. Goings, B. Peng, A. Petrone, 
 T. Henderson, D. Ranasinghe, V. G. Zakrzewski, J. Gao, N. Rega, 
 G. Zheng, W. Liang, M. Hada, M. Ehara, K. Toyota, R. Fukuda, 
 J. Hasegawa, M. Ishida, T. Nakajima, Y. Honda, O. Kitao, H. Nakai, 
 T. Vreven, K. Throssell, J. A. Montgomery, Jr., J. E. Peralta, 
 F. Ogliaro, M. J. Bearpark, J. J. Heyd, E. N. Brothers, K. N. Kudin, 
 V. N. Staroverov, T. A. Keith, R. Kobayashi, J. Normand, 
 K. Raghavachari, A. P. Rendell, J. C. Burant, S. S. Iyengar, 
 J. Tomasi, M. Cossi, J. M. Millam, M. Klene, C. Adamo, R. Cammi, 
 J. W. Ochterski, R. L. Martin, K. Morokuma, O. Farkas, 
 J. B. Foresman, and D. J. Fox, Gaussian, Inc., Wallingford CT, 2016.
 
 ******************************************
 Gaussian 16:  ES64L-G16RevA.03 25-Dec-2016
                 3-Nov-2022 
 ******************************************
 %nprocs=8
 Will use up to    8 processors via shared memory.
 %mem=32000MB
 %chk=05_lig_b.chk
 ----------------------------------------------------------------------
 #p pop=(regular,nbo,savenbos) freq=noraman def2svp empiricaldispersion
 =gd3bj output=wfx pbe1pbe
 ----------------------------------------------------------------------
 1/10=4,30=1,38=1/1,3;
 2/12=2,17=6,18=5,40=1/2;
 3/5=43,7=101,11=2,25=1,30=1,71=2,74=-13,124=41,140=1/1,2,3;
 4//1;
 5/5=2,38=5,98=1/2;
 8/6=4,10=90,11=11/1;
 11/6=1,8=1,9=11,15=111,16=1/1,2,10;
 10/6=1/2;
 6/28=1,40=1,73=1/1,7;
 7/8=1,10=1,25=1/1,2,3,16;
 1/10=4,30=1/3;
 99/6=200/99;
 Leave Link    1 at Thu Nov  3 08:04:19 2022, MaxMem=  4194304000 cpu:               0.5 elap:               0.1
 (Enter /software/gaussian/G16-A.03/avx/g16/l101.exe)
 --------
 05_lig_b
 --------
 Symbolic Z-matrix:
 Charge =  0 Multiplicity = 1
 C                    -1.04476   3.53221   0.76544 
 C                    -0.38297   2.46316  -0.12242 
 C                    -1.45134   1.507    -0.58028 
 N                    -1.54213   0.24665  -0.40418 
 C                    -2.83677  -0.2035   -0.92772 
 H                    -2.63707  -1.06566  -1.582 
 C                    -3.30196   1.02811  -1.71761 
 O                    -2.44592   2.08783  -1.24953 
 C                    -3.78417  -0.66215   0.20883 
 C                    -4.09407   0.48877   1.16732 
 C                    -5.07206  -1.17211  -0.44189 
 C                    -3.13442  -1.80781   0.9885 
 N                     0.98104   0.54013   0.73676 
 C                     0.72229   1.78537   0.63864 
 O                     1.59159   2.61913   1.21353 
 C                     2.51904   1.7971    1.94984 
 C                     2.30778   0.3977    1.36856 
 H                     2.22158  -0.37876   2.14115 
 C                     3.29175  -0.0414    0.30554 
 C                     3.48734  -1.40826   0.08178 
 C                     4.33102  -1.83653  -0.94093 
 C                     4.98528  -0.90848  -1.74901 
 C                     4.78698   0.45517  -1.53711 
 C                     3.94061   0.88601  -0.51787 
 C                     0.26045   3.11535  -1.36452 
 H                    -1.50315   3.07656   1.65542 
 H                    -1.82663   4.05259   0.19787 
 H                    -0.29021   4.25832   1.09364 
 H                    -4.34124   1.32476  -1.53037 
 H                    -3.14423   0.92665  -2.8018 
 H                    -4.76274   0.14199   1.96976 
 H                    -4.5927    1.33654   0.67068 
 H                    -3.17523   0.85955   1.64792 
 H                    -5.77092  -1.53096   0.32878 
 H                    -4.86195  -2.01226  -1.12191 
 H                    -5.5938   -0.38938  -1.01594 
 H                    -3.857    -2.23152   1.70316 
 H                    -2.26146  -1.47508   1.57163 
 H                    -2.786    -2.60867   0.32006 
 H                     2.2432    1.85485   3.01362 
 H                     3.52908   2.19987   1.81086 
 H                     2.94452  -2.13082   0.69816 
 H                     4.47098  -2.9066   -1.10961 
 H                     5.64683  -1.24732  -2.54983 
 H                     5.29204   1.18844  -2.17053 
 H                     3.78519   1.9592   -0.37441 
 H                    -0.51319   3.62253  -1.95589 
 H                     0.74979   2.35632  -1.99237 
 H                     1.01255   3.85072  -1.04895 
 
 ITRead=  0  0  0  0  0  0  0  0  0  0  0  0  0  0  0  0  0  0  0  0
 ITRead=  0  0  0  0  0  0  0  0  0  0  0  0  0  0  0  0  0  0  0  0
 ITRead=  0  0  0  0  0  0  0  0  0
 MicOpt= -1 -1 -1 -1 -1 -1 -1 -1 -1 -1 -1 -1 -1 -1 -1 -1 -1 -1 -1 -1
 MicOpt= -1 -1 -1 -1 -1 -1 -1 -1 -1 -1 -1 -1 -1 -1 -1 -1 -1 -1 -1 -1
 MicOpt= -1 -1 -1 -1 -1 -1 -1 -1 -1
 NAtoms=     49 NQM=       49 NQMF=       0 NMMI=      0 NMMIF=      0
                NMic=       0 NMicF=      0.
                    Isotopes and Nuclear Properties:
 (Nuclear quadrupole moments (NQMom) in fm**2, nuclear magnetic moments (NMagM)
  in nuclear magnetons)

  Atom         1           2           3           4           5           6           7           8           9          10
 IAtWgt=          12          12          12          14          12           1          12          16          12          12
 AtmWgt=  12.0000000  12.0000000  12.0000000  14.0030740  12.0000000   1.0078250  12.0000000  15.9949146  12.0000000  12.0000000
 NucSpn=           0           0           0           2           0           1           0           0           0           0
 AtZEff=  -0.0000000  -0.0000000  -0.0000000  -0.0000000  -0.0000000  -0.0000000  -0.0000000  -0.0000000  -0.0000000  -0.0000000
 NQMom=    0.0000000   0.0000000   0.0000000   2.0440000   0.0000000   0.0000000   0.0000000   0.0000000   0.0000000   0.0000000
 NMagM=    0.0000000   0.0000000   0.0000000   0.4037610   0.0000000   2.7928460   0.0000000   0.0000000   0.0000000   0.0000000
 AtZNuc=   6.0000000   6.0000000   6.0000000   7.0000000   6.0000000   1.0000000   6.0000000   8.0000000   6.0000000   6.0000000

  Atom        11          12          13          14          15          16          17          18          19          20
 IAtWgt=          12          12          14          12          16          12          12           1          12          12
 AtmWgt=  12.0000000  12.0000000  14.0030740  12.0000000  15.9949146  12.0000000  12.0000000   1.0078250  12.0000000  12.0000000
 NucSpn=           0           0           2           0           0           0           0           1           0           0
 AtZEff=  -0.0000000  -0.0000000  -0.0000000  -0.0000000  -0.0000000  -0.0000000  -0.0000000  -0.0000000  -0.0000000  -0.0000000
 NQMom=    0.0000000   0.0000000   2.0440000   0.0000000   0.0000000   0.0000000   0.0000000   0.0000000   0.0000000   0.0000000
 NMagM=    0.0000000   0.0000000   0.4037610   0.0000000   0.0000000   0.0000000   0.0000000   2.7928460   0.0000000   0.0000000
 AtZNuc=   6.0000000   6.0000000   7.0000000   6.0000000   8.0000000   6.0000000   6.0000000   1.0000000   6.0000000   6.0000000

  Atom        21          22          23          24          25          26          27          28          29          30
 IAtWgt=          12          12          12          12          12           1           1           1           1           1
 AtmWgt=  12.0000000  12.0000000  12.0000000  12.0000000  12.0000000   1.0078250   1.0078250   1.0078250   1.0078250   1.0078250
 NucSpn=           0           0           0           0           0           1           1           1           1           1
 AtZEff=  -0.0000000  -0.0000000  -0.0000000  -0.0000000  -0.0000000  -0.0000000  -0.0000000  -0.0000000  -0.0000000  -0.0000000
 NQMom=    0.0000000   0.0000000   0.0000000   0.0000000   0.0000000   0.0000000   0.0000000   0.0000000   0.0000000   0.0000000
 NMagM=    0.0000000   0.0000000   0.0000000   0.0000000   0.0000000   2.7928460   2.7928460   2.7928460   2.7928460   2.7928460
 AtZNuc=   6.0000000   6.0000000   6.0000000   6.0000000   6.0000000   1.0000000   1.0000000   1.0000000   1.0000000   1.0000000

  Atom        31          32          33          34          35          36          37          38          39          40
 IAtWgt=           1           1           1           1           1           1           1           1           1           1
 AtmWgt=   1.0078250   1.0078250   1.0078250   1.0078250   1.0078250   1.0078250   1.0078250   1.0078250   1.0078250   1.0078250
 NucSpn=           1           1           1           1           1           1           1           1           1           1
 AtZEff=  -0.0000000  -0.0000000  -0.0000000  -0.0000000  -0.0000000  -0.0000000  -0.0000000  -0.0000000  -0.0000000  -0.0000000
 NQMom=    0.0000000   0.0000000   0.0000000   0.0000000   0.0000000   0.0000000   0.0000000   0.0000000   0.0000000   0.0000000
 NMagM=    2.7928460   2.7928460   2.7928460   2.7928460   2.7928460   2.7928460   2.7928460   2.7928460   2.7928460   2.7928460
 AtZNuc=   1.0000000   1.0000000   1.0000000   1.0000000   1.0000000   1.0000000   1.0000000   1.0000000   1.0000000   1.0000000

  Atom        41          42          43          44          45          46          47          48          49
 IAtWgt=           1           1           1           1           1           1           1           1           1
 AtmWgt=   1.0078250   1.0078250   1.0078250   1.0078250   1.0078250   1.0078250   1.0078250   1.0078250   1.0078250
 NucSpn=           1           1           1           1           1           1           1           1           1
 AtZEff=  -0.0000000  -0.0000000  -0.0000000  -0.0000000  -0.0000000  -0.0000000  -0.0000000  -0.0000000  -0.0000000
 NQMom=    0.0000000   0.0000000   0.0000000   0.0000000   0.0000000   0.0000000   0.0000000   0.0000000   0.0000000
 NMagM=    2.7928460   2.7928460   2.7928460   2.7928460   2.7928460   2.7928460   2.7928460   2.7928460   2.7928460
 AtZNuc=   1.0000000   1.0000000   1.0000000   1.0000000   1.0000000   1.0000000   1.0000000   1.0000000   1.0000000
 Leave Link  101 at Thu Nov  3 08:04:19 2022, MaxMem=  4194304000 cpu:               0.8 elap:               0.1
 (Enter /software/gaussian/G16-A.03/avx/g16/l103.exe)

 GradGradGradGradGradGradGradGradGradGradGradGradGradGradGradGradGradGrad
 Berny optimization.
 Initialization pass.
 Trust Radius=3.00D-01 FncErr=1.00D-07 GrdErr=1.00D-07 EigMax=2.50D+02 EigMin=1.00D-04
 Number of steps in this run=      2 maximum allowed number of steps=      2.
 GradGradGradGradGradGradGradGradGradGradGradGradGradGradGradGradGradGrad

 Leave Link  103 at Thu Nov  3 08:04:19 2022, MaxMem=  4194304000 cpu:               0.2 elap:               0.0
 (Enter /software/gaussian/G16-A.03/avx/g16/l202.exe)
                          Input orientation:                          
 ---------------------------------------------------------------------
 Center     Atomic      Atomic             Coordinates (Angstroms)
 Number     Number       Type             X           Y           Z
 ---------------------------------------------------------------------
      1          6           0       -1.044760    3.532210    0.765440
      2          6           0       -0.382970    2.463160   -0.122420
      3          6           0       -1.451340    1.507000   -0.580280
      4          7           0       -1.542130    0.246650   -0.404180
      5          6           0       -2.836770   -0.203500   -0.927720
      6          1           0       -2.637070   -1.065660   -1.582000
      7          6           0       -3.301960    1.028110   -1.717610
      8          8           0       -2.445920    2.087830   -1.249530
      9          6           0       -3.784170   -0.662150    0.208830
     10          6           0       -4.094070    0.488770    1.167320
     11          6           0       -5.072060   -1.172110   -0.441890
     12          6           0       -3.134420   -1.807810    0.988500
     13          7           0        0.981040    0.540130    0.736760
     14          6           0        0.722290    1.785370    0.638640
     15          8           0        1.591590    2.619130    1.213530
     16          6           0        2.519040    1.797100    1.949840
     17          6           0        2.307780    0.397700    1.368560
     18          1           0        2.221580   -0.378760    2.141150
     19          6           0        3.291750   -0.041400    0.305540
     20          6           0        3.487340   -1.408260    0.081780
     21          6           0        4.331020   -1.836530   -0.940930
     22          6           0        4.985280   -0.908480   -1.749010
     23          6           0        4.786980    0.455170   -1.537110
     24          6           0        3.940610    0.886010   -0.517870
     25          6           0        0.260450    3.115350   -1.364520
     26          1           0       -1.503150    3.076560    1.655420
     27          1           0       -1.826630    4.052590    0.197870
     28          1           0       -0.290210    4.258320    1.093640
     29          1           0       -4.341240    1.324760   -1.530370
     30          1           0       -3.144230    0.926650   -2.801800
     31          1           0       -4.762740    0.141990    1.969760
     32          1           0       -4.592700    1.336540    0.670680
     33          1           0       -3.175230    0.859550    1.647920
     34          1           0       -5.770920   -1.530960    0.328780
     35          1           0       -4.861950   -2.012260   -1.121910
     36          1           0       -5.593800   -0.389380   -1.015940
     37          1           0       -3.857000   -2.231520    1.703160
     38          1           0       -2.261460   -1.475080    1.571630
     39          1           0       -2.786000   -2.608670    0.320060
     40          1           0        2.243200    1.854850    3.013620
     41          1           0        3.529080    2.199870    1.810860
     42          1           0        2.944520   -2.130820    0.698160
     43          1           0        4.470980   -2.906600   -1.109610
     44          1           0        5.646830   -1.247320   -2.549830
     45          1           0        5.292040    1.188440   -2.170530
     46          1           0        3.785190    1.959200   -0.374410
     47          1           0       -0.513190    3.622530   -1.955890
     48          1           0        0.749790    2.356320   -1.992370
     49          1           0        1.012550    3.850720   -1.048950
 ---------------------------------------------------------------------
                    Distance matrix (angstroms):
                    1          2          3          4          5
     1  C    0.000000
     2  C    1.539198   0.000000
     3  C    2.465308   1.505089   0.000000
     4  N    3.522824   2.517133   1.275828   0.000000
     5  C    4.475893   3.712239   2.228439   1.467250   0.000000
     6  H    5.402438   4.434401   3.004659   2.075647   1.100583
     7  C    4.187004   3.622775   2.224331   2.330832   1.535315
     8  O    2.847734   2.380549   1.332084   2.218422   2.346597
     9  C    5.040520   4.630923   3.281768   2.495685   1.549088
    10  C    4.326930   4.397034   3.327900   3.006764   2.539534
    11  C    6.309312   5.941785   4.506262   3.804564   2.484101
    12  C    5.738663   5.200558   4.035071   2.948856   2.516805
    13  N    3.613479   2.509334   2.930171   2.784647   4.230739
    14  C    2.487970   1.503400   2.507573   2.929630   4.367608
    15  O    2.825746   2.389137   3.703243   4.250394   5.671205
    16  C    4.136917   3.627611   4.716946   4.943522   6.400582
    17  C    4.629085   3.705305   4.377157   4.241135   5.665751
    18  H    5.277996   4.470340   4.944958   4.586432   5.919086
    19  C    5.638042   4.467610   5.067457   4.894187   6.253476
    20  C    6.739107   5.478037   5.773008   5.316997   6.516510
    21  C    7.786789   6.432651   6.689166   6.254729   7.351474
    22  C    7.899593   6.544605   6.973561   6.763873   7.896580
    23  C    6.984204   5.723788   6.398321   6.433090   7.676377
    24  C    5.788193   4.619213   5.427951   5.521064   6.876619
    25  C    2.532602   1.543423   2.476297   3.521504   4.560519
    26  H    1.099910   2.189013   2.732134   3.500266   4.382915
    27  H    1.097384   2.170951   2.688194   3.863753   4.516817
    28  H    1.097405   2.170255   3.423448   4.461420   5.520752
    29  H    4.583706   4.352721   3.047524   3.204004   2.227599
    30  H    4.891004   4.143006   2.852689   2.962719   2.209965
    31  H    5.173718   5.380282   4.396740   4.002359   3.496300
    32  H    4.173467   4.429459   3.385572   3.413087   2.830176
    33  H    3.529984   3.674559   2.890651   2.693284   2.806876
    34  H    6.939953   6.722096   5.358578   4.645406   3.456903
    35  H    6.991007   6.410119   4.930600   4.079095   2.722256
    36  H    6.264659   6.007338   4.576683   4.146663   2.764697
    37  H    6.481404   6.118958   4.997783   3.992597   3.474948
    38  H    5.215674   4.680626   3.765609   2.717649   2.862630
    39  H    6.398491   5.629725   4.419352   3.197591   2.710051
    40  H    4.321867   4.135403   5.165921   5.347559   6.751079
    41  H    4.877299   4.371616   5.567962   5.868445   7.334852
    42  H    6.927394   5.731509   5.847369   5.195916   6.307247
    43  H    8.683172   7.305457   7.404994   6.826281   7.793782
    44  H    8.866358   7.484549   7.864440   7.649634   8.700130
    45  H    7.366696   6.166474   6.935672   7.121295   8.340241
    46  H    5.205962   4.206071   5.260049   5.595896   6.988117
    47  H    2.774232   2.173179   2.692192   3.855267   4.592893
    48  H    3.494087   2.188898   2.749603   3.496563   4.533163
    49  H    2.761518   2.175145   3.432700   4.464464   5.591839
                    6          7          8          9         10
     6  H    0.000000
     7  C    2.200987   0.000000
     8  O    3.176724   1.440455   0.000000
     9  C    2.164655   2.607811   3.388232   0.000000
    10  C    3.478198   3.039925   3.333850   1.529496   0.000000
    11  C    2.690791   3.098658   4.263344   1.530411   2.510885
    12  C    2.721326   3.923461   4.545198   1.530555   2.495433
    13  N    4.587584   4.960458   4.252620   4.942814   5.093600
    14  C    4.934057   4.724399   3.700571   5.146190   5.015775
    15  O    6.266916   5.921972   4.759247   6.377697   6.071845
    16  C    6.874210   6.922830   5.913655   6.986378   6.786552
    17  C    5.941277   6.433587   5.684065   6.291273   6.405660
    18  H    6.159558   6.883226   6.274260   6.315315   6.448906
    19  C    6.305777   6.979541   6.314485   7.103754   7.454803
    20  C    6.355622   7.434265   7.014172   7.310792   7.890177
    21  C    7.039850   8.189736   7.837267   8.279941   8.990766
    22  C    7.625799   8.510565   8.028081   8.988719   9.638044
    23  C    7.578355   8.111214   7.420453   8.818238   9.283756
    24  C    6.943145   7.342642   6.539684   7.911834   8.219109
    25  C    5.091539   4.143912   2.897147   5.753598   5.680755
    26  H    5.378164   4.336957   3.210161   4.612334   3.694288
    27  H    5.479164   3.872098   2.517691   5.104983   4.333812
    28  H    6.404027   5.235267   3.853383   6.099317   5.355771
    29  H    2.936149   1.096888   2.062374   2.698695   2.835049
    30  H    2.390486   1.100291   2.060465   3.463770   4.104613
    31  H    4.311831   4.063962   4.417893   2.169128   1.100584
    32  H    3.830094   2.732228   2.976627   2.204946   1.101815
    33  H    3.798478   3.372131   3.230446   2.181137   1.101236
    34  H    3.699811   4.102720   5.161621   2.171726   2.755773
    35  H    2.461265   3.468757   4.760696   2.180659   3.476401
    36  H    3.085455   2.784627   4.012516   2.202096   2.790513
    37  H    3.693201   4.757618   5.419069   2.168236   2.782679
    38  H    3.202201   4.262359   4.548329   2.199256   2.716364
    39  H    2.453751   4.200534   4.963505   2.190355   3.467424
    40  H    7.312054   7.335996   6.341654   7.108539   6.740622
    41  H    7.758646   7.777289   6.714102   8.015066   7.839287
    42  H    6.122732   7.404951   7.116695   6.904470   7.524899
    43  H    7.357757   8.733281   8.532726   8.655827   9.490681
    44  H    8.342224   9.270977   8.849102   9.843596  10.569595
    45  H    8.264268   8.607420   7.844308   9.563662   9.986483
    46  H    7.200936   7.273157   6.293577   8.031616   8.162220
    47  H    5.160406   3.816416   2.567040   5.808942   5.691888
    48  H    4.832098   4.272741   3.291878   5.874797   6.077365
    49  H    6.146109   5.198964   3.887033   6.704963   6.503240
                   11         12         13         14         15
    11  C    0.000000
    12  C    2.490899   0.000000
    13  N    6.400078   4.744808   0.000000
    14  C    6.594598   5.282760   1.275618   0.000000
    15  O    7.843351   6.479476   2.218631   1.334667   0.000000
    16  C    8.494785   6.773563   2.327441   2.224341   1.441544
    17  C    7.759128   5.884408   1.476380   2.229841   2.339169
    18  H    7.778090   5.661936   2.087010   3.031314   3.200736
    19  C    8.472926   6.699425   2.421468   3.170200   3.285333
    20  C    8.578655   6.695483   3.241414   4.260853   4.592885
    21  C    9.439725   7.710792   4.436837   5.351274   5.656773
    22  C   10.145351   8.615816   4.930665   5.579497   5.721696
    23  C   10.052274   8.616749   4.434285   4.798440   4.739120
    24  C    9.244991   7.718929   3.233077   3.536092   3.394016
    25  C    6.904290   6.426457   3.400939   2.448427   2.943554
    26  H    5.931865   5.192581   3.667235   2.766513   3.159418
    27  H    6.183817   6.056377   4.528884   3.439703   3.843254
    28  H    7.396858   6.700636   3.945678   2.710657   2.498497
    29  H    2.820150   4.196917   5.837995   5.527757   6.663547
    30  H    3.700067   4.673729   5.448730   5.246332   6.435476
    31  H    2.763801   2.723237   5.888108   5.878617   6.861896
    32  H    2.785843   3.480593   5.630738   5.334004   6.339177
    33  H    3.477486   2.747965   4.266945   4.131156   5.099744
    34  H    1.100505   2.731851   7.074237   7.297659   8.497799
    35  H    1.101102   2.734957   6.641527   6.978916   8.279628
    36  H    1.102004   3.475381   6.867639   6.881872   8.102561
    37  H    2.683274   1.101086   5.658852   6.183729   7.311339
    38  H    3.470667   1.101276   3.907926   4.517053   5.633541
    39  H    2.805413   1.099811   4.927390   5.631801   6.876880
    40  H    8.638059   6.814322   2.916441   2.821086   2.061321
    41  H    9.509192   7.819208   3.225048   3.069850   2.070374
    42  H    8.153796   6.094436   3.315225   4.503154   4.965687
    43  H    9.722341   7.965646   5.241060   6.254889   6.649929
    44  H   10.924453   9.483896   5.980489   6.604138   6.749614
    45  H   10.769167   9.484841   5.239977   5.397256   5.214601
    46  H    9.394708   7.995554   3.333424   3.230765   2.787282
    47  H    6.787051   6.710356   4.357095   3.410741   3.934734
    48  H    6.981958   6.427492   3.286362   2.692388   3.324980
    49  H    7.913269   7.305308   3.761617   2.682887   2.640249
                   16         17         18         19         20
    16  C    0.000000
    17  C    1.529980   0.000000
    18  H    2.204416   1.098734   0.000000
    19  C    2.584741   1.513611   2.151404   0.000000
    20  C    3.834265   2.511704   2.627361   1.398796   0.000000
    21  C    4.984284   3.797240   4.009245   2.419971   1.393250
    22  C    5.204228   4.312117   4.801248   2.800187   2.417725
    23  C    4.370715   3.820033   4.561394   2.424387   2.789667
    24  C    2.990073   2.542282   3.409559   1.399683   2.414272
    25  C    4.221847   4.364276   5.323961   4.684330   5.741746
    26  H    4.231042   4.667094   5.103801   5.876642   6.891658
    27  H    5.200142   5.641106   6.308820   6.555163   7.620540
    28  H    3.831784   4.661493   5.376698   5.651472   6.885047
    29  H    7.707036   7.312503   7.710554   7.968657   8.447194
    30  H    7.443681   6.884483   7.411394   7.212109   7.598984
    31  H    7.467537   7.100640   7.005803   8.226668   8.604160
    32  H    7.240526   6.998934   7.179063   8.012278   8.553816
    33  H    5.778829   5.509514   5.558979   6.665998   7.210104
    34  H    9.078946   8.370559   8.276008   9.184297   9.262367
    35  H    8.855839   7.963377   7.968204   8.509097   8.457206
    36  H    8.910371   8.290977   8.428968   8.990017   9.203815
    37  H    7.546159   6.710385   6.369748   7.606221   7.566106
    38  H    5.805462   4.942317   4.650152   5.873378   5.939092
    39  H    7.085933   6.007013   5.776221   6.597737   6.391600
    40  H    1.100477   2.198563   2.398059   3.468273   4.559765
    41  H    1.096230   2.221490   2.909979   2.710278   4.001258
    42  H    4.144429   2.692264   2.382137   2.154158   1.093924
    43  H    5.940968   4.662527   4.692251   3.406260   2.152204
    44  H    6.268859   5.404547   5.872991   3.892786   3.408030
    45  H    5.003743   4.696407   5.520365   3.412417   3.882357
    46  H    2.651707   2.767484   3.773457   2.169842   3.411248
    47  H    5.270801   5.423040   6.346261   5.745957   6.742788
    48  H    4.357062   4.190391   5.170379   4.182226   5.095914
    49  H    3.934413   4.409685   5.433875   4.709352   5.921149
                   21         22         23         24         25
    21  C    0.000000
    22  C    1.393674   0.000000
    23  C    2.411477   1.394190   0.000000
    24  C    2.782737   2.413967   1.393132   0.000000
    25  C    6.424180   6.217963   5.253172   4.385242   0.000000
    26  H    8.057110   8.340888   7.525269   6.257493   3.497403
    27  H    8.596235   8.648970   7.726022   6.618200   2.770448
    28  H    7.914698   7.912476   6.867507   5.645288   2.766253
    29  H    9.249286   9.592661   9.169549   8.355040   4.940574
    30  H    8.183970   8.400298   8.045236   7.443987   4.295117
    31  H    9.751058  10.486021  10.178083   9.082410   6.722405
    32  H    9.607208  10.130781   9.676236   8.627457   5.555112
    33  H    8.385391   9.014377   8.585146   7.438180   5.095815
    34  H   10.186006  10.972718  10.903922  10.043524   7.799544
    35  H    9.196430   9.928722   9.968072   9.287082   7.251912
    36  H   10.030051  10.617146  10.428110   9.632220   6.832048
    37  H    8.613414   9.584040   9.614366   8.686466   7.413034
    38  H    7.064304   7.991428   7.941702   6.957473   6.004420
    39  H    7.268994   8.219762   8.377722   7.626414   6.699483
    40  H    5.798598   6.151231   5.398061   4.036245   4.968729
    41  H    4.950554   4.945203   3.979346   2.705285   4.648127
    42  H    2.166934   3.412837   3.883096   3.401792   6.243491
    43  H    1.092287   2.160051   3.403544   3.874963   7.352375
    44  H    2.160343   1.092599   2.159494   3.404577   7.032136
    45  H    3.403809   2.160753   1.092699   2.156180   5.447892
    46  H    3.876395   3.399019   2.148851   1.093834   3.839374
    47  H    7.368708   7.127834   6.188647   5.421511   1.097938
    48  H    5.613442   5.353272   4.485592   3.810157   1.099898
    49  H    6.585493   6.238802   5.100430   4.200606   1.098184
                   26         27         28         29         30
    26  H    0.000000
    27  H    1.783739   0.000000
    28  H    1.784202   1.790339   0.000000
    29  H    4.612246   4.092815   5.648190   0.000000
    30  H    5.213642   4.528310   5.866848   1.791050   0.000000
    31  H    4.397208   5.201262   6.141277   3.718537   5.099319
    32  H    3.680041   3.905332   5.217961   2.215399   3.784731
    33  H    2.776876   3.757243   4.492461   3.417240   4.450334
    34  H    6.418962   6.837440   8.008680   3.695343   4.768635
    35  H    6.700089   6.909225   8.070294   3.402011   3.796022
    36  H    5.990185   5.949454   7.360673   2.184450   3.304788
    37  H    5.806772   6.773355   7.430446   4.830873   5.547679
    38  H    4.615136   5.712393   6.081626   4.667654   5.066999
    39  H    5.979191   6.731100   7.347309   4.616788   4.729992
    40  H    4.168024   5.414982   3.985117   8.017711   7.981545
    41  H    5.110390   5.892193   4.397567   8.594857   8.211625
    42  H    6.914833   7.826156   7.172238   8.365983   7.659681
    43  H    8.895719   9.476271   8.880277   9.784512   8.691878
    44  H    9.354265   9.565119   8.878930  10.364190   9.059380
    45  H    8.023559   8.030451   7.158246   9.655489   8.463905
    46  H    5.773668   6.016836   4.904081   8.232717   7.414529
    47  H    3.784133   2.559054   3.123073   4.484951   3.860791
    48  H    4.347511   3.783176   3.771294   5.214992   4.226408
    49  H    3.773816   3.107451   2.540475   5.939302   5.376010
                   31         32         33         34         35
    31  H    0.000000
    32  H    1.772984   0.000000
    33  H    1.771627   1.786544   0.000000
    34  H    2.551079   3.118919   3.767264   0.000000
    35  H    3.769491   3.807931   4.331775   1.778308   0.000000
    36  H    3.144427   2.612602   3.808603   1.772808   1.783416
    37  H    2.554406   3.786598   3.165845   2.458210   3.006496
    38  H    3.004967   3.761861   2.508245   3.723454   3.782363
    39  H    3.767644   4.353364   3.734068   3.173528   2.597027
    40  H    7.287436   7.244829   5.675838   9.104845   9.085169
    41  H    8.544846   8.246736   6.838917  10.129445   9.836288
    42  H    8.135385   8.296567   6.877187   8.743865   8.016713
    43  H   10.199902  10.164840   8.958370  10.433497   9.375691
    44  H   11.433111  11.040652   9.994436  11.778449  10.632899
    45  H   10.924086  10.286034   9.294267  11.663223  10.698018
    46  H    9.047900   8.465752   7.331200  10.197791   9.544856
    47  H    6.751560   5.363490   5.263835   7.708560   7.166456
    48  H    7.140709   6.055905   5.558580   7.938409   7.164762
    49  H    7.498084   6.379424   5.810138   8.767901   8.299976
                   36         37         38         39         40
    36  H    0.000000
    37  H    3.715301   0.000000
    38  H    4.356461   1.770664   0.000000
    39  H    3.820194   1.789483   1.768218   0.000000
    40  H    9.093541   7.458429   5.784439   7.243696   0.000000
    41  H    9.895552   8.614116   6.862422   8.076186   1.794201
    42  H    8.881084   6.876106   5.319321   5.762826   4.662485
    43  H   10.375209   8.816046   7.386748   7.402464   6.680976
    44  H   11.377198  10.458459   8.920726   9.011224   7.222197
    45  H   11.060023  10.507451   8.840445   9.266920   6.051028
    46  H    9.689832   8.959994   7.221034   8.032949   3.723892
    47  H    6.541523   7.670698   6.440922   7.012380   5.951337
    48  H    6.980932   7.478485   6.037330   6.519223   5.248017
    49  H    7.850057   8.263188   6.778697   7.617538   4.690679
                   41         42         43         44         45
    41  H    0.000000
    42  H    4.509400   0.000000
    43  H    5.957546   2.489969   0.000000
    44  H    5.948412   4.316537   2.492001   0.000000
    45  H    4.470177   4.975713   4.309181   2.490516   0.000000
    46  H    2.213350   4.311078   4.968585   4.298828   2.467937
    47  H    5.705464   7.218087   8.257583   7.874900   6.298536
    48  H    4.713119   5.673642   6.505755   6.105570   4.693370
    49  H    4.151716   6.524088   7.591165   7.051185   5.163304
                   46         47         48         49
    46  H    0.000000
    47  H    4.872763   0.000000
    48  H    3.462535   1.788781   0.000000
    49  H    3.423505   1.789551   1.786705   0.000000
 Stoichiometry    C19H26N2O2
 Framework group  C1[X(C19H26N2O2)]
 Deg. of freedom   141
 Full point group                 C1      NOp   1
 Largest Abelian subgroup         C1      NOp   1
 Largest concise Abelian subgroup C1      NOp   1
                         Standard orientation:                         
 ---------------------------------------------------------------------
 Center     Atomic      Atomic             Coordinates (Angstroms)
 Number     Number       Type             X           Y           Z
 ---------------------------------------------------------------------
      1          6           0        1.091634    2.930621   -0.463554
      2          6           0        0.404875    1.766431    0.272757
      3          6           0        1.457976    0.753407    0.633386
      4          7           0        1.546364   -0.476737    0.306785
      5          6           0        2.826743   -0.997285    0.799210
      6          1           0        2.608196   -1.931212    1.338932
      7          6           0        3.280363    0.125241    1.743326
      8          8           0        2.440282    1.240664    1.389762
      9          6           0        3.796939   -1.321236   -0.364168
     10          6           0        4.133883   -0.064474   -1.168144
     11          6           0        5.067435   -1.916597    0.247012
     12          6           0        3.159009   -2.358283   -1.291625
     13          7           0       -0.949244   -0.026985   -0.843835
     14          6           0       -0.686520    1.194982   -0.588936
     15          8           0       -1.538606    2.099258   -1.076347
     16          6           0       -2.453511    1.380266   -1.927258
     17          6           0       -2.262265   -0.081137   -1.516694
     18          1           0       -2.162748   -0.758267   -2.376233
     19          6           0       -3.271873   -0.638971   -0.536628
     20          6           0       -3.479238   -2.021370   -0.485612
     21          6           0       -4.347640   -2.564618    0.458796
     22          6           0       -5.015101   -1.736994    1.359829
     23          6           0       -4.805308   -0.359248    1.320248
     24          6           0       -3.934281    0.186108    0.379655
     25          6           0       -0.262805    2.267270    1.571031
     26          1           0        1.567465    2.583349   -1.392418
     27          1           0        1.863250    3.371910    0.179972
     28          1           0        0.348230    3.697100   -0.716845
     29          1           0        4.325029    0.434509    1.616094
     30          1           0        3.097996   -0.106410    2.803383
     31          1           0        4.818533   -0.315979   -1.992332
     32          1           0        4.625552    0.712576   -0.561142
     33          1           0        3.227852    0.369175   -1.619561
     34          1           0        5.781498   -2.184185   -0.546474
     35          1           0        4.838017   -2.831736    0.814738
     36          1           0        5.580156   -1.213713    0.923387
     37          1           0        3.895213   -2.697256   -2.036938
     38          1           0        2.300941   -1.950253   -1.848437
     39          1           0        2.791772   -3.231952   -0.733570
     40          1           0       -2.153739    1.565139   -2.969855
     41          1           0       -3.464371    1.770840   -1.761928
     42          1           0       -2.926433   -2.667554   -1.173742
     43          1           0       -4.496676   -3.646163    0.492574
     44          1           0       -5.696027   -2.165834    2.098890
     45          1           0       -5.320689    0.295199    2.027406
     46          1           0       -3.770335    1.267556    0.371616
     47          1           0        0.499986    2.692620    2.236385
     48          1           0       -0.769811    1.441148    2.090881
     49          1           0       -1.003995    3.041381    1.331455
 ---------------------------------------------------------------------
 Rotational constants (GHZ):           0.4322590           0.1494856           0.1335149
 Leave Link  202 at Thu Nov  3 08:04:19 2022, MaxMem=  4194304000 cpu:               0.1 elap:               0.0
 (Enter /software/gaussian/G16-A.03/avx/g16/l301.exe)
 Standard basis: def2SVP (5D, 7F)
 Ernie: Thresh=  0.10000D-02 Tol=  0.10000D-05 Strict=F.
 There are   475 symmetry adapted cartesian basis functions of A   symmetry.
 There are   452 symmetry adapted basis functions of A   symmetry.
   452 basis functions,   757 primitive gaussians,   475 cartesian basis functions
    85 alpha electrons       85 beta electrons
       nuclear repulsion energy      2009.5087640572 Hartrees.
 IExCor= 1009 DFT=T Ex+Corr=PBE1PBE ExCW=0 ScaHFX=  0.250000
 ScaDFX=  0.750000  0.750000  1.000000  1.000000 ScalE2=  1.000000  1.000000
 IRadAn=      5 IRanWt=     -1 IRanGd=            0 ICorTp=0 IEmpDi=141
 NAtoms=   49 NActive=   49 NUniq=   49 SFac= 1.00D+00 NAtFMM=   60 NAOKFM=F Big=F
 Integral buffers will be    131072 words long.
 Raffenetti 2 integral format.
 Two-electron integral symmetry is turned on.
 R6Disp:  Grimme-D3(BJ) Dispersion energy=       -0.0544461902 Hartrees.
 Nuclear repulsion after empirical dispersion term =     2009.4543178670 Hartrees.
 Leave Link  301 at Thu Nov  3 08:04:19 2022, MaxMem=  4194304000 cpu:               0.5 elap:               0.1
 (Enter /software/gaussian/G16-A.03/avx/g16/l302.exe)
 NPDir=0 NMtPBC=     1 NCelOv=     1 NCel=       1 NClECP=     1 NCelD=      1
         NCelK=      1 NCelE2=     1 NClLst=     1 CellRange=     0.0.
 One-electron integrals computed using PRISM.
 One-electron integral symmetry used in STVInt
   1 Symmetry operations used in ECPInt.
 ECPInt:  NShTT=   23436 NPrTT=   82998 LenC2=   20736 LenP2D=   50702.
 LDataN:  DoStor=T MaxTD1= 4 Len=   56
 NBasis=   452 RedAO= T EigKep=  2.86D-04  NBF=   452
 NBsUse=   452 1.00D-06 EigRej= -1.00D+00 NBFU=   452
 Precomputing XC quadrature grid using
 IXCGrd= 4 IRadAn=           5 IRanWt=          -1 IRanGd=           0 AccXCQ= 0.00D+00.
 Generated NRdTot=       0 NPtTot=           0 NUsed=           0 NTot=          32
 NSgBfM=   472   472   472   472   472 MxSgAt=    49 MxSgA2=    49.
 Leave Link  302 at Thu Nov  3 08:04:20 2022, MaxMem=  4194304000 cpu:               8.3 elap:               1.1
 (Enter /software/gaussian/G16-A.03/avx/g16/l303.exe)
 DipDrv:  MaxL=1.
 Leave Link  303 at Thu Nov  3 08:04:20 2022, MaxMem=  4194304000 cpu:               0.6 elap:               0.1
 (Enter /software/gaussian/G16-A.03/avx/g16/l401.exe)
 ExpMin= 1.22D-01 ExpMax= 2.27D+03 ExpMxC= 3.41D+02 IAcc=3 IRadAn=         5 AccDes= 0.00D+00
 Harris functional with IExCor= 1009 and IRadAn=       5 diagonalized for initial guess.
 HarFok:  IExCor= 1009 AccDes= 0.00D+00 IRadAn=         5 IDoV= 1 UseB2=F ITyADJ=14
 ICtDFT=  3500011 ScaDFX=  1.000000  1.000000  1.000000  1.000000
 FoFCou: FMM=F IPFlag=           0 FMFlag=      100000 FMFlg1=           0
         NFxFlg=           0 DoJE=T BraDBF=F KetDBF=T FulRan=T
         wScrn=  0.000000 ICntrl=       500 IOpCl=  0 I1Cent=   200000004 NGrid=           0
         NMat0=    1 NMatS0=      1 NMatT0=    0 NMatD0=    1 NMtDS0=    0 NMtDT0=    0
 Petite list used in FoFCou.
 Harris En= -998.042226666068    
 JPrj=0 DoOrth=F DoCkMO=F.
 Leave Link  401 at Thu Nov  3 08:04:26 2022, MaxMem=  4194304000 cpu:              44.2 elap:               5.5
 (Enter /software/gaussian/G16-A.03/avx/g16/l502.exe)
 Integral symmetry usage will be decided dynamically.
 Closed shell SCF:
 Using DIIS extrapolation, IDIIS=  1040.
 NGot=  4194304000 LenX=  4193843741 LenY=  4193617641
 Requested convergence on RMS density matrix=1.00D-08 within 128 cycles.
 Requested convergence on MAX density matrix=1.00D-06.
 Requested convergence on             energy=1.00D-06.
 No special actions if energy rises.
 Fock matrices will be formed incrementally for  20 cycles.
 Integral accuracy reduced to 1.0D-05 until final iterations.

 Cycle   1  Pass 0  IDiag  1:
 FoFJK:  IHMeth= 1 ICntrl=       0 DoSepK=F KAlg= 0 I1Cent=           0 FoldK=F
 IRaf= 810000000 NMat=       1 IRICut=       1 DoRegI=T DoRafI=F ISym2E= 0 IDoP0=0 IntGTp=1.
 FoFCou: FMM=F IPFlag=           0 FMFlag=      100000 FMFlg1=           0
         NFxFlg=           0 DoJE=F BraDBF=F KetDBF=F FulRan=T
         wScrn=  0.000000 ICntrl=         0 IOpCl=  0 I1Cent=           0 NGrid=           0
         NMat0=    1 NMatS0=      1 NMatT0=    0 NMatD0=    1 NMtDS0=    0 NMtDT0=    0
 Symmetry not used in FoFCou.
 E= -997.294531053142    
 DIIS: error= 3.03D-02 at cycle   1 NSaved=   1.
 NSaved= 1 IEnMin= 1 EnMin= -997.294531053142     IErMin= 1 ErrMin= 3.03D-02
 ErrMax= 3.03D-02  0.00D+00 EMaxC= 1.00D-01 BMatC= 4.54D-01 BMatP= 4.54D-01
 IDIUse=3 WtCom= 6.97D-01 WtEn= 3.03D-01
 Coeff-Com:  0.100D+01
 Coeff-En:   0.100D+01
 Coeff:      0.100D+01
 Gap=     0.264 Goal=   None    Shift=    0.000
 GapD=    0.264 DampG=1.000 DampE=0.500 DampFc=0.5000 IDamp=-1.
 Damping current iteration by 5.00D-01
 RMSDP=4.35D-03 MaxDP=2.47D-01              OVMax= 2.01D-01

 Cycle   2  Pass 0  IDiag  1:
 RMSU=  2.15D-03    CP:  9.80D-01
 E= -997.506558082283     Delta-E=       -0.212027029140 Rises=F Damp=T
 DIIS: error= 6.78D-03 at cycle   2 NSaved=   2.
 NSaved= 2 IEnMin= 2 EnMin= -997.506558082283     IErMin= 2 ErrMin= 6.78D-03
 ErrMax= 6.78D-03  0.00D+00 EMaxC= 1.00D-01 BMatC= 3.54D-02 BMatP= 4.54D-01
 IDIUse=3 WtCom= 9.32D-01 WtEn= 6.78D-02
 Coeff-Com:  0.813D-01 0.919D+00
 Coeff-En:   0.127D+00 0.873D+00
 Coeff:      0.844D-01 0.916D+00
 Gap=     0.274 Goal=   None    Shift=    0.000
 RMSDP=1.38D-03 MaxDP=5.47D-02 DE=-2.12D-01 OVMax= 2.04D-01

 Cycle   3  Pass 0  IDiag  1:
 RMSU=  1.31D-03    CP:  9.66D-01  8.26D-01
 E= -997.743274824726     Delta-E=       -0.236716742444 Rises=F Damp=F
 DIIS: error= 1.27D-02 at cycle   3 NSaved=   3.
 NSaved= 3 IEnMin= 3 EnMin= -997.743274824726     IErMin= 2 ErrMin= 6.78D-03
 ErrMax= 1.27D-02  0.00D+00 EMaxC= 1.00D-01 BMatC= 4.91D-02 BMatP= 3.54D-02
 IDIUse=2 WtCom= 0.00D+00 WtEn= 1.00D+00
 Coeff-En:   0.000D+00 0.000D+00 0.100D+01
 Coeff:      0.000D+00 0.000D+00 0.100D+01
 Gap=     0.235 Goal=   None    Shift=    0.000
 RMSDP=1.97D-03 MaxDP=1.34D-01 DE=-2.37D-01 OVMax= 2.14D-01

 Cycle   4  Pass 0  IDiag  1:
 RMSU=  1.14D-03    CP:  9.75D-01  1.31D+00  7.43D-02
 E= -997.562963910785     Delta-E=        0.180310913941 Rises=F Damp=F
 DIIS: error= 2.70D-02 at cycle   4 NSaved=   4.
 NSaved= 4 IEnMin= 3 EnMin= -997.743274824726     IErMin= 2 ErrMin= 6.78D-03
 ErrMax= 2.70D-02  0.00D+00 EMaxC= 1.00D-01 BMatC= 2.50D-01 BMatP= 3.54D-02
 IDIUse=2 WtCom= 0.00D+00 WtEn= 1.00D+00
 Coeff-En:   0.000D+00 0.000D+00 0.780D+00 0.220D+00
 Coeff:      0.000D+00 0.000D+00 0.780D+00 0.220D+00
 Gap=     0.217 Goal=   None    Shift=    0.000
 RMSDP=1.08D-03 MaxDP=8.73D-02 DE= 1.80D-01 OVMax= 1.12D-01

 Cycle   5  Pass 0  IDiag  1:
 RMSU=  1.69D-04    CP:  9.70D-01  1.03D+00  5.50D-01  4.73D-01
 E= -997.771819196644     Delta-E=       -0.208855285859 Rises=F Damp=F
 DIIS: error= 7.49D-03 at cycle   5 NSaved=   5.
 NSaved= 5 IEnMin= 5 EnMin= -997.771819196644     IErMin= 2 ErrMin= 6.78D-03
 ErrMax= 7.49D-03  0.00D+00 EMaxC= 1.00D-01 BMatC= 1.79D-02 BMatP= 3.54D-02
 IDIUse=3 WtCom= 9.25D-01 WtEn= 7.49D-02
 Coeff-Com:  0.582D-04 0.108D-01 0.292D+00-0.829D-01 0.780D+00
 Coeff-En:   0.000D+00 0.000D+00 0.314D+00 0.000D+00 0.686D+00
 Coeff:      0.539D-04 0.100D-01 0.294D+00-0.767D-01 0.773D+00
 Gap=     0.233 Goal=   None    Shift=    0.000
 RMSDP=3.64D-04 MaxDP=2.48D-02 DE=-2.09D-01 OVMax= 4.10D-02

 Cycle   6  Pass 0  IDiag  1:
 RMSU=  4.52D-05    CP:  9.68D-01  9.42D-01  7.22D-01  2.92D-01  8.76D-01
 E= -997.787781363561     Delta-E=       -0.015962166917 Rises=F Damp=F
 DIIS: error= 2.71D-04 at cycle   6 NSaved=   6.
 NSaved= 6 IEnMin= 6 EnMin= -997.787781363561     IErMin= 6 ErrMin= 2.71D-04
 ErrMax= 2.71D-04  0.00D+00 EMaxC= 1.00D-01 BMatC= 5.18D-05 BMatP= 1.79D-02
 IDIUse=3 WtCom= 9.97D-01 WtEn= 2.71D-03
 Coeff-Com: -0.107D-02 0.274D-02 0.117D+00-0.592D-01 0.418D+00 0.523D+00
 Coeff-En:   0.000D+00 0.000D+00 0.000D+00 0.000D+00 0.000D+00 0.100D+01
 Coeff:     -0.106D-02 0.273D-02 0.116D+00-0.591D-01 0.417D+00 0.524D+00
 Gap=     0.232 Goal=   None    Shift=    0.000
 RMSDP=2.38D-05 MaxDP=1.38D-03 DE=-1.60D-02 OVMax= 2.04D-03

 Cycle   7  Pass 0  IDiag  1:
 RMSU=  1.32D-05    CP:  9.68D-01  9.46D-01  7.19D-01  2.95D-01  8.94D-01
                    CP:  6.18D-01
 E= -997.787829488256     Delta-E=       -0.000048124694 Rises=F Damp=F
 DIIS: error= 9.86D-05 at cycle   7 NSaved=   7.
 NSaved= 7 IEnMin= 7 EnMin= -997.787829488256     IErMin= 7 ErrMin= 9.86D-05
 ErrMax= 9.86D-05  0.00D+00 EMaxC= 1.00D-01 BMatC= 4.84D-06 BMatP= 5.18D-05
 IDIUse=1 WtCom= 1.00D+00 WtEn= 0.00D+00
 Coeff-Com: -0.585D-03 0.853D-03 0.513D-01-0.303D-01 0.198D+00 0.307D+00
 Coeff-Com:  0.474D+00
 Coeff:     -0.585D-03 0.853D-03 0.513D-01-0.303D-01 0.198D+00 0.307D+00
 Coeff:      0.474D+00
 Gap=     0.232 Goal=   None    Shift=    0.000
 RMSDP=6.70D-06 MaxDP=2.60D-04 DE=-4.81D-05 OVMax= 6.48D-04

 Initial convergence to 1.0D-05 achieved.  Increase integral accuracy.
 Cycle   8  Pass 1  IDiag  1:
 E= -997.787774837374     Delta-E=        0.000054650881 Rises=F Damp=F
 DIIS: error= 1.01D-04 at cycle   1 NSaved=   1.
 NSaved= 1 IEnMin= 1 EnMin= -997.787774837374     IErMin= 1 ErrMin= 1.01D-04
 ErrMax= 1.01D-04  0.00D+00 EMaxC= 1.00D-01 BMatC= 2.90D-06 BMatP= 2.90D-06
 IDIUse=3 WtCom= 9.99D-01 WtEn= 1.01D-03
 Coeff-Com:  0.100D+01
 Coeff-En:   0.100D+01
 Coeff:      0.100D+01
 Gap=     0.232 Goal=   None    Shift=    0.000
 RMSDP=6.70D-06 MaxDP=2.60D-04 DE= 5.47D-05 OVMax= 5.68D-04

 Cycle   9  Pass 1  IDiag  1:
 RMSU=  7.19D-05    CP:  1.00D+00
 E= -997.787776447574     Delta-E=       -0.000001610199 Rises=F Damp=F
 DIIS: error= 4.59D-05 at cycle   2 NSaved=   2.
 NSaved= 2 IEnMin= 2 EnMin= -997.787776447574     IErMin= 2 ErrMin= 4.59D-05
 ErrMax= 4.59D-05  0.00D+00 EMaxC= 1.00D-01 BMatC= 1.67D-06 BMatP= 2.90D-06
 IDIUse=1 WtCom= 1.00D+00 WtEn= 0.00D+00
 Coeff-Com:  0.400D+00 0.600D+00
 Coeff:      0.400D+00 0.600D+00
 Gap=     0.232 Goal=   None    Shift=    0.000
 RMSDP=6.48D-06 MaxDP=4.01D-04 DE=-1.61D-06 OVMax= 7.09D-04

 Cycle  10  Pass 1  IDiag  1:
 RMSU=  6.46D-06    CP:  1.00D+00  1.00D+00
 E= -997.787776857727     Delta-E=       -0.000000410153 Rises=F Damp=F
 DIIS: error= 4.63D-05 at cycle   3 NSaved=   3.
 NSaved= 3 IEnMin= 3 EnMin= -997.787776857727     IErMin= 2 ErrMin= 4.59D-05
 ErrMax= 4.63D-05  0.00D+00 EMaxC= 1.00D-01 BMatC= 1.26D-06 BMatP= 1.67D-06
 IDIUse=1 WtCom= 1.00D+00 WtEn= 0.00D+00
 Coeff-Com:  0.104D-01 0.462D+00 0.527D+00
 Coeff:      0.104D-01 0.462D+00 0.527D+00
 Gap=     0.232 Goal=   None    Shift=    0.000
 RMSDP=3.19D-06 MaxDP=2.02D-04 DE=-4.10D-07 OVMax= 3.58D-04

 Cycle  11  Pass 1  IDiag  1:
 RMSU=  8.58D-07    CP:  1.00D+00  1.01D+00  5.45D-01
 E= -997.787777996364     Delta-E=       -0.000001138638 Rises=F Damp=F
 DIIS: error= 7.49D-06 at cycle   4 NSaved=   4.
 NSaved= 4 IEnMin= 4 EnMin= -997.787777996364     IErMin= 4 ErrMin= 7.49D-06
 ErrMax= 7.49D-06  0.00D+00 EMaxC= 1.00D-01 BMatC= 3.75D-08 BMatP= 1.26D-06
 IDIUse=1 WtCom= 1.00D+00 WtEn= 0.00D+00
 Coeff-Com: -0.490D-02 0.265D+00 0.319D+00 0.421D+00
 Coeff:     -0.490D-02 0.265D+00 0.319D+00 0.421D+00
 Gap=     0.232 Goal=   None    Shift=    0.000
 RMSDP=4.85D-07 MaxDP=3.59D-05 DE=-1.14D-06 OVMax= 4.12D-05

 Cycle  12  Pass 1  IDiag  1:
 RMSU=  2.56D-07    CP:  1.00D+00  1.01D+00  5.58D-01  5.32D-01
 E= -997.787778029377     Delta-E=       -0.000000033012 Rises=F Damp=F
 DIIS: error= 1.20D-06 at cycle   5 NSaved=   5.
 NSaved= 5 IEnMin= 5 EnMin= -997.787778029377     IErMin= 5 ErrMin= 1.20D-06
 ErrMax= 1.20D-06  0.00D+00 EMaxC= 1.00D-01 BMatC= 7.04D-10 BMatP= 3.75D-08
 IDIUse=1 WtCom= 1.00D+00 WtEn= 0.00D+00
 Coeff-Com: -0.303D-02 0.147D+00 0.177D+00 0.250D+00 0.429D+00
 Coeff:     -0.303D-02 0.147D+00 0.177D+00 0.250D+00 0.429D+00
 Gap=     0.232 Goal=   None    Shift=    0.000
 RMSDP=9.50D-08 MaxDP=5.20D-06 DE=-3.30D-08 OVMax= 1.04D-05

 Cycle  13  Pass 1  IDiag  1:
 RMSU=  8.05D-08    CP:  1.00D+00  1.01D+00  5.55D-01  5.46D-01  8.39D-01
 E= -997.787778029970     Delta-E=       -0.000000000593 Rises=F Damp=F
 DIIS: error= 2.86D-07 at cycle   6 NSaved=   6.
 NSaved= 6 IEnMin= 6 EnMin= -997.787778029970     IErMin= 6 ErrMin= 2.86D-07
 ErrMax= 2.86D-07  0.00D+00 EMaxC= 1.00D-01 BMatC= 5.23D-11 BMatP= 7.04D-10
 IDIUse=1 WtCom= 1.00D+00 WtEn= 0.00D+00
 Coeff-Com: -0.934D-03 0.408D-01 0.485D-01 0.756D-01 0.235D+00 0.601D+00
 Coeff:     -0.934D-03 0.408D-01 0.485D-01 0.756D-01 0.235D+00 0.601D+00
 Gap=     0.232 Goal=   None    Shift=    0.000
 RMSDP=2.49D-08 MaxDP=1.25D-06 DE=-5.93D-10 OVMax= 2.53D-06

 Cycle  14  Pass 1  IDiag  1:
 RMSU=  2.19D-08    CP:  1.00D+00  1.01D+00  5.54D-01  5.54D-01  8.53D-01
                    CP:  9.02D-01
 E= -997.787778029997     Delta-E=       -0.000000000027 Rises=F Damp=F
 DIIS: error= 5.35D-08 at cycle   7 NSaved=   7.
 NSaved= 7 IEnMin= 7 EnMin= -997.787778029997     IErMin= 7 ErrMin= 5.35D-08
 ErrMax= 5.35D-08  0.00D+00 EMaxC= 1.00D-01 BMatC= 3.53D-12 BMatP= 5.23D-11
 IDIUse=1 WtCom= 1.00D+00 WtEn= 0.00D+00
 Coeff-Com: -0.133D-03 0.453D-02 0.511D-02 0.108D-01 0.631D-01 0.269D+00
 Coeff-Com:  0.647D+00
 Coeff:     -0.133D-03 0.453D-02 0.511D-02 0.108D-01 0.631D-01 0.269D+00
 Coeff:      0.647D+00
 Gap=     0.232 Goal=   None    Shift=    0.000
 RMSDP=7.78D-09 MaxDP=3.49D-07 DE=-2.73D-11 OVMax= 5.32D-07

 SCF Done:  E(RPBE1PBE) =  -997.787778030     A.U. after   14 cycles
            NFock= 14  Conv=0.78D-08     -V/T= 2.0103
 KE= 9.876525481077D+02 PE=-6.336312963818D+03 EE= 2.341418319813D+03
 Leave Link  502 at Thu Nov  3 08:06:47 2022, MaxMem=  4194304000 cpu:            1123.2 elap:             140.5
 (Enter /software/gaussian/G16-A.03/avx/g16/l801.exe)
 DoSCS=F DFT=T ScalE2(SS,OS)=  1.000000  1.000000
 Range of M.O.s used for correlation:     1   452
 NBasis=   452 NAE=    85 NBE=    85 NFC=     0 NFV=     0
 NROrb=    452 NOA=    85 NOB=    85 NVA=   367 NVB=   367

 **** Warning!!: The largest alpha MO coefficient is  0.10576622D+02

 Leave Link  801 at Thu Nov  3 08:06:47 2022, MaxMem=  4194304000 cpu:               0.1 elap:               0.0
 (Enter /software/gaussian/G16-A.03/avx/g16/l1101.exe)
 Using compressed storage, NAtomX=    49.
 Will process     50 centers per pass.
   1 Symmetry operations used in ECPInt.
 ECPInt:  NShTT=   23436 NPrTT=   82998 LenC2=   20736 LenP2D=   50702.
 LDataN:  DoStor=T MaxTD1= 5 Len=  102
 R6Disp: Adding Grimme-D3(BJ) dispersion energy 1st derivatives to the gradient.
 Leave Link 1101 at Thu Nov  3 08:06:48 2022, MaxMem=  4194304000 cpu:               8.3 elap:               1.1
 (Enter /software/gaussian/G16-A.03/avx/g16/l1102.exe)
 Symmetrizing basis deriv contribution to polar:
 IMax=3 JMax=2 DiffMx= 0.00D+00
 Leave Link 1102 at Thu Nov  3 08:06:48 2022, MaxMem=  4194304000 cpu:               0.5 elap:               0.1
 (Enter /software/gaussian/G16-A.03/avx/g16/l1110.exe)
 Forming Gx(P) for the SCF density, NAtomX=    49.
 Integral derivatives from FoFJK, PRISM(SPDF).
 Do as many integral derivatives as possible in FoFJK.
 G2DrvN: MDV=    4194300336.
 G2DrvN: will do    50 centers at a time, making    1 passes.
 Calling FoFCou, ICntrl=  3107 FMM=F I1Cent=   0 AccDes= 0.00D+00.
 FoFJK:  IHMeth= 1 ICntrl=    3107 DoSepK=F KAlg= 0 I1Cent=           0 FoldK=F
 IRaf=         0 NMat=       1 IRICut=       1 DoRegI=T DoRafI=F ISym2E= 0 IDoP0=0 IntGTp=1.
 FoFCou: FMM=F IPFlag=           0 FMFlag=      100000 FMFlg1=           0
         NFxFlg=           0 DoJE=F BraDBF=F KetDBF=F FulRan=T
         wScrn=  0.000000 ICntrl=      3107 IOpCl=  0 I1Cent=           0 NGrid=           0
         NMat0=    1 NMatS0=      1 NMatT0=    0 NMatD0=    1 NMtDS0=    0 NMtDT0=    0
 Symmetry not used in FoFCou.
 End of G2Drv F.D. properties file   721 does not exist.
 End of G2Drv F.D. properties file   722 does not exist.
 End of G2Drv F.D. properties file   788 does not exist.
 Leave Link 1110 at Thu Nov  3 08:16:11 2022, MaxMem=  4194304000 cpu:            4502.5 elap:             562.9
 (Enter /software/gaussian/G16-A.03/avx/g16/l1002.exe)
 Minotr:  Closed shell wavefunction.
          IDoAtm=1111111111111111111111111111111111111111111111111
          Direct CPHF calculation.
          Differentiating once with respect to electric field.
                with respect to dipole field.
          Differentiating once with respect to nuclear coordinates.
          Requested convergence is 1.0D-08 RMS, and 1.0D-07 maximum.
          Secondary convergence is 1.0D-12 RMS, and 1.0D-12 maximum.
          NewPWx=T KeepS1=F KeepF1=F KeepIn=T MapXYZ=F SortEE=F KeepMc=T.
        14855 words used for storage of precomputed grid.
 Two-electron integrals replicated using symmetry.
          MDV=    4194304000 using IRadAn=       1.
          Solving linear equations simultaneously, MaxMat=     384.
 FoF2E skips out because all densities are zero.
 CalDSu exits because no D1Ps are significant.
 FoFJK:  IHMeth= 1 ICntrl=       0 DoSepK=F KAlg= 0 I1Cent=           0 FoldK=F
 IRaf= 780000000 NMat=     147 IRICut=     367 DoRegI=T DoRafI=T ISym2E= 2 IDoP0=3 IntGTp=3.
 FoFCou: FMM=F IPFlag=           0 FMFlag=      100000 FMFlg1=           0
         NFxFlg=           0 DoJE=F BraDBF=F KetDBF=F FulRan=T
         wScrn=  0.000000 ICntrl=         0 IOpCl=  0 I1Cent=           0 NGrid=           0
         NMat0=  147 NMatS0=    147 NMatT0=    0 NMatD0=  147 NMtDS0=    0 NMtDT0=    0
 Integrals replicated using symmetry in FoFCou.
 Raff kept on since  72.79% of shell-pairs survive, threshold=   0.20 IRatSp=73.
          There are   150 degrees of freedom in the 1st order CPHF.  IDoFFX=6 NUNeed=     3.
    147 vectors produced by pass  0 Test12= 3.12D-14 1.00D-09 XBig12= 2.00D+02 4.83D+00.
 AX will form   147 AO Fock derivatives at one time.
    147 vectors produced by pass  1 Test12= 3.12D-14 1.00D-09 XBig12= 5.93D+01 1.06D+00.
    147 vectors produced by pass  2 Test12= 3.12D-14 1.00D-09 XBig12= 5.26D-01 5.49D-02.
    147 vectors produced by pass  3 Test12= 3.12D-14 1.00D-09 XBig12= 2.37D-03 3.22D-03.
    147 vectors produced by pass  4 Test12= 3.12D-14 1.00D-09 XBig12= 6.13D-06 2.43D-04.
    108 vectors produced by pass  5 Test12= 3.12D-14 1.00D-09 XBig12= 8.49D-09 7.15D-06.
     20 vectors produced by pass  6 Test12= 3.12D-14 1.00D-09 XBig12= 9.49D-12 1.78D-07.
      3 vectors produced by pass  7 Test12= 3.12D-14 1.00D-09 XBig12= 9.87D-15 4.62D-09.
 InvSVY:  IOpt=1 It=  1 EMax= 1.24D-14
 Solved reduced A of dimension   866 with   150 vectors.
 FullF1:  Do perturbations      1 to       3.
 Isotropic polarizability for W=    0.000000      211.25 Bohr**3.
 End of Minotr F.D. properties file   721 does not exist.
 End of Minotr F.D. properties file   722 does not exist.
 End of Minotr F.D. properties file   788 does not exist.
 Leave Link 1002 at Thu Nov  3 08:33:01 2022, MaxMem=  4194304000 cpu:            8084.9 elap:            1010.7
 (Enter /software/gaussian/G16-A.03/avx/g16/l601.exe)
 Copying SCF densities to generalized density rwf, IOpCl= 0 IROHF=0.

 **********************************************************************

            Population analysis using the SCF density.

 **********************************************************************

 Orbital symmetries:
       Occupied  (A) (A) (A) (A) (A) (A) (A) (A) (A) (A) (A) (A)
                 (A) (A) (A) (A) (A) (A) (A) (A) (A) (A) (A) (A)
                 (A) (A) (A) (A) (A) (A) (A) (A) (A) (A) (A) (A)
                 (A) (A) (A) (A) (A) (A) (A) (A) (A) (A) (A) (A)
                 (A) (A) (A) (A) (A) (A) (A) (A) (A) (A) (A) (A)
                 (A) (A) (A) (A) (A) (A) (A) (A) (A) (A) (A) (A)
                 (A) (A) (A) (A) (A) (A) (A) (A) (A) (A) (A) (A)
                 (A)
       Virtual   (A) (A) (A) (A) (A) (A) (A) (A) (A) (A) (A) (A)
                 (A) (A) (A) (A) (A) (A) (A) (A) (A) (A) (A) (A)
                 (A) (A) (A) (A) (A) (A) (A) (A) (A) (A) (A) (A)
                 (A) (A) (A) (A) (A) (A) (A) (A) (A) (A) (A) (A)
                 (A) (A) (A) (A) (A) (A) (A) (A) (A) (A) (A) (A)
                 (A) (A) (A) (A) (A) (A) (A) (A) (A) (A) (A) (A)
                 (A) (A) (A) (A) (A) (A) (A) (A) (A) (A) (A) (A)
                 (A) (A) (A) (A) (A) (A) (A) (A) (A) (A) (A) (A)
                 (A) (A) (A) (A) (A) (A) (A) (A) (A) (A) (A) (A)
                 (A) (A) (A) (A) (A) (A) (A) (A) (A) (A) (A) (A)
                 (A) (A) (A) (A) (A) (A) (A) (A) (A) (A) (A) (A)
                 (A) (A) (A) (A) (A) (A) (A) (A) (A) (A) (A) (A)
                 (A) (A) (A) (A) (A) (A) (A) (A) (A) (A) (A) (A)
                 (A) (A) (A) (A) (A) (A) (A) (A) (A) (A) (A) (A)
                 (A) (A) (A) (A) (A) (A) (A) (A) (A) (A) (A) (A)
                 (A) (A) (A) (A) (A) (A) (A) (A) (A) (A) (A) (A)
                 (A) (A) (A) (A) (A) (A) (A) (A) (A) (A) (A) (A)
                 (A) (A) (A) (A) (A) (A) (A) (A) (A) (A) (A) (A)
                 (A) (A) (A) (A) (A) (A) (A) (A) (A) (A) (A) (A)
                 (A) (A) (A) (A) (A) (A) (A) (A) (A) (A) (A) (A)
                 (A) (A) (A) (A) (A) (A) (A) (A) (A) (A) (A) (A)
                 (A) (A) (A) (A) (A) (A) (A) (A) (A) (A) (A) (A)
                 (A) (A) (A) (A) (A) (A) (A) (A) (A) (A) (A) (A)
                 (A) (A) (A) (A) (A) (A) (A) (A) (A) (A) (A) (A)
                 (A) (A) (A) (A) (A) (A) (A) (A) (A) (A) (A) (A)
                 (A) (A) (A) (A) (A) (A) (A) (A) (A) (A) (A) (A)
                 (A) (A) (A) (A) (A) (A) (A) (A) (A) (A) (A) (A)
                 (A) (A) (A) (A) (A) (A) (A) (A) (A) (A) (A) (A)
                 (A) (A) (A) (A) (A) (A) (A) (A) (A) (A) (A) (A)
                 (A) (A) (A) (A) (A) (A) (A) (A) (A) (A) (A) (A)
                 (A) (A) (A) (A) (A) (A) (A)
 The electronic state is 1-A.
 Alpha  occ. eigenvalues --  -19.24594 -19.24165 -14.35486 -14.35004 -10.31158
 Alpha  occ. eigenvalues --  -10.30952 -10.29063 -10.28458 -10.27055 -10.26616
 Alpha  occ. eigenvalues --  -10.25556 -10.24254 -10.24171 -10.23769 -10.23713
 Alpha  occ. eigenvalues --  -10.23645 -10.23588 -10.23479 -10.23297 -10.23127
 Alpha  occ. eigenvalues --  -10.22286 -10.21797 -10.21046  -1.11929  -1.11513
 Alpha  occ. eigenvalues --   -0.91626  -0.90680  -0.87415  -0.85881  -0.82832
 Alpha  occ. eigenvalues --   -0.79176  -0.76064  -0.75849  -0.74162  -0.70667
 Alpha  occ. eigenvalues --   -0.69611  -0.68943  -0.66296  -0.65290  -0.64038
 Alpha  occ. eigenvalues --   -0.61983  -0.60063  -0.59238  -0.55483  -0.54434
 Alpha  occ. eigenvalues --   -0.53516  -0.52053  -0.51132  -0.50601  -0.48919
 Alpha  occ. eigenvalues --   -0.47379  -0.46720  -0.46496  -0.45692  -0.45120
 Alpha  occ. eigenvalues --   -0.44829  -0.44309  -0.43985  -0.43524  -0.43009
 Alpha  occ. eigenvalues --   -0.42069  -0.41634  -0.40767  -0.39210  -0.38987
 Alpha  occ. eigenvalues --   -0.38197  -0.37824  -0.37567  -0.37139  -0.36658
 Alpha  occ. eigenvalues --   -0.36576  -0.36351  -0.35867  -0.35332  -0.34783
 Alpha  occ. eigenvalues --   -0.34513  -0.34100  -0.33276  -0.32729  -0.28232
 Alpha  occ. eigenvalues --   -0.26497  -0.26222  -0.25194  -0.24502  -0.24028
 Alpha virt. eigenvalues --   -0.00818  -0.00276   0.03388   0.03832   0.05956
 Alpha virt. eigenvalues --    0.07065   0.08225   0.08839   0.09622   0.09753
 Alpha virt. eigenvalues --    0.09982   0.11401   0.11563   0.12209   0.12620
 Alpha virt. eigenvalues --    0.12812   0.13170   0.13825   0.14269   0.14347
 Alpha virt. eigenvalues --    0.14862   0.15337   0.15973   0.16142   0.16485
 Alpha virt. eigenvalues --    0.17224   0.17715   0.18107   0.18533   0.18815
 Alpha virt. eigenvalues --    0.19350   0.19977   0.20244   0.20635   0.21784
 Alpha virt. eigenvalues --    0.21878   0.22987   0.23898   0.24208   0.25175
 Alpha virt. eigenvalues --    0.25494   0.25541   0.26348   0.27353   0.28769
 Alpha virt. eigenvalues --    0.30000   0.31306   0.31510   0.32248   0.34016
 Alpha virt. eigenvalues --    0.35893   0.36574   0.37280   0.39130   0.40379
 Alpha virt. eigenvalues --    0.41023   0.41539   0.42295   0.43032   0.43181
 Alpha virt. eigenvalues --    0.44295   0.44495   0.44845   0.45043   0.47495
 Alpha virt. eigenvalues --    0.48237   0.49669   0.50086   0.50654   0.51265
 Alpha virt. eigenvalues --    0.51435   0.52173   0.53045   0.53351   0.53489
 Alpha virt. eigenvalues --    0.53887   0.54821   0.55758   0.56670   0.57623
 Alpha virt. eigenvalues --    0.58264   0.58931   0.59634   0.60181   0.60481
 Alpha virt. eigenvalues --    0.61659   0.62262   0.62803   0.63257   0.64217
 Alpha virt. eigenvalues --    0.64332   0.64784   0.64960   0.65437   0.65868
 Alpha virt. eigenvalues --    0.65895   0.66298   0.66822   0.67054   0.67254
 Alpha virt. eigenvalues --    0.67644   0.67874   0.68024   0.68264   0.68736
 Alpha virt. eigenvalues --    0.68945   0.69506   0.69744   0.69983   0.70429
 Alpha virt. eigenvalues --    0.70792   0.71312   0.71882   0.72336   0.72672
 Alpha virt. eigenvalues --    0.72777   0.73046   0.73875   0.74212   0.74473
 Alpha virt. eigenvalues --    0.74717   0.75049   0.75116   0.76036   0.76671
 Alpha virt. eigenvalues --    0.76883   0.76992   0.77817   0.78614   0.79308
 Alpha virt. eigenvalues --    0.79745   0.81552   0.81850   0.82467   0.84094
 Alpha virt. eigenvalues --    0.84724   0.87224   0.87363   0.88353   0.89490
 Alpha virt. eigenvalues --    0.90772   0.93058   0.93876   0.95961   0.96802
 Alpha virt. eigenvalues --    0.97659   0.99927   1.02601   1.02929   1.04523
 Alpha virt. eigenvalues --    1.06172   1.07422   1.08393   1.10691   1.10972
 Alpha virt. eigenvalues --    1.11802   1.13338   1.13790   1.15603   1.16123
 Alpha virt. eigenvalues --    1.18552   1.20163   1.21262   1.22103   1.23636
 Alpha virt. eigenvalues --    1.24559   1.25356   1.25917   1.26768   1.28461
 Alpha virt. eigenvalues --    1.29316   1.29766   1.30397   1.31234   1.32276
 Alpha virt. eigenvalues --    1.32910   1.34006   1.36886   1.37572   1.39011
 Alpha virt. eigenvalues --    1.39273   1.42292   1.45155   1.47851   1.48403
 Alpha virt. eigenvalues --    1.51181   1.52424   1.52965   1.55187   1.55840
 Alpha virt. eigenvalues --    1.56869   1.57524   1.57893   1.58612   1.59545
 Alpha virt. eigenvalues --    1.60173   1.60973   1.62577   1.62946   1.64688
 Alpha virt. eigenvalues --    1.65495   1.66059   1.66729   1.67817   1.67991
 Alpha virt. eigenvalues --    1.68758   1.69376   1.70999   1.72673   1.73219
 Alpha virt. eigenvalues --    1.73544   1.75218   1.75542   1.76358   1.76573
 Alpha virt. eigenvalues --    1.77602   1.77758   1.78610   1.78702   1.79001
 Alpha virt. eigenvalues --    1.79427   1.79509   1.80300   1.81464   1.81960
 Alpha virt. eigenvalues --    1.82195   1.82319   1.83126   1.83499   1.84206
 Alpha virt. eigenvalues --    1.85120   1.85722   1.85930   1.86371   1.86905
 Alpha virt. eigenvalues --    1.87951   1.88300   1.88722   1.89035   1.89329
 Alpha virt. eigenvalues --    1.89833   1.90895   1.91685   1.92173   1.92920
 Alpha virt. eigenvalues --    1.93552   1.94333   1.96087   1.96262   1.96568
 Alpha virt. eigenvalues --    1.97164   1.98310   1.98682   1.99150   1.99335
 Alpha virt. eigenvalues --    1.99776   2.00934   2.01851   2.02807   2.03358
 Alpha virt. eigenvalues --    2.05068   2.06059   2.06822   2.08002   2.09579
 Alpha virt. eigenvalues --    2.09872   2.11073   2.11780   2.12738   2.15376
 Alpha virt. eigenvalues --    2.16046   2.17513   2.18491   2.19138   2.20493
 Alpha virt. eigenvalues --    2.21586   2.22379   2.23960   2.25393   2.26418
 Alpha virt. eigenvalues --    2.27327   2.29305   2.30498   2.31201   2.31758
 Alpha virt. eigenvalues --    2.32227   2.32986   2.34447   2.36096   2.36475
 Alpha virt. eigenvalues --    2.38764   2.39341   2.39987   2.40816   2.42130
 Alpha virt. eigenvalues --    2.42956   2.43660   2.44995   2.45848   2.47400
 Alpha virt. eigenvalues --    2.49319   2.52201   2.53113   2.54072   2.54559
 Alpha virt. eigenvalues --    2.56285   2.57463   2.59359   2.62523   2.64208
 Alpha virt. eigenvalues --    2.64673   2.65260   2.65833   2.66336   2.66734
 Alpha virt. eigenvalues --    2.68100   2.68164   2.69993   2.71479   2.72147
 Alpha virt. eigenvalues --    2.74690   2.74779   2.75163   2.76906   2.79151
 Alpha virt. eigenvalues --    2.82962   2.84554   2.85518   2.85956   2.87918
 Alpha virt. eigenvalues --    2.88244   2.89146   2.89511   2.90280   2.90818
 Alpha virt. eigenvalues --    2.91288   2.93112   2.93388   2.94359   2.94767
 Alpha virt. eigenvalues --    2.96258   2.97247   2.97864   2.99794   3.00241
 Alpha virt. eigenvalues --    3.00538   3.03653   3.04625   3.05752   3.06123
 Alpha virt. eigenvalues --    3.06637   3.06817   3.08254   3.11250   3.12054
 Alpha virt. eigenvalues --    3.15263   3.15549   3.18639   3.20903   3.27630
 Alpha virt. eigenvalues --    3.29633   3.33665   3.40699   3.47473   3.64762
 Alpha virt. eigenvalues --    3.65717   3.67330
     Molecular Orbital Coefficients:
                          81        82        83        84        85
                           O         O         O         O         O
     Eigenvalues --    -0.26497  -0.26222  -0.25194  -0.24502  -0.24028
   1 1   C  1S         -0.00021  -0.00475   0.00833   0.00231  -0.00049
   2        2S          0.00141   0.00487  -0.00874  -0.00278   0.00196
   3        3S         -0.01160   0.08178  -0.12938  -0.02340  -0.00651
   4        4PX        -0.00278  -0.01065   0.02389   0.01385   0.01745
   5        4PY         0.00371  -0.03951   0.05069   0.01505  -0.00595
   6        4PZ        -0.00021   0.01192  -0.01776   0.00246   0.01270
   7        5PX         0.00242  -0.02335   0.03472  -0.00642   0.02371
   8        5PY         0.00678  -0.05762   0.08395   0.02974  -0.00414
   9        5PZ         0.00215   0.00614  -0.01519  -0.01182   0.01223
  10        6D 0       -0.00022   0.00046   0.00103  -0.00009  -0.00025
  11        6D+1        0.00020  -0.00101   0.00009  -0.00018   0.00016
  12        6D-1       -0.00017  -0.00107   0.00181   0.00011   0.00166
  13        6D+2       -0.00029  -0.00015   0.00100   0.00006   0.00130
  14        6D-2       -0.00030   0.00065  -0.00103  -0.00122   0.00255
  15 2   C  1S         -0.00206   0.00737   0.00112   0.00404   0.00052
  16        2S          0.00211  -0.01077  -0.00277  -0.00556   0.00087
  17        3S          0.04424  -0.12929  -0.00334  -0.10227  -0.03329
  18        4PX         0.00267   0.02648  -0.03545  -0.00790  -0.06104
  19        4PY        -0.00918   0.03738   0.00191   0.00761   0.01572
  20        4PZ        -0.00481   0.00480   0.04763   0.01560  -0.03757
  21        5PX        -0.00658   0.01945   0.00845   0.03394  -0.04772
  22        5PY        -0.01190   0.02232   0.05289   0.03218   0.02854
  23        5PZ        -0.01618   0.06467  -0.05189  -0.00288  -0.03375
  24        6D 0       -0.00040  -0.00181   0.00604  -0.00431   0.00028
  25        6D+1       -0.00006  -0.00148  -0.00155  -0.00426   0.00057
  26        6D-1        0.00005  -0.00229   0.00651   0.00348   0.00112
  27        6D+2        0.00013  -0.00065   0.00009   0.00499   0.00102
  28        6D-2        0.00002   0.00201  -0.00365  -0.00079   0.00273
  29 3   C  1S         -0.00579   0.00978   0.00564   0.00125   0.03703
  30        2S          0.01506  -0.02473  -0.01468  -0.00358  -0.09625
  31        3S         -0.00378   0.01989   0.00549   0.00299   0.00076
  32        4PX         0.00331  -0.01209   0.05328   0.10043  -0.00843
  33        4PY        -0.01043   0.01196   0.01635   0.05099   0.06203
  34        4PZ        -0.00739   0.02464  -0.07011  -0.16619   0.01848
  35        5PX         0.01315  -0.02828   0.00965   0.04598  -0.07215
  36        5PY         0.00276  -0.02033   0.02978   0.04639  -0.01931
  37        5PZ         0.00564  -0.00405  -0.06269  -0.12493  -0.04897
  38        6D 0       -0.00026  -0.00189   0.01074   0.01997   0.00666
  39        6D+1       -0.00111   0.00163   0.00019   0.00050   0.00879
  40        6D-1       -0.00103  -0.00085   0.01298   0.02049   0.00984
  41        6D+2       -0.00085  -0.00048   0.00255   0.00220   0.00524
  42        6D-2       -0.00344   0.00752  -0.00699  -0.01382   0.02063
  43 4   N  1S         -0.01129   0.01958   0.00423   0.00169   0.08383
  44        2S         -0.02337   0.04219   0.00637  -0.00131   0.17700
  45        3S         -0.02876   0.03330   0.04123   0.04741   0.21797
  46        4PX        -0.04305   0.08864  -0.06294  -0.14371   0.26509
  47        4PY        -0.02867   0.05406  -0.04157  -0.08799   0.17707
  48        4PZ        -0.02530   0.01258   0.15753   0.29173   0.21330
  49        5PX         0.02833  -0.05877   0.06398   0.12186  -0.15868
  50        5PY         0.02129  -0.04792   0.03085   0.06027  -0.13460
  51        5PZ         0.01617  -0.00342  -0.11428  -0.20808  -0.14127
  52        6D 0       -0.00060   0.00199  -0.00501  -0.01155   0.00273
  53        6D+1        0.00167  -0.00308   0.00025   0.00015  -0.01256
  54        6D-1        0.00094  -0.00034  -0.00660  -0.01271  -0.00819
  55        6D+2        0.00002   0.00046  -0.00175  -0.00247  -0.00333
  56        6D-2        0.00160  -0.00344   0.00446   0.00933  -0.00942
  57 5   C  1S         -0.00339   0.00528   0.00326   0.00289   0.02668
  58        2S          0.00786  -0.01152  -0.01014  -0.01176  -0.06274
  59        3S          0.01070  -0.02288  -0.00499   0.02814  -0.10421
  60        4PX        -0.02109   0.04431  -0.02377  -0.05506   0.13221
  61        4PY        -0.00137   0.00359  -0.01020  -0.01510  -0.00310
  62        4PZ        -0.00435  -0.00684   0.07228   0.12833   0.05864
  63        5PX        -0.00540   0.01113   0.01959   0.04185   0.03928
  64        5PY         0.00640  -0.00711  -0.01633  -0.01435  -0.06787
  65        5PZ         0.00256  -0.00870   0.02154   0.02635  -0.00434
  66        6D 0       -0.00105   0.00167   0.00114   0.00184   0.00668
  67        6D+1       -0.00041  -0.00076   0.00670   0.01306   0.00577
  68        6D-1       -0.00137   0.00328  -0.00445  -0.00893   0.00727
  69        6D+2       -0.00053   0.00193  -0.00608  -0.01166   0.00290
  70        6D-2       -0.00211   0.00312   0.00255   0.00371   0.01532
  71 6   H  1S          0.00988  -0.02889   0.06213   0.11894  -0.04226
  72        2S          0.00448  -0.01313   0.04129   0.08366  -0.01839
  73        3PX        -0.00020   0.00027   0.00034   0.00038   0.00154
  74        3PY         0.00021  -0.00072   0.00206   0.00408  -0.00052
  75        3PZ        -0.00035   0.00045   0.00056   0.00094   0.00262
  76 7   C  1S          0.00393  -0.00617  -0.00278  -0.00538  -0.02517
  77        2S         -0.00977   0.01565   0.00660   0.01570   0.06276
  78        3S         -0.01841   0.02808   0.01594   0.00465   0.14707
  79        4PX         0.01004  -0.02082   0.01761   0.03243  -0.04481
  80        4PY         0.01220  -0.01924  -0.00749  -0.00193  -0.08442
  81        4PZ         0.00865  -0.00600  -0.04484  -0.08390  -0.07221
  82        5PX         0.00354  -0.00594  -0.00438  -0.00653  -0.01838
  83        5PY         0.01248  -0.01893  -0.01083  -0.00996  -0.09224
  84        5PZ         0.00932  -0.01137  -0.01693  -0.01561  -0.07194
  85        6D 0       -0.00047   0.00180  -0.00569  -0.01163   0.00007
  86        6D+1       -0.00006   0.00005  -0.00043  -0.00132  -0.00064
  87        6D-1        0.00034  -0.00120   0.00391   0.00847  -0.00035
  88        6D+2        0.00044  -0.00122   0.00205   0.00434  -0.00207
  89        6D-2        0.00075  -0.00126  -0.00085  -0.00202  -0.00568
  90 8   O  1S         -0.00132   0.00187   0.00234   0.00085   0.01388
  91        2S         -0.00304   0.00427   0.00485   0.00161   0.03088
  92        3S         -0.00989   0.01666   0.01465   0.01319   0.08535
  93        4PX         0.00204   0.01359  -0.08793  -0.17440  -0.05615
  94        4PY         0.01390  -0.01603  -0.03576  -0.07152  -0.09683
  95        4PZ         0.01822  -0.04994   0.11906   0.25957  -0.06136
  96        5PX         0.00230   0.00976  -0.07361  -0.14496  -0.05423
  97        5PY         0.01036  -0.01067  -0.03140  -0.06170  -0.07053
  98        5PZ         0.01423  -0.04076   0.09833   0.21436  -0.04958
  99        6D 0        0.00015   0.00002  -0.00140  -0.00244  -0.00155
 100        6D+1        0.00018  -0.00023  -0.00013   0.00042  -0.00124
 101        6D-1       -0.00029   0.00063  -0.00145  -0.00387   0.00098
 102        6D+2        0.00053  -0.00081  -0.00059  -0.00116  -0.00314
 103        6D-2        0.00020  -0.00067   0.00153   0.00263  -0.00006
 104 9   C  1S          0.00021  -0.00289   0.01273   0.02503   0.00343
 105        2S         -0.00019   0.00601  -0.02903  -0.05630  -0.01068
 106        3S          0.00039   0.01411  -0.08120  -0.18590  -0.02914
 107        4PX         0.00638  -0.02277   0.05389   0.10513  -0.01292
 108        4PY        -0.00079   0.00532  -0.01920  -0.03931  -0.00066
 109        4PZ        -0.00065   0.01577  -0.06667  -0.12091  -0.01525
 110        5PX         0.00115  -0.00825   0.02684   0.05661   0.00468
 111        5PY        -0.00945   0.01711  -0.00613  -0.02094   0.07292
 112        5PZ         0.00154   0.00989  -0.05721  -0.10723  -0.02077
 113        6D 0       -0.00041   0.00105  -0.00138  -0.00286   0.00239
 114        6D+1        0.00017  -0.00086   0.00251   0.00486   0.00009
 115        6D-1       -0.00045   0.00112  -0.00157  -0.00307   0.00196
 116        6D+2        0.00040  -0.00045  -0.00101  -0.00143  -0.00284
 117        6D-2       -0.00013  -0.00002   0.00121   0.00197   0.00106
 118 10  C  1S         -0.00012   0.00035  -0.00049  -0.00074  -0.00008
 119        2S          0.00008  -0.00111   0.00252   0.00174   0.00113
 120        3S          0.00946  -0.01159  -0.00438   0.02410  -0.06058
 121        4PX        -0.00191   0.00245   0.00433   0.00548   0.00723
 122        4PY        -0.00065   0.00475  -0.01531  -0.02435  -0.00066
 123        4PZ         0.00015  -0.00574   0.02409   0.03993   0.00642
 124        5PX        -0.00136  -0.00162   0.01423   0.01474   0.00680
 125        5PY        -0.00270   0.00888  -0.01786  -0.02886   0.01404
 126        5PZ         0.00093  -0.00781   0.02525   0.03955  -0.00259
 127        6D 0       -0.00004   0.00038  -0.00153  -0.00298  -0.00037
 128        6D+1        0.00010  -0.00041   0.00123   0.00262   0.00033
 129        6D-1       -0.00016   0.00015   0.00060   0.00095   0.00097
 130        6D+2       -0.00002   0.00036  -0.00135  -0.00215  -0.00034
 131        6D-2       -0.00018   0.00028  -0.00004  -0.00062   0.00078
 132 11  C  1S         -0.00114   0.00202   0.00010  -0.00133   0.00657
 133        2S          0.00279  -0.00533   0.00088   0.00349  -0.01735
 134        3S         -0.00016  -0.00167   0.01196   0.03457   0.01337
 135        4PX        -0.00567   0.01394  -0.01745  -0.03758   0.02287
 136        4PY         0.00223  -0.00506   0.00475   0.01141  -0.01276
 137        4PZ        -0.00211   0.00286   0.00047  -0.00314   0.00775
 138        5PX        -0.00153   0.00722  -0.02090  -0.04514  -0.00602
 139        5PY         0.00264  -0.00625   0.00752   0.01785  -0.01594
 140        5PZ        -0.00160   0.00228  -0.00355  -0.01374   0.00339
 141        6D 0       -0.00001  -0.00021   0.00111   0.00204   0.00038
 142        6D+1        0.00020  -0.00085   0.00207   0.00396  -0.00067
 143        6D-1       -0.00025   0.00068  -0.00115  -0.00225   0.00097
 144        6D+2       -0.00010   0.00045  -0.00116  -0.00201   0.00042
 145        6D-2       -0.00007  -0.00014   0.00108   0.00183   0.00040
 146 12  C  1S         -0.00012   0.00024  -0.00070  -0.00170   0.00070
 147        2S          0.00030  -0.00140   0.00280   0.00302  -0.00437
 148        3S         -0.00237   0.01034  -0.00690   0.01949   0.04618
 149        4PX        -0.00688   0.00991   0.00563   0.00436   0.03501
 150        4PY         0.00103  -0.00284   0.00823   0.01752  -0.00180
 151        4PZ        -0.00318   0.00056   0.02027   0.03225   0.02217
 152        5PX        -0.00474   0.00337   0.01205   0.00676   0.02177
 153        5PY        -0.00069   0.00194   0.00460   0.01643   0.01503
 154        5PZ        -0.00660   0.00459   0.02449   0.03247   0.04209
 155        6D 0       -0.00007   0.00043  -0.00147  -0.00280  -0.00021
 156        6D+1        0.00034  -0.00069   0.00083   0.00219  -0.00120
 157        6D-1       -0.00028   0.00067  -0.00098  -0.00210   0.00104
 158        6D+2        0.00011  -0.00016   0.00013   0.00074  -0.00012
 159        6D-2        0.00001  -0.00042   0.00151   0.00238  -0.00001
 160 13  N  1S         -0.00092  -0.01906  -0.01991   0.01296  -0.07595
 161        2S         -0.00083  -0.04387  -0.03868   0.02621  -0.16115
 162        3S         -0.00328  -0.04929  -0.12453   0.05418  -0.19960
 163        4PX         0.00406   0.02023  -0.15656   0.07268   0.21087
 164        4PY        -0.01362  -0.02243  -0.06320   0.04875  -0.25879
 165        4PZ         0.01711  -0.19729   0.25148  -0.17041   0.10112
 166        5PX        -0.00058  -0.02544   0.13186  -0.06529  -0.12016
 167        5PY         0.01035   0.00198   0.03254  -0.03509   0.18439
[...]
 508989,-0.00220176,-0.00064204,0.00305998,-0.00033360,0.00068197,0.000
 31832,0.00145224,0.00152404,-0.00141125,-0.00091867,-0.00531571,0.0015
 9685,0.03948221,-0.33047347,-0.03558777,0.00004929,0.00006537,0.000136
 80,-0.00000180,-0.00000733,-0.00001126,0.00000580,-0.00000520,0.000002
 52,-0.00000745,0.00002088,-0.00000053,0.00000535,-0.00000033,0.0000018
 9,0.00000076,0.00000275,0.00000262,0.00000342,0.00000148,-0.00000208,-
 0.00000311,0.00000192,0.00000115,0.00000015,-0.00000068,0.00000575,0.0
 0000386,0.00000172,-0.00000113,-0.00000044,0.00000144,0.00000279,-0.00
 000276,-0.00000024,-0.00000043,0.00000205,0.00000297,-0.00000215,-0.00
 000061,-0.00000720,0.00000224,0.00000207,0.00000318,0.00000567,0.00036
 113,0.00018091,-0.00000505,0.00021224,0.00053461,0.00020241,0.00027310
 ,-0.00080326,-0.00025613,0.00001187,-0.00006408,-0.00005909,-0.0000704
 3,-0.00035291,0.00007405,-0.00011619,0.00081860,-0.00010980,-0.0430259
 4,0.34878502,-0.00000319,0.00005045,-0.00006430,0.00005100,-0.00011307
 ,0.00002952,0.00003822,0.00001574,0.00000212,-0.00001572,-0.00000913,-
 0.00003561,-0.00000494,0.00001625,0.00000844,-0.00000067,-0.00000330,-
 0.00000054,-0.00001237,0.00000590,0.00000667,-0.00004569,0.00000652,-0
 .00004959,-0.00000457,-0.00000172,0.00000050,0.00000660,0.00000187,0.0
 0000050,0.00000100,0.,-0.00000100,0.00000538,0.00000236,0.00000284,-0.
 00040968,-0.00019305,0.00009069,0.00070240,0.00063563,0.00053035,-0.00
 073540,-0.00044599,-0.00041815,0.00179784,0.00055739,-0.00126189,-0.00
 204377,0.00004713,-0.00101770,-0.00001533,-0.00019371,-0.00004746,-0.0
 0338459,0.01642719,0.00677035,0.00507746,0.00246479,0.00064817,0.00010
 581,0.00024993,-0.00111925,0.00618575,-0.00078715,-0.00020215,0.002854
 44,-0.02307538,0.00143100,0.01487254,-0.03485642,-0.05437707,-0.000070
 67,0.00004297,0.00003668,0.00002591,-0.00001017,-0.00001865,-0.0000263
 2,0.00000892,0.00000186,0.00001484,-0.00003421,0.00001533,-0.00000102,
 -0.00000111,-0.00000222,-0.00000377,-0.00000235,-0.00000693,0.00000091
 ,-0.00000004,-0.00000113,-0.00000179,0.00000041,-0.00000061,-0.0000014
 2,-0.00000124,0.00000071,0.00000066,0.00000042,-0.00000036,-0.00000052
 ,-0.00000185,-0.00000081,-0.00000166,0.00000090,-0.00000037,0.00000001
 ,0.00000054,-0.00000123,0.00000048,0.00000243,-0.00000034,-0.00000141,
 -0.00000212,-0.00000211,-0.00036206,-0.00003013,0.00007200,-0.00009418
 ,-0.00038177,-0.00135393,-0.00004618,0.00097751,0.00033092,-0.00056188
 ,-0.00003383,-0.00038253,0.00016169,-0.00106027,-0.00007704,-0.0025992
 1,0.00015824,-0.00111021,-0.02137744,0.03955248,0.05160939,0.00094379,
 -0.00049873,-0.00018430,0.00943302,-0.00714930,0.00993578,0.00097346,-
 0.00046586,0.00000390,-0.00009359,0.00022853,-0.00011746,-0.00004161,0
 .00002295,0.00008931,0.00002806,0.00003658,0.00000529,-0.00032354,-0.0
 0015147,-0.00023142,-0.00114255,-0.00074035,0.00049352,-0.00003955,-0.
 00001102,0.00003563,0.00002276,0.00000816,-0.00000800,0.00000839,-0.00
 000059,-0.00002061,0.00002108,-0.00000277,-0.00001156,0.00057853,-0.00
 045760,0.00025163,-0.00243998,-0.00124486,0.00162888,0.00052307,0.0005
 9232,-0.00011180,0.00021613,-0.00011051,0.00003836,0.00016209,-0.00006
 052,-0.00029120,-0.00001627,0.00000777,-0.00000047,0.00006921,0.000030
 75,0.00013225,0.00001641,0.00000345,-0.00001311,-0.00000887,0.00002105
 ,-0.00000743,0.00001562,-0.00001294,-0.00000745,-0.00000158,0.00004189
 ,-0.00005013,-0.00002074,-0.00012399,-0.00005325,-0.18979024,0.0952604
 7,-0.10986633,0.00005889,-0.00012951,-0.00010297,-0.00000350,0.0001997
 4,-0.00007820,-0.00007703,0.00011877,-0.00005310,0.00003837,0.00001485
 ,0.00002398,0.00004493,0.00002773,0.00001577,0.00000746,0.00000648,-0.
 00001213,-0.00001412,0.00000343,0.00000668,-0.00000151,0.00000329,0.00
 001215,0.00000987,0.00000818,-0.00000553,-0.00000480,0.00000118,0.0000
 0277,-0.00001196,-0.00000172,-0.00000091,0.00000521,0.00001015,-0.0000
 1128,0.00000023,-0.00000388,0.00000746,-0.00000242,-0.00000169,0.00000
 394,-0.00002079,0.00002442,-0.00002866,0.00001543,0.00000064,0.0000243
 4,0.00000489,0.00000907,0.00000721,0.00000019,0.00000176,-0.00000335,-
 0.00000213,0.00000943,0.00000466,0.00000913,-0.00000486,-0.00000562,0.
 00007001,0.00004755,0.00005548,0.20051961,-0.00005193,0.00042552,-0.00
 129416,0.00899888,-0.00755989,0.00793041,0.00268957,-0.00119678,0.0017
 1989,-0.00038942,0.00043454,-0.00031826,-0.00001471,0.00005455,0.00012
 673,0.00001320,0.00004775,-0.00001337,-0.00062293,-0.00045602,-0.00047
 664,-0.00031040,0.00090646,-0.00101787,-0.00008058,-0.00000826,0.00005
 015,0.00005209,0.00000758,-0.00001578,0.00001636,-0.00000288,-0.000030
 76,0.00004857,-0.00000148,-0.00002047,0.00014448,0.00010306,0.00074841
 ,-0.00273704,-0.00142806,0.00154464,0.00012851,0.00055341,-0.00046911,
 0.00031386,-0.00015287,-0.00004295,0.00007666,-0.00001266,-0.00044737,
 0.00001503,0.00000498,0.00003243,0.00006620,0.00009421,0.00016739,0.00
 003769,0.00001409,-0.00004430,-0.00002452,0.00000490,-0.00000115,0.000
 01601,0.00000705,-0.00001826,-0.00000646,-0.00000211,0.00000573,0.0000
 1794,-0.00006125,-0.00003996,0.09307570,-0.10492287,0.06765190,-0.0001
 1184,-0.00011726,-0.00009822,-0.00000537,0.00052508,0.00011511,-0.0001
 3774,0.00004059,-0.00003305,0.00008482,0.00005067,0.00000412,-0.000049
 86,-0.00002332,0.00002696,0.00001109,0.00001102,-0.00002383,-0.0000290
 5,0.00001472,0.00001424,-0.00000715,0.00000632,0.00001517,0.00001505,0
 .00001451,-0.00001193,-0.00000742,-0.00000341,0.00000385,-0.00002869,0
 .00000238,-0.00000316,0.00000294,0.00001962,-0.00002210,0.00000263,-0.
 00000496,0.00000122,0.00000053,-0.00000224,0.00000759,-0.00003616,0.00
 002858,-0.00003455,0.00001823,-0.00000121,0.00002210,-0.00000125,0.000
 00809,0.00001243,0.00000789,-0.00001005,-0.00000426,0.00000799,-0.0000
 0136,-0.00000283,0.00000434,0.00000032,-0.00001060,0.00000730,-0.00003
 445,0.00001048,-0.09961791,0.10953072,-0.00158835,0.00034509,0.0012880
 8,-0.01759067,0.01192180,-0.01556703,-0.00170181,0.00023407,-0.0003207
 8,0.00013246,-0.00016031,0.00020089,0.00001299,-0.00014178,-0.00009727
 ,-0.00000516,-0.00004543,0.00002378,0.00040769,0.00023010,0.00054817,-
 0.00030327,-0.00108730,0.00028776,0.00002192,0.00002098,-0.00000744,-0
 .00002152,-0.00000428,-0.00000035,-0.00000011,-0.00000448,0.00000235,-
 0.00002242,-0.00000654,-0.00000613,-0.00086486,0.00067014,-0.00072793,
 0.00432917,0.00115777,-0.00282153,-0.00041408,0.00021094,-0.00009910,0
 .00013526,-0.00004661,0.00012760,-0.00020045,0.00004550,0.00058644,-0.
 00000347,0.00001970,-0.00001418,-0.00008973,-0.00001483,-0.00027625,-0
 .00005125,-0.00001804,0.00004710,0.00001481,-0.00001910,0.00001892,-0.
 00003707,0.00002478,0.00004077,0.00002583,-0.00000027,0.00004584,-0.00
 001467,0.00006187,0.00007532,-0.10700373,0.06759026,-0.12462432,0.0001
 9592,-0.00009861,0.00044606,0.00079131,-0.00050567,-0.00034569,-0.0000
 0628,-0.00001773,-0.00010743,-0.00003986,-0.00002944,-0.00002271,-0.00
 001948,-0.00004683,-0.00007700,-0.00000338,-0.00000967,0.00000735,0.00
 002840,-0.00000494,0.00000486,-0.00001415,0.00001366,-0.00000988,-0.00
 000248,-0.00000244,0.00000366,0.00000098,-0.00000413,-0.00000337,0.000
 01285,-0.00000081,0.00000621,0.00000340,-0.00000437,0.00000858,-0.0000
 0842,0.00000034,0.00000744,0.00000035,-0.00000518,-0.00000301,-0.00003
 520,0.00004735,-0.00003485,-0.00005225,0.00000521,-0.00003180,-0.00000
 206,-0.00001674,-0.00001437,-0.00000581,0.00000846,0.00001034,-0.00000
 782,-0.00000051,-0.00000023,-0.00002258,-0.00000183,0.00001271,-0.0000
 2507,-0.00003841,-0.00007556,0.11425675,-0.07657983,0.13509243,-0.0007
 2730,-0.00193731,0.00213970,-0.00676782,0.00827057,0.00582850,0.000395
 78,0.00173801,0.00069890,0.00012378,-0.00043627,-0.00033752,-0.0001591
 9,-0.00008240,-0.00001898,-0.00000294,-0.00001488,0.00003012,-0.000047
 18,-0.00001899,0.00021302,-0.00022515,-0.00025951,-0.00037279,-0.00002
 767,-0.00000858,0.00005262,0.00003878,0.00001534,-0.00001644,0.0000163
 1,0.00000080,-0.00003503,0.00002161,-0.00000555,-0.00001554,0.00021115
 ,-0.00022825,-0.00014928,0.00003375,0.00048702,-0.00096379,-0.00008393
 ,-0.00009457,0.00002651,-0.00002667,0.00004487,0.00000705,0.00002675,-
 0.00004552,0.00005068,0.00000942,0.00000480,0.00002435,0.00012048,0.00
 002428,-0.00007922,-0.00001656,-0.00001358,-0.00001130,-0.00000348,-0.
 00003353,-0.00000894,-0.00001475,0.00000485,0.00002091,-0.00002864,0.0
 0000271,0.00013613,0.00008640,-0.00002261,0.00005214,-0.10111098,0.085
 50540,0.06825148,0.00009146,0.00068618,0.00068205,0.00030871,-0.000289
 09,-0.00018572,0.00006246,0.00019096,0.00012665,0.00001495,-0.00002086
 ,-0.00003484,-0.00005528,-0.00000829,-0.00007342,0.00000763,-0.0000033
 1,-0.00001303,0.00000441,0.00000440,0.00001135,-0.00001866,0.00002197,
 0.00001397,0.00001499,0.00000879,-0.00000262,-0.00000675,-0.00000783,-
 0.00000081,-0.00000789,-0.00000031,0.00000345,0.00000760,0.00001113,-0
 .00000999,-0.00000459,-0.00000359,0.00001203,-0.00000140,-0.00000880,0
 .00000330,0.00000343,-0.00000907,0.00000653,0.00000206,-0.00001948,-0.
 00001140,0.00000007,-0.00001638,0.00000886,0.00000385,-0.00001053,0.00
 000327,0.00000631,-0.00001076,-0.00000771,-0.00003055,0.00000410,0.000
 00259,-0.00004349,-0.00006547,-0.00007866,-0.00780097,0.01336799,0.013
 67178,0.10443543,-0.00123588,-0.00103034,0.00246527,-0.00729326,0.0099
 7947,0.00936646,-0.00023216,0.00147323,0.00014307,0.00036414,0.0000348
 0,-0.00014561,-0.00007531,-0.00001390,-0.00002800,0.00001406,0.0000181
 3,0.00001732,-0.00004005,-0.00001699,-0.00009618,0.00019206,-0.0000263
 7,0.00003734,0.00000460,-0.00000839,0.00003443,0.00001189,0.00000609,-
 0.00000515,0.00000823,0.00000212,-0.00002254,0.00000505,-0.00000442,-0
 .00000592,-0.00018417,0.00019559,-0.00043783,-0.00022129,0.00126694,0.
 00040677,-0.00019400,-0.00011724,-0.00018231,0.00006592,0.00003055,0.0
 0001609,0.00011163,-0.00006594,-0.00004598,-0.00001983,0.00000882,-0.0
 0000285,0.00003883,-0.00001666,-0.00004142,-0.00002799,-0.00003049,0.0
 0001387,-0.00000231,-0.00002931,0.00000720,-0.00001594,0.00001426,0.00
 001325,0.00002915,-0.00002333,-0.00000039,0.00000620,0.00012566,0.0000
 7184,0.08719420,-0.18498967,-0.11193400,-0.00037242,0.00081945,0.00060
 201,-0.00018404,-0.00007912,0.00001487,0.00008744,0.00004959,0.0002494
 3,0.00000472,-0.00001215,0.00001424,0.00001976,0.00002317,0.00002475,0
 .00000534,0.00000088,-0.00000489,-0.00000108,-0.00000150,0.00000342,-0
 .00000583,0.00001253,0.00001228,0.00000940,0.00000453,0.00000030,-0.00
 000380,0.00000038,0.00000082,-0.00000079,-0.00000280,0.00000118,0.0000
 0640,0.00000440,-0.00000463,-0.00000264,-0.00000367,0.00001023,-0.0000
 0242,-0.00000266,0.00000208,-0.00001022,0.00000517,-0.00000532,-0.0000
 1290,-0.00002312,-0.00001698,0.00000306,-0.00001632,0.00000247,-0.0000
 0062,-0.00000263,0.00000439,-0.00000238,-0.00000176,-0.00000240,-0.000
 03815,0.00000265,0.00001156,-0.00003416,-0.00006786,-0.00010238,0.0030
 9350,-0.00836466,-0.00801565,-0.09172286,0.19285801,0.00214862,0.00359
 435,-0.00408263,0.00946237,-0.01678498,-0.01408565,-0.00092996,-0.0017
 3022,0.00026719,-0.00014403,0.00054609,0.00035834,0.00012946,0.0000453
 0,-0.00007730,-0.00001508,0.00000609,-0.00001596,0.00003716,-0.0000677
 5,0.00000006,0.00011199,0.00020879,0.00000438,0.00004770,-0.00001679,-
 0.00001210,-0.00003223,0.00000597,-0.00001000,-0.00000511,0.00001495,0
 .00000830,-0.00000123,0.00000416,0.00001762,-0.00054338,0.00058260,0.0
 0074989,0.00157421,-0.00282483,0.00004795,-0.00029841,0.00042957,0.000
 02381,0.00002251,0.00000150,-0.00012077,-0.00011926,0.00008221,-0.0001
 9773,0.00001454,-0.00000392,0.00002805,0.00004247,0.00008567,-0.000028
 73,-0.00000090,0.00001110,-0.00002815,-0.00000723,-0.00002540,0.000000
 62,-0.00001090,-0.00000235,-0.00001186,-0.00003205,-0.00003049,0.00010
 144,0.00004659,0.00008196,-0.00000042,0.06751459,-0.10846857,-0.133280
 07,0.00094657,-0.00121954,-0.00074146,0.00005720,-0.00001567,0.0001067
 4,-0.00012471,0.00027587,0.00027999,0.00000275,0.00002356,-0.00001254,
 0.00000262,0.00000441,0.00000491,0.00000554,0.00000829,0.00000450,-0.0
 0001699,0.00000334,-0.00001063,0.00002192,-0.00003808,0.00001041,-0.00
 000203,-0.00000171,-0.00000209,0.00000463,0.00000519,0.00000640,-0.000
 00525,0.00000104,-0.00000506,-0.00000515,-0.00000290,0.00000035,0.0000
 0905,-0.00000317,-0.00001362,0.00000219,0.00001117,0.00000402,-0.00001
 118,0.00000106,0.00002366,-0.00000301,0.00001033,-0.00001696,-0.000007
 98,-0.00000923,0.00000163,0.00000751,-0.00001108,0.00000153,0.00001191
 ,-0.00001507,-0.00000906,0.00000051,0.00001025,-0.00000438,-0.00007099
 ,-0.00010759,-0.00005773,-0.00717413,0.01272786,0.01094216,-0.07696899
 ,0.11677317,0.14444987,0.00026925,-0.00028644,-0.00122037,-0.00907106,
 -0.00777132,-0.00380872,-0.00010516,0.00014574,0.00226016,-0.00063850,
 -0.00060003,-0.00005476,0.00023560,-0.00019635,-0.00025251,-0.00012004
 ,-0.00006811,-0.00002835,0.00021763,0.00023498,0.00025634,-0.00021578,
 -0.00073016,0.00030022,0.00005360,0.00003197,-0.00006585,-0.00002290,-
 0.00000904,0.00002374,-0.00001829,0.00000051,0.00004062,-0.00002115,0.
 00001299,0.00002208,0.00005854,0.00002831,0.00000190,-0.00032289,0.000
 08590,-0.00049922,-0.00022602,0.00079938,-0.00066806,0.00028627,-0.000
 02046,-0.00000568,0.00000158,0.00002008,-0.00002780,-0.00000663,0.0000
 0715,0.00001128,0.00004385,-0.00000245,-0.00002892,-0.00001321,-0.0000
 1054,0.00001119,0.00000248,-0.00000842,-0.00000198,-0.00000041,-0.0000
 0421,-0.00000824,-0.00000010,-0.00003042,0.00001537,0.00003159,0.00009
 019,0.00006035,-0.17758715,-0.12827263,-0.05711230,0.00030565,0.000243
 63,-0.00004306,-0.00014205,-0.00007150,0.00000274,0.,0.00032575,0.0007
 2929,-0.00005338,-0.00001637,-0.00002944,-0.00002315,-0.00003119,-0.00
 004091,-0.00001433,-0.00000394,0.00001748,0.00000652,-0.00000402,-0.00
 001578,0.00001933,-0.00001677,-0.00002486,-0.00001950,-0.00001273,0.00
 000703,0.00000885,0.00000405,-0.00000021,0.00001224,0.00000328,-0.0000
 0254,-0.00001309,-0.00001600,0.00001384,0.00000369,0.00000897,-0.00001
 985,0.00000176,0.00000624,-0.00000628,-0.00004082,0.00001941,-0.000018
 15,-0.00001046,-0.00000551,-0.00000779,-0.00000178,-0.00000539,-0.0000
 0060,-0.00000011,-0.00000360,0.00000081,0.00000234,-0.00000636,-0.0000
 0374,-0.00000333,0.00000872,0.00000571,-0.00009766,0.00000822,-0.00005
 431,-0.01193809,-0.01497112,-0.00388441,0.01116426,0.01066093,0.004305
 56,0.18800201,0.00120891,0.00065090,-0.00079358,-0.00894628,-0.0098065
 5,-0.00320405,0.00045795,-0.00039231,0.00330166,-0.00073259,-0.0001323
 1,0.00005815,0.00031997,-0.00010002,-0.00025463,-0.00014070,-0.0000254
 0,-0.00008761,-0.00006540,-0.00016227,-0.00015697,0.00032035,0.0003850
 6,-0.00029700,0.00003373,0.00005967,-0.00008556,-0.00001014,-0.0000313
 3,0.00003488,-0.00001387,-0.00001237,0.00005777,-0.00002326,0.00001493
 ,0.00001319,0.00040494,0.00032952,0.00011509,-0.00241026,-0.00157282,-
 0.00120886,0.00062862,0.00110723,-0.00042518,0.00068737,-0.00022513,0.
 00027381,-0.00006654,0.00002120,0.00005164,0.00001016,0.00004601,0.000
 01617,-0.00003640,0.00002447,0.00003826,0.00000756,0.00001214,0.000010
 95,-0.00000277,0.00003769,0.00000748,-0.00000047,0.00000808,0.00002235
 ,0.00001056,0.00008371,-0.00004868,-0.00009225,-0.00025451,-0.00008502
 ,-0.12801900,-0.17157061,-0.05689993,0.00021293,-0.00002654,0.00006649
 ,0.00005551,0.00004464,0.00009325,-0.00023522,0.00055741,0.00017435,-0
 .00001228,0.00003594,-0.00000079,-0.00001052,-0.00003661,0.00001648,-0
 .00002342,0.00000010,0.00001493,0.00000333,0.00000009,-0.00000757,0.00
 000907,-0.00001106,-0.00003950,-0.00002700,-0.00001200,0.00000348,0.00
 000798,0.00000378,-0.00000542,0.00000765,0.00000523,-0.00000418,-0.000
 01448,-0.00001680,0.00001432,-0.00000235,0.00001727,-0.00002368,0.0000
 0207,0.00000215,-0.00001077,-0.00007466,0.00008832,-0.00012638,-0.0000
 2963,0.00001226,0.00003835,0.00000010,0.00001694,-0.00000945,-0.000008
 41,0.00001412,-0.00000047,-0.00000944,0.00001676,0.00000851,0.00001514
 ,-0.00001567,-0.00000889,0.00021477,0.00005070,0.00010393,0.01095601,0
 .01145734,0.00432373,-0.01499600,-0.01198515,-0.00417651,0.14042867,0.
 18128581,-0.00014711,0.00081821,0.00187910,0.01993129,0.01820732,0.005
 66303,0.00016067,0.00149966,-0.00572756,0.00098238,0.00085775,0.000464
 46,-0.00033483,0.00028719,0.00048899,0.00022175,0.00006819,0.00010596,
 0.00012503,0.00019077,0.00006310,0.00011997,-0.00043241,0.00061661,-0.
 00005218,-0.00005476,0.00005752,0.00000522,0.00001421,-0.00002713,0.00
 000653,0.00000856,-0.00003800,0.00001232,-0.00001353,-0.00001109,-0.00
 022113,-0.00027996,0.00004394,0.00118056,0.00097223,0.00133024,-0.0000
 9948,-0.00018861,-0.00058422,-0.00058680,0.00010009,-0.00030970,0.0000
 4362,-0.00001250,-0.00003944,-0.00000079,-0.00004576,-0.00002829,-0.00
 006165,0.00001385,0.00007438,0.00003736,0.00001692,-0.00003572,0.00000
 007,0.00001007,-0.00000067,0.00002045,-0.00000504,-0.00002280,-0.00002
 607,-0.00002355,0.00000398,0.00003576,0.00000301,-0.00006633,-0.059774
 12,-0.05940467,-0.06992619,-0.00031255,0.00004251,0.00011362,-0.000003
 33,-0.00014718,-0.00005279,-0.00002891,-0.00050541,-0.00031762,0.00000
 570,-0.00003336,0.00002454,0.00006732,0.00006497,0.00004796,0.00001643
 ,-0.00000443,-0.00000978,0.00000563,-0.00000128,0.00000640,-0.00002303
 ,0.00001366,0.00003023,0.00001838,0.00000629,-0.00000172,-0.00000495,-
 0.00000558,0.,-0.00000047,-0.00000429,0.00000431,0.00001030,0.00001187
 ,-0.00000708,0.00000180,-0.00001346,0.00002016,0.00000020,-0.00000243,
 0.00000728,0.00006033,-0.00005750,0.00008337,0.00003581,-0.00000226,0.
 00001402,-0.00000127,0.00001116,0.00000294,0.00000404,-0.00000288,-0.0
 0000633,0.00000312,-0.00000249,-0.00000091,0.00002452,-0.00000521,-0.0
 0001395,-0.00003960,0.00001238,0.00009842,-0.00858534,-0.01186401,-0.0
 0454660,-0.01268195,-0.00921969,-0.00461892,0.05984897,0.05910142,0.07
 514831\\-0.00118563,-0.00046866,0.00163070,0.00021333,-0.00005466,-0.0
 0028394,-0.00351750,0.03019781,-0.00702446,-0.00196861,-0.00310988,-0.
 00808553,-0.01493077,-0.01108451,-0.00479376,0.00377329,0.00099124,0.0
 0165682,-0.00061082,-0.00617737,-0.00004132,0.01819266,-0.01065872,0.0
 1375666,-0.00045027,0.00049959,0.00307306,-0.00033353,0.00026257,-0.00
 108580,0.00083362,0.00007267,-0.00185247,-0.00244753,-0.00187182,-0.00
 352280,0.00405736,0.00069707,0.00861062,-0.00168613,0.03037399,-0.0000
 3846,-0.01674170,-0.01588855,-0.01080260,0.00084757,-0.00573748,0.0015
 2205,0.01505620,-0.00758014,0.00533398,-0.00374280,-0.00051338,-0.0018
 0867,0.00154310,0.00014242,-0.00286407,-0.00041693,-0.00372911,0.00210
 913,0.00098051,0.00169639,-0.00093741,-0.00046422,-0.00038416,0.000487
 61,0.00022794,0.00095398,-0.00029272,-0.00066272,0.00080084,-0.0004013
 3,0.00128153,-0.00080216,-0.00139602,-0.00008578,0.00030261,0.00006696
 ,0.00048048,-0.00028452,-0.00009970,0.00001000,-0.00043690,-0.00048462
 ,0.00090681,-0.00079623,0.00086896,0.00065779,0.00051232,0.00071262,0.
 00074633,0.00027071,-0.00012157,-0.00044650,0.00049518,0.00020946,-0.0
 0001659,0.00010984,0.00128450,0.00071954,0.00037391,0.00003076,0.00021
 772,0.00024878,0.00045963,-0.00046743,0.00013485,-0.00005681,0.0008784
 9,0.00154293,0.00085768,-0.00004851,-0.00234306,0.00351001,0.00144840,
 0.00112672,0.00092878,-0.00053759,0.00045385,-0.00081631,-0.00062669,-
 0.00120593,-0.00077309,-0.00154193,0.00006405,0.00007057,-0.00058081,0
 .00032920,0.00043817,-0.00006932,0.00018528,-0.00009770,0.00002447,0.0
 0004188,0.00010501,0.00067839,0.00068275,-0.00031549,0.00003016,-0.000
 30939,0.00053641,0.00020486,0.00025718,-0.00046042,-0.00043025,-0.0003
 8400,0.00019692\\\@

 Writing a WFNX file to "05_lig_b.wfx"


 EDUCATION IS NOT TRAINING BUT RATHER THE PROCESS THAT EQUIPS YOU TO
 ENTERTAIN YOURSELF, A FRIEND, OR AN IDEA.  -- WALLACE STERLING
 Job cpu time:       0 days  4 hours 56 minutes 35.4 seconds.
 Elapsed time:       0 days  0 hours 37 minutes  4.9 seconds.
 File lengths (MBytes):  RWF=   1069 Int=      0 D2E=      0 Chk=     15 Scr=      1
 Normal termination of Gaussian 16 at Thu Nov  3 08:41:25 2022.
