 Entering Gaussian System, Link 0=g16
 Initial command:
 /software/gaussian/G16-A.03/avx/g16/l1.exe "/scratch/lcmd/1361336.slurm/Gau-55463.inp" -scrdir="/scratch/lcmd/1361336.slurm/"
 Entering Link 1 = /software/gaussian/G16-A.03/avx/g16/l1.exe PID=     55465.
  
 Copyright (c) 1988,1990,1992,1993,1995,1998,2003,2009,2016,
            Gaussian, Inc.  All Rights Reserved.
  
 This is part of the Gaussian(R) 16 program.  It is based on
 the Gaussian(R) 09 system (copyright 2009, Gaussian, Inc.),
 the Gaussian(R) 03 system (copyright 2003, Gaussian, Inc.),
 the Gaussian(R) 98 system (copyright 1998, Gaussian, Inc.),
 the Gaussian(R) 94 system (copyright 1995, Gaussian, Inc.),
 the Gaussian 92(TM) system (copyright 1992, Gaussian, Inc.),
 the Gaussian 90(TM) system (copyright 1990, Gaussian, Inc.),
 the Gaussian 88(TM) system (copyright 1988, Gaussian, Inc.),
 the Gaussian 86(TM) system (copyright 1986, Carnegie Mellon
 University), and the Gaussian 82(TM) system (copyright 1983,
 Carnegie Mellon University). Gaussian is a federally registered
 trademark of Gaussian, Inc.
  
 This software contains proprietary and confidential information,
 including trade secrets, belonging to Gaussian, Inc.
  
 This software is provided under written license and may be
 used, copied, transmitted, or stored only in accord with that
 written license.
  
 The following legend is applicable only to US Government
 contracts under FAR:
  
                    RESTRICTED RIGHTS LEGEND
  
 Use, reproduction and disclosure by the US Government is
 subject to restrictions as set forth in subparagraphs (a)
 and (c) of the Commercial Computer Software - Restricted
 Rights clause in FAR 52.227-19.
  
 Gaussian, Inc.
 340 Quinnipiac St., Bldg. 40, Wallingford CT 06492
  
  
 ---------------------------------------------------------------
 Warning -- This program may not be used in any manner that
 competes with the business of Gaussian, Inc. or will provide
 assistance to any competitor of Gaussian, Inc.  The licensee
 of this program is prohibited from giving any competitor of
 Gaussian, Inc. access to this program.  By using this program,
 the user acknowledges that Gaussian, Inc. is engaged in the
 business of creating and licensing software in the field of
 computational chemistry and represents and warrants to the
 licensee that it is not a competitor of Gaussian, Inc. and that
 it will not use this program in any manner prohibited above.
 ---------------------------------------------------------------
  

 Cite this work as:
 Gaussian 16, Revision A.03,
 M. J. Frisch, G. W. Trucks, H. B. Schlegel, G. E. Scuseria, 
 M. A. Robb, J. R. Cheeseman, G. Scalmani, V. Barone, 
 G. A. Petersson, H. Nakatsuji, X. Li, M. Caricato, A. V. Marenich, 
 J. Bloino, B. G. Janesko, R. Gomperts, B. Mennucci, H. P. Hratchian, 
 J. V. Ortiz, A. F. Izmaylov, J. L. Sonnenberg, D. Williams-Young, 
 F. Ding, F. Lipparini, F. Egidi, J. Goings, B. Peng, A. Petrone, 
 T. Henderson, D. Ranasinghe, V. G. Zakrzewski, J. Gao, N. Rega, 
 G. Zheng, W. Liang, M. Hada, M. Ehara, K. Toyota, R. Fukuda, 
 J. Hasegawa, M. Ishida, T. Nakajima, Y. Honda, O. Kitao, H. Nakai, 
 T. Vreven, K. Throssell, J. A. Montgomery, Jr., J. E. Peralta, 
 F. Ogliaro, M. J. Bearpark, J. J. Heyd, E. N. Brothers, K. N. Kudin, 
 V. N. Staroverov, T. A. Keith, R. Kobayashi, J. Normand, 
 K. Raghavachari, A. P. Rendell, J. C. Burant, S. S. Iyengar, 
 J. Tomasi, M. Cossi, J. M. Millam, M. Klene, C. Adamo, R. Cammi, 
 J. W. Ochterski, R. L. Martin, K. Morokuma, O. Farkas, 
 J. B. Foresman, and D. J. Fox, Gaussian, Inc., Wallingford CT, 2016.
 
 ******************************************
 Gaussian 16:  ES64L-G16RevA.03 25-Dec-2016
                 3-Nov-2022 
 ******************************************
 %nprocs=8
 Will use up to    8 processors via shared memory.
 %mem=32000MB
 %chk=06_lig_b.chk
 ----------------------------------------------------------------------
 #p pop=(regular,nbo,savenbos) freq=noraman def2svp empiricaldispersion
 =gd3bj output=wfx pbe1pbe
 ----------------------------------------------------------------------
 1/10=4,30=1,38=1/1,3;
 2/12=2,17=6,18=5,40=1/2;
 3/5=43,7=101,11=2,25=1,30=1,71=2,74=-13,124=41,140=1/1,2,3;
 4//1;
 5/5=2,38=5,98=1/2;
 8/6=4,10=90,11=11/1;
 11/6=1,8=1,9=11,15=111,16=1/1,2,10;
 10/6=1/2;
 6/28=1,40=1,73=1/1,7;
 7/8=1,10=1,25=1/1,2,3,16;
 1/10=4,30=1/3;
 99/6=200/99;
 Leave Link    1 at Thu Nov  3 08:04:19 2022, MaxMem=  4194304000 cpu:               0.7 elap:               0.1
 (Enter /software/gaussian/G16-A.03/avx/g16/l101.exe)
 --------
 06_lig_b
 --------
 Symbolic Z-matrix:
 Charge =  0 Multiplicity = 1
 C                     4.37638   0.53456  -0.79856 
 C                     2.89406   0.2031   -0.98518 
 C                     2.1247    0.80175   0.21047 
 H                     2.46197   0.28783   1.12646 
 C                     2.1995    2.3339    0.37165 
 O                     0.82439   2.75815   0.44634 
 C                     0.07306   1.67388   0.28796 
 N                     0.68483   0.56717   0.13185 
 N                    -1.8235   -0.42191  -0.44619 
 C                    -2.16956   0.79734  -0.30445 
 C                    -1.41451   1.86578   0.44834 
 C                    -1.71074   1.66778   1.95561 
 C                    -1.84001   3.25989  -0.01569 
 O                    -3.35225   1.14567  -0.80444 
 C                    -3.92796  -0.03626  -1.40126 
 C                    -2.87516  -1.13076  -1.16018 
 C                     2.38088   0.77038  -2.30838 
 C                     2.71612  -1.31769  -0.98086 
 H                     4.97162   0.09742  -1.61446 
 H                     4.75568   0.12333   0.15019 
 H                     4.56621   1.62029  -0.80149 
 H                     2.65944   2.8468   -0.48503 
 H                     2.70163   2.65536   1.29337 
 H                    -1.30808   0.70578   2.30823 
 H                    -2.79528   1.70322   2.13226 
 H                    -1.23495   2.4761    2.52884 
 H                    -1.64264   3.40591  -1.08716 
 H                    -1.28373   4.02059   0.54535 
 H                    -2.91449   3.39783   0.1572 
 H                    -4.11083   0.18031  -2.46308 
 H                    -4.88981  -0.22788  -0.90529 
 H                    -2.45975  -1.57314  -2.07681 
 H                    -3.22545  -1.9729   -0.54686 
 H                     2.91766   0.31044  -3.15195 
 H                     2.52481   1.86016  -2.38763 
 H                     1.30907   0.55394  -2.43728 
 H                     3.38622  -1.77888  -1.72283 
 H                     1.69151  -1.62627  -1.2449 
 H                     2.9375   -1.75026   0.0063 
 
 ITRead=  0  0  0  0  0  0  0  0  0  0  0  0  0  0  0  0  0  0  0  0
 ITRead=  0  0  0  0  0  0  0  0  0  0  0  0  0  0  0  0  0  0  0
 MicOpt= -1 -1 -1 -1 -1 -1 -1 -1 -1 -1 -1 -1 -1 -1 -1 -1 -1 -1 -1 -1
 MicOpt= -1 -1 -1 -1 -1 -1 -1 -1 -1 -1 -1 -1 -1 -1 -1 -1 -1 -1 -1
 NAtoms=     39 NQM=       39 NQMF=       0 NMMI=      0 NMMIF=      0
                NMic=       0 NMicF=      0.
                    Isotopes and Nuclear Properties:
 (Nuclear quadrupole moments (NQMom) in fm**2, nuclear magnetic moments (NMagM)
  in nuclear magnetons)

  Atom         1           2           3           4           5           6           7           8           9          10
 IAtWgt=          12          12          12           1          12          16          12          14          14          12
 AtmWgt=  12.0000000  12.0000000  12.0000000   1.0078250  12.0000000  15.9949146  12.0000000  14.0030740  14.0030740  12.0000000
 NucSpn=           0           0           0           1           0           0           0           2           2           0
 AtZEff=  -0.0000000  -0.0000000  -0.0000000  -0.0000000  -0.0000000  -0.0000000  -0.0000000  -0.0000000  -0.0000000  -0.0000000
 NQMom=    0.0000000   0.0000000   0.0000000   0.0000000   0.0000000   0.0000000   0.0000000   2.0440000   2.0440000   0.0000000
 NMagM=    0.0000000   0.0000000   0.0000000   2.7928460   0.0000000   0.0000000   0.0000000   0.4037610   0.4037610   0.0000000
 AtZNuc=   6.0000000   6.0000000   6.0000000   1.0000000   6.0000000   8.0000000   6.0000000   7.0000000   7.0000000   6.0000000

  Atom        11          12          13          14          15          16          17          18          19          20
 IAtWgt=          12          12          12          16          12          12          12          12           1           1
 AtmWgt=  12.0000000  12.0000000  12.0000000  15.9949146  12.0000000  12.0000000  12.0000000  12.0000000   1.0078250   1.0078250
 NucSpn=           0           0           0           0           0           0           0           0           1           1
 AtZEff=  -0.0000000  -0.0000000  -0.0000000  -0.0000000  -0.0000000  -0.0000000  -0.0000000  -0.0000000  -0.0000000  -0.0000000
 NQMom=    0.0000000   0.0000000   0.0000000   0.0000000   0.0000000   0.0000000   0.0000000   0.0000000   0.0000000   0.0000000
 NMagM=    0.0000000   0.0000000   0.0000000   0.0000000   0.0000000   0.0000000   0.0000000   0.0000000   2.7928460   2.7928460
 AtZNuc=   6.0000000   6.0000000   6.0000000   8.0000000   6.0000000   6.0000000   6.0000000   6.0000000   1.0000000   1.0000000

  Atom        21          22          23          24          25          26          27          28          29          30
 IAtWgt=           1           1           1           1           1           1           1           1           1           1
 AtmWgt=   1.0078250   1.0078250   1.0078250   1.0078250   1.0078250   1.0078250   1.0078250   1.0078250   1.0078250   1.0078250
 NucSpn=           1           1           1           1           1           1           1           1           1           1
 AtZEff=  -0.0000000  -0.0000000  -0.0000000  -0.0000000  -0.0000000  -0.0000000  -0.0000000  -0.0000000  -0.0000000  -0.0000000
 NQMom=    0.0000000   0.0000000   0.0000000   0.0000000   0.0000000   0.0000000   0.0000000   0.0000000   0.0000000   0.0000000
 NMagM=    2.7928460   2.7928460   2.7928460   2.7928460   2.7928460   2.7928460   2.7928460   2.7928460   2.7928460   2.7928460
 AtZNuc=   1.0000000   1.0000000   1.0000000   1.0000000   1.0000000   1.0000000   1.0000000   1.0000000   1.0000000   1.0000000

  Atom        31          32          33          34          35          36          37          38          39
 IAtWgt=           1           1           1           1           1           1           1           1           1
 AtmWgt=   1.0078250   1.0078250   1.0078250   1.0078250   1.0078250   1.0078250   1.0078250   1.0078250   1.0078250
 NucSpn=           1           1           1           1           1           1           1           1           1
 AtZEff=  -0.0000000  -0.0000000  -0.0000000  -0.0000000  -0.0000000  -0.0000000  -0.0000000  -0.0000000  -0.0000000
 NQMom=    0.0000000   0.0000000   0.0000000   0.0000000   0.0000000   0.0000000   0.0000000   0.0000000   0.0000000
 NMagM=    2.7928460   2.7928460   2.7928460   2.7928460   2.7928460   2.7928460   2.7928460   2.7928460   2.7928460
 AtZNuc=   1.0000000   1.0000000   1.0000000   1.0000000   1.0000000   1.0000000   1.0000000   1.0000000   1.0000000
 Leave Link  101 at Thu Nov  3 08:04:19 2022, MaxMem=  4194304000 cpu:               0.8 elap:               0.1
 (Enter /software/gaussian/G16-A.03/avx/g16/l103.exe)

 GradGradGradGradGradGradGradGradGradGradGradGradGradGradGradGradGradGrad
 Berny optimization.
 Initialization pass.
 Trust Radius=3.00D-01 FncErr=1.00D-07 GrdErr=1.00D-07 EigMax=2.50D+02 EigMin=1.00D-04
 Number of steps in this run=      2 maximum allowed number of steps=      2.
 GradGradGradGradGradGradGradGradGradGradGradGradGradGradGradGradGradGrad

 Leave Link  103 at Thu Nov  3 08:04:19 2022, MaxMem=  4194304000 cpu:               0.4 elap:               0.1
 (Enter /software/gaussian/G16-A.03/avx/g16/l202.exe)
                          Input orientation:                          
 ---------------------------------------------------------------------
 Center     Atomic      Atomic             Coordinates (Angstroms)
 Number     Number       Type             X           Y           Z
 ---------------------------------------------------------------------
      1          6           0        4.376380    0.534560   -0.798560
      2          6           0        2.894060    0.203100   -0.985180
      3          6           0        2.124700    0.801750    0.210470
      4          1           0        2.461970    0.287830    1.126460
      5          6           0        2.199500    2.333900    0.371650
      6          8           0        0.824390    2.758150    0.446340
      7          6           0        0.073060    1.673880    0.287960
      8          7           0        0.684830    0.567170    0.131850
      9          7           0       -1.823500   -0.421910   -0.446190
     10          6           0       -2.169560    0.797340   -0.304450
     11          6           0       -1.414510    1.865780    0.448340
     12          6           0       -1.710740    1.667780    1.955610
     13          6           0       -1.840010    3.259890   -0.015690
     14          8           0       -3.352250    1.145670   -0.804440
     15          6           0       -3.927960   -0.036260   -1.401260
     16          6           0       -2.875160   -1.130760   -1.160180
     17          6           0        2.380880    0.770380   -2.308380
     18          6           0        2.716120   -1.317690   -0.980860
     19          1           0        4.971620    0.097420   -1.614460
     20          1           0        4.755680    0.123330    0.150190
     21          1           0        4.566210    1.620290   -0.801490
     22          1           0        2.659440    2.846800   -0.485030
     23          1           0        2.701630    2.655360    1.293370
     24          1           0       -1.308080    0.705780    2.308230
     25          1           0       -2.795280    1.703220    2.132260
     26          1           0       -1.234950    2.476100    2.528840
     27          1           0       -1.642640    3.405910   -1.087160
     28          1           0       -1.283730    4.020590    0.545350
     29          1           0       -2.914490    3.397830    0.157200
     30          1           0       -4.110830    0.180310   -2.463080
     31          1           0       -4.889810   -0.227880   -0.905290
     32          1           0       -2.459750   -1.573140   -2.076810
     33          1           0       -3.225450   -1.972900   -0.546860
     34          1           0        2.917660    0.310440   -3.151950
     35          1           0        2.524810    1.860160   -2.387630
     36          1           0        1.309070    0.553940   -2.437280
     37          1           0        3.386220   -1.778880   -1.722830
     38          1           0        1.691510   -1.626270   -1.244900
     39          1           0        2.937500   -1.750260    0.006300
 ---------------------------------------------------------------------
                    Distance matrix (angstroms):
                    1          2          3          4          5
     1  C    0.000000
     2  C    1.530348   0.000000
     3  C    2.481853   1.542685   0.000000
     4  H    2.726086   2.157059   1.103133   0.000000
     5  C    3.057094   2.619868   1.542419   2.196595   0.000000
     6  O    4.371586   3.586233   2.360920   3.040841   1.441005
     7  C    4.582264   3.426678   2.230660   2.886366   2.228088
     8  N    3.807134   2.502199   1.460970   2.055604   2.339458
     9  N    6.283113   4.789209   4.185311   4.619763   4.944480
    10  C    6.569820   5.143614   4.325024   4.874236   4.680471
    11  C    6.071352   4.835624   3.703343   4.239914   3.645008
    12  C    6.776627   5.656652   4.301874   4.472500   4.271138
    13  C    6.832555   5.717980   4.670388   5.352072   4.162347
    14  O    7.752755   6.319612   5.580798   6.186228   5.798017
    15  C    8.345726   6.838887   6.319385   6.879361   6.804898
    16  C    7.449087   5.923994   5.532800   5.977129   6.332657
    17  C    2.513402   1.528404   2.532038   3.469518   3.108063
    18  C    2.494098   1.531171   2.502213   2.661406   3.928141
    19  H    1.100498   2.173342   3.454186   3.721188   4.078128
    20  H    1.101411   2.181985   2.717709   2.498253   3.386698
    21  H    1.102204   2.199603   2.766775   3.149646   2.736204
    22  H    2.897005   2.700805   2.225286   3.030548   1.099323
    23  H    3.417419   3.352969   2.222924   2.385476   1.097743
    24  H    6.480320   5.362576   4.024150   3.972976   4.324839
    25  H    7.835061   6.658632   5.358370   5.536573   5.333417
    26  H    6.806482   5.879081   4.411976   4.519116   4.058218
    27  H    6.675069   5.554281   4.760078   5.609845   4.247278
    28  H    6.781987   5.862566   4.700050   5.319911   3.874014
    29  H    7.891044   6.726856   5.668854   6.286325   5.227890
    30  H    8.656145   7.159133   6.812921   7.489864   7.245268
    31  H    9.298117   7.796202   7.176936   7.644778   7.645365
    32  H    7.266980   5.745430   5.647029   6.160152   6.555038
    33  H    8.008653   6.509647   6.074235   6.344891   6.987293
    34  H    2.777866   2.169556   3.489418   4.302669   4.126245
    35  H    2.776809   2.202058   2.833804   3.850325   2.818489
    36  H    3.477667   2.178044   2.781590   3.755028   3.442559
    37  H    2.680801   2.171312   3.462475   3.639228   4.765513
    38  H    3.475188   2.204581   2.863745   3.143364   4.307463
    39  H    2.817548   2.191012   2.686091   2.373752   4.166352
                    6          7          8          9         10
     6  O    0.000000
     7  C    1.328617   0.000000
     8  N    2.217831   1.274143   0.000000
     9  N    4.233286   2.920317   2.757558   0.000000
    10  C    3.656802   2.479640   2.896701   1.275311   0.000000
    11  C    2.410187   1.508447   2.488731   2.490177   1.509423
    12  C    3.145423   2.441933   3.205651   3.185618   2.464965
    13  C    2.750317   2.503491   3.694229   3.706920   2.501227
    14  O    4.648534   3.633881   4.184413   2.218722   1.330443
    15  C    5.814395   4.667569   4.898202   2.342997   2.233798
    16  C    5.602785   4.319157   4.150402   1.455417   2.224346
    17  C    3.736626   3.589335   2.978691   4.750381   4.972219
    18  C    4.714659   4.188694   2.986128   4.657944   5.366633
    19  H    5.340964   5.486376   4.652616   6.914348   7.294002
    20  H    4.741837   4.934584   4.095015   6.628617   6.972800
    21  H    4.105243   4.623653   4.128595   6.717530   6.804035
    22  H    2.059786   2.943232   3.078366   5.548218   5.249013
    23  H    2.062051   2.980526   3.126843   5.742165   5.452867
    24  H    3.496611   2.631778   2.954240   3.020624   2.752567
    25  H    4.130038   3.410231   4.171740   3.479790   2.673892
    26  H    2.942319   2.715877   3.615955   4.194718   3.423341
    27  H    2.976147   2.799019   3.868016   3.885326   2.773971
    28  H    2.459213   2.722899   3.996539   4.583700   3.449086
    29  H    3.804210   3.451747   4.579125   4.018053   2.744192
    30  H    6.282227   5.225314   5.466414   3.108439   2.967986
    31  H    6.587515   5.447074   5.725764   3.106554   2.968475
    32  H    5.992657   4.748726   4.398578   2.095010   2.973995
    33  H    6.306384   4.987594   4.711995   2.093124   2.974541
    34  H    4.829157   4.667301   3.979294   5.507819   5.850225
    35  H    3.424792   3.633808   3.377148   5.280609   5.244648
    36  H    3.661792   3.195140   2.643914   3.837931   4.087673
    37  H    5.643838   5.190555   4.030049   5.532844   6.286128
    38  H    4.778632   3.982465   2.778493   3.800489   4.654696
    39  H    4.998463   4.473151   3.234311   4.963505   5.715671
                   11         12         13         14         15
    11  C    0.000000
    12  C    1.548812   0.000000
    13  C    1.529679   2.537232   0.000000
    14  O    2.417199   3.253464   2.716417   0.000000
    15  C    3.654615   4.369027   4.140525   1.443813   0.000000
    16  C    3.701363   4.346935   4.653945   2.352934   1.537673
    17  C    4.817094   5.977315   5.410176   5.938978   6.424562
    18  C    5.407328   6.093683   6.530246   6.551670   6.779572
    19  H    6.940093   7.737271   7.678254   8.428628   8.903137
    20  H    6.418432   6.889082   7.305385   8.227699   8.822589
    21  H    6.114847   6.855943   6.659236   7.932672   8.674953
    22  H    4.293093   5.142498   4.542684   6.255900   7.248817
    23  H    4.275526   4.569780   4.765038   6.582510   7.645738
    24  H    2.194566   1.100872   3.493856   3.749780   4.601599
    25  H    2.183698   1.099404   2.819477   3.040606   4.098112
    26  H    2.175595   1.099250   2.730395   4.166984   5.386088
    27  H    2.186734   3.504880   1.099238   2.848049   4.143655
    28  H    2.160954   2.776128   1.096758   3.790234   5.219126
    29  H    2.163765   2.770625   1.097008   2.487692   3.904983
    30  H    4.311301   5.243836   4.542043   2.063601   1.099002
    31  H    4.277083   4.678115   4.717755   2.064195   1.099027
    32  H    4.392617   5.227331   5.290602   3.131678   2.230249
    33  H    4.359517   4.670252   5.439088   3.131757   2.230268
    34  H    5.843703   7.025071   6.416448   6.746865   7.074435
    35  H    4.853967   6.069648   5.161104   6.128362   6.797615
    36  H    4.179188   5.445858   4.806555   4.974356   5.371048
    37  H    6.406601   7.168639   7.457681   7.402933   7.525780
    38  H    4.970798   5.715709   6.152816   5.772103   5.842176
    39  H    5.675486   6.090069   6.922910   6.971705   7.214815
                   16         17         18         19         20
    16  C    0.000000
    17  C    5.706019   0.000000
    18  C    5.597277   2.496944   0.000000
    19  H    7.955297   2.765201   2.737018   0.000000
    20  H    7.843439   3.478924   2.741463   1.778002   0.000000
    21  H    7.941720   2.787244   3.476598   1.773249   1.783951
    22  H    6.848986   2.777359   4.194286   3.765751   3.494999
    23  H    7.173228   4.077822   4.577932   4.489030   3.455019
    24  H    4.225930   5.909796   5.577341   7.429147   6.462629
    25  H    4.344880   6.883466   7.013768   8.771616   7.965027
    26  H    5.413741   6.275540   6.505520   7.832405   6.861571
    27  H    4.701682   4.962470   6.428257   7.414350   7.296908
    28  H    5.654900   5.668951   6.842905   7.693208   7.198560
    29  H    4.716478   6.404961   7.432031   8.730534   8.339899
    30  H    2.223361   6.520308   7.144804   9.122386   9.243778
    31  H    2.222381   7.471822   7.683981   9.892247   9.709421
    32  H    1.099307   5.383067   5.296791   7.630845   7.739507
    33  H    1.099120   6.485328   5.993322   8.521617   8.281213
    34  H    6.292930   1.100585   2.721224   2.574491   3.783841
    35  H    6.293799   1.102097   3.480565   3.113185   3.799196
    36  H    4.687961   1.101017   2.757526   3.781496   4.331229
    37  H    6.319930   2.802196   1.101022   2.458808   3.000338
    38  H    4.594255   2.711116   1.102164   3.723816   3.794274
    39  H    5.960828   3.467160   1.100278   3.190365   2.614732
                   21         22         23         24         25
    21  H    0.000000
    22  H    2.289158   0.000000
    23  H    2.989392   1.789172   0.000000
    24  H    6.709245   5.303535   4.572590   0.000000
    25  H    7.924980   6.157268   5.641483   1.799338   0.000000
    26  H    6.743661   4.938330   4.129792   1.785511   1.785847
    27  H    6.466828   4.379847   5.010282   4.351012   3.820000
    28  H    6.465077   4.241233   4.278607   3.754505   3.189556
    29  H    7.748523   5.637800   5.777798   3.801923   2.605144
    30  H    8.951282   7.540518   8.163725   5.558500   5.016680
    31  H    9.635498   8.162196   8.412915   4.901757   4.164482
    32  H    7.822311   6.948075   7.475170   5.074288   5.344472
    33  H    8.584044   7.606922   7.741932   4.359263   4.569091
    34  H    3.155644   3.689480   5.030526   6.915688   7.905719
    35  H    2.596284   2.147433   3.770062   6.170473   6.982649
    36  H    3.797614   3.300301   4.502548   5.421475   6.248778
    37  H    3.714243   4.843271   5.406349   6.667791   8.074508
    38  H    4.358975   4.639251   5.078928   5.201993   6.528553
    39  H    3.829599   4.631596   4.595832   5.418114   7.022179
                   26         27         28         29         30
    26  H    0.000000
    27  H    3.755824   0.000000
    28  H    2.514371   1.780937   0.000000
    29  H    3.048789   1.779354   1.788259   0.000000
    30  H    6.201661   4.288311   5.638342   4.318510   0.000000
    31  H    5.697610   4.876640   5.758269   4.263396   1.788893
    32  H    6.253678   5.141791   6.288765   5.468833   2.439233
    33  H    5.763300   5.632833   6.394147   5.425600   3.015313
    34  H    7.362447   5.885714   6.714679   7.382169   7.063367
    35  H    6.219876   4.631221   5.270181   6.198917   6.845386
    36  H    5.901617   4.320781   5.257029   5.714674   5.432824
    37  H    7.585299   7.250900   7.783760   8.368500   7.784096
    38  H    6.295611   6.038566   6.629033   6.958642   6.197971
    39  H    6.452493   6.982795   7.170221   7.795601   7.713877
                   31         32         33         34         35
    31  H    0.000000
    32  H    3.014527   0.000000
    33  H    2.437962   1.756944   0.000000
    34  H    8.142104   5.798305   7.052513   0.000000
    35  H    7.844350   6.060528   7.151662   1.772046   0.000000
    36  H    6.433067   4.342627   5.524534   1.776966   1.785133
    37  H    8.459707   5.860290   6.718239   2.574333   3.798236
    38  H    6.736810   4.234130   4.978344   2.981800   3.762368
    39  H    8.025922   5.788007   6.191729   3.771130   4.351591
                   36         37         38         39
    36  H    0.000000
    37  H    3.204222   0.000000
    38  H    2.514229   1.767413   0.000000
    39  H    3.732587   1.786634   1.770132   0.000000
 Stoichiometry    C13H22N2O2
 Framework group  C1[X(C13H22N2O2)]
 Deg. of freedom   111
 Full point group                 C1      NOp   1
 Largest Abelian subgroup         C1      NOp   1
 Largest concise Abelian subgroup C1      NOp   1
                         Standard orientation:                         
 ---------------------------------------------------------------------
 Center     Atomic      Atomic             Coordinates (Angstroms)
 Number     Number       Type             X           Y           Z
 ---------------------------------------------------------------------
      1          6           0        4.407953    0.293613    0.060561
      2          6           0        2.951695    0.763226    0.087794
      3          6           0        2.093540   -0.328097   -0.584858
      4          1           0        2.395343   -0.396670   -1.643685
      5          6           0        2.104163   -1.715765    0.088433
      6          8           0        0.712774   -2.030835    0.291562
      7          6           0        0.011043   -0.982874   -0.126258
      8          7           0        0.669925   -0.000145   -0.599077
      9          7           0       -1.763843    1.295693   -0.557732
     10          6           0       -2.160814    0.209015   -0.021110
     11          6           0       -1.489216   -1.139467   -0.115508
     12          6           0       -1.864947   -1.749147   -1.488801
     13          6           0       -1.936616   -2.049747    1.029542
     14          8           0       -3.324253    0.249835    0.622958
     15          6           0       -3.821906    1.601225    0.519609
     16          6           0       -2.746442    2.337120   -0.296647
     17          6           0        2.496058    1.012218    1.525297
     18          6           0        2.828185    2.060210   -0.716607
     19          1           0        5.064645    1.058295    0.502276
     20          1           0        4.746128    0.118190   -0.972865
     21          1           0        4.558770   -0.636244    0.632816
     22          1           0        2.594328   -1.726198    1.072375
     23          1           0        2.540304   -2.505146   -0.537426
     24          1           0       -1.449304   -1.144765   -2.309704
     25          1           0       -2.958467   -1.806327   -1.586948
     26          1           0       -1.452286   -2.765475   -1.560480
     27          1           0       -1.682888   -1.620002    2.008964
     28          1           0       -1.441246   -3.024201    0.940520
     29          1           0       -3.023540   -2.192393    0.988610
     30          1           0       -3.950614    1.989272    1.539736
     31          1           0       -4.803402    1.560414    0.026802
     32          1           0       -2.263146    3.170359    0.233083
     33          1           0       -3.101374    2.748243   -1.252192
     34          1           0        3.096840    1.814381    1.980141
     35          1           0        2.605354    0.122006    2.165760
     36          1           0        1.441914    1.328914    1.552182
     37          1           0        3.556142    2.801690   -0.352552
     38          1           0        1.832243    2.523414   -0.625468
     39          1           0        3.007343    1.892217   -1.789124
 ---------------------------------------------------------------------
 Rotational constants (GHZ):           0.7935510           0.3086265           0.2534741
 Leave Link  202 at Thu Nov  3 08:04:19 2022, MaxMem=  4194304000 cpu:               0.6 elap:               0.1
 (Enter /software/gaussian/G16-A.03/avx/g16/l301.exe)
 Standard basis: def2SVP (5D, 7F)
 Ernie: Thresh=  0.10000D-02 Tol=  0.10000D-05 Strict=F.
 There are   365 symmetry adapted cartesian basis functions of A   symmetry.
 There are   348 symmetry adapted basis functions of A   symmetry.
   348 basis functions,   579 primitive gaussians,   365 cartesian basis functions
    65 alpha electrons       65 beta electrons
       nuclear repulsion energy      1331.5357300391 Hartrees.
 IExCor= 1009 DFT=T Ex+Corr=PBE1PBE ExCW=0 ScaHFX=  0.250000
 ScaDFX=  0.750000  0.750000  1.000000  1.000000 ScalE2=  1.000000  1.000000
 IRadAn=      5 IRanWt=     -1 IRanGd=            0 ICorTp=0 IEmpDi=141
 NAtoms=   39 NActive=   39 NUniq=   39 SFac= 1.00D+00 NAtFMM=   60 NAOKFM=F Big=F
 Integral buffers will be    131072 words long.
 Raffenetti 2 integral format.
 Two-electron integral symmetry is turned on.
 R6Disp:  Grimme-D3(BJ) Dispersion energy=       -0.0389705436 Hartrees.
 Nuclear repulsion after empirical dispersion term =     1331.4967594955 Hartrees.
 Leave Link  301 at Thu Nov  3 08:04:20 2022, MaxMem=  4194304000 cpu:               0.8 elap:               0.2
 (Enter /software/gaussian/G16-A.03/avx/g16/l302.exe)
 NPDir=0 NMtPBC=     1 NCelOv=     1 NCel=       1 NClECP=     1 NCelD=      1
         NCelK=      1 NCelE2=     1 NClLst=     1 CellRange=     0.0.
 One-electron integrals computed using PRISM.
 One-electron integral symmetry used in STVInt
   1 Symmetry operations used in ECPInt.
 ECPInt:  NShTT=   14196 NPrTT=   49742 LenC2=   13314 LenP2D=   33622.
 LDataN:  DoStor=T MaxTD1= 4 Len=   56
 NBasis=   348 RedAO= T EigKep=  6.36D-04  NBF=   348
 NBsUse=   348 1.00D-06 EigRej= -1.00D+00 NBFU=   348
 Precomputing XC quadrature grid using
 IXCGrd= 4 IRadAn=           5 IRanWt=          -1 IRanGd=           0 AccXCQ= 0.00D+00.
 Generated NRdTot=       0 NPtTot=           0 NUsed=           0 NTot=          32
 NSgBfM=   364   364   364   364   364 MxSgAt=    39 MxSgA2=    39.
 Leave Link  302 at Thu Nov  3 08:04:21 2022, MaxMem=  4194304000 cpu:               9.2 elap:               1.4
 (Enter /software/gaussian/G16-A.03/avx/g16/l303.exe)
 DipDrv:  MaxL=1.
 Leave Link  303 at Thu Nov  3 08:04:21 2022, MaxMem=  4194304000 cpu:               1.4 elap:               0.2
 (Enter /software/gaussian/G16-A.03/avx/g16/l401.exe)
 ExpMin= 1.22D-01 ExpMax= 2.27D+03 ExpMxC= 3.41D+02 IAcc=3 IRadAn=         5 AccDes= 0.00D+00
 Harris functional with IExCor= 1009 and IRadAn=       5 diagonalized for initial guess.
 HarFok:  IExCor= 1009 AccDes= 0.00D+00 IRadAn=         5 IDoV= 1 UseB2=F ITyADJ=14
 ICtDFT=  3500011 ScaDFX=  1.000000  1.000000  1.000000  1.000000
 FoFCou: FMM=F IPFlag=           0 FMFlag=      100000 FMFlg1=           0
         NFxFlg=           0 DoJE=T BraDBF=F KetDBF=T FulRan=T
         wScrn=  0.000000 ICntrl=       500 IOpCl=  0 I1Cent=   200000004 NGrid=           0
         NMat0=    1 NMatS0=      1 NMatT0=    0 NMatD0=    1 NMtDS0=    0 NMtDT0=    0
 Petite list used in FoFCou.
 Harris En= -767.355623009999    
 JPrj=0 DoOrth=F DoCkMO=F.
 Leave Link  401 at Thu Nov  3 08:04:26 2022, MaxMem=  4194304000 cpu:              31.1 elap:               5.1
 (Enter /software/gaussian/G16-A.03/avx/g16/l502.exe)
 Integral symmetry usage will be decided dynamically.
 Closed shell SCF:
 Using DIIS extrapolation, IDIIS=  1040.
 NGot=  4194304000 LenX=  4194030543 LenY=  4193896877
 Requested convergence on RMS density matrix=1.00D-08 within 128 cycles.
 Requested convergence on MAX density matrix=1.00D-06.
 Requested convergence on             energy=1.00D-06.
 No special actions if energy rises.
 Fock matrices will be formed incrementally for  20 cycles.
 Integral accuracy reduced to 1.0D-05 until final iterations.

 Cycle   1  Pass 0  IDiag  1:
 FoFJK:  IHMeth= 1 ICntrl=       0 DoSepK=F KAlg= 0 I1Cent=           0 FoldK=F
 IRaf= 870000000 NMat=       1 IRICut=       1 DoRegI=T DoRafI=F ISym2E= 0 IDoP0=0 IntGTp=1.
 FoFCou: FMM=F IPFlag=           0 FMFlag=      100000 FMFlg1=           0
         NFxFlg=           0 DoJE=F BraDBF=F KetDBF=F FulRan=T
         wScrn=  0.000000 ICntrl=         0 IOpCl=  0 I1Cent=           0 NGrid=           0
         NMat0=    1 NMatS0=      1 NMatT0=    0 NMatD0=    1 NMtDS0=    0 NMtDT0=    0
 Symmetry not used in FoFCou.
 E= -766.756471020280    
 DIIS: error= 3.23D-02 at cycle   1 NSaved=   1.
 NSaved= 1 IEnMin= 1 EnMin= -766.756471020280     IErMin= 1 ErrMin= 3.23D-02
 ErrMax= 3.23D-02  0.00D+00 EMaxC= 1.00D-01 BMatC= 3.77D-01 BMatP= 3.77D-01
 IDIUse=3 WtCom= 6.77D-01 WtEn= 3.23D-01
 Coeff-Com:  0.100D+01
 Coeff-En:   0.100D+01
 Coeff:      0.100D+01
 Gap=     0.248 Goal=   None    Shift=    0.000
 GapD=    0.248 DampG=1.000 DampE=0.500 DampFc=0.5000 IDamp=-1.
 Damping current iteration by 5.00D-01
 RMSDP=4.69D-03 MaxDP=2.12D-01              OVMax= 2.42D-01

 Cycle   2  Pass 0  IDiag  1:
 RMSU=  2.33D-03    CP:  9.87D-01
 E= -766.917422076662     Delta-E=       -0.160951056383 Rises=F Damp=T
 DIIS: error= 6.61D-03 at cycle   2 NSaved=   2.
 NSaved= 2 IEnMin= 2 EnMin= -766.917422076662     IErMin= 2 ErrMin= 6.61D-03
 ErrMax= 6.61D-03  0.00D+00 EMaxC= 1.00D-01 BMatC= 3.39D-02 BMatP= 3.77D-01
 IDIUse=3 WtCom= 9.34D-01 WtEn= 6.61D-02
 Coeff-Com:  0.111D+00 0.889D+00
 Coeff-En:   0.179D+00 0.821D+00
 Coeff:      0.116D+00 0.884D+00
 Gap=     0.315 Goal=   None    Shift=    0.000
 RMSDP=1.50D-03 MaxDP=5.14D-02 DE=-1.61D-01 OVMax= 2.08D-01

 Cycle   3  Pass 0  IDiag  1:
 RMSU=  1.38D-03    CP:  9.81D-01  7.52D-01
 E= -767.110414709223     Delta-E=       -0.192992632561 Rises=F Damp=F
 DIIS: error= 1.14D-02 at cycle   3 NSaved=   3.
 NSaved= 3 IEnMin= 3 EnMin= -767.110414709223     IErMin= 2 ErrMin= 6.61D-03
 ErrMax= 1.14D-02  0.00D+00 EMaxC= 1.00D-01 BMatC= 4.83D-02 BMatP= 3.39D-02
 IDIUse=2 WtCom= 0.00D+00 WtEn= 1.00D+00
 Coeff-En:   0.000D+00 0.000D+00 0.100D+01
 Coeff:      0.000D+00 0.000D+00 0.100D+01
 Gap=     0.250 Goal=   None    Shift=    0.000
 RMSDP=2.22D-03 MaxDP=9.88D-02 DE=-1.93D-01 OVMax= 2.20D-01

 Cycle   4  Pass 0  IDiag  1:
 RMSU=  1.25D-03    CP:  9.89D-01  1.22D+00 -5.28D-02
 E= -766.936455542562     Delta-E=        0.173959166661 Rises=F Damp=F
 DIIS: error= 2.43D-02 at cycle   4 NSaved=   4.
 NSaved= 4 IEnMin= 3 EnMin= -767.110414709223     IErMin= 2 ErrMin= 6.61D-03
 ErrMax= 2.43D-02  0.00D+00 EMaxC= 1.00D-01 BMatC= 2.44D-01 BMatP= 3.39D-02
 IDIUse=2 WtCom= 0.00D+00 WtEn= 1.00D+00
 Coeff-En:   0.000D+00 0.000D+00 0.779D+00 0.221D+00
 Coeff:      0.000D+00 0.000D+00 0.779D+00 0.221D+00
 Gap=     0.247 Goal=   None    Shift=    0.000
 RMSDP=1.19D-03 MaxDP=6.17D-02 DE= 1.74D-01 OVMax= 1.11D-01

 Cycle   5  Pass 0  IDiag  1:
 RMSU=  1.79D-04    CP:  9.85D-01  9.37D-01  4.67D-01  4.81D-01
 E= -767.138728020872     Delta-E=       -0.202272478310 Rises=F Damp=F
 DIIS: error= 6.70D-03 at cycle   5 NSaved=   5.
 NSaved= 5 IEnMin= 5 EnMin= -767.138728020872     IErMin= 2 ErrMin= 6.61D-03
 ErrMax= 6.70D-03  0.00D+00 EMaxC= 1.00D-01 BMatC= 1.72D-02 BMatP= 3.39D-02
 IDIUse=3 WtCom= 9.33D-01 WtEn= 6.70D-02
 Coeff-Com: -0.392D-02 0.194D-01 0.277D+00-0.979D-01 0.806D+00
 Coeff-En:   0.000D+00 0.000D+00 0.309D+00 0.000D+00 0.691D+00
 Coeff:     -0.365D-02 0.181D-01 0.279D+00-0.914D-01 0.798D+00
 Gap=     0.265 Goal=   None    Shift=    0.000
 RMSDP=4.04D-04 MaxDP=1.78D-02 DE=-2.02D-01 OVMax= 3.69D-02

 Cycle   6  Pass 0  IDiag  1:
 RMSU=  3.89D-05    CP:  9.84D-01  8.57D-01  6.61D-01  2.95D-01  8.51D-01
 E= -767.153976957839     Delta-E=       -0.015248936967 Rises=F Damp=F
 DIIS: error= 2.38D-04 at cycle   6 NSaved=   6.
 NSaved= 6 IEnMin= 6 EnMin= -767.153976957839     IErMin= 6 ErrMin= 2.38D-04
 ErrMax= 2.38D-04  0.00D+00 EMaxC= 1.00D-01 BMatC= 3.16D-05 BMatP= 1.72D-02
 IDIUse=3 WtCom= 9.98D-01 WtEn= 2.38D-03
 Coeff-Com: -0.309D-02 0.722D-02 0.107D+00-0.593D-01 0.400D+00 0.548D+00
 Coeff-En:   0.000D+00 0.000D+00 0.000D+00 0.000D+00 0.000D+00 0.100D+01
 Coeff:     -0.308D-02 0.721D-02 0.107D+00-0.592D-01 0.399D+00 0.549D+00
 Gap=     0.264 Goal=   None    Shift=    0.000
 RMSDP=1.95D-05 MaxDP=1.43D-03 DE=-1.52D-02 OVMax= 9.42D-04

 Cycle   7  Pass 0  IDiag  1:
 RMSU=  1.17D-05    CP:  9.84D-01  8.60D-01  6.58D-01  2.97D-01  8.80D-01
                    CP:  7.04D-01
 E= -767.154004834410     Delta-E=       -0.000027876571 Rises=F Damp=F
 DIIS: error= 7.40D-05 at cycle   7 NSaved=   7.
 NSaved= 7 IEnMin= 7 EnMin= -767.154004834410     IErMin= 7 ErrMin= 7.40D-05
 ErrMax= 7.40D-05  0.00D+00 EMaxC= 1.00D-01 BMatC= 1.73D-06 BMatP= 3.16D-05
 IDIUse=1 WtCom= 1.00D+00 WtEn= 0.00D+00
 Coeff-Com: -0.111D-02 0.197D-02 0.333D-01-0.217D-01 0.135D+00 0.246D+00
 Coeff-Com:  0.607D+00
 Coeff:     -0.111D-02 0.197D-02 0.333D-01-0.217D-01 0.135D+00 0.246D+00
 Coeff:      0.607D+00
 Gap=     0.264 Goal=   None    Shift=    0.000
 RMSDP=6.12D-06 MaxDP=3.56D-04 DE=-2.79D-05 OVMax= 1.84D-04

 Initial convergence to 1.0D-05 achieved.  Increase integral accuracy.
 Cycle   8  Pass 1  IDiag  1:
 E= -767.154032136889     Delta-E=       -0.000027302479 Rises=F Damp=F
 DIIS: error= 7.57D-05 at cycle   1 NSaved=   1.
 NSaved= 1 IEnMin= 1 EnMin= -767.154032136889     IErMin= 1 ErrMin= 7.57D-05
 ErrMax= 7.57D-05  0.00D+00 EMaxC= 1.00D-01 BMatC= 9.51D-07 BMatP= 9.51D-07
 IDIUse=1 WtCom= 1.00D+00 WtEn= 0.00D+00
 Coeff-Com:  0.100D+01
 Coeff:      0.100D+01
 Gap=     0.264 Goal=   None    Shift=    0.000
 RMSDP=6.12D-06 MaxDP=3.56D-04 DE=-2.73D-05 OVMax= 2.19D-04

 Cycle   9  Pass 1  IDiag  1:
 RMSU=  3.59D-05    CP:  1.00D+00
 E= -767.154032706320     Delta-E=       -0.000000569431 Rises=F Damp=F
 DIIS: error= 2.79D-05 at cycle   2 NSaved=   2.
 NSaved= 2 IEnMin= 2 EnMin= -767.154032706320     IErMin= 2 ErrMin= 2.79D-05
 ErrMax= 2.79D-05  0.00D+00 EMaxC= 1.00D-01 BMatC= 5.35D-07 BMatP= 9.51D-07
 IDIUse=1 WtCom= 1.00D+00 WtEn= 0.00D+00
 Coeff-Com:  0.401D+00 0.599D+00
 Coeff:      0.401D+00 0.599D+00
 Gap=     0.264 Goal=   None    Shift=    0.000
 RMSDP=3.88D-06 MaxDP=2.96D-04 DE=-5.69D-07 OVMax= 2.58D-04

 Cycle  10  Pass 1  IDiag  1:
 RMSU=  3.85D-06    CP:  1.00D+00  1.00D+00
 E= -767.154032962790     Delta-E=       -0.000000256470 Rises=F Damp=F
 DIIS: error= 1.88D-05 at cycle   3 NSaved=   3.
 NSaved= 3 IEnMin= 3 EnMin= -767.154032962790     IErMin= 3 ErrMin= 1.88D-05
 ErrMax= 1.88D-05  0.00D+00 EMaxC= 1.00D-01 BMatC= 2.37D-07 BMatP= 5.35D-07
 IDIUse=1 WtCom= 1.00D+00 WtEn= 0.00D+00
 Coeff-Com:  0.183D-01 0.396D+00 0.586D+00
 Coeff:      0.183D-01 0.396D+00 0.586D+00
 Gap=     0.264 Goal=   None    Shift=    0.000
 RMSDP=1.81D-06 MaxDP=1.00D-04 DE=-2.56D-07 OVMax= 1.56D-04

 Cycle  11  Pass 1  IDiag  1:
 RMSU=  8.02D-07    CP:  1.00D+00  1.01D+00  6.03D-01
 E= -767.154033150872     Delta-E=       -0.000000188082 Rises=F Damp=F
 DIIS: error= 1.02D-05 at cycle   4 NSaved=   4.
 NSaved= 4 IEnMin= 4 EnMin= -767.154033150872     IErMin= 4 ErrMin= 1.02D-05
 ErrMax= 1.02D-05  0.00D+00 EMaxC= 1.00D-01 BMatC= 2.83D-08 BMatP= 2.37D-07
 IDIUse=1 WtCom= 1.00D+00 WtEn= 0.00D+00
 Coeff-Com: -0.571D-02 0.242D+00 0.395D+00 0.369D+00
 Coeff:     -0.571D-02 0.242D+00 0.395D+00 0.369D+00
 Gap=     0.264 Goal=   None    Shift=    0.000
 RMSDP=5.09D-07 MaxDP=2.10D-05 DE=-1.88D-07 OVMax= 4.28D-05

 Cycle  12  Pass 1  IDiag  1:
 RMSU=  1.64D-07    CP:  1.00D+00  1.02D+00  6.28D-01  4.11D-01
 E= -767.154033174184     Delta-E=       -0.000000023312 Rises=F Damp=F
 DIIS: error= 5.67D-07 at cycle   5 NSaved=   5.
 NSaved= 5 IEnMin= 5 EnMin= -767.154033174184     IErMin= 5 ErrMin= 5.67D-07
 ErrMax= 5.67D-07  0.00D+00 EMaxC= 1.00D-01 BMatC= 1.94D-10 BMatP= 2.83D-08
 IDIUse=1 WtCom= 1.00D+00 WtEn= 0.00D+00
 Coeff-Com: -0.326D-02 0.118D+00 0.192D+00 0.194D+00 0.499D+00
 Coeff:     -0.326D-02 0.118D+00 0.192D+00 0.194D+00 0.499D+00
 Gap=     0.264 Goal=   None    Shift=    0.000
 RMSDP=4.70D-08 MaxDP=2.13D-06 DE=-2.33D-08 OVMax= 2.53D-06

 Cycle  13  Pass 1  IDiag  1:
 RMSU=  4.18D-08    CP:  1.00D+00  1.02D+00  6.27D-01  4.28D-01  9.06D-01
 E= -767.154033174314     Delta-E=       -0.000000000130 Rises=F Damp=F
 DIIS: error= 8.93D-08 at cycle   6 NSaved=   6.
 NSaved= 6 IEnMin= 6 EnMin= -767.154033174314     IErMin= 6 ErrMin= 8.93D-08
 ErrMax= 8.93D-08  0.00D+00 EMaxC= 1.00D-01 BMatC= 6.30D-12 BMatP= 1.94D-10
 IDIUse=1 WtCom= 1.00D+00 WtEn= 0.00D+00
 Coeff-Com: -0.615D-03 0.188D-01 0.303D-01 0.371D-01 0.169D+00 0.745D+00
 Coeff:     -0.615D-03 0.188D-01 0.303D-01 0.371D-01 0.169D+00 0.745D+00
 Gap=     0.264 Goal=   None    Shift=    0.000
 RMSDP=1.36D-08 MaxDP=5.49D-07 DE=-1.30D-10 OVMax= 1.02D-06

 Cycle  14  Pass 1  IDiag  1:
 RMSU=  1.15D-08    CP:  1.00D+00  1.02D+00  6.27D-01  4.32D-01  9.40D-01
                    CP:  9.37D-01
 E= -767.154033174319     Delta-E=       -0.000000000005 Rises=F Damp=F
 DIIS: error= 9.43D-08 at cycle   7 NSaved=   7.
 NSaved= 7 IEnMin= 7 EnMin= -767.154033174319     IErMin= 6 ErrMin= 8.93D-08
 ErrMax= 9.43D-08  0.00D+00 EMaxC= 1.00D-01 BMatC= 3.29D-12 BMatP= 6.30D-12
 IDIUse=1 WtCom= 1.00D+00 WtEn= 0.00D+00
 Coeff-Com: -0.237D-04-0.116D-02-0.216D-02 0.266D-02 0.519D-01 0.484D+00
 Coeff-Com:  0.465D+00
 Coeff:     -0.237D-04-0.116D-02-0.216D-02 0.266D-02 0.519D-01 0.484D+00
 Coeff:      0.465D+00
 Gap=     0.264 Goal=   None    Shift=    0.000
 RMSDP=6.74D-09 MaxDP=3.41D-07 DE=-5.00D-12 OVMax= 5.98D-07

 SCF Done:  E(RPBE1PBE) =  -767.154033174     A.U. after   14 cycles
            NFock= 14  Conv=0.67D-08     -V/T= 2.0101
 KE= 7.595186429458D+02 PE=-4.446640365183D+03 EE= 1.588470929568D+03
 Leave Link  502 at Thu Nov  3 08:05:52 2022, MaxMem=  4194304000 cpu:             668.6 elap:              85.2
 (Enter /software/gaussian/G16-A.03/avx/g16/l801.exe)
 DoSCS=F DFT=T ScalE2(SS,OS)=  1.000000  1.000000
 Range of M.O.s used for correlation:     1   348
 NBasis=   348 NAE=    65 NBE=    65 NFC=     0 NFV=     0
 NROrb=    348 NOA=    65 NOB=    65 NVA=   283 NVB=   283

 **** Warning!!: The largest alpha MO coefficient is  0.10329915D+02

 Leave Link  801 at Thu Nov  3 08:05:53 2022, MaxMem=  4194304000 cpu:               0.4 elap:               0.2
 (Enter /software/gaussian/G16-A.03/avx/g16/l1101.exe)
 Using compressed storage, NAtomX=    39.
 Will process     40 centers per pass.
   1 Symmetry operations used in ECPInt.
 ECPInt:  NShTT=   14196 NPrTT=   49742 LenC2=   13314 LenP2D=   33622.
 LDataN:  DoStor=T MaxTD1= 5 Len=  102
 R6Disp: Adding Grimme-D3(BJ) dispersion energy 1st derivatives to the gradient.
 Leave Link 1101 at Thu Nov  3 08:05:56 2022, MaxMem=  4194304000 cpu:              13.3 elap:               2.3
 (Enter /software/gaussian/G16-A.03/avx/g16/l1102.exe)
 Symmetrizing basis deriv contribution to polar:
 IMax=3 JMax=2 DiffMx= 0.00D+00
 Leave Link 1102 at Thu Nov  3 08:05:56 2022, MaxMem=  4194304000 cpu:               1.3 elap:               0.3
 (Enter /software/gaussian/G16-A.03/avx/g16/l1110.exe)
 Forming Gx(P) for the SCF density, NAtomX=    39.
 Integral derivatives from FoFJK, PRISM(SPDF).
 Do as many integral derivatives as possible in FoFJK.
 G2DrvN: MDV=    4194301056.
 G2DrvN: will do    40 centers at a time, making    1 passes.
 Calling FoFCou, ICntrl=  3107 FMM=F I1Cent=   0 AccDes= 0.00D+00.
 FoFJK:  IHMeth= 1 ICntrl=    3107 DoSepK=F KAlg= 0 I1Cent=           0 FoldK=F
 IRaf=         0 NMat=       1 IRICut=       1 DoRegI=T DoRafI=F ISym2E= 0 IDoP0=0 IntGTp=1.
 FoFCou: FMM=F IPFlag=           0 FMFlag=      100000 FMFlg1=           0
         NFxFlg=           0 DoJE=F BraDBF=F KetDBF=F FulRan=T
         wScrn=  0.000000 ICntrl=      3107 IOpCl=  0 I1Cent=           0 NGrid=           0
         NMat0=    1 NMatS0=      1 NMatT0=    0 NMatD0=    1 NMtDS0=    0 NMtDT0=    0
 Symmetry not used in FoFCou.
 End of G2Drv F.D. properties file   721 does not exist.
 End of G2Drv F.D. properties file   722 does not exist.
 End of G2Drv F.D. properties file   788 does not exist.
 Leave Link 1110 at Thu Nov  3 08:11:05 2022, MaxMem=  4194304000 cpu:            2363.3 elap:             307.8
 (Enter /software/gaussian/G16-A.03/avx/g16/l1002.exe)
 Minotr:  Closed shell wavefunction.
          IDoAtm=111111111111111111111111111111111111111
          Direct CPHF calculation.
          Differentiating once with respect to electric field.
                with respect to dipole field.
          Differentiating once with respect to nuclear coordinates.
          Requested convergence is 1.0D-08 RMS, and 1.0D-07 maximum.
          Secondary convergence is 1.0D-12 RMS, and 1.0D-12 maximum.
          NewPWx=T KeepS1=F KeepF1=F KeepIn=T MapXYZ=F SortEE=F KeepMc=T.
        11798 words used for storage of precomputed grid.
 Keep R1 ints in memory in canonical form, NReq=1868386152.
 FoFCou: FMM=F IPFlag=           0 FMFlag=           0 FMFlg1=           0
         NFxFlg=           0 DoJE=F BraDBF=F KetDBF=F FulRan=T
         wScrn=  0.000000 ICntrl=       600 IOpCl=  0 I1Cent=           0 NGrid=           0
         NMat0=    1 NMatS0=  60726 NMatT0=    0 NMatD0=    1 NMtDS0=    0 NMtDT0=    0
 Symmetry not used in FoFCou.
 Two-electron integral symmetry not used.
          MDV=    4194304000 using IRadAn=       1.
          Solving linear equations simultaneously, MaxMat=       0.
          There are   120 degrees of freedom in the 1st order CPHF.  IDoFFX=6 NUNeed=     3.
    117 vectors produced by pass  0 Test12= 1.84D-14 1.00D-09 XBig12= 1.08D+02 3.48D+00.
 AX will form   117 AO Fock derivatives at one time.
    117 vectors produced by pass  1 Test12= 1.84D-14 1.00D-09 XBig12= 2.28D+01 1.03D+00.
    117 vectors produced by pass  2 Test12= 1.84D-14 1.00D-09 XBig12= 2.20D-01 4.33D-02.
    117 vectors produced by pass  3 Test12= 1.84D-14 1.00D-09 XBig12= 5.43D-04 2.77D-03.
    117 vectors produced by pass  4 Test12= 1.84D-14 1.00D-09 XBig12= 1.01D-06 9.53D-05.
     74 vectors produced by pass  5 Test12= 1.84D-14 1.00D-09 XBig12= 1.22D-09 3.46D-06.
     12 vectors produced by pass  6 Test12= 1.84D-14 1.00D-09 XBig12= 1.26D-12 7.16D-08.
      3 vectors produced by pass  7 Test12= 1.84D-14 1.00D-09 XBig12= 1.31D-15 2.31D-09.
 InvSVY:  IOpt=1 It=  1 EMax= 1.07D-14
 Solved reduced A of dimension   674 with   120 vectors.
 FullF1:  Do perturbations      1 to       3.
 Isotropic polarizability for W=    0.000000      152.32 Bohr**3.
 End of Minotr F.D. properties file   721 does not exist.
 End of Minotr F.D. properties file   722 does not exist.
 End of Minotr F.D. properties file   788 does not exist.
 Leave Link 1002 at Thu Nov  3 08:18:13 2022, MaxMem=  4194304000 cpu:            2981.8 elap:             427.5
 (Enter /software/gaussian/G16-A.03/avx/g16/l601.exe)
 Copying SCF densities to generalized density rwf, IOpCl= 0 IROHF=0.

 **********************************************************************

            Population analysis using the SCF density.

 **********************************************************************

 Orbital symmetries:
       Occupied  (A) (A) (A) (A) (A) (A) (A) (A) (A) (A) (A) (A)
                 (A) (A) (A) (A) (A) (A) (A) (A) (A) (A) (A) (A)
                 (A) (A) (A) (A) (A) (A) (A) (A) (A) (A) (A) (A)
                 (A) (A) (A) (A) (A) (A) (A) (A) (A) (A) (A) (A)
                 (A) (A) (A) (A) (A) (A) (A) (A) (A) (A) (A) (A)
                 (A) (A) (A) (A) (A)
       Virtual   (A) (A) (A) (A) (A) (A) (A) (A) (A) (A) (A) (A)
                 (A) (A) (A) (A) (A) (A) (A) (A) (A) (A) (A) (A)
                 (A) (A) (A) (A) (A) (A) (A) (A) (A) (A) (A) (A)
                 (A) (A) (A) (A) (A) (A) (A) (A) (A) (A) (A) (A)
                 (A) (A) (A) (A) (A) (A) (A) (A) (A) (A) (A) (A)
                 (A) (A) (A) (A) (A) (A) (A) (A) (A) (A) (A) (A)
                 (A) (A) (A) (A) (A) (A) (A) (A) (A) (A) (A) (A)
                 (A) (A) (A) (A) (A) (A) (A) (A) (A) (A) (A) (A)
                 (A) (A) (A) (A) (A) (A) (A) (A) (A) (A) (A) (A)
                 (A) (A) (A) (A) (A) (A) (A) (A) (A) (A) (A) (A)
                 (A) (A) (A) (A) (A) (A) (A) (A) (A) (A) (A) (A)
                 (A) (A) (A) (A) (A) (A) (A) (A) (A) (A) (A) (A)
                 (A) (A) (A) (A) (A) (A) (A) (A) (A) (A) (A) (A)
                 (A) (A) (A) (A) (A) (A) (A) (A) (A) (A) (A) (A)
                 (A) (A) (A) (A) (A) (A) (A) (A) (A) (A) (A) (A)
                 (A) (A) (A) (A) (A) (A) (A) (A) (A) (A) (A) (A)
                 (A) (A) (A) (A) (A) (A) (A) (A) (A) (A) (A) (A)
                 (A) (A) (A) (A) (A) (A) (A) (A) (A) (A) (A) (A)
                 (A) (A) (A) (A) (A) (A) (A) (A) (A) (A) (A) (A)
                 (A) (A) (A) (A) (A) (A) (A) (A) (A) (A) (A) (A)
                 (A) (A) (A) (A) (A) (A) (A) (A) (A) (A) (A) (A)
                 (A) (A) (A) (A) (A) (A) (A) (A) (A) (A) (A) (A)
                 (A) (A) (A) (A) (A) (A) (A) (A) (A) (A) (A) (A)
                 (A) (A) (A) (A) (A) (A) (A)
 The electronic state is 1-A.
 Alpha  occ. eigenvalues --  -19.24342 -19.24233 -14.34994 -14.34715 -10.30899
 Alpha  occ. eigenvalues --  -10.30848 -10.28972 -10.28420 -10.26873 -10.25554
 Alpha  occ. eigenvalues --  -10.25486 -10.24011 -10.23432 -10.22591 -10.22229
 Alpha  occ. eigenvalues --  -10.21516 -10.20948  -1.11684  -1.11452  -0.91399
 Alpha  occ. eigenvalues --   -0.90251  -0.85745  -0.82676  -0.77261  -0.75014
 Alpha  occ. eigenvalues --   -0.70516  -0.69457  -0.68844  -0.65700  -0.64744
 Alpha  occ. eigenvalues --   -0.63715  -0.59614  -0.55219  -0.54115  -0.52321
 Alpha  occ. eigenvalues --   -0.51577  -0.50777  -0.49141  -0.47016  -0.46063
 Alpha  occ. eigenvalues --   -0.45275  -0.44763  -0.44380  -0.43772  -0.42970
 Alpha  occ. eigenvalues --   -0.41447  -0.40804  -0.40370  -0.39306  -0.38928
 Alpha  occ. eigenvalues --   -0.37569  -0.37264  -0.37038  -0.36598  -0.36354
 Alpha  occ. eigenvalues --   -0.36287  -0.35580  -0.34887  -0.33656  -0.33190
 Alpha  occ. eigenvalues --   -0.32437  -0.28039  -0.24915  -0.24160  -0.23646
 Alpha virt. eigenvalues --    0.02781   0.04257   0.06000   0.07079   0.08440
 Alpha virt. eigenvalues --    0.09563   0.10319   0.10504   0.11426   0.12093
 Alpha virt. eigenvalues --    0.12520   0.12796   0.13381   0.13704   0.14095
 Alpha virt. eigenvalues --    0.14584   0.15048   0.15409   0.16775   0.16876
 Alpha virt. eigenvalues --    0.17721   0.18137   0.18697   0.19053   0.19317
 Alpha virt. eigenvalues --    0.19946   0.20809   0.21429   0.21692   0.22376
 Alpha virt. eigenvalues --    0.24225   0.24790   0.25206   0.25796   0.27669
 Alpha virt. eigenvalues --    0.28377   0.28822   0.31266   0.34785   0.35037
 Alpha virt. eigenvalues --    0.38808   0.40303   0.41327   0.41671   0.42551
 Alpha virt. eigenvalues --    0.43168   0.43614   0.44851   0.45633   0.46889
 Alpha virt. eigenvalues --    0.49436   0.50870   0.51515   0.52803   0.53907
 Alpha virt. eigenvalues --    0.54826   0.55210   0.56187   0.57583   0.59061
 Alpha virt. eigenvalues --    0.59731   0.60301   0.60585   0.61991   0.62775
 Alpha virt. eigenvalues --    0.62948   0.63989   0.64223   0.64592   0.65186
 Alpha virt. eigenvalues --    0.65401   0.65639   0.66027   0.66546   0.66922
 Alpha virt. eigenvalues --    0.67010   0.67168   0.67826   0.68501   0.68662
 Alpha virt. eigenvalues --    0.69035   0.69617   0.70044   0.70134   0.71212
 Alpha virt. eigenvalues --    0.71295   0.71537   0.72044   0.72955   0.73095
 Alpha virt. eigenvalues --    0.73661   0.73887   0.73946   0.74835   0.75505
 Alpha virt. eigenvalues --    0.76010   0.76318   0.77489   0.78855   0.79816
 Alpha virt. eigenvalues --    0.81272   0.82256   0.83258   0.84151   0.84961
 Alpha virt. eigenvalues --    0.86411   0.91185   0.92613   0.93163   0.95759
 Alpha virt. eigenvalues --    0.97795   0.98547   1.01751   1.02845   1.05185
 Alpha virt. eigenvalues --    1.07843   1.10310   1.11577   1.13113   1.13309
 Alpha virt. eigenvalues --    1.15880   1.17846   1.18402   1.20634   1.22877
 Alpha virt. eigenvalues --    1.24100   1.24799   1.26832   1.30480   1.32499
 Alpha virt. eigenvalues --    1.33314   1.34030   1.35396   1.37078   1.38980
 Alpha virt. eigenvalues --    1.41222   1.42109   1.45798   1.47344   1.48496
 Alpha virt. eigenvalues --    1.49492   1.53044   1.54632   1.55473   1.55875
 Alpha virt. eigenvalues --    1.56562   1.57456   1.58741   1.59424   1.60525
 Alpha virt. eigenvalues --    1.63088   1.64080   1.64593   1.65753   1.66133
 Alpha virt. eigenvalues --    1.66286   1.68771   1.69029   1.70990   1.71330
 Alpha virt. eigenvalues --    1.73585   1.74699   1.76054   1.76606   1.77474
 Alpha virt. eigenvalues --    1.78082   1.78798   1.79284   1.80196   1.81148
 Alpha virt. eigenvalues --    1.81554   1.82086   1.82851   1.83612   1.83860
 Alpha virt. eigenvalues --    1.84417   1.85237   1.85633   1.86467   1.86596
 Alpha virt. eigenvalues --    1.86971   1.87942   1.88515   1.89216   1.90192
 Alpha virt. eigenvalues --    1.90332   1.92079   1.92444   1.93123   1.94003
 Alpha virt. eigenvalues --    1.95449   1.96007   1.96528   1.97912   1.98598
 Alpha virt. eigenvalues --    1.98854   1.99905   2.00927   2.02317   2.02931
 Alpha virt. eigenvalues --    2.05150   2.05794   2.07329   2.08470   2.10319
 Alpha virt. eigenvalues --    2.11041   2.12389   2.18053   2.18744   2.19617
 Alpha virt. eigenvalues --    2.21951   2.22645   2.24756   2.25561   2.27180
 Alpha virt. eigenvalues --    2.30544   2.31293   2.32839   2.35329   2.36578
 Alpha virt. eigenvalues --    2.38024   2.39213   2.39741   2.41949   2.43180
 Alpha virt. eigenvalues --    2.43281   2.43922   2.44801   2.47316   2.49181
 Alpha virt. eigenvalues --    2.53156   2.54100   2.54653   2.58068   2.61178
 Alpha virt. eigenvalues --    2.63928   2.64537   2.64804   2.66125   2.67220
 Alpha virt. eigenvalues --    2.67713   2.68094   2.69463   2.72252   2.73596
 Alpha virt. eigenvalues --    2.74241   2.76383   2.80734   2.83095   2.83606
 Alpha virt. eigenvalues --    2.85342   2.87649   2.88935   2.89716   2.90266
 Alpha virt. eigenvalues --    2.90820   2.92181   2.92901   2.93483   2.95584
 Alpha virt. eigenvalues --    2.96231   2.96794   2.98541   2.99622   3.00270
 Alpha virt. eigenvalues --    3.02262   3.03381   3.04676   3.05027   3.05887
 Alpha virt. eigenvalues --    3.07316   3.08376   3.09958   3.12245   3.15564
 Alpha virt. eigenvalues --    3.16601   3.19501   3.28623   3.34042   3.40843
 Alpha virt. eigenvalues --    3.47960   3.62369   3.66180
     Molecular Orbital Coefficients:
                          61        62        63        64        65
                           O         O         O         O         O
     Eigenvalues --    -0.32437  -0.28039  -0.24915  -0.24160  -0.23646
   1 1   C  1S          0.01114  -0.00775  -0.00095   0.00412   0.00496
   2        2S         -0.02563   0.01784   0.00129  -0.01118  -0.01447
   3        3S         -0.05010  -0.00660   0.00064  -0.00056   0.02944
   4        4PX         0.09022  -0.03114   0.01654   0.04087   0.01188
   5        4PY         0.06762   0.01694   0.00037  -0.00217  -0.00245
   6        4PZ        -0.05720   0.00267   0.00605   0.00477  -0.00229
   7        5PX         0.04859  -0.00824   0.02070   0.03362  -0.01138
   8        5PY         0.02884   0.00967  -0.00176  -0.00395   0.00474
   9        5PZ        -0.02786   0.01038   0.00382  -0.00661  -0.01192
  10        6D 0        0.00337  -0.00050  -0.00101  -0.00116   0.00007
  11        6D+1       -0.00446  -0.00010   0.00189   0.00259   0.00004
  12        6D-1        0.00778   0.00061  -0.00017  -0.00009   0.00004
  13        6D+2        0.00496   0.00178   0.00124   0.00101  -0.00098
  14        6D-2        0.00925   0.00045   0.00233   0.00348  -0.00035
  15 2   C  1S          0.00413  -0.00575  -0.01535  -0.01781   0.00963
  16        2S         -0.01129   0.01291   0.03577   0.04026  -0.02250
  17        3S         -0.01896   0.05833   0.10088   0.13301  -0.10293
  18        4PX        -0.13487   0.00774  -0.05161  -0.07546   0.01460
  19        4PY        -0.22564  -0.05326  -0.06849  -0.07246   0.04076
  20        4PZ         0.16940  -0.00993  -0.04847  -0.05695   0.01783
  21        5PX        -0.03710   0.01715  -0.03757  -0.07086  -0.00635
  22        5PY        -0.09598  -0.03789  -0.05353  -0.06936   0.02617
  23        5PZ         0.06309  -0.05017  -0.02394  -0.00107   0.06301
  24        6D 0        0.00762  -0.00122  -0.00240  -0.00272   0.00076
  25        6D+1       -0.00066   0.00184   0.00114   0.00053  -0.00174
  26        6D-1        0.01736   0.00201   0.00047   0.00018  -0.00090
  27        6D+2        0.00410   0.00373  -0.00070  -0.00348  -0.00278
  28        6D-2        0.00904   0.00007   0.00300   0.00413  -0.00101
  29 3   C  1S         -0.01014  -0.02053  -0.00950   0.00544   0.02585
  30        2S          0.01424   0.04905   0.02726  -0.00918  -0.06318
  31        3S          0.08856   0.04910   0.02596  -0.04626  -0.07283
  32        4PX         0.12699  -0.08761  -0.01465   0.05821   0.10519
  33        4PY         0.20505   0.08181   0.05185   0.02388  -0.07382
  34        4PZ        -0.04332  -0.01850   0.07757   0.11515   0.00148
  35        5PX         0.04565  -0.04903  -0.02758  -0.00174   0.06833
  36        5PY         0.09568  -0.01169  -0.00411  -0.00694   0.03933
  37        5PZ         0.00955   0.00331   0.02330   0.00793  -0.02100
  38        6D 0        0.01029  -0.00213  -0.00632  -0.00721   0.00308
  39        6D+1        0.00280  -0.00346   0.00955   0.01726   0.00293
  40        6D-1        0.00991   0.00464   0.00152  -0.00112  -0.00475
  41        6D+2        0.00390   0.01314   0.00243  -0.00480  -0.01247
  42        6D-2        0.00036   0.00826   0.00717   0.00391  -0.01173
  43 4   H  1S          0.08946   0.01497  -0.09793  -0.14734   0.00102
  44        2S          0.05412  -0.00684  -0.07208  -0.09990   0.01855
  45        3PX         0.00187  -0.00076  -0.00017   0.00101   0.00110
  46        3PY         0.00501   0.00242   0.00146   0.00100  -0.00293
  47        3PZ         0.00327   0.00029  -0.00266  -0.00384   0.00027
  48 5   C  1S          0.01322   0.02390   0.00079  -0.01119  -0.02353
  49        2S         -0.02876  -0.05797   0.00181   0.02872   0.05937
  50        3S         -0.08954  -0.10460  -0.03479   0.04289   0.13096
  51        4PX        -0.00461   0.01985  -0.00758   0.00317  -0.01402
  52        4PY        -0.15914  -0.11243  -0.04202   0.01521   0.10536
  53        4PZ         0.10525   0.05023  -0.04492  -0.09118  -0.03371
  54        5PX         0.02130  -0.00139   0.00495   0.02044   0.01121
  55        5PY        -0.09134  -0.09404  -0.03287   0.03283   0.09774
  56        5PZ         0.04536   0.04694   0.00525  -0.02014  -0.04877
  57        6D 0       -0.00123   0.00126  -0.00189  -0.00289  -0.00105
  58        6D+1        0.00097   0.00062  -0.00834  -0.01172   0.00054
  59        6D-1        0.00611   0.00123   0.00180   0.00218  -0.00092
  60        6D+2        0.00821  -0.00262  -0.00226  -0.00119   0.00355
  61        6D-2        0.00167  -0.00154  -0.00342  -0.00411   0.00437
  62 6   O  1S         -0.01750  -0.00905  -0.00517   0.00767   0.01127
  63        2S         -0.03499  -0.02085  -0.01087   0.01576   0.02594
  64        3S         -0.02914  -0.05909  -0.03320   0.04842   0.06700
  65        4PX         0.06710   0.00492   0.01944   0.00099  -0.00067
  66        4PY         0.13893  -0.10311   0.05648   0.15644   0.07840
  67        4PZ        -0.11600   0.05218   0.19918   0.24172  -0.09684
  68        5PX         0.05391   0.00578   0.01845   0.00434  -0.00991
  69        5PY         0.09900  -0.08037   0.04572   0.13016   0.05890
  70        5PZ        -0.08201   0.03909   0.16467   0.19910  -0.07621
  71        6D 0       -0.00097   0.00035  -0.00260  -0.00296   0.00017
  72        6D+1        0.00068   0.00152   0.00105   0.00100  -0.00188
  73        6D-1       -0.00439   0.00138   0.00265   0.00198  -0.00138
  74        6D+2       -0.00227   0.00108  -0.00009  -0.00245  -0.00025
  75        6D-2       -0.00032  -0.00339  -0.00002   0.00215   0.00275
  76 7   C  1S         -0.01594  -0.03852  -0.01589   0.01970   0.02868
  77        2S          0.04346   0.09858   0.04543  -0.05424  -0.07494
  78        3S          0.03257  -0.05934  -0.07595   0.05375  -0.03098
  79        4PX         0.07773   0.03013  -0.02712  -0.00004  -0.04651
  80        4PY        -0.02727   0.05905  -0.03840  -0.09074  -0.02650
  81        4PZ        -0.00898  -0.03195  -0.11277  -0.16304   0.05919
  82        5PX         0.03754   0.09262   0.05158  -0.06549  -0.03476
  83        5PY         0.02630  -0.04554  -0.07756  -0.03068   0.05451
  84        5PZ        -0.03079   0.01560  -0.05621  -0.12118   0.00325
  85        6D 0       -0.00175   0.00017   0.01363   0.01866  -0.00186
  86        6D+1        0.00219  -0.00769  -0.00527  -0.00135   0.00664
  87        6D-1        0.00098   0.00569  -0.01382  -0.02255  -0.00335
  88        6D+2       -0.00302   0.01539   0.01131   0.00370  -0.01775
  89        6D-2       -0.00809   0.01263   0.00202  -0.00947  -0.01311
  90 8   N  1S         -0.00166  -0.06049  -0.01505   0.02935   0.07639
  91        2S          0.00088  -0.12154  -0.03152   0.06410   0.16008
  92        3S         -0.06425  -0.17717  -0.02810   0.06392   0.20948
  93        4PX         0.04856  -0.14459  -0.02022   0.07980   0.15041
  94        4PY        -0.02681   0.28182   0.14904   0.01784  -0.31056
  95        4PZ         0.00071  -0.09711   0.17737   0.33222   0.06886
  96        5PX        -0.02568   0.08489  -0.01386  -0.04677  -0.08368
  97        5PY         0.02991  -0.19121  -0.10862  -0.01683   0.21097
  98        5PZ        -0.00939   0.07041  -0.13727  -0.24670  -0.04760
  99        6D 0        0.00158  -0.00527  -0.00963  -0.00944   0.00882
 100        6D+1       -0.00205   0.00199   0.00330   0.00187  -0.00376
 101        6D-1        0.00034  -0.00785   0.00606   0.01504   0.00647
 102        6D+2        0.00017  -0.00763  -0.00489  -0.00447   0.00828
 103        6D-2        0.00733  -0.00489   0.00049   0.00552   0.01007
 104 9   N  1S          0.00293  -0.06806   0.02639  -0.02731  -0.07375
 105        2S          0.00568  -0.13899   0.05394  -0.05848  -0.15850
 106        3S          0.01603  -0.17240   0.08966  -0.05260  -0.17113
 107        4PX        -0.01293   0.31042   0.03989   0.00719   0.35661
 108        4PY        -0.00159   0.03956   0.06091  -0.03941   0.06578
 109        4PZ         0.00577  -0.16585   0.31229  -0.23461  -0.02170
 110        5PX         0.00555  -0.21347  -0.03732   0.00884  -0.23993
 111        5PY         0.00007  -0.03873  -0.05498   0.01067  -0.06292
 112        5PZ        -0.00231   0.11694  -0.23204   0.17011   0.01289
 113        6D 0        0.00010  -0.00278  -0.01168   0.00752  -0.01088
 114        6D+1        0.00045  -0.01189   0.00819  -0.00765  -0.00922
 115        6D-1        0.00035  -0.00324   0.00837  -0.00565   0.00239
 116        6D+2       -0.00022   0.00650  -0.00188   0.00103   0.01097
 117        6D-2       -0.00060   0.00454   0.00665  -0.00531   0.00572
 118 10  C  1S         -0.00131  -0.04145   0.00675  -0.01947  -0.02947
 119        2S          0.00381   0.10575  -0.01524   0.05549   0.07575
 120        3S          0.01634  -0.07739  -0.05120  -0.09057   0.00727
 121        4PX         0.00925   0.03506  -0.07544   0.07624  -0.04122
 122        4PY        -0.01705   0.06262  -0.07283   0.02818   0.02336
 123        4PZ         0.00054  -0.04078  -0.12666   0.09178  -0.11538
 124        5PX         0.00638  -0.09165  -0.06334  -0.02510  -0.10013
 125        5PY        -0.02275   0.05953  -0.03856   0.06078  -0.00407
 126        5PZ         0.00016   0.03184  -0.09091   0.09440  -0.03202
 127        6D 0        0.00046  -0.00284   0.02271  -0.01534   0.00753
 128        6D+1       -0.00022   0.01202  -0.01124   0.00905   0.00655
 129        6D-1       -0.00013  -0.00179  -0.01250   0.00665  -0.00648
 130        6D+2       -0.00128  -0.01764   0.00127  -0.00482  -0.01842
 131        6D-2        0.00108  -0.00912  -0.00968   0.00545  -0.01472
 132 11  C  1S          0.00173  -0.01394   0.00181   0.00054   0.00099
 133        2S         -0.00246   0.02077  -0.00265  -0.00184  -0.00211
 134        3S         -0.01389   0.28593   0.00552   0.00532   0.00411
 135        4PX        -0.04399   0.03822   0.03607  -0.03475  -0.05109
 136        4PY        -0.00996   0.07287   0.01318   0.02012   0.03161
 137        4PZ         0.01514   0.00664   0.05950   0.01507   0.01370
 138        5PX        -0.01038   0.05348   0.10123  -0.10592  -0.01372
 139        5PY        -0.02264   0.11372   0.08801   0.08635   0.03233
 140        5PZ         0.02244   0.01869  -0.01284  -0.02006   0.00497
 141        6D 0        0.00106  -0.00331  -0.00469  -0.00041  -0.00143
 142        6D+1       -0.00004   0.00048  -0.00431  -0.00630   0.00292
 143        6D-1       -0.00129   0.00088  -0.00743   0.00120  -0.00380
 144        6D+2       -0.00225  -0.00005   0.00379  -0.00325  -0.00058
 145        6D-2       -0.00166  -0.00039  -0.00317  -0.00215  -0.00233
 146 12  C  1S          0.00016   0.00249   0.02074   0.00403   0.00453
 147        2S         -0.00022  -0.01191  -0.05111  -0.00743  -0.01210
 148        3S          0.01093   0.01831  -0.04306  -0.03459  -0.00306
 149        4PX         0.00892  -0.00434  -0.03967  -0.01316   0.00924
 150        4PY         0.00250  -0.00784  -0.06977  -0.01601  -0.02055
 151        4PZ        -0.00418  -0.03144  -0.05501  -0.00921  -0.01381
 152        5PX         0.00169   0.00154  -0.04147   0.00369  -0.00944
 153        5PY         0.00499  -0.00326  -0.04821  -0.03451  -0.00335
 154        5PZ        -0.00005  -0.03258  -0.01632  -0.00674  -0.00467
 155        6D 0        0.00073  -0.00167  -0.00413  -0.00085  -0.00055
 156        6D+1       -0.00106  -0.00007   0.00017   0.00013  -0.00235
 157        6D-1       -0.00018   0.00015  -0.00053  -0.00035   0.00107
 158        6D+2       -0.00083   0.00010   0.00054   0.00213  -0.00330
 159        6D-2       -0.00046  -0.00007  -0.00126   0.00093  -0.00216
 160 13  C  1S         -0.00674   0.00725  -0.00471  -0.00186  -0.00118
 161        2S          0.01476  -0.01065   0.00142   0.00148   0.00110
 162        3S          0.01585  -0.08089   0.13484   0.04695   0.02187
 163        4PX         0.05750  -0.01641  -0.00527   0.01686   0.01816
 164        4PY        -0.00933  -0.03442   0.01618   0.00201  -0.00741
 165        4PZ        -0.01564   0.00840  -0.03739  -0.00931  -0.00942
 166        5PX         0.01886  -0.01608  -0.00035   0.05740   0.00884
 167        5PY        -0.01428  -0.03326   0.04183  -0.00696  -0.00127
 168        5PZ        -0.00231   0.00779  -0.05760  -0.01587  -0.01170
 169        6D 0        0.00113  -0.00291  -0.00190  -0.00006  -0.00048
 170        6D+1        0.00017  -0.00011  -0.00138   0.00022   0.00050
 171        6D-1       -0.00055   0.00033  -0.00185  -0.00072  -0.00069
 172        6D+2       -0.00354   0.00031   0.00063  -0.00148  -0.00206
 173        6D-2       -0.00152  -0.00056   0.00070  -0.00085  -0.00151
 174 14  O  1S          0.00148  -0.00872   0.00215  -0.00724  -0.01137
 175        2S          0.00345  -0.01960   0.00520  -0.01524  -0.02484
 176        3S          0.00185  -0.06709   0.01379  -0.04566  -0.07747
 177        4PX        -0.00570  -0.08731   0.15546  -0.12226   0.00168
 178        4PY        -0.00261  -0.05863   0.08967  -0.05570  -0.01137
 179        4PZ         0.01214   0.08006   0.21027  -0.12819   0.18862
 180        5PX        -0.00368  -0.06668   0.12797  -0.09990   0.00421
 181        5PY         0.00007  -0.04614   0.07122  -0.04776  -0.00360
 182        5PZ         0.00924   0.06140   0.17448  -0.10532   0.15468
 183        6D 0       -0.00026   0.00031  -0.00384   0.00181  -0.00120
 184        6D+1        0.00041   0.00029   0.00089  -0.00014  -0.00006
 185        6D-1        0.00032   0.00256   0.00159  -0.00066   0.00337
 186        6D+2       -0.00008   0.00280  -0.00074   0.00053   0.00205
 187        6D-2       -0.00039  -0.00209   0.00240  -0.00268  -0.00031
 188 15  C  1S         -0.00145   0.02525  -0.00912   0.00670   0.02159
 189        2S          0.00355  -0.06214   0.02380  -0.01546  -0.05400
 190        3S          0.00609  -0.09417   0.03358  -0.03781  -0.10285
 191        4PX         0.00916  -0.09620  -0.00696  -0.00159  -0.09315
 192        4PY         0.00221  -0.04260  -0.00989  -0.01201  -0.05082
 193        4PZ        -0.00994   0.06005  -0.08658   0.06178   0.01988
 194        5PX         0.00520  -0.06026   0.01308  -0.01934  -0.05465
 195        5PY         0.00076  -0.06219   0.01841  -0.02795  -0.06807
 196        5PZ        -0.00445   0.05216  -0.02448   0.02309   0.04716
 197        6D 0       -0.00018   0.00156  -0.00514   0.00317  -0.00042
 198        6D+1       -0.00003   0.00034   0.00672  -0.00436   0.00263
 199        6D-1       -0.00079   0.00040  -0.00785   0.00490  -0.00324
 200        6D+2       -0.00017   0.00294   0.00475  -0.00329   0.00721
 201        6D-2        0.00051   0.00193  -0.00210   0.00173   0.00031
 202 16  C  1S         -0.00071  -0.02352   0.00837  -0.01041  -0.02509
 203        2S          0.00158   0.05756  -0.02056   0.02770   0.06328
 204        3S          0.00122   0.05792  -0.01606   0.03477   0.07211
 205        4PX        -0.00857   0.10962   0.01878   0.00531   0.12171
 206        4PY        -0.00519  -0.03903   0.04383  -0.03893  -0.04095
 207        4PZ         0.00727  -0.04015   0.10677  -0.07381   0.00736
 208        5PX        -0.00242   0.00625   0.01301  -0.00009   0.00296
 209        5PY        -0.00192  -0.01196   0.01608  -0.01168  -0.03343
 210        5PZ         0.00410   0.00017   0.01894  -0.00722   0.01142
 211        6D 0       -0.00001  -0.00388  -0.00165   0.00046  -0.00472
 212        6D+1       -0.00046   0.00772  -0.00815   0.00664   0.00470
 213        6D-1       -0.00013   0.00060   0.01428  -0.00984   0.00708
 214        6D+2        0.00068  -0.01293  -0.00181   0.00004  -0.01672
 215        6D-2        0.00054  -0.00666   0.00918  -0.00682  -0.00168
 216 17  C  1S         -0.01960   0.00022  -0.00096  -0.00116   0.00005
 217        2S          0.04568  -0.00307   0.00118   0.00610  -0.00185
 218        3S          0.06444   0.05068   0.00198  -0.06269  -0.01979
 219        4PX         0.08299  -0.02278  -0.02543  -0.01922   0.01344
 220        4PY         0.08071   0.01844   0.01048   0.00547  -0.00963
 221        4PZ        -0.16384   0.00854   0.03097   0.03476  -0.01006
 222        5PX         0.04316  -0.01984  -0.03117  -0.01651  -0.00223
 223        5PY         0.03213   0.01749   0.02340   0.01985  -0.00857
 224        5PZ        -0.09255   0.00119   0.03793   0.05099  -0.00723
 225        6D 0        0.00267  -0.00109  -0.00025   0.00046   0.00005
 226        6D+1        0.00046   0.00005   0.00126   0.00163  -0.00042
 227        6D-1        0.01348   0.00209   0.00187   0.00155  -0.00181
 228        6D+2        0.00055   0.00099  -0.00052  -0.00157   0.00026
 229        6D-2        0.00232  -0.00040  -0.00035  -0.00015  -0.00019
 230 18  C  1S          0.03679   0.00159  -0.00106  -0.00150   0.00018
 231        2S         -0.08544  -0.00713   0.00301   0.00274  -0.00275
 232        3S         -0.10538   0.01230  -0.00213   0.01442   0.04887
 233        4PX         0.07265  -0.04286   0.00003   0.01854   0.02208
 234        4PY         0.23471   0.04445   0.01606   0.00328  -0.02437
 235        4PZ        -0.14480  -0.01039  -0.00180   0.00110   0.00717
 236        5PX         0.03153  -0.04006   0.00203   0.01187   0.00481
 237        5PY         0.11993   0.05844   0.01728  -0.00386  -0.03778
 238        5PZ        -0.07113  -0.00162  -0.00471  -0.00334   0.00742
 239        6D 0        0.00360  -0.00172  -0.00197  -0.00209   0.00065
 240        6D+1       -0.00152  -0.00037  -0.00029  -0.00024   0.00045
 241        6D-1        0.00835   0.00108   0.00081   0.00072  -0.00054
 242        6D+2        0.00333   0.00104  -0.00121  -0.00167   0.00052
 243        6D-2        0.00937  -0.00171   0.00134   0.00260   0.00031
 244 19  H  1S          0.07921   0.00384   0.02010   0.03062  -0.00205
 245        2S          0.05772  -0.00061   0.01529   0.02781  -0.00016
 246        3PX        -0.00006  -0.00093   0.00014   0.00056   0.00060
 247        3PY        -0.00009   0.00028  -0.00060  -0.00098  -0.00012
 248        3PZ        -0.00400  -0.00018  -0.00023  -0.00027   0.00019
 249 20  H  1S          0.07026  -0.00735  -0.00887  -0.00834   0.00251
 250        2S          0.05250  -0.00008  -0.01537  -0.02229  -0.00222
 251        3PX         0.00152  -0.00055   0.00076   0.00151   0.00025
 252        3PY         0.00335   0.00046   0.00038   0.00036  -0.00039
 253        3PZ         0.00144  -0.00007   0.00044   0.00053  -0.00014
 254 21  H  1S         -0.10580  -0.01281  -0.00175  -0.00301   0.00072
 255        2S         -0.06249  -0.01018  -0.01182  -0.01245   0.00547
 256        3PX         0.00278  -0.00075   0.00100   0.00177   0.00039
 257        3PY        -0.00197   0.00016   0.00055   0.00044  -0.00041
 258        3PZ         0.00092   0.00017  -0.00001   0.00012   0.00003
 259 22  H  1S          0.06104   0.02474  -0.06988  -0.10481  -0.00620
 260        2S          0.02215   0.02290  -0.04976  -0.08591  -0.01924
 261        3PX        -0.00267  -0.00025  -0.00039   0.00020   0.00009
 262        3PY        -0.00452  -0.00305  -0.00165  -0.00057   0.00337
 263        3PZ        -0.00267  -0.00061   0.00155   0.00194   0.00008
 264 23  H  1S          0.03545   0.03490   0.07283   0.08258  -0.04649
 265        2S          0.01805   0.03287   0.04835   0.04852  -0.04809
 266        3PX        -0.00114  -0.00037  -0.00091  -0.00030   0.00020
 267        3PY        -0.00173  -0.00140   0.00159   0.00334   0.00118
 268        3PZ         0.00416   0.00267   0.00026  -0.00104  -0.00254
 269 24  H  1S          0.00955   0.00163  -0.02686  -0.00501  -0.00163
 270        2S          0.00532  -0.04550   0.04418   0.01699   0.00850
 271        3PX         0.00025  -0.00055   0.00052   0.00205   0.00062
 272        3PY        -0.00025  -0.00180   0.00073  -0.00038  -0.00061
 273        3PZ         0.00026  -0.00221  -0.00072   0.00018  -0.00042
 274 25  H  1S         -0.01198   0.00683   0.02898   0.01622  -0.02017
 275        2S         -0.01196   0.00716   0.00246   0.02691  -0.03464
 276        3PX        -0.00036   0.00027  -0.00028   0.00010  -0.00083
 277        3PY         0.00003  -0.00011  -0.00229  -0.00018  -0.00077
 278        3PZ        -0.00025  -0.00043  -0.00193  -0.00006  -0.00050
 279 26  H  1S          0.00208   0.00688   0.03466  -0.00002   0.02855
 280        2S          0.00142   0.00722   0.00984  -0.02804   0.03554
 281        3PX         0.00030  -0.00030  -0.00202  -0.00099   0.00007
 282        3PY         0.00010   0.00021  -0.00097  -0.00054   0.00066
 283        3PZ        -0.00026  -0.00043  -0.00199  -0.00055  -0.00043
 284 27  H  1S          0.00386  -0.02028  -0.03252  -0.00461  -0.00717
 285        2S         -0.00451   0.00243  -0.01349  -0.00922   0.00118
 286        3PX         0.00166  -0.00029  -0.00049  -0.00003  -0.00005
 287        3PY        -0.00018  -0.00031   0.00008  -0.00019   0.00011
 288        3PZ        -0.00041   0.00076   0.00014   0.00014  -0.00013
 289 28  H  1S          0.03602   0.02123  -0.00846   0.00788   0.02057
 290        2S         -0.00446   0.02715  -0.01034  -0.01546   0.00370
 291        3PX        -0.00108  -0.00011  -0.00011  -0.00032  -0.00047
 292        3PY         0.00109   0.00043  -0.00027   0.00006   0.00025
 293        3PZ         0.00017   0.00002  -0.00023   0.00016  -0.00016
 294 29  H  1S         -0.05080   0.01903   0.00962  -0.01363  -0.01975
 295        2S         -0.03082   0.02678  -0.01703   0.01170  -0.01423
 296        3PX        -0.00117   0.00037   0.00034  -0.00027  -0.00044
 297        3PY        -0.00043   0.00021  -0.00076   0.00061   0.00001
 298        3PZ        -0.00065   0.00019  -0.00024  -0.00021   0.00002
 299 30  H  1S         -0.00857   0.02271  -0.10350   0.06649  -0.02610
 300        2S         -0.00522   0.02529  -0.07489   0.04963  -0.00461
 301        3PX         0.00019  -0.00276  -0.00020   0.00009  -0.00299
 302        3PY         0.00016  -0.00136  -0.00010  -0.00034  -0.00170
 303        3PZ         0.00028  -0.00008   0.00222  -0.00121   0.00116
 304 31  H  1S         -0.00209   0.03433   0.08395  -0.05225   0.07319
 305        2S         -0.00153   0.03394   0.05124  -0.03125   0.06408
 306        3PX         0.00010  -0.00077   0.00275  -0.00168   0.00004
 307        3PY         0.00005  -0.00058   0.00102  -0.00118   0.00005
 308        3PZ        -0.00037   0.00277  -0.00131   0.00100   0.00224
 309 32  H  1S         -0.00369   0.03891   0.11669  -0.07349   0.09218
 310        2S         -0.00286   0.00814   0.08392  -0.06507   0.05868
 311        3PX        -0.00003   0.00154  -0.00297   0.00240   0.00060
 312        3PY         0.00004  -0.00150  -0.00227   0.00128  -0.00245
 313        3PZ         0.00030  -0.00203   0.00145  -0.00112  -0.00156
 314 33  H  1S         -0.00475   0.02060  -0.13539   0.09214  -0.04213
 315        2S         -0.00155  -0.00425  -0.09005   0.06080  -0.05049
 316        3PX        -0.00031   0.00297   0.00024   0.00011   0.00363
 317        3PY        -0.00015  -0.00030   0.00224  -0.00181   0.00064
 318        3PZ        -0.00008  -0.00024  -0.00259   0.00157  -0.00169
 319 34  H  1S          0.07375   0.00478   0.01196   0.01564  -0.00559
 320        2S          0.04447   0.00071   0.01067   0.01644  -0.00102
 321        3PX         0.00015  -0.00066  -0.00090  -0.00107   0.00076
 322        3PY         0.00044   0.00041  -0.00039  -0.00058  -0.00056
 323        3PZ        -0.00559   0.00012   0.00047   0.00046  -0.00036
 324 35  H  1S         -0.14316  -0.01698  -0.00162   0.00513   0.00780
 325        2S         -0.09082  -0.01287  -0.00219   0.00384   0.00964
 326        3PX         0.00322  -0.00064  -0.00030  -0.00021   0.00089
 327        3PY        -0.00380  -0.00014   0.00153   0.00202  -0.00012
 328        3PZ         0.00048   0.00030   0.00046   0.00066  -0.00028
 329 36  H  1S         -0.03854   0.02067   0.01169   0.00408  -0.00797
[...]
 00003069,0.00000273,-0.00001277,0.00000880,0.00002303,-0.00001021,-0.0
 0001258,-0.03690160,-0.30963366,0.01565864,0.00131976,0.00032237,0.003
 49225,0.00000143,-0.00010514,0.00003882,0.00004419,0.00028201,0.000053
 46,0.00062431,0.00035954,0.00027640,0.00018967,0.00053520,-0.00067014,
 0.00028279,0.00026272,-0.00038379,0.00000006,0.00000166,-0.00001290,-0
 .00000243,0.00000193,0.00000481,-0.00000001,0.00000428,0.00001267,-0.0
 0002833,0.00000722,-0.00002017,-0.00000684,0.00001278,0.00000898,0.000
 00445,0.00000776,-0.00001795,-0.00000150,-0.00000033,-0.00000457,-0.00
 000485,0.00000293,-0.00000004,0.00001698,0.00000663,0.00002095,0.00000
 921,0.00000660,0.00000215,-0.00289524,-0.01151011,0.00193822,0.0393399
 3,0.33474524,0.00120122,0.00022709,0.00112133,0.00498640,0.02727738,0.
 00091709,0.00021792,0.00063988,0.00139961,-0.00019920,-0.00010649,0.00
 018980,0.00106594,0.00002197,-0.00170814,-0.00081210,-0.00048571,0.000
 19910,0.00050074,0.00068344,0.00005271,0.00008580,-0.00040094,-0.00009
 465,-0.00003462,-0.00006400,-0.00001339,0.00006191,0.00006999,0.000065
 47,0.00001052,-0.00005089,-0.00000655,-0.00003371,0.00000477,-0.000014
 53,-0.00001395,-0.00000573,0.00001561,-0.00005131,-0.00004198,-0.00004
 470,0.00001184,0.00001721,0.00001270,0.00000569,0.00001340,0.00000085,
 0.00106193,0.01494475,-0.04650110,-0.00180758,0.00104544,-0.00520737,-
 0.00007214,-0.00015250,-0.00004293,0.00026939,-0.00020076,0.00000300,-
 0.00043868,-0.00043110,0.00009593,-0.00038836,-0.00123214,-0.00107579,
 -0.00018309,-0.00010278,0.00030725,0.00000833,0.00000408,-0.00000424,-
 0.00001269,-0.00000263,0.00001197,0.00001123,-0.00000551,-0.00001390,0
 .00001291,-0.00000353,0.00000803,0.00002030,-0.00001863,-0.00001129,-0
 .00001504,0.00000237,0.00000191,-0.00000307,-0.00000332,-0.00000581,-0
 .00000559,-0.00000196,-0.00000076,-0.00000028,0.00000066,-0.00000808,-
 0.00001121,-0.00000439,0.00000236,-0.00481526,-0.02310742,0.00171212,-
 0.00033792,-0.01726823,0.04986232,0.00038828,0.00157295,-0.00248027,-0
 .00957754,-0.00227683,-0.00092372,-0.00078263,0.00022573,0.00072951,-0
 .00002837,-0.00002101,-0.00006444,-0.00032322,0.00003959,-0.00015904,0
 .00030332,-0.00003324,-0.00017296,0.00009540,-0.00030583,0.00052417,0.
 00027295,0.00018260,0.00108486,0.00008375,-0.00007084,-0.00011915,-0.0
 0012073,0.00023174,0.00000129,0.00004953,0.00000493,0.00003815,-0.0000
 3838,-0.00001939,-0.00000061,-0.00000431,-0.00000394,-0.00002867,0.000
 06546,-0.00003493,0.00006702,-0.00001758,-0.00002248,-0.00001454,-0.00
 003052,-0.00005438,-0.00004232,-0.30780868,-0.05427505,-0.02933144,0.0
 0034579,-0.00078370,0.00066469,0.00033471,-0.00006283,0.00010814,-0.00
 064292,-0.00027470,-0.00011415,0.00010951,-0.00006934,0.00011212,-0.00
 001845,0.00003115,-0.00010548,-0.00000314,0.00001047,0.00000735,0.0000
 0239,0.00000270,-0.00000209,-0.00000922,0.00000140,0.00001024,0.000003
 39,-0.00000038,-0.00001030,0.00001496,-0.00000359,0.00000182,0.0000009
 6,-0.00000221,-0.00000241,-0.00000070,-0.00000125,0.00000585,0.0000046
 4,0.00000203,0.00000127,0.00000276,0.00000179,-0.00000096,0.00000420,0
 .00000278,0.00002260,0.00000749,0.00000757,0.00000323,-0.01201265,-0.0
 0355398,-0.00287159,-0.00091959,0.00121763,0.00006082,0.32965852,0.000
 63271,-0.00081155,0.00208281,0.01167919,0.00096317,-0.00018024,-0.0006
 0431,0.00040937,-0.00039391,0.00011609,-0.00005540,-0.00005626,-0.0003
 7921,-0.00039957,0.00002122,0.00016644,-0.00010086,-0.00015226,0.00018
 549,-0.00044009,-0.00024472,-0.00002657,0.00016992,0.00026454,0.000061
 75,-0.00018108,-0.00010943,-0.00004047,0.00024506,0.00001412,0.0000691
 8,0.00004555,-0.00006069,-0.00003700,-0.00003415,-0.00001617,-0.000033
 09,0.00002257,-0.00008990,0.00010253,-0.00014501,0.00004879,0.00000930
 ,0.00003135,-0.00001666,-0.00003646,0.00002022,0.00003961,-0.05542908,
 -0.05855107,-0.00612174,0.00148523,0.00087219,-0.00005335,-0.00028242,
 -0.00005835,0.00005204,0.00063402,0.00058848,0.00036660,0.00020424,0.0
 0024416,0.00013096,-0.00000107,0.00016759,0.00008173,0.00005475,0.0000
 3259,-0.00005629,0.00000478,0.00000221,0.00000735,-0.00000979,0.000006
 30,0.00001419,0.00000215,0.00000029,-0.00000994,0.00003685,-0.00003979
 ,0.00004311,-0.00000080,-0.00000859,0.00001259,-0.00001234,0.00000493,
 0.00003543,0.00000476,0.00000171,0.00000565,0.00000495,-0.00000717,0.0
 0000406,-0.00003964,-0.00001521,-0.00003770,-0.00001454,-0.00001378,-0
 .00001067,0.01391924,0.00227714,0.00245285,-0.02978233,-0.00404699,-0.
 00304079,0.05777201,0.05913740,-0.00088940,0.00262431,-0.00536844,-0.0
 2761866,-0.00648762,-0.00232787,-0.00125512,-0.00051574,0.00107437,0.0
 0000012,0.00011457,0.00030927,-0.00050111,0.00004591,-0.00013695,0.000
 83461,0.00114903,0.00000524,0.00086802,-0.00214220,-0.00082672,-0.0002
 3167,0.00038419,0.00071906,-0.00018362,-0.00000855,0.00008408,0.000385
 59,-0.00014394,0.00013815,0.00015277,-0.00009777,0.00009220,-0.0001425
 0,0.00003158,-0.00007496,-0.00005681,-0.00004971,0.00002333,-0.0002650
 0,-0.00002088,-0.00020702,0.00003834,0.00007878,0.00005562,0.00005169,
 0.00012418,0.00009213,-0.02707664,-0.00533204,-0.04749507,-0.00016991,
 -0.00131828,0.00066599,-0.00006287,0.00018272,0.00013136,-0.00194993,-
 0.00012963,-0.00028573,0.00028153,-0.00003304,-0.00000377,-0.00000476,
 0.00010755,0.00000953,0.00006049,0.00002567,0.00002810,0.00001933,0.00
 001306,-0.00003593,-0.00003758,0.00000896,0.00005999,0.00001627,0.0000
 0439,-0.00000237,0.00001617,-0.00000032,0.00000355,0.00001789,-0.00000
 570,-0.00000520,-0.00002754,0.00002973,0.00000197,-0.00002693,-0.00000
 217,-0.00002244,-0.00001783,-0.00000647,-0.00000803,-0.00000344,-0.000
 03093,-0.00003426,-0.00002044,-0.00002255,-0.00001344,0.02268688,0.006
 13825,0.00298362,0.00138017,-0.00002511,-0.00121151,0.03315987,0.00486
 972,0.05126413,0.00087754,-0.00118437,-0.00111033,0.00090891,-0.003005
 26,-0.00286626,-0.00026818,-0.00133114,-0.00075801,-0.00007200,-0.0001
 0794,0.00011334,0.00009750,-0.00031921,-0.00005218,0.00026755,0.000560
 48,0.00002334,0.00038958,-0.00054522,-0.00006333,-0.00042783,0.0007664
 1,0.00044289,-0.00012074,0.00004702,0.00002722,0.00016932,-0.00012171,
 0.00006050,0.00003139,-0.00000412,0.00002415,-0.00003714,0.00000820,-0
 .00002158,-0.00002741,-0.00001808,0.00001782,-0.00018471,0.00002638,-0
 .00010635,0.00001989,0.00004359,0.00002508,0.00005080,0.00007188,0.000
 04955,-0.00022165,-0.00002398,0.00019976,-0.14858018,0.06945133,0.1146
 0325,0.00030740,-0.00002768,0.00025198,-0.00003759,0.00005716,-0.00008
 331,0.00009850,0.00012003,-0.00016309,0.00006017,0.00007240,-0.0000227
 6,-0.00001084,0.00002846,-0.00003767,0.00001298,0.00000137,-0.00002183
 ,-0.00001699,0.00000359,0.00001765,0.00000629,0.00000359,-0.00000008,0
 .00000473,0.00000078,-0.00000384,0.00001021,-0.00000162,-0.00000224,-0
 .00001315,0.00001315,-0.00000329,-0.00001028,0.00000257,-0.00001197,-0
 .00001276,-0.00000160,-0.00000061,0.00001109,-0.00000400,-0.00000450,-
 0.00000225,-0.00000638,0.00000233,0.00016939,0.00034694,-0.00035467,0.
 00006153,-0.00005810,-0.00026477,-0.00003997,0.00001269,0.00016133,0.1
 5770617,0.00181265,0.00131370,-0.00067058,0.01942292,-0.01372509,-0.02
 234407,-0.00194272,-0.00639615,0.00164936,-0.00018592,0.00006872,-0.00
 002148,0.00082960,0.00035798,-0.00146528,0.00065961,-0.00048974,-0.000
 12850,-0.00027879,-0.00011550,0.00009580,-0.00027359,0.00042943,0.0001
 8824,0.00001516,0.00012278,0.00004360,-0.00004600,-0.00015663,-0.00008
 542,-0.00002955,-0.00000010,-0.00002068,0.00005884,-0.00000693,0.00002
 314,0.00004677,0.00000983,-0.00002376,0.00001446,0.00007718,0.00003125
 ,-0.00000585,-0.00001764,-0.00000743,0.00001442,-0.00001569,-0.0000086
 4,0.00010463,0.00103150,-0.00147223,0.06797282,-0.08928069,-0.07341125
 ,-0.00095821,-0.00000992,0.00046711,-0.00012711,-0.00000730,0.00001003
 ,0.00010954,0.00040702,0.00038102,0.00000307,0.00000836,0.00012306,-0.
 00003708,-0.00037001,-0.00007538,-0.00001042,-0.00000783,0.00000575,0.
 00001717,-0.00000017,-0.00002348,-0.00001196,0.00000750,0.00001606,-0.
 00000858,-0.00000079,0.00000015,-0.00001912,0.00002464,0.00001015,0.00
 001869,-0.00001347,0.00000442,0.00000416,0.00000264,0.00000397,0.00000
 232,0.00000345,0.00000160,0.00001037,0.00000810,0.00001606,0.00001251,
 0.00000739,0.00000280,-0.00008781,-0.00003832,0.00088809,-0.00032783,0
 .00026445,0.00015085,-0.00005894,-0.00001332,0.00001281,-0.07321366,0.
 09937463,0.00029535,0.00058472,0.00021692,-0.00078344,0.00085099,-0.00
 148336,-0.00044949,-0.00069679,0.00024368,-0.00002485,0.00012931,0.000
 58413,0.00035857,0.00030614,0.00018788,0.00016875,-0.00035046,-0.00007
 853,-0.00017235,0.00015929,0.00008217,-0.00002487,-0.00007702,0.000166
 51,0.00003648,0.00003790,0.00004160,-0.00008383,-0.00003317,-0.0000580
 2,-0.00002444,-0.00000703,-0.00001953,0.00003446,0.00000554,0.00001302
 ,0.00002901,0.00001025,-0.00000902,0.00007196,0.00002851,0.00004247,-0
 .00001330,-0.00002298,-0.00001022,-0.00000719,-0.00002466,-0.00001747,
 -0.00051969,0.00048490,0.00070267,0.11378309,-0.07453475,-0.17060235,-
 0.00046399,-0.00034410,0.00025386,0.00009605,-0.00011313,-0.00020566,-
 0.00024193,0.00021159,0.00017025,-0.00003755,-0.00011431,0.00007296,0.
 00000582,-0.00000920,-0.00000297,-0.00001430,-0.00000348,0.00000903,0.
 00001525,-0.00000377,-0.00001232,-0.00000777,0.00000205,0.00000764,-0.
 00000659,-0.00000055,0.00000158,-0.00001083,0.00001048,0.00000425,0.00
 001287,-0.00000918,0.00000131,0.00000324,0.00000027,0.00000619,0.00000
 600,0.00000237,-0.00000115,0.00000205,0.00000128,0.00001053,0.00000503
 ,0.00000396,-0.00000320,0.00019588,0.00001103,0.00020099,-0.00003239,-
 0.00016048,0.00009590,-0.00004711,0.00003995,-0.00001761,-0.12421609,0
 .08170252,0.17925776,0.00082706,-0.00122497,0.00018180,-0.00147972,0.0
 0041867,0.00002852,-0.00019537,-0.00026644,0.00025436,-0.00001660,-0.0
 0003188,0.00005678,-0.00010326,0.00001690,-0.00005740,0.00010324,0.000
 12550,0.00000838,0.00019688,0.00003142,0.00001506,-0.00041090,0.000927
 10,0.00043901,0.00004151,-0.00017534,-0.00018939,-0.00002171,0.0002115
 7,0.00002639,0.00002140,0.00001525,-0.00002512,-0.00000191,-0.00002418
 ,0.00000615,-0.00000329,-0.00000069,-0.00001304,0.00017669,-0.00009132
 ,0.00010609,-0.00002071,-0.00004918,-0.00001964,-0.00007208,-0.0000693
 4,-0.00005162,0.00064833,0.00086564,-0.00023960,-0.28603806,-0.0687108
 2,-0.06276703,0.00028427,0.00015065,-0.00014583,0.00008605,0.00017791,
 0.00007436,-0.00011822,-0.00000398,-0.00014271,0.00000016,0.00001415,-
 0.00002364,-0.00001960,-0.00002285,0.00000608,0.00000271,-0.00000155,0
 .00000277,0.00000264,0.00000199,-0.00000072,-0.00000274,-0.00000008,-0
 .00000806,0.00000014,0.00000023,0.00000191,-0.00000248,-0.00000281,0.0
 0000146,0.00000221,0.00000137,0.00000242,0.00000856,-0.00000248,0.0000
 0778,0.00001018,0.00000124,0.00000082,-0.00000626,0.00000426,0.0000079
 9,0.00001004,0.00000587,-0.00000332,-0.00019463,-0.00014221,0.00006417
 ,0.00022513,0.00012111,0.00004449,0.00030208,-0.00024053,0.00020524,-0
 .01552083,-0.00472015,-0.00549133,0.30526120,0.00047472,-0.00662606,0.
 00001227,-0.02957845,-0.00575165,-0.00680145,-0.00113795,0.00089623,0.
 00031033,0.00006527,-0.00009221,0.00000353,-0.00025724,0.00003745,0.00
 016908,0.00052733,0.00084880,-0.00007691,0.00041637,-0.00077394,-0.000
 07391,-0.00003625,0.00010604,0.00036133,-0.00009815,0.00001235,0.00017
 583,0.00017316,-0.00018869,0.00003035,0.00003285,-0.00003160,0.0001198
 8,-0.00005403,0.00002585,-0.00003063,-0.00001433,-0.00001568,0.0000066
 2,-0.00019302,0.00002793,-0.00012796,0.00001731,0.00005893,0.00000981,
 0.00006354,0.00010480,0.00004699,-0.00115797,0.00154935,-0.00099160,-0
 .06614103,-0.06556261,-0.01649727,0.00010976,0.00003414,0.00022134,0.0
 0016670,0.00002220,-0.00017857,-0.00207126,-0.00055718,-0.00024596,-0.
 00002138,0.00007346,-0.00004718,0.00001381,0.00005298,0.00004943,0.000
 01067,0.00000208,-0.00002307,-0.00001840,0.00000267,0.00002527,0.00000
 653,0.00000446,0.00000648,0.00000570,-0.00000518,-0.00000186,0.0000083
 6,0.00000272,0.00000105,-0.00001186,0.00000893,-0.00000137,-0.00000183
 ,-0.00000287,-0.00000764,-0.00001504,-0.00000266,0.00000249,0.00001870
 ,0.00001689,-0.00002834,-0.00003063,-0.00001081,0.00001638,0.00007477,
 -0.00002891,0.00009490,0.00026264,0.00031128,-0.00022297,0.00060792,-0
 .00039197,0.00060941,0.01230746,0.00267998,0.00400354,0.07389813,0.070
 75171,0.00042051,0.00024665,0.00005268,0.00058978,0.00053592,-0.001871
 72,-0.00112881,-0.00000215,-0.00007443,-0.00004449,-0.00002556,0.00012
 356,-0.00018280,0.00005807,0.00010395,0.00041312,0.00071705,0.00006084
 ,0.00036670,-0.00057587,-0.00004655,-0.00029043,0.00022411,-0.00007190
 ,-0.00002283,0.00021202,-0.00003361,0.00014271,-0.00023678,0.00002890,
 0.00002732,-0.00000959,0.00003860,-0.00001809,0.00000445,-0.00001139,-
 0.00001575,-0.00001803,0.00002269,-0.00025821,0.00009161,-0.00012065,0
 .00001134,0.00005639,0.00002279,0.00004087,0.00010609,0.00011369,0.000
 95025,0.00041682,0.00023430,-0.06219750,-0.01722419,-0.06201241,-0.000
 33539,0.00004260,0.00016640,0.00032287,0.00003686,0.00020240,-0.000006
 11,0.00008405,0.00062093,0.00005233,0.00004161,-0.00002857,0.00003298,
 0.00003477,0.00000279,0.00000786,-0.00000443,-0.00002751,-0.00001352,0
 .00000404,0.00001102,0.00000297,0.00001123,0.00000311,-0.00000070,0.00
 000566,-0.00000907,0.00000654,0.00000490,-0.00000096,-0.00000952,0.000
 01007,-0.00000576,-0.00001985,0.00000608,-0.00001602,-0.00001111,-0.00
 000368,-0.00000249,-0.00000842,-0.00003045,-0.00001993,0.00001705,-0.0
 0000844,-0.00001179,0.00020335,-0.00001533,-0.00006700,0.00000899,-0.0
 0018641,-0.00008560,-0.00016382,0.00024202,0.00032356,0.02030868,0.006
 12918,0.00544897,0.06717513,0.01682037,0.06261814,0.00051798,-0.000127
 11,0.00094670,-0.00141983,-0.00079363,0.00349078,0.00023792,0.00051093
 ,-0.00077493,0.00012921,0.00024828,0.00019776,0.00007138,-0.00001098,0
 .00008932,-0.00006818,-0.00022453,-0.00007229,-0.00008207,0.00012008,0
 .00000499,0.00002214,-0.00027007,0.00039445,-0.00000684,-0.00002461,0.
 00012222,-0.00003634,0.00000071,-0.00003192,-0.00000671,-0.00001302,0.
 00000331,0.00000230,0.00002196,-0.00000867,0.00000786,0.00000747,-0.00
 000115,0.00004585,-0.00000183,0.00001213,0.00000120,-0.00000850,-0.000
 00350,0.00001772,-0.00001780,-0.00005072,0.00012632,-0.00002168,0.0001
 6654,-0.05603169,0.02114925,-0.05146941,0.00003558,-0.00002638,0.00006
 327,-0.00000054,-0.00020299,-0.00026248,0.00001136,0.00018362,-0.00011
 429,-0.00001308,-0.00007679,0.00001247,-0.00000051,0.00001366,-0.00000
 181,-0.00000897,0.00000112,0.00000758,0.00000512,-0.00000597,0.0000016
 1,-0.00000060,-0.00000314,0.00000435,0.00000118,-0.00000622,0.00000632
 ,-0.00000116,0.00000114,-0.00000033,0.00000215,-0.00000433,0.00000096,
 0.00000877,-0.00000368,0.00000540,-0.00000205,0.00000300,0.00000107,0.
 00001879,0.00001703,0.00001486,-0.00001581,-0.00000092,0.00000745,-0.0
 0005083,-0.00007788,-0.00024447,0.00056876,0.00001482,-0.00013682,0.00
 032854,-0.00018875,0.00020549,0.00434355,-0.00878645,0.01755347,-0.003
 98211,0.01157711,-0.02637400,0.05522366,0.00129808,0.00104298,0.000590
 31,0.00775157,-0.01080975,0.02834087,0.00030995,0.00071596,0.00262872,
 0.00001896,0.00001709,-0.00126077,-0.00035689,0.00016540,-0.00017538,-
 0.00007648,0.00037959,0.00002598,0.00003315,-0.00020021,-0.00003897,-0
 .00014354,0.00012712,-0.00038750,-0.00002732,-0.00000450,-0.00001718,0
 .00005487,-0.00000342,0.00003655,0.00001770,-0.00001391,0.00005017,-0.
 00003026,0.00000249,-0.00000140,-0.00000472,-0.00000918,0.00001861,-0.
 00004962,0.00000362,-0.00003184,0.00000093,0.00000572,0.00001010,0.000
 00612,0.00001350,0.00000252,-0.00138519,-0.00651723,-0.00122459,0.0208
 5780,-0.08479122,0.09313245,-0.00004643,-0.00005895,-0.00010438,-0.000
 67492,0.00007077,-0.00045086,0.00009339,0.00014420,-0.00035978,0.00004
 892,0.00021781,0.00006891,0.00002891,-0.00002297,-0.00004227,0.0000111
 8,0.00000574,-0.00000827,-0.00000901,0.00000300,0.00000719,0.00000482,
 -0.00000357,-0.00000264,-0.00000551,0.00000517,-0.00000902,0.00000399,
 -0.00000372,-0.00000074,-0.00000410,0.00000504,-0.00000616,-0.00000425
 ,-0.00000067,-0.00000457,-0.00000335,0.00000011,-0.00000147,0.00000370
 ,-0.00000340,0.00000002,-0.00000287,-0.00000067,0.00000156,-0.00024083
 ,0.00012447,-0.00006510,0.00065995,-0.00091615,0.00185113,0.00001384,0
 .00007175,-0.00018219,-0.00397143,0.00446603,-0.01208152,-0.00120818,0
 .00241080,-0.00780172,-0.02297294,0.09336118,-0.00004821,-0.00039151,0
 .00015403,-0.00019023,-0.00149099,-0.00014306,0.00069070,-0.00159997,0
 .00063184,-0.00035265,0.00028855,0.00046478,0.00017186,0.00007926,0.00
 027710,0.00005515,0.00003143,-0.00001631,0.00003374,-0.00020345,-0.000
 07532,-0.00028443,0.00019182,0.00021166,-0.00003429,-0.00003142,0.0000
 6124,0.00003267,0.00000700,0.00000663,0.00001670,-0.00001042,0.0000201
 4,-0.00002687,0.00001167,-0.00001842,-0.00001188,-0.00000305,-0.000002
 52,-0.00001994,-0.00001626,-0.00001573,0.00001050,0.00001108,-0.000000
 62,0.00001978,0.00000891,-0.00002441,0.00064800,0.00079402,0.00093368,
 -0.05152426,0.09488718,-0.27067066,-0.00011539,0.00002775,-0.00006166,
 0.00043931,0.00028900,0.00024722,0.00019659,0.00001357,0.00021327,-0.0
 0002248,-0.00011317,0.00003980,-0.00000001,0.00006225,0.00003045,0.000
 00101,0.00000230,-0.00000332,-0.00000741,-0.00000001,0.00001232,0.0000
 0415,0.00000019,-0.00000034,0.00000651,-0.00000589,0.00000580,0.000005
 58,-0.00000208,-0.00000104,-0.00000648,0.00000338,0.00000181,0.0000058
 3,-0.00000308,0.00000063,-0.00000650,0.00000055,0.00000266,0.00000927,
 0.00001266,0.00000194,-0.00001531,-0.00000421,0.00000824,-0.00007533,-
 0.00021964,0.00039052,-0.00019322,-0.00000328,-0.00002472,0.00005207,-
 0.00017860,0.00001207,-0.00616012,0.00780117,-0.01530083,0.00046132,0.
 00226003,-0.00568199,0.05623427,-0.10250676,0.28831309\\-0.00029834,0.
 00067727,0.00164256,-0.00029383,-0.00033717,-0.00278230,0.01846307,-0.
 00539877,0.00223981,-0.00465635,-0.00042966,-0.00008393,0.00266557,-0.
 00442950,-0.00140351,-0.01315140,-0.02032315,-0.00466719,-0.00924439,0
 .02979560,0.00466117,0.00319767,0.00219948,-0.00006961,-0.00449551,-0.
 00151459,-0.00533470,-0.01431855,0.03002552,0.00090791,0.00003571,0.00
 153666,0.00005168,-0.00068701,-0.00234955,0.00155721,0.00032070,0.0002
 6356,-0.00193634,0.02222152,-0.00646619,0.00905205,0.00190763,-0.00482
 958,-0.00036240,-0.00782258,-0.01305568,-0.00670435,0.00060877,0.00070
 076,0.00062004,0.00333146,0.00200832,0.00343653,-0.00073886,0.00006639
 ,0.00018890,-0.00033174,-0.00007320,-0.00036250,0.00030588,0.00023407,
 -0.00017043,-0.00091632,-0.00055574,0.00007784,-0.00093293,-0.00101814
 ,-0.00013479,0.00199405,-0.00057037,0.00261223,0.00041110,0.00010998,-
 0.00065406,0.00007294,-0.00075406,-0.00080479,-0.00003593,0.00026955,-
 0.00001741,-0.00027369,-0.00062510,0.00016531,0.00047437,-0.00029939,0
 .00040169,0.00073737,-0.00004486,0.00061626,0.00110560,-0.00006718,0.0
 0024739,0.00116681,-0.00082076,0.00340023,0.00362620,0.00044239,-0.001
 23492,-0.00075863,0.00004346,0.00032842,-0.00008182,0.00032080,-0.0004
 0228,-0.00017680,-0.00036566,-0.00142225,-0.00184189,0.00028219,-0.000
 61689,0.00031678,-0.00443591,-0.00257937,-0.00190663,-0.00021176,-0.00
 046321\\\@

 Writing a WFNX file to "06_lig_b.wfx"


 LET US LEARN TO DREAM, GENTLEMEN, THEN PERHAPS WE SHALL
 DISCOVER THE TRUTH;  BUT LET US BEWARE OF PUBLISHING
 OUR DREAMS ABROAD BEFORE THEY HAVE BEEN SCRUTINIZED
 BY OUR VIGILANT INTELLECT ... LET US ALWAYS ALLOW
 THE FRUIT TO HANG UNTIL IT IS RIPE.  UNRIPE FRUIT
 BRINGS EVEN THE GROWER BUT LITTLE PROFIT; IT DAMAGES
 THE HEALTH OF THOSE WHO CONSUME IT; IT ENDANGERS
 PARTICULARLY THE YOUTH WHO CANNOT YET DISTINGUISH
 BETWEEN RIPE AND UNRIPE FRUIT.

                                  -- KEKULE, 1890
 Job cpu time:       0 days  2 hours 21 minutes  0.9 seconds.
 Elapsed time:       0 days  0 hours 19 minutes  8.4 seconds.
 File lengths (MBytes):  RWF=    519 Int=      0 D2E=      0 Chk=      9 Scr=      1
 Normal termination of Gaussian 16 at Thu Nov  3 08:23:33 2022.
