 Entering Gaussian System, Link 0=g16
 Initial command:
 /software/gaussian/G16-A.03/avx/g16/l1.exe "/scratch/lcmd/1361381.slurm/Gau-145318.inp" -scrdir="/scratch/lcmd/1361381.slurm/"
 Entering Link 1 = /software/gaussian/G16-A.03/avx/g16/l1.exe PID=    145319.
  
 Copyright (c) 1988,1990,1992,1993,1995,1998,2003,2009,2016,
            Gaussian, Inc.  All Rights Reserved.
  
 This is part of the Gaussian(R) 16 program.  It is based on
 the Gaussian(R) 09 system (copyright 2009, Gaussian, Inc.),
 the Gaussian(R) 03 system (copyright 2003, Gaussian, Inc.),
 the Gaussian(R) 98 system (copyright 1998, Gaussian, Inc.),
 the Gaussian(R) 94 system (copyright 1995, Gaussian, Inc.),
 the Gaussian 92(TM) system (copyright 1992, Gaussian, Inc.),
 the Gaussian 90(TM) system (copyright 1990, Gaussian, Inc.),
 the Gaussian 88(TM) system (copyright 1988, Gaussian, Inc.),
 the Gaussian 86(TM) system (copyright 1986, Carnegie Mellon
 University), and the Gaussian 82(TM) system (copyright 1983,
 Carnegie Mellon University). Gaussian is a federally registered
 trademark of Gaussian, Inc.
  
 This software contains proprietary and confidential information,
 including trade secrets, belonging to Gaussian, Inc.
  
 This software is provided under written license and may be
 used, copied, transmitted, or stored only in accord with that
 written license.
  
 The following legend is applicable only to US Government
 contracts under FAR:
  
                    RESTRICTED RIGHTS LEGEND
  
 Use, reproduction and disclosure by the US Government is
 subject to restrictions as set forth in subparagraphs (a)
 and (c) of the Commercial Computer Software - Restricted
 Rights clause in FAR 52.227-19.
  
 Gaussian, Inc.
 340 Quinnipiac St., Bldg. 40, Wallingford CT 06492
  
  
 ---------------------------------------------------------------
 Warning -- This program may not be used in any manner that
 competes with the business of Gaussian, Inc. or will provide
 assistance to any competitor of Gaussian, Inc.  The licensee
 of this program is prohibited from giving any competitor of
 Gaussian, Inc. access to this program.  By using this program,
 the user acknowledges that Gaussian, Inc. is engaged in the
 business of creating and licensing software in the field of
 computational chemistry and represents and warrants to the
 licensee that it is not a competitor of Gaussian, Inc. and that
 it will not use this program in any manner prohibited above.
 ---------------------------------------------------------------
  

 Cite this work as:
 Gaussian 16, Revision A.03,
 M. J. Frisch, G. W. Trucks, H. B. Schlegel, G. E. Scuseria, 
 M. A. Robb, J. R. Cheeseman, G. Scalmani, V. Barone, 
 G. A. Petersson, H. Nakatsuji, X. Li, M. Caricato, A. V. Marenich, 
 J. Bloino, B. G. Janesko, R. Gomperts, B. Mennucci, H. P. Hratchian, 
 J. V. Ortiz, A. F. Izmaylov, J. L. Sonnenberg, D. Williams-Young, 
 F. Ding, F. Lipparini, F. Egidi, J. Goings, B. Peng, A. Petrone, 
 T. Henderson, D. Ranasinghe, V. G. Zakrzewski, J. Gao, N. Rega, 
 G. Zheng, W. Liang, M. Hada, M. Ehara, K. Toyota, R. Fukuda, 
 J. Hasegawa, M. Ishida, T. Nakajima, Y. Honda, O. Kitao, H. Nakai, 
 T. Vreven, K. Throssell, J. A. Montgomery, Jr., J. E. Peralta, 
 F. Ogliaro, M. J. Bearpark, J. J. Heyd, E. N. Brothers, K. N. Kudin, 
 V. N. Staroverov, T. A. Keith, R. Kobayashi, J. Normand, 
 K. Raghavachari, A. P. Rendell, J. C. Burant, S. S. Iyengar, 
 J. Tomasi, M. Cossi, J. M. Millam, M. Klene, C. Adamo, R. Cammi, 
 J. W. Ochterski, R. L. Martin, K. Morokuma, O. Farkas, 
 J. B. Foresman, and D. J. Fox, Gaussian, Inc., Wallingford CT, 2016.
 
 ******************************************
 Gaussian 16:  ES64L-G16RevA.03 25-Dec-2016
                 3-Nov-2022 
 ******************************************
 %nprocs=8
 Will use up to    8 processors via shared memory.
 %mem=32000MB
 %chk=08_lig_b.chk
 ----------------------------------------------------------------------
 #p pop=(regular,nbo,savenbos) freq=noraman def2svp empiricaldispersion
 =gd3bj output=wfx pbe1pbe
 ----------------------------------------------------------------------
 1/10=4,30=1,38=1/1,3;
 2/12=2,17=6,18=5,40=1/2;
 3/5=43,7=101,11=2,25=1,30=1,71=2,74=-13,124=41,140=1/1,2,3;
 4//1;
 5/5=2,38=5,98=1/2;
 8/6=4,10=90,11=11/1;
 11/6=1,8=1,9=11,15=111,16=1/1,2,10;
 10/6=1/2;
 6/28=1,40=1,73=1/1,7;
 7/8=1,10=1,25=1/1,2,3,16;
 1/10=4,30=1/3;
 99/6=200/99;
 Leave Link    1 at Thu Nov  3 09:16:49 2022, MaxMem=  4194304000 cpu:               0.4 elap:               0.1
 (Enter /software/gaussian/G16-A.03/avx/g16/l101.exe)
 --------
 08_lig_b
 --------
 Symbolic Z-matrix:
 Charge =  0 Multiplicity = 1
 C                    -1.89943   3.22401   0.85555 
 C                    -1.3308    2.14344  -0.08251 
 C                    -2.39396   1.10369  -0.31269 
 N                    -2.3664   -0.15179  -0.08954 
 C                    -3.65416  -0.71888  -0.48152 
 C                    -4.39579   0.47708  -1.09029 
 O                    -3.51997   1.59263  -0.83452 
 N                     0.24313   0.36839   0.74741 
 C                    -0.06973   1.58311   0.51749 
 O                     0.84996   2.50488   0.79817 
 C                     1.99823   1.83049   1.36779 
 H                     2.06913   2.16273   2.41284 
 C                     1.64135   0.3358    1.18816 
 H                     1.70495  -0.2934    2.08815 
 C                     2.55273  -0.13257   0.08141 
 C                     3.42625   0.88629  -0.30771 
 C                     4.32606   0.67446  -1.35013 
 C                     4.33219  -0.56362  -1.99293 
 C                     3.45786  -1.57902  -1.59529 
 C                     2.55816  -1.3751   -0.54976 
 C                     3.25866   2.11129   0.55146 
 C                    -0.95776   2.75747  -1.44853 
 H                    -2.16672   2.79485   1.83239 
 H                    -2.79817   3.66807   0.40869 
 H                    -1.14773   4.00821   1.01184 
 H                    -4.15151  -1.13557   0.40814 
 H                    -3.46627  -1.55253  -1.17391 
 H                    -5.36611   0.69229  -0.62315 
 H                    -4.53086   0.40074  -2.17936 
 H                     5.01615   1.46297  -1.66153 
 H                     5.02976  -0.74181  -2.81503 
 H                     3.47636  -2.54359  -2.10751 
 H                     1.8742   -2.16388  -0.22427 
 H                     3.14975   3.04411  -0.02307 
 H                     4.12322   2.24831   1.22199 
 H                    -1.8515    3.19206  -1.91489 
 H                    -0.54307   1.99056  -2.11911 
 H                    -0.20532   3.54403  -1.30612 
 
 ITRead=  0  0  0  0  0  0  0  0  0  0  0  0  0  0  0  0  0  0  0  0
 ITRead=  0  0  0  0  0  0  0  0  0  0  0  0  0  0  0  0  0  0
 MicOpt= -1 -1 -1 -1 -1 -1 -1 -1 -1 -1 -1 -1 -1 -1 -1 -1 -1 -1 -1 -1
 MicOpt= -1 -1 -1 -1 -1 -1 -1 -1 -1 -1 -1 -1 -1 -1 -1 -1 -1 -1
 NAtoms=     38 NQM=       38 NQMF=       0 NMMI=      0 NMMIF=      0
                NMic=       0 NMicF=      0.
                    Isotopes and Nuclear Properties:
 (Nuclear quadrupole moments (NQMom) in fm**2, nuclear magnetic moments (NMagM)
  in nuclear magnetons)

  Atom         1           2           3           4           5           6           7           8           9          10
 IAtWgt=          12          12          12          14          12          12          16          14          12          16
 AtmWgt=  12.0000000  12.0000000  12.0000000  14.0030740  12.0000000  12.0000000  15.9949146  14.0030740  12.0000000  15.9949146
 NucSpn=           0           0           0           2           0           0           0           2           0           0
 AtZEff=  -0.0000000  -0.0000000  -0.0000000  -0.0000000  -0.0000000  -0.0000000  -0.0000000  -0.0000000  -0.0000000  -0.0000000
 NQMom=    0.0000000   0.0000000   0.0000000   2.0440000   0.0000000   0.0000000   0.0000000   2.0440000   0.0000000   0.0000000
 NMagM=    0.0000000   0.0000000   0.0000000   0.4037610   0.0000000   0.0000000   0.0000000   0.4037610   0.0000000   0.0000000
 AtZNuc=   6.0000000   6.0000000   6.0000000   7.0000000   6.0000000   6.0000000   8.0000000   7.0000000   6.0000000   8.0000000

  Atom        11          12          13          14          15          16          17          18          19          20
 IAtWgt=          12           1          12           1          12          12          12          12          12          12
 AtmWgt=  12.0000000   1.0078250  12.0000000   1.0078250  12.0000000  12.0000000  12.0000000  12.0000000  12.0000000  12.0000000
 NucSpn=           0           1           0           1           0           0           0           0           0           0
 AtZEff=  -0.0000000  -0.0000000  -0.0000000  -0.0000000  -0.0000000  -0.0000000  -0.0000000  -0.0000000  -0.0000000  -0.0000000
 NQMom=    0.0000000   0.0000000   0.0000000   0.0000000   0.0000000   0.0000000   0.0000000   0.0000000   0.0000000   0.0000000
 NMagM=    0.0000000   2.7928460   0.0000000   2.7928460   0.0000000   0.0000000   0.0000000   0.0000000   0.0000000   0.0000000
 AtZNuc=   6.0000000   1.0000000   6.0000000   1.0000000   6.0000000   6.0000000   6.0000000   6.0000000   6.0000000   6.0000000

  Atom        21          22          23          24          25          26          27          28          29          30
 IAtWgt=          12          12           1           1           1           1           1           1           1           1
 AtmWgt=  12.0000000  12.0000000   1.0078250   1.0078250   1.0078250   1.0078250   1.0078250   1.0078250   1.0078250   1.0078250
 NucSpn=           0           0           1           1           1           1           1           1           1           1
 AtZEff=  -0.0000000  -0.0000000  -0.0000000  -0.0000000  -0.0000000  -0.0000000  -0.0000000  -0.0000000  -0.0000000  -0.0000000
 NQMom=    0.0000000   0.0000000   0.0000000   0.0000000   0.0000000   0.0000000   0.0000000   0.0000000   0.0000000   0.0000000
 NMagM=    0.0000000   0.0000000   2.7928460   2.7928460   2.7928460   2.7928460   2.7928460   2.7928460   2.7928460   2.7928460
 AtZNuc=   6.0000000   6.0000000   1.0000000   1.0000000   1.0000000   1.0000000   1.0000000   1.0000000   1.0000000   1.0000000

  Atom        31          32          33          34          35          36          37          38
 IAtWgt=           1           1           1           1           1           1           1           1
 AtmWgt=   1.0078250   1.0078250   1.0078250   1.0078250   1.0078250   1.0078250   1.0078250   1.0078250
 NucSpn=           1           1           1           1           1           1           1           1
 AtZEff=  -0.0000000  -0.0000000  -0.0000000  -0.0000000  -0.0000000  -0.0000000  -0.0000000  -0.0000000
 NQMom=    0.0000000   0.0000000   0.0000000   0.0000000   0.0000000   0.0000000   0.0000000   0.0000000
 NMagM=    2.7928460   2.7928460   2.7928460   2.7928460   2.7928460   2.7928460   2.7928460   2.7928460
 AtZNuc=   1.0000000   1.0000000   1.0000000   1.0000000   1.0000000   1.0000000   1.0000000   1.0000000
 Leave Link  101 at Thu Nov  3 09:16:49 2022, MaxMem=  4194304000 cpu:               1.0 elap:               0.1
 (Enter /software/gaussian/G16-A.03/avx/g16/l103.exe)

 GradGradGradGradGradGradGradGradGradGradGradGradGradGradGradGradGradGrad
 Berny optimization.
 Initialization pass.
 Trust Radius=3.00D-01 FncErr=1.00D-07 GrdErr=1.00D-07 EigMax=2.50D+02 EigMin=1.00D-04
 Number of steps in this run=      2 maximum allowed number of steps=      2.
 GradGradGradGradGradGradGradGradGradGradGradGradGradGradGradGradGradGrad

 Leave Link  103 at Thu Nov  3 09:16:49 2022, MaxMem=  4194304000 cpu:               0.2 elap:               0.0
 (Enter /software/gaussian/G16-A.03/avx/g16/l202.exe)
                          Input orientation:                          
 ---------------------------------------------------------------------
 Center     Atomic      Atomic             Coordinates (Angstroms)
 Number     Number       Type             X           Y           Z
 ---------------------------------------------------------------------
      1          6           0       -1.899430    3.224010    0.855550
      2          6           0       -1.330800    2.143440   -0.082510
      3          6           0       -2.393960    1.103690   -0.312690
      4          7           0       -2.366400   -0.151790   -0.089540
      5          6           0       -3.654160   -0.718880   -0.481520
      6          6           0       -4.395790    0.477080   -1.090290
      7          8           0       -3.519970    1.592630   -0.834520
      8          7           0        0.243130    0.368390    0.747410
      9          6           0       -0.069730    1.583110    0.517490
     10          8           0        0.849960    2.504880    0.798170
     11          6           0        1.998230    1.830490    1.367790
     12          1           0        2.069130    2.162730    2.412840
     13          6           0        1.641350    0.335800    1.188160
     14          1           0        1.704950   -0.293400    2.088150
     15          6           0        2.552730   -0.132570    0.081410
     16          6           0        3.426250    0.886290   -0.307710
     17          6           0        4.326060    0.674460   -1.350130
     18          6           0        4.332190   -0.563620   -1.992930
     19          6           0        3.457860   -1.579020   -1.595290
     20          6           0        2.558160   -1.375100   -0.549760
     21          6           0        3.258660    2.111290    0.551460
     22          6           0       -0.957760    2.757470   -1.448530
     23          1           0       -2.166720    2.794850    1.832390
     24          1           0       -2.798170    3.668070    0.408690
     25          1           0       -1.147730    4.008210    1.011840
     26          1           0       -4.151510   -1.135570    0.408140
     27          1           0       -3.466270   -1.552530   -1.173910
     28          1           0       -5.366110    0.692290   -0.623150
     29          1           0       -4.530860    0.400740   -2.179360
     30          1           0        5.016150    1.462970   -1.661530
     31          1           0        5.029760   -0.741810   -2.815030
     32          1           0        3.476360   -2.543590   -2.107510
     33          1           0        1.874200   -2.163880   -0.224270
     34          1           0        3.149750    3.044110   -0.023070
     35          1           0        4.123220    2.248310    1.221990
     36          1           0       -1.851500    3.192060   -1.914890
     37          1           0       -0.543070    1.990560   -2.119110
     38          1           0       -0.205320    3.544030   -1.306120
 ---------------------------------------------------------------------
                    Distance matrix (angstroms):
                    1          2          3          4          5
     1  C    0.000000
     2  C    1.539782   0.000000
     3  C    2.470850   1.504783   0.000000
     4  N    3.536564   2.518054   1.275455   0.000000
     5  C    4.518099   3.708111   2.222244   1.460673   0.000000
     6  C    4.190911   3.631328   2.237102   2.348489   1.533276
     7  O    2.853750   2.379365   1.333892   2.220072   2.342156
     8  N    3.571670   2.513330   2.935766   2.789394   4.228628
     9  C    2.480855   1.504748   2.514177   2.941608   4.375536
    10  O    2.842461   2.379485   3.704100   4.265079   5.684834
    11  C    4.170856   3.644688   4.758528   5.010313   6.470606
    12  H    4.393283   4.217424   5.335659   5.594000   7.031148
    13  C    4.581431   3.703490   4.373321   4.234657   5.651779
    14  H    5.184885   4.457099   4.951460   4.619337   5.958548
    15  C    5.629179   4.504320   5.114039   4.922137   6.259883
    16  C    5.931355   4.925512   5.824271   5.888973   7.262161
    17  C    7.079686   5.980370   6.813163   6.860087   8.147379
    18  C    7.828989   6.561047   7.130514   6.975930   8.129591
    19  C    7.601070   6.251118   6.563977   6.182740   7.249907
    20  C    6.557196   5.265212   5.542932   5.095055   6.247255
    21  C    5.285500   4.633152   5.806387   6.097025   7.540822
    22  C    2.532427   1.543438   2.467345   3.506410   4.504519
    23  H    1.099927   2.188593   2.740990   3.523688   4.462394
    24  H    1.097546   2.172314   2.694405   3.876337   4.557469
    25  H    1.097474   2.169904   3.426909   4.472560   5.554970
    26  H    4.927269   4.353051   2.936471   2.098124   1.101128
    27  H    5.421165   4.405858   2.991163   2.085101   1.099854
    28  H    4.540268   4.322251   3.016506   3.161561   2.223113
    29  H    4.909782   4.204066   2.923172   3.059007   2.214681
    30  H    7.567179   6.575722   7.540436   7.718850   9.018158
    31  H    8.787182   7.499870   8.048552   7.904404   8.992011
    32  H    8.422829   7.012679   7.140356   6.628028   7.537753
    33  H    6.666007   5.370766   5.376060   4.695673   5.719875
    34  H    5.128212   4.570565   5.880632   6.375430   7.788675
    35  H    6.112167   5.608837   6.792572   7.042426   8.496694
    36  H    2.771039   2.174477   2.687489   3.844263   4.538676
    37  H    3.494240   2.188979   2.734133   3.468912   4.438654
    38  H    2.765002   2.173840   3.425246   4.450777   5.544985
                    6          7          8          9         10
     6  C    0.000000
     7  O    1.441156   0.000000
     8  N    4.990845   4.261712   0.000000
     9  C    4.745846   3.705695   1.275260   0.000000
    10  O    5.932634   4.753332   2.221578   1.332018   0.000000
    11  C    6.982648   5.946199   2.367062   2.249592   1.448376
    12  H    7.543774   6.489099   3.054110   2.915996   2.051975
    13  C    6.454328   5.684196   1.466404   2.221120   2.341644
    14  H    6.922077   6.276854   2.091045   3.022871   3.197722
    15  C    7.072940   6.379101   2.455355   3.164020   3.220142
    16  C    7.871734   7.001887   3.393192   3.659015   3.237294
    17  C    8.727952   7.916380   4.600399   4.861751   4.477600
    18  C    8.836031   8.224825   5.009842   5.503413   5.415889
    19  C    8.134027   7.702483   4.428898   5.187176   5.404446
    20  C    7.216659   6.769946   3.175181   4.098272   4.448495
    21  C    7.997286   6.938283   3.488484   3.370209   2.453083
    22  C    4.141083   2.880760   3.460057   2.456207   2.894705
    23  H    4.345442   3.223201   3.587794   2.755838   3.202195
    24  H    3.870626   2.524682   4.500236   3.435590   3.848839
    25  H    5.238103   3.856371   3.905471   2.699551   2.509267
    26  H    2.214860   3.063678   4.657237   4.905518   6.198363
    27  H    2.233902   3.163874   4.597940   4.922353   6.243518
    28  H    1.098206   2.064830   5.783331   5.490561   6.629115
    29  H    1.100066   2.061818   5.599822   5.345342   6.499716
    30  H    9.480660   8.577068   5.457364   5.534324   4.949024
    31  H    9.659266   9.081295   6.069213   6.520410   6.408349
    32  H    8.492934   8.226631   5.204226   6.041112   6.389679
    33  H    6.858384   6.601579   3.164955   4.285908   4.887921
    34  H    8.041379   6.873893   4.025116   3.576559   2.500847
    35  H    9.003190   7.942135   4.337560   4.303445   3.310541
    36  H    3.811101   2.551307   4.410037   3.417586   3.889833
    37  H    4.265272   3.266566   3.386220   2.709562   3.273466
    38  H    5.197384   3.875213   3.808252   2.681258   2.573225
                   11         12         13         14         15
    11  C    0.000000
    12  H    1.098881   0.000000
    13  C    1.547168   2.240649   0.000000
    14  H    2.261822   2.504122   1.099963   0.000000
    15  C    2.411607   3.307240   1.508270   2.184400   0.000000
    16  C    2.395424   3.297342   2.393018   3.177214   1.397329
    17  C    3.760623   4.633425   3.710158   4.430433   2.417706
    18  C    4.740630   5.653781   4.262500   4.861134   2.766798
    19  C    4.747117   5.656357   3.835862   4.277060   2.392238
    20  C    3.777079   4.640301   2.605395   2.976006   1.393659
    21  C    1.527720   2.209607   2.484641   3.249302   2.398790
    22  C    4.186744   4.942262   4.424024   5.376424   4.797561
    23  H    4.300308   4.321912   4.578576   4.959086   5.823137
    24  H    5.225134   5.474785   5.605438   6.228316   6.571462
    25  H    3.842685   3.964440   4.614829   5.272578   5.630734
    26  H    6.894762   7.320790   6.027486   6.150594   6.786722
    27  H    6.911282   7.570243   5.935735   6.242432   6.310347
    28  H    7.713161   8.164694   7.246546   7.636925   7.992798
    29  H    7.566735   8.231208   7.031400   7.588069   7.454713
    30  H    4.291817   5.076917   4.558566   5.301790   3.413506
    31  H    5.770865   6.673253   5.354260   5.941095   3.859562
    32  H    5.778854   6.675576   4.745481   5.079844   3.384890
    33  H    4.301747   5.070690   2.880552   2.979031   2.163345
    34  H    2.175629   2.806818   3.328257   4.205196   3.233983
    35  H    2.170579   2.375865   3.133451   3.613662   3.071799
    36  H    5.239302   5.929596   5.476052   6.389139   5.868187
    37  H    4.317673   5.233718   4.295108   5.288771   4.351316
    38  H    3.865443   4.572940   4.463671   5.467730   4.800986
                   16         17         18         19         20
    16  C    0.000000
    17  C    1.393259   0.000000
    18  C    2.400611   1.395017   0.000000
    19  C    2.781477   2.427354   1.397715   0.000000
    20  C    2.434349   2.822545   2.426607   1.394337   0.000000
    21  C    1.505618   2.611488   3.844676   4.273945   3.722674
    22  C    4.901258   5.680437   6.269735   6.190669   5.499783
    23  H    6.285216   7.535296   8.255194   7.906683   6.737033
    24  H    6.855285   7.925264   8.632324   8.407485   7.419061
    25  H    5.692881   6.830459   7.743371   7.695825   6.719542
    26  H    7.875456   8.845163   8.835464   7.881173   6.781933
    27  H    7.362403   8.106229   7.903462   6.936991   6.059274
    28  H    8.800155   9.719412   9.874747   9.163316   8.189844
    29  H    8.188677   8.899864   8.917309   8.251075   7.487550
    30  H    2.166373   1.093134   2.164415   3.418532   3.915659
    31  H    3.392434   2.155678   1.092796   2.158600   3.411937
    32  H    3.873741   3.413424   2.160059   1.092294   2.152916
    33  H    3.423355   3.916038   3.425012   2.174796   1.093581
    34  H    2.194005   2.959736   4.277175   4.892866   4.489632
    35  H    2.163527   3.022242   4.276252   4.798773   4.326385
    36  H    5.979486   6.694738   7.235278   7.145254   6.493661
    37  H    4.500676   5.102144   5.505263   5.387368   4.838197
    38  H    4.609632   5.363746   6.159017   6.304613   5.692692
                   21         22         23         24         25
    21  C    0.000000
    22  C    4.711232   0.000000
    23  H    5.616296   3.496772   0.000000
    24  H    6.255329   2.768676   1.785543   0.000000
    25  H    4.819391   2.766561   1.784345   1.789815   0.000000
    26  H    8.091555   5.366845   4.627751   4.990640   5.987121
    27  H    7.850170   4.994411   5.443012   5.495966   6.408975
    28  H    8.819293   4.937587   4.548245   4.063776   5.609211
    29  H    8.429708   4.342273   5.235939   4.513941   5.885845
    30  H    2.899382   6.116265   8.097839   8.379253   7.184606
    31  H    4.755022   7.068428   9.267999   9.545465   8.681533
    32  H    5.365205   6.942400   8.710115   9.180725   8.604571
    33  H    4.560215   5.808485   6.719218   7.499555   6.982458
    34  H    1.100954   4.357263   5.636463   5.996123   4.524253
    35  H    1.102655   5.762576   6.343078   7.112160   5.560964
    36  H    5.776217   1.097785   3.781434   2.553780   3.118837
    37  H    4.647545   1.099907   4.347122   3.780118   3.773509
    38  H    4.183600   1.097781   3.776057   3.111082   2.544904
                   26         27         28         29         30
    26  H    0.000000
    27  H    1.773779   0.000000
    28  H    2.424847   2.991980   0.000000
    29  H    3.033037   2.441218   1.790093   0.000000
    30  H    9.750997   9.015679  10.462481   9.619869   0.000000
    31  H    9.738562   8.690976  10.720779   9.649609   2.488333
    32  H    8.154472   7.074880   9.532236   8.531695   4.315365
    33  H    6.145449   5.458588   7.793517   7.171084   5.009152
    34  H    8.424017   8.137890   8.855000   8.404092   2.944147
    35  H    8.976868   8.819698   9.791482   9.480285   3.119098
    36  H    5.423550   5.066327   4.502213   3.878193   7.086505
    37  H    5.401900   4.689562   5.213935   4.293440   5.602915
    38  H    6.356867   6.051958   5.935707   5.417852   5.632129
                   31         32         33         34         35
    31  H    0.000000
    32  H    2.481944   0.000000
    33  H    4.323411   2.501537   0.000000
    34  H    5.065833   5.972768   5.365694   0.000000
    35  H    5.104916   5.870801   5.159184   1.769496   0.000000
    36  H    7.977301   7.830765   6.739817   5.349147   6.813807
    37  H    6.245525   6.059247   5.166525   4.374960   5.744880
    38  H    6.931904   7.159337   6.170498   3.626656   5.177498
                   36         37         38
    36  H    0.000000
    37  H    1.788099   0.000000
    38  H    1.790082   1.785580   0.000000
 Stoichiometry    C16H18N2O2
 Framework group  C1[X(C16H18N2O2)]
 Deg. of freedom   108
 Full point group                 C1      NOp   1
 Largest Abelian subgroup         C1      NOp   1
 Largest concise Abelian subgroup C1      NOp   1
                         Standard orientation:                         
 ---------------------------------------------------------------------
 Center     Atomic      Atomic             Coordinates (Angstroms)
 Number     Number       Type             X           Y           Z
 ---------------------------------------------------------------------
      1          6           0       -2.520686   -2.211425   -0.044651
      2          6           0       -1.779022   -0.922031    0.353252
      3          6           0       -2.675299    0.252097    0.066053
      4          7           0       -2.472902    1.267492   -0.678793
      5          6           0       -3.655345    2.123305   -0.624210
      6          6           0       -4.545884    1.429021    0.413020
      7          8           0       -3.846492    0.202662    0.702550
      8          7           0        0.012689    0.074011   -1.100879
      9          6           0       -0.465906   -0.862117   -0.379144
     10          8           0        0.304156   -1.933166   -0.194403
     11          6           0        1.522867   -1.742755   -0.953534
     12          1           0        1.518909   -2.503119   -1.746862
     13          6           0        1.389512   -0.285294   -1.455283
     14          1           0        1.520388   -0.126535   -2.535832
     15          6           0        2.386352    0.485006   -0.625930
     16          6           0        3.113598   -0.374294    0.201865
     17          6           0        4.060444    0.141500    1.084253
     18          6           0        4.260901    1.521427    1.125374
     19          6           0        3.532142    2.374055    0.291382
     20          6           0        2.586465    1.863925   -0.597235
     21          6           0        2.749859   -1.814107   -0.046160
     22          6           0       -1.464050   -0.925745    1.864205
     23          1           0       -2.747877   -2.217526   -1.120842
     24          1           0       -3.462473   -2.285513    0.514057
     25          1           0       -1.893880   -3.082392    0.185521
     26          1           0       -4.109730    2.176384   -1.625808
     27          1           0       -3.332055    3.139656   -0.355525
     28          1           0       -5.548510    1.170575    0.046957
     29          1           0       -4.641140    1.990008    1.354490
     30          1           0        4.637437   -0.521035    1.734690
     31          1           0        4.997298    1.939798    1.815946
     32          1           0        3.702179    3.452181    0.334253
     33          1           0        2.015221    2.519705   -1.260222
     34          1           0        2.522268   -2.378181    0.871513
     35          1           0        3.568558   -2.349309   -0.555218
     36          1           0       -2.399037   -0.983626    2.436551
     37          1           0       -0.926551   -0.010094    2.151388
     38          1           0       -0.836502   -1.792872    2.107923
 ---------------------------------------------------------------------
 Rotational constants (GHZ):           0.6710522           0.2166637           0.1881393
 Leave Link  202 at Thu Nov  3 09:16:50 2022, MaxMem=  4194304000 cpu:               0.1 elap:               0.0
 (Enter /software/gaussian/G16-A.03/avx/g16/l301.exe)
 Standard basis: def2SVP (5D, 7F)
 Ernie: Thresh=  0.10000D-02 Tol=  0.10000D-05 Strict=F.
 There are   390 symmetry adapted cartesian basis functions of A   symmetry.
 There are   370 symmetry adapted basis functions of A   symmetry.
   370 basis functions,   626 primitive gaussians,   390 cartesian basis functions
    72 alpha electrons       72 beta electrons
       nuclear repulsion energy      1568.6209934464 Hartrees.
 IExCor= 1009 DFT=T Ex+Corr=PBE1PBE ExCW=0 ScaHFX=  0.250000
 ScaDFX=  0.750000  0.750000  1.000000  1.000000 ScalE2=  1.000000  1.000000
 IRadAn=      5 IRanWt=     -1 IRanGd=            0 ICorTp=0 IEmpDi=141
 NAtoms=   38 NActive=   38 NUniq=   38 SFac= 1.00D+00 NAtFMM=   60 NAOKFM=F Big=F
 Integral buffers will be    131072 words long.
 Raffenetti 2 integral format.
 Two-electron integral symmetry is turned on.
 R6Disp:  Grimme-D3(BJ) Dispersion energy=       -0.0417014059 Hartrees.
 Nuclear repulsion after empirical dispersion term =     1568.5792920405 Hartrees.
 Leave Link  301 at Thu Nov  3 09:16:50 2022, MaxMem=  4194304000 cpu:               0.5 elap:               0.1
 (Enter /software/gaussian/G16-A.03/avx/g16/l302.exe)
 NPDir=0 NMtPBC=     1 NCelOv=     1 NCel=       1 NClECP=     1 NCelD=      1
         NCelK=      1 NCelE2=     1 NClLst=     1 CellRange=     0.0.
 One-electron integrals computed using PRISM.
 One-electron integral symmetry used in STVInt
   1 Symmetry operations used in ECPInt.
 ECPInt:  NShTT=   15225 NPrTT=   54929 LenC2=   13909 LenP2D=   35324.
 LDataN:  DoStor=T MaxTD1= 4 Len=   56
 NBasis=   370 RedAO= T EigKep=  2.69D-04  NBF=   370
 NBsUse=   370 1.00D-06 EigRej= -1.00D+00 NBFU=   370
 Precomputing XC quadrature grid using
 IXCGrd= 4 IRadAn=           5 IRanWt=          -1 IRanGd=           0 AccXCQ= 0.00D+00.
 Generated NRdTot=       0 NPtTot=           0 NUsed=           0 NTot=          32
 NSgBfM=   389   389   389   389   389 MxSgAt=    38 MxSgA2=    38.
 Leave Link  302 at Thu Nov  3 09:16:50 2022, MaxMem=  4194304000 cpu:               5.4 elap:               0.7
 (Enter /software/gaussian/G16-A.03/avx/g16/l303.exe)
 DipDrv:  MaxL=1.
 Leave Link  303 at Thu Nov  3 09:16:50 2022, MaxMem=  4194304000 cpu:               0.5 elap:               0.1
 (Enter /software/gaussian/G16-A.03/avx/g16/l401.exe)
 ExpMin= 1.22D-01 ExpMax= 2.27D+03 ExpMxC= 3.41D+02 IAcc=3 IRadAn=         5 AccDes= 0.00D+00
 Harris functional with IExCor= 1009 and IRadAn=       5 diagonalized for initial guess.
 HarFok:  IExCor= 1009 AccDes= 0.00D+00 IRadAn=         5 IDoV= 1 UseB2=F ITyADJ=14
 ICtDFT=  3500011 ScaDFX=  1.000000  1.000000  1.000000  1.000000
 FoFCou: FMM=F IPFlag=           0 FMFlag=      100000 FMFlg1=           0
         NFxFlg=           0 DoJE=T BraDBF=F KetDBF=T FulRan=T
         wScrn=  0.000000 ICntrl=       500 IOpCl=  0 I1Cent=   200000004 NGrid=           0
         NMat0=    1 NMatS0=      1 NMatT0=    0 NMatD0=    1 NMtDS0=    0 NMtDT0=    0
 Petite list used in FoFCou.
 Harris En= -879.053499324464    
 JPrj=0 DoOrth=F DoCkMO=F.
 Leave Link  401 at Thu Nov  3 09:16:55 2022, MaxMem=  4194304000 cpu:              32.6 elap:               4.1
 (Enter /software/gaussian/G16-A.03/avx/g16/l502.exe)
 Integral symmetry usage will be decided dynamically.
 Closed shell SCF:
 Using DIIS extrapolation, IDIIS=  1040.
 NGot=  4194304000 LenX=  4193992446 LenY=  4193839905
 Requested convergence on RMS density matrix=1.00D-08 within 128 cycles.
 Requested convergence on MAX density matrix=1.00D-06.
 Requested convergence on             energy=1.00D-06.
 No special actions if energy rises.
 Fock matrices will be formed incrementally for  20 cycles.
 Integral accuracy reduced to 1.0D-05 until final iterations.

 Cycle   1  Pass 0  IDiag  1:
 FoFJK:  IHMeth= 1 ICntrl=       0 DoSepK=F KAlg= 0 I1Cent=           0 FoldK=F
 IRaf= 850000000 NMat=       1 IRICut=       1 DoRegI=T DoRafI=F ISym2E= 0 IDoP0=0 IntGTp=1.
 FoFCou: FMM=F IPFlag=           0 FMFlag=      100000 FMFlg1=           0
         NFxFlg=           0 DoJE=F BraDBF=F KetDBF=F FulRan=T
         wScrn=  0.000000 ICntrl=         0 IOpCl=  0 I1Cent=           0 NGrid=           0
         NMat0=    1 NMatS0=      1 NMatT0=    0 NMatD0=    1 NMtDS0=    0 NMtDT0=    0
 Symmetry not used in FoFCou.
 E= -878.523032955707    
 DIIS: error= 1.80D-02 at cycle   1 NSaved=   1.
 NSaved= 1 IEnMin= 1 EnMin= -878.523032955707     IErMin= 1 ErrMin= 1.80D-02
 ErrMax= 1.80D-02  0.00D+00 EMaxC= 1.00D-01 BMatC= 3.29D-01 BMatP= 3.29D-01
 IDIUse=3 WtCom= 8.20D-01 WtEn= 1.80D-01
 Coeff-Com:  0.100D+01
 Coeff-En:   0.100D+01
 Coeff:      0.100D+01
 Gap=     0.270 Goal=   None    Shift=    0.000
 GapD=    0.270 DampG=1.000 DampE=0.500 DampFc=0.5000 IDamp=-1.
 Damping current iteration by 5.00D-01
 RMSDP=4.63D-03 MaxDP=2.63D-01              OVMax= 2.09D-01

 Cycle   2  Pass 0  IDiag  1:
 RMSU=  2.29D-03    CP:  9.81D-01
 E= -878.677338680699     Delta-E=       -0.154305724992 Rises=F Damp=T
 DIIS: error= 5.27D-03 at cycle   2 NSaved=   2.
 NSaved= 2 IEnMin= 2 EnMin= -878.677338680699     IErMin= 2 ErrMin= 5.27D-03
 ErrMax= 5.27D-03  0.00D+00 EMaxC= 1.00D-01 BMatC= 2.85D-02 BMatP= 3.29D-01
 IDIUse=3 WtCom= 9.47D-01 WtEn= 5.27D-02
 Coeff-Com:  0.670D-01 0.933D+00
 Coeff-En:   0.939D-01 0.906D+00
 Coeff:      0.684D-01 0.932D+00
 Gap=     0.284 Goal=   None    Shift=    0.000
 RMSDP=1.51D-03 MaxDP=4.17D-02 DE=-1.54D-01 OVMax= 1.87D-01

 Cycle   3  Pass 0  IDiag  1:
 RMSU=  1.48D-03    CP:  9.65D-01  9.22D-01
 E= -878.837273174801     Delta-E=       -0.159934494102 Rises=F Damp=F
 DIIS: error= 1.12D-02 at cycle   3 NSaved=   3.
 NSaved= 3 IEnMin= 3 EnMin= -878.837273174801     IErMin= 2 ErrMin= 5.27D-03
 ErrMax= 1.12D-02  0.00D+00 EMaxC= 1.00D-01 BMatC= 4.18D-02 BMatP= 2.85D-02
 IDIUse=2 WtCom= 0.00D+00 WtEn= 1.00D+00
 Coeff-En:   0.000D+00 0.000D+00 0.100D+01
 Coeff:      0.000D+00 0.000D+00 0.100D+01
 Gap=     0.235 Goal=   None    Shift=    0.000
 RMSDP=2.15D-03 MaxDP=1.28D-01 DE=-1.60D-01 OVMax= 1.96D-01

 Cycle   4  Pass 0  IDiag  1:
 RMSU=  1.29D-03    CP:  9.75D-01  1.39D+00  9.93D-02
 E= -878.682838473494     Delta-E=        0.154434701307 Rises=F Damp=F
 DIIS: error= 2.38D-02 at cycle   4 NSaved=   4.
 NSaved= 4 IEnMin= 3 EnMin= -878.837273174801     IErMin= 2 ErrMin= 5.27D-03
 ErrMax= 2.38D-02  0.00D+00 EMaxC= 1.00D-01 BMatC= 2.13D-01 BMatP= 2.85D-02
 IDIUse=2 WtCom= 0.00D+00 WtEn= 1.00D+00
 Coeff-En:   0.000D+00 0.000D+00 0.781D+00 0.219D+00
 Coeff:      0.000D+00 0.000D+00 0.781D+00 0.219D+00
 Gap=     0.219 Goal=   None    Shift=    0.000
 RMSDP=1.17D-03 MaxDP=8.29D-02 DE= 1.54D-01 OVMax= 9.96D-02

 Cycle   5  Pass 0  IDiag  1:
 RMSU=  1.79D-04    CP:  9.70D-01  1.12D+00  5.65D-01  4.78D-01
 E= -878.861070236994     Delta-E=       -0.178231763499 Rises=F Damp=F
 DIIS: error= 6.45D-03 at cycle   5 NSaved=   5.
 NSaved= 5 IEnMin= 5 EnMin= -878.861070236994     IErMin= 2 ErrMin= 5.27D-03
 ErrMax= 6.45D-03  0.00D+00 EMaxC= 1.00D-01 BMatC= 1.56D-02 BMatP= 2.85D-02
 IDIUse=3 WtCom= 9.36D-01 WtEn= 6.45D-02
 Coeff-Com: -0.749D-03 0.122D-01 0.268D+00-0.110D+00 0.830D+00
 Coeff-En:   0.000D+00 0.000D+00 0.320D+00 0.000D+00 0.680D+00
 Coeff:     -0.701D-03 0.114D-01 0.272D+00-0.103D+00 0.821D+00
 Gap=     0.232 Goal=   None    Shift=    0.000
 RMSDP=4.00D-04 MaxDP=2.50D-02 DE=-1.78D-01 OVMax= 3.68D-02

 Cycle   6  Pass 0  IDiag  1:
 RMSU=  4.45D-05    CP:  9.68D-01  1.03D+00  7.32D-01  2.92D-01  9.40D-01
 E= -878.874969667783     Delta-E=       -0.013899430789 Rises=F Damp=F
 DIIS: error= 1.75D-04 at cycle   6 NSaved=   6.
 NSaved= 6 IEnMin= 6 EnMin= -878.874969667783     IErMin= 6 ErrMin= 1.75D-04
 ErrMax= 1.75D-04  0.00D+00 EMaxC= 1.00D-01 BMatC= 3.03D-05 BMatP= 1.56D-02
 IDIUse=3 WtCom= 9.98D-01 WtEn= 1.75D-03
 Coeff-Com: -0.104D-02 0.395D-02 0.122D+00-0.685D-01 0.451D+00 0.493D+00
 Coeff-En:   0.000D+00 0.000D+00 0.000D+00 0.000D+00 0.000D+00 0.100D+01
 Coeff:     -0.104D-02 0.394D-02 0.121D+00-0.684D-01 0.450D+00 0.494D+00
 Gap=     0.232 Goal=   None    Shift=    0.000
 RMSDP=2.37D-05 MaxDP=1.06D-03 DE=-1.39D-02 OVMax= 1.78D-03

 Cycle   7  Pass 0  IDiag  1:
 RMSU=  1.46D-05    CP:  9.68D-01  1.04D+00  7.31D-01  2.94D-01  9.36D-01
                    CP:  6.14D-01
 E= -878.874996153571     Delta-E=       -0.000026485788 Rises=F Damp=F
 DIIS: error= 7.50D-05 at cycle   7 NSaved=   7.
 NSaved= 7 IEnMin= 7 EnMin= -878.874996153571     IErMin= 7 ErrMin= 7.50D-05
 ErrMax= 7.50D-05  0.00D+00 EMaxC= 1.00D-01 BMatC= 3.96D-06 BMatP= 3.03D-05
 IDIUse=1 WtCom= 1.00D+00 WtEn= 0.00D+00
 Coeff-Com: -0.415D-03 0.744D-03 0.453D-01-0.291D-01 0.180D+00 0.299D+00
 Coeff-Com:  0.504D+00
 Coeff:     -0.415D-03 0.744D-03 0.453D-01-0.291D-01 0.180D+00 0.299D+00
 Coeff:      0.504D+00
 Gap=     0.232 Goal=   None    Shift=    0.000
 RMSDP=6.97D-06 MaxDP=2.69D-04 DE=-2.65D-05 OVMax= 5.56D-04

 Initial convergence to 1.0D-05 achieved.  Increase integral accuracy.
 Cycle   8  Pass 1  IDiag  1:
 E= -878.875051313838     Delta-E=       -0.000055160266 Rises=F Damp=F
 DIIS: error= 7.93D-05 at cycle   1 NSaved=   1.
 NSaved= 1 IEnMin= 1 EnMin= -878.875051313838     IErMin= 1 ErrMin= 7.93D-05
 ErrMax= 7.93D-05  0.00D+00 EMaxC= 1.00D-01 BMatC= 1.81D-06 BMatP= 1.81D-06
 IDIUse=1 WtCom= 1.00D+00 WtEn= 0.00D+00
 Coeff-Com:  0.100D+01
 Coeff:      0.100D+01
 Gap=     0.232 Goal=   None    Shift=    0.000
 RMSDP=6.97D-06 MaxDP=2.69D-04 DE=-5.52D-05 OVMax= 3.65D-04

 Cycle   9  Pass 1  IDiag  1:
 RMSU=  8.67D-05    CP:  1.00D+00
 E= -878.875052460012     Delta-E=       -0.000001146175 Rises=F Damp=F
 DIIS: error= 3.38D-05 at cycle   2 NSaved=   2.
 NSaved= 2 IEnMin= 2 EnMin= -878.875052460012     IErMin= 2 ErrMin= 3.38D-05
 ErrMax= 3.38D-05  0.00D+00 EMaxC= 1.00D-01 BMatC= 8.85D-07 BMatP= 1.81D-06
 IDIUse=1 WtCom= 1.00D+00 WtEn= 0.00D+00
 Coeff-Com:  0.372D+00 0.628D+00
 Coeff:      0.372D+00 0.628D+00
 Gap=     0.232 Goal=   None    Shift=    0.000
 RMSDP=6.02D-06 MaxDP=3.06D-04 DE=-1.15D-06 OVMax= 4.11D-04

 Cycle  10  Pass 1  IDiag  1:
 RMSU=  5.97D-06    CP:  1.00D+00  1.01D+00
 E= -878.875052621875     Delta-E=       -0.000000161862 Rises=F Damp=F
 DIIS: error= 3.22D-05 at cycle   3 NSaved=   3.
 NSaved= 3 IEnMin= 3 EnMin= -878.875052621875     IErMin= 3 ErrMin= 3.22D-05
 ErrMax= 3.22D-05  0.00D+00 EMaxC= 1.00D-01 BMatC= 7.08D-07 BMatP= 8.85D-07
 IDIUse=1 WtCom= 1.00D+00 WtEn= 0.00D+00
 Coeff-Com:  0.167D-01 0.468D+00 0.515D+00
 Coeff:      0.167D-01 0.468D+00 0.515D+00
 Gap=     0.232 Goal=   None    Shift=    0.000
 RMSDP=3.08D-06 MaxDP=1.64D-04 DE=-1.62D-07 OVMax= 2.24D-04

 Cycle  11  Pass 1  IDiag  1:
 RMSU=  1.07D-06    CP:  1.00D+00  1.02D+00  5.39D-01
 E= -878.875053215789     Delta-E=       -0.000000593915 Rises=F Damp=F
 DIIS: error= 5.62D-06 at cycle   4 NSaved=   4.
 NSaved= 4 IEnMin= 4 EnMin= -878.875053215789     IErMin= 4 ErrMin= 5.62D-06
 ErrMax= 5.62D-06  0.00D+00 EMaxC= 1.00D-01 BMatC= 3.24D-08 BMatP= 7.08D-07
 IDIUse=1 WtCom= 1.00D+00 WtEn= 0.00D+00
 Coeff-Com: -0.497D-02 0.263D+00 0.318D+00 0.424D+00
 Coeff:     -0.497D-02 0.263D+00 0.318D+00 0.424D+00
 Gap=     0.232 Goal=   None    Shift=    0.000
 RMSDP=5.97D-07 MaxDP=2.12D-05 DE=-5.94D-07 OVMax= 3.35D-05

 Cycle  12  Pass 1  IDiag  1:
 RMSU=  2.37D-07    CP:  1.00D+00  1.02D+00  5.55D-01  4.97D-01
 E= -878.875053245276     Delta-E=       -0.000000029487 Rises=F Damp=F
 DIIS: error= 8.59D-07 at cycle   5 NSaved=   5.
 NSaved= 5 IEnMin= 5 EnMin= -878.875053245276     IErMin= 5 ErrMin= 8.59D-07
 ErrMax= 8.59D-07  0.00D+00 EMaxC= 1.00D-01 BMatC= 4.34D-10 BMatP= 3.24D-08
 IDIUse=1 WtCom= 1.00D+00 WtEn= 0.00D+00
 Coeff-Com: -0.319D-02 0.152D+00 0.184D+00 0.256D+00 0.411D+00
 Coeff:     -0.319D-02 0.152D+00 0.184D+00 0.256D+00 0.411D+00
 Gap=     0.232 Goal=   None    Shift=    0.000
 RMSDP=7.33D-08 MaxDP=3.28D-06 DE=-2.95D-08 OVMax= 6.78D-06

 Cycle  13  Pass 1  IDiag  1:
 RMSU=  6.68D-08    CP:  1.00D+00  1.02D+00  5.53D-01  5.03D-01  9.05D-01
 E= -878.875053245652     Delta-E=       -0.000000000376 Rises=F Damp=F
 DIIS: error= 2.00D-07 at cycle   6 NSaved=   6.
 NSaved= 6 IEnMin= 6 EnMin= -878.875053245652     IErMin= 6 ErrMin= 2.00D-07
 ErrMax= 2.00D-07  0.00D+00 EMaxC= 1.00D-01 BMatC= 2.18D-11 BMatP= 4.34D-10
 IDIUse=1 WtCom= 1.00D+00 WtEn= 0.00D+00
 Coeff-Com: -0.860D-03 0.370D-01 0.444D-01 0.665D-01 0.198D+00 0.655D+00
 Coeff:     -0.860D-03 0.370D-01 0.444D-01 0.665D-01 0.198D+00 0.655D+00
 Gap=     0.232 Goal=   None    Shift=    0.000
 RMSDP=2.05D-08 MaxDP=1.32D-06 DE=-3.76D-10 OVMax= 1.97D-06

 Cycle  14  Pass 1  IDiag  1:
 RMSU=  1.71D-08    CP:  1.00D+00  1.02D+00  5.53D-01  5.05D-01  9.38D-01
                    CP:  8.94D-01
 E= -878.875053245662     Delta-E=       -0.000000000010 Rises=F Damp=F
 DIIS: error= 6.37D-08 at cycle   7 NSaved=   7.
 NSaved= 7 IEnMin= 7 EnMin= -878.875053245662     IErMin= 7 ErrMin= 6.37D-08
 ErrMax= 6.37D-08  0.00D+00 EMaxC= 1.00D-01 BMatC= 4.42D-12 BMatP= 2.18D-11
 IDIUse=1 WtCom= 1.00D+00 WtEn= 0.00D+00
 Coeff-Com: -0.283D-04-0.806D-03-0.121D-02 0.135D-02 0.466D-01 0.367D+00
 Coeff-Com:  0.588D+00
 Coeff:     -0.283D-04-0.806D-03-0.121D-02 0.135D-02 0.466D-01 0.367D+00
 Coeff:      0.588D+00
 Gap=     0.232 Goal=   None    Shift=    0.000
 RMSDP=9.24D-09 MaxDP=3.53D-07 DE=-9.55D-12 OVMax= 4.66D-07

 SCF Done:  E(RPBE1PBE) =  -878.875053246     A.U. after   14 cycles
            NFock= 14  Conv=0.92D-08     -V/T= 2.0097
 KE= 8.703979159178D+02 PE=-5.180752637503D+03 EE= 1.862900376299D+03
 Leave Link  502 at Thu Nov  3 09:18:32 2022, MaxMem=  4194304000 cpu:             783.2 elap:              97.9
 (Enter /software/gaussian/G16-A.03/avx/g16/l801.exe)
 DoSCS=F DFT=T ScalE2(SS,OS)=  1.000000  1.000000
 Range of M.O.s used for correlation:     1   370
 NBasis=   370 NAE=    72 NBE=    72 NFC=     0 NFV=     0
 NROrb=    370 NOA=    72 NOB=    72 NVA=   298 NVB=   298

 **** Warning!!: The largest alpha MO coefficient is  0.12078428D+02

 Leave Link  801 at Thu Nov  3 09:18:33 2022, MaxMem=  4194304000 cpu:               0.2 elap:               0.0
 (Enter /software/gaussian/G16-A.03/avx/g16/l1101.exe)
 Using compressed storage, NAtomX=    38.
 Will process     39 centers per pass.
   1 Symmetry operations used in ECPInt.
 ECPInt:  NShTT=   15225 NPrTT=   54929 LenC2=   13909 LenP2D=   35324.
 LDataN:  DoStor=T MaxTD1= 5 Len=  102
 R6Disp: Adding Grimme-D3(BJ) dispersion energy 1st derivatives to the gradient.
 Leave Link 1101 at Thu Nov  3 09:18:33 2022, MaxMem=  4194304000 cpu:               5.8 elap:               0.7
 (Enter /software/gaussian/G16-A.03/avx/g16/l1102.exe)
 Symmetrizing basis deriv contribution to polar:
 IMax=3 JMax=2 DiffMx= 0.00D+00
 Leave Link 1102 at Thu Nov  3 09:18:33 2022, MaxMem=  4194304000 cpu:               0.5 elap:               0.1
 (Enter /software/gaussian/G16-A.03/avx/g16/l1110.exe)
 Forming Gx(P) for the SCF density, NAtomX=    38.
 Integral derivatives from FoFJK, PRISM(SPDF).
 Do as many integral derivatives as possible in FoFJK.
 G2DrvN: MDV=    4194301128.
 G2DrvN: will do    39 centers at a time, making    1 passes.
 Calling FoFCou, ICntrl=  3107 FMM=F I1Cent=   0 AccDes= 0.00D+00.
 FoFJK:  IHMeth= 1 ICntrl=    3107 DoSepK=F KAlg= 0 I1Cent=           0 FoldK=F
 IRaf=         0 NMat=       1 IRICut=       1 DoRegI=T DoRafI=F ISym2E= 0 IDoP0=0 IntGTp=1.
 FoFCou: FMM=F IPFlag=           0 FMFlag=      100000 FMFlg1=           0
         NFxFlg=           0 DoJE=F BraDBF=F KetDBF=F FulRan=T
         wScrn=  0.000000 ICntrl=      3107 IOpCl=  0 I1Cent=           0 NGrid=           0
         NMat0=    1 NMatS0=      1 NMatT0=    0 NMatD0=    1 NMtDS0=    0 NMtDT0=    0
 Symmetry not used in FoFCou.
 End of G2Drv F.D. properties file   721 does not exist.
 End of G2Drv F.D. properties file   722 does not exist.
 End of G2Drv F.D. properties file   788 does not exist.
 Leave Link 1110 at Thu Nov  3 09:24:04 2022, MaxMem=  4194304000 cpu:            2645.6 elap:             330.7
 (Enter /software/gaussian/G16-A.03/avx/g16/l1002.exe)
 Minotr:  Closed shell wavefunction.
          IDoAtm=11111111111111111111111111111111111111
          Direct CPHF calculation.
          Differentiating once with respect to electric field.
                with respect to dipole field.
          Differentiating once with respect to nuclear coordinates.
          Requested convergence is 1.0D-08 RMS, and 1.0D-07 maximum.
          Secondary convergence is 1.0D-12 RMS, and 1.0D-12 maximum.
          NewPWx=T KeepS1=F KeepF1=F KeepIn=T MapXYZ=F SortEE=F KeepMc=T.
        11465 words used for storage of precomputed grid.
 Keep R1 ints in memory in canonical form, NReq=2385322162.
 FoFCou: FMM=F IPFlag=           0 FMFlag=           0 FMFlg1=           0
         NFxFlg=           0 DoJE=F BraDBF=F KetDBF=F FulRan=T
         wScrn=  0.000000 ICntrl=       600 IOpCl=  0 I1Cent=           0 NGrid=           0
         NMat0=    1 NMatS0=  68635 NMatT0=    0 NMatD0=    1 NMtDS0=    0 NMtDT0=    0
 Symmetry not used in FoFCou.
 Two-electron integral symmetry not used.
          MDV=    4194304000 using IRadAn=       1.
          Solving linear equations simultaneously, MaxMat=       0.
          There are   117 degrees of freedom in the 1st order CPHF.  IDoFFX=6 NUNeed=     3.
    114 vectors produced by pass  0 Test12= 2.15D-14 1.00D-09 XBig12= 1.72D+02 5.09D+00.
 AX will form   114 AO Fock derivatives at one time.
    114 vectors produced by pass  1 Test12= 2.15D-14 1.00D-09 XBig12= 4.49D+01 1.03D+00.
    114 vectors produced by pass  2 Test12= 2.15D-14 1.00D-09 XBig12= 4.80D-01 5.47D-02.
    114 vectors produced by pass  3 Test12= 2.15D-14 1.00D-09 XBig12= 2.37D-03 3.60D-03.
    114 vectors produced by pass  4 Test12= 2.15D-14 1.00D-09 XBig12= 6.65D-06 1.77D-04.
    100 vectors produced by pass  5 Test12= 2.15D-14 1.00D-09 XBig12= 8.82D-09 5.75D-06.
     24 vectors produced by pass  6 Test12= 2.15D-14 1.00D-09 XBig12= 8.60D-12 1.69D-07.
      3 vectors produced by pass  7 Test12= 2.15D-14 1.00D-09 XBig12= 9.50D-15 7.04D-09.
 InvSVY:  IOpt=1 It=  1 EMax= 7.11D-15
 Solved reduced A of dimension   697 with   117 vectors.
 FullF1:  Do perturbations      1 to       3.
 Isotropic polarizability for W=    0.000000      175.08 Bohr**3.
 End of Minotr F.D. properties file   721 does not exist.
 End of Minotr F.D. properties file   722 does not exist.
 End of Minotr F.D. properties file   788 does not exist.
 Leave Link 1002 at Thu Nov  3 09:30:40 2022, MaxMem=  4194304000 cpu:            3161.9 elap:             395.5
 (Enter /software/gaussian/G16-A.03/avx/g16/l601.exe)
 Copying SCF densities to generalized density rwf, IOpCl= 0 IROHF=0.

 **********************************************************************

            Population analysis using the SCF density.

 **********************************************************************

 Orbital symmetries:
       Occupied  (A) (A) (A) (A) (A) (A) (A) (A) (A) (A) (A) (A)
                 (A) (A) (A) (A) (A) (A) (A) (A) (A) (A) (A) (A)
                 (A) (A) (A) (A) (A) (A) (A) (A) (A) (A) (A) (A)
                 (A) (A) (A) (A) (A) (A) (A) (A) (A) (A) (A) (A)
                 (A) (A) (A) (A) (A) (A) (A) (A) (A) (A) (A) (A)
                 (A) (A) (A) (A) (A) (A) (A) (A) (A) (A) (A) (A)
       Virtual   (A) (A) (A) (A) (A) (A) (A) (A) (A) (A) (A) (A)
                 (A) (A) (A) (A) (A) (A) (A) (A) (A) (A) (A) (A)
                 (A) (A) (A) (A) (A) (A) (A) (A) (A) (A) (A) (A)
                 (A) (A) (A) (A) (A) (A) (A) (A) (A) (A) (A) (A)
                 (A) (A) (A) (A) (A) (A) (A) (A) (A) (A) (A) (A)
                 (A) (A) (A) (A) (A) (A) (A) (A) (A) (A) (A) (A)
                 (A) (A) (A) (A) (A) (A) (A) (A) (A) (A) (A) (A)
                 (A) (A) (A) (A) (A) (A) (A) (A) (A) (A) (A) (A)
                 (A) (A) (A) (A) (A) (A) (A) (A) (A) (A) (A) (A)
                 (A) (A) (A) (A) (A) (A) (A) (A) (A) (A) (A) (A)
                 (A) (A) (A) (A) (A) (A) (A) (A) (A) (A) (A) (A)
                 (A) (A) (A) (A) (A) (A) (A) (A) (A) (A) (A) (A)
                 (A) (A) (A) (A) (A) (A) (A) (A) (A) (A) (A) (A)
                 (A) (A) (A) (A) (A) (A) (A) (A) (A) (A) (A) (A)
                 (A) (A) (A) (A) (A) (A) (A) (A) (A) (A) (A) (A)
                 (A) (A) (A) (A) (A) (A) (A) (A) (A) (A) (A) (A)
                 (A) (A) (A) (A) (A) (A) (A) (A) (A) (A) (A) (A)
                 (A) (A) (A) (A) (A) (A) (A) (A) (A) (A) (A) (A)
                 (A) (A) (A) (A) (A) (A) (A) (A) (A) (A) (A) (A)
                 (A) (A) (A) (A) (A) (A) (A) (A) (A) (A) (A) (A)
                 (A) (A) (A) (A) (A) (A) (A) (A) (A) (A) (A) (A)
                 (A) (A) (A) (A) (A) (A) (A) (A) (A) (A) (A) (A)
                 (A) (A) (A) (A) (A) (A) (A) (A) (A) (A) (A) (A)
                 (A) (A) (A) (A) (A) (A) (A) (A) (A) (A) (A) (A)
                 (A) (A) (A) (A) (A) (A) (A) (A) (A) (A)
 The electronic state is 1-A.
 Alpha  occ. eigenvalues --  -19.24286 -19.24101 -14.35204 -14.35146 -10.31016
 Alpha  occ. eigenvalues --  -10.30860 -10.29315 -10.28866 -10.26911 -10.26192
 Alpha  occ. eigenvalues --  -10.25509 -10.24281 -10.23960 -10.23654 -10.23599
 Alpha  occ. eigenvalues --  -10.23478 -10.23442 -10.23403 -10.23088 -10.23006
 Alpha  occ. eigenvalues --   -1.11673  -1.11389  -0.91564  -0.90458  -0.88617
 Alpha  occ. eigenvalues --   -0.85446  -0.82340  -0.77035  -0.76629  -0.73663
 Alpha  occ. eigenvalues --   -0.70905  -0.70478  -0.65422  -0.64525  -0.63759
 Alpha  occ. eigenvalues --   -0.60642  -0.59246  -0.58639  -0.54604  -0.53458
 Alpha  occ. eigenvalues --   -0.51630  -0.51557  -0.50290  -0.48294  -0.46937
 Alpha  occ. eigenvalues --   -0.46375  -0.45357  -0.44955  -0.44664  -0.43690
 Alpha  occ. eigenvalues --   -0.43327  -0.42484  -0.42207  -0.41793  -0.40852
 Alpha  occ. eigenvalues --   -0.39855  -0.38055  -0.37580  -0.37327  -0.36752
 Alpha  occ. eigenvalues --   -0.36437  -0.35873  -0.35319  -0.35074  -0.34696
 Alpha  occ. eigenvalues --   -0.34119  -0.28147  -0.26179  -0.25729  -0.24968
 Alpha  occ. eigenvalues --   -0.24434  -0.24002
 Alpha virt. eigenvalues --   -0.00811   0.00098   0.03794   0.03848   0.06769
 Alpha virt. eigenvalues --    0.07942   0.08327   0.09585   0.09965   0.11082
 Alpha virt. eigenvalues --    0.11770   0.12455   0.12726   0.12886   0.13377
 Alpha virt. eigenvalues --    0.13735   0.14106   0.14340   0.15605   0.16039
 Alpha virt. eigenvalues --    0.16294   0.17267   0.17475   0.18546   0.18650
 Alpha virt. eigenvalues --    0.19307   0.19979   0.20399   0.21563   0.22724
 Alpha virt. eigenvalues --    0.23137   0.25770   0.26510   0.27003   0.28636
 Alpha virt. eigenvalues --    0.30368   0.31460   0.32469   0.33075   0.34412
 Alpha virt. eigenvalues --    0.35708   0.37339   0.37729   0.40266   0.40804
 Alpha virt. eigenvalues --    0.42027   0.42406   0.43566   0.44286   0.45246
 Alpha virt. eigenvalues --    0.46221   0.46704   0.47809   0.49267   0.49575
 Alpha virt. eigenvalues --    0.49925   0.50227   0.50511   0.51651   0.52206
 Alpha virt. eigenvalues --    0.52850   0.53498   0.55005   0.55707   0.56496
 Alpha virt. eigenvalues --    0.57048   0.58736   0.60126   0.60728   0.60985
 Alpha virt. eigenvalues --    0.61726   0.62049   0.62661   0.63374   0.64085
 Alpha virt. eigenvalues --    0.64155   0.64672   0.65136   0.65771   0.65986
 Alpha virt. eigenvalues --    0.66410   0.66854   0.67177   0.67230   0.67390
 Alpha virt. eigenvalues --    0.68021   0.68487   0.68703   0.68899   0.69283
 Alpha virt. eigenvalues --    0.69689   0.69951   0.70335   0.71421   0.71562
 Alpha virt. eigenvalues --    0.71957   0.72304   0.73089   0.73660   0.74394
 Alpha virt. eigenvalues --    0.75908   0.76306   0.77415   0.77689   0.78140
 Alpha virt. eigenvalues --    0.80546   0.80958   0.81492   0.81897   0.83861
 Alpha virt. eigenvalues --    0.84960   0.87408   0.88335   0.88678   0.90675
 Alpha virt. eigenvalues --    0.91292   0.93541   0.95839   0.97129   1.00213
 Alpha virt. eigenvalues --    1.01578   1.02199   1.03756   1.07288   1.08073
 Alpha virt. eigenvalues --    1.09523   1.11771   1.12867   1.13352   1.14505
 Alpha virt. eigenvalues --    1.16637   1.18655   1.19878   1.21838   1.22340
 Alpha virt. eigenvalues --    1.26646   1.27220   1.28111   1.28354   1.29453
 Alpha virt. eigenvalues --    1.30844   1.32726   1.34296   1.35735   1.36501
 Alpha virt. eigenvalues --    1.38690   1.39437   1.43031   1.44448   1.46268
 Alpha virt. eigenvalues --    1.48275   1.50319   1.51839   1.52541   1.54234
 Alpha virt. eigenvalues --    1.55963   1.56663   1.59072   1.60556   1.60908
 Alpha virt. eigenvalues --    1.61163   1.64624   1.65572   1.66225   1.67032
 Alpha virt. eigenvalues --    1.67597   1.69067   1.70003   1.70734   1.71380
 Alpha virt. eigenvalues --    1.72594   1.73305   1.74216   1.75373   1.75776
 Alpha virt. eigenvalues --    1.76320   1.76763   1.78025   1.78119   1.79268
 Alpha virt. eigenvalues --    1.79427   1.79861   1.80459   1.80783   1.82199
 Alpha virt. eigenvalues --    1.82455   1.82970   1.83408   1.83939   1.85790
 Alpha virt. eigenvalues --    1.86068   1.86405   1.87075   1.87341   1.87574
 Alpha virt. eigenvalues --    1.89214   1.90048   1.92030   1.92534   1.93001
 Alpha virt. eigenvalues --    1.94538   1.95396   1.95818   1.96611   1.97398
 Alpha virt. eigenvalues --    1.97565   1.99473   2.00609   2.02315   2.04096
 Alpha virt. eigenvalues --    2.05931   2.06386   2.07048   2.07535   2.09055
 Alpha virt. eigenvalues --    2.10660   2.11024   2.12718   2.14461   2.16080
 Alpha virt. eigenvalues --    2.17629   2.18648   2.20582   2.22273   2.23887
 Alpha virt. eigenvalues --    2.24918   2.26542   2.27495   2.29192   2.29862
 Alpha virt. eigenvalues --    2.31200   2.31987   2.33036   2.33611   2.35859
 Alpha virt. eigenvalues --    2.36651   2.38230   2.38956   2.41915   2.42943
 Alpha virt. eigenvalues --    2.43753   2.46780   2.48021   2.49106   2.52646
 Alpha virt. eigenvalues --    2.54219   2.54885   2.56389   2.58481   2.63006
 Alpha virt. eigenvalues --    2.63916   2.64721   2.65570   2.66233   2.67492
 Alpha virt. eigenvalues --    2.67818   2.69038   2.70635   2.72095   2.74126
 Alpha virt. eigenvalues --    2.75473   2.76316   2.79924   2.82038   2.82075
 Alpha virt. eigenvalues --    2.83331   2.85871   2.86510   2.87445   2.88254
 Alpha virt. eigenvalues --    2.89120   2.92747   2.93272   2.94924   2.95514
 Alpha virt. eigenvalues --    2.96807   2.97536   2.99152   3.01246   3.02952
 Alpha virt. eigenvalues --    3.03676   3.04709   3.05227   3.05937   3.08040
 Alpha virt. eigenvalues --    3.09676   3.10011   3.14426   3.17167   3.21027
 Alpha virt. eigenvalues --    3.26218   3.27634   3.28909   3.40585   3.47849
 Alpha virt. eigenvalues --    3.63185   3.65133   3.67642
     Molecular Orbital Coefficients:
                          68        69        70        71        72
                           O         O         O         O         O
     Eigenvalues --    -0.26179  -0.25729  -0.24968  -0.24434  -0.24002
   1 1   C  1S          0.00342  -0.00609   0.00772   0.00137   0.00013
   2        2S         -0.00410   0.00744  -0.00710  -0.00118  -0.00040
   3        3S         -0.05610   0.08389  -0.12633  -0.01698   0.00004
   4        4PX        -0.01240   0.01630  -0.02826  -0.01593   0.01785
   5        4PY        -0.02634   0.04258  -0.04962  -0.00295  -0.01036
   6        4PZ         0.00103   0.00089   0.00027   0.00339  -0.00427
   7        5PX        -0.02188   0.02950  -0.03742   0.00273   0.02298
   8        5PY        -0.03526   0.05428  -0.08145  -0.01721  -0.01409
   9        5PZ         0.00840  -0.00984   0.01652   0.00195  -0.00476
  10        6D 0        0.00008  -0.00042   0.00140  -0.00017  -0.00012
  11        6D+1       -0.00056   0.00059  -0.00019   0.00038   0.00104
  12        6D-1       -0.00067   0.00076  -0.00060  -0.00039   0.00026
  13        6D+2        0.00067  -0.00050   0.00105  -0.00020  -0.00251
  14        6D-2       -0.00045   0.00115  -0.00123  -0.00063  -0.00207
  15 2   C  1S         -0.00382   0.00258   0.00188   0.00109   0.00084
  16        2S          0.00425  -0.00184  -0.00173  -0.00191  -0.00333
  17        3S          0.08298  -0.06793  -0.03739  -0.03551   0.01519
  18        4PX         0.02535  -0.01374   0.02284   0.00816  -0.06351
  19        4PY         0.01617  -0.02831   0.01257  -0.00028   0.03054
  20        4PZ        -0.00450  -0.01431   0.04807   0.00345   0.01746
  21        5PX         0.02159  -0.00645  -0.03475  -0.01366  -0.06279
  22        5PY        -0.00603   0.01186  -0.05781  -0.00901   0.03596
  23        5PZ        -0.04148   0.03627  -0.03492  -0.00073   0.01195
  24        6D 0        0.00175  -0.00404   0.00782  -0.00119  -0.00041
  25        6D+1       -0.00124   0.00097   0.00071   0.00516   0.00234
  26        6D-1       -0.00034   0.00041  -0.00211  -0.00360  -0.00090
  27        6D+2        0.00070  -0.00025   0.00219   0.00545  -0.00150
  28        6D-2       -0.00178   0.00347  -0.00240   0.00136  -0.00174
  29 3   C  1S         -0.00259   0.00912   0.00684   0.00171  -0.03533
  30        2S          0.00598  -0.02295  -0.01707  -0.00391   0.09054
  31        3S         -0.01398   0.00419   0.00677  -0.00325  -0.00483
  32        4PX        -0.00448   0.00640  -0.05750  -0.07195  -0.00082
  33        4PY        -0.00356   0.00423  -0.06519  -0.09342   0.03910
  34        4PZ        -0.01354   0.03135  -0.09696  -0.13816  -0.05388
  35        5PX        -0.01433   0.02633  -0.01529  -0.03933  -0.08456
  36        5PY        -0.00489   0.01467  -0.05249  -0.06790   0.00840
  37        5PZ        -0.00228   0.00564  -0.07647  -0.09892   0.01704
  38        6D 0        0.00258  -0.00495   0.02137   0.02449  -0.00092
  39        6D+1        0.00062  -0.00294  -0.00466  -0.00508   0.01432
  40        6D-1       -0.00051   0.00208  -0.00452  -0.00437  -0.00406
  41        6D+2        0.00030   0.00168   0.00511   0.00326  -0.01368
  42        6D-2       -0.00272   0.00601  -0.00915  -0.01228  -0.01384
  43 4   N  1S         -0.00548   0.01708   0.01197   0.00611  -0.08231
  44        2S         -0.01215   0.03652   0.02512   0.01216  -0.17588
  45        3S         -0.00710   0.03377   0.03463   0.02388  -0.19496
  46        4PX         0.03321  -0.09081   0.05144   0.09752   0.31859
  47        4PY         0.01681  -0.04149   0.11408   0.14656   0.07125
  48        4PZ         0.01199  -0.00678   0.21120   0.24719  -0.16205
  49        5PX        -0.02210   0.06288  -0.04900  -0.07447  -0.20542
  50        5PY        -0.01847   0.03734  -0.08154  -0.10546  -0.06497
  51        5PZ        -0.01013   0.00773  -0.15973  -0.17969   0.11445
  52        6D 0       -0.00157   0.00329  -0.01135  -0.01520  -0.00456
  53        6D+1       -0.00090   0.00279   0.00259   0.00279  -0.01343
  54        6D-1        0.00001   0.00023   0.00320   0.00317  -0.00322
  55        6D+2        0.00011  -0.00111  -0.00324  -0.00278   0.00991
  56        6D-2        0.00095  -0.00223   0.00610   0.00834   0.00356
  57 5   C  1S         -0.00205   0.00634   0.00246  -0.00025  -0.02872
  58        2S          0.00510  -0.01575  -0.00558   0.00141   0.07274
  59        3S          0.00863  -0.01982  -0.01086   0.00317   0.08671
  60        4PX         0.01367  -0.03479   0.01227   0.02800   0.12415
  61        4PY         0.00255  -0.00196   0.04779   0.05184  -0.04025
  62        4PZ         0.00781  -0.01243   0.07627   0.08924  -0.01995
  63        5PX         0.00407  -0.00502  -0.00161  -0.00393   0.00858
  64        5PY         0.00094   0.00175   0.01649   0.00971  -0.03273
  65        5PZ         0.00506  -0.01044   0.01773   0.01545   0.01954
  66        6D 0       -0.00116   0.00243  -0.00529  -0.00696  -0.00449
  67        6D+1       -0.00039  -0.00019  -0.00944  -0.01098   0.00957
  68        6D-1        0.00062  -0.00093   0.00609   0.00749  -0.00200
  69        6D+2       -0.00160   0.00429  -0.00703  -0.00984  -0.01205
  70        6D-2       -0.00046   0.00160   0.00286   0.00246  -0.00877
  71 6   C  1S          0.00150  -0.00470  -0.00521  -0.00471   0.02323
  72        2S         -0.00371   0.01160   0.01356   0.01319  -0.05777
  73        3S         -0.00650   0.02216   0.01965   0.01022  -0.11500
  74        4PX        -0.00927   0.02207  -0.01312  -0.02239  -0.07317
  75        4PY        -0.00536   0.01591  -0.01799  -0.02973  -0.04971
  76        4PZ        -0.00285  -0.00192  -0.06541  -0.07365   0.06593
  77        5PX        -0.00454   0.01097   0.00160  -0.00140  -0.04255
  78        5PY        -0.00428   0.01452   0.00950   0.00655  -0.06769
  79        5PZ         0.00247  -0.01257  -0.01915  -0.01061   0.07555
  80        6D 0       -0.00034   0.00059  -0.00261  -0.00297   0.00031
  81        6D+1        0.00049  -0.00082   0.00474   0.00626  -0.00076
  82        6D-1       -0.00060   0.00113  -0.00671  -0.00882   0.00091
  83        6D+2        0.00097  -0.00188   0.00542   0.00749   0.00380
  84        6D-2        0.00039  -0.00104   0.00072   0.00104   0.00333
  85 7   O  1S         -0.00033   0.00249   0.00208   0.00032  -0.01333
  86        2S         -0.00092   0.00555   0.00381  -0.00012  -0.02901
  87        3S         -0.00350   0.01749   0.01998   0.01209  -0.08797
  88        4PX         0.00828  -0.00372   0.10247   0.12618  -0.06436
  89        4PY         0.00743  -0.00983   0.10555   0.13614  -0.04213
  90        4PZ         0.02540  -0.05749   0.16223   0.22455   0.10117
  91        5PX         0.00714  -0.00319   0.08446   0.10408  -0.05408
  92        5PY         0.00633  -0.01025   0.08875   0.11453  -0.02813
  93        5PZ         0.02061  -0.04605   0.13359   0.18449   0.07799
  94        6D 0       -0.00035   0.00075  -0.00301  -0.00408  -0.00058
  95        6D+1        0.00001  -0.00010   0.00029   0.00006  -0.00029
  96        6D-1        0.00025  -0.00074   0.00058   0.00137   0.00264
  97        6D+2        0.00023  -0.00053  -0.00091  -0.00128   0.00222
  98        6D-2        0.00025  -0.00013   0.00189   0.00209  -0.00108
  99 8   N  1S          0.01823  -0.01464  -0.02039   0.00425   0.07906
 100        2S          0.04108  -0.03156  -0.03979   0.00714   0.16578
 101        3S          0.04532  -0.04635  -0.11189   0.04479   0.20733
 102        4PX        -0.00212  -0.05003   0.09458  -0.10449   0.18462
 103        4PY         0.03536  -0.07123   0.13332  -0.09818  -0.31199
 104        4PZ         0.13511  -0.19178   0.15367  -0.18586   0.05901
 105        5PX        -0.01640   0.03881  -0.08346   0.08379  -0.09880
 106        5PY        -0.03657   0.05692  -0.08631   0.06330   0.21352
 107        5PZ        -0.09246   0.13517  -0.12315   0.13246  -0.04529
 108        6D 0       -0.00570   0.00852  -0.00820   0.00842   0.00868
 109        6D+1       -0.00101   0.00124  -0.00113   0.00230  -0.00164
 110        6D-1        0.00446  -0.00675   0.00514  -0.00731   0.00612
 111        6D+2       -0.00085   0.00369  -0.00561   0.00541   0.00634
 112        6D-2       -0.00018  -0.00354   0.00533  -0.00616   0.01286
 113 9   C  1S          0.00630  -0.00122  -0.00686   0.00164   0.03552
 114        2S         -0.01669   0.00196   0.01646  -0.00338  -0.09361
 115        3S         -0.05352   0.03969   0.05740  -0.00196  -0.00486
 116        4PX        -0.04379   0.04722  -0.04079   0.05812  -0.02042
 117        4PY        -0.04466   0.07326  -0.03387   0.05876  -0.03760
 118        4PZ        -0.02330   0.07855  -0.11560   0.12307   0.03749
 119        5PX         0.00910   0.01736  -0.02425   0.01401  -0.04649
 120        5PY        -0.03027   0.04152  -0.02497   0.03710   0.06147
 121        5PZ        -0.03677   0.07429  -0.07499   0.09345  -0.00185
 122        6D 0        0.00848  -0.01394   0.01601  -0.01364  -0.00575
 123        6D+1        0.00029  -0.00227   0.00228  -0.00434   0.01261
 124        6D-1       -0.00599   0.01002  -0.00959   0.01051  -0.00168
 125        6D+2        0.00726  -0.00747   0.00769  -0.00738  -0.01515
 126        6D-2       -0.00378   0.00771  -0.00683   0.00768  -0.01434
 127 10  O  1S         -0.00085   0.00630   0.00057  -0.00021   0.01375
 128        2S         -0.00341   0.01512   0.00168  -0.00053   0.02952
 129        3S          0.00583   0.01280  -0.00131  -0.00116   0.08872
 130        4PX         0.05949  -0.06585   0.08328  -0.09285  -0.02479
 131        4PY         0.05365  -0.09626   0.06443  -0.09620   0.10278
 132        4PZ         0.10345  -0.15594   0.14312  -0.16720  -0.05929
 133        5PX         0.05089  -0.05835   0.07066  -0.07709  -0.02676
 134        5PY         0.04532  -0.07837   0.05222  -0.07745   0.08081
 135        5PZ         0.08203  -0.12836   0.11872  -0.13877  -0.04438
 136        6D 0       -0.00178   0.00300  -0.00211   0.00288   0.00093
 137        6D+1       -0.00121  -0.00002   0.00041  -0.00039  -0.00084
 138        6D-1        0.00137  -0.00131   0.00158  -0.00137  -0.00232
 139        6D+2       -0.00032   0.00043  -0.00061   0.00052  -0.00110
 140        6D-2        0.00107  -0.00036   0.00127  -0.00172   0.00243
 141 11  C  1S         -0.00172   0.00642   0.01043  -0.00502  -0.02083
 142        2S          0.00764  -0.01608  -0.03027   0.01654   0.05302
 143        3S         -0.01908  -0.00412  -0.02943  -0.01052   0.15398
 144        4PX        -0.02449   0.01177  -0.01256   0.01849  -0.02377
 145        4PY        -0.01340   0.03468  -0.04877   0.03715   0.11295
 146        4PZ        -0.03008   0.03043  -0.01887   0.02916  -0.04288
 147        5PX         0.00173  -0.00442   0.01745  -0.02123   0.01625
 148        5PY        -0.00841   0.01911  -0.02026   0.00075   0.11457
 149        5PZ        -0.02161   0.00357   0.00681  -0.00292  -0.05554
 150        6D 0        0.00069  -0.00575   0.00384  -0.00481  -0.00122
 151        6D+1       -0.00368   0.00251  -0.00422   0.00513  -0.00351
 152        6D-1        0.00358  -0.00320   0.00495  -0.00512  -0.00057
 153        6D+2       -0.00295   0.00612  -0.00266   0.00400   0.00113
 154        6D-2       -0.00201   0.00188  -0.00224   0.00263   0.00208
 155 12  H  1S          0.04497  -0.07276   0.05508  -0.06442  -0.02724
 156        2S          0.02505  -0.03882   0.04779  -0.05002  -0.03203
 157        3PX        -0.00003  -0.00016   0.00061  -0.00042  -0.00126
 158        3PY         0.00088  -0.00197   0.00073  -0.00122   0.00136
 159        3PZ         0.00093  -0.00100   0.00085  -0.00071  -0.00209
 160 13  C  1S          0.00422  -0.00436  -0.00400  -0.00057   0.02518
 161        2S         -0.00243   0.00327   0.00958  -0.00471  -0.05738
 162        3S         -0.01363   0.03144   0.00621   0.06183  -0.16473
 163        4PX        -0.00565  -0.02260   0.02203  -0.03156   0.12240
 164        4PY         0.01778  -0.02791   0.04723  -0.03735  -0.07499
 165        4PZ         0.08622  -0.08194   0.01837  -0.03680  -0.01387
 166        5PX        -0.01696   0.00779  -0.03883   0.04240   0.02945
 167        5PY         0.01715   0.00083   0.00024  -0.00390   0.03346
 168        5PZ         0.03532  -0.00346   0.01020   0.01799  -0.06078
 169        6D 0       -0.01314   0.01266   0.00331   0.00141  -0.00106
 170        6D+1        0.00366  -0.00783   0.00843  -0.00971   0.00828
 171        6D-1       -0.00192  -0.00038   0.00335  -0.00236  -0.00058
 172        6D+2        0.00793  -0.00701   0.00062  -0.00161  -0.01319
 173        6D-2        0.00370  -0.00421   0.00649  -0.00555  -0.01090
 174 14  H  1S         -0.11716   0.11604  -0.00220   0.03968  -0.02318
 175        2S         -0.06684   0.08345   0.00390   0.02676  -0.00604
 176        3PX         0.00123  -0.00067   0.00000  -0.00070   0.00229
 177        3PY         0.00243  -0.00230   0.00096  -0.00130  -0.00278
 178        3PZ        -0.00274   0.00278  -0.00007   0.00103  -0.00108
 179 15  C  1S         -0.01243   0.01942  -0.01707   0.01900   0.00315
 180        2S          0.03062  -0.05065   0.04720  -0.05130  -0.01470
 181        3S          0.02979  -0.05830   0.03782  -0.06171   0.01683
 182        4PX         0.11344  -0.02855  -0.19071   0.13552  -0.01839
 183        4PY        -0.04114   0.04616  -0.01130   0.02208   0.00950
 184        4PZ        -0.19769   0.14534   0.09159  -0.02794   0.03872
 185        5PX         0.08929  -0.01429  -0.14664   0.12153  -0.03153
 186        5PY        -0.04296   0.03407   0.02618   0.02224  -0.09314
 187        5PZ        -0.13419   0.11323   0.03377   0.01399   0.04685
 188        6D 0       -0.00006   0.00891   0.00600  -0.00311   0.00155
 189        6D+1       -0.00108  -0.00190   0.00097  -0.00111  -0.00054
 190        6D-1       -0.00784  -0.01056  -0.00046  -0.00099   0.00138
 191        6D+2        0.00157  -0.00189  -0.00314   0.00210  -0.00272
 192        6D-2        0.01091   0.00703   0.00422  -0.00326   0.00118
 193 16  C  1S          0.00211  -0.00276  -0.00123  -0.00034   0.00852
 194        2S         -0.00711   0.00832   0.00229   0.00246  -0.02322
 195        3S         -0.00824  -0.00001   0.05889  -0.04090  -0.09333
 196        4PX        -0.03475  -0.20328  -0.10763   0.05305  -0.03089
 197        4PY        -0.01509   0.04522  -0.01270   0.01832   0.02629
 198        4PZ         0.06156   0.17047   0.12653  -0.07667   0.05049
 199        5PX        -0.02209  -0.13811  -0.09804   0.04723  -0.00585
 200        5PY        -0.00914   0.01440   0.01452  -0.01245   0.00284
 201        5PZ         0.04479   0.13122   0.07660  -0.04894   0.04092
 202        6D 0        0.01664  -0.00046  -0.00625   0.00328  -0.00072
 203        6D+1        0.00072  -0.00077   0.00145  -0.00129  -0.00000
 204        6D-1        0.00094   0.00593   0.00404  -0.00208   0.00053
 205        6D+2       -0.00819  -0.00301   0.00412  -0.00288  -0.00023
 206        6D-2        0.00049  -0.00420  -0.00588   0.00409  -0.00149
 207 17  C  1S         -0.00106   0.00149  -0.00066   0.00079  -0.00105
 208        2S          0.00328  -0.00418   0.00283  -0.00251   0.00061
 209        3S         -0.00697   0.00438  -0.01306   0.01903   0.02845
 210        4PX        -0.22246  -0.10273   0.00583  -0.00213  -0.01277
 211        4PY         0.02753   0.01008   0.00141  -0.00198  -0.00197
 212        4PZ         0.20797   0.12534  -0.01786   0.01640   0.00301
 213        5PX        -0.15492  -0.07399   0.00970  -0.00848  -0.01677
 214        5PY         0.01569   0.02043  -0.01390   0.01083   0.01205
 215        5PZ         0.15158   0.08523  -0.01152   0.00741  -0.00166
 216        6D 0       -0.00299  -0.00828  -0.00616   0.00377  -0.00198
 217        6D+1        0.00012   0.00001  -0.00155   0.00121   0.00029
 218        6D-1        0.00668  -0.00737  -0.00574   0.00268  -0.00230
 219        6D+2       -0.00061   0.00736   0.00386  -0.00174   0.00205
 220        6D-2       -0.00500   0.00353   0.00713  -0.00462   0.00179
 221 18  C  1S         -0.00198   0.00305  -0.00254   0.00271   0.00167
 222        2S          0.00481  -0.00739   0.00566  -0.00592  -0.00389
 223        3S          0.01391  -0.02116   0.01357  -0.02337  -0.00619
 224        4PX        -0.15947   0.07995   0.12415  -0.07032   0.03911
 225        4PY         0.01162  -0.00179  -0.02113   0.01559  -0.00220
 226        4PZ         0.16143  -0.08168  -0.12344   0.06928  -0.03278
 227        5PX        -0.11563   0.05750   0.09033  -0.04825   0.02718
 228        5PY         0.00859   0.00018  -0.02279   0.01524   0.01167
 229        5PZ         0.11188  -0.05654  -0.08754   0.05298  -0.02804
 230        6D 0        0.00172   0.00756   0.00444  -0.00234   0.00153
 231        6D+1       -0.00097  -0.00133  -0.00023   0.00003  -0.00003
 232        6D-1       -0.00963  -0.00907  -0.00148   0.00053  -0.00085
 233        6D+2        0.00175  -0.00273  -0.00169   0.00072  -0.00048
 234        6D-2        0.01025   0.00921   0.00241  -0.00121   0.00150
 235 19  C  1S         -0.00310   0.00378  -0.00342   0.00375   0.00083
 236        2S          0.00767  -0.00870   0.00620  -0.00744  -0.00110
 237        3S          0.00197  -0.01206   0.00916   0.00081  -0.00311
 238        4PX         0.04759   0.20761   0.08847  -0.03838   0.03723
 239        4PY        -0.01278  -0.01446  -0.01955   0.01388  -0.00093
 240        4PZ        -0.06905  -0.17833  -0.10994   0.06225  -0.03727
 241        5PX         0.03599   0.15109   0.06621  -0.02853   0.02035
 242        5PY        -0.00407  -0.00971  -0.02036   0.00887   0.00786
 243        5PZ        -0.05036  -0.12571  -0.07080   0.04197  -0.04108
 244        6D 0        0.01614   0.00097  -0.00638   0.00381  -0.00181
 245        6D+1       -0.00013   0.00008   0.00061  -0.00042   0.00001
 246        6D-1        0.00063   0.00424   0.00187  -0.00078   0.00105
 247        6D+2       -0.00882  -0.00228   0.00376  -0.00260   0.00055
 248        6D-2        0.00142  -0.00346  -0.00330   0.00191  -0.00065
 249 20  C  1S          0.00188  -0.00140   0.00116  -0.00162   0.00040
 250        2S         -0.00414  -0.00122   0.00233  -0.00107  -0.00222
 251        3S          0.01354   0.01924  -0.03966   0.00977   0.07012
 252        4PX         0.22483   0.09589  -0.02646   0.01779  -0.00135
 253        4PY        -0.01960  -0.02847   0.01662  -0.01594  -0.00877
 254        4PZ        -0.20584  -0.11287   0.03893  -0.03263   0.00757
 255        5PX         0.15070   0.06754  -0.00273  -0.00051  -0.01962
 256        5PY        -0.02261  -0.01728   0.03231  -0.01033  -0.05969
 257        5PZ        -0.14460  -0.07550   0.03052  -0.03047   0.00457
 258        6D 0       -0.00319  -0.00935  -0.00356   0.00157  -0.00214
 259        6D+1        0.00096  -0.00123  -0.00041  -0.00001  -0.00035
 260        6D-1        0.00761  -0.00895  -0.00559   0.00213  -0.00206
 261        6D+2        0.00124   0.00583   0.00479  -0.00278   0.00123
 262        6D-2       -0.00433   0.00341   0.00825  -0.00557   0.00165
 263 21  C  1S          0.00991  -0.01348   0.00971  -0.01280   0.00391
 264        2S         -0.02777   0.03679  -0.02596   0.03428  -0.01116
 265        3S         -0.01371   0.02039  -0.04027   0.05068  -0.02082
 266        4PX         0.05124   0.00992   0.06402  -0.06008   0.02835
 267        4PY        -0.00195  -0.00238   0.00146   0.00059  -0.02356
 268        4PZ         0.00248  -0.08257  -0.02316  -0.00100   0.01803
 269        5PX         0.01743   0.00661   0.02970  -0.02961   0.02126
 270        5PY         0.00727  -0.01245   0.00136  -0.00463  -0.00792
 271        5PZ        -0.00577  -0.04479   0.00130  -0.01532   0.03415
 272        6D 0        0.00087  -0.00001  -0.00156   0.00107   0.00199
 273        6D+1       -0.00109  -0.00051  -0.00170   0.00163  -0.00081
 274        6D-1        0.00289   0.00875   0.00894  -0.00569  -0.00133
 275        6D+2       -0.00083  -0.00065  -0.00017   0.00014  -0.00022
 276        6D-2       -0.00115  -0.01052  -0.00445   0.00199  -0.00516
 277 22  C  1S         -0.00108   0.00430  -0.01063  -0.00075  -0.00033
 278        2S         -0.00157  -0.00377   0.01486  -0.00050   0.00083
 279        3S          0.03082  -0.05674   0.12579   0.02351  -0.00581
 280        4PX        -0.00514   0.00143  -0.00338   0.00921   0.01757
 281        4PY         0.00876  -0.01330   0.02053  -0.00121  -0.00923
 282        4PZ        -0.00831   0.02985  -0.07224  -0.00890  -0.00876
 283        5PX         0.00139  -0.00559   0.00216  -0.00440   0.01777
 284        5PY         0.01615  -0.02487   0.04376   0.01194  -0.00940
 285        5PZ        -0.01728   0.03967  -0.09394  -0.01273  -0.01013
 286        6D 0        0.00059  -0.00089   0.00245   0.00062  -0.00082
 287        6D+1       -0.00046  -0.00068   0.00111  -0.00113   0.00272
 288        6D-1       -0.00013   0.00032   0.00043   0.00035  -0.00094
 289        6D+2        0.00012   0.00016   0.00004   0.00086  -0.00062
 290        6D-2       -0.00009   0.00043   0.00035   0.00083  -0.00106
 291 23  H  1S         -0.00008  -0.00278   0.00944   0.00008   0.00103
 292        2S          0.01144  -0.02037   0.04196   0.00653   0.00051
 293        3PX         0.00014  -0.00044   0.00019  -0.00152   0.00004
 294        3PY        -0.00021   0.00021   0.00068   0.00098  -0.00002
 295        3PZ         0.00003   0.00002   0.00022   0.00038  -0.00004
 296 24  H  1S          0.01066  -0.01035   0.01639   0.00933  -0.02150
 297        2S          0.00531  -0.00380  -0.00475  -0.00970  -0.00724
 298        3PX         0.00021  -0.00008   0.00023   0.00057  -0.00034
 299        3PY        -0.00041   0.00077  -0.00150  -0.00121   0.00006
 300        3PZ        -0.00015   0.00010  -0.00031  -0.00027   0.00037
 301 25  H  1S          0.00828  -0.01588   0.01186  -0.00321   0.02117
 302        2S         -0.00133  -0.00042  -0.00517   0.00701   0.00416
 303        3PX        -0.00096   0.00139  -0.00119   0.00086  -0.00039
 304        3PY        -0.00036   0.00052  -0.00075  -0.00010   0.00023
 305        3PZ         0.00008  -0.00003   0.00010  -0.00003  -0.00019
 306 26  H  1S         -0.01337   0.02352  -0.10802  -0.13246   0.00542
 307        2S         -0.00940   0.01886  -0.07288  -0.09859  -0.01571
 308        3PX         0.00024  -0.00080  -0.00009   0.00025   0.00345
 309        3PY         0.00006  -0.00020   0.00080   0.00106   0.00015
 310        3PZ        -0.00040   0.00082  -0.00257  -0.00333  -0.00107
 311 27  H  1S          0.01453  -0.03193   0.08943   0.11372   0.04783
 312        2S          0.00608  -0.01597   0.06270   0.08315   0.01815
 313        3PX        -0.00004  -0.00004  -0.00172  -0.00187   0.00184
 314        3PY        -0.00033   0.00084  -0.00192  -0.00261  -0.00177
 315        3PZ         0.00008   0.00003   0.00171   0.00205  -0.00157
 316 28  H  1S          0.01187  -0.02375   0.06422   0.08550   0.03956
 317        2S          0.00812  -0.01802   0.03804   0.05443   0.04360
 318        3PX         0.00020  -0.00030   0.00176   0.00222  -0.00046
 319        3PY         0.00012  -0.00009   0.00094   0.00113  -0.00047
 320        3PZ         0.00010  -0.00044  -0.00130  -0.00151   0.00277
 321 29  H  1S         -0.00895   0.01562  -0.08442  -0.10632   0.00917
 322        2S         -0.00501   0.00830  -0.06155  -0.07876   0.01776
 323        3PX        -0.00026   0.00066  -0.00018  -0.00036  -0.00244
 324        3PY        -0.00006   0.00028   0.00025  -0.00005  -0.00157
 325        3PZ         0.00026  -0.00059   0.00186   0.00249   0.00087
 326 30  H  1S         -0.01287   0.01747  -0.01290   0.01437  -0.00015
 327        2S         -0.00945   0.01334  -0.01252   0.01250   0.00542
 328        3PX        -0.00721  -0.00380   0.00047  -0.00031  -0.00029
 329        3PY         0.00041   0.00091  -0.00029   0.00041  -0.00028
 330        3PZ         0.00732   0.00367  -0.00038   0.00032   0.00004
 331 31  H  1S          0.00264  -0.00374   0.00142  -0.00197   0.00376
 332        2S          0.00119  -0.00097  -0.00002  -0.00055   0.00300
 333        3PX        -0.00537   0.00284   0.00422  -0.00240   0.00125
[...]
 0001820,0.00000346,-0.00001350,0.00000758,0.00001707,0.00000633,-0.000
 02483,0.00003489,0.00002103,0.00000738,0.00000207,-0.00000149,0.000005
 01,0.00000211,0.00000394,0.00000446,0.00000298,-0.00000113,-0.00000023
 ,0.00000295,0.00000105,-0.00017923,-0.00005247,0.00018315,0.00000486,-
 0.00000657,0.00001521,0.00004139,-0.00004432,0.00003590,0.00000285,0.0
 0001430,0.00001513,0.04885070,-0.00000729,0.00000904,-0.00001440,0.000
 06957,0.00003344,0.00004670,-0.00000579,-0.00007555,0.00000244,0.00000
 500,0.00003795,-0.00000142,-0.00000349,-0.00000012,-0.00000033,-0.0000
 1245,-0.00001300,-0.00000368,0.00000793,0.00004786,-0.00001276,0.00002
 935,0.00070437,0.00016247,-0.00061655,-0.00097641,-0.00027000,0.001789
 32,0.00141431,-0.00065431,0.00017685,-0.00264335,0.00053235,-0.0002949
 1,-0.00024579,0.00007276,0.00053840,-0.00090206,0.00057325,-0.00031521
 ,-0.00023720,0.00002039,0.00094116,-0.00234231,-0.00158440,0.00112400,
 -0.01806206,0.01114039,-0.00143294,0.00157629,0.00113812,-0.00077395,-
 0.00058679,-0.00070832,0.00044564,0.00018751,-0.00019026,-0.00118611,0
 .00008151,-0.00017692,0.02544082,-0.23857073,0.12433183,-0.00000471,-0
 .00005035,0.00002494,0.00000552,-0.00000486,-0.00001072,-0.00000157,0.
 00000474,0.00000406,-0.00000447,0.00001187,0.00000692,0.00000680,0.000
 00194,-0.00000117,0.00000612,0.00000334,0.00000566,0.00000214,0.000001
 92,-0.00000031,0.00000032,0.00000061,0.00000059,0.00083131,-0.00011205
 ,0.00004391,0.00001087,-0.00001628,-0.00002378,0.00012345,-0.00003332,
 0.00005421,0.00002837,-0.00022135,-0.00011063,-0.02621105,0.25693986,0
 .00004303,0.00003056,0.00002296,0.00002146,0.00004240,-0.00011186,-0.0
 0006705,-0.00002520,-0.00004970,0.00005338,0.00004560,0.00001129,-0.00
 000545,-0.00002508,0.00000567,-0.00000866,-0.00001207,-0.00000154,0.00
 006818,0.00000887,0.00002084,0.00038500,0.00018070,0.00037842,0.000068
 54,0.00028702,0.00049511,-0.00245730,-0.00101528,0.00133889,-0.0035272
 6,0.01371494,-0.00876066,0.00111682,0.00002142,-0.00033938,0.00102269,
 -0.00156398,-0.00140455,0.00001276,0.00036773,0.00019472,0.00060825,-0
 .00185681,-0.00185364,0.00205233,-0.01812395,0.01356066,-0.00030593,0.
 00031986,0.00044606,-0.00043428,0.00043700,-0.00002146,-0.00009538,-0.
 00034152,0.00012483,-0.00089702,-0.00017322,-0.00033990,-0.01274375,0.
 12404246,-0.12355476,0.00003594,-0.00001997,-0.00000673,-0.00000536,-0
 .00000208,-0.00000386,0.00000078,-0.00002192,-0.00000377,0.00000834,-0
 .00000476,-0.00000098,0.00000384,0.00000145,-0.00000259,0.00000262,0.0
 0000301,0.00000425,0.00000536,-0.00000050,-0.00000014,0.00000206,0.000
 00124,0.00000371,0.00035139,0.00024663,0.00005960,-0.00000961,0.000034
 18,-0.00002996,0.00000211,0.00001192,0.00000302,0.00000510,-0.00020941
 ,-0.00008792,0.01553638,-0.13164269,0.12955407,-0.00000378,-0.00001010
 ,-0.00005861,-0.00005869,-0.00028663,-0.00003160,0.00008148,0.00015135
 ,-0.00001568,-0.00006417,-0.00006581,-0.00001195,0.00001915,0.00002572
 ,-0.00000077,0.00002065,0.00003690,0.00001007,-0.00013641,-0.00007587,
 -0.00004479,-0.00031613,-0.00082321,-0.00001423,0.00038747,0.00188280,
 0.00066152,-0.00603029,-0.00216423,0.00184835,-0.01497866,-0.00043614,
 -0.01733064,0.00098403,0.00072140,-0.00005449,-0.00076072,-0.00017129,
 0.00044956,-0.00005356,-0.00030340,-0.00004090,-0.00014994,-0.00001057
 ,0.00011649,0.00722956,-0.00088539,0.00387904,-0.00027792,0.00069454,0
 .00096816,-0.00021099,-0.00087808,-0.00050068,0.00047899,0.00053516,-0
 .00014030,-0.00017629,0.00010671,0.00014489,-0.21095226,-0.02282076,-0
 .12644404,-0.00004517,0.00001676,0.00002307,0.00000395,-0.00000696,0.0
 0000520,-0.00003113,0.00000685,0.00000658,0.00002710,-0.00005254,-0.00
 001116,-0.00001344,-0.00000422,0.00000362,-0.00000642,-0.00000715,-0.0
 0000795,-0.00001217,-0.00000275,-0.00000107,-0.00000631,-0.00000515,-0
 .00000808,-0.00009587,-0.00009883,-0.00001075,-0.00001816,-0.00002064,
 -0.00000451,-0.00004675,0.00001413,-0.00007047,-0.00000399,0.00003556,
 0.00000814,-0.00173276,-0.00065571,-0.00081511,0.22694146,0.00000319,0
 .00000914,0.00000501,0.00003006,0.00003046,0.00007116,-0.00003340,-0.0
 0006643,-0.00000488,0.00001894,0.00004297,0.00001291,-0.00000251,-0.00
 000767,-0.00000167,-0.00000902,-0.00001276,-0.00000661,0.00003519,0.00
 003436,0.00000361,-0.00043882,0.00056924,0.00012833,-0.00046025,-0.001
 00543,-0.00013988,0.00190168,0.00071916,-0.00017523,-0.00342382,-0.001
 45155,-0.00250523,0.00038441,0.00053984,0.00000666,-0.00012692,-0.0004
 8249,-0.00038698,-0.00013907,-0.00011579,0.00008586,0.00088174,-0.0017
 8693,-0.00133546,-0.02025822,-0.00532100,-0.01701983,-0.00065536,0.000
 97534,0.00141683,0.00025457,-0.00123417,0.00063536,0.00030218,0.000032
 13,-0.00046970,0.00066470,-0.00057238,0.00115980,-0.02502167,-0.045345
 10,-0.01818937,0.00000730,-0.00004553,-0.00000646,0.00000211,0.0000012
 7,-0.00000572,0.00000610,-0.00000165,0.00000003,-0.00001051,0.00001437
 ,0.00001152,0.00000439,0.00000164,-0.00000053,0.00000546,0.00000439,0.
 00000430,0.00000301,0.00000180,0.00000031,0.00000218,0.00000085,0.0000
 0295,-0.00019843,0.00037441,-0.00046574,0.00003243,-0.00002039,-0.0000
 1698,-0.00009309,0.00005630,-0.00011059,-0.00004528,-0.00014852,-0.000
 12271,0.02081129,0.00395655,0.01521173,0.02558540,0.05020313,-0.000015
 63,0.00000517,0.00001812,0.00013238,0.00024575,0.00002981,0.00003731,-
 0.00011219,0.00005086,-0.00000291,0.00003168,0.00001090,0.00000588,-0.
 00000311,-0.00000607,0.00000698,-0.00000761,-0.00000192,0.00002009,0.0
 0004567,0.00000672,-0.00010218,0.00064332,0.00015362,0.00016763,-0.001
 37742,0.00011278,0.00445186,0.00130345,-0.00030096,0.01369776,0.001731
 23,0.01070011,0.00016182,-0.00072828,0.00120856,0.00011398,0.00026736,
 -0.00116469,-0.00008437,0.00018671,0.00012475,0.00121287,-0.00004683,-
 0.00108624,-0.01252077,-0.00363314,-0.01044657,-0.00026142,-0.00048225
 ,0.00128329,0.00038587,-0.00055549,0.00051856,-0.00011750,-0.00017103,
 -0.00019499,0.00052847,-0.00051311,0.00023721,-0.13211838,-0.01652858,
 -0.14624399,0.00000142,0.00001858,-0.00003480,-0.00000354,-0.00000075,
 0.00000202,0.00000995,0.00000358,-0.00000084,-0.00000901,0.00002169,-0
 .00000299,0.00000284,0.00000106,0.00000132,0.00000480,0.00000362,0.000
 00225,0.00000039,0.00000301,0.00000187,0.00000328,0.00000111,0.0000012
 1,-0.00006196,0.00025790,-0.00062801,0.00003048,-0.00003335,-0.0000331
 8,-0.00003827,0.00003691,-0.00005613,0.00002454,-0.00011503,-0.0000350
 9,-0.01316768,-0.00270740,-0.00966902,0.13748123,0.02222072,0.15542006
 ,0.00071710,-0.00041835,0.00002762,0.00694710,-0.00379669,0.00558579,0
 .00048285,-0.00024153,-0.00022384,-0.00007052,0.00012623,-0.00006681,-
 0.00002020,0.00001736,0.00005602,-0.00023890,-0.00009695,-0.00002426,-
 0.00110474,-0.00116071,0.00090629,0.00042646,-0.00024514,0.00000907,-0
 .00124695,-0.00113641,0.00142081,0.00031319,0.00066820,-0.00033761,0.0
 0026932,-0.00010212,0.00006722,-0.00003631,0.00002066,-0.00002568,0.00
 010789,-0.00006457,-0.00017387,-0.00002305,0.00001531,-0.00000201,0.00
 006047,0.00002525,0.00005756,0.00000355,-0.00003009,-0.00003643,0.0000
 0370,0.00002295,-0.00002409,0.00000864,0.00000056,-0.00000945,-0.00000
 838,0.00000414,0.00000272,-0.00000338,-0.00001242,-0.00000636,0.000011
 01,-0.00002989,0.00002178,-0.23738438,0.09358556,-0.09908941,0.0001037
 0,-0.00013531,-0.00002494,0.00009886,0.00006835,-0.00018370,-0.0000864
 2,0.00010387,-0.00006423,0.00000085,0.00001259,-0.00000531,0.00002452,
 0.00002566,0.00001574,0.00002813,0.00000880,0.00000655,0.00004473,0.00
 001845,-0.00001173,0.00000609,-0.00000399,-0.00000154,-0.00000277,0.00
 000285,0.00000523,0.00000043,0.00000337,0.00000159,0.00000422,-0.00000
 309,0.00000426,0.00004795,0.00003786,0.00001522,-0.00001281,0.00002064
 ,-0.00001339,0.25105949,-0.00033135,0.00033669,-0.00124376,0.01005716,
 -0.00633510,0.00622937,0.00301910,-0.00091952,0.00133510,-0.00049720,0
 .00037962,-0.00024862,-0.00000019,0.00006386,0.00010275,-0.00068205,-0
 .00052901,-0.00032911,-0.00063743,0.00068709,-0.00091646,0.00030252,0.
 00014145,0.00060691,-0.00241565,-0.00133311,0.00193318,-0.00006216,0.0
 0058837,-0.00061030,0.00030118,-0.00012584,-0.00006773,-0.00003560,0.0
 0002658,-0.00002031,0.00002140,-0.00008326,-0.00046423,0.00001419,0.00
 001820,0.00002474,0.00009831,0.00008042,0.00015846,0.00003773,-0.00007
 855,-0.00007944,-0.00001347,0.00001395,-0.00000417,0.00001469,-0.00000
 358,-0.00001461,-0.00000948,0.00001380,0.00000575,0.00002608,0.0000324
 1,-0.00001607,-0.00001256,-0.00004856,0.00003193,0.09152417,-0.0892319
 3,0.04483167,-0.00010748,-0.00014088,-0.00005856,0.00001650,0.00052979
 ,0.00007913,-0.00015000,0.00003322,-0.00002206,-0.00001255,0.00004290,
 -0.00003802,0.00000576,0.00003398,0.00000290,0.00009519,0.00007534,-0.
 00002193,-0.00004057,-0.00001384,0.00004465,0.00001036,0.00000280,-0.0
 0000969,0.00000578,-0.00000107,-0.00000229,0.00000604,-0.00000701,-0.0
 0000757,-0.00000163,0.00000690,0.00000993,0.00003789,0.00002146,-0.000
 00187,0.00000510,0.00001549,-0.00000429,-0.09866358,0.09220598,-0.0015
 3163,0.00041251,0.00165374,-0.02294560,0.01112646,-0.01402772,-0.00202
 157,0.00022574,-0.00015732,0.00021055,-0.00018334,0.00020818,0.0000113
 6,-0.00014434,-0.00009291,0.00057827,0.00032488,0.00050104,0.00000666,
 -0.00092479,0.00025887,-0.00120723,0.00064658,-0.00072685,0.00411750,0
 .00149483,-0.00398360,-0.00052227,0.00009700,-0.00001462,0.00019254,-0
 .00001706,0.00005483,-0.00004610,0.00001665,-0.00002629,-0.00018154,0.
 00022163,0.00068873,-0.00000880,0.00000799,-0.00002020,-0.00014106,-0.
 00004781,-0.00028460,-0.00007473,0.00002046,0.00009035,0.00002663,-0.0
 0001901,0.00004089,-0.00003210,0.00001333,0.00004473,0.00001317,-0.000
 00458,0.00002142,-0.00002369,-0.00001618,0.00003768,-0.00000814,0.0000
 3137,-0.00006542,-0.09595490,0.04454329,-0.09334988,0.00025981,-0.0000
 2739,0.00041899,0.00075068,-0.00052291,-0.00041696,-0.00000139,-0.0000
 4942,-0.00009217,0.00000962,-0.00001263,0.00001235,0.00000236,-0.00004
 883,0.00001919,-0.00006286,-0.00005118,-0.00001715,-0.00003706,-0.0000
 4452,-0.00007088,-0.00001822,-0.00000407,0.00000789,-0.00000950,0.0000
 0547,0.00000137,-0.00000968,0.00000974,0.00000951,-0.00000163,-0.00000
 153,-0.00002121,-0.00001876,-0.00002389,0.00000074,-0.00002507,0.00000
 133,0.00001173,0.10369113,-0.05189647,0.10246342,0.00002399,-0.0011471
 9,0.00138045,-0.00424820,0.00443685,0.00314863,0.00024140,0.00143200,0
 .00066026,0.00006751,-0.00038107,-0.00027322,-0.00012267,-0.00006970,0
 .00000867,-0.00000938,-0.00004514,0.00019367,-0.00024207,-0.00025644,-
 0.00031565,0.00010936,-0.00012917,-0.00001114,0.00015710,-0.00012681,-
 0.00094230,-0.00014847,-0.00003833,0.00009173,-0.00000485,0.00005610,-
 0.00003246,0.00000451,-0.00001145,0.00001348,-0.00001762,-0.00001193,0
 .00003187,0.00002382,0.00000911,0.00002120,0.00006889,-0.00000405,-0.0
 0002519,0.00003616,-0.00006066,0.00002763,-0.00001385,-0.00002386,0.00
 005743,-0.00000627,0.00000129,0.00001636,0.00000244,0.00000838,-0.0000
 0289,0.00002238,0.00004292,0.00002014,-0.00000059,-0.00001043,-0.00002
 093,-0.08646747,0.07372906,0.06230431,0.00033521,0.00045470,0.00043274
 ,0.00031615,-0.00027515,-0.00021067,0.00003718,0.00023950,0.00013090,0
 .00003463,0.00001286,-0.00000941,-0.00001099,-0.00002860,0.00004015,0.
 00000700,-0.00000983,-0.00004262,-0.00006368,-0.00000136,-0.00004578,-
 0.00001111,0.00000213,-0.00000540,0.00000115,-0.00000029,-0.00000495,0
 .00000463,-0.00000820,-0.00000429,0.00000010,-0.00000783,0.00000546,-0
 .00002041,-0.00003372,-0.00002465,0.00000492,-0.00000720,0.00001468,-0
 .00713316,0.01629847,0.01648527,0.08747739,-0.00067652,-0.00086081,0.0
 0254870,-0.00602226,0.00957267,0.00954528,-0.00040345,0.00147365,0.000
 21599,0.00034952,0.00004822,-0.00021323,-0.00005679,-0.00000864,-0.000
 01857,-0.00005947,-0.00002233,-0.00008363,0.00022069,-0.00002308,0.000
 01172,-0.00022135,0.00007192,-0.00038329,-0.00008344,0.00116351,0.0001
 8279,-0.00030154,-0.00009195,-0.00010862,0.00011159,0.00002709,-0.0000
 4805,-0.00001312,-0.00000461,0.00000461,0.00006499,-0.00001525,-0.0000
 2587,-0.00002024,0.00000559,-0.00000174,0.00000628,0.00002630,-0.00002
 590,0.00000636,0.00000003,0.00001220,0.00000343,-0.00001326,0.00004033
 ,-0.00000486,0.00000733,0.00002769,0.00000139,-0.00000102,-0.00001571,
 -0.00002596,0.00000688,0.00000003,-0.00000369,0.00000255,-0.00002131,0
 .07478028,-0.18756502,-0.12030176,-0.00025755,0.00081680,0.00059804,-0
 .00016290,-0.00009694,0.00004804,0.00012421,0.00009221,0.00025190,0.00
 003532,0.00001008,0.00000539,0.00001112,0.00001941,0.00002444,0.000009
 42,-0.00000798,0.00001191,0.00002671,0.00001771,0.00002008,-0.00002327
 ,-0.00000353,-0.00000508,-0.00000850,0.00000431,-0.00000048,-0.0000004
 1,-0.00000034,0.00000081,0.00000430,-0.00001322,0.00000284,-0.00001932
 ,-0.00004268,-0.00002969,-0.00000264,-0.00001022,0.00001220,0.00150292
 ,-0.00728819,-0.00673559,-0.07917491,0.19565727,0.00118714,0.00380222,
 -0.00504560,0.00909944,-0.01882423,-0.01608400,-0.00075892,-0.00223712
 ,0.00033739,-0.00019697,0.00067907,0.00049399,0.00016366,0.00006457,-0
 .00009574,0.00006583,-0.00004973,-0.00004069,0.00010042,0.00028838,0.0
 0002329,-0.00045753,0.00068679,0.00064133,0.00168408,-0.00253730,0.000
 30334,-0.00037767,0.00031306,0.00002078,0.00001613,0.00000381,-0.00013
 526,0.00000456,0.00001648,0.00001853,-0.00017860,0.00004426,-0.0002215
 7,0.00001671,-0.00000543,0.00001503,0.00005774,0.00003762,-0.00001040,
 0.00000455,-0.00006727,-0.00000494,-0.00001036,0.00000106,0.00003342,-
 0.00000569,-0.00000301,-0.00000174,0.00000127,0.00001024,0.00001103,0.
 00002172,0.00004035,0.00002170,-0.00000857,0.00000083,-0.00003168,0.06
 138776,-0.11677606,-0.14508279,0.00085762,-0.00137045,-0.00096213,0.00
 003273,0.00005116,0.00013467,-0.00011459,0.00023874,0.00024975,0.00000
 118,-0.00001255,0.00000383,-0.00001429,0.00000926,-0.00003342,-0.00000
 717,0.00002558,-0.00000605,0.00000887,0.00000921,0.00000836,0.00000151
 ,0.00000560,-0.00000578,0.00000745,-0.00000218,-0.00000608,0.00000114,
 -0.00000695,-0.00000474,-0.00000902,0.00001160,-0.00000652,-0.00002076
 ,-0.00002774,-0.00001768,0.00000589,-0.00000616,0.00002099,-0.00479270
 ,0.01064765,0.00908690,-0.06929052,0.12585841,0.15850682,0.00002659,-0
 .00021469,-0.00082646,-0.00502727,-0.00434220,-0.00143468,-0.00003021,
 0.00050718,0.00099696,-0.00031643,-0.00043775,0.00006953,0.00010546,-0
 .00013371,-0.00015085,0.00027102,0.00030233,0.00022096,-0.00013174,-0.
 00081988,0.00046642,0.00000299,-0.00010867,-0.00000660,0.00002539,0.00
 040475,-0.00019328,-0.00068549,0.00076037,-0.00100245,0.00009317,0.000
 05486,-0.00019074,-0.00000171,0.00000136,0.00001350,-0.00001964,0.0000
 2912,-0.00004841,-0.00000479,-0.00000699,0.00000090,0.00003143,0.00001
 711,0.00001705,0.00001315,0.00001684,0.00002887,-0.00000578,-0.0000081
 7,0.00001281,0.00000050,-0.00000292,0.00000067,0.00000426,-0.00000348,
 -0.00000992,-0.00000394,0.00000761,0.00000215,0.00005526,0.00005682,-0
 .00001124,-0.17934555,-0.13935076,-0.02645063,0.00021252,0.00025054,-0
 .00007514,-0.00013793,-0.00010569,0.00002159,0.00012380,0.00023788,0.0
 0061616,-0.00001354,-0.00001111,0.00001722,-0.00005694,-0.00005156,0.0
 0000154,-0.00005754,-0.00004141,-0.00000936,-0.00001878,-0.00001743,-0
 .00003477,-0.00000590,0.00000343,-0.00000009,0.00000335,-0.00000277,-0
 .00000452,0.00000138,-0.00000554,-0.00000210,-0.00000413,-0.00000065,0
 .00000268,-0.00013470,-0.00006087,-0.00002477,0.00001602,-0.00003343,0
 .00002049,-0.01339827,-0.01822466,-0.00147204,0.00954488,0.01028363,0.
 00151593,0.18886910,0.00100252,0.00069439,-0.00094879,-0.00815915,-0.0
 0979608,-0.00108173,0.00093319,-0.00025709,0.00301892,-0.00063318,-0.0
 0004099,0.00023704,0.00023894,-0.00011966,-0.00030508,-0.00002929,-0.0
 0014426,-0.00014158,0.00025443,0.00038147,-0.00033025,0.00036492,0.000
 42854,0.00004422,-0.00255461,-0.00187401,-0.00063168,0.00041724,0.0012
 5563,-0.00084539,0.00079435,-0.00014716,0.00018292,-0.00010777,0.00004
 839,-0.00009012,-0.00005942,0.00004054,0.00004667,0.00000602,0.0000527
 4,0.00001342,-0.00000920,0.00001375,-0.00001098,-0.00003749,-0.0000779
 0,-0.00004799,0.00001310,0.00003929,-0.00003622,0.00000097,0.00000402,
 -0.00000742,-0.00000556,0.00001782,0.00002590,-0.00001457,-0.00003518,
 0.00000709,-0.00001714,-0.00005463,0.00004675,-0.13839866,-0.19078494,
 -0.02913671,0.00021615,0.00000156,0.00003674,0.00006244,0.00003722,0.0
 0008024,-0.00022789,0.00053173,0.00018855,-0.00005264,0.00001652,0.000
 01142,-0.00014159,-0.00002350,-0.00008406,-0.00001127,0.00002712,0.000
 00585,-0.00000757,-0.00002427,0.00000623,0.00001785,-0.00000441,0.0000
 0171,-0.00000291,0.00000469,0.00000838,-0.00000729,0.00001191,0.000006
 48,-0.00000249,0.00001451,-0.00000852,0.00014808,0.00010172,0.00006127
 ,-0.00003032,0.00004517,-0.00002085,0.00984929,0.01078917,0.00157628,-
 0.01486005,-0.01295450,-0.00091979,0.15105054,0.20178069,0.00005901,0.
 00089692,0.00205541,0.02120023,0.02115436,0.00151794,-0.00104396,0.001
 15699,-0.00620558,0.00105693,0.00097525,0.00022325,-0.00029063,0.00033
 869,0.00060683,0.00004423,0.00014399,0.00001325,0.00029373,-0.00029015
 ,0.00059809,-0.00021099,-0.00032164,0.00007501,0.00150355,0.00120998,0
 .00113631,-0.00019900,-0.00028417,-0.00057072,-0.00082540,0.00003505,-
 0.00019813,0.00008947,-0.00002863,0.00005396,0.00007180,-0.00005442,-0
 .00004896,-0.00000195,-0.00004696,-0.00002183,-0.00002093,-0.00002989,
 0.00004396,0.00002040,0.00004237,0.00000494,-0.00002051,-0.00001923,-0
 .00001729,0.00000734,-0.00001011,-0.00002430,0.00000117,-0.00001009,-0
 .00000638,0.00002471,0.00002296,-0.00001989,0.00002246,-0.00001522,0.0
 0002483,-0.02905681,-0.03186656,-0.04974386,-0.00034684,-0.00001455,0.
 00016753,0.00001356,-0.00013009,-0.00005161,-0.00006675,-0.00061931,-0
 .00041519,0.00001911,-0.00003457,-0.00002506,0.00026410,0.00010221,0.0
 0009646,0.00002390,-0.00001856,0.00002157,0.00007752,0.00005469,0.0000
 4201,0.00001799,0.00000539,0.00000254,0.00000686,-0.00000806,-0.000004
 57,0.00000420,-0.00000376,-0.00000585,0.00000014,0.00000201,0.00000218
 ,-0.00009209,0.00000416,0.00003526,0.00003105,-0.00000867,-0.00001126,
 -0.00677725,-0.00996657,-0.00226477,-0.01382296,-0.01140485,-0.0021343
 3,0.02792260,0.02904107,0.05504825\\-0.00093965,-0.00047161,0.00174494
 ,0.00037217,0.00008931,-0.00022389,-0.00619711,0.03097047,-0.00756710,
 -0.00569339,-0.00427784,-0.00369397,-0.01363924,-0.01015956,-0.0035145
 8,-0.00026047,-0.00584943,0.00145143,0.02123672,-0.00941816,0.01086904
 ,0.00433249,0.00163108,0.00514990,-0.00143382,0.03092565,-0.00340743,-
 0.01893963,-0.01700377,-0.00556497,0.00263184,-0.00576378,0.00062037,-
 0.00103296,-0.00031460,-0.00051796,0.01622185,-0.00572995,0.00594596,-
 0.00320243,-0.00175141,-0.00215086,0.00035554,0.00013433,-0.00268248,-
 0.00068700,0.00024766,0.00030549,0.00034115,0.00085177,0.00022968,-0.0
 0028526,-0.00032516,0.00040850,0.00067303,0.00165260,-0.00028702,-0.00
 158553,-0.00307324,-0.00066876,0.00054184,-0.00063747,-0.00049063,0.00
 077310,-0.00094494,-0.00172883,-0.00006656,0.00034801,0.00017508,0.000
 47065,-0.00022362,-0.00015967,-0.00006103,-0.00055358,-0.00042440,0.00
 143331,0.00056098,-0.00028040,0.00397307,-0.00011330,0.00236560,0.0009
 2040,-0.00025404,0.00029066,0.00095875,0.00009629,0.00074488,-0.000000
 34,-0.00000374,0.00010789,0.00005252,0.00017840,0.00004458,-0.00060051
 ,0.00016970,0.00055997,0.00022394,-0.00121713,0.00134272,-0.00007237,0
 .00041521,0.00029868,-0.00071959,0.00022705,0.00026658,0.00019017,-0.0
 0019442,0.00047942,0.00010183,0.00019539,-0.00041432,-0.00038749,-0.00
 041313,0.00037592\\\@

 Writing a WFNX file to "08_lig_b.wfx"


 GETTING A SIMPLE ANSWER FROM A PROFESSOR IS LIKE
 GETTING A THIMBLE OF WATER FROM A FIRE HYDRANT.
     -- PROF. LEN SHAPIRO, NDSU
 Job cpu time:       0 days  2 hours 39 minutes 11.1 seconds.
 Elapsed time:       0 days  0 hours 19 minutes 54.2 seconds.
 File lengths (MBytes):  RWF=    586 Int=      0 D2E=      0 Chk=     10 Scr=      1
 Normal termination of Gaussian 16 at Thu Nov  3 09:36:47 2022.
