 Entering Gaussian System, Link 0=g16
 Initial command:
 /software/gaussian/G16-A.03/avx/g16/l1.exe "/scratch/lcmd/1361382.slurm/Gau-58977.inp" -scrdir="/scratch/lcmd/1361382.slurm/"
 Entering Link 1 = /software/gaussian/G16-A.03/avx/g16/l1.exe PID=     58978.
  
 Copyright (c) 1988,1990,1992,1993,1995,1998,2003,2009,2016,
            Gaussian, Inc.  All Rights Reserved.
  
 This is part of the Gaussian(R) 16 program.  It is based on
 the Gaussian(R) 09 system (copyright 2009, Gaussian, Inc.),
 the Gaussian(R) 03 system (copyright 2003, Gaussian, Inc.),
 the Gaussian(R) 98 system (copyright 1998, Gaussian, Inc.),
 the Gaussian(R) 94 system (copyright 1995, Gaussian, Inc.),
 the Gaussian 92(TM) system (copyright 1992, Gaussian, Inc.),
 the Gaussian 90(TM) system (copyright 1990, Gaussian, Inc.),
 the Gaussian 88(TM) system (copyright 1988, Gaussian, Inc.),
 the Gaussian 86(TM) system (copyright 1986, Carnegie Mellon
 University), and the Gaussian 82(TM) system (copyright 1983,
 Carnegie Mellon University). Gaussian is a federally registered
 trademark of Gaussian, Inc.
  
 This software contains proprietary and confidential information,
 including trade secrets, belonging to Gaussian, Inc.
  
 This software is provided under written license and may be
 used, copied, transmitted, or stored only in accord with that
 written license.
  
 The following legend is applicable only to US Government
 contracts under FAR:
  
                    RESTRICTED RIGHTS LEGEND
  
 Use, reproduction and disclosure by the US Government is
 subject to restrictions as set forth in subparagraphs (a)
 and (c) of the Commercial Computer Software - Restricted
 Rights clause in FAR 52.227-19.
  
 Gaussian, Inc.
 340 Quinnipiac St., Bldg. 40, Wallingford CT 06492
  
  
 ---------------------------------------------------------------
 Warning -- This program may not be used in any manner that
 competes with the business of Gaussian, Inc. or will provide
 assistance to any competitor of Gaussian, Inc.  The licensee
 of this program is prohibited from giving any competitor of
 Gaussian, Inc. access to this program.  By using this program,
 the user acknowledges that Gaussian, Inc. is engaged in the
 business of creating and licensing software in the field of
 computational chemistry and represents and warrants to the
 licensee that it is not a competitor of Gaussian, Inc. and that
 it will not use this program in any manner prohibited above.
 ---------------------------------------------------------------
  

 Cite this work as:
 Gaussian 16, Revision A.03,
 M. J. Frisch, G. W. Trucks, H. B. Schlegel, G. E. Scuseria, 
 M. A. Robb, J. R. Cheeseman, G. Scalmani, V. Barone, 
 G. A. Petersson, H. Nakatsuji, X. Li, M. Caricato, A. V. Marenich, 
 J. Bloino, B. G. Janesko, R. Gomperts, B. Mennucci, H. P. Hratchian, 
 J. V. Ortiz, A. F. Izmaylov, J. L. Sonnenberg, D. Williams-Young, 
 F. Ding, F. Lipparini, F. Egidi, J. Goings, B. Peng, A. Petrone, 
 T. Henderson, D. Ranasinghe, V. G. Zakrzewski, J. Gao, N. Rega, 
 G. Zheng, W. Liang, M. Hada, M. Ehara, K. Toyota, R. Fukuda, 
 J. Hasegawa, M. Ishida, T. Nakajima, Y. Honda, O. Kitao, H. Nakai, 
 T. Vreven, K. Throssell, J. A. Montgomery, Jr., J. E. Peralta, 
 F. Ogliaro, M. J. Bearpark, J. J. Heyd, E. N. Brothers, K. N. Kudin, 
 V. N. Staroverov, T. A. Keith, R. Kobayashi, J. Normand, 
 K. Raghavachari, A. P. Rendell, J. C. Burant, S. S. Iyengar, 
 J. Tomasi, M. Cossi, J. M. Millam, M. Klene, C. Adamo, R. Cammi, 
 J. W. Ochterski, R. L. Martin, K. Morokuma, O. Farkas, 
 J. B. Foresman, and D. J. Fox, Gaussian, Inc., Wallingford CT, 2016.
 
 ******************************************
 Gaussian 16:  ES64L-G16RevA.03 25-Dec-2016
                 3-Nov-2022 
 ******************************************
 %nprocs=8
 Will use up to    8 processors via shared memory.
 %mem=32000MB
 %chk=09_lig_b.chk
 ----------------------------------------------------------------------
 #p pop=(regular,nbo,savenbos) freq=noraman def2svp empiricaldispersion
 =gd3bj output=wfx pbe1pbe
 ----------------------------------------------------------------------
 1/10=4,30=1,38=1/1,3;
 2/12=2,17=6,18=5,40=1/2;
 3/5=43,7=101,11=2,25=1,30=1,71=2,74=-13,124=41,140=1/1,2,3;
 4//1;
 5/5=2,38=5,98=1/2;
 8/6=4,10=90,11=11/1;
 11/6=1,8=1,9=11,15=111,16=1/1,2,10;
 10/6=1/2;
 6/28=1,40=1,73=1/1,7;
 7/8=1,10=1,25=1/1,2,3,16;
 1/10=4,30=1/3;
 99/6=200/99;
 Leave Link    1 at Thu Nov  3 09:16:52 2022, MaxMem=  4194304000 cpu:               0.4 elap:               0.1
 (Enter /software/gaussian/G16-A.03/avx/g16/l101.exe)
 --------
 09_lig_b
 --------
 Symbolic Z-matrix:
 Charge =  0 Multiplicity = 1
 C                     3.25662  -0.94833  -1.12599 
 C                     2.83308  -0.10981   0.06342 
 H                     2.98458  -0.7023    0.97913 
 C                     3.48036   1.28556   0.14091 
 O                     2.36951   2.1997    0.1347 
 C                     1.25563   1.47195   0.04805 
 N                     1.39954   0.20631   0.00869 
 N                    -1.39979   0.20388  -0.01501 
 C                    -1.25805   1.46991  -0.04988 
 C                    -0.00202   2.29703   0.00279 
 C                    -0.05947   3.1714    1.27133 
 C                     0.05368   3.18412  -1.25683 
 O                    -2.37301   2.19596  -0.13639 
 C                    -3.48195   1.27962  -0.1551 
 C                    -2.83278  -0.11453  -0.07061 
 H                    -2.98263  -0.71153  -0.98358 
 C                    -3.25595  -0.94803   1.12259 
 H                     3.03189  -0.43599  -2.07471 
 H                     2.7273   -1.91137  -1.09339 
 H                     4.33749  -1.15071  -1.08234 
 H                     4.11264   1.51592  -0.72984 
 H                     4.05688   1.45827   1.06018 
 H                    -0.09558   2.546     2.17547 
 H                    -0.95643   3.80358   1.24372 
 H                     0.83189   3.80993   1.3211 
 H                     0.09101   2.56798  -2.16726 
 H                     0.94939   3.81772  -1.22295 
 H                    -0.83896   3.8213   -1.30027 
 H                    -4.04799   1.45114  -1.08117 
 H                    -4.1248    1.50892   0.70803 
 H                    -4.33627  -1.1532    1.07847 
 H                    -3.03377  -0.43034   2.06902 
 H                    -2.72426  -1.90994   1.09562 
 
 ITRead=  0  0  0  0  0  0  0  0  0  0  0  0  0  0  0  0  0  0  0  0
 ITRead=  0  0  0  0  0  0  0  0  0  0  0  0  0
 MicOpt= -1 -1 -1 -1 -1 -1 -1 -1 -1 -1 -1 -1 -1 -1 -1 -1 -1 -1 -1 -1
 MicOpt= -1 -1 -1 -1 -1 -1 -1 -1 -1 -1 -1 -1 -1
 NAtoms=     33 NQM=       33 NQMF=       0 NMMI=      0 NMMIF=      0
                NMic=       0 NMicF=      0.
                    Isotopes and Nuclear Properties:
 (Nuclear quadrupole moments (NQMom) in fm**2, nuclear magnetic moments (NMagM)
  in nuclear magnetons)

  Atom         1           2           3           4           5           6           7           8           9          10
 IAtWgt=          12          12           1          12          16          12          14          14          12          12
 AtmWgt=  12.0000000  12.0000000   1.0078250  12.0000000  15.9949146  12.0000000  14.0030740  14.0030740  12.0000000  12.0000000
 NucSpn=           0           0           1           0           0           0           2           2           0           0
 AtZEff=  -0.0000000  -0.0000000  -0.0000000  -0.0000000  -0.0000000  -0.0000000  -0.0000000  -0.0000000  -0.0000000  -0.0000000
 NQMom=    0.0000000   0.0000000   0.0000000   0.0000000   0.0000000   0.0000000   2.0440000   2.0440000   0.0000000   0.0000000
 NMagM=    0.0000000   0.0000000   2.7928460   0.0000000   0.0000000   0.0000000   0.4037610   0.4037610   0.0000000   0.0000000
 AtZNuc=   6.0000000   6.0000000   1.0000000   6.0000000   8.0000000   6.0000000   7.0000000   7.0000000   6.0000000   6.0000000

  Atom        11          12          13          14          15          16          17          18          19          20
 IAtWgt=          12          12          16          12          12           1          12           1           1           1
 AtmWgt=  12.0000000  12.0000000  15.9949146  12.0000000  12.0000000   1.0078250  12.0000000   1.0078250   1.0078250   1.0078250
 NucSpn=           0           0           0           0           0           1           0           1           1           1
 AtZEff=  -0.0000000  -0.0000000  -0.0000000  -0.0000000  -0.0000000  -0.0000000  -0.0000000  -0.0000000  -0.0000000  -0.0000000
 NQMom=    0.0000000   0.0000000   0.0000000   0.0000000   0.0000000   0.0000000   0.0000000   0.0000000   0.0000000   0.0000000
 NMagM=    0.0000000   0.0000000   0.0000000   0.0000000   0.0000000   2.7928460   0.0000000   2.7928460   2.7928460   2.7928460
 AtZNuc=   6.0000000   6.0000000   8.0000000   6.0000000   6.0000000   1.0000000   6.0000000   1.0000000   1.0000000   1.0000000

  Atom        21          22          23          24          25          26          27          28          29          30
 IAtWgt=           1           1           1           1           1           1           1           1           1           1
 AtmWgt=   1.0078250   1.0078250   1.0078250   1.0078250   1.0078250   1.0078250   1.0078250   1.0078250   1.0078250   1.0078250
 NucSpn=           1           1           1           1           1           1           1           1           1           1
 AtZEff=  -0.0000000  -0.0000000  -0.0000000  -0.0000000  -0.0000000  -0.0000000  -0.0000000  -0.0000000  -0.0000000  -0.0000000
 NQMom=    0.0000000   0.0000000   0.0000000   0.0000000   0.0000000   0.0000000   0.0000000   0.0000000   0.0000000   0.0000000
 NMagM=    2.7928460   2.7928460   2.7928460   2.7928460   2.7928460   2.7928460   2.7928460   2.7928460   2.7928460   2.7928460
 AtZNuc=   1.0000000   1.0000000   1.0000000   1.0000000   1.0000000   1.0000000   1.0000000   1.0000000   1.0000000   1.0000000

  Atom        31          32          33
 IAtWgt=           1           1           1
 AtmWgt=   1.0078250   1.0078250   1.0078250
 NucSpn=           1           1           1
 AtZEff=  -0.0000000  -0.0000000  -0.0000000
 NQMom=    0.0000000   0.0000000   0.0000000
 NMagM=    2.7928460   2.7928460   2.7928460
 AtZNuc=   1.0000000   1.0000000   1.0000000
 Leave Link  101 at Thu Nov  3 09:16:53 2022, MaxMem=  4194304000 cpu:               1.0 elap:               0.1
 (Enter /software/gaussian/G16-A.03/avx/g16/l103.exe)

 GradGradGradGradGradGradGradGradGradGradGradGradGradGradGradGradGradGrad
 Berny optimization.
 Initialization pass.
 Trust Radius=3.00D-01 FncErr=1.00D-07 GrdErr=1.00D-07 EigMax=2.50D+02 EigMin=1.00D-04
 Number of steps in this run=      2 maximum allowed number of steps=      2.
 GradGradGradGradGradGradGradGradGradGradGradGradGradGradGradGradGradGrad

 Leave Link  103 at Thu Nov  3 09:16:53 2022, MaxMem=  4194304000 cpu:               0.2 elap:               0.0
 (Enter /software/gaussian/G16-A.03/avx/g16/l202.exe)
                          Input orientation:                          
 ---------------------------------------------------------------------
 Center     Atomic      Atomic             Coordinates (Angstroms)
 Number     Number       Type             X           Y           Z
 ---------------------------------------------------------------------
      1          6           0        3.256620   -0.948330   -1.125990
      2          6           0        2.833080   -0.109810    0.063420
      3          1           0        2.984580   -0.702300    0.979130
      4          6           0        3.480360    1.285560    0.140910
      5          8           0        2.369510    2.199700    0.134700
      6          6           0        1.255630    1.471950    0.048050
      7          7           0        1.399540    0.206310    0.008690
      8          7           0       -1.399790    0.203880   -0.015010
      9          6           0       -1.258050    1.469910   -0.049880
     10          6           0       -0.002020    2.297030    0.002790
     11          6           0       -0.059470    3.171400    1.271330
     12          6           0        0.053680    3.184120   -1.256830
     13          8           0       -2.373010    2.195960   -0.136390
     14          6           0       -3.481950    1.279620   -0.155100
     15          6           0       -2.832780   -0.114530   -0.070610
     16          1           0       -2.982630   -0.711530   -0.983580
     17          6           0       -3.255950   -0.948030    1.122590
     18          1           0        3.031890   -0.435990   -2.074710
     19          1           0        2.727300   -1.911370   -1.093390
     20          1           0        4.337490   -1.150710   -1.082340
     21          1           0        4.112640    1.515920   -0.729840
     22          1           0        4.056880    1.458270    1.060180
     23          1           0       -0.095580    2.546000    2.175470
     24          1           0       -0.956430    3.803580    1.243720
     25          1           0        0.831890    3.809930    1.321100
     26          1           0        0.091010    2.567980   -2.167260
     27          1           0        0.949390    3.817720   -1.222950
     28          1           0       -0.838960    3.821300   -1.300270
     29          1           0       -4.047990    1.451140   -1.081170
     30          1           0       -4.124800    1.508920    0.708030
     31          1           0       -4.336270   -1.153200    1.078470
     32          1           0       -3.033770   -0.430340    2.069020
     33          1           0       -2.724260   -1.909940    1.095620
 ---------------------------------------------------------------------
                    Distance matrix (angstroms):
                    1          2          3          4          5
     1  C    0.000000
     2  C    1.515651   0.000000
     3  H    2.136836   1.101146   0.000000
     4  C    2.577860   1.540141   2.213594   0.000000
     5  O    3.505196   2.356653   3.084311   1.438638   0.000000
     6  C    3.352624   2.233954   2.929768   2.234455   1.333363
     7  N    2.463623   1.469001   2.068738   2.347781   2.220433
     8  N    4.923822   4.245202   4.586085   5.001021   4.267708
     9  C    5.233368   4.386992   4.876194   4.745831   3.704842
    10  C    4.735530   3.719455   4.343846   3.628928   2.377189
    11  C    5.806528   4.537866   4.935299   4.167090   2.852380
    12  C    5.230018   4.507560   5.356674   4.159368   2.875501
    13  O    6.523695   5.697357   6.192582   5.930233   4.750263
    14  C    7.163429   6.469766   6.857878   6.968602   5.930440
    15  C    6.236172   5.667447   5.940463   6.469987   5.697511
    16  H    6.245366   5.939761   6.281712   6.857338   6.194450
    17  C    6.889824   6.237046   6.247014   7.164530   6.521498
    18  H    1.101393   2.171985   3.065795   2.841449   3.502442
    19  H    1.099404   2.143599   2.413169   3.508697   4.305475
    20  H    1.100519   2.158585   2.506211   2.857696   4.071778
    21  H    2.638604   2.215747   3.018874   1.100477   2.062398
    22  H    3.348355   2.224880   2.413392   1.098754   2.062389
    23  H    5.860651   4.482313   4.633580   4.302963   3.218903
    24  H    6.778345   5.573878   5.992038   5.219360   3.855416
    25  H    5.874402   4.577213   5.011111   3.844436   2.522828
    26  H    4.844560   4.434573   5.382123   4.296504   3.259787
    27  H    5.296031   4.541864   5.424181   3.831156   2.545180
    28  H    6.289159   5.549518   6.346501   5.211862   3.870789
    29  H    7.688745   7.148131   7.638009   7.628693   6.574419
    30  H    7.992939   7.172719   7.450253   7.629546   6.556062
    31  H    7.909083   7.315639   7.335395   8.241740   7.556463
    32  H    7.074278   6.208470   6.122284   7.006840   6.313013
    33  H    6.452222   5.932110   5.836336   7.044147   6.615059
                    6          7          8          9         10
     6  C    0.000000
     7  N    1.274403   0.000000
     8  N    2.943337   2.799431   0.000000
     9  C    2.515588   2.943280   1.274417   0.000000
    10  C    1.504822   2.517045   2.517013   1.504830   0.000000
    11  C    2.472657   3.537616   3.501043   2.465210   1.541758
    12  C    2.465547   3.504316   3.540695   2.473030   1.541646
    13  O    3.704759   4.267539   2.220422   1.333330   2.377221
    14  C    4.745832   5.000777   2.347814   2.234505   3.629045
    15  C    4.387037   4.245204   1.468992   2.233977   3.719437
    16  H    4.877980   4.585896   2.069175   2.933369   4.348378
    17  C    5.231185   4.924110   2.462998   3.348541   4.729950
    18  H    3.361762   2.723540   4.928649   5.112336   4.581486
    19  H    3.862066   2.731684   4.761308   5.329632   5.134338
    20  H    4.201665   3.415172   5.990867   6.264478   5.647634
    21  H    2.961343   3.101841   5.711332   5.413758   4.251742
    22  H    2.978522   3.120015   5.701296   5.429627   4.277413
    23  H    2.739574   3.521998   3.461891   2.731573   2.188899
    24  H    3.429189   4.473952   3.839116   2.685217   2.172671
    25  H    2.695619   3.876948   4.446255   3.423906   2.173065
    26  H    2.732255   3.467635   3.527553   2.740259   2.188878
    27  H    2.685491   3.842116   4.476338   3.429445   2.172583
    28  H    3.424138   4.448866   3.879710   2.695950   2.172978
    29  H    5.422541   5.693240   3.115336   2.974504   4.273216
    30  H    5.420883   5.718759   3.106702   2.965502   4.256265
    31  H    6.262789   5.991011   3.414715   4.198728   5.643306
    32  H    5.109010   4.929962   2.723106   3.354679   4.571582
    33  H    5.326735   4.760846   2.730559   3.858151   5.128690
                   11         12         13         14         15
    11  C    0.000000
    12  C    2.530723   0.000000
    13  O    2.878476   2.849679   0.000000
    14  C    4.162560   4.164326   1.438672   0.000000
    15  C    4.504374   4.540910   2.356709   1.540199   0.000000
    16  H    5.357857   4.946709   3.089153   2.213680   1.101080
    17  C    5.216255   5.804305   3.499898   2.577982   1.515758
    18  H    5.810831   4.758556   6.316422   7.004165   6.205974
    19  H    6.260394   5.756646   6.618094   7.043976   5.932049
    20  H    6.599519   6.096903   7.558163   8.240748   7.315056
    21  H    4.914448   4.419928   6.548152   7.619971   7.164622
    22  H    4.463601   4.936872   6.581751   7.638245   7.156801
    23  H    1.099954   3.494304   3.264033   4.301485   4.428946
    24  H    1.097703   2.767093   2.548695   3.834752   4.538693
    25  H    1.097597   2.764593   3.873056   5.214485   5.546895
    26  H    3.494376   1.099957   3.214689   4.298221   4.487800
    27  H    2.767121   1.097676   3.853448   5.217186   5.576315
    28  H    2.764616   1.097584   2.519852   3.841477   4.580190
    29  H    4.939822   4.456206   2.062262   1.098829   2.224700
    30  H    4.428098   4.911890   2.062483   1.100376   2.216120
    31  H    6.085259   6.598305   4.067819   2.858351   2.158634
    32  H    4.738702   5.801547   3.492548   2.841045   2.172130
    33  H    5.740383   6.261024   4.301121   3.508801   2.143680
                   16         17         18         19         20
    16  H    0.000000
    17  C    2.136958   0.000000
    18  H    6.118900   7.072612   0.000000
    19  H    5.835664   6.452741   1.797918   0.000000
    20  H    7.333948   7.909686   1.788914   1.780853   0.000000
    21  H    7.441020   7.987407   2.605120   3.714519   2.699209
    22  H    7.644586   7.698809   3.803467   4.214276   3.387611
    23  H    5.378304   4.827498   6.061135   6.206629   6.628054
    24  H    5.427022   5.280176   6.700196   7.189757   7.614534
    25  H    6.348678   6.275988   5.865097   6.492736   6.532511
    26  H    4.647962   5.864092   4.204899   5.307334   5.747895
    27  H    6.002681   6.774866   4.812105   6.000018   6.015338
    28  H    5.024158   5.870145   5.805838   6.754592   7.180809
    29  H    2.412811   3.352596   7.394125   7.563807   8.779858
    30  H    3.016040   2.638819   7.921144   7.867323   9.049277
    31  H    2.505886   1.100515   8.046534   7.428716   8.938860
    32  H    3.065950   1.101407   7.345935   6.736781   8.048943
    33  H    2.413714   1.099406   6.734745   5.874630   7.428880
                   21         22         23         24         25
    21  H    0.000000
    22  H    1.791816   0.000000
    23  H    5.216417   4.435082   0.000000
    24  H    5.901169   5.537819   1.786261   0.000000
    25  H    4.498017   3.999868   1.785404   1.790005   0.000000
    26  H    4.398467   5.232203   4.346792   3.776059   3.776241
    27  H    3.943043   4.520639   3.776042   3.117180   2.546774
    28  H    5.491676   5.926625   3.776211   2.546762   3.108609
    29  H    8.168446   8.382980   5.236981   4.527343   5.928577
    30  H    8.361994   8.189412   4.411749   3.948544   5.499025
    31  H    9.043134   8.790056   5.733319   6.001691   7.169477
    32  H    7.917874   7.406884   4.183646   4.787749   5.786415
    33  H    7.862062   7.571655   5.285020   5.982597   6.738988
                   26         27         28         29         30
    26  H    0.000000
    27  H    1.786166   0.000000
    28  H    1.785309   1.790024   0.000000
    29  H    4.422470   5.531239   3.995439   0.000000
    30  H    5.211713   5.899716   4.491894   1.791780   0.000000
    31  H    6.631949   7.612147   6.529566   3.395547   2.696076
    32  H    6.058072   6.689443   5.851987   3.806876   2.608327
    33  H    6.214813   7.188711   6.491668   4.217527   3.714881
                   31         32         33
    31  H    0.000000
    32  H    1.788916   0.000000
    33  H    1.780878   1.797921   0.000000
 Stoichiometry    C11H18N2O2
 Framework group  C1[X(C11H18N2O2)]
 Deg. of freedom    93
 Full point group                 C1      NOp   1
 Largest Abelian subgroup         C1      NOp   1
 Largest concise Abelian subgroup C1      NOp   1
                         Standard orientation:                         
 ---------------------------------------------------------------------
 Center     Atomic      Atomic             Coordinates (Angstroms)
 Number     Number       Type             X           Y           Z
 ---------------------------------------------------------------------
      1          6           0       -3.339173    2.075497   -0.845797
      2          6           0       -2.818325    1.234687    0.302660
      3          1           0       -2.892736    1.825536    1.228879
      4          6           0       -3.457471   -0.160654    0.431307
      5          8           0       -2.351381   -1.075071    0.330888
      6          6           0       -1.248297   -0.347454    0.153020
      7          7           0       -1.394464    0.918294    0.128076
      8          7           0        1.393153    0.920036   -0.128840
      9          6           0        1.248477   -0.345891   -0.154062
     10          6           0        0.000865   -1.172778    0.001612
     11          6           0        0.163476   -2.049487    1.259370
     12          6           0       -0.159987   -2.057542   -1.250583
     13          8           0        2.352048   -1.072072   -0.334505
     14          6           0        3.455949   -0.155989   -0.443917
     15          6           0        2.816655    1.238173   -0.303101
     16          1           0        2.890142    1.836807   -1.224304
     17          6           0        3.338140    2.069374    0.852183
     18          1           0       -3.194504    1.564839   -1.810869
     19          1           0       -2.808579    3.038337   -0.855686
     20          1           0       -4.412561    2.278079   -0.711851
     21          1           0       -4.160216   -0.389252   -0.384132
     22          1           0       -3.955443   -0.334898    1.395114
     23          1           0        0.275071   -1.425756    2.158483
     24          1           0        1.054753   -2.681850    1.155960
     25          1           0       -0.720899   -2.687875    1.382102
     26          1           0       -0.272809   -1.439724   -2.153620
     27          1           0       -1.050019   -2.690970   -1.143314
     28          1           0        0.725664   -2.694875   -1.369417
     29          1           0        3.942769   -0.325958   -1.414248
     30          1           0        4.168403   -0.387039    0.362218
     31          1           0        4.411109    2.274342    0.718551
     32          1           0        3.195397    1.550007    1.812901
     33          1           0        2.806450    3.031470    0.871356
 ---------------------------------------------------------------------
 Rotational constants (GHZ):           1.0217545           0.3962816           0.3213729
 Leave Link  202 at Thu Nov  3 09:16:53 2022, MaxMem=  4194304000 cpu:               0.1 elap:               0.0
 (Enter /software/gaussian/G16-A.03/avx/g16/l301.exe)
 Standard basis: def2SVP (5D, 7F)
 Ernie: Thresh=  0.10000D-02 Tol=  0.10000D-05 Strict=F.
 There are   315 symmetry adapted cartesian basis functions of A   symmetry.
 There are   300 symmetry adapted basis functions of A   symmetry.
   300 basis functions,   501 primitive gaussians,   315 cartesian basis functions
    57 alpha electrons       57 beta electrons
       nuclear repulsion energy      1073.0874394713 Hartrees.
 IExCor= 1009 DFT=T Ex+Corr=PBE1PBE ExCW=0 ScaHFX=  0.250000
 ScaDFX=  0.750000  0.750000  1.000000  1.000000 ScalE2=  1.000000  1.000000
 IRadAn=      5 IRanWt=     -1 IRanGd=            0 ICorTp=0 IEmpDi=141
 NAtoms=   33 NActive=   33 NUniq=   33 SFac= 1.00D+00 NAtFMM=   60 NAOKFM=F Big=F
 Integral buffers will be    131072 words long.
 Raffenetti 2 integral format.
 Two-electron integral symmetry is turned on.
 R6Disp:  Grimme-D3(BJ) Dispersion energy=       -0.0305579970 Hartrees.
 Nuclear repulsion after empirical dispersion term =     1073.0568814743 Hartrees.
 Leave Link  301 at Thu Nov  3 09:16:53 2022, MaxMem=  4194304000 cpu:               0.6 elap:               0.1
 (Enter /software/gaussian/G16-A.03/avx/g16/l302.exe)
 NPDir=0 NMtPBC=     1 NCelOv=     1 NCel=       1 NClECP=     1 NCelD=      1
         NCelK=      1 NCelE2=     1 NClLst=     1 CellRange=     0.0.
 One-electron integrals computed using PRISM.
 One-electron integral symmetry used in STVInt
   1 Symmetry operations used in ECPInt.
 ECPInt:  NShTT=   10440 NPrTT=   36834 LenC2=    9896 LenP2D=   25444.
 LDataN:  DoStor=T MaxTD1= 4 Len=   56
 NBasis=   300 RedAO= T EigKep=  6.21D-04  NBF=   300
 NBsUse=   300 1.00D-06 EigRej= -1.00D+00 NBFU=   300
 Precomputing XC quadrature grid using
 IXCGrd= 4 IRadAn=           5 IRanWt=          -1 IRanGd=           0 AccXCQ= 0.00D+00.
 Generated NRdTot=       0 NPtTot=           0 NUsed=           0 NTot=          32
 NSgBfM=   314   314   314   314   314 MxSgAt=    33 MxSgA2=    33.
 Leave Link  302 at Thu Nov  3 09:16:53 2022, MaxMem=  4194304000 cpu:               4.7 elap:               0.6
 (Enter /software/gaussian/G16-A.03/avx/g16/l303.exe)
 DipDrv:  MaxL=1.
 Leave Link  303 at Thu Nov  3 09:16:53 2022, MaxMem=  4194304000 cpu:               0.4 elap:               0.1
 (Enter /software/gaussian/G16-A.03/avx/g16/l401.exe)
 ExpMin= 1.22D-01 ExpMax= 2.27D+03 ExpMxC= 3.41D+02 IAcc=3 IRadAn=         5 AccDes= 0.00D+00
 Harris functional with IExCor= 1009 and IRadAn=       5 diagonalized for initial guess.
 HarFok:  IExCor= 1009 AccDes= 0.00D+00 IRadAn=         5 IDoV= 1 UseB2=F ITyADJ=14
 ICtDFT=  3500011 ScaDFX=  1.000000  1.000000  1.000000  1.000000
 FoFCou: FMM=F IPFlag=           0 FMFlag=      100000 FMFlg1=           0
         NFxFlg=           0 DoJE=T BraDBF=F KetDBF=T FulRan=T
         wScrn=  0.000000 ICntrl=       500 IOpCl=  0 I1Cent=   200000004 NGrid=           0
         NMat0=    1 NMatS0=      1 NMatT0=    0 NMatD0=    1 NMtDS0=    0 NMtDT0=    0
 Petite list used in FoFCou.
 Harris En= -688.842413009302    
 JPrj=0 DoOrth=F DoCkMO=F.
 Leave Link  401 at Thu Nov  3 09:16:56 2022, MaxMem=  4194304000 cpu:              24.2 elap:               3.1
 (Enter /software/gaussian/G16-A.03/avx/g16/l502.exe)
 Integral symmetry usage will be decided dynamically.
 Closed shell SCF:
 Using DIIS extrapolation, IDIIS=  1040.
 NGot=  4194304000 LenX=  4194099501 LenY=  4193999835
 Requested convergence on RMS density matrix=1.00D-08 within 128 cycles.
 Requested convergence on MAX density matrix=1.00D-06.
 Requested convergence on             energy=1.00D-06.
 No special actions if energy rises.
 Fock matrices will be formed incrementally for  20 cycles.
 Integral accuracy reduced to 1.0D-05 until final iterations.

 Cycle   1  Pass 0  IDiag  1:
 FoFJK:  IHMeth= 1 ICntrl=       0 DoSepK=F KAlg= 0 I1Cent=           0 FoldK=F
 IRaf= 890000000 NMat=       1 IRICut=       1 DoRegI=T DoRafI=F ISym2E= 0 IDoP0=0 IntGTp=1.
 FoFCou: FMM=F IPFlag=           0 FMFlag=      100000 FMFlg1=           0
         NFxFlg=           0 DoJE=F BraDBF=F KetDBF=F FulRan=T
         wScrn=  0.000000 ICntrl=         0 IOpCl=  0 I1Cent=           0 NGrid=           0
         NMat0=    1 NMatS0=      1 NMatT0=    0 NMatD0=    1 NMtDS0=    0 NMtDT0=    0
 Symmetry not used in FoFCou.
 E= -688.350288827155    
 DIIS: error= 2.19D-02 at cycle   1 NSaved=   1.
 NSaved= 1 IEnMin= 1 EnMin= -688.350288827155     IErMin= 1 ErrMin= 2.19D-02
 ErrMax= 2.19D-02  0.00D+00 EMaxC= 1.00D-01 BMatC= 3.14D-01 BMatP= 3.14D-01
 IDIUse=3 WtCom= 7.81D-01 WtEn= 2.19D-01
 Coeff-Com:  0.100D+01
 Coeff-En:   0.100D+01
 Coeff:      0.100D+01
 Gap=     0.265 Goal=   None    Shift=    0.000
 GapD=    0.265 DampG=1.000 DampE=0.500 DampFc=0.5000 IDamp=-1.
 Damping current iteration by 5.00D-01
 RMSDP=5.08D-03 MaxDP=2.58D-01              OVMax= 2.47D-01

 Cycle   2  Pass 0  IDiag  1:
 RMSU=  2.54D-03    CP:  9.93D-01
 E= -688.485525783607     Delta-E=       -0.135236956452 Rises=F Damp=T
 DIIS: error= 7.50D-03 at cycle   2 NSaved=   2.
 NSaved= 2 IEnMin= 2 EnMin= -688.485525783607     IErMin= 2 ErrMin= 7.50D-03
 ErrMax= 7.50D-03  0.00D+00 EMaxC= 1.00D-01 BMatC= 2.81D-02 BMatP= 3.14D-01
 IDIUse=3 WtCom= 9.25D-01 WtEn= 7.50D-02
 Coeff-Com:  0.103D+00 0.897D+00
 Coeff-En:   0.161D+00 0.839D+00
 Coeff:      0.107D+00 0.893D+00
 Gap=     0.311 Goal=   None    Shift=    0.000
 RMSDP=1.54D-03 MaxDP=5.00D-02 DE=-1.35D-01 OVMax= 2.01D-01

 Cycle   3  Pass 0  IDiag  1:
 RMSU=  1.43D-03    CP:  9.85D-01  7.84D-01
 E= -688.640380166828     Delta-E=       -0.154854383221 Rises=F Damp=F
 DIIS: error= 1.15D-02 at cycle   3 NSaved=   3.
 NSaved= 3 IEnMin= 3 EnMin= -688.640380166828     IErMin= 2 ErrMin= 7.50D-03
 ErrMax= 1.15D-02  0.00D+00 EMaxC= 1.00D-01 BMatC= 4.03D-02 BMatP= 2.81D-02
 IDIUse=2 WtCom= 0.00D+00 WtEn= 1.00D+00
 Coeff-En:   0.000D+00 0.000D+00 0.100D+01
 Coeff:      0.000D+00 0.000D+00 0.100D+01
 Gap=     0.269 Goal=   None    Shift=    0.000
 RMSDP=2.42D-03 MaxDP=1.13D-01 DE=-1.55D-01 OVMax= 2.01D-01

 Cycle   4  Pass 0  IDiag  1:
 RMSU=  1.23D-03    CP:  9.97D-01  1.30D+00 -1.24D-01
 E= -688.499303856248     Delta-E=        0.141076310580 Rises=F Damp=F
 DIIS: error= 2.52D-02 at cycle   4 NSaved=   4.
 NSaved= 4 IEnMin= 3 EnMin= -688.640380166828     IErMin= 2 ErrMin= 7.50D-03
 ErrMax= 2.52D-02  0.00D+00 EMaxC= 1.00D-01 BMatC= 1.98D-01 BMatP= 2.81D-02
 IDIUse=2 WtCom= 0.00D+00 WtEn= 1.00D+00
 Coeff-En:   0.000D+00 0.000D+00 0.776D+00 0.224D+00
 Coeff:      0.000D+00 0.000D+00 0.776D+00 0.224D+00
 Gap=     0.260 Goal=   None    Shift=    0.000
 RMSDP=1.31D-03 MaxDP=7.52D-02 DE= 1.41D-01 OVMax= 1.01D-01

 Cycle   5  Pass 0  IDiag  1:
 RMSU=  1.59D-04    CP:  9.91D-01  9.80D-01  4.38D-01  5.01D-01
 E= -688.664555010046     Delta-E=       -0.165251153798 Rises=F Damp=F
 DIIS: error= 6.71D-03 at cycle   5 NSaved=   5.
 NSaved= 5 IEnMin= 5 EnMin= -688.664555010046     IErMin= 5 ErrMin= 6.71D-03
 ErrMax= 6.71D-03  0.00D+00 EMaxC= 1.00D-01 BMatC= 1.38D-02 BMatP= 2.81D-02
 IDIUse=3 WtCom= 9.33D-01 WtEn= 6.71D-02
 Coeff-Com: -0.639D-02 0.223D-01 0.246D+00-0.125D+00 0.864D+00
 Coeff-En:   0.000D+00 0.000D+00 0.302D+00 0.000D+00 0.698D+00
 Coeff:     -0.596D-02 0.208D-01 0.250D+00-0.117D+00 0.852D+00
 Gap=     0.277 Goal=   None    Shift=    0.000
 RMSDP=4.37D-04 MaxDP=2.13D-02 DE=-1.65D-01 OVMax= 3.55D-02

 Cycle   6  Pass 0  IDiag  1:
 RMSU=  3.28D-05    CP:  9.89D-01  8.96D-01  6.42D-01  3.08D-01  9.25D-01
 E= -688.676829496071     Delta-E=       -0.012274486025 Rises=F Damp=F
 DIIS: error= 1.15D-04 at cycle   6 NSaved=   6.
 NSaved= 6 IEnMin= 6 EnMin= -688.676829496071     IErMin= 6 ErrMin= 1.15D-04
 ErrMax= 1.15D-04  0.00D+00 EMaxC= 1.00D-01 BMatC= 8.24D-06 BMatP= 1.38D-02
 IDIUse=3 WtCom= 9.99D-01 WtEn= 1.15D-03
 Coeff-Com: -0.274D-02 0.567D-02 0.751D-01-0.475D-01 0.310D+00 0.660D+00
 Coeff-En:   0.000D+00 0.000D+00 0.000D+00 0.000D+00 0.000D+00 0.100D+01
 Coeff:     -0.274D-02 0.566D-02 0.750D-01-0.474D-01 0.310D+00 0.660D+00
 Gap=     0.276 Goal=   None    Shift=    0.000
 RMSDP=1.28D-05 MaxDP=8.83D-04 DE=-1.23D-02 OVMax= 8.23D-04

 Cycle   7  Pass 0  IDiag  1:
 RMSU=  6.48D-06    CP:  9.89D-01  8.98D-01  6.39D-01  3.12D-01  9.27D-01
                    CP:  8.03D-01
 E= -688.676836371484     Delta-E=       -0.000006875413 Rises=F Damp=F
 DIIS: error= 3.43D-05 at cycle   7 NSaved=   7.
 NSaved= 7 IEnMin= 7 EnMin= -688.676836371484     IErMin= 7 ErrMin= 3.43D-05
 ErrMax= 3.43D-05  0.00D+00 EMaxC= 1.00D-01 BMatC= 5.73D-07 BMatP= 8.24D-06
 IDIUse=1 WtCom= 1.00D+00 WtEn= 0.00D+00
 Coeff-Com: -0.672D-03 0.861D-03 0.189D-01-0.128D-01 0.814D-01 0.277D+00
 Coeff-Com:  0.635D+00
 Coeff:     -0.672D-03 0.861D-03 0.189D-01-0.128D-01 0.814D-01 0.277D+00
 Coeff:      0.635D+00
 Gap=     0.276 Goal=   None    Shift=    0.000
 RMSDP=3.77D-06 MaxDP=1.12D-04 DE=-6.88D-06 OVMax= 1.31D-04

 Initial convergence to 1.0D-05 achieved.  Increase integral accuracy.
 Cycle   8  Pass 1  IDiag  1:
 E= -688.676869174851     Delta-E=       -0.000032803367 Rises=F Damp=F
 DIIS: error= 6.61D-05 at cycle   1 NSaved=   1.
 NSaved= 1 IEnMin= 1 EnMin= -688.676869174851     IErMin= 1 ErrMin= 6.61D-05
 ErrMax= 6.61D-05  0.00D+00 EMaxC= 1.00D-01 BMatC= 3.86D-07 BMatP= 3.86D-07
 IDIUse=1 WtCom= 1.00D+00 WtEn= 0.00D+00
 Coeff-Com:  0.100D+01
 Coeff:      0.100D+01
 Gap=     0.277 Goal=   None    Shift=    0.000
 RMSDP=3.77D-06 MaxDP=1.12D-04 DE=-3.28D-05 OVMax= 1.31D-04

 Cycle   9  Pass 1  IDiag  1:
 RMSU=  2.85D-05    CP:  1.00D+00
 E= -688.676869477066     Delta-E=       -0.000000302215 Rises=F Damp=F
 DIIS: error= 1.72D-05 at cycle   2 NSaved=   2.
 NSaved= 2 IEnMin= 2 EnMin= -688.676869477066     IErMin= 2 ErrMin= 1.72D-05
 ErrMax= 1.72D-05  0.00D+00 EMaxC= 1.00D-01 BMatC= 7.34D-08 BMatP= 3.86D-07
 IDIUse=1 WtCom= 1.00D+00 WtEn= 0.00D+00
 Coeff-Com:  0.211D+00 0.789D+00
 Coeff:      0.211D+00 0.789D+00
 Gap=     0.276 Goal=   None    Shift=    0.000
 RMSDP=2.40D-06 MaxDP=1.90D-04 DE=-3.02D-07 OVMax= 1.36D-04

 Cycle  10  Pass 1  IDiag  1:
 RMSU=  2.31D-06    CP:  1.00D+00  1.02D+00
 E= -688.676869446333     Delta-E=        0.000000030733 Rises=F Damp=F
 DIIS: error= 2.00D-05 at cycle   3 NSaved=   3.
 NSaved= 3 IEnMin= 2 EnMin= -688.676869477066     IErMin= 2 ErrMin= 1.72D-05
 ErrMax= 2.00D-05  0.00D+00 EMaxC= 1.00D-01 BMatC= 1.08D-07 BMatP= 7.34D-08
 IDIUse=1 WtCom= 1.00D+00 WtEn= 0.00D+00
 Coeff-Com:  0.844D-03 0.549D+00 0.450D+00
 Coeff:      0.844D-03 0.549D+00 0.450D+00
 Gap=     0.277 Goal=   None    Shift=    0.000
 RMSDP=1.36D-06 MaxDP=8.99D-05 DE= 3.07D-08 OVMax= 9.61D-05

 Cycle  11  Pass 1  IDiag  1:
 RMSU=  4.85D-07    CP:  1.00D+00  1.02D+00  4.61D-01
 E= -688.676869538965     Delta-E=       -0.000000092632 Rises=F Damp=F
 DIIS: error= 4.76D-06 at cycle   4 NSaved=   4.
 NSaved= 4 IEnMin= 4 EnMin= -688.676869538965     IErMin= 4 ErrMin= 4.76D-06
 ErrMax= 4.76D-06  0.00D+00 EMaxC= 1.00D-01 BMatC= 4.15D-09 BMatP= 7.34D-08
 IDIUse=1 WtCom= 1.00D+00 WtEn= 0.00D+00
 Coeff-Com: -0.512D-02 0.335D+00 0.293D+00 0.377D+00
 Coeff:     -0.512D-02 0.335D+00 0.293D+00 0.377D+00
 Gap=     0.276 Goal=   None    Shift=    0.000
 RMSDP=2.77D-07 MaxDP=7.96D-06 DE=-9.26D-08 OVMax= 1.76D-05

 Cycle  12  Pass 1  IDiag  1:
 RMSU=  1.12D-07    CP:  1.00D+00  1.02D+00  4.73D-01  4.83D-01
 E= -688.676869542660     Delta-E=       -0.000000003695 Rises=F Damp=F
 DIIS: error= 3.82D-07 at cycle   5 NSaved=   5.
 NSaved= 5 IEnMin= 5 EnMin= -688.676869542660     IErMin= 5 ErrMin= 3.82D-07
 ErrMax= 3.82D-07  0.00D+00 EMaxC= 1.00D-01 BMatC= 4.73D-11 BMatP= 4.15D-09
 IDIUse=1 WtCom= 1.00D+00 WtEn= 0.00D+00
 Coeff-Com: -0.256D-02 0.141D+00 0.124D+00 0.183D+00 0.556D+00
 Coeff:     -0.256D-02 0.141D+00 0.124D+00 0.183D+00 0.556D+00
 Gap=     0.276 Goal=   None    Shift=    0.000
 RMSDP=2.62D-08 MaxDP=9.09D-07 DE=-3.69D-09 OVMax= 7.59D-07

 Cycle  13  Pass 1  IDiag  1:
 RMSU=  2.54D-08    CP:  1.00D+00  1.02D+00  4.73D-01  4.73D-01  9.74D-01
 E= -688.676869542687     Delta-E=       -0.000000000027 Rises=F Damp=F
 DIIS: error= 5.86D-08 at cycle   6 NSaved=   6.
 NSaved= 6 IEnMin= 6 EnMin= -688.676869542687     IErMin= 6 ErrMin= 5.86D-08
 ErrMax= 5.86D-08  0.00D+00 EMaxC= 1.00D-01 BMatC= 2.66D-12 BMatP= 4.73D-11
 IDIUse=1 WtCom= 1.00D+00 WtEn= 0.00D+00
 Coeff-Com: -0.250D-03 0.793D-02 0.631D-02 0.231D-01 0.187D+00 0.776D+00
 Coeff:     -0.250D-03 0.793D-02 0.631D-02 0.231D-01 0.187D+00 0.776D+00
 Gap=     0.276 Goal=   None    Shift=    0.000
 RMSDP=9.07D-09 MaxDP=2.57D-07 DE=-2.66D-11 OVMax= 2.74D-07

 SCF Done:  E(RPBE1PBE) =  -688.676869543     A.U. after   13 cycles
            NFock= 13  Conv=0.91D-08     -V/T= 2.0097
 KE= 6.820472286051D+02 PE=-3.748640598426D+03 EE= 1.304859618804D+03
 Leave Link  502 at Thu Nov  3 09:17:53 2022, MaxMem=  4194304000 cpu:             452.3 elap:              56.6
 (Enter /software/gaussian/G16-A.03/avx/g16/l801.exe)
 DoSCS=F DFT=T ScalE2(SS,OS)=  1.000000  1.000000
 Range of M.O.s used for correlation:     1   300
 NBasis=   300 NAE=    57 NBE=    57 NFC=     0 NFV=     0
 NROrb=    300 NOA=    57 NOB=    57 NVA=   243 NVB=   243

 **** Warning!!: The largest alpha MO coefficient is  0.14599102D+02

 Leave Link  801 at Thu Nov  3 09:17:53 2022, MaxMem=  4194304000 cpu:               0.2 elap:               0.0
 (Enter /software/gaussian/G16-A.03/avx/g16/l1101.exe)
 Using compressed storage, NAtomX=    33.
 Will process     34 centers per pass.
   1 Symmetry operations used in ECPInt.
 ECPInt:  NShTT=   10440 NPrTT=   36834 LenC2=    9896 LenP2D=   25444.
 LDataN:  DoStor=T MaxTD1= 5 Len=  102
 R6Disp: Adding Grimme-D3(BJ) dispersion energy 1st derivatives to the gradient.
 Leave Link 1101 at Thu Nov  3 09:17:54 2022, MaxMem=  4194304000 cpu:               4.0 elap:               0.5
 (Enter /software/gaussian/G16-A.03/avx/g16/l1102.exe)
 Symmetrizing basis deriv contribution to polar:
 IMax=3 JMax=2 DiffMx= 0.00D+00
 Leave Link 1102 at Thu Nov  3 09:17:54 2022, MaxMem=  4194304000 cpu:               0.4 elap:               0.1
 (Enter /software/gaussian/G16-A.03/avx/g16/l1110.exe)
 Forming Gx(P) for the SCF density, NAtomX=    33.
 Integral derivatives from FoFJK, PRISM(SPDF).
 Do as many integral derivatives as possible in FoFJK.
 G2DrvN: MDV=    4194301488.
 G2DrvN: will do    34 centers at a time, making    1 passes.
 Calling FoFCou, ICntrl=  3107 FMM=F I1Cent=   0 AccDes= 0.00D+00.
 FoFJK:  IHMeth= 1 ICntrl=    3107 DoSepK=F KAlg= 0 I1Cent=           0 FoldK=F
 IRaf=         0 NMat=       1 IRICut=       1 DoRegI=T DoRafI=F ISym2E= 0 IDoP0=0 IntGTp=1.
 FoFCou: FMM=F IPFlag=           0 FMFlag=      100000 FMFlg1=           0
         NFxFlg=           0 DoJE=F BraDBF=F KetDBF=F FulRan=T
         wScrn=  0.000000 ICntrl=      3107 IOpCl=  0 I1Cent=           0 NGrid=           0
         NMat0=    1 NMatS0=      1 NMatT0=    0 NMatD0=    1 NMtDS0=    0 NMtDT0=    0
 Symmetry not used in FoFCou.
 End of G2Drv F.D. properties file   721 does not exist.
 End of G2Drv F.D. properties file   722 does not exist.
 End of G2Drv F.D. properties file   788 does not exist.
 Leave Link 1110 at Thu Nov  3 09:21:19 2022, MaxMem=  4194304000 cpu:            1639.3 elap:             205.0
 (Enter /software/gaussian/G16-A.03/avx/g16/l1002.exe)
 Minotr:  Closed shell wavefunction.
          IDoAtm=111111111111111111111111111111111
          Direct CPHF calculation.
          Differentiating once with respect to electric field.
                with respect to dipole field.
          Differentiating once with respect to nuclear coordinates.
          Requested convergence is 1.0D-08 RMS, and 1.0D-07 maximum.
          Secondary convergence is 1.0D-12 RMS, and 1.0D-12 maximum.
          NewPWx=T KeepS1=F KeepF1=F KeepIn=T MapXYZ=F SortEE=F KeepMc=T.
         9975 words used for storage of precomputed grid.
 Keep R1 ints in memory in canonical form, NReq=1035076632.
 FoFCou: FMM=F IPFlag=           0 FMFlag=           0 FMFlg1=           0
         NFxFlg=           0 DoJE=F BraDBF=F KetDBF=F FulRan=T
         wScrn=  0.000000 ICntrl=       600 IOpCl=  0 I1Cent=           0 NGrid=           0
         NMat0=    1 NMatS0=  45150 NMatT0=    0 NMatD0=    1 NMtDS0=    0 NMtDT0=    0
 Symmetry not used in FoFCou.
 Two-electron integral symmetry not used.
          MDV=    4194304000 using IRadAn=       1.
          Solving linear equations simultaneously, MaxMat=       0.
          There are   102 degrees of freedom in the 1st order CPHF.  IDoFFX=6 NUNeed=     3.
     99 vectors produced by pass  0 Test12= 1.39D-14 1.00D-09 XBig12= 1.07D+02 4.68D+00.
 AX will form    99 AO Fock derivatives at one time.
     99 vectors produced by pass  1 Test12= 1.39D-14 1.00D-09 XBig12= 4.14D+01 1.24D+00.
     99 vectors produced by pass  2 Test12= 1.39D-14 1.00D-09 XBig12= 4.36D-01 7.41D-02.
     99 vectors produced by pass  3 Test12= 1.39D-14 1.00D-09 XBig12= 2.10D-03 3.49D-03.
     99 vectors produced by pass  4 Test12= 1.39D-14 1.00D-09 XBig12= 4.60D-06 2.37D-04.
     71 vectors produced by pass  5 Test12= 1.39D-14 1.00D-09 XBig12= 5.59D-09 8.23D-06.
     14 vectors produced by pass  6 Test12= 1.39D-14 1.00D-09 XBig12= 6.60D-12 2.56D-07.
      3 vectors produced by pass  7 Test12= 1.39D-14 1.00D-09 XBig12= 6.92D-15 7.42D-09.
 InvSVY:  IOpt=1 It=  1 EMax= 8.88D-15
 Solved reduced A of dimension   583 with   102 vectors.
 FullF1:  Do perturbations      1 to       3.
 Isotropic polarizability for W=    0.000000      131.34 Bohr**3.
 End of Minotr F.D. properties file   721 does not exist.
 End of Minotr F.D. properties file   722 does not exist.
 End of Minotr F.D. properties file   788 does not exist.
 Leave Link 1002 at Thu Nov  3 09:25:14 2022, MaxMem=  4194304000 cpu:            1881.0 elap:             235.2
 (Enter /software/gaussian/G16-A.03/avx/g16/l601.exe)
 Copying SCF densities to generalized density rwf, IOpCl= 0 IROHF=0.

 **********************************************************************

            Population analysis using the SCF density.

 **********************************************************************

 Orbital symmetries:
       Occupied  (A) (A) (A) (A) (A) (A) (A) (A) (A) (A) (A) (A)
                 (A) (A) (A) (A) (A) (A) (A) (A) (A) (A) (A) (A)
                 (A) (A) (A) (A) (A) (A) (A) (A) (A) (A) (A) (A)
                 (A) (A) (A) (A) (A) (A) (A) (A) (A) (A) (A) (A)
                 (A) (A) (A) (A) (A) (A) (A) (A) (A)
       Virtual   (A) (A) (A) (A) (A) (A) (A) (A) (A) (A) (A) (A)
                 (A) (A) (A) (A) (A) (A) (A) (A) (A) (A) (A) (A)
                 (A) (A) (A) (A) (A) (A) (A) (A) (A) (A) (A) (A)
                 (A) (A) (A) (A) (A) (A) (A) (A) (A) (A) (A) (A)
                 (A) (A) (A) (A) (A) (A) (A) (A) (A) (A) (A) (A)
                 (A) (A) (A) (A) (A) (A) (A) (A) (A) (A) (A) (A)
                 (A) (A) (A) (A) (A) (A) (A) (A) (A) (A) (A) (A)
                 (A) (A) (A) (A) (A) (A) (A) (A) (A) (A) (A) (A)
                 (A) (A) (A) (A) (A) (A) (A) (A) (A) (A) (A) (A)
                 (A) (A) (A) (A) (A) (A) (A) (A) (A) (A) (A) (A)
                 (A) (A) (A) (A) (A) (A) (A) (A) (A) (A) (A) (A)
                 (A) (A) (A) (A) (A) (A) (A) (A) (A) (A) (A) (A)
                 (A) (A) (A) (A) (A) (A) (A) (A) (A) (A) (A) (A)
                 (A) (A) (A) (A) (A) (A) (A) (A) (A) (A) (A) (A)
                 (A) (A) (A) (A) (A) (A) (A) (A) (A) (A) (A) (A)
                 (A) (A) (A) (A) (A) (A) (A) (A) (A) (A) (A) (A)
                 (A) (A) (A) (A) (A) (A) (A) (A) (A) (A) (A) (A)
                 (A) (A) (A) (A) (A) (A) (A) (A) (A) (A) (A) (A)
                 (A) (A) (A) (A) (A) (A) (A) (A) (A) (A) (A) (A)
                 (A) (A) (A) (A) (A) (A) (A) (A) (A) (A) (A) (A)
                 (A) (A) (A)
 The electronic state is 1-A.
 Alpha  occ. eigenvalues --  -19.24035 -19.24030 -14.34919 -14.34915 -10.30814
 Alpha  occ. eigenvalues --  -10.30812 -10.28528 -10.28528 -10.26829 -10.25883
 Alpha  occ. eigenvalues --  -10.25882 -10.23038 -10.23028 -10.22313 -10.22313
 Alpha  occ. eigenvalues --   -1.11487  -1.11267  -0.91084  -0.90157  -0.85692
 Alpha  occ. eigenvalues --   -0.79316  -0.77628  -0.71617  -0.70603  -0.70475
 Alpha  occ. eigenvalues --   -0.65049  -0.60825  -0.60804  -0.59833  -0.54567
 Alpha  occ. eigenvalues --   -0.52222  -0.51295  -0.50942  -0.48127  -0.47084
 Alpha  occ. eigenvalues --   -0.45824  -0.44724  -0.44241  -0.43783  -0.42549
 Alpha  occ. eigenvalues --   -0.41506  -0.40627  -0.40169  -0.39917  -0.37778
 Alpha  occ. eigenvalues --   -0.37716  -0.37673  -0.36437  -0.36314  -0.35033
 Alpha  occ. eigenvalues --   -0.34652  -0.34402  -0.34315  -0.27974  -0.25081
 Alpha  occ. eigenvalues --   -0.24403  -0.23914
 Alpha virt. eigenvalues --    0.03736   0.03745   0.06693   0.07798   0.08945
 Alpha virt. eigenvalues --    0.10281   0.10576   0.11215   0.11977   0.13145
 Alpha virt. eigenvalues --    0.13286   0.13690   0.13806   0.14608   0.14676
 Alpha virt. eigenvalues --    0.15061   0.15750   0.15798   0.17101   0.17688
 Alpha virt. eigenvalues --    0.17861   0.17963   0.19877   0.19993   0.20861
 Alpha virt. eigenvalues --    0.23077   0.24170   0.24358   0.26082   0.26848
 Alpha virt. eigenvalues --    0.29559   0.31008   0.34984   0.35699   0.39981
 Alpha virt. eigenvalues --    0.41933   0.42127   0.43291   0.43384   0.44430
 Alpha virt. eigenvalues --    0.45690   0.47233   0.47421   0.49843   0.50801
 Alpha virt. eigenvalues --    0.51428   0.51492   0.54298   0.54412   0.57037
 Alpha virt. eigenvalues --    0.57292   0.58090   0.59662   0.61417   0.61491
 Alpha virt. eigenvalues --    0.61557   0.63204   0.63488   0.63779   0.64116
 Alpha virt. eigenvalues --    0.64910   0.65214   0.65761   0.65953   0.66054
 Alpha virt. eigenvalues --    0.67176   0.67572   0.68049   0.68109   0.68274
 Alpha virt. eigenvalues --    0.68682   0.68785   0.69918   0.70398   0.71035
 Alpha virt. eigenvalues --    0.71094   0.71173   0.72281   0.72322   0.72480
 Alpha virt. eigenvalues --    0.72816   0.74393   0.75722   0.76454   0.79769
 Alpha virt. eigenvalues --    0.80431   0.81237   0.81805   0.82725   0.83979
 Alpha virt. eigenvalues --    0.86187   0.89044   0.89430   0.94645   0.95818
 Alpha virt. eigenvalues --    0.97379   1.00699   1.01802   1.03141   1.06611
 Alpha virt. eigenvalues --    1.08764   1.10585   1.12605   1.13203   1.13932
 Alpha virt. eigenvalues --    1.18518   1.23690   1.24939   1.27596   1.27978
 Alpha virt. eigenvalues --    1.30147   1.32281   1.33346   1.35399   1.37874
 Alpha virt. eigenvalues --    1.41917   1.43591   1.44359   1.44549   1.45248
 Alpha virt. eigenvalues --    1.46531   1.51018   1.54009   1.54145   1.55743
 Alpha virt. eigenvalues --    1.55849   1.57216   1.57830   1.59631   1.59859
 Alpha virt. eigenvalues --    1.63279   1.63728   1.64863   1.67752   1.69334
 Alpha virt. eigenvalues --    1.69387   1.71937   1.72201   1.73778   1.74780
 Alpha virt. eigenvalues --    1.75160   1.77613   1.78833   1.79115   1.79324
 Alpha virt. eigenvalues --    1.80458   1.81171   1.81232   1.81884   1.82272
 Alpha virt. eigenvalues --    1.83357   1.83667   1.84919   1.85002   1.86349
 Alpha virt. eigenvalues --    1.86852   1.87645   1.88461   1.90042   1.91064
 Alpha virt. eigenvalues --    1.91542   1.92909   1.94464   1.95049   1.95661
 Alpha virt. eigenvalues --    1.96644   1.97473   1.99766   2.00463   2.00773
 Alpha virt. eigenvalues --    2.02997   2.03124   2.04906   2.08107   2.10445
 Alpha virt. eigenvalues --    2.10774   2.10863   2.14191   2.17334   2.18899
 Alpha virt. eigenvalues --    2.20686   2.22317   2.24080   2.30797   2.31255
 Alpha virt. eigenvalues --    2.34873   2.34952   2.36107   2.36602   2.37824
 Alpha virt. eigenvalues --    2.39900   2.42732   2.43041   2.43735   2.46124
 Alpha virt. eigenvalues --    2.46417   2.50731   2.51183   2.52489   2.55038
 Alpha virt. eigenvalues --    2.56198   2.59435   2.63656   2.65051   2.67568
 Alpha virt. eigenvalues --    2.68929   2.69498   2.71761   2.73585   2.73893
 Alpha virt. eigenvalues --    2.76127   2.80970   2.81701   2.84671   2.84841
 Alpha virt. eigenvalues --    2.87719   2.88023   2.90262   2.92885   2.93169
 Alpha virt. eigenvalues --    2.93606   2.93957   2.96561   2.97434   2.97534
 Alpha virt. eigenvalues --    2.98983   2.99320   3.01964   3.02132   3.04530
 Alpha virt. eigenvalues --    3.05167   3.06370   3.07479   3.10898   3.11036
 Alpha virt. eigenvalues --    3.17051   3.19183   3.28599   3.30409   3.40497
 Alpha virt. eigenvalues --    3.47671   3.65003   3.67180
     Molecular Orbital Coefficients:
                          53        54        55        56        57
                           O         O         O         O         O
     Eigenvalues --    -0.34315  -0.27974  -0.25081  -0.24403  -0.23914
   1 1   C  1S         -0.00327  -0.00665   0.02405  -0.02355  -0.00436
   2        2S          0.01037   0.01747  -0.05910   0.05801   0.01462
   3        3S         -0.00519   0.01677  -0.09537   0.10635   0.00108
   4        4PX        -0.04047  -0.00099  -0.04272   0.04167  -0.00391
   5        4PY        -0.11609  -0.01598   0.05910  -0.05842  -0.00255
   6        4PZ        -0.00604   0.01592  -0.07240   0.06928   0.00764
   7        5PX        -0.00855  -0.01595  -0.01569   0.01938  -0.02241
   8        5PY        -0.04385   0.01693   0.03356  -0.04099   0.03262
   9        5PZ         0.00330   0.01104  -0.04034   0.04280   0.01275
  10        6D 0        0.00600   0.00047   0.00015  -0.00013   0.00004
  11        6D+1        0.00122   0.00216  -0.00148   0.00125   0.00233
  12        6D-1        0.00203   0.00074   0.00316  -0.00330   0.00121
  13        6D+2        0.00414   0.00134   0.00222  -0.00236   0.00174
  14        6D-2       -0.00399  -0.00225   0.00050  -0.00029  -0.00254
  15 2   C  1S          0.00904  -0.02219   0.00480  -0.00183  -0.02761
  16        2S         -0.02607   0.05120  -0.01572   0.00953   0.06543
  17        3S         -0.00382   0.10297  -0.01990  -0.00438   0.13238
  18        4PX         0.01982   0.12206  -0.00274  -0.01149   0.13734
  19        4PY         0.13979   0.03234   0.00412  -0.00564   0.01681
  20        4PZ         0.01109  -0.01660   0.10172  -0.09639  -0.00676
  21        5PX         0.00277   0.03639  -0.01831   0.01636   0.03944
  22        5PY         0.04695  -0.01886   0.01923  -0.01449  -0.05443
  23        5PZ         0.00199  -0.01440   0.02400  -0.00419  -0.01937
  24        6D 0        0.00702  -0.00015   0.00275  -0.00268   0.00014
  25        6D+1       -0.00205   0.00045  -0.01100   0.01142  -0.00091
  26        6D-1        0.00161   0.00185   0.01087  -0.01105   0.00323
  27        6D+2        0.00316   0.00186  -0.00200   0.00203  -0.00068
  28        6D-2       -0.00414  -0.01625   0.00336  -0.00140  -0.01834
  29 3   H  1S          0.07160   0.02726   0.11252  -0.11496   0.04159
  30        2S          0.03944  -0.00059   0.07597  -0.08366   0.01456
  31        3PX         0.00014   0.00162  -0.00107   0.00084   0.00189
  32        3PY         0.00053   0.00065  -0.00270   0.00282   0.00072
  33        3PZ        -0.00322  -0.00164  -0.00181   0.00198  -0.00216
  34 4   C  1S          0.01090   0.02467  -0.00115  -0.00137   0.02423
  35        2S         -0.02661  -0.06016   0.00243   0.00329  -0.06044
  36        3S         -0.06185  -0.11091   0.01538   0.00388  -0.14215
  37        4PX        -0.02582  -0.06678  -0.00234   0.00829  -0.05620
  38        4PY        -0.12497  -0.10096   0.00657   0.00423  -0.10221
  39        4PZ         0.10457   0.01069  -0.07126   0.07076   0.00152
  40        5PX        -0.02403  -0.03533   0.00882  -0.00518  -0.02863
  41        5PY        -0.04668  -0.09775   0.01270  -0.00011  -0.11388
  42        5PZ         0.03651   0.01067  -0.01260   0.00378   0.01068
  43        6D 0        0.00302   0.00213  -0.00230   0.00222   0.00163
  44        6D+1       -0.00891   0.00058   0.01100  -0.01190   0.00167
  45        6D-1        0.00334  -0.00026  -0.00138   0.00203  -0.00062
  46        6D+2        0.00509  -0.00025   0.00158  -0.00170   0.00090
  47        6D-2       -0.00559   0.00301  -0.00048   0.00009   0.00465
  48 5   O  1S         -0.01799  -0.00900   0.00196  -0.00051  -0.01381
  49        2S         -0.03708  -0.02068   0.00470  -0.00169  -0.03038
  50        3S         -0.03354  -0.06377   0.00934   0.00112  -0.08642
  51        4PX        -0.01612  -0.05366   0.03915  -0.03501  -0.05069
  52        4PY         0.14331  -0.11214   0.02841  -0.01620  -0.10777
  53        4PZ        -0.15833   0.01541   0.24581  -0.26918   0.04641
  54        5PX        -0.01402  -0.04193   0.03433  -0.02971  -0.04774
  55        5PY         0.10145  -0.08665   0.02148  -0.01181  -0.07924
  56        5PZ        -0.11061   0.01200   0.20297  -0.22205   0.03876
  57        6D 0       -0.00112   0.00117  -0.00058   0.00036   0.00076
  58        6D+1       -0.00421  -0.00024   0.00066  -0.00008  -0.00031
  59        6D-1       -0.00545   0.00017   0.00409  -0.00459   0.00059
  60        6D+2       -0.00249   0.00389  -0.00067   0.00031   0.00343
  61        6D-2        0.00112   0.00133   0.00053  -0.00064   0.00121
  62 6   C  1S         -0.00636  -0.04043   0.00470  -0.00002  -0.03591
  63        2S          0.01630   0.10414  -0.01327   0.00106   0.09287
  64        3S          0.01429  -0.12978   0.00661  -0.00296   0.00613
  65        4PX        -0.07547   0.00441  -0.02024   0.02189  -0.01262
  66        4PY        -0.00457   0.07495  -0.01192   0.00661   0.05967
  67        4PZ        -0.06198  -0.00477  -0.14428   0.16641  -0.02513
  68        5PX        -0.02895  -0.13292  -0.00026   0.01655  -0.07191
  69        5PY         0.03922  -0.01296   0.00065   0.00080  -0.04094
  70        5PZ        -0.06882   0.01790  -0.10280   0.11339  -0.00400
  71        6D 0       -0.00279   0.00180   0.00292  -0.00353   0.00113
  72        6D+1        0.01041   0.00105  -0.00585   0.00725   0.00052
  73        6D-1       -0.00310   0.00285  -0.02727   0.02455  -0.00044
  74        6D+2        0.00683  -0.00031   0.00048  -0.00005  -0.00067
  75        6D-2        0.00277  -0.02240  -0.00043   0.00291  -0.02520
  76 7   N  1S         -0.00033  -0.06593   0.00890  -0.00018  -0.08180
  77        2S          0.00154  -0.13415   0.01670   0.00141  -0.17301
  78        3S         -0.03252  -0.17241   0.03801  -0.01106  -0.21169
  79        4PX         0.00093   0.26354  -0.00203  -0.02975   0.28612
  80        4PY        -0.01043   0.21945  -0.01905  -0.00634   0.23435
  81        4PZ         0.05797  -0.04147   0.27657  -0.27775  -0.00698
  82        5PX        -0.00455  -0.15643  -0.01314   0.02845  -0.16982
  83        5PY         0.01925  -0.17346   0.01506   0.00343  -0.17470
  84        5PZ        -0.03182   0.02623  -0.21017   0.20072   0.00085
  85        6D 0        0.00020  -0.00835  -0.00027   0.00158  -0.01031
  86        6D+1        0.00155  -0.00227   0.00304  -0.00403  -0.00267
  87        6D-1        0.00449  -0.00173   0.01535  -0.01591   0.00011
  88        6D+2       -0.00244  -0.00225  -0.00038   0.00015   0.00248
  89        6D-2       -0.00129   0.01082   0.00018  -0.00170   0.01416
  90 8   N  1S          0.00022  -0.06591  -0.00908   0.00081   0.08181
  91        2S         -0.00186  -0.13413  -0.01696   0.00358   0.17302
  92        3S          0.03414  -0.17228  -0.03984  -0.00961   0.21168
  93        4PX         0.00447  -0.26366  -0.00233   0.03369   0.28595
  94        4PY         0.02345   0.21909   0.01919  -0.00961  -0.23397
  95        4PZ         0.06091   0.04155   0.27645   0.27789  -0.01124
  96        5PX        -0.00571   0.15664  -0.01314  -0.03130  -0.16968
  97        5PY        -0.02624  -0.17319  -0.01502   0.00583   0.17448
  98        5PZ        -0.03350  -0.02626  -0.21002  -0.20081   0.00393
  99        6D 0       -0.00027  -0.00835   0.00030   0.00175   0.01029
 100        6D+1       -0.00161  -0.00229  -0.00305  -0.00401   0.00276
 101        6D-1        0.00486   0.00172   0.01533   0.01591  -0.00011
 102        6D+2        0.00208  -0.00223   0.00037   0.00012  -0.00251
 103        6D-2       -0.00183  -0.01082   0.00019   0.00193   0.01414
 104 9   C  1S          0.00892  -0.04042  -0.00471   0.00032   0.03593
 105        2S         -0.02279   0.10412   0.01325   0.00019  -0.09294
 106        3S         -0.01370  -0.12977  -0.00558  -0.00351  -0.00607
 107        4PX        -0.07272  -0.00444  -0.02037  -0.02280  -0.01231
 108        4PY         0.01752   0.07495   0.01210   0.00560  -0.05978
 109        4PZ        -0.06639   0.00503  -0.14405  -0.16674  -0.02308
 110        5PX        -0.02955   0.13285  -0.00029  -0.01659  -0.07165
 111        5PY        -0.03924  -0.01272   0.00004   0.00204   0.04092
 112        5PZ        -0.07176  -0.01809  -0.10271  -0.11363  -0.00236
 113        6D 0        0.00302   0.00180  -0.00293  -0.00357  -0.00108
 114        6D+1       -0.01039   0.00107   0.00587   0.00727  -0.00063
 115        6D-1       -0.00316  -0.00284  -0.02725  -0.02458  -0.00007
 116        6D+2       -0.00860  -0.00036  -0.00041   0.00001   0.00074
 117        6D-2        0.00289   0.02238  -0.00043  -0.00324  -0.02516
 118 10  C  1S          0.00006  -0.01416  -0.00006  -0.00051  -0.00000
 119        2S         -0.00015   0.01438   0.00015   0.00049  -0.00000
 120        3S         -0.00509   0.34774   0.00073   0.00819   0.00016
 121        4PX         0.04824  -0.00013   0.01778  -0.00014  -0.07089
 122        4PY        -0.00914   0.09035   0.00020   0.00017  -0.00002
 123        4PZ         0.19116  -0.00029   0.05763   0.00009   0.01717
 124        5PX         0.01181  -0.00022   0.00785   0.00069  -0.06248
 125        5PY        -0.00579   0.18283  -0.00081  -0.00522  -0.00005
 126        5PZ         0.15434  -0.00059  -0.08535  -0.00012  -0.00290
 127        6D 0        0.00071  -0.00398   0.00006   0.00190  -0.00000
 128        6D+1        0.00016  -0.00065   0.00003  -0.00822   0.00005
 129        6D-1       -0.01220  -0.00002  -0.00986  -0.00002  -0.00101
 130        6D+2       -0.00017   0.00002  -0.00000  -0.00140   0.00001
 131        6D-2        0.00178  -0.00000  -0.00072  -0.00002  -0.00343
 132 11  C  1S         -0.02019   0.00691  -0.01029  -0.00032  -0.00144
 133        2S          0.04733  -0.01601   0.01077   0.00114   0.00236
 134        3S          0.01472  -0.03776   0.15197  -0.00473   0.01556
 135        4PX        -0.07129   0.00330  -0.00967  -0.01320   0.02034
 136        4PY         0.04353  -0.03289   0.06165   0.00257   0.00834
 137        4PZ        -0.15690   0.01986  -0.04508   0.00302  -0.00952
 138        5PX        -0.03728   0.00261  -0.01388   0.00850   0.02258
 139        5PY         0.00605  -0.02485   0.10418   0.00133   0.01309
 140        5PZ        -0.06542   0.00754  -0.05065   0.00212  -0.01125
 141        6D 0       -0.00063  -0.00221   0.00145   0.00015  -0.00016
 142        6D+1       -0.00062  -0.00055   0.00019   0.00004   0.00157
 143        6D-1       -0.00772  -0.00005  -0.00222   0.00023   0.00007
 144        6D+2       -0.00169   0.00034  -0.00069  -0.00005   0.00014
 145        6D-2        0.00186  -0.00001   0.00003  -0.00117  -0.00304
 146 12  C  1S          0.01950   0.00693   0.01021  -0.00028   0.00144
 147        2S         -0.04520  -0.01596  -0.01051   0.00109  -0.00234
 148        3S         -0.01533  -0.03847  -0.15280  -0.00501  -0.01568
 149        4PX        -0.07459  -0.00320  -0.00963   0.01351   0.02029
 150        4PY        -0.02921  -0.03301  -0.06160   0.00243  -0.00835
 151        4PZ        -0.15259  -0.01955  -0.04473  -0.00320  -0.00944
 152        5PX        -0.03880  -0.00250  -0.01376  -0.00870   0.02295
 153        5PY         0.00334  -0.02501  -0.10442   0.00111  -0.01314
 154        5PZ        -0.06314  -0.00727  -0.05042  -0.00222  -0.01118
 155        6D 0        0.00155  -0.00222  -0.00141   0.00015   0.00016
 156        6D+1        0.00084  -0.00055  -0.00018   0.00002  -0.00155
 157        6D-1       -0.00780   0.00003  -0.00224  -0.00023   0.00007
 158        6D+2        0.00161   0.00034   0.00068  -0.00005  -0.00013
 159        6D-2        0.00208   0.00001   0.00004   0.00111  -0.00307
 160 13  O  1S          0.02106  -0.00900  -0.00195  -0.00041   0.01382
 161        2S          0.04348  -0.02065  -0.00464  -0.00139   0.03041
 162        3S          0.03998  -0.06376  -0.00977   0.00134   0.08639
 163        4PX        -0.01762   0.05367   0.04017   0.03574  -0.05111
 164        4PY        -0.16560  -0.11201  -0.02812  -0.01420   0.10796
 165        4PZ        -0.16336  -0.01599   0.24538   0.26986   0.04327
 166        5PX        -0.01514   0.04192   0.03509   0.03012  -0.04809
 167        5PY        -0.11749  -0.08659  -0.02143  -0.01056   0.07937
 168        5PZ        -0.11403  -0.01237   0.20262   0.22260   0.03606
 169        6D 0        0.00145   0.00118   0.00058   0.00035  -0.00077
 170        6D+1        0.00449  -0.00025  -0.00066  -0.00009   0.00033
 171        6D-1       -0.00563  -0.00016   0.00409   0.00460   0.00052
 172        6D+2        0.00274   0.00389   0.00066   0.00026  -0.00344
 173        6D-2        0.00110  -0.00132   0.00053   0.00068   0.00119
 174 14  C  1S         -0.01084   0.02467   0.00142  -0.00149  -0.02419
 175        2S          0.02619  -0.06019  -0.00324   0.00349   0.06033
 176        3S          0.06600  -0.11088  -0.01562   0.00571   0.14224
 177        4PX        -0.02481   0.06681  -0.00219  -0.00922  -0.05612
 178        4PY         0.13970  -0.10084  -0.00746   0.00468   0.10200
 179        4PZ         0.11005  -0.01128  -0.07131  -0.07081   0.00306
 180        5PX        -0.02586   0.03525   0.00856   0.00446  -0.02868
 181        5PY         0.05128  -0.09765  -0.01309   0.00102   0.11382
 182        5PZ         0.03888  -0.01135  -0.01270  -0.00363   0.01169
 183        6D 0       -0.00332   0.00210   0.00260   0.00252  -0.00160
 184        6D+1        0.00924   0.00068  -0.01091  -0.01186  -0.00159
 185        6D-1        0.00356   0.00018  -0.00141  -0.00206  -0.00053
 186        6D+2       -0.00588  -0.00024  -0.00156  -0.00171  -0.00089
 187        6D-2       -0.00623  -0.00302  -0.00051  -0.00004   0.00465
 188 15  C  1S         -0.01011  -0.02217  -0.00471  -0.00135   0.02764
 189        2S          0.02876   0.05109   0.01543   0.00839  -0.06550
 190        3S          0.00452   0.10305   0.01936  -0.00683  -0.13286
 191        4PX         0.02943  -0.12211  -0.00319   0.01297   0.13722
 192        4PY        -0.15171   0.03220  -0.00356  -0.00531  -0.01650
 193        4PZ         0.00916   0.01610   0.10165   0.09644  -0.00774
 194        5PX         0.00906  -0.03619  -0.01926  -0.01695   0.03934
 195        5PY        -0.05132  -0.01890  -0.01909  -0.01338   0.05480
 196        5PZ         0.00094   0.01402   0.02393   0.00395  -0.01915
 197        6D 0       -0.00727  -0.00015  -0.00255  -0.00249  -0.00008
 198        6D+1        0.00200   0.00048   0.01103   0.01146   0.00069
 199        6D-1        0.00199  -0.00196   0.01084   0.01110   0.00317
 200        6D+2       -0.00390   0.00182   0.00207   0.00211   0.00070
 201        6D-2       -0.00440   0.01623   0.00344   0.00121  -0.01834
 202 16  H  1S         -0.07521   0.02819  -0.11162  -0.11493  -0.04069
 203        2S         -0.04171   0.00000  -0.07518  -0.08323  -0.01397
 204        3PX         0.00033  -0.00162  -0.00104  -0.00079   0.00191
 205        3PY        -0.00064   0.00061   0.00272   0.00284  -0.00072
 206        3PZ        -0.00343   0.00166  -0.00174  -0.00195  -0.00215
 207 17  C  1S          0.00320  -0.00649  -0.02414  -0.02364   0.00453
 208        2S         -0.01017   0.01712   0.05930   0.05814  -0.01508
 209        3S          0.00507   0.01595   0.09589   0.10713  -0.00145
 210        4PX        -0.05062   0.00126  -0.04285  -0.04193  -0.00356
 211        4PY         0.12520  -0.01538  -0.05892  -0.05837   0.00283
 212        4PZ        -0.00437  -0.01538  -0.07324  -0.07019   0.00807
 213        5PX        -0.01289   0.01600  -0.01555  -0.01955  -0.02222
 214        5PY         0.04839   0.01749  -0.03329  -0.04134  -0.03272
 215        5PZ         0.00469  -0.01052  -0.04137  -0.04381   0.01260
 216        6D 0       -0.00624   0.00046  -0.00006  -0.00003  -0.00002
 217        6D+1       -0.00141   0.00217   0.00151   0.00125  -0.00235
 218        6D-1        0.00237  -0.00079   0.00317   0.00333   0.00121
 219        6D+2       -0.00480   0.00134  -0.00218  -0.00235  -0.00170
 220        6D-2       -0.00451   0.00222   0.00050   0.00026  -0.00252
 221 18  H  1S          0.06131   0.00337   0.01563  -0.01438   0.00307
 222        2S          0.04259  -0.00028   0.04516  -0.04360   0.00808
 223        3PX        -0.00233  -0.00021  -0.00008   0.00005  -0.00003
 224        3PY        -0.00196  -0.00114   0.00103  -0.00079  -0.00099
 225        3PZ         0.00305   0.00083  -0.00086   0.00092   0.00085
 226 19  H  1S         -0.11737  -0.01722   0.00534  -0.00475  -0.01171
 227        2S         -0.06353  -0.04198   0.01918  -0.01423  -0.03673
 228        3PX         0.00309   0.00003  -0.00112   0.00108  -0.00032
 229        3PY         0.00279   0.00069   0.00071  -0.00077   0.00019
 230        3PZ        -0.00004   0.00038  -0.00181   0.00168   0.00017
 231 20  H  1S          0.02317   0.00863   0.02385  -0.02425   0.01210
 232        2S          0.01467  -0.00364   0.03557  -0.03605  -0.00278
 233        3PX        -0.00014  -0.00002  -0.00022   0.00025  -0.00025
 234        3PY        -0.00443  -0.00073   0.00153  -0.00145  -0.00032
 235        3PZ        -0.00091  -0.00016  -0.00238   0.00232  -0.00069
 236 21  H  1S         -0.05000   0.02963   0.08263  -0.08898   0.03727
 237        2S         -0.01656   0.03440   0.05708  -0.06706   0.04676
 238        3PX        -0.00196  -0.00059   0.00116  -0.00114  -0.00059
 239        3PY        -0.00413  -0.00203   0.00221  -0.00215  -0.00213
 240        3PZ         0.00094   0.00190   0.00064  -0.00079   0.00187
 241 22  H  1S          0.11600   0.02822  -0.08707   0.08774   0.01624
 242        2S          0.06305   0.02913  -0.05749   0.05918   0.02647
 243        3PX         0.00215  -0.00105  -0.00114   0.00121  -0.00123
 244        3PY        -0.00081  -0.00224  -0.00136   0.00179  -0.00274
 245        3PZ        -0.00358  -0.00160   0.00137  -0.00121  -0.00127
 246 23  H  1S         -0.09121  -0.01481  -0.00475   0.00278  -0.00085
 247        2S         -0.05347  -0.00862  -0.05208  -0.00269  -0.00422
 248        3PX        -0.00158   0.00017  -0.00006  -0.00205   0.00023
 249        3PY         0.00409  -0.00088  -0.00040  -0.00006  -0.00004
 250        3PZ         0.00069   0.00147   0.00064   0.00030  -0.00005
 251 24  H  1S         -0.04320   0.01731  -0.02458  -0.00582   0.01885
 252        2S         -0.01809   0.02086   0.00752   0.01427   0.00787
 253        3PX         0.00028  -0.00050   0.00121   0.00107  -0.00022
 254        3PY        -0.00055  -0.00004   0.00132   0.00061   0.00047
 255        3PZ        -0.00504   0.00025  -0.00150  -0.00081   0.00009
 256 25  H  1S          0.03056   0.01679  -0.01886   0.00394  -0.02413
 257        2S         -0.01031   0.02294   0.00382  -0.01118  -0.00441
 258        3PX         0.00092   0.00048  -0.00130   0.00104  -0.00068
 259        3PY         0.00051   0.00008   0.00125  -0.00034   0.00001
 260        3PZ        -0.00365   0.00010  -0.00094   0.00034  -0.00033
 261 26  H  1S          0.09797  -0.01488   0.00508   0.00279   0.00086
 262        2S          0.05659  -0.00834   0.05180  -0.00261   0.00430
 263        3PX        -0.00164  -0.00017  -0.00006   0.00205   0.00020
 264        3PY        -0.00392  -0.00089   0.00040  -0.00005   0.00004
 265        3PZ         0.00106  -0.00146   0.00064  -0.00030  -0.00004
 266 27  H  1S          0.03863   0.01732   0.02449  -0.00613  -0.01884
 267        2S          0.01743   0.02103  -0.00740   0.01385  -0.00784
 268        3PX        -0.00017   0.00050   0.00122  -0.00107  -0.00021
 269        3PY         0.00087  -0.00003  -0.00131   0.00061  -0.00047
 270        3PZ        -0.00488  -0.00025  -0.00148   0.00080   0.00009
 271 28  H  1S         -0.04090   0.01683   0.01869   0.00434   0.02411
 272        2S          0.00780   0.02310  -0.00363  -0.01076   0.00440
 273        3PX         0.00153  -0.00047  -0.00129  -0.00104  -0.00067
 274        3PY        -0.00033   0.00008  -0.00124  -0.00034  -0.00001
 275        3PZ        -0.00357  -0.00010  -0.00091  -0.00034  -0.00032
 276 29  H  1S         -0.12291   0.02753   0.08763   0.08824  -0.01673
 277        2S         -0.06649   0.02861   0.05817   0.05962  -0.02655
 278        3PX         0.00229   0.00109  -0.00110  -0.00119  -0.00125
 279        3PY         0.00111  -0.00223   0.00133   0.00180   0.00270
 280        3PZ        -0.00389   0.00157   0.00142   0.00125  -0.00126
 281 30  H  1S          0.04969   0.03030  -0.08176  -0.08890  -0.03662
 282        2S          0.01616   0.03495  -0.05620  -0.06704  -0.04647
 283        3PX        -0.00193   0.00056   0.00119   0.00116  -0.00056
 284        3PY         0.00447  -0.00203  -0.00223  -0.00215   0.00216
 285        3PZ         0.00113  -0.00192   0.00058   0.00076   0.00188
 286 31  H  1S         -0.03152   0.00877  -0.02395  -0.02455  -0.01190
 287        2S         -0.01912  -0.00345  -0.03591  -0.03643   0.00307
 288        3PX         0.00003   0.00002  -0.00022  -0.00026  -0.00025
 289        3PY         0.00483  -0.00072  -0.00152  -0.00144   0.00034
 290        3PZ        -0.00097   0.00018  -0.00239  -0.00234  -0.00067
 291 32  H  1S         -0.06389   0.00363  -0.01547  -0.01432  -0.00301
 292        2S         -0.04459   0.00022  -0.04446  -0.04318  -0.00780
 293        3PX        -0.00270   0.00021  -0.00008  -0.00004  -0.00003
 294        3PY         0.00214  -0.00112  -0.00103  -0.00079   0.00099
 295        3PZ         0.00321  -0.00085  -0.00089  -0.00095   0.00087
 296 33  H  1S          0.13011  -0.01715  -0.00570  -0.00497   0.01167
 297        2S          0.06957  -0.04197  -0.01973  -0.01425   0.03687
 298        3PX         0.00326  -0.00002  -0.00113  -0.00109  -0.00031
 299        3PY        -0.00317   0.00070  -0.00068  -0.00076  -0.00019
 300        3PZ        -0.00002  -0.00035  -0.00181  -0.00169   0.00017
                          58        59        60        61        62
                           V         V         V         V         V
     Eigenvalues --     0.03736   0.03745   0.06693   0.07798   0.08945
   1 1   C  1S         -0.03089   0.02687  -0.02195  -0.04311  -0.05106
   2        2S          0.06235  -0.05860   0.02330   0.05617   0.07399
   3        3S          0.39858  -0.31021   0.46701   0.87775   1.01296
   4        4PX         0.00764  -0.00763  -0.01889  -0.04555  -0.06046
   5        4PY        -0.02365   0.02090   0.02158   0.04239   0.05720
   6        4PZ         0.03620  -0.03567  -0.07331  -0.07156  -0.01082
   7        5PX        -0.11848   0.10346  -0.03532  -0.09814  -0.14016
   8        5PY        -0.07690   0.05410   0.06000   0.11849   0.18220
   9        5PZ         0.05619  -0.05641  -0.23340  -0.21930  -0.02075
  10        6D 0        0.00274  -0.00224   0.00465   0.00622   0.00307
  11        6D+1       -0.00011   0.00012  -0.00026   0.00077   0.00197
  12        6D-1       -0.00092   0.00075  -0.00234  -0.00303  -0.00108
  13        6D+2       -0.00329   0.00276   0.00201   0.00336   0.00266
  14        6D-2        0.00388  -0.00357  -0.00023  -0.00213  -0.00399
  15 2   C  1S         -0.00667   0.00541  -0.01925  -0.02901  -0.02434
  16        2S          0.01655  -0.01153   0.04024   0.06337   0.04401
  17        3S          0.07986  -0.08732   0.33034   0.45701   0.41058
  18        4PX        -0.00467   0.00342  -0.02119  -0.01959  -0.00081
  19        4PY         0.01011  -0.00939   0.04053   0.05189   0.01566
  20        4PZ         0.03018  -0.02621   0.05047   0.07606   0.06170
  21        5PX         0.12868  -0.11104  -0.05753  -0.02714   0.07273
  22        5PY         0.04890  -0.04064   0.15990   0.14539  -0.03616
  23        5PZ         0.14149  -0.11550   0.12831   0.22465   0.19662
  24        6D 0       -0.00549   0.00495  -0.00373  -0.00325   0.00205
  25        6D+1        0.01846  -0.01651  -0.00546  -0.00477  -0.00087
  26        6D-1       -0.00789   0.00782  -0.00043  -0.00137  -0.00201
  27        6D+2        0.00347  -0.00310   0.00672   0.00352  -0.00745
  28        6D-2       -0.00051   0.00069   0.00221   0.00069  -0.00170
  29 3   H  1S         -0.07336   0.06706  -0.00276   0.00026   0.01543
  30        2S         -0.29323   0.25384  -0.38290  -0.54489  -0.37804
  31        3PX         0.00384  -0.00352  -0.00230  -0.00144   0.00040
  32        3PY         0.00004   0.00029  -0.00047  -0.00025  -0.00032
  33        3PZ        -0.00049   0.00059  -0.00125  -0.00254  -0.00155
  34 4   C  1S         -0.00934   0.00723  -0.02889  -0.05281  -0.05017
  35        2S          0.01731  -0.01343   0.05358   0.10316   0.10782
  36        3S          0.19370  -0.14825   0.62410   0.89277   0.50955
  37        4PX        -0.00909   0.00687  -0.13223  -0.12201   0.03318
  38        4PY        -0.00024  -0.00135   0.01049  -0.03548  -0.09530
  39        4PZ         0.02835  -0.02954   0.01478   0.01783   0.00663
  40        5PX        -0.02784   0.02284  -0.36662  -0.35943   0.05306
  41        5PY         0.00850  -0.00853   0.00234  -0.14275  -0.32420
  42        5PZ         0.11171  -0.09779   0.02995   0.03495   0.00377
  43        6D 0       -0.00218   0.00174  -0.00788  -0.00737   0.00179
  44        6D+1        0.01044  -0.00871  -0.00026   0.00121   0.00268
  45        6D-1       -0.00690   0.00511   0.00352   0.00439   0.00340
  46        6D+2        0.00034  -0.00052  -0.00294  -0.00384  -0.00336
  47        6D-2        0.00009  -0.00015  -0.00409  -0.00071   0.00911
  48 5   O  1S          0.00024  -0.00079   0.03403   0.00844  -0.04483
  49        2S          0.00133  -0.00186   0.06971   0.01638  -0.08842
  50        3S         -0.00320  -0.00612   0.24508   0.10258  -0.31993
  51        4PX         0.02509  -0.02260  -0.01764   0.00056   0.05027
  52        4PY         0.00307  -0.00387   0.01213   0.00996  -0.02670
  53        4PZ         0.15111  -0.11741  -0.02676  -0.03089  -0.02966
  54        5PX         0.03075  -0.02812   0.00154   0.05110   0.10717
  55        5PY         0.00526  -0.00456   0.06255   0.03905  -0.05610
  56        5PZ         0.15913  -0.12225  -0.03174  -0.03783  -0.03753
  57        6D 0        0.00227  -0.00178  -0.00423  -0.00472  -0.00205
  58        6D+1       -0.01199   0.00913   0.00079   0.00049   0.00120
  59        6D-1       -0.00030  -0.00008  -0.00008   0.00023   0.00128
  60        6D+2       -0.00100   0.00099   0.00310   0.00405   0.00416
  61        6D-2       -0.00044   0.00034   0.00267   0.00107  -0.00219
  62 6   C  1S         -0.00247  -0.00136  -0.00315  -0.00448  -0.01268
  63        2S          0.01312  -0.00095   0.04390   0.04262   0.02540
  64        3S         -0.06018   0.05860  -0.56767  -0.39963   0.25108
  65        4PX        -0.04992   0.04615   0.00572  -0.01123  -0.00007
  66        4PY        -0.01499   0.00805   0.01939   0.00443  -0.04490
  67        4PZ        -0.37001   0.30643   0.05518   0.05756   0.05219
  68        5PX        -0.05305   0.04307  -0.03927  -0.01193   0.15221
  69        5PY        -0.03548   0.00647  -0.04886   0.08774  -0.06180
  70        5PZ        -0.39637   0.27967   0.07775   0.06329   0.05239
  71        6D 0        0.00071  -0.00109  -0.00455  -0.00115   0.00439
  72        6D+1       -0.00930   0.00946  -0.00038   0.00142   0.00281
  73        6D-1        0.02041  -0.01148  -0.00471  -0.00449  -0.00571
  74        6D+2       -0.00247   0.00193   0.00208  -0.00231  -0.00998
  75        6D-2        0.00253  -0.00163  -0.00082  -0.00029   0.00206
  76 7   N  1S          0.00356  -0.00258   0.02068   0.01350  -0.00319
  77        2S          0.01346  -0.01110   0.04237   0.03325   0.00156
  78        3S         -0.03292   0.04915   0.27104   0.07560  -0.13158
  79        4PX        -0.03841   0.03294   0.03723   0.02871  -0.03781
  80        4PY        -0.01000   0.00895   0.00952   0.01291  -0.00072
  81        4PZ        -0.26579   0.23304   0.05989   0.07539   0.07663
  82        5PX         0.07918  -0.06790  -0.03989  -0.02645   0.05858
  83        5PY        -0.01475   0.00720  -0.11217  -0.05674  -0.00265
  84        5PZ         0.30772  -0.25793  -0.07671  -0.10433  -0.10856
  85        6D 0        0.00173  -0.00203  -0.00531  -0.00359   0.00161
  86        6D+1       -0.01186   0.01097   0.00030  -0.00017   0.00049
  87        6D-1        0.00748  -0.00658  -0.00071  -0.00031   0.00048
  88        6D+2       -0.00252   0.00224  -0.00226  -0.00036   0.00202
  89        6D-2        0.00066  -0.00057  -0.00204  -0.00099  -0.00045
  90 8   N  1S          0.00346   0.00309   0.02070  -0.01337  -0.00314
  91        2S          0.01260   0.01263   0.04254  -0.03302   0.00162
  92        3S         -0.02765  -0.04932   0.27019  -0.07353  -0.12982
  93        4PX         0.03496   0.03751  -0.03750   0.02907   0.03668
  94        4PY        -0.00909  -0.00995   0.00959  -0.01281  -0.00028
  95        4PZ         0.23860   0.26058  -0.06014   0.07430  -0.07721
  96        5PX        -0.07096  -0.07628   0.04000  -0.02697  -0.05709
  97        5PY        -0.01259  -0.00925  -0.11231   0.05567  -0.00386
  98        5PZ        -0.27764  -0.29001   0.07664  -0.10304   0.10958
  99        6D 0        0.00154   0.00224  -0.00533   0.00358   0.00153
 100        6D+1       -0.01057  -0.01219   0.00033   0.00015   0.00051
 101        6D-1       -0.00672  -0.00737   0.00074  -0.00035  -0.00046
 102        6D+2       -0.00226  -0.00251  -0.00226   0.00036   0.00200
 103        6D-2       -0.00066  -0.00068   0.00206  -0.00101   0.00049
 104 9   C  1S         -0.00227   0.00088  -0.00325   0.00431  -0.01286
 105        2S          0.01216   0.00314   0.04433  -0.04195   0.02625
 106        3S         -0.05732  -0.06559  -0.56895   0.39863   0.24685
 107        4PX         0.04637   0.05197  -0.00610  -0.01110  -0.00017
 108        4PY        -0.01390  -0.01037   0.01945  -0.00505  -0.04453
 109        4PZ         0.33396   0.34494  -0.05561   0.05747  -0.05312
 110        5PX         0.05059   0.04742   0.03967  -0.01454  -0.15112
 111        5PY        -0.03004  -0.01270  -0.04779  -0.09060  -0.06079
 112        5PZ         0.36315   0.32136  -0.07815   0.06356  -0.05296
 113        6D 0        0.00060   0.00113  -0.00458   0.00117   0.00436
 114        6D+1       -0.00817  -0.01039  -0.00035  -0.00144   0.00289
 115        6D-1       -0.01904  -0.01365   0.00470  -0.00439   0.00570
 116        6D+2       -0.00231  -0.00232   0.00209   0.00218  -0.00993
[...]
 .00044171,0.00067453,-0.00146628,0.13318330,-0.13920024,0.00372529,-0.
 00056464,0.00118452,-0.00059355,-0.00104633,-0.00031705,-0.00021865,0.
 00007047,0.00004890,0.00009139,0.00001497,0.00004401,-0.00000121,-0.00
 006085,0.00004764,0.00003780,-0.00002018,0.00001012,-0.00000016,-0.000
 01852,0.00000433,0.00001327,0.00004509,-0.00006566,-0.00006562,0.00003
 161,-0.00002942,0.00000601,-0.00000671,0.00003113,0.00000927,-0.000240
 68,-0.00005388,-0.00011208,-0.00000576,0.00058339,0.00038927,-0.000121
 66,0.00004379,0.00006057,0.01310333,-0.00899841,0.00247263,-0.01533440
 ,0.01240382,-0.00056770,-0.14489177,0.14791280,-0.00027866,0.00003017,
 -0.00014158,0.00009019,0.00013677,0.00065742,-0.00000263,0.00000378,-0
 .00001981,0.00011591,0.00000108,-0.00004342,-0.00048982,0.00003292,0.0
 0016633,0.00266026,0.00207010,-0.00438925,-0.00126288,0.00093969,-0.00
 002390,0.00011308,-0.00018076,0.00009728,-0.00120324,0.00021115,0.0006
 3946,-0.02231011,0.01554210,-0.00304417,-0.00115738,0.00047351,0.00184
 955,-0.00573616,0.00216351,-0.04528392,0.00013461,-0.00021716,-0.00036
 964,0.00060332,0.00005590,0.00017240,-0.00003463,-0.00008454,-0.000083
 36,-0.00000868,-0.00004960,0.00000249,0.00002390,-0.00001292,-0.000015
 49,-0.00000654,-0.00000794,0.00002432,0.00001840,-0.00000270,0.0000055
 7,-0.00003684,0.00006435,0.00009094,-0.00008635,0.00002507,0.00001720,
 -0.00004866,0.00000335,-0.00000197,0.00027335,-0.00011770,0.00028737,0
 .00045304,-0.00037463,-0.00058286,-0.00004236,-0.00005971,-0.00007989,
 0.02157521,-0.01346051,0.00233109,-0.00089207,0.00075776,-0.00145367,0
 .00767049,-0.00788859,0.04920547,-0.00001267,0.00000265,-0.00001529,0.
 00004287,-0.00004879,-0.00000856,-0.00001520,0.00000885,-0.00000297,0.
 00002438,-0.00004550,-0.00000657,-0.00026384,0.00008649,0.00000652,0.0
 0006615,-0.00031278,0.00007804,-0.00013430,0.00008214,0.00002444,-0.00
 118924,0.00139191,0.00039710,0.00110820,-0.00520045,-0.00178712,-0.000
 49091,0.00065287,0.00012539,-0.00001285,0.00000235,0.00015050,0.000008
 97,0.00000685,-0.00014018,-0.02637501,-0.00293045,-0.02126890,-0.11092
 948,0.02460564,-0.10968204,-0.00177923,0.00226117,-0.00939477,0.001058
 51,-0.00053325,0.00032268,-0.00092658,0.00105876,0.00065596,0.00000131
 ,-0.00000616,0.00000289,0.00000593,0.00000166,-0.00000112,-0.00001013,
 0.00000553,0.00000890,-0.00002152,0.00000290,0.00000646,-0.00001659,0.
 00000475,-0.00000345,-0.00000651,0.00001621,-0.00000142,0.00001228,0.0
 0011681,0.00006477,-0.00005046,0.00000774,-0.00004823,-0.00005288,0.00
 003085,0.00004075,-0.00000970,-0.00002720,0.00008107,0.00001997,0.0000
 0181,-0.00007007,0.12885248,-0.00000465,-0.00000166,0.00000072,0.00000
 108,0.00004157,-0.00000680,-0.00001258,0.00000211,-0.00000278,0.000015
 63,-0.00001731,-0.00000253,-0.00008022,0.00010744,0.00000566,-0.000070
 06,-0.00037401,0.00007059,0.00008177,0.00003343,-0.00002230,0.00326957
 ,0.00011157,0.00074554,0.00285882,-0.00749981,-0.00208744,-0.00054032,
 0.00050621,0.00044475,0.00002753,0.00007507,0.00007130,-0.00007328,0.0
 0003400,-0.00002622,-0.02534757,0.00204982,-0.01875741,0.02893554,-0.0
 5349834,0.04382162,0.01093044,-0.00109236,0.02274885,-0.00047627,0.001
 19321,0.00001168,0.00255053,-0.00262512,-0.00056794,0.00000252,0.00000
 183,-0.00000211,-0.00000057,0.00000116,0.00000357,-0.00000117,0.000000
 95,-0.00000051,-0.00000350,0.00000703,-0.00000004,-0.00000492,0.000006
 80,-0.00000045,0.00001135,-0.00001289,-0.00001886,0.00000163,0.0000815
 3,0.00002610,-0.00003799,0.00003098,-0.00000400,0.00001088,0.00000157,
 0.00000061,-0.00000137,-0.00003091,0.00002129,0.00000926,-0.00000343,-
 0.00003021,-0.01925212,0.05913999,-0.00000436,0.00000178,-0.00000309,0
 .00002631,-0.00001829,-0.00000625,-0.00000247,0.00000179,-0.00000123,0
 .00002449,-0.00001457,-0.00000090,-0.00007669,-0.00000346,0.00000078,0
 .00010136,0.00003091,0.00000597,-0.00005980,0.00000559,0.00001925,0.00
 083612,-0.00002672,-0.00063017,0.00223935,-0.00073095,-0.00036297,0.00
 007005,-0.00010340,-0.00011197,-0.00004686,-0.00001644,0.00000573,-0.0
 0003653,-0.00005511,-0.00003134,-0.00132113,-0.00239326,0.00925059,-0.
 11753571,0.03921159,-0.25780736,0.00233681,-0.00198086,0.00243757,0.00
 023319,0.00024788,0.00157813,-0.00053343,0.00073557,0.00055132,0.00000
 283,-0.00000162,0.00000074,0.00000476,-0.00000201,-0.00000064,-0.00000
 717,0.00000175,0.00000183,-0.00000739,-0.00000028,0.00000502,-0.000003
 74,0.00000041,-0.00000340,0.00002913,-0.00000642,0.00002027,0.00001553
 ,0.00005225,0.00000231,-0.00001558,-0.00000886,-0.00000275,-0.00000102
 ,0.00000584,0.00000675,-0.00001772,0.00000197,0.00001478,-0.00002197,0
 .00006006,-0.00002205,0.12594097,-0.04013688,0.26323630,-0.00001705,0.
 00000142,-0.00000993,0.00004758,-0.00005749,0.00000949,-0.00001989,0.0
 0001218,-0.00000815,0.00002981,-0.00005179,0.00000550,-0.00028392,0.00
 008172,-0.00003038,0.00011413,-0.00028835,-0.00007325,-0.00014853,0.00
 008988,-0.00001088,-0.00103703,0.00096039,-0.00068860,0.00104346,-0.00
 465225,0.00231522,-0.00042926,0.00058568,-0.00018935,-0.00003177,-0.00
 001198,0.00013709,-0.00000202,-0.00000385,-0.00015956,-0.02798174,-0.0
 0249785,0.01803579,-0.12960203,0.03560406,0.11617549,-0.00316747,0.003
 52154,0.00929049,-0.00056026,0.00135520,-0.00031682,0.00133995,-0.0015
 3023,0.00088468,0.00000691,-0.00000203,-0.00000307,0.00000872,-0.00000
 190,0.00000245,-0.00001387,0.00000576,0.00000628,-0.00001906,0.0000039
 0,0.00000445,-0.00002175,0.00000331,-0.00000712,-0.00004474,0.00003631
 ,-0.00004069,0.00000727,0.00000439,0.00007594,-0.00000121,-0.00003119,
 -0.00008605,0.00000509,0.00001524,-0.00000419,-0.00006160,0.00000355,0
 .00004338,0.00002324,0.00012771,-0.00005414,0.01100781,-0.00237690,-0.
 01241478,0.14982681,-0.00000643,-0.00000084,-0.00000117,0.00000624,0.0
 0004538,0.00000263,-0.00000299,0.00000025,0.00000152,0.00001478,-0.000
 01567,0.00000106,-0.00006722,0.00009851,-0.00000223,-0.00007610,-0.000
 33301,-0.00008973,0.00008490,0.00001104,0.00001656,0.00319123,0.000398
 51,-0.00025248,0.00240137,-0.00691068,0.00297810,-0.00047320,0.0004172
 9,-0.00051572,-0.00008671,0.00003201,0.00001793,0.00003133,0.00007326,
 -0.00007396,-0.02674748,0.00310517,0.01661891,0.04020115,-0.05920453,-
 0.05162406,0.01234264,-0.00451670,-0.02125133,0.00262739,-0.00323960,0
 .00036547,0.00027684,0.00193411,-0.00142260,-0.00000207,-0.00000319,0.
 00000148,-0.00000279,0.00000411,-0.00000214,0.00000113,0.00000259,0.00
 000248,-0.00000381,0.00000572,0.00000070,-0.00000286,0.00000717,0.0000
 0036,0.00001526,0.00000158,-0.00000126,0.00000412,-0.00001074,0.000024
 45,0.00000176,-0.00002848,-0.00002507,0.00001341,-0.00000985,0.0000146
 2,-0.00003775,0.00002823,0.00000105,0.00000139,0.00007754,-0.00001989,
 -0.00215142,0.00245679,0.00511272,-0.03114999,0.06566746,0.00000528,0.
 00000027,-0.00000092,-0.00002375,0.00001614,-0.00000568,0.00000517,-0.
 00000336,0.00000411,-0.00002327,0.00001397,-0.00000294,0.00007372,0.00
 000315,0.00000909,-0.00009724,-0.00003005,-0.00001399,0.00005130,-0.00
 000754,0.00001946,-0.00063713,0.00026302,-0.00063560,-0.00220281,0.000
 45826,-0.00081501,-0.00007154,0.00007818,-0.00013904,0.00002800,0.0000
 7241,-0.00002617,0.00003788,0.00001709,0.00000201,0.00014004,0.0031081
 4,0.01002554,0.12310206,-0.04784653,-0.22863962,-0.00346065,0.00015726
 ,0.00318105,0.00014682,0.00045055,0.00080950,-0.00004171,0.00148865,0.
 00144334,-0.00000540,-0.00000145,0.00000260,-0.00000512,0.00000341,-0.
 00000161,0.00000790,-0.00000149,0.00000012,0.00000413,-0.00000073,-0.0
 0000330,0.00000618,0.00000015,0.00000483,0.00000040,-0.00001026,0.0000
 0719,0.00002601,-0.00006830,-0.00002141,0.00001824,-0.00000641,0.00001
 606,-0.00003313,0.00000508,0.00001880,0.00001484,0.00000878,0.00000205
 ,-0.00001502,-0.00005013,-0.00000083,0.01521426,-0.00678356,-0.0184657
 6,-0.13193279,0.04944734,0.23255498,-0.00000921,0.00000181,-0.00000496
 ,0.00005555,-0.00004128,-0.00001019,-0.00000457,0.00000570,-0.00000305
 ,0.00004405,-0.00003144,0.00000171,-0.00017978,-0.00001429,-0.00001458
 ,0.00021439,0.00003494,0.00001826,-0.00011057,0.00002170,0.00003272,-0
 .00025329,-0.00273860,0.00236901,-0.00099082,0.00196937,0.00049826,0.0
 0021180,-0.00004686,-0.00012858,-0.00013604,-0.00003831,0.00005418,-0.
 00006420,-0.00000621,-0.00004502,0.00122590,-0.00076554,-0.00044757,-0
 .00001126,0.00026838,0.00042719,-0.00694739,0.00085785,-0.00341949,0.0
 0027634,0.00010720,0.00039843,-0.31198957,-0.04940104,-0.01288005,0.00
 000513,-0.00000333,0.00000055,0.00001051,-0.00000393,-0.00000300,-0.00
 001479,0.00000329,0.00000460,-0.00001380,-0.00000100,0.00000809,-0.000
 01031,0.00000098,-0.00000705,0.00000917,0.00001616,0.00001601,0.000014
 07,0.00001122,0.00000785,-0.00000404,-0.00004502,-0.00003731,0.0000084
 5,0.00001294,-0.00000638,-0.00001248,-0.00003219,0.00002265,0.00001132
 ,0.00000812,-0.00000320,0.00010531,-0.00015036,0.00004181,0.00019546,-
 0.00040522,-0.00009359,0.33427993,-0.00001188,-0.00000695,-0.00000500,
 0.00000871,-0.00002875,0.00000475,-0.00001880,0.00000411,-0.00000823,0
 .00001879,-0.00001619,0.00000120,-0.00006392,0.00005877,0.00000715,0.0
 0017487,-0.00011220,0.00001010,-0.00006856,0.00010779,-0.00003109,-0.0
 0059819,-0.00254179,0.00401282,-0.00198190,0.00181173,0.00019859,0.000
 27093,-0.00017954,-0.00053187,-0.00023417,-0.00008139,0.00005571,-0.00
 003057,0.00004327,-0.00003868,0.00175462,0.00015991,0.00006825,-0.0012
 8379,0.00035789,-0.00012545,-0.01777394,-0.00423217,-0.00275438,0.0005
 1029,0.00052320,-0.00030415,-0.04849210,-0.05460887,-0.00301925,0.0000
 0345,0.00000055,-0.00000221,-0.00000075,0.00000467,0.00000506,-0.00000
 329,0.00000589,0.00000376,-0.00000573,0.00000265,0.00000158,-0.0000055
 7,0.00000088,-0.00000169,0.00001063,0.00000939,0.00000765,0.00000762,0
 .00000108,0.00000336,0.00000540,-0.00006493,-0.00006480,0.00001064,0.0
 0001001,-0.00000023,-0.00000292,-0.00002445,0.00001255,0.00000316,-0.0
 0000626,0.00000312,0.00005977,-0.00000853,-0.00001154,0.00042824,-0.00
 036082,-0.00038512,0.05466034,0.05512536,0.00001146,0.00000100,0.00000
 566,-0.00001020,0.00003207,-0.00001013,0.00002109,-0.00000898,0.000006
 57,-0.00001475,0.00001918,-0.00000408,0.00007941,-0.00005338,-0.000002
 85,-0.00018227,0.00011641,-0.00002385,0.00007599,-0.00010401,0.0000552
 1,0.00115530,0.00438554,-0.00411784,0.00217272,-0.00069248,-0.00005445
 ,-0.00028925,0.00022504,0.00052632,0.00024149,0.00014378,-0.00010552,0
 .00002461,-0.00002281,0.00004421,-0.00105392,0.00008948,-0.00022006,0.
 00044198,-0.00023883,0.00042105,0.02593361,0.00277769,0.00251729,-0.00
 019259,-0.00090256,0.00095285,-0.01520126,-0.00304754,-0.04764643,-0.0
 0000366,0.00000102,0.00000341,-0.00000245,-0.00000196,-0.00000277,0.00
 000459,-0.00000380,-0.00000366,0.00000625,-0.00000256,0.00000001,0.000
 00894,0.00000056,0.00000170,0.00001744,-0.00000438,0.00001149,-0.00001
 187,-0.00000622,-0.00000611,-0.00000306,0.00006528,0.00009282,-0.00001
 003,-0.00001050,0.00000364,0.00000914,0.00002342,-0.00001614,-0.000005
 42,-0.00000301,0.00000072,-0.00002775,0.00000289,-0.00006989,-0.000395
 85,-0.00010048,0.00022325,0.01258240,0.00039118,0.04829831,0.00000395,
 0.00000462,0.00000181,-0.00002943,0.00001486,0.00001646,-0.00000480,0.
 00000240,-0.00000008,-0.00002202,0.00001143,0.00000189,0.00007254,0.00
 001637,0.00000941,-0.00009330,-0.00005050,0.00000364,0.00004290,0.0000
 0520,-0.00007222,0.00105321,0.00180937,-0.00019929,0.00080188,-0.00126
 754,0.00003500,-0.00008331,0.00005573,-0.00008300,0.00002793,-0.000039
 73,0.00003900,0.00005686,0.00001178,0.00003442,-0.00095641,0.00017106,
 0.00025492,0.00046894,0.00019254,-0.00073957,0.00049178,0.00435106,0.0
 0910593,0.00021783,-0.00124903,0.00188415,-0.05783023,-0.02714238,-0.0
 5037442,0.00000017,0.00000234,-0.00000371,-0.00000148,-0.00000111,0.00
 000297,0.00000510,-0.00000347,-0.00000365,0.00000688,0.00000201,-0.000
 00549,0.00000140,-0.00000241,0.00000282,-0.00001357,-0.00001057,-0.000
 02696,-0.00000155,0.00001548,-0.00000801,-0.00000020,0.00002047,-0.000
 00715,0.00000107,-0.00000432,-0.00000380,0.00000286,0.00002374,-0.0000
 2135,-0.00000362,0.00000876,-0.00000352,-0.00009801,0.00005721,0.00011
 529,-0.00021448,0.00018618,-0.00017863,-0.00385925,-0.01391169,-0.0259
 7857,0.05677847,0.00000444,-0.00000676,0.00000502,-0.00000303,0.000010
 09,-0.00002010,0.00001413,-0.00000752,0.00000439,-0.00001160,0.0000112
 7,-0.00000395,0.00003482,-0.00003424,-0.00000232,-0.00006077,0.0000892
 5,-0.00001136,0.00002188,-0.00004611,0.00004916,0.00147543,0.00144186,
 -0.00075862,-0.00009102,-0.00013238,-0.00025911,-0.00004837,-0.0000216
 9,0.00006574,0.00004916,0.00001926,-0.00000823,0.00001698,-0.00000558,
 0.00001530,0.00039404,0.00021972,0.00004753,-0.00025923,0.00155354,0.0
 0061791,0.00387901,0.00802913,0.01759404,-0.00142285,-0.00122268,0.003
 47213,-0.02729449,-0.11148425,-0.11443839,-0.00000234,-0.00000039,0.00
 000420,-0.00000381,0.00000165,-0.00000384,0.00000332,0.00000057,-0.000
 00100,0.00000201,-0.00000321,0.00000143,0.00000617,0.00000181,0.000001
 51,-0.00001302,0.00001843,-0.00000331,-0.00000342,-0.00002429,0.000005
 51,0.00000799,0.00000983,0.00000811,-0.00000166,-0.00000345,-0.0000001
 1,0.00000769,0.00000909,-0.00000579,-0.00000282,-0.00001120,0.00000703
 ,-0.00001025,0.00013442,-0.00018759,0.00025143,0.00001000,-0.00059561,
 0.00047232,-0.00316851,-0.00317411,0.03066484,0.11435192,-0.00000044,-
 0.00000318,-0.00000201,0.00001231,0.00000290,-0.00001969,0.00000462,-0
 .00000299,0.00000263,0.00001062,-0.00000295,-0.00000326,-0.00000668,0.
 00000669,0.00000238,0.00000024,0.00000972,-0.00000842,-0.00000004,-0.0
 0000661,0.00006134,-0.00155789,-0.00055683,0.00280291,0.00051025,0.000
 31838,0.00030470,-0.00004631,0.00001960,-0.00023023,-0.00000763,0.0000
 2487,-0.00005780,0.00005848,0.00003370,0.00000384,-0.00014269,0.000367
 54,-0.00015341,0.00083405,-0.00141896,0.00077680,-0.00516906,-0.013150
 45,-0.02340520,0.00171599,0.00371363,-0.00326426,-0.04915822,-0.112677
 56,-0.24514051,-0.00000368,-0.00000421,0.00000456,-0.00000200,0.000004
 05,-0.00000464,0.00000053,0.00000225,0.00000344,-0.00000314,-0.0000014
 5,0.00000264,0.00000277,0.00000208,0.00000066,0.00003961,-0.00000238,0
 .00003159,0.00000088,0.00001537,-0.00000816,-0.00000564,-0.00000006,0.
 00002478,-0.00000863,-0.00000054,0.00001403,0.00000177,0.00001030,-0.0
 0001060,-0.00000281,-0.00000757,-0.00000216,-0.00019076,-0.00013011,0.
 00041783,-0.00056777,0.00070334,0.00040076,0.00128300,0.00122601,0.000
 55639,0.05223276,0.11932383,0.26580808,0.00000165,-0.00000586,0.000002
 00,-0.00003944,0.00002748,0.00001041,-0.00000596,-0.00000332,-0.000002
 52,-0.00002225,0.00001587,-0.00000298,0.00011751,0.00005280,0.00001461
 ,-0.00010416,-0.00010462,-0.00000416,0.00006432,0.00003582,-0.00004147
 ,0.00122138,0.00043231,-0.00038561,0.00046160,-0.00063980,-0.00003313,
 -0.00003926,0.00002383,0.00006723,0.00004235,0.00001693,-0.00002922,0.
 00001668,0.00000246,0.00003112,-0.00070222,-0.00021949,-0.00032574,-0.
 00009464,-0.00047364,0.00186238,0.00404700,-0.00960787,-0.00004368,0.0
 0034115,0.00026325,-0.00033305,-0.11251557,0.12192489,0.00332225,-0.00
 000151,0.00000380,-0.00000200,-0.00000885,0.00000587,0.00000611,0.0000
 1050,0.00000074,-0.00000248,0.00000868,0.00000269,-0.00000525,0.000006
 02,0.00000070,0.00000468,0.00000449,-0.00000947,-0.00000405,-0.0000070
 5,0.00000578,-0.00000125,0.00000140,0.00001844,0.00001868,-0.00000133,
 -0.00000617,0.00000194,0.00000426,0.00001328,-0.00001054,-0.00000374,0
 .00000391,-0.00000382,0.00008094,-0.00032988,0.00008835,0.00000145,-0.
 00018507,-0.00006043,-0.01205600,0.02656032,0.00059648,0.00317789,-0.0
 0807698,0.00016553,0.11599271,-0.00000949,-0.00000775,-0.00000228,-0.0
 0002628,-0.00000457,0.00001734,-0.00002243,0.00000377,-0.00000843,0.00
 000165,-0.00000485,0.00000011,0.00003054,0.00011512,0.00001284,0.00002
 199,-0.00023248,0.00000219,-0.00002176,0.00013578,-0.00005927,0.000693
 03,0.00170869,-0.00122966,0.00076567,-0.00082804,-0.00008186,-0.000024
 91,0.00005044,0.00005146,-0.00000228,-0.00000897,-0.00000298,-0.000008
 56,-0.00001970,0.00000845,-0.00146470,-0.00008927,0.00014151,-0.000169
 02,0.00043759,0.00317663,0.00913928,-0.01592171,-0.00147091,-0.0001142
 5,0.00087305,0.00001321,0.11995049,-0.26009839,-0.00847132,0.00000109,
 0.00000167,-0.00000406,-0.00000589,0.00000828,0.00000681,0.00000398,0.
 00000463,0.00000187,0.00000197,0.00000410,-0.00000349,-0.00000161,0.00
 000119,0.00000203,0.00001546,-0.00000890,-0.00000629,0.00000029,0.0000
 3914,0.00000839,-0.00001148,0.00000449,0.00000286,0.00000600,-0.000001
 85,0.00000020,-0.00000718,0.00000005,-0.00000097,0.00000526,0.00003715
 ,-0.00001450,0.00011064,-0.00085313,0.00022814,-0.00043613,0.00025737,
 0.00019865,-0.00472771,0.00721419,0.00010308,0.00605531,-0.00973957,0.
 00218161,-0.12974898,0.27692248,0.00000070,0.00001109,-0.00000197,0.00
 000125,-0.00000009,0.00002302,-0.00000540,0.00000208,-0.00000352,-0.00
 000198,0.00000040,-0.00000003,0.00001275,-0.00002084,0.00000641,-0.000
 00422,0.00004140,0.00000457,0.00001814,-0.00002718,-0.00004756,-0.0006
 4018,-0.00176063,0.00099766,-0.00099803,0.00054433,-0.00010874,0.00005
 548,-0.00004552,-0.00009967,-0.00003736,-0.00000309,-0.00000983,-0.000
 00531,0.00002880,0.00000612,0.00109412,0.00144069,-0.00002566,0.002494
 32,0.00122556,-0.00342348,-0.01421213,0.02463624,-0.00034632,-0.000783
 93,-0.00006171,0.00072467,0.00503357,-0.01133112,-0.04659078,0.0000029
 7,0.00000383,-0.00000465,0.00000618,-0.00000683,0.00000626,-0.00000304
 ,-0.00000510,-0.00000275,0.00000241,0.00000215,-0.00000163,-0.00000112
 ,-0.00000353,-0.00000062,0.00002162,-0.00000752,0.00001461,-0.00000103
 ,-0.00001105,-0.00002470,0.00000713,-0.00001327,0.00000545,-0.00000015
 ,-0.00000030,0.00000101,0.00000975,-0.00000471,-0.00000154,-0.00000795
 ,-0.00003055,0.00001038,-0.00047151,0.00060499,-0.00003541,0.00000709,
 0.00007137,0.00004716,-0.00066271,0.00127086,-0.00143714,0.01396895,-0
 .02174940,0.00109098,-0.00490039,0.00519864,0.04922769\\-0.00147470,0.
 00100633,-0.00266469,0.01636234,-0.01021846,0.00153682,-0.00398830,-0.
 00117696,-0.00214783,0.00132438,-0.00534532,-0.00128422,-0.02115982,-0
 .01377383,-0.00210085,0.00254881,0.03112353,0.00135803,0.00512655,-0.0
 0060478,0.00180568,-0.00513776,-0.00062176,-0.00188309,-0.00260225,0.0
 3113131,-0.00123608,0.00000295,0.00000475,0.00000919,-0.00031917,-0.00
 071428,0.00195045,0.00032723,-0.00070370,-0.00195072,0.02118506,-0.013
 73811,0.00208453,-0.00130932,-0.00535202,0.00118050,-0.01634303,-0.010
 24070,-0.00150017,0.00398198,-0.00117212,0.00214737,0.00147553,0.00102
 415,0.00266447,0.00069371,0.00074743,-0.00064440,0.00052334,-0.0006912
 1,0.00298465,-0.00096577,0.00045765,0.00092045,-0.00107200,-0.00004258
 ,0.00030866,-0.00109684,-0.00041641,-0.00016673,0.00003633,0.00028865,
 0.00029462,0.00036261,-0.00028349,-0.00035645,-0.00028740,-0.00036965,
 -0.00042611,-0.00003633,0.00029250,-0.00028385,-0.00036349,-0.00028444
 ,0.00035329,0.00028342,-0.00036510,0.00042317,0.00109231,-0.00038374,0
 .00018225,0.00107597,-0.00007450,-0.00029576,0.00096999,0.00045416,-0.
 00092398,-0.00069348,0.00075178,0.00064083,-0.00052283,-0.00070910,-0.
 00298004\\\@

 Writing a WFNX file to "09_lig_b.wfx"


 IF I AM NOT FOR MYSELF, WHO WILL BE?
 BUT IF I AM ONLY FOR MYSELF, WHAT AM I?
 THOUGH A SEEKER SINCE MY BIRTH,
 HERE IS ALL I'VE LEARNED ON EARTH,
 THIS IS THE GIST OF WHAT I KNOW:
 GIVE ADVICE AND BUY A FOE.

 PRESSED FOR RULES AND VERITIES,
 ALL I RECOLLECT ARE THESE:
 FEED A COLD TO STARVE A FEVER,
 ARGUE WITH NO TRUE-BELIEVER.
 THINK-TOO-LONG IS NEVER-ACT,
 SCRATCH A MYTH AND FIND A FACT.

 STITCH IN TIME SAVES TWENTY STITCHES,
 GIVE THE RICH TO PLEASE THEM, RICHES.
 GIVE TO LOVE YOU HEARTH AND HALL,
 BUT DO NOT GIVE ADVICE AT ALL.

                                  -- HILLEL
 Job cpu time:       0 days  1 hours 37 minutes 13.2 seconds.
 Elapsed time:       0 days  0 hours 12 minutes  9.4 seconds.
 File lengths (MBytes):  RWF=    339 Int=      0 D2E=      0 Chk=      7 Scr=      1
 Normal termination of Gaussian 16 at Thu Nov  3 09:29:05 2022.
