 Entering Gaussian System, Link 0=g16
 Initial command:
 /software/gaussian/G16-A.03/avx/g16/l1.exe "/scratch/lcmd/1361342.slurm/Gau-4321.inp" -scrdir="/scratch/lcmd/1361342.slurm/"
 Entering Link 1 = /software/gaussian/G16-A.03/avx/g16/l1.exe PID=      4323.
  
 Copyright (c) 1988,1990,1992,1993,1995,1998,2003,2009,2016,
            Gaussian, Inc.  All Rights Reserved.
  
 This is part of the Gaussian(R) 16 program.  It is based on
 the Gaussian(R) 09 system (copyright 2009, Gaussian, Inc.),
 the Gaussian(R) 03 system (copyright 2003, Gaussian, Inc.),
 the Gaussian(R) 98 system (copyright 1998, Gaussian, Inc.),
 the Gaussian(R) 94 system (copyright 1995, Gaussian, Inc.),
 the Gaussian 92(TM) system (copyright 1992, Gaussian, Inc.),
 the Gaussian 90(TM) system (copyright 1990, Gaussian, Inc.),
 the Gaussian 88(TM) system (copyright 1988, Gaussian, Inc.),
 the Gaussian 86(TM) system (copyright 1986, Carnegie Mellon
 University), and the Gaussian 82(TM) system (copyright 1983,
 Carnegie Mellon University). Gaussian is a federally registered
 trademark of Gaussian, Inc.
  
 This software contains proprietary and confidential information,
 including trade secrets, belonging to Gaussian, Inc.
  
 This software is provided under written license and may be
 used, copied, transmitted, or stored only in accord with that
 written license.
  
 The following legend is applicable only to US Government
 contracts under FAR:
  
                    RESTRICTED RIGHTS LEGEND
  
 Use, reproduction and disclosure by the US Government is
 subject to restrictions as set forth in subparagraphs (a)
 and (c) of the Commercial Computer Software - Restricted
 Rights clause in FAR 52.227-19.
  
 Gaussian, Inc.
 340 Quinnipiac St., Bldg. 40, Wallingford CT 06492
  
  
 ---------------------------------------------------------------
 Warning -- This program may not be used in any manner that
 competes with the business of Gaussian, Inc. or will provide
 assistance to any competitor of Gaussian, Inc.  The licensee
 of this program is prohibited from giving any competitor of
 Gaussian, Inc. access to this program.  By using this program,
 the user acknowledges that Gaussian, Inc. is engaged in the
 business of creating and licensing software in the field of
 computational chemistry and represents and warrants to the
 licensee that it is not a competitor of Gaussian, Inc. and that
 it will not use this program in any manner prohibited above.
 ---------------------------------------------------------------
  

 Cite this work as:
 Gaussian 16, Revision A.03,
 M. J. Frisch, G. W. Trucks, H. B. Schlegel, G. E. Scuseria, 
 M. A. Robb, J. R. Cheeseman, G. Scalmani, V. Barone, 
 G. A. Petersson, H. Nakatsuji, X. Li, M. Caricato, A. V. Marenich, 
 J. Bloino, B. G. Janesko, R. Gomperts, B. Mennucci, H. P. Hratchian, 
 J. V. Ortiz, A. F. Izmaylov, J. L. Sonnenberg, D. Williams-Young, 
 F. Ding, F. Lipparini, F. Egidi, J. Goings, B. Peng, A. Petrone, 
 T. Henderson, D. Ranasinghe, V. G. Zakrzewski, J. Gao, N. Rega, 
 G. Zheng, W. Liang, M. Hada, M. Ehara, K. Toyota, R. Fukuda, 
 J. Hasegawa, M. Ishida, T. Nakajima, Y. Honda, O. Kitao, H. Nakai, 
 T. Vreven, K. Throssell, J. A. Montgomery, Jr., J. E. Peralta, 
 F. Ogliaro, M. J. Bearpark, J. J. Heyd, E. N. Brothers, K. N. Kudin, 
 V. N. Staroverov, T. A. Keith, R. Kobayashi, J. Normand, 
 K. Raghavachari, A. P. Rendell, J. C. Burant, S. S. Iyengar, 
 J. Tomasi, M. Cossi, J. M. Millam, M. Klene, C. Adamo, R. Cammi, 
 J. W. Ochterski, R. L. Martin, K. Morokuma, O. Farkas, 
 J. B. Foresman, and D. J. Fox, Gaussian, Inc., Wallingford CT, 2016.
 
 ******************************************
 Gaussian 16:  ES64L-G16RevA.03 25-Dec-2016
                 3-Nov-2022 
 ******************************************
 %nprocs=8
 Will use up to    8 processors via shared memory.
 %mem=32000MB
 %chk=12_lig_b.chk
 ----------------------------------------------------------------------
 #p pop=(regular,nbo,savenbos) freq=noraman def2svp empiricaldispersion
 =gd3bj output=wfx pbe1pbe
 ----------------------------------------------------------------------
 1/10=4,30=1,38=1/1,3;
 2/12=2,17=6,18=5,40=1/2;
 3/5=43,7=101,11=2,25=1,30=1,71=2,74=-13,124=41,140=1/1,2,3;
 4//1;
 5/5=2,38=5,98=1/2;
 8/6=4,10=90,11=11/1;
 11/6=1,8=1,9=11,15=111,16=1/1,2,10;
 10/6=1/2;
 6/28=1,40=1,73=1/1,7;
 7/8=1,10=1,25=1/1,2,3,16;
 1/10=4,30=1/3;
 99/6=200/99;
 Leave Link    1 at Thu Nov  3 08:04:21 2022, MaxMem=  4194304000 cpu:               0.4 elap:               0.1
 (Enter /software/gaussian/G16-A.03/avx/g16/l101.exe)
 --------
 12_lig_b
 --------
 Symbolic Z-matrix:
 Charge =  0 Multiplicity = 1
 C                     1.47574   1.44118   2.04111 
 C                     1.7227    1.74494   0.54097 
 C                     0.3767    1.69085  -0.14222 
 N                    -0.24069   0.6707   -0.59938 
 C                    -1.5981    1.08051  -1.00204 
 C                    -1.50704   2.62481  -0.86247 
 O                    -0.27018   2.85216  -0.17454 
 C                    -1.86017   0.6495   -2.44149 
 C                    -2.64486   0.51124  -0.04711 
 C                    -2.32948  -0.35955   0.99756 
 C                    -3.3296   -0.84055   1.84209 
 C                    -4.65511  -0.45853   1.66033 
 C                    -4.97953   0.41352   0.62158 
 C                    -3.98207   0.89026  -0.22343 
 N                     2.3516   -0.43505  -0.50602 
 C                     2.6562    0.67326   0.04923 
 O                     3.94012   0.85953   0.33954 
 C                     4.6599   -0.29982  -0.12102 
 C                     3.55237  -1.25991  -0.57664 
 C                     2.35962   3.12726   0.36234 
 H                     1.13995   0.40063   2.17425 
 H                     0.71732   2.13162   2.43618 
 H                     2.41167   1.58515   2.59888 
 H                    -2.31824   3.06062  -0.267 
 H                    -1.44696   3.13203  -1.83796 
 H                    -1.08961   1.06865  -3.10658 
 H                    -2.84499   1.00316  -2.77889 
 H                    -1.82852  -0.44787  -2.50003 
 H                    -1.3055   -0.69565   1.16792 
 H                    -3.05681  -1.53161   2.64273 
 H                    -5.4357   -0.84074   2.32226 
 H                    -6.01607   0.72113   0.46396 
 H                    -4.25666   1.56852  -1.03685 
 H                     5.26448  -0.67702   0.71412 
 H                     5.3269    0.02117  -0.93477 
 H                     3.40385  -2.11231   0.10567 
 H                     3.70121  -1.64499  -1.59549 
 H                     1.70511   3.89541   0.79116 
 H                     2.51791   3.36362  -0.69998 
 H                     3.32957   3.15404   0.87352 
 
 ITRead=  0  0  0  0  0  0  0  0  0  0  0  0  0  0  0  0  0  0  0  0
 ITRead=  0  0  0  0  0  0  0  0  0  0  0  0  0  0  0  0  0  0  0  0
 MicOpt= -1 -1 -1 -1 -1 -1 -1 -1 -1 -1 -1 -1 -1 -1 -1 -1 -1 -1 -1 -1
 MicOpt= -1 -1 -1 -1 -1 -1 -1 -1 -1 -1 -1 -1 -1 -1 -1 -1 -1 -1 -1 -1
 NAtoms=     40 NQM=       40 NQMF=       0 NMMI=      0 NMMIF=      0
                NMic=       0 NMicF=      0.
                    Isotopes and Nuclear Properties:
 (Nuclear quadrupole moments (NQMom) in fm**2, nuclear magnetic moments (NMagM)
  in nuclear magnetons)

  Atom         1           2           3           4           5           6           7           8           9          10
 IAtWgt=          12          12          12          14          12          12          16          12          12          12
 AtmWgt=  12.0000000  12.0000000  12.0000000  14.0030740  12.0000000  12.0000000  15.9949146  12.0000000  12.0000000  12.0000000
 NucSpn=           0           0           0           2           0           0           0           0           0           0
 AtZEff=  -0.0000000  -0.0000000  -0.0000000  -0.0000000  -0.0000000  -0.0000000  -0.0000000  -0.0000000  -0.0000000  -0.0000000
 NQMom=    0.0000000   0.0000000   0.0000000   2.0440000   0.0000000   0.0000000   0.0000000   0.0000000   0.0000000   0.0000000
 NMagM=    0.0000000   0.0000000   0.0000000   0.4037610   0.0000000   0.0000000   0.0000000   0.0000000   0.0000000   0.0000000
 AtZNuc=   6.0000000   6.0000000   6.0000000   7.0000000   6.0000000   6.0000000   8.0000000   6.0000000   6.0000000   6.0000000

  Atom        11          12          13          14          15          16          17          18          19          20
 IAtWgt=          12          12          12          12          14          12          16          12          12          12
 AtmWgt=  12.0000000  12.0000000  12.0000000  12.0000000  14.0030740  12.0000000  15.9949146  12.0000000  12.0000000  12.0000000
 NucSpn=           0           0           0           0           2           0           0           0           0           0
 AtZEff=  -0.0000000  -0.0000000  -0.0000000  -0.0000000  -0.0000000  -0.0000000  -0.0000000  -0.0000000  -0.0000000  -0.0000000
 NQMom=    0.0000000   0.0000000   0.0000000   0.0000000   2.0440000   0.0000000   0.0000000   0.0000000   0.0000000   0.0000000
 NMagM=    0.0000000   0.0000000   0.0000000   0.0000000   0.4037610   0.0000000   0.0000000   0.0000000   0.0000000   0.0000000
 AtZNuc=   6.0000000   6.0000000   6.0000000   6.0000000   7.0000000   6.0000000   8.0000000   6.0000000   6.0000000   6.0000000

  Atom        21          22          23          24          25          26          27          28          29          30
 IAtWgt=           1           1           1           1           1           1           1           1           1           1
 AtmWgt=   1.0078250   1.0078250   1.0078250   1.0078250   1.0078250   1.0078250   1.0078250   1.0078250   1.0078250   1.0078250
 NucSpn=           1           1           1           1           1           1           1           1           1           1
 AtZEff=  -0.0000000  -0.0000000  -0.0000000  -0.0000000  -0.0000000  -0.0000000  -0.0000000  -0.0000000  -0.0000000  -0.0000000
 NQMom=    0.0000000   0.0000000   0.0000000   0.0000000   0.0000000   0.0000000   0.0000000   0.0000000   0.0000000   0.0000000
 NMagM=    2.7928460   2.7928460   2.7928460   2.7928460   2.7928460   2.7928460   2.7928460   2.7928460   2.7928460   2.7928460
 AtZNuc=   1.0000000   1.0000000   1.0000000   1.0000000   1.0000000   1.0000000   1.0000000   1.0000000   1.0000000   1.0000000

  Atom        31          32          33          34          35          36          37          38          39          40
 IAtWgt=           1           1           1           1           1           1           1           1           1           1
 AtmWgt=   1.0078250   1.0078250   1.0078250   1.0078250   1.0078250   1.0078250   1.0078250   1.0078250   1.0078250   1.0078250
 NucSpn=           1           1           1           1           1           1           1           1           1           1
 AtZEff=  -0.0000000  -0.0000000  -0.0000000  -0.0000000  -0.0000000  -0.0000000  -0.0000000  -0.0000000  -0.0000000  -0.0000000
 NQMom=    0.0000000   0.0000000   0.0000000   0.0000000   0.0000000   0.0000000   0.0000000   0.0000000   0.0000000   0.0000000
 NMagM=    2.7928460   2.7928460   2.7928460   2.7928460   2.7928460   2.7928460   2.7928460   2.7928460   2.7928460   2.7928460
 AtZNuc=   1.0000000   1.0000000   1.0000000   1.0000000   1.0000000   1.0000000   1.0000000   1.0000000   1.0000000   1.0000000
 Leave Link  101 at Thu Nov  3 08:04:22 2022, MaxMem=  4194304000 cpu:               1.0 elap:               0.1
 (Enter /software/gaussian/G16-A.03/avx/g16/l103.exe)

 GradGradGradGradGradGradGradGradGradGradGradGradGradGradGradGradGradGrad
 Berny optimization.
 Initialization pass.
 Trust Radius=3.00D-01 FncErr=1.00D-07 GrdErr=1.00D-07 EigMax=2.50D+02 EigMin=1.00D-04
 Number of steps in this run=      2 maximum allowed number of steps=      2.
 GradGradGradGradGradGradGradGradGradGradGradGradGradGradGradGradGradGrad

 Leave Link  103 at Thu Nov  3 08:04:22 2022, MaxMem=  4194304000 cpu:               0.2 elap:               0.0
 (Enter /software/gaussian/G16-A.03/avx/g16/l202.exe)
                          Input orientation:                          
 ---------------------------------------------------------------------
 Center     Atomic      Atomic             Coordinates (Angstroms)
 Number     Number       Type             X           Y           Z
 ---------------------------------------------------------------------
      1          6           0        1.475740    1.441180    2.041110
      2          6           0        1.722700    1.744940    0.540970
      3          6           0        0.376700    1.690850   -0.142220
      4          7           0       -0.240690    0.670700   -0.599380
      5          6           0       -1.598100    1.080510   -1.002040
      6          6           0       -1.507040    2.624810   -0.862470
      7          8           0       -0.270180    2.852160   -0.174540
      8          6           0       -1.860170    0.649500   -2.441490
      9          6           0       -2.644860    0.511240   -0.047110
     10          6           0       -2.329480   -0.359550    0.997560
     11          6           0       -3.329600   -0.840550    1.842090
     12          6           0       -4.655110   -0.458530    1.660330
     13          6           0       -4.979530    0.413520    0.621580
     14          6           0       -3.982070    0.890260   -0.223430
     15          7           0        2.351600   -0.435050   -0.506020
     16          6           0        2.656200    0.673260    0.049230
     17          8           0        3.940120    0.859530    0.339540
     18          6           0        4.659900   -0.299820   -0.121020
     19          6           0        3.552370   -1.259910   -0.576640
     20          6           0        2.359620    3.127260    0.362340
     21          1           0        1.139950    0.400630    2.174250
     22          1           0        0.717320    2.131620    2.436180
     23          1           0        2.411670    1.585150    2.598880
     24          1           0       -2.318240    3.060620   -0.267000
     25          1           0       -1.446960    3.132030   -1.837960
     26          1           0       -1.089610    1.068650   -3.106580
     27          1           0       -2.844990    1.003160   -2.778890
     28          1           0       -1.828520   -0.447870   -2.500030
     29          1           0       -1.305500   -0.695650    1.167920
     30          1           0       -3.056810   -1.531610    2.642730
     31          1           0       -5.435700   -0.840740    2.322260
     32          1           0       -6.016070    0.721130    0.463960
     33          1           0       -4.256660    1.568520   -1.036850
     34          1           0        5.264480   -0.677020    0.714120
     35          1           0        5.326900    0.021170   -0.934770
     36          1           0        3.403850   -2.112310    0.105670
     37          1           0        3.701210   -1.644990   -1.595490
     38          1           0        1.705110    3.895410    0.791160
     39          1           0        2.517910    3.363620   -0.699980
     40          1           0        3.329570    3.154040    0.873520
 ---------------------------------------------------------------------
                    Distance matrix (angstroms):
                    1          2          3          4          5
     1  C    0.000000
     2  C    1.550380   0.000000
     3  C    2.457062   1.510427   0.000000
     4  N    3.242215   2.511830   1.277056   0.000000
     5  C    4.340431   3.721567   2.238669   1.473988   0.000000
     6  C    4.327671   3.629743   2.222503   2.343375   1.553266
     7  O    3.154078   2.389448   1.329714   2.222640   2.363656
     8  C    5.643470   4.788738   3.372631   2.452862   1.525276
     9  C    4.712196   4.576400   3.245050   2.471935   1.526979
    10  C    4.337202   4.588847   3.581431   2.823947   2.570426
    11  C    5.323269   5.822663   4.907355   4.217347   3.844170
    12  C    6.429713   6.839935   5.760914   5.086114   4.336147
    13  C    6.688921   6.833671   5.559151   4.900356   3.809867
    14  C    5.934589   5.818865   4.432428   3.766626   2.515103
    15  N    3.282566   2.498812   2.924386   2.819817   4.259470
    16  C    2.439421   1.503904   2.503650   2.968615   4.401146
    17  O    3.050709   2.396138   3.690684   4.289102   5.702679
    18  C    4.224306   3.639563   4.723242   5.018617   6.468699
    19  C    4.296614   3.691323   4.356671   4.256181   5.673259
    20  C    2.538184   1.532444   2.499965   3.704214   4.659857
    21  H    1.101465   2.194167   2.759212   3.110005   4.248291
    22  H    1.099085   2.179938   2.637887   3.502384   4.276372
    23  H    1.098999   2.176053   3.415539   4.254421   5.412905
    24  H    4.726970   4.325855   3.025647   3.184087   2.231529
    25  H    5.142794   4.198818   2.877198   3.007875   2.220437
    26  H    5.763550   4.655220   3.365208   2.676767   2.165131
    27  H    6.487909   5.695217   4.219506   3.412209   2.172076
    28  H    5.925251   5.164035   3.872517   2.717512   2.152443
    29  H    3.614388   3.939485   3.200257   2.474688   2.819412
    30  H    5.453754   6.164162   5.470757   4.826176   4.715438
    31  H    7.283832   7.816740   6.801956   6.148867   5.428568
    32  H    7.689804   7.806579   6.494253   5.872670   4.668701
    33  H    6.507723   6.186549   4.720525   4.138294   2.703203
    34  H    4.538967   4.294191   5.498229   5.817949   7.288973
    35  H    5.069884   4.259043   5.283980   5.615375   7.005880
    36  H    4.482279   4.230145   4.867146   4.639495   6.036607
    37  H    5.263271   4.468846   4.928711   4.679020   5.988591
    38  H    2.763735   2.165046   2.737874   4.014784   4.695788
    39  H    3.506489   2.189164   2.773813   3.856399   4.716500
    40  H    2.780979   2.162911   3.448492   4.591641   5.665614
                    6          7          8          9         10
     6  C    0.000000
     7  O    1.433443   0.000000
     8  C    2.553401   3.538198   0.000000
     9  C    2.535079   3.336952   2.523472   0.000000
    10  C    3.611443   3.991192   3.614623   1.396093   0.000000
    11  C    4.758686   5.202207   4.767445   2.421834   1.394572
    12  C    5.077583   5.792670   5.085700   2.810144   2.420251
    13  C    4.376116   5.362718   4.378184   2.430510   2.785994
    14  C    3.089144   4.198758   3.078996   1.401027   2.404973
    15  N    4.937500   4.217743   4.760389   5.105945   4.917211
    16  C    4.687463   3.655322   5.157698   5.304410   5.179096
    17  O    5.850863   4.686308   6.435962   6.605510   6.420828
    18  C    6.865447   5.851797   6.985492   7.350020   7.078575
    19  C    6.385169   5.628738   6.034824   6.467073   6.155072
    20  C    4.087013   2.698105   5.639804   5.661804   5.877840
    21  H    4.601652   3.676313   5.510691   4.389927   3.741580
    22  H    4.009003   2.882741   5.712425   4.482925   4.190292
    23  H    5.330865   4.060726   6.673034   5.807154   5.368853
    24  H    1.096613   2.060717   3.278984   2.579607   3.646478
    25  H    1.101119   2.056722   2.588039   3.392735   4.583683
    26  H    2.762591   3.528347   1.100815   3.477048   4.518960
    27  H    2.844736   4.102571   1.099447   2.782923   4.047753
    28  H    3.496615   4.327416   1.099386   2.757375   3.534388
    29  H    3.897250   3.932053   3.891648   2.174113   1.091110
    30  H    5.653675   5.909294   5.660255   3.402672   2.146932
    31  H    6.130817   6.823058   6.139914   3.902634   3.411008
    32  H    5.070973   6.161511   5.071319   3.416183   3.878601
    33  H    2.950689   4.275901   2.925880   2.166870   3.401514
    34  H    7.696831   6.623993   7.904313   8.034245   7.605876
    35  H    7.313474   6.318208   7.370141   8.035986   7.905631
    36  H    6.891621   6.182473   6.467266   6.594941   6.061246
    37  H    6.774539   6.165663   6.075306   6.878911   6.689207
    38  H    3.829729   2.433663   5.804927   5.574724   5.867299
    39  H    4.095420   2.882902   5.437544   5.934350   6.343566
    40  H    5.165902   3.761351   6.647963   6.597406   6.662248
                   11         12         13         14         15
    11  C    0.000000
    12  C    1.391385   0.000000
    13  C    2.405121   1.394533   0.000000
    14  C    2.772687   2.412627   1.391492   0.000000
    15  N    6.160689   7.334004   7.465723   6.477012   0.000000
    16  C    6.429290   7.571780   7.661555   6.647410   1.276493
    17  O    7.615560   8.795439   8.935246   7.942227   2.216823
    18  C    8.244895   9.485136   9.694273   8.724129   2.344091
    19  C    7.306684   8.544529   8.776640   7.843199   1.458503
    20  C    7.092278   7.984304   7.829094   6.750135   3.666629
    21  H    4.650563   5.880900   6.313397   5.676592   3.057827
    22  H    5.056115   6.014468   6.220831   5.540647   4.232636
    23  H    6.278450   7.415988   7.740302   7.023405   3.704756
    24  H    4.548652   4.643272   3.857354   2.735085   5.838171
    25  H    5.733105   5.951670   5.091040   3.749536   5.378400
    26  H    5.757772   6.145608   5.427693   4.087873   4.567926
    27  H    4.998757   5.011960   4.057971   2.799299   5.851404
    28  H    4.611013   5.029744   4.518330   3.407532   4.631376
    29  H    2.138336   3.393903   3.876499   3.408078   4.030430
    30  H    1.092247   2.161290   3.400798   3.864768   6.353579
    31  H    2.160144   1.092500   2.161845   3.404400   8.294926
    32  H    3.399295   2.162201   1.092650   2.153663   8.502677
    33  H    3.866698   3.397422   2.146382   1.094115   6.925689
    34  H    8.669329   9.967011  10.302310   9.425182   3.167359
    35  H    9.131731  10.324978  10.430660   9.376473   3.040456
    36  H    7.069079   8.372502   8.770806   7.979696   2.072341
    37  H    7.867425   9.046333   9.192829   8.206268   2.114792
    38  H    6.991572   7.756587   7.539014   6.511861   4.566564
    39  H    7.637443   8.463575   8.164632   6.970965   3.807253
    40  H    7.825562   8.799139   8.753003   7.732275   3.967508
                   16         17         18         19         20
    16  C    0.000000
    17  O    1.329446   0.000000
    18  C    2.233984   1.440240   0.000000
    19  C    2.220806   2.341316   1.534922   0.000000
    20  C    2.491609   2.764254   4.155695   4.642370   0.000000
    21  H    2.624700   3.379009   4.260158   4.018029   3.493583
    22  H    3.403469   4.049760   5.291040   5.349492   2.826528
    23  H    2.718833   2.822641   4.000688   4.413558   2.717154
    24  H    5.526712   6.661813   7.746503   7.295678   4.720475
    25  H    5.142272   6.239102   7.212435   6.772988   4.396748
    26  H    4.913915   6.100628   6.621416   5.776744   5.307398
    27  H    6.194367   7.468799   8.067553   7.134256   6.439495
    28  H    5.279050   6.561224   6.912395   5.771725   6.206064
    29  H    4.338254   5.533654   6.115885   5.192377   5.356931
    30  H    6.650276   7.744628   8.288741   7.356591   7.499531
    31  H    8.540358   9.732836  10.401123   9.453292   8.964002
    32  H    8.682313   9.957929  10.740618   9.826618   8.715043
    33  H    7.054693   8.341722   9.156117   8.318219   6.939925
    34  H    3.011388   2.062820   1.097841   2.221968   4.799428
    35  H    2.919951   2.061522   1.100051   2.217742   4.487208
    36  H    2.884713   3.028880   2.216793   1.101903   5.348775
    37  H    3.028437   3.173963   2.214188   1.099316   5.329853
    38  H    3.440535   3.796814   5.211795   5.644517   1.096506
    39  H    2.796154   3.061658   4.283002   4.739446   1.099748
    40  H    2.699472   2.433656   3.832497   4.651404   1.096734
                   21         22         23         24         25
    21  H    0.000000
    22  H    1.800986   0.000000
    23  H    1.789042   1.787714   0.000000
    24  H    4.999433   4.169514   5.723839   0.000000
    25  H    5.500043   4.894201   6.080083   1.797816   0.000000
    26  H    5.770992   5.925967   6.714016   3.679768   2.448394
    27  H    6.385639   6.415639   7.542652   3.289407   2.715129
    28  H    5.601844   6.123826   6.936228   4.187571   3.660548
    29  H    2.862648   3.700505   4.589885   4.146589   4.868928
    30  H    4.643901   5.263646   6.294473   5.486401   6.664663
    31  H    6.693436   6.834293   8.218435   5.625250   7.000027
    32  H    7.364539   7.156652   8.736774   4.436379   5.655797
    33  H    6.387373   6.092577   7.595093   2.564469   3.313722
    34  H    4.506113   5.615213   4.099788   8.510593   8.128063
    35  H    5.228819   6.088147   4.840587   8.254232   7.508554
    36  H    3.964736   5.537117   4.568559   7.722720   7.403456
    37  H    4.995553   6.278594   5.448803   7.755091   7.027259
    38  H    3.800767   2.606295   3.017346   4.243103   4.174993
    39  H    4.351928   3.820399   3.749229   4.864939   4.131444
    40  H    3.750680   3.211090   2.506157   5.762575   5.492526
                   26         27         28         29         30
    26  H    0.000000
    27  H    1.786905   0.000000
    28  H    1.792686   1.793450   0.000000
    29  H    4.629332   4.564350   3.713328   0.000000
    30  H    6.609523   5.988647   5.397330   2.437413   0.000000
    31  H    7.211558   6.011113   6.034946   4.290933   2.497823
    32  H    6.094221   4.544377   5.261879   4.969134   4.310348
    33  H    3.816262   2.312390   3.478877   4.323982   4.958806
    34  H    7.617058   8.988194   7.790630   6.585660   8.584505
    35  H    6.854602   8.434742   7.339623   6.994560   9.246417
    36  H    6.374029   7.554789   6.077642   5.031230   6.965200
    37  H    5.709570   7.160019   5.729677   5.796967   7.977857
    38  H    5.567172   6.466357   6.494810   5.503049   7.453639
    39  H    4.906405   6.217261   6.054675   5.880917   8.137229
    40  H    6.302317   7.489431   7.138661   6.032467   8.116112
                   31         32         33         34         35
    31  H    0.000000
    32  H    2.495906   0.000000
    33  H    4.298638   2.462930   0.000000
    34  H   10.821588  11.369618   9.937829   0.000000
    35  H   11.277619  11.450299   9.708210   1.791704   0.000000
    36  H    9.201511   9.843355   8.575388   2.427388   3.054893
    37  H    9.973901  10.211042   8.600373   2.952131   2.419816
    38  H    8.704398   8.354624   6.655730   5.795012   5.577269
    39  H    9.490547   9.009236   7.016457   5.086266   4.372359
    40  H    9.741000   9.665805   7.982122   4.294916   4.132084
                   36         37         38         39         40
    36  H    0.000000
    37  H    1.789066   0.000000
    38  H    6.280789   6.354254   0.000000
    39  H    5.605334   5.223822   1.779591   0.000000
    40  H    5.322551   5.409696   1.787535   1.782868   0.000000
 Stoichiometry    C16H20N2O2
 Framework group  C1[X(C16H20N2O2)]
 Deg. of freedom   114
 Full point group                 C1      NOp   1
 Largest Abelian subgroup         C1      NOp   1
 Largest concise Abelian subgroup C1      NOp   1
                         Standard orientation:                         
 ---------------------------------------------------------------------
 Center     Atomic      Atomic             Coordinates (Angstroms)
 Number     Number       Type             X           Y           Z
 ---------------------------------------------------------------------
      1          6           0       -1.528648   -0.253815   -2.091868
      2          6           0       -1.843898    0.598737   -0.835901
      3          6           0       -0.524838    0.874290   -0.153597
      4          7           0        0.105589    0.140880    0.680395
      5          6           0        1.432625    0.734551    0.923647
      6          6           0        1.298990    2.097060    0.189927
      7          8           0        0.083711    1.983886   -0.561770
      8          6           0        1.651083    0.909895    2.422979
      9          6           0        2.533461   -0.114773    0.292399
     10          6           0        2.286826   -1.336531   -0.336531
     11          6           0        3.333976   -2.063722   -0.901777
     12          6           0        4.638725   -1.583017   -0.851731
     13          6           0        4.894583   -0.362006   -0.228523
     14          6           0        3.850204    0.361570    0.338892
     15          7           0       -2.445238   -1.027169    0.963787
     16          6           0       -2.762155   -0.237032    0.012640
     17          8           0       -4.038823   -0.235294   -0.358229
     18          6           0       -4.739666   -1.154436    0.501009
     19          6           0       -3.621533   -1.811568    1.321948
     20          6           0       -2.530189    1.912004   -1.226696
     21          1           0       -1.155564   -1.248205   -1.799940
     22          1           0       -0.777163    0.261097   -2.706785
     23          1           0       -2.445905   -0.379762   -2.683963
     24          1           0        2.119033    2.302013   -0.508704
     25          1           0        1.184712    2.940818    0.888120
     26          1           0        0.842205    1.520454    2.852779
     27          1           0        2.610324    1.410066    2.619117
     28          1           0        1.651410   -0.078365    2.904635
     29          1           0        1.281343   -1.757249   -0.386748
     30          1           0        3.114650   -3.023244   -1.375293
     31          1           0        5.456343   -2.157917   -1.292807
     32          1           0        5.914001    0.028094   -0.178602
     33          1           0        4.071223    1.314369    0.829211
     34          1           0       -5.298797   -1.853251   -0.134826
     35          1           0       -5.447911   -0.571753    1.108448
     36          1           0       -3.419710   -2.854886    1.030494
     37          1           0       -3.798322   -1.775819    2.406366
     38          1           0       -1.883577    2.480693   -1.905525
     39          1           0       -2.737523    2.536023   -0.345186
     40          1           0       -3.479602    1.694870   -1.730970
 ---------------------------------------------------------------------
 Rotational constants (GHZ):           0.6889305           0.1937860           0.1837588
 Leave Link  202 at Thu Nov  3 08:04:22 2022, MaxMem=  4194304000 cpu:               0.1 elap:               0.1
 (Enter /software/gaussian/G16-A.03/avx/g16/l301.exe)
 Standard basis: def2SVP (5D, 7F)
 Ernie: Thresh=  0.10000D-02 Tol=  0.10000D-05 Strict=F.
 There are   400 symmetry adapted cartesian basis functions of A   symmetry.
 There are   380 symmetry adapted basis functions of A   symmetry.
   380 basis functions,   640 primitive gaussians,   400 cartesian basis functions
    73 alpha electrons       73 beta electrons
       nuclear repulsion energy      1587.3554628787 Hartrees.
 IExCor= 1009 DFT=T Ex+Corr=PBE1PBE ExCW=0 ScaHFX=  0.250000
 ScaDFX=  0.750000  0.750000  1.000000  1.000000 ScalE2=  1.000000  1.000000
 IRadAn=      5 IRanWt=     -1 IRanGd=            0 ICorTp=0 IEmpDi=141
 NAtoms=   40 NActive=   40 NUniq=   40 SFac= 1.00D+00 NAtFMM=   60 NAOKFM=F Big=F
 Integral buffers will be    131072 words long.
 Raffenetti 2 integral format.
 Two-electron integral symmetry is turned on.
 R6Disp:  Grimme-D3(BJ) Dispersion energy=       -0.0435327028 Hartrees.
 Nuclear repulsion after empirical dispersion term =     1587.3119301759 Hartrees.
 Leave Link  301 at Thu Nov  3 08:04:22 2022, MaxMem=  4194304000 cpu:               0.7 elap:               0.2
 (Enter /software/gaussian/G16-A.03/avx/g16/l302.exe)
 NPDir=0 NMtPBC=     1 NCelOv=     1 NCel=       1 NClECP=     1 NCelD=      1
         NCelK=      1 NCelE2=     1 NClLst=     1 CellRange=     0.0.
 One-electron integrals computed using PRISM.
 One-electron integral symmetry used in STVInt
   1 Symmetry operations used in ECPInt.
 ECPInt:  NShTT=   16290 NPrTT=   58290 LenC2=   14855 LenP2D=   37412.
 LDataN:  DoStor=T MaxTD1= 4 Len=   56
 NBasis=   380 RedAO= T EigKep=  2.75D-04  NBF=   380
 NBsUse=   380 1.00D-06 EigRej= -1.00D+00 NBFU=   380
 Precomputing XC quadrature grid using
 IXCGrd= 4 IRadAn=           5 IRanWt=          -1 IRanGd=           0 AccXCQ= 0.00D+00.
 Generated NRdTot=       0 NPtTot=           0 NUsed=           0 NTot=          32
 NSgBfM=   398   398   398   398   398 MxSgAt=    40 MxSgA2=    40.
 Leave Link  302 at Thu Nov  3 08:04:23 2022, MaxMem=  4194304000 cpu:               6.5 elap:               0.9
 (Enter /software/gaussian/G16-A.03/avx/g16/l303.exe)
 DipDrv:  MaxL=1.
 Leave Link  303 at Thu Nov  3 08:04:23 2022, MaxMem=  4194304000 cpu:               0.5 elap:               0.1
 (Enter /software/gaussian/G16-A.03/avx/g16/l401.exe)
 ExpMin= 1.22D-01 ExpMax= 2.27D+03 ExpMxC= 3.41D+02 IAcc=3 IRadAn=         5 AccDes= 0.00D+00
 Harris functional with IExCor= 1009 and IRadAn=       5 diagonalized for initial guess.
 HarFok:  IExCor= 1009 AccDes= 0.00D+00 IRadAn=         5 IDoV= 1 UseB2=F ITyADJ=14
 ICtDFT=  3500011 ScaDFX=  1.000000  1.000000  1.000000  1.000000
 FoFCou: FMM=F IPFlag=           0 FMFlag=      100000 FMFlg1=           0
         NFxFlg=           0 DoJE=T BraDBF=F KetDBF=T FulRan=T
         wScrn=  0.000000 ICntrl=       500 IOpCl=  0 I1Cent=   200000004 NGrid=           0
         NMat0=    1 NMatS0=      1 NMatT0=    0 NMatD0=    1 NMtDS0=    0 NMtDT0=    0
 Petite list used in FoFCou.
 Harris En= -880.262374819189    
 JPrj=0 DoOrth=F DoCkMO=F.
 Leave Link  401 at Thu Nov  3 08:04:28 2022, MaxMem=  4194304000 cpu:              34.7 elap:               4.4
 (Enter /software/gaussian/G16-A.03/avx/g16/l502.exe)
 Integral symmetry usage will be decided dynamically.
 Closed shell SCF:
 Using DIIS extrapolation, IDIIS=  1040.
 NGot=  4194304000 LenX=  4193976428 LenY=  4193815987
 Requested convergence on RMS density matrix=1.00D-08 within 128 cycles.
 Requested convergence on MAX density matrix=1.00D-06.
 Requested convergence on             energy=1.00D-06.
 No special actions if energy rises.
 Fock matrices will be formed incrementally for  20 cycles.
 Integral accuracy reduced to 1.0D-05 until final iterations.

 Cycle   1  Pass 0  IDiag  1:
 FoFJK:  IHMeth= 1 ICntrl=       0 DoSepK=F KAlg= 0 I1Cent=           0 FoldK=F
 IRaf= 840000000 NMat=       1 IRICut=       1 DoRegI=T DoRafI=F ISym2E= 0 IDoP0=0 IntGTp=1.
 FoFCou: FMM=F IPFlag=           0 FMFlag=      100000 FMFlg1=           0
         NFxFlg=           0 DoJE=F BraDBF=F KetDBF=F FulRan=T
         wScrn=  0.000000 ICntrl=         0 IOpCl=  0 I1Cent=           0 NGrid=           0
         NMat0=    1 NMatS0=      1 NMatT0=    0 NMatD0=    1 NMtDS0=    0 NMtDT0=    0
 Symmetry not used in FoFCou.
 E= -879.675859034465    
 DIIS: error= 2.75D-02 at cycle   1 NSaved=   1.
 NSaved= 1 IEnMin= 1 EnMin= -879.675859034465     IErMin= 1 ErrMin= 2.75D-02
 ErrMax= 2.75D-02  0.00D+00 EMaxC= 1.00D-01 BMatC= 3.62D-01 BMatP= 3.62D-01
 IDIUse=3 WtCom= 7.25D-01 WtEn= 2.75D-01
 Coeff-Com:  0.100D+01
 Coeff-En:   0.100D+01
 Coeff:      0.100D+01
 Gap=     0.279 Goal=   None    Shift=    0.000
 GapD=    0.279 DampG=1.000 DampE=0.500 DampFc=0.5000 IDamp=-1.
 Damping current iteration by 5.00D-01
 RMSDP=4.38D-03 MaxDP=2.08D-01              OVMax= 2.33D-01

 Cycle   2  Pass 0  IDiag  1:
 RMSU=  2.16D-03    CP:  9.79D-01
 E= -879.842687039502     Delta-E=       -0.166828005037 Rises=F Damp=T
 DIIS: error= 5.49D-03 at cycle   2 NSaved=   2.
 NSaved= 2 IEnMin= 2 EnMin= -879.842687039502     IErMin= 2 ErrMin= 5.49D-03
 ErrMax= 5.49D-03  0.00D+00 EMaxC= 1.00D-01 BMatC= 3.10D-02 BMatP= 3.62D-01
 IDIUse=3 WtCom= 9.45D-01 WtEn= 5.49D-02
 Coeff-Com:  0.799D-01 0.920D+00
 Coeff-En:   0.117D+00 0.883D+00
 Coeff:      0.819D-01 0.918D+00
 Gap=     0.307 Goal=   None    Shift=    0.000
 RMSDP=1.43D-03 MaxDP=4.27D-02 DE=-1.67D-01 OVMax= 1.88D-01

 Cycle   3  Pass 0  IDiag  1:
 RMSU=  1.39D-03    CP:  9.65D-01  8.83D-01
 E= -880.020673162925     Delta-E=       -0.177986123423 Rises=F Damp=F
 DIIS: error= 1.15D-02 at cycle   3 NSaved=   3.
 NSaved= 3 IEnMin= 3 EnMin= -880.020673162925     IErMin= 2 ErrMin= 5.49D-03
 ErrMax= 1.15D-02  0.00D+00 EMaxC= 1.00D-01 BMatC= 4.69D-02 BMatP= 3.10D-02
 IDIUse=2 WtCom= 0.00D+00 WtEn= 1.00D+00
 Coeff-En:   0.000D+00 0.000D+00 0.100D+01
 Coeff:      0.000D+00 0.000D+00 0.100D+01
 Gap=     0.241 Goal=   None    Shift=    0.000
 RMSDP=2.08D-03 MaxDP=9.07D-02 DE=-1.78D-01 OVMax= 2.13D-01

 Cycle   4  Pass 0  IDiag  1:
 RMSU=  1.18D-03    CP:  9.72D-01  1.35D+00  3.44D-03
 E= -879.846336742769     Delta-E=        0.174336420156 Rises=F Damp=F
 DIIS: error= 2.42D-02 at cycle   4 NSaved=   4.
 NSaved= 4 IEnMin= 3 EnMin= -880.020673162925     IErMin= 2 ErrMin= 5.49D-03
 ErrMax= 2.42D-02  0.00D+00 EMaxC= 1.00D-01 BMatC= 2.42D-01 BMatP= 3.10D-02
 IDIUse=2 WtCom= 0.00D+00 WtEn= 1.00D+00
 Coeff-En:   0.000D+00 0.000D+00 0.782D+00 0.218D+00
 Coeff:      0.000D+00 0.000D+00 0.782D+00 0.218D+00
 Gap=     0.227 Goal=   None    Shift=    0.000
 RMSDP=1.12D-03 MaxDP=6.23D-02 DE= 1.74D-01 OVMax= 1.06D-01

 Cycle   5  Pass 0  IDiag  1:
 RMSU=  1.69D-04    CP:  9.69D-01  1.07D+00  5.23D-01  4.99D-01
 E= -880.047270451967     Delta-E=       -0.200933709198 Rises=F Damp=F
 DIIS: error= 6.88D-03 at cycle   5 NSaved=   5.
 NSaved= 5 IEnMin= 5 EnMin= -880.047270451967     IErMin= 2 ErrMin= 5.49D-03
 ErrMax= 6.88D-03  0.00D+00 EMaxC= 1.00D-01 BMatC= 1.77D-02 BMatP= 3.10D-02
 IDIUse=3 WtCom= 9.31D-01 WtEn= 6.88D-02
 Coeff-Com: -0.246D-02 0.161D-01 0.268D+00-0.113D+00 0.831D+00
 Coeff-En:   0.000D+00 0.000D+00 0.320D+00 0.000D+00 0.680D+00
 Coeff:     -0.229D-02 0.150D-01 0.271D+00-0.105D+00 0.821D+00
 Gap=     0.241 Goal=   None    Shift=    0.000
 RMSDP=3.87D-04 MaxDP=1.75D-02 DE=-2.01D-01 OVMax= 3.71D-02

 Cycle   6  Pass 0  IDiag  1:
 RMSU=  4.75D-05    CP:  9.67D-01  9.94D-01  7.06D-01  3.06D-01  9.22D-01
 E= -880.062915491922     Delta-E=       -0.015645039955 Rises=F Damp=F
 DIIS: error= 2.28D-04 at cycle   6 NSaved=   6.
 NSaved= 6 IEnMin= 6 EnMin= -880.062915491922     IErMin= 6 ErrMin= 2.28D-04
 ErrMax= 2.28D-04  0.00D+00 EMaxC= 1.00D-01 BMatC= 3.85D-05 BMatP= 1.77D-02
 IDIUse=3 WtCom= 9.98D-01 WtEn= 2.28D-03
 Coeff-Com: -0.213D-02 0.681D-02 0.127D+00-0.709D-01 0.465D+00 0.475D+00
 Coeff-En:   0.000D+00 0.000D+00 0.000D+00 0.000D+00 0.000D+00 0.100D+01
 Coeff:     -0.212D-02 0.680D-02 0.126D+00-0.707D-01 0.464D+00 0.476D+00
 Gap=     0.240 Goal=   None    Shift=    0.000
 RMSDP=2.59D-05 MaxDP=9.05D-04 DE=-1.56D-02 OVMax= 2.25D-03

 Cycle   7  Pass 0  IDiag  1:
 RMSU=  1.51D-05    CP:  9.67D-01  9.96D-01  7.05D-01  3.11D-01  9.22D-01
                    CP:  5.89D-01
 E= -880.062951852105     Delta-E=       -0.000036360183 Rises=F Damp=F
 DIIS: error= 8.34D-05 at cycle   7 NSaved=   7.
 NSaved= 7 IEnMin= 7 EnMin= -880.062951852105     IErMin= 7 ErrMin= 8.34D-05
 ErrMax= 8.34D-05  0.00D+00 EMaxC= 1.00D-01 BMatC= 4.27D-06 BMatP= 3.85D-05
 IDIUse=1 WtCom= 1.00D+00 WtEn= 0.00D+00
 Coeff-Com: -0.718D-03 0.132D-02 0.414D-01-0.259D-01 0.161D+00 0.278D+00
 Coeff-Com:  0.545D+00
 Coeff:     -0.718D-03 0.132D-02 0.414D-01-0.259D-01 0.161D+00 0.278D+00
 Coeff:      0.545D+00
 Gap=     0.241 Goal=   None    Shift=    0.000
 RMSDP=7.26D-06 MaxDP=2.42D-04 DE=-3.64D-05 OVMax= 5.28D-04

 Initial convergence to 1.0D-05 achieved.  Increase integral accuracy.
 Cycle   8  Pass 1  IDiag  1:
 E= -880.062946634119     Delta-E=        0.000005217986 Rises=F Damp=F
 DIIS: error= 1.02D-04 at cycle   1 NSaved=   1.
 NSaved= 1 IEnMin= 1 EnMin= -880.062946634119     IErMin= 1 ErrMin= 1.02D-04
 ErrMax= 1.02D-04  0.00D+00 EMaxC= 1.00D-01 BMatC= 2.18D-06 BMatP= 2.18D-06
 IDIUse=3 WtCom= 9.99D-01 WtEn= 1.02D-03
 Coeff-Com:  0.100D+01
 Coeff-En:   0.100D+01
 Coeff:      0.100D+01
 Gap=     0.241 Goal=   None    Shift=    0.000
 RMSDP=7.26D-06 MaxDP=2.42D-04 DE= 5.22D-06 OVMax= 3.37D-04

 Cycle   9  Pass 1  IDiag  1:
 RMSU=  8.20D-05    CP:  1.00D+00
 E= -880.062948186274     Delta-E=       -0.000001552155 Rises=F Damp=F
 DIIS: error= 3.71D-05 at cycle   2 NSaved=   2.
 NSaved= 2 IEnMin= 2 EnMin= -880.062948186274     IErMin= 2 ErrMin= 3.71D-05
 ErrMax= 3.71D-05  0.00D+00 EMaxC= 1.00D-01 BMatC= 8.04D-07 BMatP= 2.18D-06
 IDIUse=1 WtCom= 1.00D+00 WtEn= 0.00D+00
 Coeff-Com:  0.320D+00 0.680D+00
 Coeff:      0.320D+00 0.680D+00
 Gap=     0.240 Goal=   None    Shift=    0.000
 RMSDP=5.61D-06 MaxDP=2.88D-04 DE=-1.55D-06 OVMax= 4.30D-04

 Cycle  10  Pass 1  IDiag  1:
 RMSU=  5.54D-06    CP:  1.00D+00  1.01D+00
 E= -880.062948173810     Delta-E=        0.000000012464 Rises=F Damp=F
 DIIS: error= 4.06D-05 at cycle   3 NSaved=   3.
 NSaved= 3 IEnMin= 2 EnMin= -880.062948186274     IErMin= 2 ErrMin= 3.71D-05
 ErrMax= 4.06D-05  0.00D+00 EMaxC= 1.00D-01 BMatC= 8.33D-07 BMatP= 8.04D-07
 IDIUse=1 WtCom= 1.00D+00 WtEn= 0.00D+00
 Coeff-Com:  0.135D-01 0.501D+00 0.485D+00
 Coeff:      0.135D-01 0.501D+00 0.485D+00
 Gap=     0.241 Goal=   None    Shift=    0.000
 RMSDP=2.98D-06 MaxDP=1.74D-04 DE= 1.25D-08 OVMax= 2.56D-04

 Cycle  11  Pass 1  IDiag  1:
 RMSU=  1.06D-06    CP:  1.00D+00  1.02D+00  5.11D-01
 E= -880.062948871354     Delta-E=       -0.000000697545 Rises=F Damp=F
 DIIS: error= 7.11D-06 at cycle   4 NSaved=   4.
 NSaved= 4 IEnMin= 4 EnMin= -880.062948871354     IErMin= 4 ErrMin= 7.11D-06
 ErrMax= 7.11D-06  0.00D+00 EMaxC= 1.00D-01 BMatC= 3.46D-08 BMatP= 8.04D-07
 IDIUse=1 WtCom= 1.00D+00 WtEn= 0.00D+00
 Coeff-Com: -0.453D-02 0.284D+00 0.301D+00 0.420D+00
 Coeff:     -0.453D-02 0.284D+00 0.301D+00 0.420D+00
 Gap=     0.241 Goal=   None    Shift=    0.000
 RMSDP=5.93D-07 MaxDP=2.80D-05 DE=-6.98D-07 OVMax= 3.48D-05

 Cycle  12  Pass 1  IDiag  1:
 RMSU=  2.02D-07    CP:  1.00D+00  1.02D+00  5.23D-01  4.79D-01
 E= -880.062948902754     Delta-E=       -0.000000031400 Rises=F Damp=F
 DIIS: error= 1.10D-06 at cycle   5 NSaved=   5.
 NSaved= 5 IEnMin= 5 EnMin= -880.062948902754     IErMin= 5 ErrMin= 1.10D-06
 ErrMax= 1.10D-06  0.00D+00 EMaxC= 1.00D-01 BMatC= 4.88D-10 BMatP= 3.46D-08
 IDIUse=1 WtCom= 1.00D+00 WtEn= 0.00D+00
 Coeff-Com: -0.295D-02 0.166D+00 0.177D+00 0.256D+00 0.404D+00
 Coeff:     -0.295D-02 0.166D+00 0.177D+00 0.256D+00 0.404D+00
 Gap=     0.241 Goal=   None    Shift=    0.000
 RMSDP=6.82D-08 MaxDP=3.16D-06 DE=-3.14D-08 OVMax= 5.98D-06

 Cycle  13  Pass 1  IDiag  1:
 RMSU=  6.09D-08    CP:  1.00D+00  1.02D+00  5.21D-01  4.83D-01  8.60D-01
 E= -880.062948903168     Delta-E=       -0.000000000413 Rises=F Damp=F
 DIIS: error= 1.83D-07 at cycle   6 NSaved=   6.
 NSaved= 6 IEnMin= 6 EnMin= -880.062948903168     IErMin= 6 ErrMin= 1.83D-07
 ErrMax= 1.83D-07  0.00D+00 EMaxC= 1.00D-01 BMatC= 1.69D-11 BMatP= 4.88D-10
 IDIUse=1 WtCom= 1.00D+00 WtEn= 0.00D+00
 Coeff-Com: -0.976D-03 0.520D-01 0.554D-01 0.824D-01 0.191D+00 0.620D+00
 Coeff:     -0.976D-03 0.520D-01 0.554D-01 0.824D-01 0.191D+00 0.620D+00
 Gap=     0.241 Goal=   None    Shift=    0.000
 RMSDP=1.86D-08 MaxDP=1.01D-06 DE=-4.13D-10 OVMax= 1.68D-06

 Cycle  14  Pass 1  IDiag  1:
 RMSU=  1.58D-08    CP:  1.00D+00  1.02D+00  5.22D-01  4.83D-01  8.88D-01
                    CP:  8.88D-01
 E= -880.062948903175     Delta-E=       -0.000000000008 Rises=F Damp=F
 DIIS: error= 6.29D-08 at cycle   7 NSaved=   7.
 NSaved= 7 IEnMin= 7 EnMin= -880.062948903175     IErMin= 7 ErrMin= 6.29D-08
 ErrMax= 6.29D-08  0.00D+00 EMaxC= 1.00D-01 BMatC= 4.22D-12 BMatP= 1.69D-11
 IDIUse=1 WtCom= 1.00D+00 WtEn= 0.00D+00
 Coeff-Com: -0.545D-04 0.149D-02 0.165D-02 0.398D-02 0.363D-01 0.367D+00
 Coeff-Com:  0.590D+00
 Coeff:     -0.545D-04 0.149D-02 0.165D-02 0.398D-02 0.363D-01 0.367D+00
 Coeff:      0.590D+00
 Gap=     0.241 Goal=   None    Shift=    0.000
 RMSDP=7.72D-09 MaxDP=3.38D-07 DE=-7.73D-12 OVMax= 4.79D-07

 SCF Done:  E(RPBE1PBE) =  -880.062948903     A.U. after   14 cycles
            NFock= 14  Conv=0.77D-08     -V/T= 2.0099
 KE= 8.714403569080D+02 PE=-5.220375815549D+03 EE= 1.881560579562D+03
 Leave Link  502 at Thu Nov  3 08:06:13 2022, MaxMem=  4194304000 cpu:             844.8 elap:             105.6
 (Enter /software/gaussian/G16-A.03/avx/g16/l801.exe)
 DoSCS=F DFT=T ScalE2(SS,OS)=  1.000000  1.000000
 Range of M.O.s used for correlation:     1   380
 NBasis=   380 NAE=    73 NBE=    73 NFC=     0 NFV=     0
 NROrb=    380 NOA=    73 NOB=    73 NVA=   307 NVB=   307

 **** Warning!!: The largest alpha MO coefficient is  0.12201659D+02

 Leave Link  801 at Thu Nov  3 08:06:13 2022, MaxMem=  4194304000 cpu:               0.2 elap:               0.0
 (Enter /software/gaussian/G16-A.03/avx/g16/l1101.exe)
 Using compressed storage, NAtomX=    40.
 Will process     41 centers per pass.
   1 Symmetry operations used in ECPInt.
 ECPInt:  NShTT=   16290 NPrTT=   58290 LenC2=   14855 LenP2D=   37412.
 LDataN:  DoStor=T MaxTD1= 5 Len=  102
 R6Disp: Adding Grimme-D3(BJ) dispersion energy 1st derivatives to the gradient.
 Leave Link 1101 at Thu Nov  3 08:06:14 2022, MaxMem=  4194304000 cpu:               6.2 elap:               0.8
 (Enter /software/gaussian/G16-A.03/avx/g16/l1102.exe)
 Symmetrizing basis deriv contribution to polar:
 IMax=3 JMax=2 DiffMx= 0.00D+00
 Leave Link 1102 at Thu Nov  3 08:06:14 2022, MaxMem=  4194304000 cpu:               0.5 elap:               0.1
 (Enter /software/gaussian/G16-A.03/avx/g16/l1110.exe)
 Forming Gx(P) for the SCF density, NAtomX=    40.
 Integral derivatives from FoFJK, PRISM(SPDF).
 Do as many integral derivatives as possible in FoFJK.
 G2DrvN: MDV=    4194300984.
 G2DrvN: will do    41 centers at a time, making    1 passes.
 Calling FoFCou, ICntrl=  3107 FMM=F I1Cent=   0 AccDes= 0.00D+00.
 FoFJK:  IHMeth= 1 ICntrl=    3107 DoSepK=F KAlg= 0 I1Cent=           0 FoldK=F
 IRaf=         0 NMat=       1 IRICut=       1 DoRegI=T DoRafI=F ISym2E= 0 IDoP0=0 IntGTp=1.
 FoFCou: FMM=F IPFlag=           0 FMFlag=      100000 FMFlg1=           0
         NFxFlg=           0 DoJE=F BraDBF=F KetDBF=F FulRan=T
         wScrn=  0.000000 ICntrl=      3107 IOpCl=  0 I1Cent=           0 NGrid=           0
         NMat0=    1 NMatS0=      1 NMatT0=    0 NMatD0=    1 NMtDS0=    0 NMtDT0=    0
 Symmetry not used in FoFCou.
 End of G2Drv F.D. properties file   721 does not exist.
 End of G2Drv F.D. properties file   722 does not exist.
 End of G2Drv F.D. properties file   788 does not exist.
 Leave Link 1110 at Thu Nov  3 08:12:19 2022, MaxMem=  4194304000 cpu:            2918.7 elap:             364.9
 (Enter /software/gaussian/G16-A.03/avx/g16/l1002.exe)
 Minotr:  Closed shell wavefunction.
          IDoAtm=1111111111111111111111111111111111111111
          Direct CPHF calculation.
          Differentiating once with respect to electric field.
                with respect to dipole field.
          Differentiating once with respect to nuclear coordinates.
          Requested convergence is 1.0D-08 RMS, and 1.0D-07 maximum.
          Secondary convergence is 1.0D-12 RMS, and 1.0D-12 maximum.
          NewPWx=T KeepS1=F KeepF1=F KeepIn=T MapXYZ=F SortEE=F KeepMc=T.
        12110 words used for storage of precomputed grid.
 Keep R1 ints in memory in canonical form, NReq=2652451758.
 FoFCou: FMM=F IPFlag=           0 FMFlag=           0 FMFlg1=           0
         NFxFlg=           0 DoJE=F BraDBF=F KetDBF=F FulRan=T
         wScrn=  0.000000 ICntrl=       600 IOpCl=  0 I1Cent=           0 NGrid=           0
         NMat0=    1 NMatS0=  72390 NMatT0=    0 NMatD0=    1 NMtDS0=    0 NMtDT0=    0
 Symmetry not used in FoFCou.
 Two-electron integral symmetry not used.
          MDV=    4194304000 using IRadAn=       1.
          Solving linear equations simultaneously, MaxMat=       0.
          There are   123 degrees of freedom in the 1st order CPHF.  IDoFFX=6 NUNeed=     3.
    120 vectors produced by pass  0 Test12= 2.24D-14 1.00D-09 XBig12= 1.57D+02 5.27D+00.
 AX will form   120 AO Fock derivatives at one time.
    120 vectors produced by pass  1 Test12= 2.24D-14 1.00D-09 XBig12= 3.59D+01 1.44D+00.
    120 vectors produced by pass  2 Test12= 2.24D-14 1.00D-09 XBig12= 3.45D-01 4.64D-02.
    120 vectors produced by pass  3 Test12= 2.24D-14 1.00D-09 XBig12= 1.34D-03 2.28D-03.
    120 vectors produced by pass  4 Test12= 2.24D-14 1.00D-09 XBig12= 3.15D-06 1.09D-04.
     96 vectors produced by pass  5 Test12= 2.24D-14 1.00D-09 XBig12= 3.61D-09 4.43D-06.
     21 vectors produced by pass  6 Test12= 2.24D-14 1.00D-09 XBig12= 3.99D-12 1.36D-07.
      3 vectors produced by pass  7 Test12= 2.24D-14 1.00D-09 XBig12= 3.92D-15 3.82D-09.
 InvSVY:  IOpt=1 It=  1 EMax= 1.24D-14
 Solved reduced A of dimension   720 with   123 vectors.
 FullF1:  Do perturbations      1 to       3.
 Isotropic polarizability for W=    0.000000      179.41 Bohr**3.
 End of Minotr F.D. properties file   721 does not exist.
 End of Minotr F.D. properties file   722 does not exist.
 End of Minotr F.D. properties file   788 does not exist.
 Leave Link 1002 at Thu Nov  3 08:19:35 2022, MaxMem=  4194304000 cpu:            3491.0 elap:             436.4
 (Enter /software/gaussian/G16-A.03/avx/g16/l601.exe)
 Copying SCF densities to generalized density rwf, IOpCl= 0 IROHF=0.

 **********************************************************************

            Population analysis using the SCF density.

 **********************************************************************

 Orbital symmetries:
       Occupied  (A) (A) (A) (A) (A) (A) (A) (A) (A) (A) (A) (A)
                 (A) (A) (A) (A) (A) (A) (A) (A) (A) (A) (A) (A)
                 (A) (A) (A) (A) (A) (A) (A) (A) (A) (A) (A) (A)
                 (A) (A) (A) (A) (A) (A) (A) (A) (A) (A) (A) (A)
                 (A) (A) (A) (A) (A) (A) (A) (A) (A) (A) (A) (A)
                 (A) (A) (A) (A) (A) (A) (A) (A) (A) (A) (A) (A)
                 (A)
       Virtual   (A) (A) (A) (A) (A) (A) (A) (A) (A) (A) (A) (A)
                 (A) (A) (A) (A) (A) (A) (A) (A) (A) (A) (A) (A)
                 (A) (A) (A) (A) (A) (A) (A) (A) (A) (A) (A) (A)
                 (A) (A) (A) (A) (A) (A) (A) (A) (A) (A) (A) (A)
                 (A) (A) (A) (A) (A) (A) (A) (A) (A) (A) (A) (A)
                 (A) (A) (A) (A) (A) (A) (A) (A) (A) (A) (A) (A)
                 (A) (A) (A) (A) (A) (A) (A) (A) (A) (A) (A) (A)
                 (A) (A) (A) (A) (A) (A) (A) (A) (A) (A) (A) (A)
                 (A) (A) (A) (A) (A) (A) (A) (A) (A) (A) (A) (A)
                 (A) (A) (A) (A) (A) (A) (A) (A) (A) (A) (A) (A)
                 (A) (A) (A) (A) (A) (A) (A) (A) (A) (A) (A) (A)
                 (A) (A) (A) (A) (A) (A) (A) (A) (A) (A) (A) (A)
                 (A) (A) (A) (A) (A) (A) (A) (A) (A) (A) (A) (A)
                 (A) (A) (A) (A) (A) (A) (A) (A) (A) (A) (A) (A)
                 (A) (A) (A) (A) (A) (A) (A) (A) (A) (A) (A) (A)
                 (A) (A) (A) (A) (A) (A) (A) (A) (A) (A) (A) (A)
                 (A) (A) (A) (A) (A) (A) (A) (A) (A) (A) (A) (A)
                 (A) (A) (A) (A) (A) (A) (A) (A) (A) (A) (A) (A)
                 (A) (A) (A) (A) (A) (A) (A) (A) (A) (A) (A) (A)
                 (A) (A) (A) (A) (A) (A) (A) (A) (A) (A) (A) (A)
                 (A) (A) (A) (A) (A) (A) (A) (A) (A) (A) (A) (A)
                 (A) (A) (A) (A) (A) (A) (A) (A) (A) (A) (A) (A)
                 (A) (A) (A) (A) (A) (A) (A) (A) (A) (A) (A) (A)
                 (A) (A) (A) (A) (A) (A) (A) (A) (A) (A) (A) (A)
                 (A) (A) (A) (A) (A) (A) (A) (A) (A) (A) (A) (A)
                 (A) (A) (A) (A) (A) (A) (A)
 The electronic state is 1-A.
 Alpha  occ. eigenvalues --  -19.24586 -19.24503 -14.35330 -14.35279 -10.31464
 Alpha  occ. eigenvalues --  -10.31171 -10.29076 -10.28618 -10.27329 -10.27169
 Alpha  occ. eigenvalues --  -10.25757 -10.24040 -10.23746 -10.23546 -10.23494
 Alpha  occ. eigenvalues --  -10.23275 -10.23207 -10.22842 -10.22787 -10.22402
 Alpha  occ. eigenvalues --   -1.12110  -1.11866  -0.91864  -0.90664  -0.87234
 Alpha  occ. eigenvalues --   -0.85665  -0.80281  -0.76973  -0.75627  -0.74510
 Alpha  occ. eigenvalues --   -0.71506  -0.70405  -0.65927  -0.64311  -0.63347
 Alpha  occ. eigenvalues --   -0.61714  -0.59616  -0.58268  -0.54903  -0.53461
 Alpha  occ. eigenvalues --   -0.52182  -0.51739  -0.50332  -0.48633  -0.47707
 Alpha  occ. eigenvalues --   -0.46595  -0.45747  -0.44670  -0.44494  -0.44253
 Alpha  occ. eigenvalues --   -0.43712  -0.42742  -0.42025  -0.41506  -0.40940
 Alpha  occ. eigenvalues --   -0.40305  -0.39442  -0.37947  -0.37665  -0.37321
 Alpha  occ. eigenvalues --   -0.37027  -0.36454  -0.35965  -0.35505  -0.34903
 Alpha  occ. eigenvalues --   -0.34572  -0.33862  -0.28308  -0.26205  -0.25840
 Alpha  occ. eigenvalues --   -0.25215  -0.24764  -0.24319
 Alpha virt. eigenvalues --   -0.00268   0.00315   0.02691   0.03684   0.06303
 Alpha virt. eigenvalues --    0.07230   0.08287   0.08892   0.10586   0.11174
 Alpha virt. eigenvalues --    0.11612   0.11847   0.12431   0.12995   0.13144
 Alpha virt. eigenvalues --    0.13772   0.13995   0.14333   0.15015   0.15302
 Alpha virt. eigenvalues --    0.15506   0.16715   0.17158   0.17799   0.18211
 Alpha virt. eigenvalues --    0.19129   0.19351   0.19998   0.20527   0.21367
 Alpha virt. eigenvalues --    0.22432   0.24828   0.25275   0.26872   0.27364
 Alpha virt. eigenvalues --    0.28051   0.29326   0.30643   0.32060   0.32673
 Alpha virt. eigenvalues --    0.33708   0.34914   0.35498   0.36750   0.39905
 Alpha virt. eigenvalues --    0.41624   0.41731   0.42051   0.43311   0.43660
 Alpha virt. eigenvalues --    0.44924   0.45466   0.46106   0.47114   0.47662
 Alpha virt. eigenvalues --    0.48932   0.49524   0.49946   0.50618   0.51074
 Alpha virt. eigenvalues --    0.51422   0.51539   0.53233   0.54283   0.55232
 Alpha virt. eigenvalues --    0.55904   0.56352   0.56991   0.57927   0.59489
 Alpha virt. eigenvalues --    0.59908   0.60956   0.61775   0.62357   0.63235
 Alpha virt. eigenvalues --    0.64035   0.64168   0.64278   0.64719   0.64972
 Alpha virt. eigenvalues --    0.65488   0.66167   0.66236   0.66661   0.66868
 Alpha virt. eigenvalues --    0.67302   0.67696   0.68211   0.68440   0.68550
 Alpha virt. eigenvalues --    0.69555   0.69631   0.70193   0.70497   0.71270
 Alpha virt. eigenvalues --    0.71381   0.71652   0.71950   0.72529   0.72945
 Alpha virt. eigenvalues --    0.73599   0.73887   0.74998   0.75633   0.76453
 Alpha virt. eigenvalues --    0.76998   0.77795   0.78472   0.78857   0.79997
 Alpha virt. eigenvalues --    0.80252   0.82502   0.83358   0.84680   0.86508
 Alpha virt. eigenvalues --    0.87609   0.89297   0.90584   0.91158   0.93279
 Alpha virt. eigenvalues --    0.94619   0.95359   0.96820   0.99258   0.99600
 Alpha virt. eigenvalues --    1.03988   1.05432   1.07090   1.08563   1.09808
 Alpha virt. eigenvalues --    1.11195   1.12705   1.15498   1.17892   1.18971
 Alpha virt. eigenvalues --    1.21274   1.22758   1.24371   1.24616   1.25983
 Alpha virt. eigenvalues --    1.28324   1.29126   1.29691   1.30447   1.32535
 Alpha virt. eigenvalues --    1.33594   1.34080   1.34529   1.35259   1.37524
 Alpha virt. eigenvalues --    1.38791   1.41526   1.43758   1.45424   1.47539
 Alpha virt. eigenvalues --    1.48397   1.49242   1.52760   1.54748   1.54934
 Alpha virt. eigenvalues --    1.55876   1.57482   1.58026   1.60671   1.61752
 Alpha virt. eigenvalues --    1.63280   1.64290   1.64831   1.66453   1.67903
 Alpha virt. eigenvalues --    1.68321   1.69294   1.70586   1.71095   1.71458
 Alpha virt. eigenvalues --    1.72565   1.73219   1.74532   1.75477   1.76257
 Alpha virt. eigenvalues --    1.76385   1.76929   1.77442   1.77796   1.78547
 Alpha virt. eigenvalues --    1.79739   1.80203   1.80317   1.80464   1.80683
 Alpha virt. eigenvalues --    1.81782   1.82580   1.83320   1.84114   1.84372
 Alpha virt. eigenvalues --    1.85482   1.86072   1.86395   1.87263   1.87683
 Alpha virt. eigenvalues --    1.88703   1.89815   1.90135   1.91472   1.92423
 Alpha virt. eigenvalues --    1.92947   1.94431   1.94995   1.95491   1.96250
 Alpha virt. eigenvalues --    1.96541   1.98248   1.99268   2.00114   2.01123
 Alpha virt. eigenvalues --    2.01252   2.02500   2.03622   2.06229   2.06428
 Alpha virt. eigenvalues --    2.06771   2.09407   2.09693   2.11821   2.14174
 Alpha virt. eigenvalues --    2.14656   2.16016   2.16624   2.18309   2.19537
 Alpha virt. eigenvalues --    2.21238   2.22864   2.25830   2.26294   2.28557
 Alpha virt. eigenvalues --    2.30796   2.31258   2.32391   2.33572   2.33823
 Alpha virt. eigenvalues --    2.34279   2.35427   2.36313   2.36911   2.38804
 Alpha virt. eigenvalues --    2.39829   2.41557   2.42458   2.44344   2.46466
 Alpha virt. eigenvalues --    2.49385   2.49931   2.52486   2.54456   2.56241
 Alpha virt. eigenvalues --    2.59075   2.61753   2.62215   2.63993   2.64694
 Alpha virt. eigenvalues --    2.65501   2.66470   2.67153   2.68670   2.71215
 Alpha virt. eigenvalues --    2.73040   2.74091   2.74323   2.75106   2.76459
 Alpha virt. eigenvalues --    2.79782   2.81139   2.83393   2.85267   2.86576
 Alpha virt. eigenvalues --    2.87496   2.88615   2.89489   2.90313   2.91187
 Alpha virt. eigenvalues --    2.91698   2.93301   2.95028   2.96110   2.96488
 Alpha virt. eigenvalues --    2.96818   3.00769   3.01337   3.01590   3.03079
 Alpha virt. eigenvalues --    3.04665   3.05522   3.07301   3.08037   3.09546
 Alpha virt. eigenvalues --    3.12122   3.15081   3.16622   3.19267   3.26540
 Alpha virt. eigenvalues --    3.27685   3.35156   3.40563   3.47817   3.62940
 Alpha virt. eigenvalues --    3.65340   3.67165
     Molecular Orbital Coefficients:
                          69        70        71        72        73
                           O         O         O         O         O
     Eigenvalues --    -0.26205  -0.25840  -0.25215  -0.24764  -0.24319
   1 1   C  1S          0.00093  -0.01260  -0.01251   0.00198  -0.00508
   2        2S         -0.00342   0.02973   0.02904  -0.00074   0.00878
   3        3S          0.00662   0.02529   0.04573  -0.03991   0.03144
   4        4PX         0.00583   0.00119  -0.00266   0.00514   0.01335
   5        4PY        -0.00642   0.01003   0.00906   0.00402   0.01117
   6        4PZ        -0.00971   0.06139   0.06779  -0.01491   0.02535
   7        5PX         0.00130  -0.01000  -0.00565  -0.01587   0.01153
   8        5PY        -0.00625  -0.00872  -0.00869  -0.00058  -0.00069
   9        5PZ        -0.01142   0.04314   0.06484  -0.02422   0.02744
  10        6D 0       -0.00016   0.00058   0.00068   0.00039   0.00035
  11        6D+1       -0.00004  -0.00107  -0.00025  -0.00346  -0.00229
  12        6D-1       -0.00049   0.00130   0.00196  -0.00192  -0.00024
  13        6D+2        0.00016  -0.00178  -0.00158   0.00002   0.00003
  14        6D-2        0.00013  -0.00094  -0.00119   0.00025  -0.00108
  15 2   C  1S         -0.00103  -0.00176  -0.00339  -0.00133   0.00002
  16        2S         -0.00007   0.00145   0.00917  -0.00015  -0.00380
  17        3S          0.03322   0.02423   0.00920   0.05117   0.05105
  18        4PX        -0.00575   0.03471   0.02375  -0.01398  -0.05772
  19        4PY         0.00245  -0.01955  -0.02855   0.00065  -0.04415
  20        4PZ         0.01073  -0.02984  -0.02643   0.00743  -0.00555
  21        5PX         0.01047   0.04100  -0.02838   0.07836  -0.09278
  22        5PY        -0.00573   0.05539   0.06736   0.01218  -0.02475
  23        5PZ         0.01603  -0.06034  -0.05460   0.01013   0.00337
  24        6D 0       -0.00062   0.00470   0.00565  -0.00094   0.00266
  25        6D+1       -0.00014   0.00091  -0.00134   0.00416  -0.00400
  26        6D-1       -0.00086   0.00528   0.00499   0.00014   0.00029
  27        6D+2        0.00030  -0.00114  -0.00003  -0.00515  -0.00048
  28        6D-2       -0.00017   0.00003  -0.00069   0.00374   0.00024
  29 3   C  1S          0.00033  -0.00203  -0.00710   0.00744   0.03455
  30        2S          0.00128   0.00582   0.01512  -0.01767  -0.09162
  31        3S         -0.03144  -0.01341   0.08024  -0.06858   0.00582
  32        4PX         0.00784  -0.06037  -0.02138  -0.08311  -0.01820
  33        4PY        -0.01476   0.05958   0.05107   0.08040   0.02707
  34        4PZ        -0.01324   0.11431   0.08239   0.07981  -0.03426
  35        5PX         0.01073  -0.02621  -0.02101   0.00541  -0.04705
  36        5PY        -0.00421   0.05852   0.01512   0.03618  -0.06427
  37        5PZ        -0.00631   0.08593   0.05766   0.09565   0.01347
  38        6D 0       -0.00172   0.02034   0.01614   0.01571  -0.00356
  39        6D+1       -0.00036   0.00113  -0.00138  -0.00740  -0.01182
  40        6D-1       -0.00001  -0.00389  -0.00214  -0.00864  -0.00701
  41        6D+2       -0.00025   0.01157   0.00996   0.00172  -0.01613
  42        6D-2       -0.00045   0.00774   0.00852   0.01102   0.00659
  43 4   N  1S          0.00348  -0.01350  -0.01345   0.03074   0.07121
  44        2S          0.00790  -0.02759  -0.02521   0.06624   0.15053
  45        3S          0.00940  -0.04725  -0.06929   0.07445   0.19413
  46        4PX        -0.00572   0.06292   0.05016   0.13697   0.11665
  47        4PY         0.02122  -0.19593  -0.15963  -0.00335   0.28621
  48        4PZ         0.01791  -0.16565  -0.13763  -0.22838  -0.09780
  49        5PX         0.00149  -0.05490  -0.02915  -0.09318  -0.05011
  50        5PY        -0.01367   0.13749   0.11573   0.00677  -0.18691
  51        5PZ        -0.01365   0.12423   0.11493   0.16536   0.07539
  52        6D 0        0.00121  -0.01390  -0.00861  -0.00858   0.00525
  53        6D+1        0.00051  -0.00017   0.00105   0.00366   0.00239
  54        6D-1       -0.00053   0.00103   0.00168   0.00814   0.00883
  55        6D+2        0.00047  -0.00635  -0.00444  -0.00114   0.00647
  56        6D-2        0.00001  -0.00299  -0.00369  -0.00878  -0.00809
  57 5   C  1S          0.00058  -0.00174  -0.00094   0.01213   0.02256
  58        2S         -0.00310   0.00743   0.00562  -0.02384  -0.05592
  59        3S          0.01882  -0.02225  -0.05800  -0.10409  -0.07765
  60        4PX         0.00240  -0.00392   0.01132   0.06499   0.09736
  61        4PY         0.00486  -0.03929  -0.08176  -0.02049   0.08542
  62        4PZ         0.00425  -0.11664   0.01153  -0.04047  -0.01838
  63        5PX         0.01238  -0.03979  -0.01951   0.01367   0.08905
  64        5PY        -0.02156   0.01279  -0.00940  -0.01537  -0.02207
  65        5PZ         0.00744  -0.01425   0.02604   0.05022   0.01550
  66        6D 0       -0.00057  -0.01493   0.00166  -0.00489  -0.00222
  67        6D+1        0.00045  -0.00274  -0.00799  -0.01242  -0.00774
  68        6D-1       -0.00007  -0.00530   0.00471  -0.00171  -0.00520
  69        6D+2       -0.00136   0.00558   0.01049   0.00133  -0.01350
  70        6D-2        0.00084  -0.01117  -0.00286  -0.00313   0.00404
  71 6   C  1S          0.00315  -0.00854   0.02366  -0.00249  -0.02408
  72        2S         -0.00706   0.02000  -0.05936   0.00616   0.05783
  73        3S         -0.00354   0.02560  -0.06779   0.05120   0.14309
  74        4PX        -0.01475   0.00124  -0.04823  -0.03940   0.01218
  75        4PY        -0.00597  -0.00404   0.11182   0.01312  -0.10520
  76        4PZ         0.01518   0.04383   0.01042   0.04691   0.04971
  77        5PX        -0.00507   0.00145  -0.01963  -0.00027   0.02060
  78        5PY        -0.01465  -0.00717   0.04594  -0.03038  -0.09551
  79        5PZ         0.02356  -0.00160  -0.01143   0.01569   0.05599
  80        6D 0       -0.00049   0.00384   0.00363   0.00369  -0.00122
  81        6D+1        0.00087   0.00092   0.00235   0.00499   0.00319
  82        6D-1        0.00004   0.00374   0.00838   0.00741  -0.00031
  83        6D+2        0.00051  -0.00842  -0.00373  -0.00431   0.00200
  84        6D-2       -0.00056   0.00292   0.00079   0.00057  -0.00130
  85 7   O  1S          0.00212  -0.00041  -0.00310   0.00167   0.01358
  86        2S          0.00402  -0.00220  -0.00582   0.00497   0.03046
  87        3S          0.01374  -0.01121  -0.01615   0.00840   0.07525
  88        4PX         0.00521   0.07894   0.10562   0.11173  -0.01761
  89        4PY         0.00124  -0.07153  -0.09601  -0.14797  -0.07753
  90        4PZ         0.00754  -0.20723  -0.12784  -0.12487   0.06509
  91        5PX         0.00393   0.06547   0.08878   0.08293  -0.02229
  92        5PY         0.00233  -0.06209  -0.07573  -0.11865  -0.06221
  93        5PZ         0.00720  -0.16928  -0.10620  -0.10932   0.04804
  94        6D 0        0.00033  -0.00361  -0.00286  -0.00276   0.00145
  95        6D+1        0.00071  -0.00055  -0.00004   0.00091   0.00118
  96        6D-1        0.00014   0.00113   0.00103   0.00005  -0.00191
  97        6D+2       -0.00040   0.00013  -0.00197  -0.00029   0.00012
  98        6D-2       -0.00026  -0.00185  -0.00070  -0.00239  -0.00233
  99 8   C  1S         -0.00277   0.03107  -0.00128   0.01508   0.00945
 100        2S          0.00746  -0.07202   0.00278  -0.03918  -0.02640
 101        3S         -0.00255  -0.12523   0.00457  -0.06825  -0.03517
 102        4PX         0.01499   0.02088   0.03897   0.03036  -0.00791
 103        4PY         0.00309   0.02790  -0.01140   0.00227   0.00318
 104        4PZ        -0.00221   0.13764  -0.00844   0.05746   0.03055
 105        5PX         0.00444   0.02864   0.01924   0.00354  -0.03187
 106        5PY         0.01583   0.00990  -0.01058   0.00461   0.00814
 107        5PZ         0.00762   0.08068  -0.00575   0.03536   0.00813
 108        6D 0        0.00021  -0.00529  -0.00067  -0.00271  -0.00048
 109        6D+1        0.00057  -0.00199   0.00205  -0.00068  -0.00244
 110        6D-1       -0.00046   0.00192   0.00145  -0.00007  -0.00295
 111        6D+2       -0.00037   0.00118   0.00094   0.00067  -0.00087
 112        6D-2        0.00083  -0.00135   0.00296   0.00133  -0.00058
 113 9   C  1S          0.00154  -0.02173  -0.01609  -0.01717   0.00431
 114        2S         -0.00320   0.05566   0.03814   0.04055  -0.01210
 115        3S         -0.02932   0.10360   0.11751   0.07726  -0.07780
 116        4PX         0.00500  -0.03980  -0.08612  -0.07509   0.00627
 117        4PY        -0.00737  -0.05680   0.15043   0.07310  -0.03491
 118        4PZ         0.00279   0.24131  -0.16620  -0.03194   0.02977
 119        5PX         0.01545  -0.04702  -0.08302  -0.07186   0.03223
 120        5PY        -0.01066  -0.03644   0.10057   0.07778  -0.00898
 121        5PZ         0.00066   0.17681  -0.11911  -0.01971   0.01344
 122        6D 0       -0.00871  -0.00547   0.00411   0.00093  -0.00098
 123        6D+1       -0.01216   0.00197  -0.00563  -0.00184   0.00214
 124        6D-1       -0.00988  -0.00199   0.00214   0.00151   0.00043
 125        6D+2       -0.00892  -0.00081   0.00132  -0.00103  -0.00341
 126        6D-2        0.00438  -0.00482   0.00183  -0.00191  -0.00221
 127 10  C  1S          0.00032  -0.00251  -0.00249  -0.00087   0.00251
 128        2S          0.00078   0.00749   0.00494   0.00245  -0.00708
 129        3S         -0.00627   0.00276  -0.00013  -0.00786  -0.01356
 130        4PX         0.04678  -0.00343  -0.03818  -0.00921   0.03283
 131        4PY        -0.13741  -0.09601   0.03180   0.00834   0.01264
 132        4PZ         0.25650   0.11073  -0.11079  -0.04817   0.01498
 133        5PX         0.03058   0.01984  -0.01857  -0.00089  -0.01413
 134        5PY        -0.09001  -0.08043  -0.00440   0.01654   0.04745
 135        5PZ         0.17925   0.06960  -0.09200  -0.01727   0.04874
 136        6D 0       -0.00707   0.00929  -0.00812  -0.00119   0.00258
 137        6D+1        0.00796  -0.00035  -0.00052  -0.00131  -0.00096
 138        6D-1       -0.00256   0.00654  -0.00623  -0.00117   0.00195
 139        6D+2       -0.00110   0.00386  -0.00525  -0.00248   0.00087
 140        6D-2       -0.00560   0.00041  -0.00258  -0.00140   0.00035
 141 11  C  1S         -0.00006  -0.00068  -0.00011  -0.00150  -0.00178
 142        2S          0.00099   0.00030  -0.00052   0.00242   0.00482
 143        3S          0.00102  -0.02518  -0.01670   0.00917   0.05881
 144        4PX         0.04116  -0.01562   0.01687  -0.00616  -0.01899
 145        4PY        -0.13980   0.05666  -0.04413  -0.00002   0.01816
 146        4PZ         0.26206  -0.07874   0.10173   0.02032  -0.03570
 147        5PX         0.02701  -0.01633   0.01728  -0.01957  -0.02880
 148        5PY        -0.09998   0.03186  -0.03157   0.00296   0.02938
 149        5PZ         0.18555  -0.05881   0.06918   0.01325  -0.01860
 150        6D 0        0.00769   0.00239  -0.00271  -0.00139   0.00032
 151        6D+1       -0.00649  -0.01148   0.00988   0.00286  -0.00202
 152        6D-1        0.00371  -0.00241   0.00046  -0.00023   0.00047
 153        6D+2        0.00187   0.00010   0.00377   0.00150  -0.00200
 154        6D-2        0.00483   0.00619  -0.00539  -0.00214   0.00029
 155 12  C  1S          0.00028  -0.00323  -0.00283  -0.00162   0.00242
 156        2S         -0.00043   0.00703   0.00650   0.00396  -0.00519
 157        3S         -0.00007   0.02881   0.01012   0.01422  -0.01939
 158        4PX         0.00233  -0.04003   0.02319   0.00919   0.00546
 159        4PY        -0.00464   0.10639  -0.10801  -0.03037   0.02666
 160        4PZ         0.00777  -0.20686   0.19121   0.05322  -0.04233
 161        5PX         0.00076  -0.03293   0.02015   0.00190   0.00207
 162        5PY        -0.00434   0.07739  -0.07565  -0.02804   0.01026
 163        5PZ         0.00527  -0.14516   0.14023   0.03912  -0.03475
 164        6D 0       -0.00844  -0.00355   0.00260   0.00121   0.00016
 165        6D+1       -0.01246   0.00206  -0.00336  -0.00070   0.00118
 166        6D-1       -0.00977  -0.00192   0.00086   0.00076   0.00060
 167        6D+2       -0.00848  -0.00121   0.00037   0.00045   0.00041
 168        6D-2        0.00421  -0.00263   0.00169  -0.00042  -0.00123
 169 13  C  1S          0.00043  -0.00452  -0.00341  -0.00456  -0.00102
 170        2S         -0.00122   0.01054   0.00776   0.01072   0.00281
 171        3S          0.00308   0.00360   0.00935   0.00574   0.00718
 172        4PX        -0.03985  -0.03766  -0.00086  -0.01438  -0.00579
 173        4PY         0.13919   0.07391  -0.03420  -0.00833  -0.00012
 174        4PZ        -0.25532  -0.10373   0.08544   0.04175   0.00292
 175        5PX        -0.02828  -0.02166  -0.00143  -0.00440  -0.00092
 176        5PY         0.09829   0.05585  -0.02002  -0.00711  -0.00729
 177        5PZ        -0.18003  -0.07424   0.06117   0.02541  -0.00192
 178        6D 0       -0.00759   0.00933  -0.00923  -0.00207   0.00276
 179        6D+1        0.00746  -0.00026   0.00134   0.00014  -0.00092
 180        6D-1       -0.00317   0.00665  -0.00616  -0.00121   0.00192
 181        6D+2       -0.00168   0.00409  -0.00525  -0.00236   0.00059
 182        6D-2       -0.00539   0.00170  -0.00287  -0.00119   0.00049
 183 14  C  1S          0.00027   0.00313   0.00254   0.00535   0.00394
 184        2S         -0.00167  -0.00476  -0.00335  -0.01098  -0.01109
 185        3S          0.00050  -0.00606  -0.01550  -0.00787  -0.00445
 186        4PX        -0.04326   0.03998  -0.00266   0.02717   0.02347
 187        4PY         0.14208  -0.05395   0.06454   0.01573  -0.02102
 188        4PZ        -0.25815   0.08989  -0.12358  -0.03013   0.04106
 189        5PX        -0.03303   0.02287  -0.00699   0.01707   0.01747
 190        5PY         0.10265  -0.04438   0.04376   0.00021  -0.01622
 191        5PZ        -0.18320   0.06682  -0.08446  -0.01866   0.03099
 192        6D 0        0.00738   0.00236  -0.00121  -0.00080  -0.00058
 193        6D+1       -0.00683  -0.01249   0.00812   0.00158  -0.00146
 194        6D-1        0.00301  -0.00195   0.00141   0.00034  -0.00014
 195        6D+2        0.00156   0.00004   0.00419   0.00227  -0.00117
 196        6D-2        0.00521   0.00338  -0.00694  -0.00392   0.00040
 197 15  N  1S         -0.01028   0.01394   0.00139  -0.03648  -0.07431
 198        2S         -0.02164   0.03053   0.00495  -0.07815  -0.15787
 199        3S         -0.02299   0.01742  -0.02249  -0.07384  -0.18718
 200        4PX         0.04259  -0.04010   0.04228   0.08935   0.34553
 201        4PY         0.00334  -0.05492  -0.14554   0.18351  -0.14922
 202        4PZ         0.02487  -0.07995  -0.14034   0.25049   0.00381
 203        5PX        -0.02793   0.01958  -0.03692  -0.05912  -0.22537
 204        5PY        -0.00119   0.03677   0.10528  -0.13237   0.12205
 205        5PZ        -0.01967   0.06909   0.11364  -0.18318  -0.00495
 206        6D 0       -0.00008  -0.00315  -0.00940   0.01058  -0.01247
 207        6D+1        0.00147  -0.00216  -0.00229   0.00922   0.00688
 208        6D-1       -0.00037   0.00017  -0.00158   0.00170  -0.00414
 209        6D+2        0.00164  -0.00311  -0.00301   0.00978   0.00939
 210        6D-2        0.00002  -0.00206  -0.00589   0.00760  -0.00601
 211 16  C  1S         -0.00566   0.01302   0.00427  -0.01044  -0.03394
 212        2S          0.01432  -0.03650  -0.01247   0.02507   0.08886
 213        3S         -0.00547   0.05721   0.04503   0.03127  -0.02117
 214        4PX         0.00498  -0.02522  -0.02958   0.02686  -0.00249
 215        4PY        -0.00803   0.02468   0.07503  -0.15201   0.03746
 216        4PZ         0.00351   0.02734   0.07896  -0.07761   0.10444
 217        5PX        -0.01368   0.04282   0.01622   0.00475  -0.10095
 218        5PY        -0.00453   0.03302   0.05527  -0.06830   0.02249
 219        5PZ        -0.00467   0.01926   0.06149  -0.10003   0.05481
 220        6D 0       -0.00022   0.00574   0.01559  -0.01829   0.01763
 221        6D+1       -0.00211   0.00459   0.00463  -0.01281  -0.01055
 222        6D-1       -0.00142   0.00369   0.00452  -0.00833  -0.00441
 223        6D+2       -0.00232   0.00538   0.00520  -0.01078  -0.00920
 224        6D-2        0.00077   0.00307   0.01051  -0.00990   0.01614
 225 17  O  1S         -0.00154   0.00394   0.00106  -0.00218  -0.01307
 226        2S         -0.00339   0.00803   0.00216  -0.00599  -0.02798
 227        3S         -0.01113   0.02584   0.00638  -0.01653  -0.08873
 228        4PX        -0.01415   0.03751   0.03864  -0.08026  -0.05696
 229        4PY         0.01129  -0.05986  -0.13517   0.21522  -0.07017
 230        4PZ        -0.00480  -0.03940  -0.12636   0.13971  -0.16197
 231        5PX        -0.01113   0.03171   0.03389  -0.06748  -0.04428
 232        5PY         0.00874  -0.04913  -0.11053   0.17025  -0.06135
 233        5PZ        -0.00333  -0.03290  -0.10560   0.12263  -0.13303
 234        6D 0       -0.00015  -0.00071  -0.00257   0.00305  -0.00349
 235        6D+1       -0.00009   0.00029  -0.00036   0.00076  -0.00118
 236        6D-1        0.00036  -0.00047  -0.00016   0.00162   0.00203
 237        6D+2        0.00030  -0.00062  -0.00095   0.00244   0.00094
 238        6D-2        0.00026  -0.00139  -0.00173   0.00180   0.00026
 239 18  C  1S          0.00314  -0.00231   0.00249   0.00966   0.02318
 240        2S         -0.00759   0.00389  -0.00880  -0.02304  -0.05872
 241        3S         -0.01445   0.02110   0.00602  -0.05350  -0.10262
 242        4PX        -0.01151   0.00560  -0.01581  -0.02586  -0.08888
 243        4PY         0.00343   0.00735   0.03969  -0.04381   0.06998
 244        4PZ        -0.00965   0.02802   0.03522  -0.06500  -0.03279
 245        5PX        -0.00852   0.01258   0.00650  -0.03373  -0.05006
 246        5PY         0.00734  -0.00612   0.00853   0.01676   0.06384
 247        5PZ        -0.00913   0.01617   0.00441  -0.02560  -0.06417
 248        6D 0        0.00001   0.00067   0.00240  -0.00383   0.00218
 249        6D+1        0.00061  -0.00291  -0.00592   0.00960  -0.00189
 250        6D-1        0.00035   0.00017   0.00099   0.00080   0.00355
 251        6D+2        0.00007   0.00131   0.00351  -0.00363   0.00447
 252        6D-2        0.00010  -0.00186  -0.00491   0.00617  -0.00453
 253 19  C  1S         -0.00363   0.00578   0.00165  -0.01342  -0.02515
 254        2S          0.00901  -0.01550  -0.00544   0.03384   0.06341
 255        3S          0.01068  -0.01964  -0.01108   0.04220   0.07149
 256        4PX         0.01540  -0.01391   0.01802   0.02679   0.12802
 257        4PY         0.00858  -0.03215  -0.05464   0.08957   0.00221
 258        4PZ         0.00355  -0.02129  -0.04781   0.06431  -0.03524
 259        5PX         0.00039   0.00213   0.00885  -0.01101   0.01214
 260        5PY         0.00444  -0.01289  -0.01523   0.02450   0.01956
 261        5PZ        -0.00097  -0.00631  -0.00988  -0.00650  -0.02051
 262        6D 0        0.00080  -0.00369  -0.00761   0.01181  -0.00303
 263        6D+1       -0.00159   0.00338   0.00438  -0.01094  -0.00552
 264        6D-1       -0.00100   0.00231   0.00323  -0.00746  -0.00328
 265        6D+2       -0.00096  -0.00153  -0.00787   0.00583  -0.01657
 266        6D-2        0.00096  -0.00085   0.00118   0.00157   0.00803
 267 20  C  1S         -0.00075   0.00472   0.00394  -0.00166   0.00239
 268        2S          0.00177  -0.00390   0.00015   0.00202  -0.00271
 269        3S          0.00435  -0.09493  -0.12558   0.02260  -0.05065
 270        4PX         0.00478  -0.02749  -0.01652   0.01484   0.01230
 271        4PY        -0.00263   0.02195   0.03410  -0.00101   0.02331
 272        4PZ        -0.00084   0.00092  -0.00526   0.00547  -0.00591
 273        5PX         0.00206  -0.04409  -0.03434  -0.01557   0.02356
 274        5PY        -0.00450   0.03056   0.05797  -0.02101   0.03838
 275        5PZ         0.00033  -0.00606  -0.02549   0.01200  -0.01480
 276        6D 0       -0.00002   0.00057   0.00112  -0.00001   0.00066
 277        6D+1       -0.00010   0.00015  -0.00087  -0.00058  -0.00208
 278        6D-1       -0.00052   0.00199   0.00153  -0.00040  -0.00050
 279        6D+2       -0.00025   0.00073   0.00008  -0.00077  -0.00173
 280        6D-2        0.00015  -0.00013   0.00017  -0.00011   0.00141
 281 21  H  1S          0.00316   0.01547   0.01407  -0.00283   0.00221
 282        2S         -0.00954  -0.02466  -0.03156   0.01234  -0.02457
 283        3PX        -0.00008  -0.00069   0.00015  -0.00112   0.00155
 284        3PY        -0.00021   0.00057   0.00069  -0.00038   0.00047
 285        3PZ        -0.00013  -0.00025  -0.00079   0.00076  -0.00012
 286 22  H  1S          0.00564  -0.01436  -0.02247   0.02088   0.00833
 287        2S         -0.00630   0.00833   0.01009   0.04139   0.00819
 288        3PX         0.00007   0.00059   0.00049  -0.00009  -0.00018
 289        3PY        -0.00011   0.00105   0.00077   0.00002  -0.00007
 290        3PZ        -0.00023   0.00201   0.00206   0.00070   0.00092
 291 23  H  1S         -0.00055  -0.02493  -0.02200  -0.00851  -0.02345
 292        2S         -0.00248  -0.01271   0.00136  -0.03638  -0.00487
 293        3PX         0.00009  -0.00094  -0.00113   0.00053  -0.00081
 294        3PY        -0.00014   0.00022   0.00016   0.00025   0.00041
 295        3PZ        -0.00024   0.00140   0.00176  -0.00123   0.00056
 296 24  H  1S         -0.01430  -0.04457  -0.05247  -0.07312  -0.02351
 297        2S          0.01487  -0.04186  -0.01163  -0.05369  -0.03747
 298        3PX         0.00154  -0.00073   0.00083   0.00087   0.00120
 299        3PY        -0.00069   0.00201   0.00243   0.00093  -0.00231
 300        3PZ        -0.00033  -0.00036  -0.00227  -0.00169   0.00073
 301 25  H  1S          0.00167   0.05959   0.09613   0.07436  -0.02663
 302        2S          0.00146   0.04144   0.07481   0.05199  -0.03279
 303        3PX        -0.00058   0.00144   0.00009   0.00010  -0.00001
 304        3PY        -0.00006  -0.00209  -0.00050  -0.00205  -0.00140
 305        3PZ        -0.00002   0.00071  -0.00187   0.00036   0.00223
 306 26  H  1S         -0.01053   0.03708  -0.03479  -0.00846   0.00877
 307        2S         -0.01432   0.06419  -0.00298   0.01558   0.00804
[...]
 21,0.00000548,0.00001235,-0.00000870,0.00000298,0.00001079,0.00000342,
 0.00000722,-0.00000303,-0.00000097,-0.00001196,0.00000821,0.00000405,0
 .00001436,0.00000038,0.00000569,0.00000270,-0.00000114,-0.00003029,0.0
 0001982,0.00000696,0.00000239,-0.00000953,0.00000167,-0.00000048,-0.00
 000193,0.00000261,0.00000032,-0.00000282,-0.00000794,0.00000061,-0.000
 00269,0.00050977,0.00131793,-0.00027651,-0.00161829,-0.00112710,-0.001
 19470,0.02780003,0.22019516,-0.00012920,0.00003490,0.00003999,0.000009
 03,0.00007899,-0.00011220,0.00016845,-0.00001910,0.00006815,-0.0001334
 3,-0.00004141,-0.00004374,0.00005661,0.00002198,0.00002268,0.00002766,
 0.00000918,0.00001911,-0.00009380,0.00000837,-0.00004348,-0.00000781,0
 .00001693,-0.00000132,-0.00000017,0.00001406,-0.00002546,-0.00000271,-
 0.00001640,0.00000186,-0.00000286,-0.00000139,-0.00000903,-0.00000643,
 -0.00000354,0.00000264,-0.00000185,-0.00000103,-0.00000082,-0.00000784
 ,-0.00000927,0.00000937,-0.00142973,-0.00168207,0.00643542,-0.00096620
 ,-0.00219228,-0.00066078,0.00120424,-0.00094075,-0.00146112,-0.0022414
 2,-0.00891339,0.00805428,0.02463607,0.13102434,-0.16011643,-0.00010639
 ,0.00005168,-0.00000296,0.00008692,0.00004004,-0.00008769,0.00002088,0
 .00005758,0.00002056,0.00000996,-0.00001581,-0.00001218,-0.00000560,0.
 00000569,0.00000083,-0.00000460,-0.00000229,-0.00000485,0.00000322,-0.
 00000743,0.00000803,-0.00000822,-0.00000326,-0.00000598,0.00000121,-0.
 00000126,-0.00000350,0.00001280,0.00002179,-0.00000007,0.00000053,0.00
 000222,0.00000702,-0.00000245,0.00000116,0.00000273,-0.00000273,0.0000
 0096,0.00000159,0.00000424,0.00000084,0.00000116,0.00041039,-0.0001742
 9,0.00166119,-0.00124652,-0.00126384,0.00068853,-0.02360906,-0.1383302
 3,0.16190268,-0.00001586,-0.00000990,-0.00021009,0.00092241,0.00113071
 ,-0.00117904,0.00044954,0.00014573,0.00025348,-0.00015758,-0.00014575,
 -0.00020474,0.00005176,0.00001375,0.00004986,0.00004318,0.00000847,0.0
 0003603,-0.00017445,-0.00009020,-0.00009561,-0.00002053,0.00001915,0.0
 0001578,-0.00002080,0.00000830,-0.00003416,0.00000378,-0.00001688,-0.0
 0000158,-0.00000325,-0.00000051,-0.00000824,-0.00000479,-0.00000201,0.
 00000142,-0.00000585,-0.00000032,-0.00000238,-0.00000768,-0.00001324,0
 .00000953,-0.00588470,0.01506847,0.02767888,-0.00811475,-0.00031059,0.
 00025018,0.00193390,-0.00371773,-0.00149471,0.00344466,-0.00637442,-0.
 02046571,-0.04824349,0.00784401,0.02984993,-0.00056377,0.00027621,0.00
 020703,0.00003861,-0.00000103,-0.00004309,0.00000633,0.00004745,0.0000
 5973,-0.00000222,0.00001299,0.00004196,-0.00000998,0.00000112,-0.00000
 624,-0.00001071,0.00000649,-0.00000975,0.00000083,0.00002160,-0.000001
 66,0.00000016,-0.00001354,-0.00002174,-0.00002010,-0.00001518,0.000003
 66,0.00001278,0.00002316,0.00000132,0.00000081,0.00000227,0.00000455,-
 0.00000181,0.00000144,0.00000212,-0.00000256,0.00000098,0.00000213,0.0
 0000141,0.00000435,0.00000154,-0.00208101,-0.00173217,-0.00109265,0.00
 158470,0.00034153,0.00013206,0.00012301,0.00089111,0.00332966,0.056565
 34,-0.00012285,0.00008318,0.00013716,-0.00043113,-0.00093684,0.0007276
 9,-0.00022941,-0.00008659,-0.00017259,0.00008856,0.00006503,0.00011264
 ,-0.00003095,-0.00001073,-0.00002407,-0.00002634,-0.00000542,-0.000032
 45,0.00012747,0.00002645,0.00006565,0.00002215,0.00000756,-0.00001750,
 0.00000893,-0.00000524,0.00002009,0.00000034,0.00000654,-0.00000338,-0
 .00000059,-0.00000400,0.00000588,0.00000306,0.00000029,-0.00000105,0.0
 0000272,0.00000040,-0.00000007,0.00000207,0.00000803,-0.00000699,0.007
 58877,-0.01036029,-0.01663714,0.00161776,-0.00056648,-0.00141802,0.000
 59663,-0.00321980,-0.00212664,0.00220503,-0.00367798,-0.01468511,0.006
 20854,-0.07421163,-0.08138927,0.00034666,-0.00023360,-0.00021025,-0.00
 000274,-0.00000134,0.00003674,0.00000080,-0.00001169,0.00001824,-0.000
 00640,-0.00000418,0.00002130,0.00000710,-0.00000315,0.00000602,0.00001
 026,-0.00000610,0.00000979,0.00000097,-0.00001445,0.00000303,-0.000001
 25,0.00000221,0.00001352,0.00000297,0.00000663,-0.00000119,-0.00000296
 ,-0.00001166,0.00000788,0.00000159,0.00000015,-0.00000192,0.00000089,-
 0.00000020,-0.00000049,0.00000138,0.00000009,-0.00000107,-0.00000086,-
 0.00000178,-0.00000055,-0.00124267,-0.00108759,-0.00060139,0.00055360,
 0.00083912,-0.00001056,-0.00365295,0.00911854,0.02220115,-0.01364445,0
 .08436829,0.00007886,-0.00008523,0.00002083,0.00006231,0.00007179,-0.0
 0019988,-0.00021324,0.00001947,-0.00009769,0.00015464,0.00004088,0.000
 05885,-0.00006463,-0.00002216,-0.00004622,-0.00003479,-0.00001108,-0.0
 0002902,0.00013097,-0.00002104,0.00006283,0.00001246,-0.00001377,-0.00
 000468,0.00001270,-0.00001178,0.00002756,-0.00000743,0.00001474,-0.000
 00177,0.00000405,-0.00000082,0.00000758,0.00000541,0.00000161,-0.00000
 060,0.00000503,0.00000052,0.00000097,0.00000749,0.00001045,-0.00000910
 ,0.00174574,-0.00290465,0.00621083,0.00053728,0.00193971,0.00127198,-0
 .00048631,0.00130268,-0.00065090,0.00166845,0.00015137,-0.00370911,0.0
 3195051,-0.08640298,-0.29325402,0.00005759,0.00002424,-0.00001979,-0.0
 0003389,0.00000540,0.00001514,0.00001342,-0.00001170,-0.00004080,0.000
 00065,0.00002265,0.00002001,0.00000801,-0.00000621,0.00000131,0.000007
 55,-0.00000159,0.00000888,-0.00000440,-0.00000280,-0.00000585,0.000007
 30,0.00000446,0.00001090,0.00000321,0.00000539,-0.00000207,-0.00001256
 ,-0.00001525,0.00000160,-0.00000300,-0.00000192,-0.00000349,0.00000300
 ,-0.00000072,-0.00000284,0.00000390,-0.00000141,-0.00000155,-0.0000026
 6,-0.00000289,-0.00000018,-0.00066744,-0.00113722,0.00037253,0.0000102
 4,0.00010420,0.00179458,0.00212941,-0.00695156,-0.01636743,-0.03708400
 ,0.09386666,0.30453456,0.00063600,0.00007002,-0.00057096,0.00862675,-0
 .01162266,-0.00560321,0.00123071,-0.00053801,-0.00042305,0.00019334,0.
 00053065,0.00015374,-0.00018165,0.00002174,0.00004434,-0.00064858,-0.0
 0013073,-0.00024519,-0.00294204,-0.00085365,-0.00105776,0.00004501,0.0
 0002985,-0.00000934,-0.00002543,-0.00002141,0.00004392,0.00003401,0.00
 001130,-0.00001492,-0.00000352,-0.00000765,0.00000621,0.00001296,0.000
 00199,-0.00000824,-0.00000327,0.00000406,-0.00000001,0.00001370,0.0000
 1900,-0.00001630,0.00071850,-0.00047367,-0.00012956,-0.00322801,-0.002
 82796,0.00038837,0.00018939,0.00121951,0.00029131,0.00040579,-0.000262
 51,-0.00017137,0.00010526,0.00003789,-0.00029575,-0.14967824,0.1228679
 8,0.07008133,-0.00001196,-0.00002232,-0.00016165,0.00006816,0.00017962
 ,0.00013756,-0.00011389,0.00018719,0.00006525,0.00004562,-0.00001464,0
 .00001090,0.00008749,0.00000369,0.00007047,0.00000063,-0.00000475,-0.0
 0001297,0.00001016,-0.00000311,0.00001626,-0.00000057,0.00001101,0.000
 01278,-0.00000186,-0.00001526,0.00002087,0.00000210,0.00000609,-0.0000
 0649,0.00000490,0.00000239,-0.00000323,0.00000656,-0.00000006,-0.00000
 145,-0.00001296,-0.00000054,-0.00000452,-0.00001428,0.00003723,0.00000
 919,-0.00000155,-0.00001512,0.00000217,0.00000142,0.00003194,0.0000171
 7,0.00012615,-0.00002829,-0.00000062,0.15892403,0.00109938,0.00158989,
 -0.00125763,0.01784744,-0.02128407,-0.01097106,0.00204928,-0.00159689,
 -0.00020934,-0.00001332,0.00054432,0.00018465,0.00004773,0.00011825,0.
 00011983,-0.00071829,0.00037862,-0.00030317,0.00057761,0.00119065,0.00
 064818,0.00001929,0.00008155,-0.00002456,-0.00003885,0.00000778,0.0000
 4004,0.00003912,0.00001718,-0.00000098,-0.00000310,-0.00000047,0.00000
 574,0.00000629,0.00000469,-0.00000625,-0.00000860,0.00000386,0.0000048
 2,0.00001273,0.00001271,-0.00000898,0.00119800,-0.00163896,-0.00028276
 ,-0.00503907,-0.00278844,0.00157141,0.00008561,0.00016537,-0.00020206,
 -0.00011910,0.00007519,0.00006062,-0.00004833,-0.00002787,-0.00066250,
 0.11850645,-0.18216452,-0.07748422,-0.00022717,0.00033353,-0.00012623,
 -0.00051174,-0.00007434,0.00086179,-0.00000388,-0.00007922,0.00016574,
 0.00005048,0.00000225,-0.00000065,0.00006077,-0.00000075,0.00008318,0.
 00000507,-0.00001537,-0.00000494,0.00000039,-0.00000460,0.00000325,0.0
 0001318,0.00002108,0.00003063,0.00001001,-0.00002015,-0.00000492,0.000
 00117,-0.00000046,-0.00000692,0.00000220,0.00000018,-0.00000349,0.0000
 0419,-0.00000077,-0.00000112,-0.00001084,-0.00000315,-0.00000648,0.000
 05572,-0.00001521,0.00000972,0.00005287,-0.00003797,-0.00003326,0.0000
 3665,-0.00003206,0.00003701,0.00021324,-0.00014373,-0.00001472,-0.1273
 4157,0.19865137,-0.00076797,0.00065528,0.00066016,-0.00307016,0.002943
 97,0.00038638,0.00132599,-0.00178135,0.00002549,-0.00005943,0.00070050
 ,0.00021225,0.00001775,-0.00000359,0.00005373,-0.00057403,0.00025765,-
 0.00032949,-0.00010222,0.00064691,-0.00011151,0.00001531,0.00007353,-0
 .00003049,-0.00006043,0.00000693,0.00006064,0.00004268,0.00000317,-0.0
 0002538,-0.00000369,-0.00000681,-0.00000572,0.00001273,0.00000616,-0.0
 0001317,-0.00001033,0.00000299,0.00000212,0.00002064,0.00001219,-0.000
 01199,-0.00016525,0.00024610,0.00031906,0.00005059,0.00096442,0.000198
 91,-0.00029717,0.00036194,0.00028777,0.00017832,0.00000569,-0.00009310
 ,0.00001133,0.00009823,0.00004336,0.06847909,-0.07844359,-0.09083211,-
 0.00006611,-0.00014102,-0.00000732,0.00034072,0.00007025,0.00016470,-0
 .00016019,0.00003776,-0.00001322,0.00004771,-0.00001705,0.00002392,0.0
 0000640,-0.00002913,0.00000434,0.00000914,-0.00001365,-0.00000742,-0.0
 0000160,-0.00000840,0.00000864,0.00000343,0.00001790,0.00002658,-0.000
 00119,-0.00000335,0.00002283,0.00000481,0.00000894,-0.00000731,0.00000
 323,0.00000263,-0.00000232,0.00000413,-0.00000006,-0.00000111,-0.00001
 511,0.00000044,-0.00000738,-0.00001192,0.00000054,0.00001043,-0.000033
 90,0.00000404,0.00000230,0.00001046,0.00000499,0.00000922,0.00001401,0
 .00004250,0.00000254,-0.07430650,0.08279185,0.09230634,-0.00081462,-0.
 00290024,-0.00037179,-0.00349598,-0.00164156,0.01265602,0.00084408,-0.
 00059110,0.00137465,0.00001721,0.00013389,-0.00011303,-0.00004284,-0.0
 0000373,0.00006123,-0.00024199,0.00003506,-0.00017071,0.00007161,0.000
 64586,-0.00034495,0.00000699,0.00000830,-0.00000091,-0.00004681,-0.000
 00975,0.00005548,0.00004265,-0.00000065,-0.00002359,-0.00000354,-0.000
 00348,-0.00000448,0.00001086,0.00000622,-0.00001140,-0.00000798,0.0000
 0076,0.00000201,0.00002125,0.00001598,-0.00001727,-0.00005241,-0.00012
 039,-0.00028337,0.00040367,0.00082604,-0.00024272,-0.00014429,-0.00026
 993,0.00021460,-0.00000876,0.00006226,0.00007974,-0.00003129,-0.000020
 37,0.00006017,-0.05119062,-0.00778752,0.03620617,0.00030238,-0.0002851
 1,0.00091680,0.00016534,0.00009830,-0.00037474,0.00016003,-0.00003059,
 0.00023775,0.00005143,-0.00000044,0.00000433,-0.00005963,-0.00000012,-
 0.00003944,0.00000266,-0.00001118,-0.00002565,0.00000701,0.00000023,0.
 00000821,0.00000710,0.00001336,0.00000453,0.00000274,-0.00000205,0.000
 02654,0.00000577,0.00000813,-0.00000688,0.00000213,0.00000208,-0.00000
 216,0.00000397,0.00000017,-0.00000185,-0.00001343,0.00000277,-0.000004
 01,0.00000638,-0.00003427,0.00000259,-0.00002239,0.00003320,0.00001789
 ,0.00001486,-0.00001967,0.00000810,0.00000468,-0.00000060,-0.00000818,
 -0.00231246,-0.00535116,0.01733964,0.05025983,-0.00237521,-0.00561587,
 -0.00043330,-0.00304112,-0.00557301,0.02824468,0.00108091,0.00093761,0
 .00076628,-0.00000770,-0.00021995,-0.00042926,-0.00004373,0.00000100,0
 .00010714,-0.00007492,0.00001909,-0.00000676,-0.00028247,0.00007477,0.
 00004276,0.00000178,-0.00001265,0.00001654,-0.00004013,-0.00001653,0.0
 0001378,0.00003322,-0.00001701,-0.00001725,-0.00000663,-0.00000019,-0.
 00000805,0.00000402,0.00000278,-0.00000392,-0.00000728,0.00000070,-0.0
 0000005,0.00000264,0.00000694,-0.00000630,0.00000225,-0.00011095,-0.00
 052613,-0.00061267,0.00172306,0.00131199,0.00038984,0.00000633,-0.0000
 6400,0.00011799,-0.00009993,-0.00001032,-0.00000527,-0.00004605,0.0001
 2656,-0.00772436,-0.05734484,0.05231130,-0.00054935,-0.00016757,0.0018
 2347,-0.00022970,0.00002994,0.00004184,0.00011199,-0.00003287,-0.00032
 395,0.00000385,-0.00000797,-0.00000994,-0.00000221,0.00002464,0.000008
 11,-0.00000408,0.00000771,-0.00001486,0.00000615,0.00000207,-0.0000017
 3,-0.00000109,-0.00000032,-0.00000102,0.00001200,0.00002247,0.00002793
 ,0.00000671,0.00000639,-0.00000223,-0.00000167,0.00000090,0.00000065,-
 0.00000059,0.00000095,-0.00000113,-0.00000551,0.00000359,-0.00000142,-
 0.00001939,0.00001872,-0.00001654,0.00004074,-0.00001907,-0.00001111,-
 0.00000393,0.00002107,0.00000214,-0.00001924,-0.00001107,0.00000394,0.
 00154882,0.00529306,-0.02144983,0.01145399,0.06206035,0.00021271,0.001
 11780,0.00082298,-0.00056021,-0.00109294,-0.00057726,-0.00090723,0.000
 83068,0.00004514,0.00030363,-0.00009494,0.00014135,0.00000095,0.000049
 61,-0.00007190,0.00019198,0.00003247,0.00006061,-0.00011311,-0.0006882
 9,0.00051874,0.00002305,-0.00001306,-0.00000405,0.00004803,-0.00001993
 ,0.00000722,-0.00002190,0.00001494,0.00000903,0.00000431,-0.00000167,0
 .00001149,-0.00000004,-0.00000307,0.00000504,0.00001046,-0.00000111,-0
 .00000062,-0.00000036,0.00000855,-0.00000818,-0.00019967,0.00026965,0.
 00012479,0.00093519,-0.00024888,0.00023092,-0.00055997,-0.00008065,0.0
 0029548,0.00000486,0.00011686,-0.00004143,0.00002730,0.00006403,-0.000
 03600,0.03774178,0.05498268,-0.30948892,0.00009344,-0.00001928,-0.0000
 8082,-0.00016382,-0.00013045,0.00013900,0.00011672,-0.00023641,0.00030
 628,-0.00001284,0.00000104,-0.00000756,0.00004311,0.00000424,0.0000100
 7,-0.00000422,0.00000381,0.00001031,0.00000724,0.00000378,0.00001011,-
 0.00000508,-0.00000321,-0.00000422,-0.00000415,-0.00001794,-0.00000779
 ,-0.00000439,-0.00000480,0.00000115,0.00000180,-0.00000101,-0.00000126
 ,0.00000288,-0.00000074,-0.00000102,0.00000424,-0.00000291,0.00000353,
 0.00000325,-0.00001361,0.00000274,-0.00004134,0.00003003,0.00001424,-0
 .00003564,-0.00000015,-0.00000498,-0.00001148,0.00001862,0.00001283,-0
 .00056250,0.00340921,-0.00951587,-0.04076884,-0.06016745,0.32822850,0.
 00026786,0.00102535,-0.00080141,-0.01121824,0.00020814,-0.00562665,0.0
 0080369,-0.00113964,0.00107377,-0.00106303,-0.00028378,-0.00035543,0.0
 0016865,-0.00019769,-0.00016656,0.00037576,-0.00014189,0.00028606,-0.0
 0056581,-0.00056364,-0.00052184,-0.00012897,-0.00000072,0.00003253,0.0
 0001154,0.00004031,-0.00009939,-0.00002787,-0.00001041,0.00003384,0.00
 000159,0.00001272,-0.00000609,-0.00001808,-0.00000462,0.00001368,-0.00
 000210,0.00000187,-0.00000037,-0.00002641,-0.00002911,0.00004017,0.000
 04520,-0.00006049,-0.00000741,-0.00089256,0.00006324,-0.00013446,-0.00
 054708,0.00264615,0.00075919,0.00030485,0.00016435,-0.00004848,-0.0000
 2789,0.00014095,0.00006838,-0.26893005,-0.00547841,-0.11857666,0.00038
 469,0.00006910,0.00008420,-0.00002965,-0.00004892,-0.00000960,0.000143
 16,-0.00042110,0.00079400,-0.00004765,0.00002257,-0.00001825,-0.000040
 86,0.00000726,-0.00004084,0.00000690,0.00000473,0.00001602,-0.00002140
 ,-0.00000862,-0.00004838,0.00000635,-0.00001176,-0.00001318,0.00000328
 ,0.00001675,-0.00003918,-0.00000433,-0.00001012,0.00000820,-0.00000636
 ,-0.00000332,0.00000323,-0.00000970,-0.00000120,0.00000294,0.00001443,
 -0.00000113,0.00000098,0.00000653,0.00001726,-0.00000190,0.00000165,-0
 .00001239,0.00002337,0.00000769,-0.00000162,0.00000187,0.00003186,0.00
 002619,0.00000296,-0.01230838,-0.00255987,-0.00823090,0.00607443,0.000
 24136,0.00419985,0.28725630,0.00006707,0.00122674,-0.00151148,-0.02759
 223,-0.00177599,-0.01371526,0.00050593,-0.00657915,0.00208001,-0.00205
 435,0.00016834,-0.00067513,0.00023960,-0.00017007,-0.00046929,-0.00024
 252,0.00013265,-0.00011283,0.00081604,0.00073522,0.00019744,-0.0002471
 3,0.00012353,-0.00000026,0.00001006,0.00006683,-0.00006719,-0.00001223
 ,-0.00001803,0.00002850,0.00000183,0.00000726,-0.00001178,-0.00001598,
 -0.00000180,0.00000686,-0.00001256,0.00000168,0.00000284,-0.00001754,-
 0.00002467,0.00003963,0.00053375,0.00054674,0.00040039,-0.00276076,0.0
 0071742,-0.00127934,0.00115251,-0.00114404,0.00005625,0.00096282,-0.00
 075677,-0.00020336,0.00005899,0.00006010,0.00020034,-0.00112486,-0.044
 22036,-0.00002580,0.00027645,0.00001017,-0.00011362,0.00010276,-0.0000
 1766,0.00010942,0.00014999,0.00013121,0.00074443,-0.00001635,0.0000275
 9,-0.00000267,-0.00003699,-0.00000931,-0.00002368,0.00001204,0.0000047
 7,0.00001008,-0.00003190,-0.00003375,-0.00009679,0.00000984,-0.0000032
 5,0.00001651,0.00000399,0.00003020,-0.00003569,-0.00000458,-0.00000576
 ,0.00000777,-0.00000466,-0.00000098,0.00000225,-0.00000769,-0.00000135
 ,0.00000372,0.00000702,-0.00000149,-0.00000452,-0.00006213,0.00007549,
 -0.00000322,-0.00008655,0.00007228,0.00007781,0.00001423,0.00003127,-0
 .00001196,0.00002463,0.00008302,0.00003134,0.01736196,0.00143744,0.011
 93036,0.00573733,-0.00096828,0.00188451,0.00628215,0.05004276,0.001262
 41,0.00005441,0.00081392,0.00406719,-0.00040117,0.00046135,0.00063233,
 0.00104963,0.00016748,0.00019263,-0.00001704,0.00027159,0.00008926,0.0
 0005731,0.00004074,0.00003701,0.00011907,-0.00001163,0.00012776,-0.000
 23123,0.00042753,0.00001136,0.00001921,0.00000223,0.00000483,0.0000017
 9,-0.00001332,-0.00000400,-0.00001089,0.00000382,-0.00000311,0.0000007
 5,-0.00000449,-0.00000272,-0.00000160,0.00000284,0.00000021,-0.0000006
 0,-0.00000127,-0.00000705,-0.00000577,0.00000639,0.00043602,0.00021687
 ,0.00032058,-0.00212608,-0.00020411,-0.00038319,0.00045910,0.00080423,
 0.00003382,0.00051283,-0.00021739,-0.00014043,-0.00003870,0.00006159,0
 .00003041,-0.11864826,-0.00228512,-0.10988802,-0.00005185,-0.00012196,
 0.00001926,0.00007385,0.00001870,-0.00003171,-0.00012059,0.00023992,0.
 00002518,-0.00001543,-0.00000874,0.00000175,0.00002770,-0.00001380,0.0
 0001072,0.00000202,0.00000649,0.00001200,-0.00000058,-0.00000319,-0.00
 000151,-0.00000492,-0.00000545,0.00000445,-0.00000253,0.00001510,-0.00
 000073,0.00000043,0.00000026,0.00000258,-0.00000185,-0.00000003,0.0000
 0192,-0.00000263,0.00000060,0.00000070,0.00000391,0.00000063,0.0000008
 3,-0.00003823,0.00005289,0.00000437,0.00000128,-0.00003970,-0.00001013
 ,0.00002935,0.00004182,0.00000698,0.00002199,0.00002713,0.00001067,0.0
 1223375,0.00158858,0.00618321,-0.02646045,-0.00134257,-0.01115966,0.12
 730176,0.00053339,0.11277876\\-0.00207522,-0.00220543,0.00224842,0.000
 49695,0.00118649,0.00043308,0.00831707,0.02655048,0.00978314,-0.000506
 00,0.00117212,-0.00590700,-0.01594694,-0.00602098,-0.00649285,-0.00224
 854,-0.00314125,-0.00245183,0.01115457,-0.02007585,0.00026610,-0.00010
 146,0.00085661,-0.00259367,-0.00133807,-0.00115603,0.00374839,-0.00023
 292,0.00271482,-0.00137938,0.00063454,-0.00010626,0.00072512,0.0010624
 9,0.00038438,-0.00071604,0.00008484,0.00007010,0.00006144,0.00111479,0
 .00113410,-0.00125216,0.00727619,-0.00372867,-0.00256521,0.01374675,0.
 02895349,0.01670003,-0.02501370,-0.00533458,-0.00932021,-0.00067206,-0
 .00396207,-0.00323567,0.00826072,-0.01507405,-0.00233703,0.00077014,0.
 00016004,-0.00238738,0.00106747,-0.00264629,0.00096153,0.00047273,0.00
 048810,-0.00103896,-0.00024465,0.00011687,-0.00091270,0.00037028,-0.00
 145596,0.00010162,0.00066203,-0.00032251,0.00062420,0.00005604,0.00119
 233,-0.00068854,0.00068271,0.00109554,0.00112818,0.00022349,-0.0007643
 5,0.00152879,-0.00210103,-0.00326456,0.00462892,0.00084389,0.00001047,
 -0.00092977,0.00015122,-0.00009479,-0.00013466,0.00019313,0.00001731,-
 0.00021729,-0.00044001,-0.00010812,-0.00020642,-0.00168640,-0.00034674
 ,-0.00024033,-0.00085228,0.00028004,0.00039718,-0.00328741,0.00234006,
 0.00126746,-0.00057288,0.00159953,-0.00000706,0.00010027,-0.00083353,0
 .00024734,0.00018119,0.00045158,-0.00008484,-0.00060394,-0.00013243,0.
 00024801\\\@

 Writing a WFNX file to "12_lig_b.wfx"


 I think that all right-thinking people in this
 country are sick and tired of being told that
 ordinary, decent people are fed up in this country
 with being sick and tired.  I'm certainly not!
 But I'm sick and tired of being told that I am!
                               -- Monty Python
 Job cpu time:       0 days  2 hours 53 minutes 57.5 seconds.
 Elapsed time:       0 days  0 hours 21 minutes 44.9 seconds.
 File lengths (MBytes):  RWF=    642 Int=      0 D2E=      0 Chk=     11 Scr=      1
 Normal termination of Gaussian 16 at Thu Nov  3 08:26:10 2022.
