 Entering Gaussian System, Link 0=g16
 Initial command:
 /software/gaussian/G16-A.03/avx/g16/l1.exe "/scratch/lcmd/1361343.slurm/Gau-87594.inp" -scrdir="/scratch/lcmd/1361343.slurm/"
 Entering Link 1 = /software/gaussian/G16-A.03/avx/g16/l1.exe PID=     87595.
  
 Copyright (c) 1988,1990,1992,1993,1995,1998,2003,2009,2016,
            Gaussian, Inc.  All Rights Reserved.
  
 This is part of the Gaussian(R) 16 program.  It is based on
 the Gaussian(R) 09 system (copyright 2009, Gaussian, Inc.),
 the Gaussian(R) 03 system (copyright 2003, Gaussian, Inc.),
 the Gaussian(R) 98 system (copyright 1998, Gaussian, Inc.),
 the Gaussian(R) 94 system (copyright 1995, Gaussian, Inc.),
 the Gaussian 92(TM) system (copyright 1992, Gaussian, Inc.),
 the Gaussian 90(TM) system (copyright 1990, Gaussian, Inc.),
 the Gaussian 88(TM) system (copyright 1988, Gaussian, Inc.),
 the Gaussian 86(TM) system (copyright 1986, Carnegie Mellon
 University), and the Gaussian 82(TM) system (copyright 1983,
 Carnegie Mellon University). Gaussian is a federally registered
 trademark of Gaussian, Inc.
  
 This software contains proprietary and confidential information,
 including trade secrets, belonging to Gaussian, Inc.
  
 This software is provided under written license and may be
 used, copied, transmitted, or stored only in accord with that
 written license.
  
 The following legend is applicable only to US Government
 contracts under FAR:
  
                    RESTRICTED RIGHTS LEGEND
  
 Use, reproduction and disclosure by the US Government is
 subject to restrictions as set forth in subparagraphs (a)
 and (c) of the Commercial Computer Software - Restricted
 Rights clause in FAR 52.227-19.
  
 Gaussian, Inc.
 340 Quinnipiac St., Bldg. 40, Wallingford CT 06492
  
  
 ---------------------------------------------------------------
 Warning -- This program may not be used in any manner that
 competes with the business of Gaussian, Inc. or will provide
 assistance to any competitor of Gaussian, Inc.  The licensee
 of this program is prohibited from giving any competitor of
 Gaussian, Inc. access to this program.  By using this program,
 the user acknowledges that Gaussian, Inc. is engaged in the
 business of creating and licensing software in the field of
 computational chemistry and represents and warrants to the
 licensee that it is not a competitor of Gaussian, Inc. and that
 it will not use this program in any manner prohibited above.
 ---------------------------------------------------------------
  

 Cite this work as:
 Gaussian 16, Revision A.03,
 M. J. Frisch, G. W. Trucks, H. B. Schlegel, G. E. Scuseria, 
 M. A. Robb, J. R. Cheeseman, G. Scalmani, V. Barone, 
 G. A. Petersson, H. Nakatsuji, X. Li, M. Caricato, A. V. Marenich, 
 J. Bloino, B. G. Janesko, R. Gomperts, B. Mennucci, H. P. Hratchian, 
 J. V. Ortiz, A. F. Izmaylov, J. L. Sonnenberg, D. Williams-Young, 
 F. Ding, F. Lipparini, F. Egidi, J. Goings, B. Peng, A. Petrone, 
 T. Henderson, D. Ranasinghe, V. G. Zakrzewski, J. Gao, N. Rega, 
 G. Zheng, W. Liang, M. Hada, M. Ehara, K. Toyota, R. Fukuda, 
 J. Hasegawa, M. Ishida, T. Nakajima, Y. Honda, O. Kitao, H. Nakai, 
 T. Vreven, K. Throssell, J. A. Montgomery, Jr., J. E. Peralta, 
 F. Ogliaro, M. J. Bearpark, J. J. Heyd, E. N. Brothers, K. N. Kudin, 
 V. N. Staroverov, T. A. Keith, R. Kobayashi, J. Normand, 
 K. Raghavachari, A. P. Rendell, J. C. Burant, S. S. Iyengar, 
 J. Tomasi, M. Cossi, J. M. Millam, M. Klene, C. Adamo, R. Cammi, 
 J. W. Ochterski, R. L. Martin, K. Morokuma, O. Farkas, 
 J. B. Foresman, and D. J. Fox, Gaussian, Inc., Wallingford CT, 2016.
 
 ******************************************
 Gaussian 16:  ES64L-G16RevA.03 25-Dec-2016
                 3-Nov-2022 
 ******************************************
 %nprocs=8
 Will use up to    8 processors via shared memory.
 %mem=32000MB
 %chk=13_lig_b.chk
 ----------------------------------------------------------------------
 #p pop=(regular,nbo,savenbos) freq=noraman def2svp empiricaldispersion
 =gd3bj output=wfx pbe1pbe
 ----------------------------------------------------------------------
 1/10=4,30=1,38=1/1,3;
 2/12=2,17=6,18=5,40=1/2;
 3/5=43,7=101,11=2,25=1,30=1,71=2,74=-13,124=41,140=1/1,2,3;
 4//1;
 5/5=2,38=5,98=1/2;
 8/6=4,10=90,11=11/1;
 11/6=1,8=1,9=11,15=111,16=1/1,2,10;
 10/6=1/2;
 6/28=1,40=1,73=1/1,7;
 7/8=1,10=1,25=1/1,2,3,16;
 1/10=4,30=1/3;
 99/6=200/99;
 Leave Link    1 at Thu Nov  3 08:04:23 2022, MaxMem=  4194304000 cpu:               0.5 elap:               0.1
 (Enter /software/gaussian/G16-A.03/avx/g16/l101.exe)
 --------
 13_lig_b
 --------
 Symbolic Z-matrix:
 Charge =  0 Multiplicity = 1
 C                     3.64869  -1.86057  -1.45398 
 C                     3.47074  -1.03135  -0.20037 
 H                     3.38456  -1.69605   0.67727 
 C                     4.52145   0.06719   0.02869 
 O                     3.74937   1.22249   0.4082 
 C                     2.47311   0.92985   0.1727 
 N                     2.22843  -0.25714  -0.22156 
 N                    -0.38996   0.69869  -0.54919 
 C                     0.15317   1.79224  -0.17582 
 C                     1.47067   1.98949   0.53936 
 C                     1.19112   1.8034    2.05284 
 C                     2.03457   3.38449   0.25439 
 O                    -0.55219   2.906    -0.34796 
 C                    -1.76728   2.54127  -1.01606 
 C                    -1.73752   0.98666  -1.06804 
 C                    -1.84932   0.45614  -2.49466 
 C                    -2.81367   0.39297  -0.16428 
 C                    -4.15692   0.64169  -0.47518 
 C                    -5.18115   0.13718   0.32025 
 C                    -4.8776   -0.63269   1.44275 
 C                    -3.54603  -0.88368   1.75887 
 C                    -2.51945  -0.3731    0.965 
 H                     3.69976  -1.21904  -2.34734 
 H                     2.79836  -2.54913  -1.5712 
 H                     4.56848  -2.46117  -1.39743 
 H                     5.07549   0.31994  -0.88991 
 H                     5.23274  -0.14864   0.83568 
 H                     0.89943   0.76283   2.26632 
 H                     0.39016   2.48771   2.36647 
 H                     2.10136   2.03996   2.62177 
 H                     2.2151    3.5347   -0.81988 
 H                     2.98466   3.51251   0.78729 
 H                     1.32539   4.14887   0.59373 
 H                    -1.75181   2.9985   -2.01704 
 H                    -2.61038   2.94204  -0.43965 
 H                    -1.06401   0.90184  -3.12448 
 H                    -2.82897   0.70532  -2.92697 
 H                    -1.72452  -0.6364   -2.48366 
 H                    -4.41435   1.23777  -1.35572 
 H                    -6.22189   0.34193   0.05789 
 H                    -5.67871  -1.03741   2.06563 
 H                    -3.28773  -1.49263   2.62805 
 H                    -1.48951  -0.6009    1.24529 
 
 ITRead=  0  0  0  0  0  0  0  0  0  0  0  0  0  0  0  0  0  0  0  0
 ITRead=  0  0  0  0  0  0  0  0  0  0  0  0  0  0  0  0  0  0  0  0
 ITRead=  0  0  0
 MicOpt= -1 -1 -1 -1 -1 -1 -1 -1 -1 -1 -1 -1 -1 -1 -1 -1 -1 -1 -1 -1
 MicOpt= -1 -1 -1 -1 -1 -1 -1 -1 -1 -1 -1 -1 -1 -1 -1 -1 -1 -1 -1 -1
 MicOpt= -1 -1 -1
 NAtoms=     43 NQM=       43 NQMF=       0 NMMI=      0 NMMIF=      0
                NMic=       0 NMicF=      0.
                    Isotopes and Nuclear Properties:
 (Nuclear quadrupole moments (NQMom) in fm**2, nuclear magnetic moments (NMagM)
  in nuclear magnetons)

  Atom         1           2           3           4           5           6           7           8           9          10
 IAtWgt=          12          12           1          12          16          12          14          14          12          12
 AtmWgt=  12.0000000  12.0000000   1.0078250  12.0000000  15.9949146  12.0000000  14.0030740  14.0030740  12.0000000  12.0000000
 NucSpn=           0           0           1           0           0           0           2           2           0           0
 AtZEff=  -0.0000000  -0.0000000  -0.0000000  -0.0000000  -0.0000000  -0.0000000  -0.0000000  -0.0000000  -0.0000000  -0.0000000
 NQMom=    0.0000000   0.0000000   0.0000000   0.0000000   0.0000000   0.0000000   2.0440000   2.0440000   0.0000000   0.0000000
 NMagM=    0.0000000   0.0000000   2.7928460   0.0000000   0.0000000   0.0000000   0.4037610   0.4037610   0.0000000   0.0000000
 AtZNuc=   6.0000000   6.0000000   1.0000000   6.0000000   8.0000000   6.0000000   7.0000000   7.0000000   6.0000000   6.0000000

  Atom        11          12          13          14          15          16          17          18          19          20
 IAtWgt=          12          12          16          12          12          12          12          12          12          12
 AtmWgt=  12.0000000  12.0000000  15.9949146  12.0000000  12.0000000  12.0000000  12.0000000  12.0000000  12.0000000  12.0000000
 NucSpn=           0           0           0           0           0           0           0           0           0           0
 AtZEff=  -0.0000000  -0.0000000  -0.0000000  -0.0000000  -0.0000000  -0.0000000  -0.0000000  -0.0000000  -0.0000000  -0.0000000
 NQMom=    0.0000000   0.0000000   0.0000000   0.0000000   0.0000000   0.0000000   0.0000000   0.0000000   0.0000000   0.0000000
 NMagM=    0.0000000   0.0000000   0.0000000   0.0000000   0.0000000   0.0000000   0.0000000   0.0000000   0.0000000   0.0000000
 AtZNuc=   6.0000000   6.0000000   8.0000000   6.0000000   6.0000000   6.0000000   6.0000000   6.0000000   6.0000000   6.0000000

  Atom        21          22          23          24          25          26          27          28          29          30
 IAtWgt=          12          12           1           1           1           1           1           1           1           1
 AtmWgt=  12.0000000  12.0000000   1.0078250   1.0078250   1.0078250   1.0078250   1.0078250   1.0078250   1.0078250   1.0078250
 NucSpn=           0           0           1           1           1           1           1           1           1           1
 AtZEff=  -0.0000000  -0.0000000  -0.0000000  -0.0000000  -0.0000000  -0.0000000  -0.0000000  -0.0000000  -0.0000000  -0.0000000
 NQMom=    0.0000000   0.0000000   0.0000000   0.0000000   0.0000000   0.0000000   0.0000000   0.0000000   0.0000000   0.0000000
 NMagM=    0.0000000   0.0000000   2.7928460   2.7928460   2.7928460   2.7928460   2.7928460   2.7928460   2.7928460   2.7928460
 AtZNuc=   6.0000000   6.0000000   1.0000000   1.0000000   1.0000000   1.0000000   1.0000000   1.0000000   1.0000000   1.0000000

  Atom        31          32          33          34          35          36          37          38          39          40
 IAtWgt=           1           1           1           1           1           1           1           1           1           1
 AtmWgt=   1.0078250   1.0078250   1.0078250   1.0078250   1.0078250   1.0078250   1.0078250   1.0078250   1.0078250   1.0078250
 NucSpn=           1           1           1           1           1           1           1           1           1           1
 AtZEff=  -0.0000000  -0.0000000  -0.0000000  -0.0000000  -0.0000000  -0.0000000  -0.0000000  -0.0000000  -0.0000000  -0.0000000
 NQMom=    0.0000000   0.0000000   0.0000000   0.0000000   0.0000000   0.0000000   0.0000000   0.0000000   0.0000000   0.0000000
 NMagM=    2.7928460   2.7928460   2.7928460   2.7928460   2.7928460   2.7928460   2.7928460   2.7928460   2.7928460   2.7928460
 AtZNuc=   1.0000000   1.0000000   1.0000000   1.0000000   1.0000000   1.0000000   1.0000000   1.0000000   1.0000000   1.0000000

  Atom        41          42          43
 IAtWgt=           1           1           1
 AtmWgt=   1.0078250   1.0078250   1.0078250
 NucSpn=           1           1           1
 AtZEff=  -0.0000000  -0.0000000  -0.0000000
 NQMom=    0.0000000   0.0000000   0.0000000
 NMagM=    2.7928460   2.7928460   2.7928460
 AtZNuc=   1.0000000   1.0000000   1.0000000
 Leave Link  101 at Thu Nov  3 08:04:24 2022, MaxMem=  4194304000 cpu:               1.0 elap:               0.2
 (Enter /software/gaussian/G16-A.03/avx/g16/l103.exe)

 GradGradGradGradGradGradGradGradGradGradGradGradGradGradGradGradGradGrad
 Berny optimization.
 Initialization pass.
 Trust Radius=3.00D-01 FncErr=1.00D-07 GrdErr=1.00D-07 EigMax=2.50D+02 EigMin=1.00D-04
 Number of steps in this run=      2 maximum allowed number of steps=      2.
 GradGradGradGradGradGradGradGradGradGradGradGradGradGradGradGradGradGrad

 Leave Link  103 at Thu Nov  3 08:04:25 2022, MaxMem=  4194304000 cpu:               0.2 elap:               0.1
 (Enter /software/gaussian/G16-A.03/avx/g16/l202.exe)
                          Input orientation:                          
 ---------------------------------------------------------------------
 Center     Atomic      Atomic             Coordinates (Angstroms)
 Number     Number       Type             X           Y           Z
 ---------------------------------------------------------------------
      1          6           0        3.648690   -1.860570   -1.453980
      2          6           0        3.470740   -1.031350   -0.200370
      3          1           0        3.384560   -1.696050    0.677270
      4          6           0        4.521450    0.067190    0.028690
      5          8           0        3.749370    1.222490    0.408200
      6          6           0        2.473110    0.929850    0.172700
      7          7           0        2.228430   -0.257140   -0.221560
      8          7           0       -0.389960    0.698690   -0.549190
      9          6           0        0.153170    1.792240   -0.175820
     10          6           0        1.470670    1.989490    0.539360
     11          6           0        1.191120    1.803400    2.052840
     12          6           0        2.034570    3.384490    0.254390
     13          8           0       -0.552190    2.906000   -0.347960
     14          6           0       -1.767280    2.541270   -1.016060
     15          6           0       -1.737520    0.986660   -1.068040
     16          6           0       -1.849320    0.456140   -2.494660
     17          6           0       -2.813670    0.392970   -0.164280
     18          6           0       -4.156920    0.641690   -0.475180
     19          6           0       -5.181150    0.137180    0.320250
     20          6           0       -4.877600   -0.632690    1.442750
     21          6           0       -3.546030   -0.883680    1.758870
     22          6           0       -2.519450   -0.373100    0.965000
     23          1           0        3.699760   -1.219040   -2.347340
     24          1           0        2.798360   -2.549130   -1.571200
     25          1           0        4.568480   -2.461170   -1.397430
     26          1           0        5.075490    0.319940   -0.889910
     27          1           0        5.232740   -0.148640    0.835680
     28          1           0        0.899430    0.762830    2.266320
     29          1           0        0.390160    2.487710    2.366470
     30          1           0        2.101360    2.039960    2.621770
     31          1           0        2.215100    3.534700   -0.819880
     32          1           0        2.984660    3.512510    0.787290
     33          1           0        1.325390    4.148870    0.593730
     34          1           0       -1.751810    2.998500   -2.017040
     35          1           0       -2.610380    2.942040   -0.439650
     36          1           0       -1.064010    0.901840   -3.124480
     37          1           0       -2.828970    0.705320   -2.926970
     38          1           0       -1.724520   -0.636400   -2.483660
     39          1           0       -4.414350    1.237770   -1.355720
     40          1           0       -6.221890    0.341930    0.057890
     41          1           0       -5.678710   -1.037410    2.065630
     42          1           0       -3.287730   -1.492630    2.628050
     43          1           0       -1.489510   -0.600900    1.245290
 ---------------------------------------------------------------------
                    Distance matrix (angstroms):
                    1          2          3          4          5
     1  C    0.000000
     2  C    1.513542   0.000000
     3  H    2.153847   1.104312   0.000000
     4  C    2.583850   1.537287   2.195949   0.000000
     5  O    3.603208   2.351125   2.953534   1.440435   0.000000
     6  C    3.437226   2.231760   2.825010   2.227244   1.330390
     7  N    2.471232   1.463962   2.053045   2.329325   2.213405
     8  N    4.866123   4.244964   4.635298   4.985447   4.280773
     9  C    5.214918   4.356551   4.830922   4.701010   3.687594
    10  C    4.851818   3.697696   4.155141   3.641879   2.407897
    11  C    5.635789   4.278952   4.353105   4.266463   3.096278
    12  C    5.747570   4.665730   5.273821   4.152107   2.763773
    13  O    6.449098   5.631028   6.142309   5.826022   4.680748
    14  C    6.992904   6.392638   6.882129   6.838180   5.848173
    15  C    6.104664   5.652538   6.039764   6.420510   5.686903
    16  C    6.056259   5.981591   6.487416   6.863329   6.352891
    17  C    6.964472   6.443896   6.594715   7.344886   6.639980
    18  C    8.255114   7.813820   7.979166   8.711948   7.976660
    19  C    9.225236   8.745954   8.766960   9.707232   8.996656
    20  C    9.088254   8.517837   8.365404   9.530558   8.884627
    21  C    7.939818   7.286665   7.061365   8.305535   7.712530
    22  C    6.790433   6.137895   6.057253   7.116516   6.492614
    23  H    1.101027   2.167293   3.078174   2.824019   3.681919
    24  H    1.100417   2.152888   2.475276   3.517644   4.364351
    25  H    1.099969   2.163879   2.508277   2.903211   4.183371
    26  H    2.666188   2.208319   3.062599   1.102120   2.063560
    27  H    3.268404   2.226482   2.415645   1.097155   2.064733
    28  H    5.318016   3.989396   3.840188   4.313923   3.433082
    29  H    6.642394   5.335019   5.415134   5.328385   4.088997
    30  H    5.849795   4.390059   4.402891   4.058660   2.878209
    31  H    5.618381   4.775902   5.565055   4.250053   3.034548
    32  H    5.859541   4.675298   5.225048   3.848042   2.443907
    33  H    6.760489   5.662844   6.197600   5.214804   3.804445
    34  H    7.286494   6.842149   7.461930   7.220206   6.268890
    35  H    7.954237   7.268088   7.661507   7.703707   6.642448
    36  H    5.712357   5.731632   6.402508   6.468113   5.979237
    37  H    7.121346   7.080729   7.573974   7.948070   7.393604
    38  H    5.606266   5.688596   6.100577   6.768979   6.463884
    39  H    8.638401   8.286035   8.576908   9.117860   8.352124
    40  H   10.225708   9.792838   9.839760  10.746892  10.016193
    41  H   10.003281   9.425881   9.192617  10.460044   9.835798
    42  H    8.056815   7.340957   6.954594   8.376933   7.862594
    43  H    5.939186   5.184525   5.027779   6.169125   5.609932
                    6          7          8          9         10
     6  C    0.000000
     7  N    1.274462   0.000000
     8  N    2.961711   2.806585   0.000000
     9  C    2.499461   2.916977   1.276811   0.000000
    10  C    1.504049   2.490090   2.512578   1.512017   0.000000
    11  C    2.437522   3.239557   3.238944   2.458534   1.550290
    12  C    2.494844   3.677714   3.706428   2.502001   1.531410
    13  O    3.650849   4.213464   2.222393   1.329521   2.391504
    14  C    4.689428   4.942472   2.347356   2.226023   3.634297
    15  C    4.389996   4.241736   1.472430   2.240474   3.725840
    16  C    5.101236   4.722690   2.444057   3.342476   4.751713
    17  C    5.324644   5.084161   2.473053   3.280279   4.625965
    18  C    6.667839   6.453287   3.768118   4.471047   5.875000
    19  C    7.696609   7.439820   4.901706   5.607163   6.908384
    20  C    7.621515   7.307984   5.087171   5.814525   6.927660
    21  C    6.483431   6.136696   4.218034   4.958594   5.908434
    22  C    5.220256   4.895277   2.824223   3.623957   4.656614
    23  H    3.531713   2.758442   4.861773   5.134356   4.857627
    24  H    3.905160   2.720214   4.664571   5.271775   5.178445
    25  H    4.284262   3.422901   5.940568   6.251303   5.758121
    26  H    2.876371   2.980849   5.489142   5.187179   4.221959
    27  H    3.036156   3.186755   5.852400   5.531020   4.337347
    28  H    2.624425   2.999354   3.097376   2.753296   2.193946
    29  H    3.402681   4.196586   3.508597   2.646334   2.180380
    30  H    2.714496   3.657505   4.249784   3.418087   2.176407
    31  H    2.799469   3.838778   3.860384   2.775344   2.188466
    32  H    2.703616   3.974912   4.592583   3.450253   2.161764
    33  H    3.443344   4.570897   4.019009   2.742264   2.164944
    34  H    5.188856   5.446582   3.049319   2.911031   4.235287
    35  H    5.501432   5.804860   3.158304   3.004805   4.303578
    36  H    4.835638   4.539861   2.669781   3.311938   4.585990
    37  H    6.145764   5.815743   3.406266   4.200402   5.670224
    38  H    5.208597   4.570202   2.702904   3.840591   5.122810
    39  H    7.061727   6.902724   4.139663   4.749931   6.228152
    40  H    8.715610   8.476136   5.874286   6.542126   7.881735
    41  H    8.596829   8.268187   6.149976   6.858706   7.912348
    42  H    6.714494   6.330461   4.826366   5.521943   6.255410
    43  H    4.381324   4.011595   2.473480   3.231883   3.996389
                   11         12         13         14         15
    11  C    0.000000
    12  C    2.538834   0.000000
    13  O    3.165233   2.698723   0.000000
    14  C    4.326052   4.096233   1.433816   0.000000
    15  C    4.357050   4.661231   2.367992   1.555763   0.000000
    16  C    5.633750   5.587228   3.506092   2.557490   1.526170
    17  C    4.789914   5.712259   3.385757   2.536859   1.525565
    18  C    6.028432   6.811004   4.258798   3.100215   2.514753
    19  C    6.810579   7.913026   5.435084   4.384049   3.808878
    20  C    6.567808   8.082576   5.868402   5.078766   4.334335
    21  C    5.454118   7.184973   5.269107   4.753364   3.841914
    22  C    4.437215   5.946726   4.043077   3.603319   2.567803
    23  H    5.898305   5.543857   6.252404   6.767626   6.005475
    24  H    5.887394   6.254918   6.517741   6.860424   5.773144
    25  H    6.441854   6.581865   7.491940   8.081566   7.194558
    26  H    5.093993   4.466328   6.217089   7.195396   6.847872
    27  H    4.650444   4.800958   6.648101   7.724302   7.314204
    28  H    1.101564   3.494210   3.678972   4.587833   4.256943
    29  H    1.099173   2.822974   2.903639   4.012347   4.309992
    30  H    1.099172   2.723364   4.075616   5.333994   5.427812
    31  H    3.506915   1.099641   2.876781   4.109105   4.709278
    32  H    2.781988   1.096833   3.763769   5.174583   5.667553
    33  H    2.765549   1.096524   2.440658   3.839324   4.705579
    34  H    5.162657   4.432274   2.057540   1.100572   2.224479
    35  H    4.686194   4.717310   2.060547   1.097125   2.231652
    36  H    5.718659   5.213589   3.462323   2.761839   2.165584
    37  H    6.493490   6.399455   4.083872   2.854729   2.173945
    38  H    5.918903   6.147783   4.299322   3.500466   2.153711
    39  H    6.584794   6.984943   4.326067   2.970094   2.703930
    40  H    7.814630   8.801416   6.235757   5.082717   4.668294
    41  H    7.434039   9.073504   6.903413   6.132132   5.426760
    42  H    5.590597   7.599174   5.973923   5.644790   4.712867
    43  H    3.690335   5.411502   3.964261   3.881249   2.816621
                   16         17         18         19         20
    16  C    0.000000
    17  C    2.522822   0.000000
    18  C    3.072091   1.401014   0.000000
    19  C    4.373391   2.430053   1.391505   0.000000
    20  C    5.085197   2.809685   2.412857   1.394578   0.000000
    21  C    4.771421   2.421713   2.773251   2.405286   1.391405
    22  C    3.620216   1.395959   2.405250   2.785810   2.420021
    23  H    5.798295   7.056139   8.288228   9.371549   9.395727
    24  H    5.611181   6.490782   7.730363   8.629393   8.466227
    25  H    7.134618   8.010176   9.306497  10.235093  10.031869
    26  H    7.109625   7.922797   9.247320  10.329402  10.267074
    27  H    7.849363   8.126375   9.513606  10.430554  10.140109
    28  H    5.506053   4.453282   5.753014   6.414989   5.999985
    29  H    5.724782   4.588808   5.670864   6.383690   6.191886
    30  H    6.655390   5.884910   7.121259   7.870992   7.565648
    31  H    5.366743   5.965635   7.006494   8.218732   8.531883
    32  H    6.593933   6.652642   7.799846   8.848245   8.912208
    33  H    5.766558   5.640318   6.595347   7.648759   7.877895
    34  H    2.588672   3.368836   3.703571   5.040878   5.909844
    35  H    3.313907   2.571947   2.772122   3.879890   4.632754
    36  H    1.100924   3.476067   4.080755   5.422335   6.144741
    37  H    1.099407   2.780333   2.789045   4.049688   5.008154
    38  H    1.099700   2.761408   3.403539   4.517591   5.035735
    39  H    2.913333   2.166886   1.094044   2.146662   3.397743
    40  H    5.064378   3.415835   2.153630   1.092655   2.162137
    41  H    6.139313   3.902171   3.404547   2.161846   1.092499
    42  H    5.666470   3.402547   3.865340   3.401068   2.161509
    43  H    3.903079   2.174411   3.408683   3.876682   3.393988
                   21         22         23         24         25
    21  C    0.000000
    22  C    1.394557   0.000000
    23  H    8.335160   7.096885   0.000000
    24  H    7.356247   6.280646   1.784392   0.000000
    25  H    8.848501   7.757568   1.788824   1.780803   0.000000
    26  H    9.099195   7.848829   2.526894   3.725727   2.872144
    27  H    8.857729   7.756517   3.691531   4.181104   3.282654
    28  H    4.767664   3.830471   5.749393   5.413093   6.105667
    29  H    5.218145   4.314416   6.849340   6.831869   7.491109
    30  H    6.417576   5.469884   6.153700   6.255122   6.519265
    31  H    7.704716   6.393173   5.209164   6.157732   6.467025
    32  H    7.932236   6.739790   5.720563   6.506970   6.554871
    33  H    7.100341   5.947171   6.565210   7.191646   7.627252
    34  H    5.705089   4.566127   6.900461   7.188812   8.374842
    35  H    4.510550   3.601592   7.795623   7.790239   9.035931
    36  H    5.761563   4.524116   5.272152   5.407382   6.783619
    37  H    4.999619   4.050460   6.831065   6.640512   8.190752
    38  H    4.623646   3.548873   5.457185   4.994754   6.641651
    39  H    3.867195   3.401660   8.535690   8.149247   9.714686
    40  H    3.399365   3.878425  10.327676   9.611299  11.243105
    41  H    2.160106   3.410809  10.366436   9.347328  10.909848
    42  H    1.092251   2.146937   8.582213   7.469296   8.880461
    43  H    2.138458   1.091436   6.341736   5.487627   6.866135
                   26         27         28         29         30
    26  H    0.000000
    27  H    1.794981   0.000000
    28  H    5.253324   4.653502   0.000000
    29  H    6.103733   5.722258   1.801276   0.000000
    30  H    4.912821   4.217301   1.789425   1.787138   0.000000
    31  H    4.303652   5.041232   4.351882   3.818301   3.753950
    32  H    4.168582   4.296536   3.754524   3.205535   2.512755
    33  H    5.561038   5.813305   3.800561   2.603212   3.026975
    34  H    7.420049   8.174744   5.511304   4.905517   6.106085
    35  H    8.133311   8.526037   4.938623   4.133275   5.690917
    36  H    6.559373   7.512352   5.738915   5.897468   6.658399
    37  H    8.171819   8.937447   6.393320   6.446722   7.541746
    38  H    7.049451   7.723949   5.604040   6.144566   6.918502
    39  H    9.545494   9.989530   6.448333   6.204866   7.675833
    40  H   11.337090  11.491482   7.467765   7.324829   8.873177
    41  H   11.235232  11.016462   6.822981   7.024824   8.385045
    42  H    9.252292   8.810069   4.769723   5.425717   6.443720
    43  H    6.964643   6.749886   2.934160   3.785461   4.665103
                   31         32         33         34         35
    31  H    0.000000
    32  H    1.782052   0.000000
    33  H    1.779630   1.787623   0.000000
    34  H    4.178167   5.528347   4.196264   0.000000
    35  H    4.876585   5.756326   4.244361   1.796800   0.000000
    36  H    4.795383   6.205584   5.484298   2.468902   3.709715
    37  H    6.155312   7.448110   6.442986   2.692011   3.352232
    38  H    5.973847   7.077354   6.455315   3.664830   4.215206
    39  H    7.036520   8.031954   6.724543   3.259852   2.645379
    40  H    9.063502   9.764485   8.470027   5.598599   4.477848
    41  H    9.567789   9.868632   8.838631   6.955380   5.614900
    42  H    8.212393   8.233025   7.566099   6.641247   5.434693
    43  H    5.923871   6.094924   5.559542   4.864903   4.080171
                   36         37         38         39         40
    36  H    0.000000
    37  H    1.786817   0.000000
    38  H    1.792514   1.793473   0.000000
    39  H    3.803438   2.294724   3.466980   0.000000
    40  H    6.086436   4.533580   5.257656   2.463336   0.000000
    41  H    7.210644   6.007011   6.040900   4.298917   2.495725
    42  H    6.615891   5.991635   5.413533   4.959312   4.310525
    43  H    4.640492   4.572539   3.736517   4.324425   4.969333
                   41         42         43
    41  H    0.000000
    42  H    2.498065   0.000000
    43  H    4.291025   2.437376   0.000000
 Stoichiometry    C17H22N2O2
 Framework group  C1[X(C17H22N2O2)]
 Deg. of freedom   123
 Full point group                 C1      NOp   1
 Largest Abelian subgroup         C1      NOp   1
 Largest concise Abelian subgroup C1      NOp   1
                         Standard orientation:                         
 ---------------------------------------------------------------------
 Center     Atomic      Atomic             Coordinates (Angstroms)
 Number     Number       Type             X           Y           Z
 ---------------------------------------------------------------------
      1          6           0       -3.743775   -2.726482    1.139806
      2          6           0       -3.536744   -1.827418   -0.060041
      3          1           0       -3.406452   -2.441854   -0.968335
      4          6           0       -4.599285   -0.736157   -0.268380
      5          8           0       -3.836221    0.451085   -0.556553
      6          6           0       -2.563900    0.167916   -0.290185
      7          7           0       -2.310971   -1.034400    0.048516
      8          7           0        0.275280   -0.053212    0.523384
      9          6           0       -0.274823    1.049582    0.189500
     10          6           0       -1.569305    1.262889   -0.562173
     11          6           0       -1.232083    1.164156   -2.072118
     12          6           0       -2.169548    2.630499   -0.223693
     13          8           0        0.402555    2.164222    0.447113
     14          6           0        1.599593    1.784517    1.139033
     15          6           0        1.597605    0.229099    1.106313
     16          6           0        1.668180   -0.376207    2.505534
     17          6           0        2.716634   -0.296113    0.212291
     18          6           0        4.042869   -0.041756    0.585445
     19          6           0        5.104431   -0.484710   -0.197603
     20          6           0        4.856113   -1.197489   -1.370263
     21          6           0        3.541779   -1.453629   -1.748317
     22          6           0        2.477809   -1.004571   -0.966586
     23          1           0       -3.839110   -2.135434    2.063837
     24          1           0       -2.885242   -3.405772    1.251168
     25          1           0       -4.649333   -3.338742    1.017186
     26          1           0       -5.190674   -0.543220    0.641402
     27          1           0       -5.276892   -0.919913   -1.111488
     28          1           0       -0.913145    0.141865   -2.330268
     29          1           0       -0.433557    1.878085   -2.318780
     30          1           0       -2.125643    1.415714   -2.660716
     31          1           0       -2.391373    2.718979    0.849701
     32          1           0       -3.102151    2.771054   -0.783637
     33          1           0       -1.463327    3.424198   -0.495096
     34          1           0        1.539475    2.186322    2.161872
     35          1           0        2.455064    2.230372    0.616477
     36          1           0        0.852409    0.021116    3.128980
     37          1           0        2.626747   -0.134201    2.986450
     38          1           0        1.564691   -1.468505    2.431277
     39          1           0        4.257106    0.509882    1.505624
     40          1           0        6.130988   -0.276780    0.113592
     41          1           0        5.686642   -1.554006   -1.984000
     42          1           0        3.326510   -2.018749   -2.657884
     43          1           0        1.463127   -1.234354   -1.296513
 ---------------------------------------------------------------------
 Rotational constants (GHZ):           0.5686190           0.1763344           0.1644613
 Leave Link  202 at Thu Nov  3 08:04:26 2022, MaxMem=  4194304000 cpu:               0.1 elap:               0.0
 (Enter /software/gaussian/G16-A.03/avx/g16/l301.exe)
 Standard basis: def2SVP (5D, 7F)
 Ernie: Thresh=  0.10000D-02 Tol=  0.10000D-05 Strict=F.
 There are   425 symmetry adapted cartesian basis functions of A   symmetry.
 There are   404 symmetry adapted basis functions of A   symmetry.
   404 basis functions,   679 primitive gaussians,   425 cartesian basis functions
    77 alpha electrons       77 beta electrons
       nuclear repulsion energy      1720.0931959514 Hartrees.
 IExCor= 1009 DFT=T Ex+Corr=PBE1PBE ExCW=0 ScaHFX=  0.250000
 ScaDFX=  0.750000  0.750000  1.000000  1.000000 ScalE2=  1.000000  1.000000
 IRadAn=      5 IRanWt=     -1 IRanGd=            0 ICorTp=0 IEmpDi=141
 NAtoms=   43 NActive=   43 NUniq=   43 SFac= 1.00D+00 NAtFMM=   60 NAOKFM=F Big=F
 Integral buffers will be    131072 words long.
 Raffenetti 2 integral format.
 Two-electron integral symmetry is turned on.
 R6Disp:  Grimme-D3(BJ) Dispersion energy=       -0.0465133001 Hartrees.
 Nuclear repulsion after empirical dispersion term =     1720.0466826513 Hartrees.
 Leave Link  301 at Thu Nov  3 08:04:27 2022, MaxMem=  4194304000 cpu:               0.5 elap:               0.1
 (Enter /software/gaussian/G16-A.03/avx/g16/l302.exe)
 NPDir=0 NMtPBC=     1 NCelOv=     1 NCel=       1 NClECP=     1 NCelD=      1
         NCelK=      1 NCelE2=     1 NClLst=     1 CellRange=     0.0.
 One-electron integrals computed using PRISM.
 One-electron integral symmetry used in STVInt
   1 Symmetry operations used in ECPInt.
 ECPInt:  NShTT=   18528 NPrTT=   66042 LenC2=   16719 LenP2D=   41544.
 LDataN:  DoStor=T MaxTD1= 4 Len=   56
 NBasis=   404 RedAO= T EigKep=  2.76D-04  NBF=   404
 NBsUse=   404 1.00D-06 EigRej= -1.00D+00 NBFU=   404
 Precomputing XC quadrature grid using
 IXCGrd= 4 IRadAn=           5 IRanWt=          -1 IRanGd=           0 AccXCQ= 0.00D+00.
 Generated NRdTot=       0 NPtTot=           0 NUsed=           0 NTot=          32
 NSgBfM=   423   423   423   423   423 MxSgAt=    43 MxSgA2=    43.
 Leave Link  302 at Thu Nov  3 08:04:28 2022, MaxMem=  4194304000 cpu:               7.0 elap:               0.9
 (Enter /software/gaussian/G16-A.03/avx/g16/l303.exe)
 DipDrv:  MaxL=1.
 Leave Link  303 at Thu Nov  3 08:04:29 2022, MaxMem=  4194304000 cpu:               0.7 elap:               0.1
 (Enter /software/gaussian/G16-A.03/avx/g16/l401.exe)
 ExpMin= 1.22D-01 ExpMax= 2.27D+03 ExpMxC= 3.41D+02 IAcc=3 IRadAn=         5 AccDes= 0.00D+00
 Harris functional with IExCor= 1009 and IRadAn=       5 diagonalized for initial guess.
 HarFok:  IExCor= 1009 AccDes= 0.00D+00 IRadAn=         5 IDoV= 1 UseB2=F ITyADJ=14
 ICtDFT=  3500011 ScaDFX=  1.000000  1.000000  1.000000  1.000000
 FoFCou: FMM=F IPFlag=           0 FMFlag=      100000 FMFlg1=           0
         NFxFlg=           0 DoJE=T BraDBF=F KetDBF=T FulRan=T
         wScrn=  0.000000 ICntrl=       500 IOpCl=  0 I1Cent=   200000004 NGrid=           0
         NMat0=    1 NMatS0=      1 NMatT0=    0 NMatD0=    1 NMtDS0=    0 NMtDT0=    0
 Petite list used in FoFCou.
 Harris En= -919.530598014886    
 JPrj=0 DoOrth=F DoCkMO=F.
 Leave Link  401 at Thu Nov  3 08:04:35 2022, MaxMem=  4194304000 cpu:              40.1 elap:               5.1
 (Enter /software/gaussian/G16-A.03/avx/g16/l502.exe)
 Integral symmetry usage will be decided dynamically.
 Closed shell SCF:
 Using DIIS extrapolation, IDIIS=  1040.
 NGot=  4194304000 LenX=  4193934699 LenY=  4193753633
 Requested convergence on RMS density matrix=1.00D-08 within 128 cycles.
 Requested convergence on MAX density matrix=1.00D-06.
 Requested convergence on             energy=1.00D-06.
 No special actions if energy rises.
 Fock matrices will be formed incrementally for  20 cycles.
 Integral accuracy reduced to 1.0D-05 until final iterations.

 Cycle   1  Pass 0  IDiag  1:
 FoFJK:  IHMeth= 1 ICntrl=       0 DoSepK=F KAlg= 0 I1Cent=           0 FoldK=F
 IRaf= 830000000 NMat=       1 IRICut=       1 DoRegI=T DoRafI=F ISym2E= 0 IDoP0=0 IntGTp=1.
 FoFCou: FMM=F IPFlag=           0 FMFlag=      100000 FMFlg1=           0
         NFxFlg=           0 DoJE=F BraDBF=F KetDBF=F FulRan=T
         wScrn=  0.000000 ICntrl=         0 IOpCl=  0 I1Cent=           0 NGrid=           0
         NMat0=    1 NMatS0=      1 NMatT0=    0 NMatD0=    1 NMtDS0=    0 NMtDT0=    0
 Symmetry not used in FoFCou.
 E= -918.875661348769    
 DIIS: error= 2.55D-02 at cycle   1 NSaved=   1.
 NSaved= 1 IEnMin= 1 EnMin= -918.875661348769     IErMin= 1 ErrMin= 2.55D-02
 ErrMax= 2.55D-02  0.00D+00 EMaxC= 1.00D-01 BMatC= 4.03D-01 BMatP= 4.03D-01
 IDIUse=3 WtCom= 7.45D-01 WtEn= 2.55D-01
 Coeff-Com:  0.100D+01
 Coeff-En:   0.100D+01
 Coeff:      0.100D+01
 Gap=     0.275 Goal=   None    Shift=    0.000
 GapD=    0.275 DampG=1.000 DampE=0.500 DampFc=0.5000 IDamp=-1.
 Damping current iteration by 5.00D-01
 RMSDP=4.34D-03 MaxDP=1.95D-01              OVMax= 2.42D-01

 Cycle   2  Pass 0  IDiag  1:
 RMSU=  2.14D-03    CP:  9.78D-01
 E= -919.060282440910     Delta-E=       -0.184621092140 Rises=F Damp=T
 DIIS: error= 5.69D-03 at cycle   2 NSaved=   2.
 NSaved= 2 IEnMin= 2 EnMin= -919.060282440910     IErMin= 2 ErrMin= 5.69D-03
 ErrMax= 5.69D-03  0.00D+00 EMaxC= 1.00D-01 BMatC= 3.40D-02 BMatP= 4.03D-01
 IDIUse=3 WtCom= 9.43D-01 WtEn= 5.69D-02
 Coeff-Com:  0.858D-01 0.914D+00
 Coeff-En:   0.128D+00 0.872D+00
 Coeff:      0.882D-01 0.912D+00
 Gap=     0.303 Goal=   None    Shift=    0.000
 RMSDP=1.43D-03 MaxDP=5.24D-02 DE=-1.85D-01 OVMax= 2.02D-01

 Cycle   3  Pass 0  IDiag  1:
 RMSU=  1.38D-03    CP:  9.64D-01  8.57D-01
 E= -919.260127676719     Delta-E=       -0.199845235809 Rises=F Damp=F
 DIIS: error= 1.06D-02 at cycle   3 NSaved=   3.
 NSaved= 3 IEnMin= 3 EnMin= -919.260127676719     IErMin= 2 ErrMin= 5.69D-03
 ErrMax= 1.06D-02  0.00D+00 EMaxC= 1.00D-01 BMatC= 5.28D-02 BMatP= 3.40D-02
 IDIUse=2 WtCom= 0.00D+00 WtEn= 1.00D+00
 Coeff-En:   0.000D+00 0.000D+00 0.100D+01
 Coeff:      0.000D+00 0.000D+00 0.100D+01
 Gap=     0.241 Goal=   None    Shift=    0.000
 RMSDP=2.10D-03 MaxDP=1.06D-01 DE=-2.00D-01 OVMax= 2.30D-01

 Cycle   4  Pass 0  IDiag  1:
 RMSU=  1.16D-03    CP:  9.72D-01  1.33D+00 -2.15D-02
 E= -919.061712918428     Delta-E=        0.198414758291 Rises=F Damp=F
 DIIS: error= 2.49D-02 at cycle   4 NSaved=   4.
 NSaved= 4 IEnMin= 3 EnMin= -919.260127676719     IErMin= 2 ErrMin= 5.69D-03
 ErrMax= 2.49D-02  0.00D+00 EMaxC= 1.00D-01 BMatC= 2.75D-01 BMatP= 3.40D-02
 IDIUse=2 WtCom= 0.00D+00 WtEn= 1.00D+00
 Coeff-En:   0.000D+00 0.000D+00 0.783D+00 0.217D+00
 Coeff:      0.000D+00 0.000D+00 0.783D+00 0.217D+00
 Gap=     0.225 Goal=   None    Shift=    0.000
 RMSDP=1.13D-03 MaxDP=6.07D-02 DE= 1.98D-01 OVMax= 1.16D-01

 Cycle   5  Pass 0  IDiag  1:
 RMSU=  1.74D-04    CP:  9.68D-01  1.05D+00  5.12D-01  5.00D-01
 E= -919.289919166515     Delta-E=       -0.228206248087 Rises=F Damp=F
 DIIS: error= 6.74D-03 at cycle   5 NSaved=   5.
 NSaved= 5 IEnMin= 5 EnMin= -919.289919166515     IErMin= 2 ErrMin= 5.69D-03
 ErrMax= 6.74D-03  0.00D+00 EMaxC= 1.00D-01 BMatC= 2.02D-02 BMatP= 3.40D-02
 IDIUse=3 WtCom= 9.33D-01 WtEn= 6.74D-02
 Coeff-Com: -0.322D-02 0.178D-01 0.270D+00-0.112D+00 0.827D+00
 Coeff-En:   0.000D+00 0.000D+00 0.322D+00 0.000D+00 0.678D+00
 Coeff:     -0.300D-02 0.166D-01 0.274D+00-0.104D+00 0.817D+00
 Gap=     0.240 Goal=   None    Shift=    0.000
 RMSDP=3.87D-04 MaxDP=2.12D-02 DE=-2.28D-01 OVMax= 4.15D-02

 Cycle   6  Pass 0  IDiag  1:
 RMSU=  4.64D-05    CP:  9.66D-01  9.71D-01  6.98D-01  3.07D-01  9.06D-01
 E= -919.307775711203     Delta-E=       -0.017856544688 Rises=F Damp=F
 DIIS: error= 2.57D-04 at cycle   6 NSaved=   6.
 NSaved= 6 IEnMin= 6 EnMin= -919.307775711203     IErMin= 6 ErrMin= 2.57D-04
 ErrMax= 2.57D-04  0.00D+00 EMaxC= 1.00D-01 BMatC= 4.52D-05 BMatP= 2.02D-02
 IDIUse=3 WtCom= 9.97D-01 WtEn= 2.57D-03
 Coeff-Com: -0.256D-02 0.802D-02 0.130D+00-0.709D-01 0.465D+00 0.471D+00
 Coeff-En:   0.000D+00 0.000D+00 0.000D+00 0.000D+00 0.000D+00 0.100D+01
 Coeff:     -0.256D-02 0.800D-02 0.129D+00-0.707D-01 0.464D+00 0.472D+00
 Gap=     0.239 Goal=   None    Shift=    0.000
 RMSDP=2.57D-05 MaxDP=1.16D-03 DE=-1.79D-02 OVMax= 2.33D-03

 Cycle   7  Pass 0  IDiag  1:
 RMSU=  1.57D-05    CP:  9.66D-01  9.73D-01  6.98D-01  3.11D-01  9.12D-01
                    CP:  5.87D-01
 E= -919.307817318187     Delta-E=       -0.000041606984 Rises=F Damp=F
 DIIS: error= 1.23D-04 at cycle   7 NSaved=   7.
 NSaved= 7 IEnMin= 7 EnMin= -919.307817318187     IErMin= 7 ErrMin= 1.23D-04
 ErrMax= 1.23D-04  0.00D+00 EMaxC= 1.00D-01 BMatC= 5.28D-06 BMatP= 4.52D-05
 IDIUse=3 WtCom= 9.99D-01 WtEn= 1.23D-03
 Coeff-Com: -0.832D-03 0.160D-02 0.405D-01-0.250D-01 0.155D+00 0.277D+00
 Coeff-Com:  0.552D+00
 Coeff-En:   0.000D+00 0.000D+00 0.000D+00 0.000D+00 0.000D+00 0.768D-01
 Coeff-En:   0.923D+00
 Coeff:     -0.831D-03 0.159D-02 0.405D-01-0.250D-01 0.155D+00 0.276D+00
 Coeff:      0.553D+00
 Gap=     0.239 Goal=   None    Shift=    0.000
 RMSDP=7.44D-06 MaxDP=3.23D-04 DE=-4.16D-05 OVMax= 5.71D-04

 Initial convergence to 1.0D-05 achieved.  Increase integral accuracy.
 Cycle   8  Pass 1  IDiag  1:
 E= -919.307836694845     Delta-E=       -0.000019376658 Rises=F Damp=F
 DIIS: error= 8.54D-05 at cycle   1 NSaved=   1.
 NSaved= 1 IEnMin= 1 EnMin= -919.307836694845     IErMin= 1 ErrMin= 8.54D-05
 ErrMax= 8.54D-05  0.00D+00 EMaxC= 1.00D-01 BMatC= 2.58D-06 BMatP= 2.58D-06
 IDIUse=1 WtCom= 1.00D+00 WtEn= 0.00D+00
 Coeff-Com:  0.100D+01
 Coeff:      0.100D+01
 Gap=     0.239 Goal=   None    Shift=    0.000
 RMSDP=7.44D-06 MaxDP=3.23D-04 DE=-1.94D-05 OVMax= 3.61D-04

 Cycle   9  Pass 1  IDiag  1:
 RMSU=  8.17D-05    CP:  1.00D+00
 E= -919.307838592493     Delta-E=       -0.000001897648 Rises=F Damp=F
 DIIS: error= 4.34D-05 at cycle   2 NSaved=   2.
 NSaved= 2 IEnMin= 2 EnMin= -919.307838592493     IErMin= 2 ErrMin= 4.34D-05
 ErrMax= 4.34D-05  0.00D+00 EMaxC= 1.00D-01 BMatC= 9.32D-07 BMatP= 2.58D-06
 IDIUse=1 WtCom= 1.00D+00 WtEn= 0.00D+00
 Coeff-Com:  0.317D+00 0.683D+00
 Coeff:      0.317D+00 0.683D+00
 Gap=     0.239 Goal=   None    Shift=    0.000
 RMSDP=5.68D-06 MaxDP=3.56D-04 DE=-1.90D-06 OVMax= 4.74D-04

 Cycle  10  Pass 1  IDiag  1:
 RMSU=  5.61D-06    CP:  1.00D+00  1.01D+00
 E= -919.307838554330     Delta-E=        0.000000038162 Rises=F Damp=F
 DIIS: error= 4.79D-05 at cycle   3 NSaved=   3.
 NSaved= 3 IEnMin= 2 EnMin= -919.307838592493     IErMin= 2 ErrMin= 4.34D-05
 ErrMax= 4.79D-05  0.00D+00 EMaxC= 1.00D-01 BMatC= 1.00D-06 BMatP= 9.32D-07
 IDIUse=1 WtCom= 1.00D+00 WtEn= 0.00D+00
 Coeff-Com:  0.139D-01 0.506D+00 0.480D+00
 Coeff:      0.139D-01 0.506D+00 0.480D+00
 Gap=     0.239 Goal=   None    Shift=    0.000
 RMSDP=3.06D-06 MaxDP=2.11D-04 DE= 3.82D-08 OVMax= 2.78D-04

 Cycle  11  Pass 1  IDiag  1:
 RMSU=  1.04D-06    CP:  1.00D+00  1.02D+00  5.01D-01
 E= -919.307839391617     Delta-E=       -0.000000837286 Rises=F Damp=F
 DIIS: error= 6.87D-06 at cycle   4 NSaved=   4.
 NSaved= 4 IEnMin= 4 EnMin= -919.307839391617     IErMin= 4 ErrMin= 6.87D-06
 ErrMax= 6.87D-06  0.00D+00 EMaxC= 1.00D-01 BMatC= 3.93D-08 BMatP= 9.32D-07
 IDIUse=1 WtCom= 1.00D+00 WtEn= 0.00D+00
 Coeff-Com: -0.465D-02 0.283D+00 0.295D+00 0.427D+00
 Coeff:     -0.465D-02 0.283D+00 0.295D+00 0.427D+00
 Gap=     0.239 Goal=   None    Shift=    0.000
 RMSDP=5.98D-07 MaxDP=3.01D-05 DE=-8.37D-07 OVMax= 3.91D-05

 Cycle  12  Pass 1  IDiag  1:
 RMSU=  2.14D-07    CP:  1.00D+00  1.02D+00  5.15D-01  4.68D-01
 E= -919.307839427682     Delta-E=       -0.000000036065 Rises=F Damp=F
 DIIS: error= 1.29D-06 at cycle   5 NSaved=   5.
 NSaved= 5 IEnMin= 5 EnMin= -919.307839427682     IErMin= 5 ErrMin= 1.29D-06
 ErrMax= 1.29D-06  0.00D+00 EMaxC= 1.00D-01 BMatC= 6.54D-10 BMatP= 3.93D-08
 IDIUse=1 WtCom= 1.00D+00 WtEn= 0.00D+00
 Coeff-Com: -0.304D-02 0.168D+00 0.175D+00 0.264D+00 0.396D+00
 Coeff:     -0.304D-02 0.168D+00 0.175D+00 0.264D+00 0.396D+00
 Gap=     0.239 Goal=   None    Shift=    0.000
 RMSDP=7.73D-08 MaxDP=4.30D-06 DE=-3.61D-08 OVMax= 7.31D-06

 Cycle  13  Pass 1  IDiag  1:
 RMSU=  6.66D-08    CP:  1.00D+00  1.02D+00  5.14D-01  4.80D-01  8.31D-01
 E= -919.307839428273     Delta-E=       -0.000000000592 Rises=F Damp=F
 DIIS: error= 2.07D-07 at cycle   6 NSaved=   6.
 NSaved= 6 IEnMin= 6 EnMin= -919.307839428273     IErMin= 6 ErrMin= 2.07D-07
 ErrMax= 2.07D-07  0.00D+00 EMaxC= 1.00D-01 BMatC= 1.88D-11 BMatP= 6.54D-10
 IDIUse=1 WtCom= 1.00D+00 WtEn= 0.00D+00
 Coeff-Com: -0.811D-03 0.414D-01 0.432D-01 0.678D-01 0.174D+00 0.674D+00
 Coeff:     -0.811D-03 0.414D-01 0.432D-01 0.678D-01 0.174D+00 0.674D+00
 Gap=     0.239 Goal=   None    Shift=    0.000
 RMSDP=1.89D-08 MaxDP=1.09D-06 DE=-5.92D-10 OVMax= 1.60D-06

 Cycle  14  Pass 1  IDiag  1:
 RMSU=  1.60D-08    CP:  1.00D+00  1.02D+00  5.14D-01  4.81D-01  8.62D-01
                    CP:  9.05D-01
 E= -919.307839428302     Delta-E=       -0.000000000029 Rises=F Damp=F
 DIIS: error= 6.33D-08 at cycle   7 NSaved=   7.
 NSaved= 7 IEnMin= 7 EnMin= -919.307839428302     IErMin= 7 ErrMin= 6.33D-08
 ErrMax= 6.33D-08  0.00D+00 EMaxC= 1.00D-01 BMatC= 4.57D-12 BMatP= 1.88D-11
 IDIUse=1 WtCom= 1.00D+00 WtEn= 0.00D+00
 Coeff-Com: -0.433D-04 0.690D-03 0.616D-03 0.284D-02 0.450D-01 0.386D+00
 Coeff-Com:  0.565D+00
 Coeff:     -0.433D-04 0.690D-03 0.616D-03 0.284D-02 0.450D-01 0.386D+00
 Coeff:      0.565D+00
 Gap=     0.239 Goal=   None    Shift=    0.000
 RMSDP=7.89D-09 MaxDP=4.24D-07 DE=-2.86D-11 OVMax= 5.96D-07

 SCF Done:  E(RPBE1PBE) =  -919.307839428     A.U. after   14 cycles
            NFock= 14  Conv=0.79D-08     -V/T= 2.0100
 KE= 9.101940841732D+02 PE=-5.576417476479D+03 EE= 2.026868870226D+03
 Leave Link  502 at Thu Nov  3 08:06:36 2022, MaxMem=  4194304000 cpu:             962.4 elap:             120.4
 (Enter /software/gaussian/G16-A.03/avx/g16/l801.exe)
 DoSCS=F DFT=T ScalE2(SS,OS)=  1.000000  1.000000
 Range of M.O.s used for correlation:     1   404
 NBasis=   404 NAE=    77 NBE=    77 NFC=     0 NFV=     0
 NROrb=    404 NOA=    77 NOB=    77 NVA=   327 NVB=   327

 **** Warning!!: The largest alpha MO coefficient is  0.10716508D+02

 Leave Link  801 at Thu Nov  3 08:06:37 2022, MaxMem=  4194304000 cpu:               0.3 elap:               0.1
 (Enter /software/gaussian/G16-A.03/avx/g16/l1101.exe)
 Using compressed storage, NAtomX=    43.
 Will process     44 centers per pass.
   1 Symmetry operations used in ECPInt.
 ECPInt:  NShTT=   18528 NPrTT=   66042 LenC2=   16719 LenP2D=   41544.
 LDataN:  DoStor=T MaxTD1= 5 Len=  102
 R6Disp: Adding Grimme-D3(BJ) dispersion energy 1st derivatives to the gradient.
 Leave Link 1101 at Thu Nov  3 08:06:38 2022, MaxMem=  4194304000 cpu:               7.8 elap:               1.1
 (Enter /software/gaussian/G16-A.03/avx/g16/l1102.exe)
 Symmetrizing basis deriv contribution to polar:
 IMax=3 JMax=2 DiffMx= 0.00D+00
 Leave Link 1102 at Thu Nov  3 08:06:39 2022, MaxMem=  4194304000 cpu:               0.6 elap:               0.1
 (Enter /software/gaussian/G16-A.03/avx/g16/l1110.exe)
 Forming Gx(P) for the SCF density, NAtomX=    43.
 Integral derivatives from FoFJK, PRISM(SPDF).
 Do as many integral derivatives as possible in FoFJK.
 G2DrvN: MDV=    4194300768.
 G2DrvN: will do    44 centers at a time, making    1 passes.
 Calling FoFCou, ICntrl=  3107 FMM=F I1Cent=   0 AccDes= 0.00D+00.
 FoFJK:  IHMeth= 1 ICntrl=    3107 DoSepK=F KAlg= 0 I1Cent=           0 FoldK=F
 IRaf=         0 NMat=       1 IRICut=       1 DoRegI=T DoRafI=F ISym2E= 0 IDoP0=0 IntGTp=1.
 FoFCou: FMM=F IPFlag=           0 FMFlag=      100000 FMFlg1=           0
         NFxFlg=           0 DoJE=F BraDBF=F KetDBF=F FulRan=T
         wScrn=  0.000000 ICntrl=      3107 IOpCl=  0 I1Cent=           0 NGrid=           0
         NMat0=    1 NMatS0=      1 NMatT0=    0 NMatD0=    1 NMtDS0=    0 NMtDT0=    0
 Symmetry not used in FoFCou.
 End of G2Drv F.D. properties file   721 does not exist.
 End of G2Drv F.D. properties file   722 does not exist.
 End of G2Drv F.D. properties file   788 does not exist.
 Leave Link 1110 at Thu Nov  3 08:13:53 2022, MaxMem=  4194304000 cpu:            3463.3 elap:             433.0
 (Enter /software/gaussian/G16-A.03/avx/g16/l1002.exe)
 Minotr:  Closed shell wavefunction.
          IDoAtm=1111111111111111111111111111111111111111111
          Direct CPHF calculation.
          Differentiating once with respect to electric field.
                with respect to dipole field.
          Differentiating once with respect to nuclear coordinates.
          Requested convergence is 1.0D-08 RMS, and 1.0D-07 maximum.
          Secondary convergence is 1.0D-12 RMS, and 1.0D-12 maximum.
          NewPWx=T KeepS1=F KeepF1=F KeepIn=T MapXYZ=F SortEE=F KeepMc=T.
        13025 words used for storage of precomputed grid.
 Keep R1 ints in memory in canonical form, NReq=3385153631.
 FoFCou: FMM=F IPFlag=           0 FMFlag=           0 FMFlg1=           0
         NFxFlg=           0 DoJE=F BraDBF=F KetDBF=F FulRan=T
         wScrn=  0.000000 ICntrl=       600 IOpCl=  0 I1Cent=           0 NGrid=           0
         NMat0=    1 NMatS0=  81810 NMatT0=    0 NMatD0=    1 NMtDS0=    0 NMtDT0=    0
 Symmetry not used in FoFCou.
 Two-electron integral symmetry not used.
          MDV=    4194304000 using IRadAn=       1.
          Solving linear equations simultaneously, MaxMat=       0.
          There are   132 degrees of freedom in the 1st order CPHF.  IDoFFX=6 NUNeed=     3.
    129 vectors produced by pass  0 Test12= 2.52D-14 1.00D-09 XBig12= 1.64D+02 5.30D+00.
 AX will form   129 AO Fock derivatives at one time.
    129 vectors produced by pass  1 Test12= 2.52D-14 1.00D-09 XBig12= 4.59D+01 1.45D+00.
    129 vectors produced by pass  2 Test12= 2.52D-14 1.00D-09 XBig12= 4.29D-01 5.80D-02.
    129 vectors produced by pass  3 Test12= 2.52D-14 1.00D-09 XBig12= 1.49D-03 2.30D-03.
    129 vectors produced by pass  4 Test12= 2.52D-14 1.00D-09 XBig12= 3.12D-06 1.33D-04.
     95 vectors produced by pass  5 Test12= 2.52D-14 1.00D-09 XBig12= 3.64D-09 4.11D-06.
     19 vectors produced by pass  6 Test12= 2.52D-14 1.00D-09 XBig12= 4.04D-12 1.21D-07.
      3 vectors produced by pass  7 Test12= 2.52D-14 1.00D-09 XBig12= 4.12D-15 3.54D-09.
 InvSVY:  IOpt=1 It=  1 EMax= 7.11D-15
 Solved reduced A of dimension   762 with   132 vectors.
 FullF1:  Do perturbations      1 to       3.
 Isotropic polarizability for W=    0.000000      191.11 Bohr**3.
 End of Minotr F.D. properties file   721 does not exist.
 End of Minotr F.D. properties file   722 does not exist.
 End of Minotr F.D. properties file   788 does not exist.
 Leave Link 1002 at Thu Nov  3 08:23:01 2022, MaxMem=  4194304000 cpu:            4384.1 elap:             548.1
 (Enter /software/gaussian/G16-A.03/avx/g16/l601.exe)
 Copying SCF densities to generalized density rwf, IOpCl= 0 IROHF=0.

 **********************************************************************

            Population analysis using the SCF density.

 **********************************************************************

 Orbital symmetries:
       Occupied  (A) (A) (A) (A) (A) (A) (A) (A) (A) (A) (A) (A)
                 (A) (A) (A) (A) (A) (A) (A) (A) (A) (A) (A) (A)
                 (A) (A) (A) (A) (A) (A) (A) (A) (A) (A) (A) (A)
                 (A) (A) (A) (A) (A) (A) (A) (A) (A) (A) (A) (A)
                 (A) (A) (A) (A) (A) (A) (A) (A) (A) (A) (A) (A)
                 (A) (A) (A) (A) (A) (A) (A) (A) (A) (A) (A) (A)
                 (A) (A) (A) (A) (A)
       Virtual   (A) (A) (A) (A) (A) (A) (A) (A) (A) (A) (A) (A)
                 (A) (A) (A) (A) (A) (A) (A) (A) (A) (A) (A) (A)
                 (A) (A) (A) (A) (A) (A) (A) (A) (A) (A) (A) (A)
                 (A) (A) (A) (A) (A) (A) (A) (A) (A) (A) (A) (A)
                 (A) (A) (A) (A) (A) (A) (A) (A) (A) (A) (A) (A)
                 (A) (A) (A) (A) (A) (A) (A) (A) (A) (A) (A) (A)
                 (A) (A) (A) (A) (A) (A) (A) (A) (A) (A) (A) (A)
                 (A) (A) (A) (A) (A) (A) (A) (A) (A) (A) (A) (A)
                 (A) (A) (A) (A) (A) (A) (A) (A) (A) (A) (A) (A)
                 (A) (A) (A) (A) (A) (A) (A) (A) (A) (A) (A) (A)
                 (A) (A) (A) (A) (A) (A) (A) (A) (A) (A) (A) (A)
                 (A) (A) (A) (A) (A) (A) (A) (A) (A) (A) (A) (A)
                 (A) (A) (A) (A) (A) (A) (A) (A) (A) (A) (A) (A)
                 (A) (A) (A) (A) (A) (A) (A) (A) (A) (A) (A) (A)
                 (A) (A) (A) (A) (A) (A) (A) (A) (A) (A) (A) (A)
                 (A) (A) (A) (A) (A) (A) (A) (A) (A) (A) (A) (A)
                 (A) (A) (A) (A) (A) (A) (A) (A) (A) (A) (A) (A)
                 (A) (A) (A) (A) (A) (A) (A) (A) (A) (A) (A) (A)
                 (A) (A) (A) (A) (A) (A) (A) (A) (A) (A) (A) (A)
                 (A) (A) (A) (A) (A) (A) (A) (A) (A) (A) (A) (A)
                 (A) (A) (A) (A) (A) (A) (A) (A) (A) (A) (A) (A)
                 (A) (A) (A) (A) (A) (A) (A) (A) (A) (A) (A) (A)
                 (A) (A) (A) (A) (A) (A) (A) (A) (A) (A) (A) (A)
                 (A) (A) (A) (A) (A) (A) (A) (A) (A) (A) (A) (A)
                 (A) (A) (A) (A) (A) (A) (A) (A) (A) (A) (A) (A)
                 (A) (A) (A) (A) (A) (A) (A) (A) (A) (A) (A) (A)
                 (A) (A) (A) (A) (A) (A) (A) (A) (A) (A) (A) (A)
                 (A) (A) (A)
 The electronic state is 1-A.
 Alpha  occ. eigenvalues --  -19.24603 -19.24422 -14.35323 -14.34962 -10.31489
 Alpha  occ. eigenvalues --  -10.31077 -10.28775 -10.28640 -10.27346 -10.27156
 Alpha  occ. eigenvalues --  -10.26105 -10.24014 -10.23735 -10.23532 -10.23480
 Alpha  occ. eigenvalues --  -10.23260 -10.23190 -10.22814 -10.22773 -10.22458
 Alpha  occ. eigenvalues --  -10.22427  -1.12075  -1.11763  -0.91913  -0.90800
 Alpha  occ. eigenvalues --   -0.87254  -0.85737  -0.80414  -0.78359  -0.75613
 Alpha  occ. eigenvalues --   -0.74594  -0.71697  -0.71415  -0.70111  -0.65505
 Alpha  occ. eigenvalues --   -0.63418  -0.61735  -0.60891  -0.59661  -0.58263
 Alpha  occ. eigenvalues --   -0.55034  -0.53556  -0.52363  -0.51109  -0.50368
 Alpha  occ. eigenvalues --   -0.48500  -0.47671  -0.46682  -0.45729  -0.44982
 Alpha  occ. eigenvalues --   -0.44695  -0.44330  -0.43923  -0.42725  -0.42423
 Alpha  occ. eigenvalues --   -0.41992  -0.40898  -0.40432  -0.40063  -0.39398
 Alpha  occ. eigenvalues --   -0.38050  -0.37759  -0.37528  -0.36992  -0.36469
 Alpha  occ. eigenvalues --   -0.35849  -0.35441  -0.34990  -0.34794  -0.34521
 Alpha  occ. eigenvalues --   -0.33798  -0.28287  -0.26192  -0.25773  -0.25255
 Alpha  occ. eigenvalues --   -0.24720  -0.24175
 Alpha virt. eigenvalues --   -0.00244   0.00332   0.02567   0.03654   0.06458
 Alpha virt. eigenvalues --    0.07290   0.08035   0.08740   0.10348   0.10576
 Alpha virt. eigenvalues --    0.11429   0.11696   0.12304   0.12834   0.13359
 Alpha virt. eigenvalues --    0.13652   0.13961   0.14384   0.14770   0.14950
 Alpha virt. eigenvalues --    0.15178   0.15405   0.15840   0.16815   0.17049
 Alpha virt. eigenvalues --    0.17178   0.18151   0.18677   0.19599   0.19863
 Alpha virt. eigenvalues --    0.20483   0.21573   0.22665   0.24437   0.24858
 Alpha virt. eigenvalues --    0.26034   0.27368   0.27544   0.28549   0.29968
 Alpha virt. eigenvalues --    0.30757   0.32210   0.32804   0.33884   0.34940
 Alpha virt. eigenvalues --    0.35932   0.36786   0.40199   0.41397   0.41695
 Alpha virt. eigenvalues --    0.42545   0.43148   0.43534   0.44495   0.45044
 Alpha virt. eigenvalues --    0.45516   0.46683   0.47587   0.47752   0.48902
 Alpha virt. eigenvalues --    0.49406   0.50277   0.51096   0.51295   0.51418
 Alpha virt. eigenvalues --    0.51669   0.52773   0.54045   0.55573   0.55801
 Alpha virt. eigenvalues --    0.56346   0.57676   0.57802   0.58495   0.59778
 Alpha virt. eigenvalues --    0.60574   0.61148   0.62228   0.62811   0.63509
 Alpha virt. eigenvalues --    0.63946   0.64209   0.64713   0.64825   0.65200
 Alpha virt. eigenvalues --    0.65569   0.66117   0.66362   0.66650   0.66762
 Alpha virt. eigenvalues --    0.67143   0.67458   0.67695   0.68274   0.68568
 Alpha virt. eigenvalues --    0.69305   0.69654   0.69860   0.70060   0.70529
 Alpha virt. eigenvalues --    0.70675   0.71112   0.71602   0.71769   0.72020
 Alpha virt. eigenvalues --    0.72552   0.72972   0.73467   0.74418   0.74764
 Alpha virt. eigenvalues --    0.75396   0.76355   0.76547   0.76987   0.78549
 Alpha virt. eigenvalues --    0.79107   0.79862   0.80653   0.82324   0.82916
 Alpha virt. eigenvalues --    0.83274   0.84648   0.86347   0.87428   0.88976
 Alpha virt. eigenvalues --    0.91263   0.91883   0.93239   0.94842   0.95462
 Alpha virt. eigenvalues --    0.96129   0.98517   0.99553   1.02232   1.04456
 Alpha virt. eigenvalues --    1.05377   1.07576   1.09494   1.10608   1.11765
 Alpha virt. eigenvalues --    1.13270   1.16217   1.18103   1.19486   1.21293
 Alpha virt. eigenvalues --    1.23579   1.24511   1.25191   1.25977   1.27104
 Alpha virt. eigenvalues --    1.28777   1.29386   1.30365   1.32407   1.32562
 Alpha virt. eigenvalues --    1.33651   1.34601   1.35228   1.37621   1.39306
 Alpha virt. eigenvalues --    1.41545   1.43112   1.45157   1.46763   1.47528
 Alpha virt. eigenvalues --    1.48231   1.49045   1.52023   1.54254   1.54662
 Alpha virt. eigenvalues --    1.54869   1.56200   1.57747   1.58408   1.59852
 Alpha virt. eigenvalues --    1.60982   1.62854   1.63760   1.64595   1.66420
 Alpha virt. eigenvalues --    1.68114   1.68494   1.69902   1.70547   1.70975
 Alpha virt. eigenvalues --    1.72261   1.72353   1.73075   1.74095   1.75411
 Alpha virt. eigenvalues --    1.76235   1.76436   1.76798   1.77493   1.77752
 Alpha virt. eigenvalues --    1.78207   1.79167   1.79474   1.80089   1.80161
 Alpha virt. eigenvalues --    1.80789   1.80925   1.81659   1.81963   1.83465
 Alpha virt. eigenvalues --    1.83844   1.84103   1.84544   1.85481   1.85844
 Alpha virt. eigenvalues --    1.86644   1.87799   1.88542   1.89494   1.90107
 Alpha virt. eigenvalues --    1.90659   1.91546   1.92423   1.93273   1.93767
 Alpha virt. eigenvalues --    1.94319   1.96221   1.96304   1.96939   1.97889
 Alpha virt. eigenvalues --    1.98884   1.99697   2.00643   2.00880   2.01126
 Alpha virt. eigenvalues --    2.02186   2.03011   2.03317   2.05318   2.06734
 Alpha virt. eigenvalues --    2.07647   2.09115   2.11142   2.12888   2.14603
 Alpha virt. eigenvalues --    2.15248   2.16263   2.16618   2.17561   2.18644
 Alpha virt. eigenvalues --    2.19794   2.21398   2.23624   2.26430   2.27699
 Alpha virt. eigenvalues --    2.30568   2.31266   2.32226   2.33101   2.33607
 Alpha virt. eigenvalues --    2.34079   2.35593   2.35861   2.36498   2.37815
 Alpha virt. eigenvalues --    2.39771   2.40834   2.41304   2.43416   2.44341
 Alpha virt. eigenvalues --    2.45636   2.46782   2.49318   2.51138   2.52026
 Alpha virt. eigenvalues --    2.53168   2.55458   2.57660   2.58754   2.60791
 Alpha virt. eigenvalues --    2.62195   2.64295   2.64748   2.66363   2.67198
 Alpha virt. eigenvalues --    2.68448   2.71313   2.71827   2.73374   2.74437
 Alpha virt. eigenvalues --    2.74865   2.75199   2.76477   2.78416   2.80981
 Alpha virt. eigenvalues --    2.83891   2.85490   2.87131   2.87526   2.89218
 Alpha virt. eigenvalues --    2.89583   2.90242   2.91343   2.91765   2.92876
 Alpha virt. eigenvalues --    2.94159   2.94964   2.96235   2.96731   2.98740
 Alpha virt. eigenvalues --    2.99800   3.01051   3.01493   3.01808   3.04856
 Alpha virt. eigenvalues --    3.05163   3.05814   3.07540   3.08583   3.10403
 Alpha virt. eigenvalues --    3.12047   3.15113   3.17177   3.19535   3.26477
 Alpha virt. eigenvalues --    3.29755   3.35406   3.40651   3.48076   3.62835
 Alpha virt. eigenvalues --    3.65456   3.67161
     Molecular Orbital Coefficients:
                          73        74        75        76        77
                           O         O         O         O         O
     Eigenvalues --    -0.26192  -0.25773  -0.25255  -0.24720  -0.24175
   1 1   C  1S          0.00242  -0.00934   0.01319  -0.02466   0.00010
   2        2S         -0.00610   0.02288  -0.03229   0.06191   0.00218
   3        3S         -0.00921   0.03103  -0.04899   0.11159  -0.00648
   4        4PX        -0.00107   0.00755  -0.01361   0.02334  -0.00910
   5        4PY        -0.00523   0.02200  -0.03365   0.06071  -0.00916
   6        4PZ         0.00719  -0.02872   0.04129  -0.07452   0.00432
   7        5PX         0.00087   0.00006  -0.00272   0.00446  -0.00754
   8        5PY         0.00132   0.00712  -0.02275   0.03488  -0.04091
   9        5PZ         0.00440  -0.01081   0.01629  -0.04305  -0.00925
  10        6D 0        0.00001  -0.00035   0.00058  -0.00083   0.00044
  11        6D+1        0.00036  -0.00030  -0.00040  -0.00017  -0.00296
  12        6D-1        0.00025  -0.00140   0.00235  -0.00415   0.00124
  13        6D+2        0.00019  -0.00072   0.00099  -0.00187  -0.00011
  14        6D-2       -0.00029  -0.00007   0.00109  -0.00107   0.00349
  15 2   C  1S          0.00386  -0.00699   0.00254  -0.01170  -0.02510
  16        2S         -0.00959   0.01928  -0.00981   0.03384   0.05985
  17        3S         -0.01641   0.03580  -0.01843   0.04067   0.10449
  18        4PX        -0.01721   0.01516   0.01994   0.00575   0.14149
  19        4PY        -0.00501   0.01874  -0.02164   0.04112   0.01590
  20        4PZ        -0.00917   0.04146  -0.06199   0.10652  -0.01665
  21        5PX        -0.00314   0.00212   0.00596  -0.00542   0.02489
  22        5PY        -0.00910   0.01662  -0.01420   0.04805   0.05238
  23        5PZ        -0.00331   0.01590  -0.01359   0.00159   0.00642
  24        6D 0        0.00024  -0.00113   0.00181  -0.00313   0.00080
  25        6D+1        0.00077  -0.00270   0.00396  -0.00827   0.00004
  26        6D-1        0.00089  -0.00550   0.00950  -0.01610   0.00587
  27        6D+2        0.00134  -0.00056  -0.00274   0.00065  -0.01343
  28        6D-2       -0.00203   0.00267   0.00015   0.00433   0.01367
  29 3   H  1S          0.00486  -0.04605   0.08564  -0.13478   0.07457
  30        2S          0.00534  -0.03488   0.06052  -0.10724   0.03731
  31        3PX        -0.00042   0.00121  -0.00138   0.00305   0.00128
  32        3PY         0.00020  -0.00061   0.00114  -0.00268   0.00019
  33        3PZ        -0.00011  -0.00089   0.00198  -0.00242   0.00302
  34 4   C  1S         -0.00315   0.00119   0.00535   0.00163   0.02646
  35        2S          0.00754  -0.00055  -0.01659  -0.00182  -0.06741
  36        3S          0.01800  -0.02554   0.00149  -0.03703  -0.13242
  37        4PX         0.01192  -0.00500  -0.01768  -0.00930  -0.09264
  38        4PY        -0.00901   0.00578   0.02028  -0.02122   0.08864
  39        4PZ         0.00597  -0.02876   0.04201  -0.07049   0.00702
  40        5PX         0.01024  -0.01626   0.00721  -0.03103  -0.05852
  41        5PY        -0.01196   0.01389   0.00822   0.01047   0.09853
  42        5PZ         0.00320  -0.01012   0.00660  -0.00325  -0.01601
  43        6D 0       -0.00012  -0.00127   0.00296  -0.00405   0.00397
  44        6D+1       -0.00081   0.00415  -0.00663   0.01200  -0.00201
  45        6D-1       -0.00010   0.00090  -0.00204   0.00416  -0.00142
  46        6D+2       -0.00024  -0.00095   0.00226  -0.00187   0.00472
  47        6D-2        0.00031  -0.00008  -0.00082   0.00016  -0.00315
  48 5   O  1S          0.00167  -0.00403   0.00095  -0.00041  -0.01373
  49        2S          0.00383  -0.00864   0.00233  -0.00335  -0.03005
  50        3S          0.01103  -0.02487   0.00298   0.00513  -0.08844
  51        4PX         0.01475  -0.03657   0.02414  -0.05335  -0.07150
  52        4PY        -0.01535   0.04021  -0.04492   0.11190   0.04543
  53        4PZ        -0.00577   0.08083  -0.16054   0.26010  -0.14283
  54        5PX         0.01206  -0.03148   0.02182  -0.04692  -0.05893
  55        5PY        -0.01113   0.03129  -0.03482   0.07920   0.03089
  56        5PZ        -0.00495   0.06738  -0.13349   0.21782  -0.11927
  57        6D 0       -0.00015   0.00072  -0.00111   0.00230  -0.00032
  58        6D+1       -0.00005   0.00049  -0.00094   0.00140  -0.00073
  59        6D-1       -0.00008  -0.00092   0.00229  -0.00346   0.00287
  60        6D+2       -0.00053   0.00086  -0.00031   0.00178   0.00299
  61        6D-2       -0.00026   0.00134  -0.00112   0.00074   0.00069
  62 6   C  1S          0.00606  -0.01357   0.00329  -0.00433  -0.03578
  63        2S         -0.01565   0.03878  -0.01092   0.01044   0.09419
  64        3S          0.00855  -0.06707   0.05440   0.03607  -0.00982
  65        4PX        -0.00499   0.02589  -0.02355   0.01693   0.00064
  66        4PY         0.01000  -0.01045   0.01578  -0.08030  -0.03719
  67        4PZ         0.00351  -0.04642   0.09662  -0.16655   0.08811
  68        5PX         0.01553  -0.04927   0.02183   0.02431  -0.09531
  69        5PY        -0.00106  -0.01019   0.00687   0.01109   0.00346
  70        5PZ         0.00769  -0.04138   0.07181  -0.12951   0.04249
  71        6D 0        0.00071  -0.00508   0.00900  -0.01390   0.00695
  72        6D+1        0.00148  -0.00609   0.00812  -0.01541  -0.00170
  73        6D-1       -0.00095   0.00688  -0.01212   0.01893  -0.00983
  74        6D+2        0.00259  -0.00544   0.00303  -0.00724  -0.01335
  75        6D-2       -0.00226   0.00066   0.00532  -0.00301   0.02145
  76 7   N  1S          0.01066  -0.01462  -0.00064  -0.02374  -0.07824
  77        2S          0.02211  -0.03136   0.00013  -0.04990  -0.16451
  78        3S          0.02598  -0.02060  -0.02505  -0.05036  -0.21198
  79        4PX        -0.04590   0.04730   0.03602   0.04778   0.35631
  80        4PY         0.01357   0.00003  -0.04058   0.02821  -0.14228
  81        4PZ        -0.02559   0.11335  -0.17518   0.31975  -0.05183
  82        5PX         0.02858  -0.02014  -0.03600  -0.02703  -0.22775
  83        5PY        -0.01321   0.01278   0.02011  -0.01807   0.11914
  84        5PZ         0.01952  -0.09081   0.13715  -0.23421   0.04432
  85        6D 0        0.00082   0.00072  -0.00453   0.00547  -0.01190
  86        6D+1       -0.00127   0.00328  -0.00422   0.01091   0.00338
  87        6D-1        0.00105  -0.00497   0.00775  -0.01360   0.00283
  88        6D+2       -0.00122   0.00214  -0.00116   0.00556   0.00890
  89        6D-2        0.00104   0.00013  -0.00287   0.00118  -0.00978
  90 8   N  1S         -0.00287   0.01395  -0.01272   0.02476   0.07213
  91        2S         -0.00659   0.02907  -0.02381   0.05281   0.15298
  92        3S         -0.00743   0.04268  -0.06403   0.06917   0.19358
  93        4PX         0.00885  -0.06845   0.05408   0.13912   0.14564
  94        4PY        -0.00609   0.08314  -0.06415   0.08484   0.28681
  95        4PZ        -0.02648   0.24155  -0.20079  -0.19367   0.04811
  96        5PX        -0.00352   0.05706  -0.03181  -0.09759  -0.06832
  97        5PY         0.00233  -0.05459   0.03799  -0.05717  -0.19542
  98        5PZ         0.01969  -0.17809   0.15947   0.14138  -0.01751
  99        6D 0       -0.00014   0.00589  -0.00250   0.00079   0.00799
 100        6D+1       -0.00037   0.00060  -0.00029  -0.00052  -0.00280
 101        6D-1        0.00149  -0.01412   0.00951   0.01072  -0.00210
 102        6D+2        0.00028   0.00197  -0.00143   0.00293   0.00725
 103        6D-2        0.00011   0.00260  -0.00385  -0.00932  -0.00992
 104 9   C  1S          0.00032   0.00105  -0.00674   0.00372   0.03413
 105        2S         -0.00290  -0.00319   0.01459  -0.00733  -0.09081
 106        3S          0.03107   0.00618   0.07492  -0.07023   0.00862
 107        4PX        -0.00775   0.06059  -0.02185  -0.08564  -0.02320
 108        4PY         0.00612   0.00750   0.00194   0.02733   0.04286
 109        4PZ         0.01915  -0.12873   0.09752   0.10655  -0.00136
 110        5PX        -0.01210   0.03549  -0.02275  -0.00135  -0.05360
 111        5PY        -0.00050  -0.00534  -0.01749  -0.00935  -0.06293
 112        5PZ         0.00655  -0.09889   0.05599   0.09823  -0.01260
 113        6D 0        0.00090  -0.00605   0.00504   0.00216  -0.00368
 114        6D+1        0.00032  -0.00318   0.00194  -0.00122  -0.00632
 115        6D-1       -0.00163   0.02296  -0.01813  -0.01683   0.00548
 116        6D+2       -0.00040  -0.00353   0.00442  -0.00350  -0.01407
 117        6D-2        0.00054  -0.00626   0.00816   0.01288   0.01486
 118 10  C  1S          0.00127   0.00134  -0.00369   0.00009  -0.00126
 119        2S         -0.00051  -0.00079   0.00973  -0.00158   0.00069
 120        3S         -0.03524  -0.01210   0.01024   0.00974   0.04187
 121        4PX         0.00573  -0.03307   0.02034  -0.00621  -0.06177
 122        4PY         0.00416   0.00181  -0.01135   0.00406  -0.03400
 123        4PZ        -0.01137   0.03960  -0.03577   0.00968  -0.02699
 124        5PX        -0.00986  -0.03828  -0.01931   0.09423  -0.08578
 125        5PY         0.01633  -0.08119   0.08623   0.00683  -0.01004
 126        5PZ        -0.01202   0.03033  -0.01506   0.01476  -0.01161
 127        6D 0        0.00114  -0.00745   0.00689   0.00057   0.00210
 128        6D+1        0.00004  -0.00004  -0.00173   0.00622  -0.00274
 129        6D-1        0.00005   0.00089  -0.00175   0.00312  -0.00108
 130        6D+2       -0.00003  -0.00009   0.00042  -0.00358  -0.00115
 131        6D-2        0.00002   0.00062   0.00000   0.00109   0.00257
 132 11  C  1S         -0.00131   0.01351  -0.01244   0.00319  -0.00540
 133        2S          0.00446  -0.03257   0.03036  -0.00447   0.01042
 134        3S         -0.00530  -0.02446   0.03706  -0.03499   0.03167
 135        4PX        -0.00513   0.00210  -0.00535   0.00672   0.01272
 136        4PY         0.00011   0.02468  -0.02660   0.01258  -0.00556
 137        4PZ         0.01238  -0.06181   0.05932  -0.01465   0.02610
 138        5PX        -0.00158   0.01012  -0.00695  -0.01866   0.00948
 139        5PY        -0.00062   0.02988  -0.03647   0.01272  -0.01597
 140        5PZ         0.01307  -0.03366   0.04380  -0.02180   0.01929
 141        6D 0        0.00052  -0.00181   0.00212  -0.00147  -0.00016
 142        6D+1       -0.00008   0.00145  -0.00092  -0.00266  -0.00291
 143        6D-1        0.00022  -0.00119   0.00108  -0.00099  -0.00038
 144        6D+2       -0.00002   0.00115  -0.00078  -0.00057  -0.00015
 145        6D-2       -0.00014   0.00032  -0.00078   0.00223   0.00047
 146 12  C  1S          0.00059  -0.00457   0.00325  -0.00181   0.00239
 147        2S         -0.00140   0.00366   0.00087   0.00191  -0.00249
 148        3S         -0.00475   0.09584  -0.11706   0.03585  -0.05231
 149        4PX        -0.00461   0.02656  -0.01233   0.01167   0.01514
 150        4PY         0.00139  -0.01869   0.02937  -0.00794   0.02231
 151        4PZ         0.00226  -0.01302   0.01373   0.00245   0.00793
 152        5PX        -0.00220   0.04166  -0.02941  -0.02100   0.02403
 153        5PY         0.00373  -0.03160   0.05892  -0.03074   0.03739
 154        5PZ         0.00246  -0.01220   0.00945  -0.00306   0.00864
 155        6D 0        0.00039  -0.00183   0.00176  -0.00029   0.00034
 156        6D+1       -0.00001   0.00002  -0.00077  -0.00038  -0.00110
 157        6D-1        0.00014  -0.00025  -0.00005   0.00016   0.00011
 158        6D+2        0.00040  -0.00132   0.00043  -0.00058  -0.00166
 159        6D-2       -0.00026   0.00044   0.00047   0.00003   0.00260
 160 13  O  1S         -0.00184   0.00012  -0.00286   0.00043   0.01360
 161        2S         -0.00321   0.00189  -0.00539   0.00217   0.03050
 162        3S         -0.01383   0.00747  -0.01229   0.00247   0.07590
 163        4PX        -0.00413  -0.08265   0.10977   0.10915  -0.01054
 164        4PY         0.00238  -0.04513  -0.02422  -0.05395  -0.10206
 165        4PZ        -0.01037   0.21469  -0.16141  -0.18082  -0.00868
 166        5PX        -0.00399  -0.06910   0.09226   0.08315  -0.01621
 167        5PY         0.00156  -0.03267  -0.01694  -0.03886  -0.07901
 168        5PZ        -0.01000   0.17688  -0.13086  -0.15191  -0.01194
 169        6D 0       -0.00037   0.00112  -0.00047  -0.00139  -0.00080
 170        6D+1       -0.00046   0.00125  -0.00007  -0.00020  -0.00041
 171        6D-1        0.00010  -0.00333   0.00368   0.00237  -0.00161
 172        6D+2        0.00038  -0.00123  -0.00067   0.00041  -0.00140
 173        6D-2        0.00047   0.00152  -0.00058  -0.00242  -0.00267
 174 14  C  1S         -0.00335   0.00922   0.02391  -0.00300  -0.02326
 175        2S          0.00736  -0.02193  -0.05924   0.00826   0.05562
 176        3S          0.00681  -0.02274  -0.07460   0.04019   0.14548
 177        4PX         0.01381   0.00245  -0.04307  -0.04041  -0.00145
 178        4PY         0.00931   0.03141   0.09410  -0.00988  -0.11325
 179        4PZ        -0.00792  -0.03899   0.06792   0.04557  -0.00367
 180        5PX         0.00411  -0.00083  -0.01410  -0.00322   0.00965
 181        5PY         0.02085   0.00540   0.04877  -0.02696  -0.11332
 182        5PZ        -0.01377   0.00440   0.01473  -0.00101   0.00205
 183        6D 0        0.00060  -0.00678   0.00907   0.00794  -0.00045
 184        6D+1       -0.00040  -0.00300   0.00345   0.00513   0.00254
 185        6D-1       -0.00001  -0.00247   0.00290   0.00193  -0.00063
 186        6D+2       -0.00053   0.00668  -0.00064  -0.00227   0.00115
 187        6D-2        0.00088  -0.00247  -0.00110  -0.00189  -0.00273
 188 15  C  1S         -0.00046   0.00250  -0.00128   0.00933   0.02320
 189        2S          0.00301  -0.00879   0.00597  -0.01766  -0.05664
 190        3S         -0.02311   0.01370  -0.04887  -0.08220  -0.08980
 191        4PX        -0.00055  -0.00544   0.00732   0.05661   0.10474
 192        4PY        -0.00078  -0.03076  -0.07408   0.00172   0.07052
 193        4PZ        -0.00731   0.12063  -0.03167  -0.04676   0.02998
 194        5PX        -0.00900   0.03020  -0.01555   0.00836   0.08747
 195        5PY         0.02263  -0.02912  -0.01538  -0.02890  -0.03858
 196        5PZ         0.00248   0.00740   0.01691   0.03402   0.01081
 197        6D 0       -0.00003   0.01543   0.00125  -0.00645  -0.00307
 198        6D+1       -0.00101   0.00556  -0.00843  -0.01056  -0.00543
 199        6D-1       -0.00079  -0.00625  -0.00237   0.00355   0.00583
 200        6D+2        0.00089  -0.00419   0.01170   0.00294  -0.01134
 201        6D-2       -0.00066   0.00907   0.00050   0.00244   0.00933
 202 16  C  1S          0.00325  -0.03160  -0.00075   0.01593   0.01019
 203        2S         -0.00875   0.07325   0.00134  -0.04103  -0.02870
 204        3S          0.00220   0.12836   0.00193  -0.07069  -0.03566
 205        4PX        -0.01502  -0.00965   0.04008   0.02355  -0.00776
 206        4PY        -0.00273   0.04844  -0.01209  -0.03102  -0.01235
 207        4PZ         0.00085  -0.13571  -0.00808   0.05792   0.02933
 208        5PX        -0.00467  -0.01876   0.01666  -0.00038  -0.03179
 209        5PY        -0.00889   0.03599  -0.00974  -0.01618   0.00634
 210        5PZ        -0.01471  -0.07827  -0.00649   0.03828   0.00941
 211        6D 0       -0.00002   0.00261   0.00063  -0.00199  -0.00262
 212        6D+1       -0.00087   0.00121   0.00357   0.00075  -0.00203
 213        6D-1        0.00032  -0.00448   0.00059   0.00189  -0.00034
 214        6D+2        0.00053  -0.00288   0.00160   0.00146  -0.00142
 215        6D-2       -0.00056   0.00095   0.00134   0.00101   0.00118
 216 17  C  1S         -0.00185   0.02143  -0.01596  -0.01661   0.00301
 217        2S          0.00405  -0.05561   0.03853   0.04002  -0.00906
 218        3S          0.02871  -0.09345   0.10535   0.06959  -0.06593
 219        4PX        -0.00550   0.06709  -0.05948  -0.06289  -0.00308
 220        4PY         0.00725   0.15890   0.23331   0.07456  -0.03419
 221        4PZ         0.00185  -0.16973  -0.07933   0.00993   0.00629
 222        5PX        -0.01523   0.06946  -0.06469  -0.06528   0.02450
 223        5PY         0.01087   0.11521   0.15922   0.06828  -0.01091
 224        5PZ         0.00489  -0.12170  -0.06493   0.01490   0.00483
 225        6D 0        0.01173   0.00491   0.00345   0.00114   0.00073
 226        6D+1        0.00680  -0.00013  -0.00460  -0.00238   0.00047
 227        6D-1       -0.00717  -0.00327  -0.00194   0.00077   0.00214
 228        6D+2        0.00743   0.00146   0.00235  -0.00033  -0.00310
 229        6D-2       -0.01137   0.00499   0.00437  -0.00086  -0.00242
 230 18  C  1S         -0.00017  -0.00301   0.00277   0.00484   0.00413
 231        2S          0.00151   0.00444  -0.00383  -0.00956  -0.01116
 232        3S         -0.00027  -0.00037  -0.01270  -0.00239  -0.00477
 233        4PX         0.00813  -0.02560   0.01433   0.02790   0.01863
 234        4PY        -0.25587   0.08956   0.12295   0.01964  -0.03635
 235        4PZ         0.15307  -0.04823  -0.07788  -0.01340   0.02314
 236        5PX         0.00857  -0.00866   0.00070   0.01306   0.01389
 237        5PY        -0.18375   0.06976   0.08465   0.00406  -0.02842
 238        5PZ         0.10802  -0.03243  -0.05446  -0.01298   0.01778
 239        6D 0       -0.00600   0.00108  -0.00020  -0.00084  -0.00041
 240        6D+1        0.00425   0.00897   0.00403  -0.00068  -0.00088
 241        6D-1        0.00388   0.00119  -0.00131  -0.00048   0.00098
 242        6D+2       -0.00290  -0.00126   0.00227   0.00144  -0.00051
 243        6D-2       -0.00777  -0.00911  -0.01139  -0.00389   0.00059
 244 19  C  1S         -0.00039   0.00448  -0.00353  -0.00432  -0.00129
 245        2S          0.00110  -0.01064   0.00821   0.01030   0.00343
 246        3S         -0.00378  -0.00235   0.01026   0.00499   0.00774
 247        4PX         0.00391   0.02161  -0.01226  -0.01799  -0.00693
 248        4PY        -0.25040  -0.11871  -0.07748  -0.02060  -0.00495
 249        4PZ         0.15076   0.05395   0.05972   0.02645   0.00540
 250        5PX         0.00303   0.00934  -0.00901  -0.00683  -0.00173
 251        5PY        -0.17672  -0.08749  -0.05118  -0.01326  -0.00788
 252        5PZ         0.10601   0.03561   0.04603   0.01686  -0.00317
 253        6D 0        0.00627  -0.00944  -0.00968  -0.00127   0.00254
 254        6D+1       -0.00479   0.00071   0.00107  -0.00021  -0.00093
 255        6D-1       -0.00394   0.00528   0.00633   0.00157  -0.00102
 256        6D+2        0.00315  -0.00449  -0.00609  -0.00189   0.00070
 257        6D-2        0.00827  -0.00096  -0.00255  -0.00064   0.00072
 258 20  C  1S         -0.00018   0.00319  -0.00270  -0.00163   0.00217
 259        2S          0.00019  -0.00699   0.00633   0.00401  -0.00464
 260        3S          0.00026  -0.02979   0.01071   0.01497  -0.01962
 261        4PX        -0.00057   0.01136  -0.00333   0.00046   0.01086
[...]
 000005,-0.00000059,0.00001264,-0.00000904,0.00000626,0.00000306,0.0000
 0695,-0.00000611,-0.00000307,-0.00000669,0.00000155,-0.00000507,-0.000
 00181,0.00000381,0.00000207,-0.00000351,0.00000164,-0.00000432,-0.0000
 0771,-0.00000758,0.00002779,-0.00014162,0.00001453,-0.00004193,-0.0003
 5023,-0.00031085,-0.00010415,0.00006467,0.00007307,0.00088272,-0.00019
 240,-0.00027144,0.00012855,-0.00003091,-0.00000378,0.05633358,-0.14703
 104,0.24363427,-0.00000210,0.00000170,-0.00000162,0.00001448,-0.000021
 27,-0.00000573,-0.00000338,0.00000326,-0.00000154,0.00001240,-0.000015
 47,-0.00000747,-0.00006717,0.00002121,0.00000109,0.00008216,-0.0000253
 9,-0.00000380,-0.00004034,0.00002887,0.00000866,-0.00041297,-0.0003649
 3,0.00016729,-0.00004159,0.00038523,0.00008928,0.00005128,-0.00000762,
 -0.00004122,-0.00004999,-0.00000543,-0.00000308,-0.00001793,0.00001231
 ,-0.00001392,0.00008498,-0.00021985,0.00000050,-0.00006293,0.00009989,
 0.00002722,-0.00035524,0.00056096,-0.00077603,-0.00006436,-0.00004154,
 -0.00004722,-0.00122643,-0.00212017,0.00354850,-0.01581623,0.00607342,
 -0.00830143,-0.31856441,0.05170097,-0.06538996,-0.00212843,-0.00099014
 ,0.00167089,0.00164221,0.00086679,-0.00106459,0.00068219,-0.00037368,0
 .00050542,0.00000227,-0.00000170,0.00000021,0.00000315,-0.00000308,-0.
 00000027,-0.00000496,0.00000330,0.00000092,-0.00000367,0.00000177,0.00
 000445,-0.00000451,0.00000103,-0.00000225,0.00000890,-0.00000413,0.000
 00757,0.00000459,0.00000475,0.00001003,-0.00000657,-0.00000222,-0.0000
 1988,0.00000406,0.,0.00000309,-0.00000921,-0.00000877,-0.00000227,0.00
 000619,0.00000510,0.00000397,-0.00000042,-0.00004282,0.00003537,0.0000
 0680,0.00002021,-0.00001381,-0.00000980,0.00000234,0.00006035,0.000021
 46,-0.00001186,-0.00001008,0.00000091,0.00000687,-0.00000084,0.0009247
 0,-0.00009652,-0.00005530,0.33494926,0.00000047,0.00000061,-0.00000027
 ,-0.00000227,0.00000134,0.00000349,-0.00000014,0.00000029,-0.00000020,
 -0.00000207,0.00000217,0.00000098,-0.00000006,-0.00000398,-0.00000204,
 -0.00000033,0.00000307,0.00000195,0.00000233,-0.00000376,-0.00000607,-
 0.00012632,-0.00017014,-0.00000673,-0.00004979,0.00009834,-0.00003482,
 0.00001095,-0.00000867,0.00000247,-0.00001118,-0.00000257,-0.00000477,
 -0.00000452,0.00000222,-0.00000463,0.00003601,-0.00008520,-0.00000782,
 -0.00000171,-0.00003128,-0.00000749,-0.00031881,0.00044986,-0.00015374
 ,0.00002643,0.00002625,-0.00012887,-0.00168628,0.00441424,0.00462896,-
 0.01141298,0.00584153,-0.00257876,0.05171365,-0.05434879,0.02235054,0.
 01667942,0.00135171,0.00290384,0.00036177,0.00304756,0.00595944,-0.000
 38965,-0.00098323,0.00005785,0.00000028,0.00000042,-0.00000039,-0.0000
 0061,-0.00000018,0.00000069,0.00000055,-0.00000034,-0.00000025,0.00000
 044,0.00000031,-0.00000044,-0.00000025,0.,0.00000016,-0.00000104,-0.00
 000169,0.00000471,-0.00000027,-0.00000139,0.00000128,-0.00000189,-0.00
 000088,-0.00000405,0.00000025,0.00000080,-0.00000054,-0.00000167,-0.00
 000180,0.00000057,0.00000042,-0.00000051,0.00000013,0.00000767,-0.0000
 0317,0.00001204,-0.00005333,-0.00003360,0.00000526,0.00001237,-0.00001
 914,0.00001127,0.00004606,0.00000212,0.00001604,0.00001737,-0.00000566
 ,0.00000668,0.00004853,-0.00274457,-0.00243284,-0.05538122,0.04631058,
 0.00000218,-0.00000015,0.00000123,-0.00000122,0.00000760,0.00000074,0.
 00000337,-0.00000240,0.00000141,-0.00000074,0.00000345,0.00000201,0.00
 000589,-0.00001262,-0.00000487,-0.00001536,0.00002488,0.00000619,0.000
 00599,-0.00002196,-0.00000030,0.00025715,0.00015106,-0.00018077,0.0000
 7262,-0.00016272,-0.00004518,-0.00003092,0.00000086,0.00003974,0.00002
 208,0.00001401,-0.00000194,0.00000298,-0.00000327,0.00000672,-0.000085
 09,0.00005010,-0.00003813,0.00002205,-0.00010810,0.00002889,0.00063432
 ,-0.00016949,0.00052371,-0.00000641,-0.00000166,0.00000691,0.00280881,
 0.00458625,0.00050940,0.01785358,-0.00317626,0.00779015,-0.06576398,0.
 02232323,-0.06833338,-0.02440242,0.00359527,-0.00060749,-0.00026670,0.
 00593577,-0.00161298,0.00043162,0.00002992,-0.00101588,-0.00000031,0.0
 0000028,0.00000037,-0.00000067,-0.00000046,-0.00000063,0.00000044,-0.0
 0000074,-0.00000093,0.00000057,-0.00000068,-0.00000014,0.00000106,-0.0
 0000004,-0.00000029,0.00000583,-0.00000415,-0.00000019,-0.00000034,0.0
 0000265,-0.00000190,-0.00000227,-0.00000318,0.00001196,-0.00000139,-0.
 00000119,-0.00000069,0.00000209,0.00000338,0.00000023,-0.00000083,-0.0
 0000093,-0.00000076,-0.00000292,0.00001306,-0.00001503,-0.00005403,-0.
 00000113,0.00003269,0.00000201,-0.00000674,-0.00001249,0.00000915,0.00
 000099,-0.00001998,0.00000476,-0.00000862,-0.00001171,-0.00032110,-0.0
 0249336,-0.00066127,0.06975370,-0.02787107,0.06453719,-0.00000135,0.00
 000180,-0.00000151,0.00001468,-0.00002052,-0.00000282,-0.00000092,0.00
 000230,-0.00000192,0.00001096,-0.00001356,-0.00000480,-0.00005920,0.00
 001261,-0.00000452,0.00006602,-0.00000299,0.00000023,-0.00003623,0.000
 01277,0.00001344,-0.00014289,-0.00015975,0.00011238,0.00006750,0.00023
 955,0.00008722,0.00001828,-0.00000091,-0.00000181,-0.00002389,0.000014
 59,-0.00000858,-0.00001176,0.00000850,-0.00000521,0.00007923,-0.000153
 10,-0.00003320,-0.00003687,0.00001673,-0.00000184,0.00001750,-0.000005
 76,-0.00002164,-0.00001025,-0.00001594,-0.00000429,-0.00023364,0.00060
 439,-0.00092902,0.00099068,0.00108245,-0.00139229,0.00835917,0.0040924
 9,-0.00620770,-0.21280833,-0.07775531,0.12054122,-0.01476239,-0.012418
 52,0.01894719,-0.00440126,0.00200771,-0.00250735,0.00000186,-0.0000006
 9,-0.00000005,0.00000321,-0.00000360,-0.00000007,-0.00000495,0.0000024
 0,0.00000110,-0.00000302,0.00000143,0.00000326,-0.00000416,0.00000040,
 -0.00000205,0.00002115,-0.00000634,0.00001532,0.00000465,0.00000577,0.
 00000971,-0.00001060,-0.00000989,-0.00000445,0.00000223,-0.00000137,0.
 00000213,-0.00000590,-0.00000532,-0.00000178,0.00000462,0.00000309,0.0
 0000304,0.00000057,-0.00001563,0.00001125,0.00000772,0.00000217,-0.000
 00773,-0.00000054,-0.00000195,0.00001543,0.00000601,0.00000035,0.00001
 340,0.00000247,-0.00000085,-0.00000928,0.00025450,0.00021867,-0.000331
 42,0.00066774,-0.00028361,0.00025209,0.22155528,0.00000148,0.00000114,
 0.00000052,0.00000143,-0.00000020,0.00000183,0.00000124,-0.00000004,0.
 00000068,0.00000148,-0.00000095,0.00000048,-0.00001748,-0.00000536,-0.
 00000503,0.00001439,0.00001174,0.00000512,-0.00000693,-0.00000771,-0.0
 0000738,-0.00003959,-0.00005794,-0.00005160,0.00002305,0.00000778,0.00
 001975,0.00000728,-0.00000100,-0.00000332,-0.00000930,-0.00000008,0.00
 000337,-0.00000519,0.00000274,-0.00000558,-0.00002726,-0.00002920,-0.0
 0003942,0.00000833,-0.00000520,0.00011701,0.00002114,-0.00058964,-0.00
 044700,0.00004061,0.00003988,-0.00002881,0.00061743,-0.00074728,-0.000
 18003,0.00160753,0.00331429,0.00548240,-0.01370009,-0.00182037,0.00813
 068,-0.07769778,-0.08363096,0.07048886,0.00529346,0.00564447,-0.003203
 58,0.00150883,0.00527167,0.00318554,0.00000070,-0.00000031,-0.00000015
 ,0.00000006,-0.00000143,-0.00000040,-0.00000080,0.00000022,-0.00000077
 ,-0.00000028,0.00000031,0.00000077,-0.00000110,0.00000029,-0.00000079,
 -0.00000258,0.00000259,0.00000134,0.00000108,-0.00000461,0.00000304,-0
 .00000053,0.00000108,-0.00000531,0.00000204,0.00000090,-0.00000085,-0.
 00000347,-0.00000144,-0.00000008,0.00000241,0.00000054,0.00000260,-0.0
 0000724,-0.00002304,-0.00001219,0.00002192,0.00001052,0.00000923,-0.00
 005147,0.00000765,-0.00003821,-0.00002451,0.00000639,-0.00006813,0.000
 00968,0.00002061,0.00000916,-0.00061826,-0.00012101,0.00050594,0.00000
 324,-0.00245270,-0.00244120,0.08311695,0.07764433,0.00000203,0.0000000
 8,0.00000048,-0.00000607,0.00000980,0.00000303,0.00000262,-0.00000165,
 0.00000154,-0.00000606,0.00000783,0.00000360,0.00002317,-0.00001523,-0
 .00000449,-0.00002897,0.00002172,0.00000710,0.00001553,-0.00002108,-0.
 00000451,0.00006792,-0.00000459,-0.00000125,-0.00001365,-0.00001372,-0
 .00000981,-0.00000859,-0.00000278,0.00000577,0.00001221,0.00000304,0.0
 0000010,0.00000489,-0.00000303,0.00000326,0.00007567,-0.00000827,-0.00
 000646,-0.00007786,-0.00002857,0.00007829,-0.00000346,-0.00045547,-0.0
 0025631,0.00000087,0.00003160,-0.00005668,-0.00088201,-0.00026474,-0.0
 0042619,-0.00216013,0.00553833,-0.00094867,0.01994326,0.00756546,-0.00
 848553,0.12050089,0.07031114,-0.14511094,-0.00730424,-0.00252645,0.007
 59433,-0.00163681,0.00325182,0.00279280,-0.00000148,0.00000033,0.00000
 003,-0.00000167,0.00000121,-0.00000057,0.00000240,-0.00000164,-0.00000
 041,0.00000136,-0.00000077,-0.00000186,0.00000155,-0.00000044,0.000000
 99,-0.00000290,0.00000337,0.00000103,-0.00000173,-0.00000540,-0.000003
 77,0.00000254,-0.00000017,0.00000512,-0.00000217,0.00000022,-0.0000010
 6,0.00000275,0.00000234,0.00000168,-0.00000266,-0.00000359,-0.00000203
 ,-0.00000769,-0.00002215,-0.00000914,0.00000809,-0.00004182,-0.0000225
 8,0.00000004,0.00000197,-0.00002197,0.00000127,0.00000781,0.00003722,0
 .00002184,0.00000827,0.00000874,0.00089994,0.00047714,-0.00053023,-0.0
 0018508,-0.00244379,-0.00053145,-0.12915848,-0.07903103,0.14658817,-0.
 00000316,0.00000217,-0.00000206,-0.00000815,-0.00000992,0.00001547,-0.
 00000768,0.00000648,-0.00000502,-0.00000768,0.00000195,0.00000228,0.00
 001503,0.00001214,0.00000573,-0.00000929,-0.00003281,-0.00001117,0.000
 00642,0.00003375,-0.00002690,0.00002135,0.00002539,-0.00014177,0.00003
 546,0.00004426,0.00002733,0.00001696,0.00000722,0.00000681,-0.00001524
 ,-0.00003649,0.00000738,-0.00000889,-0.00000051,-0.00001937,-0.0000476
 2,-0.00003632,-0.00001649,-0.00008434,0.00001412,0.00012858,0.00063601
 ,-0.00041259,0.00065415,-0.00015368,-0.00009717,0.00003778,-0.00291252
 ,-0.00174990,0.00300100,-0.00114567,-0.00025187,0.00039212,-0.00540976
 ,0.00081185,-0.00067644,-0.00104661,0.01670623,-0.02411819,-0.07411681
 ,0.03871697,-0.05460557,0.00854326,-0.01323556,0.01913087,0.00000212,0
 .00000188,-0.00000326,-0.00000022,0.00000017,0.00000431,0.00000098,-0.
 00000053,0.00000033,0.00000234,0.00000198,-0.00000319,-0.00000162,-0.0
 0000085,0.00000142,-0.00001736,0.00000749,0.00000552,0.00000077,-0.000
 00528,0.00000233,0.00000354,0.00000737,-0.00001265,0.00000518,0.000005
 75,-0.00000416,-0.00000380,-0.00000475,0.00000040,0.00000180,0.0000023
 2,0.00000440,-0.00000053,-0.00005056,0.00000680,0.00000279,-0.00000430
 ,-0.00001803,-0.00000839,0.00002420,0.00007089,0.00000713,-0.00000433,
 -0.00000046,0.00000884,0.00001037,0.00000629,0.00009094,-0.00000743,-0
 .00003634,-0.00021627,0.00079408,-0.00116537,0.00112082,-0.00032960,0.
 00024761,0.07372290,0.00000158,0.00000315,0.00000063,0.00000007,-0.000
 00502,0.00000981,0.00000057,0.00000308,0.,-0.00000129,-0.00000115,0.00
 000408,-0.00002827,-0.00000597,-0.00001100,0.00002306,0.00001536,0.000
 00614,-0.00000984,-0.00000522,-0.00002402,-0.00011799,-0.00006825,-0.0
 0003657,0.00003345,0.00018529,0.00008291,0.00003180,0.00000472,-0.0000
 0322,-0.00002876,-0.00001426,0.00000240,-0.00001221,0.00000482,-0.0000
 2457,-0.00001097,-0.00008035,-0.00005179,0.00000709,0.00011845,0.00018
 945,0.00054489,-0.00015918,0.00013639,-0.00014413,-0.00004448,0.000063
 73,-0.00197911,0.00463032,0.00370563,-0.00036020,-0.00046334,-0.000830
 28,0.00126950,0.00544389,0.00265983,-0.00113424,0.00107046,0.00409437,
 0.03839707,-0.13419013,0.13717156,0.00460725,-0.00173781,0.00847807,0.
 00000169,0.00000004,-0.00000174,0.00000030,-0.00000282,-0.00000007,-0.
 00000131,-0.00000005,-0.00000115,0.00000031,0.00000113,-0.00000063,-0.
 00000335,0.,-0.00000065,-0.00001193,0.00001921,0.00002441,0.00000134,-
 0.00002532,0.00001197,0.00000023,0.00000264,-0.00001731,0.00000742,0.0
 0000616,-0.00000496,-0.00000904,-0.00000573,0.00000054,0.00000522,0.00
 000036,0.00000834,-0.00000027,-0.00005162,-0.00002058,0.00006566,0.000
 01566,-0.00000770,-0.00003460,0.00002009,0.00006444,-0.00000531,-0.000
 01600,-0.00002566,0.00000868,0.00000752,-0.00001279,-0.00001132,-0.000
 76331,-0.00044260,-0.00006178,0.00003000,0.00025433,-0.00001257,-0.002
 67204,-0.00228776,-0.04091189,0.13136554,0.00000816,-0.00000019,0.0000
 0361,-0.00000552,0.00003110,-0.00000662,0.00001129,-0.00000769,0.00000
 888,-0.00000407,0.00001334,0.00000478,0.00003029,-0.00003865,-0.000012
 01,-0.00004787,0.00006395,0.00002214,0.00002586,-0.00006829,0.00000613
 ,0.00008239,0.00005747,0.00008506,-0.00012521,-0.00012711,-0.00006728,
 -0.00002499,0.00000032,-0.00000121,0.00003453,0.00001840,-0.00000538,0
 .00001812,-0.00000672,0.00001781,0.00008183,0.00012181,0.00004108,0.00
 008804,0.00001594,-0.00010575,-0.00071959,0.00015707,-0.00033839,0.000
 14317,0.00015512,-0.00000570,0.00336021,0.00383017,0.00150259,0.000439
 94,-0.00086446,0.00020161,-0.00140380,0.00279873,0.00338779,0.00176965
 ,0.00351142,-0.00124289,-0.05408483,0.13668918,-0.23405923,-0.00660561
 ,0.00937914,-0.00911115,-0.00000466,-0.00000226,0.00000267,-0.00000297
 ,0.00000194,-0.00000626,0.00000361,-0.00000267,-0.00000207,0.00000064,
 -0.00000318,-0.00000050,0.00000414,0.00000013,0.00000047,0.00000057,-0
 .00000027,-0.00000754,-0.00000316,-0.00000362,-0.00001084,0.00000325,-
 0.00000129,0.00001687,-0.00000691,-0.00000223,0.00000104,0.00000796,0.
 00000856,0.00000225,-0.00000590,-0.00000781,-0.00000702,0.00001080,0.0
 0006018,-0.00002638,0.00003656,-0.00001280,0.00000606,-0.00001443,-0.0
 0001371,-0.00007412,-0.00001614,-0.00000792,0.00000326,-0.00000638,-0.
 00000652,-0.00000344,-0.00004447,-0.00047361,-0.00038621,0.00009588,0.
 00022954,-0.00013191,-0.00019356,-0.00232171,-0.00092098,0.05726889,-0
 .15072413,0.24195430,0.00000706,0.00000103,0.00000669,-0.00004615,0.00
 010582,0.00001251,-0.00000806,-0.00000138,0.00000482,-0.00002195,0.000
 03267,0.00001966,0.00020797,0.00002838,0.00007716,-0.00015884,-0.00019
 389,-0.00007116,0.00014621,0.00007818,-0.00017912,-0.00066466,-0.00138
 237,0.00185951,-0.00011125,-0.00071763,0.00036286,-0.00006408,-0.00005
 025,0.00005984,-0.00000229,-0.00015399,0.00010724,-0.00001016,-0.00001
 222,-0.00000547,-0.00017017,0.00025583,-0.00026504,0.00000703,0.000253
 27,-0.00018924,-0.00148429,-0.00016912,0.00016155,-0.00002021,0.000078
 82,-0.00004051,-0.00073937,0.00095926,-0.00067277,0.00122329,0.0005989
 2,-0.00045486,0.00063744,-0.00040237,0.00049411,-0.00133761,-0.0018290
 1,0.00324166,-0.01550871,0.00597513,-0.00744809,-0.31559137,0.05776070
 ,-0.07192562,-0.00000109,0.00000187,-0.00000337,-0.00000481,0.00000478
 ,0.00000087,0.00000973,-0.00000770,-0.00000671,0.00001111,-0.00000041,
 -0.00001006,0.00001072,0.00000183,0.00000456,-0.00001896,-0.00011871,-
 0.00028208,0.00002145,0.00012610,-0.00001501,-0.00000186,0.00006758,0.
 00002538,0.00000126,0.00000934,-0.00000415,0.00000389,0.00000355,-0.00
 000309,-0.00000259,0.00001078,-0.00000290,-0.00004117,0.00008259,-0.00
 002225,-0.00005190,-0.00001751,-0.00002227,0.00002074,-0.00000441,-0.0
 0000035,-0.00000879,-0.00000809,-0.00001140,0.00002948,-0.00000213,-0.
 00002345,-0.00005541,-0.00012148,0.00020054,-0.00006085,-0.00002902,-0
 .00003226,-0.00071871,0.00023767,-0.00034672,0.00098067,-0.00011676,-0
 .00020567,0.33358725,0.00002935,0.00000279,0.00001595,-0.00001512,0.00
 007674,-0.00000072,0.00004581,-0.00002304,0.00002378,-0.00003261,0.000
 04880,0.00002738,0.00006563,-0.00016706,-0.00008450,-0.00021277,0.0003
 2902,0.00013425,0.00007481,-0.00032843,-0.00001785,0.00027031,0.000044
 33,-0.00041486,-0.00033544,-0.00171539,-0.00014500,-0.00010251,-0.0000
 2534,0.00000309,0.00017931,-0.00018590,0.00014948,0.00004963,-0.000052
 41,-0.00002270,-0.00075817,0.00057955,-0.00006746,0.00003281,0.0000331
 8,0.00059191,0.00065372,-0.00214628,-0.00222410,0.00031877,0.00038817,
 -0.00030960,0.01507450,0.00159287,0.00250134,0.00027104,0.00305425,0.0
 0570617,-0.00028369,-0.00106477,0.00006685,-0.00174573,0.00433432,0.00
 449264,-0.01183581,0.00628179,-0.00204248,0.05971564,-0.05798154,0.024
 13923,-0.00000982,-0.00000168,0.00000407,-0.00000678,-0.00000409,-0.00
 001655,0.00000639,-0.00001280,-0.00000966,0.00000668,-0.00001062,-0.00
 000697,0.00000985,-0.00000353,0.00000159,-0.00028948,0.00021157,-0.000
 17890,-0.00002914,-0.00011751,-0.00004823,0.00008328,0.00009581,-0.000
 02229,-0.00000132,0.00002175,-0.00001948,0.00001257,0.00002995,0.00001
 252,-0.00001221,-0.00002019,-0.00000143,-0.00003482,-0.00006743,-0.000
 06598,-0.00005048,0.00001961,0.00001938,-0.00005335,-0.00007434,-0.000
 10772,-0.00002426,-0.00001243,-0.00009631,0.00003020,0.00000504,-0.000
 03287,0.00085692,0.00002459,0.00027215,-0.00000365,-0.00068020,-0.0005
 0497,-0.00055892,0.00018335,-0.00005933,-0.00005548,-0.00263582,-0.002
 44664,-0.06133565,0.04997333,0.00000094,0.00002096,-0.00000880,0.00003
 851,-0.00012721,0.00002583,-0.00000838,0.00002391,-0.00000898,0.000011
 66,-0.00004161,-0.00001591,-0.00027862,-0.00001108,-0.00006881,0.00021
 497,0.00010419,0.00007859,-0.00013291,-0.00003382,-0.00000068,-0.00062
 648,-0.00050382,0.00003834,0.00072631,0.00192981,0.00071304,0.00010230
 ,0.00007806,0.00009004,-0.00012680,-0.00020271,0.00004721,-0.00006244,
 0.00003530,-0.00011559,0.00095968,-0.00148724,-0.00022259,-0.00057717,
 -0.00022976,0.00012125,-0.00133452,-0.00224924,-0.00061950,0.00036537,
 0.00031463,-0.00025767,-0.02267620,0.00361828,-0.00029467,-0.00004858,
 0.00572490,-0.00176253,0.00043981,-0.00000149,-0.00097295,0.00268475,0
 .00443070,0.00072772,0.01808074,-0.00273142,0.00768657,-0.07261919,0.0
 2349855,-0.07016783,0.00000669,-0.00000408,-0.00000539,0.00001155,-0.0
 0001773,-0.00000077,-0.00001819,0.00000505,0.00000321,-0.00000918,0.00
 000688,0.00000759,-0.00002183,-0.00000271,-0.00000527,-0.00013114,0.00
 006518,0.00011467,0.00000823,-0.00003596,0.00001324,0.00000898,0.00003
 435,-0.00009643,0.00002398,0.00002500,-0.00000684,-0.00003679,-0.00003
 855,-0.00000024,0.00002073,0.00000095,0.00002234,0.00005043,-0.0000845
 3,0.00003277,0.00003315,-0.00010018,-0.00000482,-0.00000468,-0.0000467
 7,-0.00015496,0.00003770,-0.00003843,0.00011443,-0.00005220,-0.0000015
 6,-0.00009902,-0.00126561,0.00031226,-0.00019676,-0.00004697,-0.000508
 30,-0.00026925,0.00080893,-0.00007577,0.00022361,-0.00016221,-0.002439
 84,-0.00073552,0.07560467,-0.02921516,0.06603130\\-0.00082289,0.001981
 81,-0.00137321,0.01011073,-0.01625936,0.00119712,-0.00361988,0.0021440
 0,0.00001314,-0.00069895,-0.00405890,-0.00304904,-0.02443467,-0.007724
 05,-0.00752810,0.01103477,0.03088740,0.01253666,0.00901771,-0.00026248
 ,-0.00257089,-0.00088112,0.00034820,-0.00550515,0.00656905,0.02757063,
 0.00725942,0.00063959,0.00131745,0.00013349,-0.00183146,-0.00215890,0.
 00222267,0.00075898,0.00000222,-0.00233119,0.01205800,-0.01936025,0.00
 272161,-0.00217988,-0.00335285,-0.00176271,-0.01493048,-0.00725044,-0.
 00715316,0.00019496,0.00061567,-0.00244594,-0.00155908,-0.00106984,0.0
 0360250,0.00102729,0.00114249,-0.00123228,0.00015603,0.00011055,0.0000
 2122,0.00112881,0.00045193,-0.00060428,0.00056685,-0.00014792,0.000785
 17,-0.00053228,0.00257809,-0.00194022,0.00027567,-0.00024777,-0.000581
 81,-0.00040226,-0.00128064,0.00021863,-0.00110974,0.00044456,0.0008325
 2,-0.00072516,0.00047468,0.00054026,-0.00153639,-0.00067535,-0.0001025
 3,0.00098289,-0.00257558,0.00137654,0.00047952,0.00034335,-0.00104064,
 -0.00023928,0.00000934,-0.00090603,0.00014247,0.00041862,-0.00009742,-
 0.00060034,-0.00015059,0.00024269,0.00015350,-0.00076192,0.00031740,0.
 00068136,-0.00043140,0.00059774,0.00054228,-0.00120339,0.00020125,0.00
 005258,0.00110650,-0.00070728,0.00050077,0.00109565,0.00112216,0.00014
 405,-0.00086873,0.00142071,-0.00039692,-0.00016586,-0.00021632,0.00021
 125,0.00001491,-0.00020653,0.00018260,-0.00008925,-0.00010756,0.000937
 23,0.00000655,-0.00086173,-0.00204815,-0.00296913,0.00496111\\\@

 Writing a WFNX file to "13_lig_b.wfx"


 A MAN THINKING OR WORKING IS ALWAYS ALONE, 
 LET HIM BE WHERE HE WILL.

                                    -- THOREAU
 Job cpu time:       0 days  3 hours 27 minutes 33.9 seconds.
 Elapsed time:       0 days  0 hours 25 minutes 57.5 seconds.
 File lengths (MBytes):  RWF=    768 Int=      0 D2E=      0 Chk=     12 Scr=      1
 Normal termination of Gaussian 16 at Thu Nov  3 08:30:38 2022.
