 Entering Gaussian System, Link 0=g16
 Initial command:
 /software/gaussian/G16-A.03/avx/g16/l1.exe "/scratch/lcmd/1361344.slurm/Gau-16650.inp" -scrdir="/scratch/lcmd/1361344.slurm/"
 Entering Link 1 = /software/gaussian/G16-A.03/avx/g16/l1.exe PID=     16651.
  
 Copyright (c) 1988,1990,1992,1993,1995,1998,2003,2009,2016,
            Gaussian, Inc.  All Rights Reserved.
  
 This is part of the Gaussian(R) 16 program.  It is based on
 the Gaussian(R) 09 system (copyright 2009, Gaussian, Inc.),
 the Gaussian(R) 03 system (copyright 2003, Gaussian, Inc.),
 the Gaussian(R) 98 system (copyright 1998, Gaussian, Inc.),
 the Gaussian(R) 94 system (copyright 1995, Gaussian, Inc.),
 the Gaussian 92(TM) system (copyright 1992, Gaussian, Inc.),
 the Gaussian 90(TM) system (copyright 1990, Gaussian, Inc.),
 the Gaussian 88(TM) system (copyright 1988, Gaussian, Inc.),
 the Gaussian 86(TM) system (copyright 1986, Carnegie Mellon
 University), and the Gaussian 82(TM) system (copyright 1983,
 Carnegie Mellon University). Gaussian is a federally registered
 trademark of Gaussian, Inc.
  
 This software contains proprietary and confidential information,
 including trade secrets, belonging to Gaussian, Inc.
  
 This software is provided under written license and may be
 used, copied, transmitted, or stored only in accord with that
 written license.
  
 The following legend is applicable only to US Government
 contracts under FAR:
  
                    RESTRICTED RIGHTS LEGEND
  
 Use, reproduction and disclosure by the US Government is
 subject to restrictions as set forth in subparagraphs (a)
 and (c) of the Commercial Computer Software - Restricted
 Rights clause in FAR 52.227-19.
  
 Gaussian, Inc.
 340 Quinnipiac St., Bldg. 40, Wallingford CT 06492
  
  
 ---------------------------------------------------------------
 Warning -- This program may not be used in any manner that
 competes with the business of Gaussian, Inc. or will provide
 assistance to any competitor of Gaussian, Inc.  The licensee
 of this program is prohibited from giving any competitor of
 Gaussian, Inc. access to this program.  By using this program,
 the user acknowledges that Gaussian, Inc. is engaged in the
 business of creating and licensing software in the field of
 computational chemistry and represents and warrants to the
 licensee that it is not a competitor of Gaussian, Inc. and that
 it will not use this program in any manner prohibited above.
 ---------------------------------------------------------------
  

 Cite this work as:
 Gaussian 16, Revision A.03,
 M. J. Frisch, G. W. Trucks, H. B. Schlegel, G. E. Scuseria, 
 M. A. Robb, J. R. Cheeseman, G. Scalmani, V. Barone, 
 G. A. Petersson, H. Nakatsuji, X. Li, M. Caricato, A. V. Marenich, 
 J. Bloino, B. G. Janesko, R. Gomperts, B. Mennucci, H. P. Hratchian, 
 J. V. Ortiz, A. F. Izmaylov, J. L. Sonnenberg, D. Williams-Young, 
 F. Ding, F. Lipparini, F. Egidi, J. Goings, B. Peng, A. Petrone, 
 T. Henderson, D. Ranasinghe, V. G. Zakrzewski, J. Gao, N. Rega, 
 G. Zheng, W. Liang, M. Hada, M. Ehara, K. Toyota, R. Fukuda, 
 J. Hasegawa, M. Ishida, T. Nakajima, Y. Honda, O. Kitao, H. Nakai, 
 T. Vreven, K. Throssell, J. A. Montgomery, Jr., J. E. Peralta, 
 F. Ogliaro, M. J. Bearpark, J. J. Heyd, E. N. Brothers, K. N. Kudin, 
 V. N. Staroverov, T. A. Keith, R. Kobayashi, J. Normand, 
 K. Raghavachari, A. P. Rendell, J. C. Burant, S. S. Iyengar, 
 J. Tomasi, M. Cossi, J. M. Millam, M. Klene, C. Adamo, R. Cammi, 
 J. W. Ochterski, R. L. Martin, K. Morokuma, O. Farkas, 
 J. B. Foresman, and D. J. Fox, Gaussian, Inc., Wallingford CT, 2016.
 
 ******************************************
 Gaussian 16:  ES64L-G16RevA.03 25-Dec-2016
                 3-Nov-2022 
 ******************************************
 %nprocs=8
 Will use up to    8 processors via shared memory.
 %mem=32000MB
 %chk=14_lig_b.chk
 ----------------------------------------------------------------------
 #p pop=(regular,nbo,savenbos) freq=noraman def2svp empiricaldispersion
 =gd3bj output=wfx pbe1pbe
 ----------------------------------------------------------------------
 1/10=4,30=1,38=1/1,3;
 2/12=2,17=6,18=5,40=1/2;
 3/5=43,7=101,11=2,25=1,30=1,71=2,74=-13,124=41,140=1/1,2,3;
 4//1;
 5/5=2,38=5,98=1/2;
 8/6=4,10=90,11=11/1;
 11/6=1,8=1,9=11,15=111,16=1/1,2,10;
 10/6=1/2;
 6/28=1,40=1,73=1/1,7;
 7/8=1,10=1,25=1/1,2,3,16;
 1/10=4,30=1/3;
 99/6=200/99;
 Leave Link    1 at Thu Nov  3 08:04:21 2022, MaxMem=  4194304000 cpu:               0.4 elap:               0.1
 (Enter /software/gaussian/G16-A.03/avx/g16/l101.exe)
 --------
 14_lig_b
 --------
 Symbolic Z-matrix:
 Charge =  0 Multiplicity = 1
 C                     0.03038   3.97083   0.00935 
 N                     0.00196   2.51071  -0.01814 
 C                    -0.97251   1.83063  -0.70622 
 N                    -1.13514   0.56188  -0.76018 
 C                    -2.40126   0.31394  -1.47285 
 H                    -2.21504  -0.49114  -2.19767 
 C                    -2.64165   1.66679  -2.14757 
 O                    -1.84676   2.58759  -1.36795 
 C                    -3.45126  -0.13004  -0.47624 
 C                    -4.24778   0.79081   0.21349 
 C                    -5.15996   0.35734   1.17334 
 C                    -5.27757  -1.00178   1.45996 
 C                    -4.47659  -1.92233   0.78634 
 C                    -3.56722  -1.49197  -0.1773 
 N                     1.12961   0.55326   0.73934 
 C                     0.96133   1.82056   0.68059 
 O                     1.8185    2.58742   1.3518 
 C                     2.61185   1.67458   2.14238 
 C                     2.38645   0.31591   1.47213 
 H                     2.19332  -0.48578   2.19889 
 C                     3.45255  -0.12935   0.49327 
 C                     3.57448  -1.49206   0.20015 
 C                     4.49953  -1.92437  -0.74749 
 C                     5.31027  -1.00503  -1.41111 
 C                     5.18675   0.35476  -1.13052 
 C                     4.25904   0.79013  -0.18646 
 H                    -0.74706   4.34248  -0.66261 
 H                     1.01111   4.33335  -0.32365 
 H                    -0.1556    4.33711   1.02809 
 H                    -3.6819    2.01063  -2.12981 
 H                    -2.25971   1.69142  -3.17922 
 H                    -4.15797   1.86234   0.01306 
 H                    -5.77983   1.08564   1.70188 
 H                    -5.99114  -1.34243   2.21402 
 H                    -4.5536   -2.98776   1.01466 
 H                    -2.91233  -2.20543  -0.68675 
 H                     2.22033   1.70188   3.17033 
 H                     3.65039   2.02384   2.13352 
 H                     2.91188  -2.20447   0.70108 
 H                     4.58136  -2.99042  -0.97125 
 H                     6.03613  -1.34722  -2.15264 
 H                     5.81423   1.08214  -1.65129 
 H                     4.1656    1.86218   0.00952 
 
 ITRead=  0  0  0  0  0  0  0  0  0  0  0  0  0  0  0  0  0  0  0  0
 ITRead=  0  0  0  0  0  0  0  0  0  0  0  0  0  0  0  0  0  0  0  0
 ITRead=  0  0  0
 MicOpt= -1 -1 -1 -1 -1 -1 -1 -1 -1 -1 -1 -1 -1 -1 -1 -1 -1 -1 -1 -1
 MicOpt= -1 -1 -1 -1 -1 -1 -1 -1 -1 -1 -1 -1 -1 -1 -1 -1 -1 -1 -1 -1
 MicOpt= -1 -1 -1
 NAtoms=     43 NQM=       43 NQMF=       0 NMMI=      0 NMMIF=      0
                NMic=       0 NMicF=      0.
                    Isotopes and Nuclear Properties:
 (Nuclear quadrupole moments (NQMom) in fm**2, nuclear magnetic moments (NMagM)
  in nuclear magnetons)

  Atom         1           2           3           4           5           6           7           8           9          10
 IAtWgt=          12          14          12          14          12           1          12          16          12          12
 AtmWgt=  12.0000000  14.0030740  12.0000000  14.0030740  12.0000000   1.0078250  12.0000000  15.9949146  12.0000000  12.0000000
 NucSpn=           0           2           0           2           0           1           0           0           0           0
 AtZEff=  -0.0000000  -0.0000000  -0.0000000  -0.0000000  -0.0000000  -0.0000000  -0.0000000  -0.0000000  -0.0000000  -0.0000000
 NQMom=    0.0000000   2.0440000   0.0000000   2.0440000   0.0000000   0.0000000   0.0000000   0.0000000   0.0000000   0.0000000
 NMagM=    0.0000000   0.4037610   0.0000000   0.4037610   0.0000000   2.7928460   0.0000000   0.0000000   0.0000000   0.0000000
 AtZNuc=   6.0000000   7.0000000   6.0000000   7.0000000   6.0000000   1.0000000   6.0000000   8.0000000   6.0000000   6.0000000

  Atom        11          12          13          14          15          16          17          18          19          20
 IAtWgt=          12          12          12          12          14          12          16          12          12           1
 AtmWgt=  12.0000000  12.0000000  12.0000000  12.0000000  14.0030740  12.0000000  15.9949146  12.0000000  12.0000000   1.0078250
 NucSpn=           0           0           0           0           2           0           0           0           0           1
 AtZEff=  -0.0000000  -0.0000000  -0.0000000  -0.0000000  -0.0000000  -0.0000000  -0.0000000  -0.0000000  -0.0000000  -0.0000000
 NQMom=    0.0000000   0.0000000   0.0000000   0.0000000   2.0440000   0.0000000   0.0000000   0.0000000   0.0000000   0.0000000
 NMagM=    0.0000000   0.0000000   0.0000000   0.0000000   0.4037610   0.0000000   0.0000000   0.0000000   0.0000000   2.7928460
 AtZNuc=   6.0000000   6.0000000   6.0000000   6.0000000   7.0000000   6.0000000   8.0000000   6.0000000   6.0000000   1.0000000

  Atom        21          22          23          24          25          26          27          28          29          30
 IAtWgt=          12          12          12          12          12          12           1           1           1           1
 AtmWgt=  12.0000000  12.0000000  12.0000000  12.0000000  12.0000000  12.0000000   1.0078250   1.0078250   1.0078250   1.0078250
 NucSpn=           0           0           0           0           0           0           1           1           1           1
 AtZEff=  -0.0000000  -0.0000000  -0.0000000  -0.0000000  -0.0000000  -0.0000000  -0.0000000  -0.0000000  -0.0000000  -0.0000000
 NQMom=    0.0000000   0.0000000   0.0000000   0.0000000   0.0000000   0.0000000   0.0000000   0.0000000   0.0000000   0.0000000
 NMagM=    0.0000000   0.0000000   0.0000000   0.0000000   0.0000000   0.0000000   2.7928460   2.7928460   2.7928460   2.7928460
 AtZNuc=   6.0000000   6.0000000   6.0000000   6.0000000   6.0000000   6.0000000   1.0000000   1.0000000   1.0000000   1.0000000

  Atom        31          32          33          34          35          36          37          38          39          40
 IAtWgt=           1           1           1           1           1           1           1           1           1           1
 AtmWgt=   1.0078250   1.0078250   1.0078250   1.0078250   1.0078250   1.0078250   1.0078250   1.0078250   1.0078250   1.0078250
 NucSpn=           1           1           1           1           1           1           1           1           1           1
 AtZEff=  -0.0000000  -0.0000000  -0.0000000  -0.0000000  -0.0000000  -0.0000000  -0.0000000  -0.0000000  -0.0000000  -0.0000000
 NQMom=    0.0000000   0.0000000   0.0000000   0.0000000   0.0000000   0.0000000   0.0000000   0.0000000   0.0000000   0.0000000
 NMagM=    2.7928460   2.7928460   2.7928460   2.7928460   2.7928460   2.7928460   2.7928460   2.7928460   2.7928460   2.7928460
 AtZNuc=   1.0000000   1.0000000   1.0000000   1.0000000   1.0000000   1.0000000   1.0000000   1.0000000   1.0000000   1.0000000

  Atom        41          42          43
 IAtWgt=           1           1           1
 AtmWgt=   1.0078250   1.0078250   1.0078250
 NucSpn=           1           1           1
 AtZEff=  -0.0000000  -0.0000000  -0.0000000
 NQMom=    0.0000000   0.0000000   0.0000000
 NMagM=    2.7928460   2.7928460   2.7928460
 AtZNuc=   1.0000000   1.0000000   1.0000000
 Leave Link  101 at Thu Nov  3 08:04:22 2022, MaxMem=  4194304000 cpu:               1.6 elap:               0.2
 (Enter /software/gaussian/G16-A.03/avx/g16/l103.exe)

 GradGradGradGradGradGradGradGradGradGradGradGradGradGradGradGradGradGrad
 Berny optimization.
 Initialization pass.
 Trust Radius=3.00D-01 FncErr=1.00D-07 GrdErr=1.00D-07 EigMax=2.50D+02 EigMin=1.00D-04
 Number of steps in this run=      2 maximum allowed number of steps=      2.
 GradGradGradGradGradGradGradGradGradGradGradGradGradGradGradGradGradGrad

 Leave Link  103 at Thu Nov  3 08:04:22 2022, MaxMem=  4194304000 cpu:               0.2 elap:               0.0
 (Enter /software/gaussian/G16-A.03/avx/g16/l202.exe)
                          Input orientation:                          
 ---------------------------------------------------------------------
 Center     Atomic      Atomic             Coordinates (Angstroms)
 Number     Number       Type             X           Y           Z
 ---------------------------------------------------------------------
      1          6           0        0.030380    3.970830    0.009350
      2          7           0        0.001960    2.510710   -0.018140
      3          6           0       -0.972510    1.830630   -0.706220
      4          7           0       -1.135140    0.561880   -0.760180
      5          6           0       -2.401260    0.313940   -1.472850
      6          1           0       -2.215040   -0.491140   -2.197670
      7          6           0       -2.641650    1.666790   -2.147570
      8          8           0       -1.846760    2.587590   -1.367950
      9          6           0       -3.451260   -0.130040   -0.476240
     10          6           0       -4.247780    0.790810    0.213490
     11          6           0       -5.159960    0.357340    1.173340
     12          6           0       -5.277570   -1.001780    1.459960
     13          6           0       -4.476590   -1.922330    0.786340
     14          6           0       -3.567220   -1.491970   -0.177300
     15          7           0        1.129610    0.553260    0.739340
     16          6           0        0.961330    1.820560    0.680590
     17          8           0        1.818500    2.587420    1.351800
     18          6           0        2.611850    1.674580    2.142380
     19          6           0        2.386450    0.315910    1.472130
     20          1           0        2.193320   -0.485780    2.198890
     21          6           0        3.452550   -0.129350    0.493270
     22          6           0        3.574480   -1.492060    0.200150
     23          6           0        4.499530   -1.924370   -0.747490
     24          6           0        5.310270   -1.005030   -1.411110
     25          6           0        5.186750    0.354760   -1.130520
     26          6           0        4.259040    0.790130   -0.186460
     27          1           0       -0.747060    4.342480   -0.662610
     28          1           0        1.011110    4.333350   -0.323650
     29          1           0       -0.155600    4.337110    1.028090
     30          1           0       -3.681900    2.010630   -2.129810
     31          1           0       -2.259710    1.691420   -3.179220
     32          1           0       -4.157970    1.862340    0.013060
     33          1           0       -5.779830    1.085640    1.701880
     34          1           0       -5.991140   -1.342430    2.214020
     35          1           0       -4.553600   -2.987760    1.014660
     36          1           0       -2.912330   -2.205430   -0.686750
     37          1           0        2.220330    1.701880    3.170330
     38          1           0        3.650390    2.023840    2.133520
     39          1           0        2.911880   -2.204470    0.701080
     40          1           0        4.581360   -2.990420   -0.971250
     41          1           0        6.036130   -1.347220   -2.152640
     42          1           0        5.814230    1.082140   -1.651290
     43          1           0        4.165600    1.862180    0.009520
 ---------------------------------------------------------------------
                    Distance matrix (angstroms):
                    1          2          3          4          5
     1  C    0.000000
     2  N    1.460655   0.000000
     3  C    2.469471   1.373155   0.000000
     4  N    3.683959   2.375196   1.280268   0.000000
     5  C    4.634936   3.566153   2.220224   1.473917   0.000000
     6  H    5.460955   4.321637   3.026371   2.083606   1.099180
     7  C    4.135293   3.497906   2.211416   2.327069   1.530764
     8  O    2.708129   2.290341   1.332362   2.231432   2.342639
     9  C    5.401366   4.371286   3.168804   2.433883   1.514216
    10  C    5.334497   4.590425   3.557314   3.269399   2.545738
    11  C    6.430537   5.718570   4.820588   4.469845   3.822909
    12  C    7.416566   6.511206   5.590029   4.953159   4.313427
    13  C    7.459613   6.352672   5.347057   4.441656   3.796293
    14  C    6.543680   5.365242   4.248758   3.236211   2.509825
    15  N    3.663465   2.382642   2.853108   2.716197   4.173500
    16  C    2.437395   1.372924   2.379723   2.838183   4.267812
    17  O    2.629329   2.276497   3.549354   4.157795   5.563608
    18  C    4.060366   3.489769   4.581104   4.868561   6.328705
    19  C    4.587944   3.567050   4.280444   4.176758   5.620950
    20  H    5.416066   4.323914   4.881383   4.575187   5.935604
    21  C    5.362546   4.374703   4.986126   4.805813   6.191060
    22  C    6.514616   5.369611   5.704112   5.226990   6.462974
    23  C    7.436363   6.358461   6.636637   6.158823   7.290890
    24  C    7.392843   6.517588   6.929009   6.665000   7.823758
    25  C    6.400267   5.724295   6.347811   6.336114   7.595838
    26  C    5.294975   4.594721   5.359282   5.429404   6.800085
    27  H    1.092734   2.081287   2.522324   3.801718   4.429673
    28  H    1.097334   2.105644   3.216320   4.361300   5.396349
    29  H    1.098445   2.110725   3.155569   4.290661   5.242479
    30  H    4.711625   4.275518   3.065910   3.234308   2.224948
    31  H    4.539515   3.972256   2.791414   2.896942   2.197541
    32  H    4.689138   4.210270   3.265811   3.380325   2.773356
    33  H    6.704291   6.198257   5.428101   5.282917   4.699911
    34  H    8.327665   7.466356   6.616854   6.004415   5.405905
    35  H    8.393181   7.214775   6.245199   5.237926   4.660633
    36  H    6.876793   5.584094   4.478064   3.289651   2.688191
    37  H    4.464953   3.967583   5.023788   5.292229   6.696610
    38  H    4.626807   4.263534   5.428873   5.780322   7.249285
    39  H    6.849516   5.587292   5.775033   5.115305   6.268797
    40  H    8.374485   7.220925   7.359228   6.733629   7.741278
    41  H    8.308122   7.473347   7.830191   7.550544   8.626188
    42  H    6.674966   6.204069   6.892984   7.025560   8.253257
    43  H    4.641815   4.213936   5.187818   5.511902   6.907830
                    6          7          8          9         10
     6  H    0.000000
     7  C    2.200265   0.000000
     8  O    3.209773   1.444829   0.000000
     9  C    2.149873   2.584069   3.279494   0.000000
    10  C    3.404280   2.986905   3.390320   1.399334   0.000000
    11  C    4.555895   4.368637   4.733864   2.424522   1.393298
    12  C    4.797718   5.204192   5.714115   2.800752   2.414029
    13  C    4.008395   4.985641   5.647685   2.420271   2.782380
    14  C    2.629058   3.836197   4.584805   1.399166   2.413910
    15  N    4.572033   4.878176   4.175877   4.788413   5.408260
    16  C    4.870078   4.582968   3.559525   4.961255   5.330422
    17  O    6.192392   5.743352   4.564118   6.204570   6.428321
    18  C    6.842897   6.782551   5.747626   6.846541   7.180264
    19  C    5.940747   6.341048   5.580919   6.170403   6.769248
    20  H    6.226027   6.848519   6.204047   6.256529   6.859976
    21  C    6.284395   6.880365   6.239278   6.971552   7.760158
    22  C    6.345859   7.357336   6.963643   7.188437   8.148584
    23  C    7.017309   8.114993   7.811412   8.155260   9.209295
    24  C    7.583736   8.421047   8.008237   8.854603   9.860055
    25  C    7.526012   8.002478   7.383235   8.676309   9.539752
    26  C    6.899299   7.227310   6.473606   7.770419   8.516217
    27  H    5.279702   3.599152   2.187803   5.229806   5.063295
    28  H    6.098828   4.876462   3.507943   6.313310   6.363492
    29  H    6.161073   4.836928   3.414945   5.751505   5.475925
    30  H    2.900885   1.095747   2.069070   2.714766   2.701710
    31  H    2.393534   1.100357   2.062607   3.470390   4.034105
    32  H    3.768444   2.646845   2.788345   2.169892   1.093807
    33  H    5.513661   5.000417   5.210446   3.412378   2.156248
    34  H    5.869126   6.268808   6.741769   3.893376   3.404723
    35  H    4.692658   5.943071   6.639905   3.406538   3.874660
    36  H    2.389118   4.147451   4.957067   2.154531   3.401663
    37  H    7.300498   7.205563   6.158059   6.987155   7.170035
    38  H    7.712821   7.618726   6.541924   7.866605   8.221190
    39  H    6.133805   7.344600   7.063241   6.795505   7.776257
    40  H    7.344492   8.674400   8.520111   8.541065   9.677552
    41  H    8.295584   9.186302   8.845249   9.710943  10.767012
    42  H    8.200178   8.490584   7.812645   9.418037  10.237496
    43  H    7.149991   7.143519   6.210645   7.888058   8.483773
                   11         12         13         14         15
    11  C    0.000000
    12  C    1.393984   0.000000
    13  C    2.411153   1.393824   0.000000
    14  C    2.789444   2.417892   1.393114   0.000000
    15  N    6.307569   6.632450   6.128640   5.204172   0.000000
    16  C    6.313003   6.891799   6.602377   5.675966   1.279773
    17  O    7.328302   7.952878   7.764390   6.927160   2.233267
    18  C    7.941989   8.358920   8.063658   7.320441   2.328715
    19  C    7.552436   7.776481   7.251299   6.437021   1.474097
    20  H    7.472170   7.525056   6.967544   6.312093   2.083595
    21  C    8.653016   8.826699   8.134613   7.182170   2.433630
    22  C    8.980970   8.954679   8.083841   7.151667   3.232870
    23  C   10.109478  10.065570   9.106227   8.098428   4.439107
    24  C   10.870195  10.970206  10.072381   8.976036   4.952840
    25  C   10.600103  10.865210  10.111361   8.997279   4.471707
    26  C    9.526485   9.842183   9.198642   8.152203   3.272086
    27  H    6.223001   7.320652   7.433485   6.498433   4.454834
    28  H    7.492112   8.437557   8.395264   7.410592   3.928495
    29  H    6.395568   7.411129   7.609861   6.860779   4.006577
    30  H    3.978546   4.950477   4.960205   4.011690   5.788487
    31  H    5.397777   6.154900   5.805119   4.566736   5.304527
    32  H    2.148315   3.398560   3.875978   3.411249   5.495423
    33  H    1.092710   2.160582   3.403606   3.882143   6.996447
    34  H    2.159420   1.092626   2.160652   3.408249   7.514879
    35  H    3.403314   2.160218   1.092338   2.152000   6.701753
    36  H    3.883242   3.413429   2.167268   1.094278   5.097194
    37  H    7.763017   8.151911   7.979163   7.409659   2.901501
    38  H    9.017840   9.450742   9.134274   8.354322   3.234297
    39  H    8.481775   8.312007   7.394347   6.577077   3.283752
    40  H   10.521410  10.347172   9.288509   8.323164   5.234345
    41  H   11.803394  11.881499  10.930949   9.805471   6.004108
    42  H   11.355030  11.706862  10.994083   9.839222   5.285877
    43  H    9.517620   9.973941   9.466436   8.430998   3.385727
                   16         17         18         19         20
    16  C    0.000000
    17  O    1.331667   0.000000
    18  C    2.209605   1.444887   0.000000
    19  C    2.218440   2.344526   1.531674   0.000000
    20  H    3.023613   3.209768   2.201253   1.099175   0.000000
    21  C    3.169135   3.284514   2.584667   1.514263   2.149847
    22  C    4.246508   4.588237   3.837515   2.509602   2.629670
    23  C    5.346286   5.652538   4.986695   3.796139   4.008653
    24  C    5.592177   5.721174   5.204716   4.313546   4.797614
    25  C    4.825232   4.742551   4.368513   3.823215   4.555447
    26  C    3.562085   3.398931   2.986467   2.546056   3.403680
    27  H    3.329093   3.704076   5.125225   5.530756   6.336096
    28  H    2.706490   2.550938   3.963929   4.610446   5.566403
    29  H    2.775124   2.657682   3.998686   4.777995   5.490762
    30  H    5.430843   6.535189   7.614186   7.257473   7.712841
    31  H    5.028907   6.161555   7.214694   6.716687   7.313942
    32  H    5.162807   6.167346   7.099276   6.881116   7.115505
    33  H    6.857578   7.753226   8.423846   8.205693   8.141714
    34  H    7.790555   8.785079   9.116958   8.572310   8.229184
    35  H    7.324343   8.473485   8.622809   7.699858   7.292684
    36  H    5.751822   7.036181   7.319496   6.252598   6.111610
    37  H    2.792485   2.062208   1.100325   2.198270   2.393801
    38  H    3.063229   2.069911   1.095731   2.225310   2.902674
    39  H    4.472799   4.957936   4.149023   2.687547   2.390326
    40  H    6.243294   6.643964   5.944400   4.660424   4.693159
    41  H    6.619337   6.749140   6.269303   5.406027   5.868993
    42  H    5.434479   5.220180   4.999815   4.700270   5.513007
    43  H    3.274052   2.799387   2.645454   2.774086   3.767777
                   21         22         23         24         25
    21  C    0.000000
    22  C    1.399201   0.000000
    23  C    2.420279   1.393065   0.000000
    24  C    2.800822   2.417917   1.393871   0.000000
    25  C    2.424563   2.789416   2.411103   1.393921   0.000000
    26  C    1.399251   2.413810   2.782283   2.414012   1.393356
    27  H    6.242599   7.311766   8.173575   8.114639   7.164562
    28  H    5.152056   6.385972   7.176892   6.940003   5.823761
    29  H    5.766632   6.969807   8.001816   8.022711   7.004242
    30  H    7.896863   8.387646   9.183182   9.511564   9.077083
    31  H    7.030811   7.456035   8.042050   8.228101   7.837959
    32  H    7.881462   8.430764   9.479974   9.994881   9.534378
    33  H    9.390089   9.818495  10.987484  11.706918  11.350002
    34  H    9.675527   9.776459  10.916197  11.873385  11.790319
    35  H    8.517088   8.304591   9.284133  10.349469  10.518966
    36  H    6.798107   6.585909   7.417436   8.341271   8.505681
    37  H    3.469643   4.566940   5.804632   6.153429   5.395525
    38  H    2.713999   4.013133   4.960808   4.949107   3.974945
    39  H    2.154445   1.094302   2.167359   3.413543   3.883227
    40  H    3.406575   2.151992   1.092349   2.160222   3.403247
    41  H    3.893447   3.408272   2.160715   1.092627   2.159378
    42  H    3.412386   3.882115   3.403585   2.160542   1.092710
    43  H    2.169941   3.411259   3.875891   3.398434   2.148198
                   26         27         28         29         30
    26  C    0.000000
    27  H    6.156862   0.000000
    28  H    4.808563   1.790569   0.000000
    29  H    5.791826   1.791178   1.785617   0.000000
    30  H    8.265879   4.025355   5.539096   5.274432   0.000000
    31  H    7.229318   3.955952   5.082552   5.397074   1.796046
    32  H    8.487373   4.271057   5.739221   4.813911   2.200119
    33  H   10.219201   6.444113   7.795336   6.531310   4.465284
    34  H   10.741336   8.251883   9.364067   8.229042   5.953525
    35  H    9.663217   8.428250   9.292778   8.543788   5.969209
    36  H    7.787953   6.896673   7.634191   7.303771   4.522148
    37  H    4.031832   5.519928   4.538143   4.144716   7.938711
    38  H    2.697184   5.703683   4.282210   4.588982   8.481665
    39  H    3.401499   7.622995   6.885208   7.232471   8.322196
    40  H    3.874577   9.069660   8.173352   8.951472   9.728013
    41  H    3.404729   8.978003   7.801596   8.987000  10.281818
    42  H    2.156296   7.393094   5.950038   7.308405   9.553406
    43  H    1.093815   5.544175   4.021006   5.082867   8.135234
                   31         32         33         34         35
    31  H    0.000000
    32  H    3.717964   0.000000
    33  H    6.048417   2.466943   0.000000
    34  H    7.225985   4.298289   2.490474   0.000000
    35  H    6.689192   4.968219   4.309118   2.492408   0.000000
    36  H    4.671591   4.311393   4.975867   4.317211   2.490101
    37  H    7.770949   7.118765   8.157123   8.809687   8.516206
    38  H    7.953929   8.092770   9.486600  10.212608   9.678504
    39  H    7.548512   8.185053   9.347312   9.071707   7.513007
    40  H    8.578753  10.044602  11.450509  11.164209   9.348334
    41  H    8.894277  10.904642  12.664637  12.795428  11.174325
    42  H    8.239800  10.140195  12.069217  12.656458  11.452654
    43  H    7.175084   8.323571  10.118235  10.876061  10.027795
                   36         37         38         39         40
    36  H    0.000000
    37  H    7.515872   0.000000
    38  H    8.301201   1.795468   0.000000
    39  H    5.987278   4.672794   4.525029   0.000000
    40  H    7.540062   6.689157   5.970687   2.490295   0.000000
    41  H    9.108254   7.224358   5.952056   4.317353   2.492417
    42  H    9.375036   6.045512   4.460245   4.975850   4.309080
    43  H    8.193127   3.714901   2.191564   4.311347   4.968148
                   41         42         43
    41  H    0.000000
    42  H    2.490458   0.000000
    43  H    4.298147   2.466725   0.000000
 Stoichiometry    C19H19N3O2
 Framework group  C1[X(C19H19N3O2)]
 Deg. of freedom   123
 Full point group                 C1      NOp   1
 Largest Abelian subgroup         C1      NOp   1
 Largest concise Abelian subgroup C1      NOp   1
                         Standard orientation:                         
 ---------------------------------------------------------------------
 Center     Atomic      Atomic             Coordinates (Angstroms)
 Number     Number       Type             X           Y           Z
 ---------------------------------------------------------------------
      1          6           0        0.026391    3.336590    0.033472
      2          7           0       -0.000740    1.876750   -0.007093
      3          6           0       -0.963519    1.202224   -0.716760
      4          7           0       -1.124523   -0.066082   -0.784316
      5          6           0       -2.378762   -0.308398   -1.519570
      6          1           0       -2.180336   -1.107097   -2.248201
      7          6           0       -2.608943    1.050134   -2.186389
      8          8           0       -1.827345    1.964501   -1.386034
      9          6           0       -3.444549   -0.761438   -0.544018
     10          6           0       -4.252692    0.153066    0.140617
     11          6           0       -5.180087   -0.289087    1.081744
     12          6           0       -5.301554   -1.650686    1.354661
     13          6           0       -4.489214   -2.565027    0.686208
     14          6           0       -3.564565   -2.125953   -0.258782
     15          7           0        1.115587   -0.086689    0.751656
     16          6           0        0.947555    1.180999    0.701135
     17          8           0        1.793274    1.942396    1.392779
     18          6           0        2.574207    1.023096    2.188221
     19          6           0        2.360500   -0.329823    1.502683
     20          1           0        2.156056   -1.137853    2.219255
     21          6           0        3.442608   -0.766136    0.537455
     22          6           0        3.570064   -2.126207    0.234588
     23          6           0        4.510626   -2.549902   -0.701604
     24          6           0        5.331506   -1.624504   -1.344001
     25          6           0        5.202665   -0.267246   -1.053713
     26          6           0        4.259499    0.159539   -0.121117
     27          1           0       -0.740250    3.713701   -0.647788
     28          1           0        1.012190    3.702403   -0.280411
     29          1           0       -0.176315    3.693963    1.052185
     30          1           0       -3.649541    1.393356   -2.182555
     31          1           0       -2.210317    1.083852   -3.211449
     32          1           0       -4.160255    1.226328   -0.049060
     33          1           0       -5.808875    0.434345    1.606422
     34          1           0       -6.027077   -1.998156    2.094060
     35          1           0       -4.569308   -3.632425    0.904031
     36          1           0       -2.901080   -2.834695   -0.763675
     37          1           0        2.166034    1.041333    3.209875
     38          1           0        3.612554    1.372870    2.199247
     39          1           0        2.899828   -2.843211    0.718516
     40          1           0        4.596691   -3.613941   -0.933210
     41          1           0        6.069506   -1.959952   -2.076574
     42          1           0        5.838099    0.464884   -1.557918
     43          1           0        4.162274    1.229813    0.082577
 ---------------------------------------------------------------------
 Rotational constants (GHZ):           0.4114833           0.1267352           0.1149797
 Leave Link  202 at Thu Nov  3 08:04:22 2022, MaxMem=  4194304000 cpu:               0.3 elap:               0.1
 (Enter /software/gaussian/G16-A.03/avx/g16/l301.exe)
 Standard basis: def2SVP (5D, 7F)
 Ernie: Thresh=  0.10000D-02 Tol=  0.10000D-05 Strict=F.
 There are   455 symmetry adapted cartesian basis functions of A   symmetry.
 There are   431 symmetry adapted basis functions of A   symmetry.
   431 basis functions,   733 primitive gaussians,   455 cartesian basis functions
    85 alpha electrons       85 beta electrons
       nuclear repulsion energy      1966.4698573727 Hartrees.
 IExCor= 1009 DFT=T Ex+Corr=PBE1PBE ExCW=0 ScaHFX=  0.250000
 ScaDFX=  0.750000  0.750000  1.000000  1.000000 ScalE2=  1.000000  1.000000
 IRadAn=      5 IRanWt=     -1 IRanGd=            0 ICorTp=0 IEmpDi=141
 NAtoms=   43 NActive=   43 NUniq=   43 SFac= 1.00D+00 NAtFMM=   60 NAOKFM=F Big=F
 Integral buffers will be    131072 words long.
 Raffenetti 2 integral format.
 Two-electron integral symmetry is turned on.
 R6Disp:  Grimme-D3(BJ) Dispersion energy=       -0.0478868609 Hartrees.
 Nuclear repulsion after empirical dispersion term =     1966.4219705118 Hartrees.
 Leave Link  301 at Thu Nov  3 08:04:22 2022, MaxMem=  4194304000 cpu:               0.5 elap:               0.1
 (Enter /software/gaussian/G16-A.03/avx/g16/l302.exe)
 NPDir=0 NMtPBC=     1 NCelOv=     1 NCel=       1 NClECP=     1 NCelD=      1
         NCelK=      1 NCelE2=     1 NClLst=     1 CellRange=     0.0.
 One-electron integrals computed using PRISM.
 One-electron integral symmetry used in STVInt
   1 Symmetry operations used in ECPInt.
 ECPInt:  NShTT=   20301 NPrTT=   73905 LenC2=   17468 LenP2D=   42786.
 LDataN:  DoStor=T MaxTD1= 4 Len=   56
 NBasis=   431 RedAO= T EigKep=  2.89D-04  NBF=   431
 NBsUse=   431 1.00D-06 EigRej= -1.00D+00 NBFU=   431
 Precomputing XC quadrature grid using
 IXCGrd= 4 IRadAn=           5 IRanWt=          -1 IRanGd=           0 AccXCQ= 0.00D+00.
 Generated NRdTot=       0 NPtTot=           0 NUsed=           0 NTot=          32
 NSgBfM=   448   448   448   448   448 MxSgAt=    43 MxSgA2=    43.
 Leave Link  302 at Thu Nov  3 08:04:23 2022, MaxMem=  4194304000 cpu:               7.2 elap:               0.9
 (Enter /software/gaussian/G16-A.03/avx/g16/l303.exe)
 DipDrv:  MaxL=1.
 Leave Link  303 at Thu Nov  3 08:04:23 2022, MaxMem=  4194304000 cpu:               0.9 elap:               0.2
 (Enter /software/gaussian/G16-A.03/avx/g16/l401.exe)
 ExpMin= 1.22D-01 ExpMax= 2.27D+03 ExpMxC= 3.41D+02 IAcc=3 IRadAn=         5 AccDes= 0.00D+00
 Harris functional with IExCor= 1009 and IRadAn=       5 diagonalized for initial guess.
 HarFok:  IExCor= 1009 AccDes= 0.00D+00 IRadAn=         5 IDoV= 1 UseB2=F ITyADJ=14
 ICtDFT=  3500011 ScaDFX=  1.000000  1.000000  1.000000  1.000000
 FoFCou: FMM=F IPFlag=           0 FMFlag=      100000 FMFlg1=           0
         NFxFlg=           0 DoJE=T BraDBF=F KetDBF=T FulRan=T
         wScrn=  0.000000 ICntrl=       500 IOpCl=  0 I1Cent=   200000004 NGrid=           0
         NMat0=    1 NMatS0=      1 NMatT0=    0 NMatD0=    1 NMtDS0=    0 NMtDT0=    0
 Petite list used in FoFCou.
 Harris En= -1048.42738419576    
 JPrj=0 DoOrth=F DoCkMO=F.
 Leave Link  401 at Thu Nov  3 08:04:28 2022, MaxMem=  4194304000 cpu:              38.9 elap:               4.9
 (Enter /software/gaussian/G16-A.03/avx/g16/l502.exe)
 Integral symmetry usage will be decided dynamically.
 Closed shell SCF:
 Using DIIS extrapolation, IDIIS=  1040.
 NGot=  4194304000 LenX=  4193881443 LenY=  4193673963
 Requested convergence on RMS density matrix=1.00D-08 within 128 cycles.
 Requested convergence on MAX density matrix=1.00D-06.
 Requested convergence on             energy=1.00D-06.
 No special actions if energy rises.
 Fock matrices will be formed incrementally for  20 cycles.
 Integral accuracy reduced to 1.0D-05 until final iterations.

 Cycle   1  Pass 0  IDiag  1:
 FoFJK:  IHMeth= 1 ICntrl=       0 DoSepK=F KAlg= 0 I1Cent=           0 FoldK=F
 IRaf= 770000000 NMat=       1 IRICut=       1 DoRegI=T DoRafI=F ISym2E= 0 IDoP0=0 IntGTp=1.
 FoFCou: FMM=F IPFlag=           0 FMFlag=      100000 FMFlg1=           0
         NFxFlg=           0 DoJE=F BraDBF=F KetDBF=F FulRan=T
         wScrn=  0.000000 ICntrl=         0 IOpCl=  0 I1Cent=           0 NGrid=           0
         NMat0=    1 NMatS0=      1 NMatT0=    0 NMatD0=    1 NMtDS0=    0 NMtDT0=    0
 Symmetry not used in FoFCou.
 E= -1047.80020642869    
 DIIS: error= 3.35D-02 at cycle   1 NSaved=   1.
 NSaved= 1 IEnMin= 1 EnMin= -1047.80020642869     IErMin= 1 ErrMin= 3.35D-02
 ErrMax= 3.35D-02  0.00D+00 EMaxC= 1.00D-01 BMatC= 3.93D-01 BMatP= 3.93D-01
 IDIUse=3 WtCom= 6.65D-01 WtEn= 3.35D-01
 Coeff-Com:  0.100D+01
 Coeff-En:   0.100D+01
 Coeff:      0.100D+01
 Gap=     0.264 Goal=   None    Shift=    0.000
 GapD=    0.264 DampG=1.000 DampE=0.500 DampFc=0.5000 IDamp=-1.
 Damping current iteration by 5.00D-01
 RMSDP=4.79D-03 MaxDP=1.68D-01              OVMax= 3.19D-01

 Cycle   2  Pass 0  IDiag  1:
 RMSU=  2.35D-03    CP:  9.74D-01
 E= -1047.95093813023     Delta-E=       -0.150731701541 Rises=F Damp=T
 DIIS: error= 1.15D-02 at cycle   2 NSaved=   2.
 NSaved= 2 IEnMin= 2 EnMin= -1047.95093813023     IErMin= 2 ErrMin= 1.15D-02
 ErrMax= 1.15D-02  0.00D+00 EMaxC= 1.00D-01 BMatC= 5.42D-02 BMatP= 3.93D-01
 IDIUse=3 WtCom= 8.85D-01 WtEn= 1.15D-01
 Coeff-Com:  0.153D+00 0.847D+00
 Coeff-En:   0.237D+00 0.763D+00
 Coeff:      0.162D+00 0.838D+00
 Gap=     0.260 Goal=   None    Shift=    0.000
 RMSDP=1.63D-03 MaxDP=5.52D-02 DE=-1.51D-01 OVMax= 2.67D-01

 Cycle   3  Pass 0  IDiag  1:
 RMSU=  1.52D-03    CP:  9.54D-01  7.91D-01
 E= -1048.16010262394     Delta-E=       -0.209164493707 Rises=F Damp=F
 DIIS: error= 1.57D-02 at cycle   3 NSaved=   3.
 NSaved= 3 IEnMin= 3 EnMin= -1048.16010262394     IErMin= 2 ErrMin= 1.15D-02
 ErrMax= 1.57D-02  0.00D+00 EMaxC= 1.00D-01 BMatC= 6.94D-02 BMatP= 5.42D-02
 IDIUse=2 WtCom= 0.00D+00 WtEn= 1.00D+00
 Coeff-En:   0.000D+00 0.000D+00 0.100D+01
 Coeff:      0.000D+00 0.000D+00 0.100D+01
 Gap=     0.216 Goal=   None    Shift=    0.000
 RMSDP=2.27D-03 MaxDP=9.89D-02 DE=-2.09D-01 OVMax= 2.47D-01

 Cycle   4  Pass 0  IDiag  1:
 RMSU=  1.12D-03    CP:  9.63D-01  1.34D+00  3.22D-02
 E= -1047.90355871006     Delta-E=        0.256543913876 Rises=F Damp=F
 DIIS: error= 3.61D-02 at cycle   4 NSaved=   4.
 NSaved= 4 IEnMin= 3 EnMin= -1048.16010262394     IErMin= 2 ErrMin= 1.15D-02
 ErrMax= 3.61D-02  0.00D+00 EMaxC= 1.00D-01 BMatC= 3.54D-01 BMatP= 5.42D-02
 IDIUse=2 WtCom= 0.00D+00 WtEn= 1.00D+00
 Coeff-En:   0.000D+00 0.000D+00 0.781D+00 0.219D+00
 Coeff:      0.000D+00 0.000D+00 0.781D+00 0.219D+00
 Gap=     0.211 Goal=   None    Shift=    0.000
 RMSDP=1.26D-03 MaxDP=5.05D-02 DE= 2.57D-01 OVMax= 1.26D-01

 Cycle   5  Pass 0  IDiag  1:
 RMSU=  1.80D-04    CP:  9.59D-01  9.99D-01  5.54D-01  5.50D-01
 E= -1048.20202949367     Delta-E=       -0.298470783609 Rises=F Damp=F
 DIIS: error= 9.51D-03 at cycle   5 NSaved=   5.
 NSaved= 5 IEnMin= 5 EnMin= -1048.20202949367     IErMin= 5 ErrMin= 9.51D-03
 ErrMax= 9.51D-03  0.00D+00 EMaxC= 1.00D-01 BMatC= 2.44D-02 BMatP= 5.42D-02
 IDIUse=3 WtCom= 9.05D-01 WtEn= 9.51D-02
 Coeff-Com: -0.853D-02 0.355D-01 0.266D+00-0.112D+00 0.819D+00
 Coeff-En:   0.000D+00 0.000D+00 0.304D+00 0.000D+00 0.696D+00
 Coeff:     -0.772D-02 0.321D-01 0.270D+00-0.101D+00 0.807D+00
 Gap=     0.225 Goal=   None    Shift=    0.000
 RMSDP=4.09D-04 MaxDP=1.88D-02 DE=-2.98D-01 OVMax= 4.39D-02

 Cycle   6  Pass 0  IDiag  1:
 RMSU=  5.07D-05    CP:  9.56D-01  9.13D-01  7.30D-01  3.51D-01  9.62D-01
 E= -1048.22390919560     Delta-E=       -0.021879701924 Rises=F Damp=F
 DIIS: error= 5.38D-04 at cycle   6 NSaved=   6.
 NSaved= 6 IEnMin= 6 EnMin= -1048.22390919560     IErMin= 6 ErrMin= 5.38D-04
 ErrMax= 5.38D-04  0.00D+00 EMaxC= 1.00D-01 BMatC= 8.29D-05 BMatP= 2.44D-02
 IDIUse=3 WtCom= 9.95D-01 WtEn= 5.38D-03
 Coeff-Com: -0.651D-02 0.177D-01 0.113D+00-0.677D-01 0.433D+00 0.510D+00
 Coeff-En:   0.000D+00 0.000D+00 0.000D+00 0.000D+00 0.000D+00 0.100D+01
 Coeff:     -0.648D-02 0.176D-01 0.113D+00-0.674D-01 0.431D+00 0.512D+00
 Gap=     0.218 Goal=   None    Shift=    0.000
 RMSDP=3.06D-05 MaxDP=1.42D-03 DE=-2.19D-02 OVMax= 2.33D-03

 Cycle   7  Pass 0  IDiag  1:
 RMSU=  1.70D-05    CP:  9.57D-01  9.17D-01  7.26D-01  3.57D-01  9.63D-01
                    CP:  5.81D-01
 E= -1048.22398579066     Delta-E=       -0.000076595064 Rises=F Damp=F
 DIIS: error= 1.37D-04 at cycle   7 NSaved=   7.
 NSaved= 7 IEnMin= 7 EnMin= -1048.22398579066     IErMin= 7 ErrMin= 1.37D-04
 ErrMax= 1.37D-04  0.00D+00 EMaxC= 1.00D-01 BMatC= 5.35D-06 BMatP= 8.29D-05
 IDIUse=3 WtCom= 9.99D-01 WtEn= 1.37D-03
 Coeff-Com: -0.181D-02 0.338D-02 0.305D-01-0.187D-01 0.120D+00 0.261D+00
 Coeff-Com:  0.606D+00
 Coeff-En:   0.000D+00 0.000D+00 0.000D+00 0.000D+00 0.000D+00 0.000D+00
 Coeff-En:   0.100D+01
 Coeff:     -0.181D-02 0.337D-02 0.304D-01-0.187D-01 0.120D+00 0.260D+00
 Coeff:      0.606D+00
 Gap=     0.218 Goal=   None    Shift=    0.000
 RMSDP=7.79D-06 MaxDP=2.67D-04 DE=-7.66D-05 OVMax= 6.42D-04

 Initial convergence to 1.0D-05 achieved.  Increase integral accuracy.
 Cycle   8  Pass 1  IDiag  1:
 E= -1048.22395318097     Delta-E=        0.000032609689 Rises=F Damp=F
 DIIS: error= 1.31D-04 at cycle   1 NSaved=   1.
 NSaved= 1 IEnMin= 1 EnMin= -1048.22395318097     IErMin= 1 ErrMin= 1.31D-04
 ErrMax= 1.31D-04  0.00D+00 EMaxC= 1.00D-01 BMatC= 3.19D-06 BMatP= 3.19D-06
 IDIUse=3 WtCom= 9.99D-01 WtEn= 1.31D-03
 Coeff-Com:  0.100D+01
 Coeff-En:   0.100D+01
 Coeff:      0.100D+01
 Gap=     0.218 Goal=   None    Shift=    0.000
 RMSDP=7.79D-06 MaxDP=2.67D-04 DE= 3.26D-05 OVMax= 4.06D-04

 Cycle   9  Pass 1  IDiag  1:
 RMSU=  1.04D-04    CP:  1.00D+00
 E= -1048.22395545412     Delta-E=       -0.000002273149 Rises=F Damp=F
 DIIS: error= 7.74D-05 at cycle   2 NSaved=   2.
 NSaved= 2 IEnMin= 2 EnMin= -1048.22395545412     IErMin= 2 ErrMin= 7.74D-05
 ErrMax= 7.74D-05  0.00D+00 EMaxC= 1.00D-01 BMatC= 1.28D-06 BMatP= 3.19D-06
 IDIUse=1 WtCom= 1.00D+00 WtEn= 0.00D+00
 Coeff-Com:  0.339D+00 0.661D+00
 Coeff:      0.339D+00 0.661D+00
 Gap=     0.218 Goal=   None    Shift=    0.000
 RMSDP=4.86D-06 MaxDP=2.83D-04 DE=-2.27D-06 OVMax= 4.40D-04

 Cycle  10  Pass 1  IDiag  1:
 RMSU=  4.76D-06    CP:  1.00D+00  1.01D+00
 E= -1048.22395578087     Delta-E=       -0.000000326752 Rises=F Damp=F
 DIIS: error= 6.35D-05 at cycle   3 NSaved=   3.
 NSaved= 3 IEnMin= 3 EnMin= -1048.22395578087     IErMin= 3 ErrMin= 6.35D-05
 ErrMax= 6.35D-05  0.00D+00 EMaxC= 1.00D-01 BMatC= 8.86D-07 BMatP= 1.28D-06
 IDIUse=1 WtCom= 1.00D+00 WtEn= 0.00D+00
 Coeff-Com:  0.115D-01 0.452D+00 0.536D+00
 Coeff:      0.115D-01 0.452D+00 0.536D+00
 Gap=     0.218 Goal=   None    Shift=    0.000
 RMSDP=2.80D-06 MaxDP=1.12D-04 DE=-3.27D-07 OVMax= 2.51D-04

 Cycle  11  Pass 1  IDiag  1:
 RMSU=  1.09D-06    CP:  1.00D+00  1.02D+00  4.86D-01
 E= -1048.22395659093     Delta-E=       -0.000000810061 Rises=F Damp=F
 DIIS: error= 1.55D-05 at cycle   4 NSaved=   4.
 NSaved= 4 IEnMin= 4 EnMin= -1048.22395659093     IErMin= 4 ErrMin= 1.55D-05
 ErrMax= 1.55D-05  0.00D+00 EMaxC= 1.00D-01 BMatC= 6.39D-08 BMatP= 8.86D-07
 IDIUse=1 WtCom= 1.00D+00 WtEn= 0.00D+00
 Coeff-Com: -0.466D-02 0.277D+00 0.356D+00 0.373D+00
 Coeff:     -0.466D-02 0.277D+00 0.356D+00 0.373D+00
 Gap=     0.218 Goal=   None    Shift=    0.000
 RMSDP=6.52D-07 MaxDP=2.60D-05 DE=-8.10D-07 OVMax= 7.09D-05

 Cycle  12  Pass 1  IDiag  1:
 RMSU=  3.06D-07    CP:  1.00D+00  1.02D+00  5.42D-01  5.34D-01
 E= -1048.22395664849     Delta-E=       -0.000000057557 Rises=F Damp=F
 DIIS: error= 1.85D-06 at cycle   5 NSaved=   5.
 NSaved= 5 IEnMin= 5 EnMin= -1048.22395664849     IErMin= 5 ErrMin= 1.85D-06
 ErrMax= 1.85D-06  0.00D+00 EMaxC= 1.00D-01 BMatC= 9.86D-10 BMatP= 6.39D-08
 IDIUse=1 WtCom= 1.00D+00 WtEn= 0.00D+00
 Coeff-Com: -0.309D-02 0.157D+00 0.203D+00 0.224D+00 0.419D+00
 Coeff:     -0.309D-02 0.157D+00 0.203D+00 0.224D+00 0.419D+00
 Gap=     0.218 Goal=   None    Shift=    0.000
 RMSDP=1.01D-07 MaxDP=6.00D-06 DE=-5.76D-08 OVMax= 6.59D-06

 Cycle  13  Pass 1  IDiag  1:
 RMSU=  9.06D-08    CP:  1.00D+00  1.02D+00  5.43D-01  5.59D-01  8.99D-01
 E= -1048.22395664931     Delta-E=       -0.000000000821 Rises=F Damp=F
 DIIS: error= 1.77D-07 at cycle   6 NSaved=   6.
 NSaved= 6 IEnMin= 6 EnMin= -1048.22395664931     IErMin= 6 ErrMin= 1.77D-07
 ErrMax= 1.77D-07  0.00D+00 EMaxC= 1.00D-01 BMatC= 1.69D-11 BMatP= 9.86D-10
 IDIUse=1 WtCom= 1.00D+00 WtEn= 0.00D+00
 Coeff-Com: -0.915D-03 0.439D-01 0.568D-01 0.631D-01 0.162D+00 0.675D+00
 Coeff:     -0.915D-03 0.439D-01 0.568D-01 0.631D-01 0.162D+00 0.675D+00
 Gap=     0.218 Goal=   None    Shift=    0.000
 RMSDP=2.07D-08 MaxDP=6.81D-07 DE=-8.21D-10 OVMax= 1.37D-06

 Cycle  14  Pass 1  IDiag  1:
 RMSU=  1.60D-08    CP:  1.00D+00  1.02D+00  5.42D-01  5.60D-01  9.27D-01
                    CP:  9.03D-01
 E= -1048.22395664933     Delta-E=       -0.000000000021 Rises=F Damp=F
 DIIS: error= 1.06D-07 at cycle   7 NSaved=   7.
 NSaved= 7 IEnMin= 7 EnMin= -1048.22395664933     IErMin= 7 ErrMin= 1.06D-07
 ErrMax= 1.06D-07  0.00D+00 EMaxC= 1.00D-01 BMatC= 6.74D-12 BMatP= 1.69D-11
 IDIUse=1 WtCom= 1.00D+00 WtEn= 0.00D+00
 Coeff-Com: -0.276D-04-0.473D-04-0.282D-04-0.137D-04 0.261D-01 0.415D+00
 Coeff-Com:  0.559D+00
 Coeff:     -0.276D-04-0.473D-04-0.282D-04-0.137D-04 0.261D-01 0.415D+00
 Coeff:      0.559D+00
 Gap=     0.218 Goal=   None    Shift=    0.000
 RMSDP=9.60D-09 MaxDP=4.28D-07 DE=-2.14D-11 OVMax= 6.43D-07

 SCF Done:  E(RPBE1PBE) =  -1048.22395665     A.U. after   14 cycles
            NFock= 14  Conv=0.96D-08     -V/T= 2.0097
 KE= 1.038105917886D+03 PE=-6.369583271378D+03 EE= 2.316831426330D+03
 Leave Link  502 at Thu Nov  3 08:06:27 2022, MaxMem=  4194304000 cpu:             953.5 elap:             119.2
 (Enter /software/gaussian/G16-A.03/avx/g16/l801.exe)
 DoSCS=F DFT=T ScalE2(SS,OS)=  1.000000  1.000000
 Range of M.O.s used for correlation:     1   431
 NBasis=   431 NAE=    85 NBE=    85 NFC=     0 NFV=     0
 NROrb=    431 NOA=    85 NOB=    85 NVA=   346 NVB=   346

 **** Warning!!: The largest alpha MO coefficient is  0.10221332D+02

 Leave Link  801 at Thu Nov  3 08:06:28 2022, MaxMem=  4194304000 cpu:               0.4 elap:               0.1
 (Enter /software/gaussian/G16-A.03/avx/g16/l1101.exe)
 Using compressed storage, NAtomX=    43.
 Will process     44 centers per pass.
   1 Symmetry operations used in ECPInt.
 ECPInt:  NShTT=   20301 NPrTT=   73905 LenC2=   17468 LenP2D=   42786.
 LDataN:  DoStor=T MaxTD1= 5 Len=  102
 R6Disp: Adding Grimme-D3(BJ) dispersion energy 1st derivatives to the gradient.
 Leave Link 1101 at Thu Nov  3 08:06:30 2022, MaxMem=  4194304000 cpu:               9.0 elap:               1.2
 (Enter /software/gaussian/G16-A.03/avx/g16/l1102.exe)
 Symmetrizing basis deriv contribution to polar:
 IMax=3 JMax=2 DiffMx= 0.00D+00
 Leave Link 1102 at Thu Nov  3 08:06:31 2022, MaxMem=  4194304000 cpu:               0.8 elap:               0.2
 (Enter /software/gaussian/G16-A.03/avx/g16/l1110.exe)
 Forming Gx(P) for the SCF density, NAtomX=    43.
 Integral derivatives from FoFJK, PRISM(SPDF).
 Do as many integral derivatives as possible in FoFJK.
 G2DrvN: MDV=    4194300768.
 G2DrvN: will do    44 centers at a time, making    1 passes.
 Calling FoFCou, ICntrl=  3107 FMM=F I1Cent=   0 AccDes= 0.00D+00.
 FoFJK:  IHMeth= 1 ICntrl=    3107 DoSepK=F KAlg= 0 I1Cent=           0 FoldK=F
 IRaf=         0 NMat=       1 IRICut=       1 DoRegI=T DoRafI=F ISym2E= 0 IDoP0=0 IntGTp=1.
 FoFCou: FMM=F IPFlag=           0 FMFlag=      100000 FMFlg1=           0
         NFxFlg=           0 DoJE=F BraDBF=F KetDBF=F FulRan=T
         wScrn=  0.000000 ICntrl=      3107 IOpCl=  0 I1Cent=           0 NGrid=           0
         NMat0=    1 NMatS0=      1 NMatT0=    0 NMatD0=    1 NMtDS0=    0 NMtDT0=    0
 Symmetry not used in FoFCou.
 End of G2Drv F.D. properties file   721 does not exist.
 End of G2Drv F.D. properties file   722 does not exist.
 End of G2Drv F.D. properties file   788 does not exist.
 Leave Link 1110 at Thu Nov  3 08:13:33 2022, MaxMem=  4194304000 cpu:            3368.6 elap:             421.3
 (Enter /software/gaussian/G16-A.03/avx/g16/l1002.exe)
 Minotr:  Closed shell wavefunction.
          IDoAtm=1111111111111111111111111111111111111111111
          Direct CPHF calculation.
          Differentiating once with respect to electric field.
                with respect to dipole field.
          Differentiating once with respect to nuclear coordinates.
          Requested convergence is 1.0D-08 RMS, and 1.0D-07 maximum.
          Secondary convergence is 1.0D-12 RMS, and 1.0D-12 maximum.
          NewPWx=T KeepS1=F KeepF1=F KeepIn=T MapXYZ=F SortEE=F KeepMc=T.
        13067 words used for storage of precomputed grid.
 Two-electron integrals replicated using symmetry.
          MDV=    4194304000 using IRadAn=       1.
          Solving linear equations simultaneously, MaxMat=     384.
 FoF2E skips out because all densities are zero.
 CalDSu exits because no D1Ps are significant.
 FoFJK:  IHMeth= 1 ICntrl=       0 DoSepK=F KAlg= 0 I1Cent=           0 FoldK=F
 IRaf= 740000000 NMat=     129 IRICut=     322 DoRegI=T DoRafI=T ISym2E= 2 IDoP0=3 IntGTp=3.
 FoFCou: FMM=F IPFlag=           0 FMFlag=      100000 FMFlg1=           0
         NFxFlg=           0 DoJE=F BraDBF=F KetDBF=F FulRan=T
         wScrn=  0.000000 ICntrl=         0 IOpCl=  0 I1Cent=           0 NGrid=           0
         NMat0=  129 NMatS0=    129 NMatT0=    0 NMatD0=  129 NMtDS0=    0 NMtDT0=    0
 Integrals replicated using symmetry in FoFCou.
 Raff kept on since  68.77% of shell-pairs survive, threshold=   0.20 IRatSp=69.
          There are   132 degrees of freedom in the 1st order CPHF.  IDoFFX=6 NUNeed=     3.
    129 vectors produced by pass  0 Test12= 2.94D-14 1.00D-09 XBig12= 2.45D+02 5.23D+00.
 AX will form   129 AO Fock derivatives at one time.
    129 vectors produced by pass  1 Test12= 2.94D-14 1.00D-09 XBig12= 7.00D+01 1.71D+00.
    129 vectors produced by pass  2 Test12= 2.94D-14 1.00D-09 XBig12= 5.38D-01 1.04D-01.
    129 vectors produced by pass  3 Test12= 2.94D-14 1.00D-09 XBig12= 2.84D-03 5.36D-03.
    129 vectors produced by pass  4 Test12= 2.94D-14 1.00D-09 XBig12= 7.32D-06 2.04D-04.
    108 vectors produced by pass  5 Test12= 2.94D-14 1.00D-09 XBig12= 1.26D-08 8.84D-06.
     26 vectors produced by pass  6 Test12= 2.94D-14 1.00D-09 XBig12= 1.55D-11 2.20D-07.
      3 vectors produced by pass  7 Test12= 2.94D-14 1.00D-09 XBig12= 1.59D-14 7.10D-09.
      2 vectors produced by pass  8 Test12= 2.94D-14 1.00D-09 XBig12= 1.30D-15 3.83D-09.
 InvSVY:  IOpt=1 It=  1 EMax= 7.11D-15
 Solved reduced A of dimension   784 with   132 vectors.
 FullF1:  Do perturbations      1 to       3.
 Isotropic polarizability for W=    0.000000      216.76 Bohr**3.
 End of Minotr F.D. properties file   721 does not exist.
 End of Minotr F.D. properties file   722 does not exist.
 End of Minotr F.D. properties file   788 does not exist.
 Leave Link 1002 at Thu Nov  3 08:27:24 2022, MaxMem=  4194304000 cpu:            6643.0 elap:             830.7
 (Enter /software/gaussian/G16-A.03/avx/g16/l601.exe)
 Copying SCF densities to generalized density rwf, IOpCl= 0 IROHF=0.

 **********************************************************************

            Population analysis using the SCF density.

 **********************************************************************

 Orbital symmetries:
       Occupied  (A) (A) (A) (A) (A) (A) (A) (A) (A) (A) (A) (A)
                 (A) (A) (A) (A) (A) (A) (A) (A) (A) (A) (A) (A)
                 (A) (A) (A) (A) (A) (A) (A) (A) (A) (A) (A) (A)
                 (A) (A) (A) (A) (A) (A) (A) (A) (A) (A) (A) (A)
                 (A) (A) (A) (A) (A) (A) (A) (A) (A) (A) (A) (A)
                 (A) (A) (A) (A) (A) (A) (A) (A) (A) (A) (A) (A)
                 (A) (A) (A) (A) (A) (A) (A) (A) (A) (A) (A) (A)
                 (A)
       Virtual   (A) (A) (A) (A) (A) (A) (A) (A) (A) (A) (A) (A)
                 (A) (A) (A) (A) (A) (A) (A) (A) (A) (A) (A) (A)
                 (A) (A) (A) (A) (A) (A) (A) (A) (A) (A) (A) (A)
                 (A) (A) (A) (A) (A) (A) (A) (A) (A) (A) (A) (A)
                 (A) (A) (A) (A) (A) (A) (A) (A) (A) (A) (A) (A)
                 (A) (A) (A) (A) (A) (A) (A) (A) (A) (A) (A) (A)
                 (A) (A) (A) (A) (A) (A) (A) (A) (A) (A) (A) (A)
                 (A) (A) (A) (A) (A) (A) (A) (A) (A) (A) (A) (A)
                 (A) (A) (A) (A) (A) (A) (A) (A) (A) (A) (A) (A)
                 (A) (A) (A) (A) (A) (A) (A) (A) (A) (A) (A) (A)
                 (A) (A) (A) (A) (A) (A) (A) (A) (A) (A) (A) (A)
                 (A) (A) (A) (A) (A) (A) (A) (A) (A) (A) (A) (A)
                 (A) (A) (A) (A) (A) (A) (A) (A) (A) (A) (A) (A)
                 (A) (A) (A) (A) (A) (A) (A) (A) (A) (A) (A) (A)
                 (A) (A) (A) (A) (A) (A) (A) (A) (A) (A) (A) (A)
                 (A) (A) (A) (A) (A) (A) (A) (A) (A) (A) (A) (A)
                 (A) (A) (A) (A) (A) (A) (A) (A) (A) (A) (A) (A)
                 (A) (A) (A) (A) (A) (A) (A) (A) (A) (A) (A) (A)
                 (A) (A) (A) (A) (A) (A) (A) (A) (A) (A) (A) (A)
                 (A) (A) (A) (A) (A) (A) (A) (A) (A) (A) (A) (A)
                 (A) (A) (A) (A) (A) (A) (A) (A) (A) (A) (A) (A)
                 (A) (A) (A) (A) (A) (A) (A) (A) (A) (A) (A) (A)
                 (A) (A) (A) (A) (A) (A) (A) (A) (A) (A) (A) (A)
                 (A) (A) (A) (A) (A) (A) (A) (A) (A) (A) (A) (A)
                 (A) (A) (A) (A) (A) (A) (A) (A) (A) (A) (A) (A)
                 (A) (A) (A) (A) (A) (A) (A) (A) (A) (A) (A) (A)
                 (A) (A) (A) (A) (A) (A) (A) (A) (A) (A) (A) (A)
                 (A) (A) (A) (A) (A) (A) (A) (A) (A) (A) (A) (A)
                 (A) (A) (A) (A) (A) (A) (A) (A) (A) (A)
 The electronic state is 1-A.
 Alpha  occ. eigenvalues --  -19.25316 -19.25199 -14.44801 -14.34486 -14.34476
 Alpha  occ. eigenvalues --  -10.34416 -10.34245 -10.29387 -10.29326 -10.27480
 Alpha  occ. eigenvalues --  -10.26517 -10.26501 -10.23936 -10.23932 -10.23539
 Alpha  occ. eigenvalues --  -10.23537 -10.23477 -10.23476 -10.23407 -10.23402
 Alpha  occ. eigenvalues --  -10.23352 -10.23347 -10.23202 -10.23195  -1.13603
 Alpha  occ. eigenvalues --   -1.12718  -0.99232  -0.91530  -0.90936  -0.86944
 Alpha  occ. eigenvalues --   -0.86896  -0.80549  -0.79174  -0.75857  -0.75785
 Alpha  occ. eigenvalues --   -0.75510  -0.74403  -0.72293  -0.66897  -0.66043
 Alpha  occ. eigenvalues --   -0.64265  -0.61691  -0.61559  -0.59700  -0.59134
 Alpha  occ. eigenvalues --   -0.55554  -0.54501  -0.53859  -0.53303  -0.52104
 Alpha  occ. eigenvalues --   -0.51387  -0.50057  -0.48344  -0.47950  -0.46503
 Alpha  occ. eigenvalues --   -0.46229  -0.46129  -0.45842  -0.45650  -0.44160
 Alpha  occ. eigenvalues --   -0.43204  -0.42877  -0.42822  -0.42566  -0.41906
 Alpha  occ. eigenvalues --   -0.41581  -0.40301  -0.38729  -0.37778  -0.37377
 Alpha  occ. eigenvalues --   -0.37202  -0.37091  -0.35748  -0.35736  -0.34618
 Alpha  occ. eigenvalues --   -0.34536  -0.30819  -0.28544  -0.26303  -0.26238
 Alpha  occ. eigenvalues --   -0.25969  -0.25913  -0.24773  -0.23701  -0.22453
 Alpha virt. eigenvalues --   -0.00679  -0.00174  -0.00037   0.00004   0.03720
 Alpha virt. eigenvalues --    0.06794   0.07276   0.08559   0.08766   0.09276
 Alpha virt. eigenvalues --    0.09696   0.10165   0.10522   0.11229   0.12732
 Alpha virt. eigenvalues --    0.12869   0.13036   0.13483   0.13618   0.14236
 Alpha virt. eigenvalues --    0.14664   0.14900   0.15569   0.16418   0.16513
 Alpha virt. eigenvalues --    0.16777   0.18484   0.18582   0.18644   0.19005
 Alpha virt. eigenvalues --    0.21098   0.21515   0.22562   0.24666   0.25826
 Alpha virt. eigenvalues --    0.26337   0.27796   0.28520   0.30041   0.30237
 Alpha virt. eigenvalues --    0.31530   0.31586   0.31794   0.32543   0.34110
 Alpha virt. eigenvalues --    0.35597   0.36114   0.36283   0.37247   0.38530
 Alpha virt. eigenvalues --    0.39441   0.39794   0.40996   0.42260   0.42637
 Alpha virt. eigenvalues --    0.42876   0.43772   0.44101   0.44277   0.44767
 Alpha virt. eigenvalues --    0.45464   0.46497   0.47788   0.48027   0.49233
 Alpha virt. eigenvalues --    0.49787   0.50502   0.50784   0.51318   0.51371
 Alpha virt. eigenvalues --    0.51616   0.52908   0.53163   0.53191   0.53623
 Alpha virt. eigenvalues --    0.53786   0.55999   0.56037   0.56631   0.57333
 Alpha virt. eigenvalues --    0.58200   0.58567   0.59731   0.60175   0.60958
 Alpha virt. eigenvalues --    0.61762   0.62176   0.63195   0.63414   0.64110
 Alpha virt. eigenvalues --    0.64299   0.65377   0.65443   0.65844   0.66467
 Alpha virt. eigenvalues --    0.66624   0.66841   0.67036   0.67593   0.67784
 Alpha virt. eigenvalues --    0.67992   0.68416   0.68428   0.68711   0.69088
 Alpha virt. eigenvalues --    0.69466   0.69935   0.70686   0.71474   0.72649
 Alpha virt. eigenvalues --    0.73078   0.73336   0.73947   0.74177   0.74427
 Alpha virt. eigenvalues --    0.75961   0.76170   0.76465   0.76588   0.76831
 Alpha virt. eigenvalues --    0.76871   0.78180   0.78902   0.78999   0.82350
 Alpha virt. eigenvalues --    0.82769   0.83576   0.85784   0.86274   0.87134
 Alpha virt. eigenvalues --    0.87320   0.89211   0.90706   0.92213   0.93519
 Alpha virt. eigenvalues --    0.94460   0.94618   0.96066   0.97660   1.00629
 Alpha virt. eigenvalues --    1.00965   1.03888   1.05924   1.06909   1.07745
 Alpha virt. eigenvalues --    1.09189   1.10037   1.12489   1.13380   1.16004
 Alpha virt. eigenvalues --    1.16186   1.17608   1.19495   1.21394   1.21985
 Alpha virt. eigenvalues --    1.22353   1.23579   1.24582   1.25381   1.25806
 Alpha virt. eigenvalues --    1.26000   1.27628   1.28597   1.29302   1.29472
 Alpha virt. eigenvalues --    1.29968   1.30433   1.31098   1.31565   1.32571
 Alpha virt. eigenvalues --    1.33138   1.33935   1.35601   1.37445   1.39499
 Alpha virt. eigenvalues --    1.40825   1.44339   1.45477   1.48277   1.50768
 Alpha virt. eigenvalues --    1.52300   1.53248   1.55061   1.56349   1.57294
 Alpha virt. eigenvalues --    1.58587   1.58884   1.61981   1.62822   1.63671
 Alpha virt. eigenvalues --    1.64380   1.65933   1.66136   1.66950   1.69384
 Alpha virt. eigenvalues --    1.69473   1.71090   1.71320   1.72249   1.72845
 Alpha virt. eigenvalues --    1.73084   1.73725   1.74944   1.75056   1.76063
 Alpha virt. eigenvalues --    1.76628   1.76994   1.77042   1.77686   1.77989
 Alpha virt. eigenvalues --    1.78609   1.78781   1.79374   1.79777   1.80232
 Alpha virt. eigenvalues --    1.81404   1.82103   1.82799   1.83152   1.84138
 Alpha virt. eigenvalues --    1.85055   1.85252   1.87036   1.87732   1.88275
 Alpha virt. eigenvalues --    1.88778   1.89156   1.90640   1.91560   1.92552
 Alpha virt. eigenvalues --    1.93752   1.95895   1.96256   1.96438   1.96509
 Alpha virt. eigenvalues --    1.97017   1.98786   1.99356   1.99499   1.99606
 Alpha virt. eigenvalues --    2.01195   2.01539   2.02756   2.03454   2.05324
 Alpha virt. eigenvalues --    2.05725   2.06264   2.07620   2.08199   2.09038
 Alpha virt. eigenvalues --    2.10885   2.11683   2.12671   2.13914   2.15712
 Alpha virt. eigenvalues --    2.15860   2.16072   2.16288   2.16910   2.17692
 Alpha virt. eigenvalues --    2.18851   2.18980   2.25971   2.26386   2.29182
 Alpha virt. eigenvalues --    2.30236   2.30504   2.31066   2.31289   2.31575
 Alpha virt. eigenvalues --    2.32215   2.33523   2.33803   2.35956   2.36296
 Alpha virt. eigenvalues --    2.36397   2.37247   2.38980   2.39758   2.40896
 Alpha virt. eigenvalues --    2.43512   2.44001   2.46672   2.48385   2.50609
 Alpha virt. eigenvalues --    2.53572   2.54045   2.56992   2.57563   2.61542
 Alpha virt. eigenvalues --    2.62605   2.63097   2.64292   2.65335   2.65570
 Alpha virt. eigenvalues --    2.66567   2.66624   2.68167   2.69435   2.71002
 Alpha virt. eigenvalues --    2.73251   2.74988   2.74992   2.75111   2.75270
 Alpha virt. eigenvalues --    2.78742   2.80333   2.80999   2.82697   2.83895
 Alpha virt. eigenvalues --    2.85674   2.87231   2.88482   2.89685   2.89902
 Alpha virt. eigenvalues --    2.90791   2.90835   2.91262   2.92279   2.95291
 Alpha virt. eigenvalues --    2.96398   2.97630   2.98826   3.00424   3.02243
 Alpha virt. eigenvalues --    3.03785   3.04471   3.05365   3.07226   3.11023
 Alpha virt. eigenvalues --    3.11273   3.15340   3.15403   3.15559   3.19537
 Alpha virt. eigenvalues --    3.19941   3.27707   3.27962   3.29032   3.32566
 Alpha virt. eigenvalues --    3.40894   3.57289   3.62668   3.65814   3.65909
 Alpha virt. eigenvalues --    3.74252
     Molecular Orbital Coefficients:
                          81        82        83        84        85
                           O         O         O         O         O
     Eigenvalues --    -0.25969  -0.25913  -0.24773  -0.23701  -0.22453
   1 1   C  1S         -0.00044   0.00319  -0.00074  -0.00046  -0.00037
   2        2S          0.00146  -0.00828   0.00167   0.00079  -0.00019
   3        3S         -0.00207  -0.00750   0.00072   0.00523   0.00804
   4        4PX        -0.00982  -0.00425  -0.00307  -0.01395   0.04529
   5        4PY        -0.00401   0.02160  -0.00424   0.00020   0.00010
   6        4PZ         0.01451   0.00380   0.00120  -0.01887  -0.05381
   7        5PX         0.00370  -0.01222  -0.02280  -0.01970   0.00738
   8        5PY        -0.00332   0.01333  -0.00452   0.00342   0.00035
   9        5PZ         0.00427   0.00982   0.01706  -0.01862  -0.00781
  10        6D 0        0.00076   0.00060   0.00037  -0.00052  -0.00453
  11        6D+1       -0.00003  -0.00002   0.00007   0.00115  -0.00025
  12        6D-1        0.00179   0.00027   0.00002  -0.00227  -0.01240
  13        6D+2       -0.00062   0.00065  -0.00047   0.00022   0.00234
  14        6D-2       -0.00204  -0.00046  -0.00006  -0.00055   0.00973
  15 2   N  1S         -0.00162   0.00994   0.00130  -0.00041  -0.00084
  16        2S         -0.00312   0.01885   0.00182  -0.00062  -0.00184
  17        3S         -0.01343   0.08356   0.03041  -0.00505  -0.00221
  18        4PX        -0.04329  -0.00648   0.00204  -0.02341   0.19374
  19        4PY        -0.00467   0.02628  -0.00071   0.00143   0.00183
  20        4PZ         0.03352   0.00420  -0.00414  -0.05377  -0.24558
  21        5PX         0.04546   0.00956   0.00316   0.04421  -0.19076
  22        5PY         0.00531  -0.02844  -0.00498  -0.00110  -0.00243
  23        5PZ        -0.02490  -0.00440   0.00075   0.06283   0.22374
  24        6D 0       -0.00036   0.00228   0.00744  -0.00021  -0.00036
  25        6D+1       -0.00014   0.00112   0.00225  -0.00001  -0.00010
  26        6D-1        0.00070   0.00002  -0.00010  -0.00047   0.00132
  27        6D+2       -0.00004   0.00018  -0.00525  -0.00003   0.00036
  28        6D-2        0.00085   0.00001  -0.00005  -0.00054  -0.00094
  29 3   C  1S         -0.01299   0.00058  -0.00322   0.03061  -0.00446
  30        2S          0.03563  -0.00200   0.00749  -0.08252   0.01016
  31        3S          0.03040  -0.02450   0.02344   0.01923   0.01126
  32        4PX        -0.01090   0.02679   0.10911   0.02912   0.05271
  33        4PY        -0.04411   0.00969  -0.01934   0.06656  -0.00794
  34        4PZ         0.01374  -0.04361  -0.15315   0.00873  -0.07902
  35        5PX        -0.00270  -0.00628   0.04967   0.09420   0.02697
  36        5PY         0.00246   0.00141  -0.02362  -0.02084  -0.01710
  37        5PZ         0.01495  -0.04020  -0.10337   0.07073  -0.07795
  38        6D 0        0.00023  -0.00303  -0.00559   0.00146   0.00968
  39        6D+1       -0.00156   0.00022  -0.00155   0.00094   0.00396
  40        6D-1       -0.00760   0.01094   0.01850  -0.01288   0.02735
  41        6D+2       -0.00025   0.00308   0.00274  -0.00281  -0.00641
  42        6D-2        0.00520  -0.00082  -0.01238  -0.02059  -0.01565
  43 4   N  1S         -0.03241   0.00495  -0.01105   0.08068  -0.01219
  44        2S         -0.06982   0.01215  -0.02078   0.16980  -0.02478
  45        3S         -0.10341   0.01902  -0.07247   0.21948  -0.05663
  46        4PX         0.03388   0.00354  -0.14695  -0.23115  -0.14975
  47        4PY        -0.08055   0.00381  -0.01423   0.23479  -0.01745
  48        4PZ        -0.07817   0.12204   0.21347  -0.15184   0.27356
  49        5PX        -0.02107   0.00499   0.11545   0.13357   0.12986
  50        5PY         0.04729   0.00496   0.00382  -0.16681   0.00858
  51        5PZ         0.06666  -0.08577  -0.14880   0.08708  -0.21144
  52        6D 0       -0.00273   0.00119   0.00350   0.00512   0.00467
  53        6D+1       -0.00153   0.00266  -0.00026  -0.00942   0.00185
  54        6D-1        0.00223  -0.00558  -0.01340   0.00771  -0.01330
  55        6D+2       -0.00263   0.00051  -0.00207   0.00170  -0.00213
  56        6D-2       -0.00266   0.00102   0.00930   0.01281   0.00730
  57 5   C  1S         -0.00961   0.00204  -0.00043   0.02586  -0.00317
  58        2S          0.01352   0.00177   0.00668  -0.05876   0.01635
  59        3S          0.10745  -0.05009  -0.06410  -0.18832  -0.07687
  60        4PX         0.01919   0.00365  -0.04220  -0.12061  -0.02984
  61        4PY        -0.01505  -0.00219  -0.01860   0.02550  -0.00559
  62        4PZ        -0.05668   0.06775   0.06389  -0.06875   0.06454
  63        5PX        -0.00644   0.01950   0.04789  -0.01454   0.04475
  64        5PY         0.01590   0.00031  -0.00248  -0.07950  -0.00867
  65        5PZ        -0.00641   0.01146   0.00145  -0.03163  -0.00062
  66        6D 0        0.00969  -0.00774  -0.00282   0.00262  -0.00764
  67        6D+1       -0.00115  -0.00047  -0.01020  -0.00080  -0.01030
  68        6D-1        0.00220  -0.00004  -0.00518  -0.01139  -0.00510
  69        6D+2       -0.01092   0.00946   0.00509  -0.00244   0.00832
  70        6D-2       -0.00310   0.00581   0.00245  -0.01463   0.00367
  71 6   H  1S          0.08416  -0.06019  -0.05337  -0.04362  -0.06627
  72        2S          0.04439  -0.03629  -0.03896  -0.02344  -0.05341
  73        3PX        -0.00006   0.00020  -0.00019  -0.00145   0.00087
  74        3PY         0.00285  -0.00258  -0.00221   0.00049  -0.00220
  75        3PZ         0.00039   0.00034   0.00007  -0.00320   0.00040
  76 7   C  1S         -0.00276   0.00906   0.00334  -0.02550   0.00498
  77        2S          0.00604  -0.02304  -0.01296   0.06143  -0.01711
  78        3S         -0.02102  -0.01876   0.02281   0.18833   0.03261
  79        4PX        -0.03181   0.02379   0.01660   0.02459  -0.00061
  80        4PY        -0.01992   0.03568   0.01018  -0.09493   0.02496
  81        4PZ         0.02629  -0.04519  -0.04257   0.05391  -0.01940
  82        5PX        -0.01254   0.00736  -0.00887   0.00368   0.01009
  83        5PY         0.00199   0.01997   0.00305  -0.11600   0.01190
  84        5PZ        -0.00175  -0.01164   0.00104   0.05958   0.00744
  85        6D 0       -0.00435   0.00553   0.00925   0.00079   0.00264
  86        6D+1        0.00093  -0.00149  -0.00270   0.00027  -0.00129
  87        6D-1        0.00036   0.00037   0.00269   0.00111  -0.00033
  88        6D+2       -0.00096   0.00058  -0.00099  -0.00172   0.00166
  89        6D-2       -0.00137  -0.00107  -0.00366   0.00595  -0.00159
  90 8   O  1S          0.00069  -0.00176   0.00001   0.01165  -0.00296
  91        2S          0.00090  -0.00375   0.00072   0.02552  -0.00419
  92        3S          0.00222  -0.01421  -0.01270   0.07832  -0.03366
  93        4PX         0.04292  -0.07826  -0.15022   0.03806  -0.05873
  94        4PY         0.02578   0.00457   0.00525  -0.10398   0.01577
  95        4PZ        -0.05642   0.08254   0.18004   0.02792   0.06785
  96        5PX         0.03098  -0.06149  -0.12397   0.04058  -0.05098
  97        5PY         0.01878   0.00421   0.00927  -0.08275   0.02051
  98        5PZ        -0.04842   0.06730   0.15047   0.02665   0.06825
  99        6D 0       -0.00092   0.00087  -0.00102  -0.00180   0.00020
 100        6D+1       -0.00080   0.00063  -0.00049  -0.00072   0.00016
 101        6D-1        0.00062  -0.00177  -0.00298   0.00137  -0.00029
 102        6D+2        0.00076  -0.00005   0.00057  -0.00232   0.00059
 103        6D-2       -0.00079   0.00089   0.00197   0.00086  -0.00039
 104 9   C  1S          0.00955  -0.01107  -0.02157   0.00167  -0.02368
 105        2S         -0.01810   0.02629   0.05833  -0.01476   0.06517
 106        3S         -0.07585   0.05265   0.06341   0.07964   0.07004
 107        4PX         0.13717  -0.08141   0.14490   0.03092   0.11140
 108        4PY         0.00381   0.00625   0.04411  -0.00247   0.03685
 109        4PZ         0.21305  -0.15842   0.02145   0.02811  -0.01544
 110        5PX         0.08310  -0.04402   0.13115   0.03183   0.09934
 111        5PY        -0.03188   0.00413   0.02035   0.10168   0.04237
 112        5PZ         0.16204  -0.12720  -0.02849   0.01546  -0.05665
 113        6D 0        0.00351  -0.00320   0.00344   0.00346   0.00284
 114        6D+1        0.00070  -0.00103  -0.00320   0.00073  -0.00318
 115        6D-1       -0.00309   0.00037  -0.00270  -0.00159  -0.00258
 116        6D+2       -0.00141   0.00227  -0.00060  -0.00226  -0.00110
 117        6D-2       -0.00574   0.00273   0.00060  -0.00033   0.00060
 118 10  C  1S         -0.00261   0.00204   0.00314   0.00163   0.00333
 119        2S          0.00522  -0.00280  -0.00020  -0.00506  -0.00136
 120        3S          0.02570  -0.01030  -0.03475  -0.06501  -0.03281
 121        4PX         0.04889  -0.06331   0.03002   0.02990   0.02112
 122        4PY        -0.00234  -0.00276   0.00506   0.01070   0.00787
 123        4PZ         0.02454  -0.04280   0.06718   0.04210   0.05452
 124        5PX         0.04378  -0.03872   0.04897  -0.01245   0.02490
 125        5PY        -0.00089  -0.01342  -0.03027   0.02880  -0.01792
 126        5PZ         0.01010  -0.03495   0.02665   0.05980   0.03122
 127        6D 0       -0.01324   0.00808  -0.00303  -0.00091  -0.00055
 128        6D+1        0.00163  -0.00162  -0.00172   0.00072  -0.00182
 129        6D-1       -0.00357   0.00288  -0.00218  -0.00141  -0.00174
 130        6D+2        0.00661  -0.00322   0.00540   0.00008   0.00373
 131        6D-2       -0.00248   0.00211  -0.00151  -0.00057  -0.00098
 132 11  C  1S          0.00259  -0.00239  -0.00449  -0.00068  -0.00461
 133        2S         -0.00588   0.00552   0.00924  -0.00018   0.00931
 134        3S          0.00397   0.00319   0.03045  -0.00352   0.02174
 135        4PX        -0.14582   0.07699  -0.01892   0.00067   0.00264
 136        4PY        -0.01885   0.01195   0.00428  -0.00068   0.00526
 137        4PZ        -0.13005   0.05927  -0.05484  -0.00413  -0.02884
 138        5PX        -0.09972   0.05395  -0.00477  -0.00198   0.00850
 139        5PY        -0.01187   0.01442   0.02083  -0.01878   0.01296
 140        5PZ        -0.09540   0.04121  -0.05002   0.00254  -0.02586
 141        6D 0       -0.00374   0.00402  -0.00341  -0.00246  -0.00267
 142        6D+1       -0.00081   0.00054  -0.00041  -0.00021  -0.00008
 143        6D-1        0.00770  -0.00572   0.00288   0.00164   0.00144
 144        6D+2        0.00065  -0.00117   0.00106   0.00086   0.00078
 145        6D-2        0.00668  -0.00495   0.00477   0.00242   0.00329
 146 12  C  1S          0.00121  -0.00094  -0.00048  -0.00002  -0.00087
 147        2S         -0.00275   0.00231   0.00096  -0.00093   0.00169
 148        3S         -0.01265   0.00942   0.00895   0.00480   0.01188
 149        4PX        -0.16557   0.11508  -0.08250  -0.03933  -0.04778
 150        4PY        -0.01893   0.01185  -0.01367  -0.00280  -0.00795
 151        4PZ        -0.17354   0.12204  -0.07887  -0.03953  -0.04598
 152        5PX        -0.12188   0.08258  -0.06395  -0.02096  -0.03830
 153        5PY        -0.01415   0.01301   0.00117  -0.01071  -0.00293
 154        5PZ        -0.11925   0.08561  -0.05538  -0.03544  -0.03535
 155        6D 0        0.00310  -0.00259   0.00233   0.00109   0.00124
 156        6D+1        0.00071  -0.00036  -0.00046  -0.00018  -0.00035
 157        6D-1       -0.00433   0.00107  -0.00093   0.00073  -0.00032
 158        6D+2       -0.00125   0.00179  -0.00022  -0.00071  -0.00001
 159        6D-2       -0.00522   0.00206  -0.00009   0.00062   0.00039
 160 13  C  1S          0.00130  -0.00192  -0.00409   0.00018  -0.00376
 161        2S         -0.00371   0.00462   0.00826   0.00080   0.00746
 162        3S          0.02506  -0.00601   0.01195  -0.04764   0.00881
 163        4PX        -0.03360   0.05414  -0.01794  -0.02828  -0.00625
 164        4PY        -0.00926   0.01292   0.00517  -0.00539   0.00510
 165        4PZ        -0.02138   0.03937  -0.05091  -0.03002  -0.03307
 166        5PX        -0.01692   0.03356  -0.01769  -0.02854  -0.00262
 167        5PY         0.00476   0.00558   0.00641  -0.02324   0.00388
 168        5PZ        -0.01917   0.03139  -0.03070  -0.01783  -0.02510
 169        6D 0       -0.01284   0.00775  -0.00476  -0.00207  -0.00293
 170        6D+1        0.00111  -0.00101  -0.00018   0.00065  -0.00026
 171        6D-1       -0.00414   0.00332  -0.00137  -0.00106  -0.00047
 172        6D+2        0.00720  -0.00413   0.00438   0.00127   0.00301
 173        6D-2       -0.00123   0.00129  -0.00143  -0.00071  -0.00093
 174 14  C  1S         -0.00067   0.00145   0.00338  -0.00027   0.00198
 175        2S          0.00294  -0.00328  -0.00372   0.00024   0.00078
 176        3S         -0.04215   0.00536  -0.01720   0.08902  -0.00124
 177        4PX         0.14101  -0.07446   0.03938   0.01333   0.02646
 178        4PY         0.03357  -0.02632  -0.01594   0.00767  -0.01425
 179        4PZ         0.14110  -0.06716   0.06457   0.01425   0.04277
 180        5PX         0.10582  -0.05742   0.01826   0.00072   0.01294
 181        5PY         0.01093  -0.01658  -0.00838   0.03679   0.00269
 182        5PZ         0.08834  -0.04163   0.05423   0.02850   0.03715
 183        6D 0       -0.00371   0.00418  -0.00162  -0.00196  -0.00054
 184        6D+1       -0.00060   0.00014  -0.00141  -0.00012  -0.00117
 185        6D-1        0.00825  -0.00612   0.00201   0.00114   0.00038
 186        6D+2       -0.00062  -0.00003   0.00150   0.00059   0.00092
 187        6D-2        0.00612  -0.00429   0.00590   0.00230   0.00445
 188 15  N  1S          0.02922   0.01599  -0.01188  -0.08065   0.01261
 189        2S          0.06258   0.03576  -0.02263  -0.17038   0.02540
 190        3S          0.08990   0.05497  -0.07241  -0.21378   0.06096
 191        4PX         0.03218   0.00783   0.14311  -0.23026  -0.15515
 192        4PY         0.07626   0.03358  -0.01334  -0.23254   0.01287
 193        4PZ        -0.02818  -0.13704  -0.20960  -0.15387   0.27624
 194        5PX        -0.01747  -0.01175  -0.11329   0.13221   0.13453
 195        5PY        -0.04838  -0.01249   0.00459   0.16833  -0.00520
 196        5PZ         0.03086   0.09939   0.14382   0.08789  -0.21107
 197        6D 0        0.00218   0.00222   0.00366  -0.00479  -0.00508
 198        6D+1        0.00046   0.00293  -0.00044   0.00971  -0.00150
 199        6D-1       -0.00006   0.00568   0.01298   0.00776  -0.01332
 200        6D+2        0.00238   0.00143  -0.00180  -0.00182   0.00190
 201        6D-2       -0.00203  -0.00186  -0.00917   0.01266   0.00760
 202 16  C  1S          0.01238   0.00474  -0.00407  -0.03029   0.00380
 203        2S         -0.03346  -0.01356   0.00935   0.08083  -0.00833
 204        3S         -0.01962  -0.03601   0.01862  -0.02112  -0.01446
 205        4PX         0.00039  -0.02887  -0.10955   0.03183   0.05339
 206        4PY         0.03858   0.02397  -0.02247  -0.06520   0.01094
 207        4PZ        -0.00289   0.04265   0.14760   0.00432  -0.08021
 208        5PX        -0.00389   0.00523  -0.04828   0.09083   0.03031
 209        5PY        -0.00477   0.00112  -0.02220   0.02556   0.01730
 210        5PZ        -0.00033   0.04336   0.10500   0.06721  -0.08108
 211        6D 0        0.00073  -0.00340  -0.00654  -0.00154  -0.00845
 212        6D+1        0.00146   0.00087  -0.00128  -0.00086  -0.00396
 213        6D-1       -0.00317  -0.01241  -0.01787  -0.01277   0.02752
 214        6D+2       -0.00094   0.00289   0.00267   0.00307   0.00644
 215        6D-2        0.00466   0.00250   0.01199  -0.02055  -0.01641
 216 17  O  1S         -0.00008  -0.00181  -0.00034  -0.01181   0.00206
 217        2S          0.00038  -0.00370  -0.00010  -0.02611   0.00221
 218        3S          0.00337  -0.01348  -0.01419  -0.07768   0.03076
 219        4PX         0.01380   0.08907   0.15376   0.03287  -0.06762
 220        4PY        -0.02605  -0.00179   0.01070   0.10196  -0.01924
 221        4PZ        -0.02518  -0.09463  -0.17714   0.03417   0.07823
 222        5PX         0.00854   0.06903   0.12706   0.03473  -0.05899
 223        5PY        -0.01992  -0.00050   0.01325   0.08271  -0.02281
 224        5PZ        -0.02217  -0.07775  -0.14760   0.03076   0.07435
 225        6D 0        0.00056   0.00124  -0.00085   0.00186  -0.00026
 226        6D+1        0.00050   0.00080  -0.00049   0.00076  -0.00005
 227        6D-1        0.00003   0.00190   0.00308   0.00117  -0.00084
 228        6D+2       -0.00076  -0.00026   0.00069   0.00230  -0.00066
 229        6D-2       -0.00053  -0.00121  -0.00211   0.00089  -0.00008
 230 18  C  1S         -0.00064   0.00927   0.00363   0.02516  -0.00554
 231        2S          0.00271  -0.02297  -0.01317  -0.06061   0.01829
 232        3S          0.02411  -0.01239   0.01514  -0.18413  -0.02369
 233        4PX        -0.02205  -0.03460  -0.01805   0.02339   0.00008
 234        4PY         0.00560   0.03821   0.01097   0.09508  -0.02350
 235        4PZ         0.00888   0.05115   0.04357   0.05397  -0.02318
 236        5PX        -0.00824  -0.01070   0.01030   0.00061   0.00560
 237        5PY        -0.00877   0.01768   0.00637   0.11472  -0.01342
 238        5PZ        -0.00533   0.01081   0.00121   0.05945   0.00584
 239        6D 0        0.00222   0.00658   0.00914  -0.00092  -0.00321
 240        6D+1       -0.00041  -0.00182  -0.00283   0.00000   0.00150
 241        6D-1        0.00040  -0.00040  -0.00291   0.00117  -0.00009
 242        6D+2        0.00073   0.00075  -0.00117   0.00173  -0.00147
 243        6D-2       -0.00163   0.00051   0.00373   0.00577  -0.00194
 244 19  C  1S          0.00853   0.00521  -0.00075  -0.02587   0.00312
 245        2S         -0.01384  -0.00329   0.00683   0.05842  -0.01545
 246        3S         -0.08247  -0.07944  -0.05358   0.19022   0.06760
 247        4PX         0.01953   0.00371   0.04045  -0.12085  -0.03085
[...]
 4,0.00377242,0.00000135,0.00001152,0.00000066,-0.00000019,0.00000167,0
 .00000375,0.00000295,-0.00000194,0.00000141,-0.00000023,-0.00000295,-0
 .00000277,-0.00000333,0.00000015,-0.00000363,0.00000125,-0.00000286,0.
 00000041,0.00000255,-0.00000160,-0.00000040,0.00000278,-0.00000038,-0.
 00000149,-0.00000354,0.00000008,0.00000351,-0.00000822,-0.00000492,-0.
 00000724,-0.00000465,-0.00002647,-0.00000928,0.00000727,0.00002203,0.0
 0001557,-0.09904319,-0.08819280,0.10434419,-0.00000801,-0.00000999,-0.
 00000875,-0.00013253,0.00002125,-0.00009487,0.00010185,0.00012148,0.00
 008023,-0.00002038,-0.00008503,-0.00003993,0.00000397,0.00002300,0.000
 01622,-0.00000981,-0.00000494,-0.00000881,0.00000366,0.00001165,0.0000
 0807,-0.00002617,-0.00003117,-0.00001690,0.00000161,-0.00000293,-0.000
 01090,-0.00000120,-0.00000132,0.00000007,0.00000232,-0.00000162,-0.000
 00200,-0.00000109,-0.00000177,0.00000108,0.00000344,-0.00000345,-0.000
 00036,-0.00000965,0.00001118,0.00000896,-0.00008571,0.00011937,-0.0000
 6792,0.00011520,-0.00012347,0.00007710,-0.00008562,0.00008610,-0.00004
 847,-0.00020606,0.00002671,0.00022795,0.00038418,0.00083327,0.00010988
 ,0.00001422,-0.00000861,-0.00000914,0.00088537,0.00060458,0.00624637,0
 .00320387,0.02054737,0.00368960,-0.05047462,0.01953577,0.01427152,0.00
 563366,-0.01790423,-0.00412738,0.00154353,-0.00277458,0.00517563,-0.00
 121760,-0.00026864,0.00019271,-0.00000030,0.00000576,0.00000018,0.0000
 0195,-0.00000096,0.00000467,0.00000455,-0.00000117,-0.00000061,-0.0000
 0068,-0.00000003,-0.00000293,-0.00000241,-0.00000016,-0.00000319,0.000
 00109,-0.00000205,0.00000023,0.00000129,-0.00000108,-0.00000034,0.0000
 0089,0.,-0.00000088,-0.00000346,-0.00000094,0.00000212,-0.00000271,-0.
 00000040,-0.00000364,-0.00000817,0.00007795,0.00005351,-0.00002931,-0.
 00001423,0.00000214,-0.00138548,0.00014409,-0.00270587,0.04357151,0.00
 000527,0.00002628,0.00001773,0.00018727,-0.00005048,0.00014116,-0.0001
 5803,-0.00012693,-0.00011751,0.00004559,0.00009102,0.00004519,-0.00002
 032,-0.00002566,-0.00001835,0.00000883,0.00000701,0.00000723,-0.000012
 66,-0.00001846,-0.00001926,0.00006213,0.00001830,0.00004194,-0.0000019
 5,-0.00000053,0.00001422,0.00000448,0.00000198,-0.00000140,-0.00000211
 ,0.00000208,0.00000279,0.00000210,0.00000192,-0.00000092,-0.00000107,0
 .00000036,0.00000126,0.00000908,-0.00000609,-0.00000560,0.00015244,-0.
 00018264,0.00003402,-0.00014439,0.00025217,-0.00010922,0.00005380,-0.0
 0009294,0.00001088,0.00010800,0.00004849,-0.00009108,-0.00043950,-0.00
 027626,0.00012292,0.00002208,-0.00000519,0.00000144,0.00091700,0.00156
 695,-0.00173458,-0.00188920,-0.00516286,0.00061724,0.01992001,-0.33213
 985,-0.05903453,0.00449792,-0.01389708,-0.00671500,-0.00340913,-0.0006
 6261,0.00216071,-0.00011302,0.00080115,0.00036505,0.00000076,-0.000007
 15,0.00000015,-0.00000387,0.00000220,-0.00000588,-0.00000486,-0.000000
 03,-0.00000330,0.00000391,-0.00000202,0.00000334,0.00000151,0.00000221
 ,0.00000481,-0.00000353,0.00000203,-0.00000011,-0.00000068,-0.00000026
 ,-0.00000089,-0.00000009,0.00000034,-0.00000091,0.00000088,0.00000138,
 -0.00000225,-0.00000073,-0.00000142,-0.00000002,0.00000937,-0.00005160
 ,-0.00002748,0.00000216,0.00001313,0.00002470,0.00032887,0.00069926,0.
 00032116,-0.02079857,0.34919564,0.00000961,0.00003188,0.00000665,0.000
 10190,-0.00004716,0.00009440,-0.00007893,-0.00005007,-0.00005504,0.000
 03305,0.00003831,0.00000554,-0.00001675,-0.00000832,0.00000327,0.00000
 036,0.00000048,0.00000195,-0.00000649,-0.00000565,-0.00000470,0.000035
 24,-0.00000367,0.00002178,-0.00000585,-0.00000617,0.00000676,0.0000041
 2,0.00000306,-0.00000331,-0.00000106,0.00000105,0.00000104,0.00000206,
 0.00000165,-0.00000301,-0.00000147,-0.00000336,-0.00000022,0.00000302,
 0.00000123,-0.00000438,0.00009249,-0.00001500,0.00001732,-0.00005057,0
 .00021478,-0.00005167,-0.00002317,-0.00006635,0.00003228,0.00020827,0.
 00014940,-0.00014843,-0.00037407,-0.00102531,-0.00001510,0.00000198,0.
 00004495,-0.00002736,0.00657678,-0.00107510,0.00123727,0.00096437,-0.0
 2147117,0.00038832,0.01393985,-0.05902275,-0.05995617,-0.00100828,0.01
 517970,0.00683809,0.00511169,0.00158024,0.00251770,0.00001449,0.000365
 60,-0.00098602,0.00000106,-0.00000388,0.00000145,-0.00000248,-0.000002
 44,-0.00000337,-0.00000330,-0.00000360,-0.00000349,0.00000299,-0.00000
 223,0.00000135,0.00000049,0.00000409,0.00000007,-0.00000262,0.00000173
 ,0.00000094,0.00000063,-0.00000044,-0.00000070,0.00000153,0.00000015,-
 0.00000077,0.00000208,0.00000224,-0.00000025,-0.00000071,-0.00000298,0
 .00000343,-0.00002099,-0.00008732,-0.00004114,-0.00005647,-0.00000015,
 0.00002926,-0.00252036,0.00069704,-0.00175834,-0.01980463,0.06384381,0
 .05388573,-0.00000827,-0.00002126,-0.00000973,-0.00012420,0.00004038,-
 0.00009938,0.00009996,0.00006610,0.00008315,-0.00002381,-0.00004600,-0
 .00003539,0.00001226,0.00001291,0.00001650,-0.00000547,-0.00000625,-0.
 00000281,0.00000670,0.00001363,0.00002094,-0.00004631,-0.00000185,-0.0
 0003757,-0.00000252,-0.00000106,-0.00000768,-0.00000171,-0.00000062,-0
 .00000087,0.00000056,-0.00000083,-0.00000162,-0.00000081,-0.00000059,-
 0.00000081,-0.00000050,0.00000010,-0.00000166,-0.00000400,0.00000238,-
 0.00000005,-0.00015805,0.00018118,0.00000913,0.00008925,-0.00016931,0.
 00005571,-0.00001153,0.00006063,0.00001290,-0.00000187,-0.00002413,0.0
 0004128,-0.00040612,0.00005140,-0.00036981,0.00005527,0.00005779,-0.00
 005901,-0.00016043,-0.00058408,-0.00085765,0.00227418,-0.00346331,0.00
 432434,-0.00676461,0.00828585,0.01094158,-0.17513982,0.05857768,0.1398
 6692,0.00195057,-0.00188240,0.00127851,0.00433580,0.00011004,0.0028110
 4,-0.00000230,0.00000537,0.00000099,0.00000559,0.00000061,0.00000572,0
 .00000447,0.00000114,0.00000049,-0.00000226,0.00000105,-0.00000284,-0.
 00000140,-0.00000052,-0.00000638,0.00000168,-0.00000026,0.00000101,0.0
 0000077,0.00000016,0.00000067,0.00000070,-0.00000003,0.00000075,0.0000
 0095,0.00000009,0.00000153,0.00000185,0.00000056,0.00000274,-0.0000233
 5,0.00001289,0.00000517,-0.00001955,-0.00002201,-0.00000909,-0.0003065
 6,0.00034544,0.00056979,-0.00149832,0.00034724,-0.00256865,0.17746207,
 -0.00000194,0.00000742,0.00000662,0.00006308,0.00000198,0.00004837,-0.
 00005804,-0.00004034,-0.00004254,0.00001649,0.00002681,0.00001510,-0.0
 0000638,-0.00000373,-0.00000418,0.00000231,0.00000223,0.00000149,-0.00
 000409,-0.00000571,-0.00001010,0.00002413,0.00000319,0.00001916,0.0000
 0056,-0.00000143,0.00000404,0.00000148,0.00000055,-0.00000036,-0.00000
 040,0.00000040,0.00000078,0.00000063,0.00000025,-0.00000030,-0.0000000
 6,0.,-0.00000026,0.00000093,-0.00000062,-0.00000074,0.00003611,0.00003
 732,0.00000155,-0.00016087,-0.00003296,-0.00007229,0.00011748,0.000073
 53,-0.00002434,-0.00007248,-0.00001552,0.00001833,0.00005812,0.0000561
 7,0.00002410,0.00004864,-0.00000140,-0.00006385,-0.00046825,-0.0011277
 4,0.00052185,-0.00290829,-0.00219977,0.00151639,-0.01439350,0.01020018
 ,0.01474592,0.05857747,-0.08615574,-0.06248050,0.02088476,-0.00360006,
 -0.02095236,-0.00056937,-0.00536955,-0.00097631,0.00000304,-0.00000055
 ,-0.00000118,-0.00000450,0.00000608,-0.00000613,-0.00000279,0.00000112
 ,-0.00000091,0.00000161,-0.00000044,0.00000130,0.00000064,0.00000153,0
 .00000264,-0.00000112,0.00000026,-0.00000020,-0.00000009,-0.00000021,-
 0.00000044,0.00000003,0.00000018,-0.00000032,0.00000001,0.00000036,-0.
 00000017,-0.00000001,0.00000006,0.00000039,0.00004016,0.00000782,0.000
 00036,0.00002908,0.00003606,0.00005957,-0.00067561,0.00033755,0.000706
 75,0.00067710,0.00082428,0.00000786,-0.06224792,0.08622009,-0.00000139
 ,0.00001732,0.00000574,0.00006026,-0.00001704,0.00003159,-0.00005600,-
 0.00000898,-0.00003387,0.00003028,0.00001156,0.00000396,-0.00001690,-0
 .00000662,-0.00000074,-0.00000064,0.00000120,0.00000020,-0.00000778,-0
 .00000596,-0.00000685,0.00003280,-0.00000876,0.00002198,-0.00000300,-0
 .00000371,0.00000485,0.00000362,0.00000183,-0.00000195,-0.00000037,0.0
 0000102,0.00000118,0.00000149,0.00000070,-0.00000065,0.00000088,-0.000
 00280,0.00000115,0.00000223,0.00000246,-0.00000023,-0.00007274,0.00002
 447,0.00005947,-0.00012438,0.00005899,-0.00006802,0.00004741,-0.000046
 31,0.00001508,0.00000870,-0.00000539,0.00006334,-0.00053837,0.00004104
 ,-0.00047093,0.00004324,0.00007139,-0.00000594,-0.00066683,0.00034939,
 -0.00014586,0.00434554,0.00223877,0.00338470,0.00825436,-0.00700146,-0
 .00531916,0.13995235,-0.06261219,-0.17998337,0.00401328,0.00085814,-0.
 00023809,0.00263363,-0.00157102,0.00442823,0.00000090,-0.00000059,0.00
 000085,-0.00000078,0.00000334,-0.00000235,-0.00000133,-0.00000081,-0.0
 0000385,0.00000311,-0.00000222,0.00000042,-0.00000068,0.00000270,0.000
 00047,-0.00000263,0.00000075,0.00000044,0.00000048,-0.00000092,-0.0000
 0111,0.00000072,0.00000031,-0.00000145,-0.00000091,0.00000089,-0.00000
 074,-0.00000247,-0.00000273,-0.00000146,-0.00000168,-0.00000253,-0.000
 01258,-0.00001117,-0.00000783,0.00002328,0.00045857,-0.00036319,-0.000
 33068,-0.00254770,0.00036762,-0.00173778,-0.15368656,0.06736186,0.1822
 0826,-0.00003394,-0.00006979,-0.00000509,-0.00016825,0.00011974,-0.000
 17770,0.00009979,0.00004290,0.00010476,-0.00001511,-0.00003159,-0.0000
 4199,0.00000704,0.00000584,0.00001299,-0.00000415,-0.00000457,-0.00000
 143,-0.00000253,0.00000757,0.00002068,-0.00004996,0.00002450,-0.000047
 61,-0.00000477,0.00000084,-0.00000495,-0.00000076,-0.00000164,-0.00000
 141,-0.00000005,0.,-0.00000114,-0.00000020,0.00000020,-0.00000129,-0.0
 0000068,0.00000092,-0.00000128,-0.00000068,0.00000065,-0.00000222,-0.0
 0014807,0.00029911,-0.00008996,0.00009764,-0.00044423,0.00014315,0.000
 01534,0.00015991,-0.00001350,-0.00002435,-0.00016162,-0.00004773,0.000
 08071,-0.00087282,0.00044804,-0.00029799,0.00011976,0.00018067,0.00145
 587,0.00174060,0.00569270,-0.00045848,0.00087817,-0.00042049,0.0041953
 3,0.00049918,0.00301868,0.00518685,0.00396482,-0.00093225,-0.14304522,
 -0.11084418,0.08865419,-0.00642981,-0.01516010,0.00812169,-0.00000684,
 0.00000951,0.00000040,0.00000734,0.00001771,0.00001405,0.00001251,0.00
 001022,-0.00000049,-0.00000170,0.00000070,-0.00000339,-0.00000281,-0.0
 0000231,-0.00000922,0.00000073,0.00000064,0.00000137,0.00000049,0.0000
 0003,0.00000070,0.00000077,0.00000008,0.00000050,0.00000131,0.00000067
 ,0.00000065,0.00000123,0.00000024,0.00000253,0.00000918,0.00003940,0.0
 0001692,0.00006249,-0.00001901,-0.00002458,-0.00050103,0.00002745,-0.0
 0051764,0.00020060,0.00021138,0.00001794,-0.00166821,0.00005661,-0.002
 44021,0.14296570,0.00000616,0.00000013,-0.00000761,-0.00004860,0.00000
 493,-0.00004155,0.00005239,0.00002262,0.00004031,-0.00001895,-0.000017
 21,-0.00001289,0.00001020,0.00000348,0.00000426,-0.00000098,-0.0000025
 7,-0.00000013,0.00000620,0.00000682,0.00001232,-0.00002795,0.00000174,
 -0.00002156,-0.00000038,0.00000166,-0.00000368,-0.00000198,-0.00000046
 ,0.00000037,0.00000006,-0.00000051,-0.00000082,-0.00000076,-0.00000021
 ,-0.00000013,-0.00000095,0.00000114,-0.00000059,-0.00000073,-0.0000013
 9,-0.00000097,-0.00006909,0.00003303,0.00000825,0.00008323,-0.00002832
 ,0.00007056,-0.00005475,-0.00002245,0.00001185,-0.00001832,0.00003878,
 0.00000877,0.00031017,0.00035262,-0.00031697,0.00008891,-0.00002053,-0
 .00008740,0.00148255,0.00057840,-0.00203958,0.00077505,-0.00032907,-0.
 00069982,0.00113178,-0.00493307,-0.00252969,-0.01854903,-0.01318291,0.
 01595494,-0.11106596,-0.18545832,0.09005329,0.00719823,0.00959850,-0.0
 0635904,-0.00000123,0.00000078,0.00000107,0.00000321,-0.00000447,0.000
 00412,0.00000057,-0.00000110,0.00000162,-0.00000204,0.00000110,-0.0000
 0114,-0.00000019,-0.00000132,-0.00000270,0.00000158,-0.00000009,0.0000
 0026,-0.00000002,0.00000061,0.00000073,-0.00000013,-0.00000021,0.00000
 093,0.00000110,-0.00000025,0.00000043,0.00000164,0.00000090,0.00000159
 ,-0.00001519,0.00000077,0.00000496,-0.00002534,-0.00001100,-0.00001572
 ,0.00000227,0.00001988,0.00012135,-0.00089241,-0.00077464,0.00072088,0
 .00041014,0.00107440,0.00022819,0.11912524,0.19224510,0.00001630,0.000
 05380,0.00001130,0.00011639,-0.00008584,0.00007652,-0.00007700,-0.0000
 3345,-0.00005742,0.00003030,0.00002652,0.00000799,-0.00001604,-0.00000
 887,-0.00000165,0.00000078,0.00000105,0.00000168,-0.00000627,-0.000005
 36,-0.00000396,0.00003759,-0.00001254,0.00002474,-0.00000323,-0.000004
 06,0.00000608,0.00000375,0.00000234,-0.00000241,-0.00000095,0.00000104
 ,0.00000139,0.00000158,0.00000076,-0.00000099,0.00000032,-0.00000199,0
 .00000067,0.00000287,0.00000081,-0.00000156,0.00001503,-0.00019291,-0.
 00001612,-0.00003005,0.00030985,0.00003133,-0.00012574,-0.00017928,-0.
 00001600,0.00000122,0.00004143,-0.00003607,0.00012528,0.00107087,-0.00
 009953,0.00015522,-0.00002330,-0.00019668,0.00591347,-0.00289356,0.001
 54727,-0.00047942,-0.00062477,-0.00056155,0.00303664,-0.00188192,0.003
 99525,-0.00350337,-0.00594824,0.00651043,0.08840940,0.09012408,-0.1128
 2651,0.01102913,0.01529828,-0.00511473,0.00000078,-0.00000599,0.000002
 75,-0.00000195,-0.00000618,0.00000148,-0.00000265,-0.00000537,-0.00000
 469,0.00000321,-0.00000206,0.00000060,-0.00000023,0.00000329,0.0000006
 9,-0.00000258,0.00000093,0.00000077,0.00000068,-0.00000073,-0.00000107
 ,0.00000064,0.00000043,-0.00000112,-0.00000036,0.00000088,-0.00000069,
 -0.00000138,-0.00000219,-0.00000039,0.00001488,-0.00002170,-0.00001405
 ,0.00004025,-0.00001818,-0.00000106,-0.00049000,0.00014236,-0.00055285
 ,-0.00009211,-0.00030278,0.00022729,-0.00239847,0.00056067,-0.00179832
 ,-0.09904754,-0.09560830,0.11055705,-0.00002088,0.00003674,0.00002826,
 0.00022956,0.00009991,0.00019915,-0.00026769,-0.00017506,-0.00016420,0
 .00011309,0.00011880,0.00006004,-0.00004990,-0.00003187,-0.00001897,0.
 00000950,0.00000911,0.00000881,-0.00002688,-0.00002929,-0.00003710,0.0
 0011973,0.00002454,0.00008475,-0.00000589,-0.00000883,0.00002538,0.000
 01092,0.00000541,-0.00000559,-0.00000336,0.00000362,0.00000449,0.00000
 505,0.00000326,-0.00000387,-0.00000084,-0.00000329,0.00000094,0.000011
 65,-0.00000285,-0.00000811,-0.00042957,0.00082822,0.00005086,-0.001713
 59,-0.00108889,-0.00083763,0.00098345,0.00103154,0.00012347,-0.0002508
 3,-0.00041621,0.00162567,-0.00051466,0.00000509,-0.00251455,0.00026131
 ,-0.00002031,-0.00013921,0.00575862,-0.01706557,-0.00387720,0.00124884
 ,-0.00256904,0.00512421,-0.00102898,-0.00021832,0.00002502,0.00094108,
 0.00035434,0.00624005,0.00247043,0.02084571,0.00333567,-0.04986575,0.0
 2193352,0.01441856,0.00001471,0.00000060,-0.00000281,-0.00003301,0.000
 09174,-0.00004580,-0.00000717,0.00001100,-0.00001667,0.00000998,-0.000
 00478,0.00000501,0.00000107,0.00000844,0.00000613,-0.00000795,0.000003
 46,0.00000107,0.00000065,-0.00000157,-0.00000260,0.00000161,0.00000109
 ,-0.00000266,0.00000103,0.00000350,-0.00000265,-0.00000296,-0.00000469
 ,0.00000127,-0.00006051,0.00003771,-0.00007363,0.00008940,0.00006054,0
 .00031489,0.00015076,-0.00089943,-0.00012247,-0.00046950,0.00010164,-0
 .00057912,0.00007934,0.00093522,0.00029067,-0.00153531,0.00010433,-0.0
 0267635,0.04378345,0.00000586,0.00005763,-0.00000241,0.00012117,0.0000
 9648,0.00001460,-0.00013583,-0.00011811,-0.00006694,0.00005169,0.00007
 352,0.00002798,-0.00001884,-0.00002088,-0.00001077,0.00000640,0.000004
 83,0.00000665,-0.00001224,-0.00001589,-0.00001374,0.00005082,0.0000288
 6,0.00003427,-0.00000338,-0.00000238,0.00001311,0.00000482,0.00000236,
 -0.00000212,-0.00000184,0.00000199,0.00000265,0.00000248,0.00000202,-0
 .00000188,-0.00000172,0.00000002,0.00000012,0.00000790,-0.00000513,-0.
 00000697,-0.00013145,0.00033952,0.00020657,-0.00087770,-0.00050835,-0.
 00005098,0.00070482,0.00039483,-0.00049992,0.00008168,0.00023113,-0.00
 073192,0.00129438,-0.00086653,-0.00101962,-0.00000925,0.00009425,0.000
 04489,0.00339655,-0.01460022,-0.00568736,-0.00304654,-0.00060492,0.002
 25191,-0.00026615,0.00068048,0.00040783,0.00126386,0.00156140,-0.00168
 183,-0.00176447,-0.00554685,0.00082576,0.02230045,-0.32946991,-0.05033
 833,0.00000071,-0.00000162,0.00000357,-0.00000702,0.00001548,0.0000123
 1,-0.00001598,0.00000740,-0.00000072,0.00000411,-0.00000175,0.00000247
 ,0.00000053,0.00000309,0.00000189,-0.00000345,0.00000240,0.00000007,-0
 .00000070,-0.00000007,-0.00000091,0.00000023,0.00000024,-0.00000075,0.
 00000204,0.00000203,-0.00000175,0.,-0.00000112,0.00000290,0.00041471,0
 .00017008,0.00005029,0.00024277,0.00052619,0.00026714,0.00023558,-0.00
 080943,-0.00030551,0.00008715,-0.00007349,0.00001297,-0.00011232,-0.00
 036404,0.00002713,0.00024727,0.00080272,0.00023015,-0.02411908,0.34791
 174,-0.00007849,-0.00010312,0.00000627,-0.00028636,0.00007735,-0.00032
 008,0.00010758,0.00010932,0.00013108,-0.00001716,-0.00005976,-0.000064
 09,0.00000322,0.00000754,0.00001279,-0.00000693,-0.00000491,-0.0000040
 0,-0.00000573,0.00000843,0.00002022,-0.00005721,0.00000841,-0.00005444
 ,-0.00000485,0.00000096,-0.00000649,-0.00000110,-0.00000192,-0.0000015
 9,0.,-0.00000032,-0.00000193,-0.00000038,-0.00000010,-0.00000142,0.000
 00017,0.00000022,-0.00000089,-0.00000213,0.00000302,0.00000003,-0.0005
 4486,0.00007132,0.00001013,0.00047137,0.00020452,0.00069132,-0.0005093
 2,-0.00022283,-0.00055729,0.00205115,0.00044404,-0.00088129,-0.0018692
 2,0.00024370,-0.00162728,0.00002407,-0.00019027,-0.00007365,-0.0021359
 7,0.01327061,0.00670457,0.00513639,0.00172766,0.00217610,0.00014793,0.
 00033055,-0.00108699,0.00632482,-0.00116004,0.00108096,0.00119816,-0.0
 2137316,0.00060058,0.01417166,-0.04946975,-0.05621996,-0.00000911,0.00
 001067,-0.00000603,0.00000617,0.00005333,0.00003641,0.00004342,0.00000
 852,-0.00001036,-0.00000163,-0.00000002,-0.00000420,-0.00000405,-0.000
 00305,-0.00001069,0.00000093,-0.00000004,0.00000207,0.00000144,-0.0000
 0030,0.00000072,0.00000108,0.00000024,0.00000039,0.00000027,0.00000019
 ,0.00000091,0.00000011,-0.00000051,0.00000043,-0.00036233,0.00001275,0
 .00001995,0.00012261,-0.00034255,-0.00142373,0.00001268,0.00080876,0.0
 0036185,-0.00057090,0.00004173,-0.00052066,0.00010518,-0.00098764,-0.0
 0008922,-0.00261950,0.00049925,-0.00169588,-0.02084319,0.05597719,0.05
 280536\\0.00031442,0.00511483,0.00021615,0.00010825,-0.00926635,0.0003
 6276,0.00214772,0.03405681,-0.00039991,-0.00109370,-0.00202461,-0.0053
 9672,-0.01556000,-0.00891974,-0.00702857,0.00397430,-0.00025745,0.0023
 6963,-0.00051187,-0.00604914,-0.00164870,0.01644013,-0.01395638,0.0123
 7803,-0.00168952,0.00022640,0.00276943,0.00062465,0.00098860,0.0002034
 5,-0.00037165,0.00090075,0.00020811,0.00054459,-0.00033733,-0.00041603
 ,-0.00122943,0.00170261,0.00077344,0.00089260,-0.00382527,-0.00173261,
 0.00106997,-0.00143422,0.00557449,-0.00221586,0.03435695,0.00031319,-0
 .01620600,-0.01403415,-0.01264393,0.00049176,-0.00604486,0.00166721,0.
 01532597,-0.00910291,0.00712645,-0.00394676,-0.00029395,-0.00244218,0.
 00176168,0.00020130,-0.00274687,-0.00089906,-0.00380889,0.00173148,0.0
 0122953,0.00171583,-0.00074586,-0.00054703,-0.00032289,0.00040149,0.00
 038092,0.00088707,-0.00021600,-0.00063910,0.00097822,-0.00019083,0.000
 18722,-0.00026040,0.00012809,-0.00038468,-0.00100373,-0.00017491,-0.00
 020068,-0.00114212,-0.00039371,0.00066897,-0.00129473,0.00091834,0.000
 41394,0.00055290,0.00077299,-0.00076115,0.00064662,0.00022861,0.000015
 57,0.00002944,-0.00011952,0.00003224,0.00020094,0.00008529,0.00059405,
 0.00033900,-0.00043667,0.00165215,0.00000271,-0.00003026,-0.00040082,0
 .00054421,-0.00078528,-0.00065809,-0.00129873,-0.00092846,-0.00168121,
 0.00000506,0.00000876,-0.00059081,0.00033307,0.00042846,-0.00002803,0.
 00020228,-0.00008727,-0.00001850,0.00003068,0.00011964,0.00076330,0.00
 066153,-0.00022119\\\@

 Writing a WFNX file to "14_lig_b.wfx"


 THE WHOLE OF SCIENCE IS NOTHING MORE THAN A REFINEMENT OF EVERYDAY THINKING.
                                                              -- A. EINSTEIN
 Job cpu time:       0 days  4 hours  1 minutes 10.5 seconds.
 Elapsed time:       0 days  0 hours 30 minutes 16.6 seconds.
 File lengths (MBytes):  RWF=    890 Int=      0 D2E=      0 Chk=     14 Scr=      1
 Normal termination of Gaussian 16 at Thu Nov  3 08:34:45 2022.
