 Entering Gaussian System, Link 0=g16
 Initial command:
 /software/gaussian/G16-A.03/avx/g16/l1.exe "/scratch/lcmd/1361345.slurm/Gau-40300.inp" -scrdir="/scratch/lcmd/1361345.slurm/"
 Entering Link 1 = /software/gaussian/G16-A.03/avx/g16/l1.exe PID=     40303.
  
 Copyright (c) 1988,1990,1992,1993,1995,1998,2003,2009,2016,
            Gaussian, Inc.  All Rights Reserved.
  
 This is part of the Gaussian(R) 16 program.  It is based on
 the Gaussian(R) 09 system (copyright 2009, Gaussian, Inc.),
 the Gaussian(R) 03 system (copyright 2003, Gaussian, Inc.),
 the Gaussian(R) 98 system (copyright 1998, Gaussian, Inc.),
 the Gaussian(R) 94 system (copyright 1995, Gaussian, Inc.),
 the Gaussian 92(TM) system (copyright 1992, Gaussian, Inc.),
 the Gaussian 90(TM) system (copyright 1990, Gaussian, Inc.),
 the Gaussian 88(TM) system (copyright 1988, Gaussian, Inc.),
 the Gaussian 86(TM) system (copyright 1986, Carnegie Mellon
 University), and the Gaussian 82(TM) system (copyright 1983,
 Carnegie Mellon University). Gaussian is a federally registered
 trademark of Gaussian, Inc.
  
 This software contains proprietary and confidential information,
 including trade secrets, belonging to Gaussian, Inc.
  
 This software is provided under written license and may be
 used, copied, transmitted, or stored only in accord with that
 written license.
  
 The following legend is applicable only to US Government
 contracts under FAR:
  
                    RESTRICTED RIGHTS LEGEND
  
 Use, reproduction and disclosure by the US Government is
 subject to restrictions as set forth in subparagraphs (a)
 and (c) of the Commercial Computer Software - Restricted
 Rights clause in FAR 52.227-19.
  
 Gaussian, Inc.
 340 Quinnipiac St., Bldg. 40, Wallingford CT 06492
  
  
 ---------------------------------------------------------------
 Warning -- This program may not be used in any manner that
 competes with the business of Gaussian, Inc. or will provide
 assistance to any competitor of Gaussian, Inc.  The licensee
 of this program is prohibited from giving any competitor of
 Gaussian, Inc. access to this program.  By using this program,
 the user acknowledges that Gaussian, Inc. is engaged in the
 business of creating and licensing software in the field of
 computational chemistry and represents and warrants to the
 licensee that it is not a competitor of Gaussian, Inc. and that
 it will not use this program in any manner prohibited above.
 ---------------------------------------------------------------
  

 Cite this work as:
 Gaussian 16, Revision A.03,
 M. J. Frisch, G. W. Trucks, H. B. Schlegel, G. E. Scuseria, 
 M. A. Robb, J. R. Cheeseman, G. Scalmani, V. Barone, 
 G. A. Petersson, H. Nakatsuji, X. Li, M. Caricato, A. V. Marenich, 
 J. Bloino, B. G. Janesko, R. Gomperts, B. Mennucci, H. P. Hratchian, 
 J. V. Ortiz, A. F. Izmaylov, J. L. Sonnenberg, D. Williams-Young, 
 F. Ding, F. Lipparini, F. Egidi, J. Goings, B. Peng, A. Petrone, 
 T. Henderson, D. Ranasinghe, V. G. Zakrzewski, J. Gao, N. Rega, 
 G. Zheng, W. Liang, M. Hada, M. Ehara, K. Toyota, R. Fukuda, 
 J. Hasegawa, M. Ishida, T. Nakajima, Y. Honda, O. Kitao, H. Nakai, 
 T. Vreven, K. Throssell, J. A. Montgomery, Jr., J. E. Peralta, 
 F. Ogliaro, M. J. Bearpark, J. J. Heyd, E. N. Brothers, K. N. Kudin, 
 V. N. Staroverov, T. A. Keith, R. Kobayashi, J. Normand, 
 K. Raghavachari, A. P. Rendell, J. C. Burant, S. S. Iyengar, 
 J. Tomasi, M. Cossi, J. M. Millam, M. Klene, C. Adamo, R. Cammi, 
 J. W. Ochterski, R. L. Martin, K. Morokuma, O. Farkas, 
 J. B. Foresman, and D. J. Fox, Gaussian, Inc., Wallingford CT, 2016.
 
 ******************************************
 Gaussian 16:  ES64L-G16RevA.03 25-Dec-2016
                 3-Nov-2022 
 ******************************************
 %nprocs=8
 Will use up to    8 processors via shared memory.
 %mem=32000MB
 %chk=15_lig_b.chk
 ----------------------------------------------------------------------
 #p pop=(regular,nbo,savenbos) freq=noraman def2svp empiricaldispersion
 =gd3bj output=wfx pbe1pbe
 ----------------------------------------------------------------------
 1/10=4,30=1,38=1/1,3;
 2/12=2,17=6,18=5,40=1/2;
 3/5=43,7=101,11=2,25=1,30=1,71=2,74=-13,124=41,140=1/1,2,3;
 4//1;
 5/5=2,38=5,98=1/2;
 8/6=4,10=90,11=11/1;
 11/6=1,8=1,9=11,15=111,16=1/1,2,10;
 10/6=1/2;
 6/28=1,40=1,73=1/1,7;
 7/8=1,10=1,25=1/1,2,3,16;
 1/10=4,30=1/3;
 99/6=200/99;
 Leave Link    1 at Thu Nov  3 08:04:21 2022, MaxMem=  4194304000 cpu:               0.4 elap:               0.1
 (Enter /software/gaussian/G16-A.03/avx/g16/l101.exe)
 --------
 15_lig_b
 --------
 Symbolic Z-matrix:
 Charge =  0 Multiplicity = 1
 C                     4.84558  -0.98556  -0.14106 
 C                     3.40874  -0.6499   -0.51646 
 C                     2.73673   0.14661   0.60845 
 H                     2.76334  -0.47756   1.51456 
 C                     3.29715   1.56164   0.85577 
 O                     2.20598   2.44733   0.53017 
 C                     1.15782   1.67319   0.27086 
 N                     1.32848   0.40629   0.30608 
 N                    -1.33      0.42018  -0.31838 
 C                    -1.16183   1.68795  -0.28351 
 N                     0.00327   2.36222  -0.00939 
 C                     0.04626   3.82262  -0.00107 
 O                    -2.21762   2.45575  -0.53387 
 C                    -3.30491   1.56573  -0.85972 
 C                    -2.74045   0.15486  -0.60435 
 H                    -2.77524  -0.47808  -1.50399 
 C                    -3.39983  -0.63174   0.53505 
 C                    -3.28442   0.06685   1.88215 
 C                    -4.83878  -0.97607   0.17602 
 C                     3.30339   0.03413  -1.87184 
 H                     5.30316  -1.63432  -0.90245 
 H                     4.88913  -1.51906   0.82086 
 H                     5.47687  -0.08345  -0.06274 
 H                     2.84123  -1.59574  -0.5502 
 H                     4.14488   1.82396   0.20787 
 H                     3.57445   1.74609   1.90297 
 H                    -0.94485   4.19776  -0.26664 
 H                     0.78581   4.18241  -0.72808 
 H                     0.32509   4.18823   0.99606 
 H                    -3.5782    1.74446  -1.90909 
 H                    -4.1556    1.829    -0.21625 
 H                    -2.82957  -1.57578   0.57369 
 H                    -3.81497   1.03476   1.89927 
 H                    -2.23264   0.24522   2.15309 
 H                    -3.72373  -0.55495   2.67618 
 H                    -5.47374  -0.07696   0.09308 
 H                    -5.28758  -1.61773   0.94858 
 H                    -4.88862  -1.52053  -0.77942 
 H                     3.83264   1.00266  -1.89495 
 H                     2.25363   0.20791  -2.15337 
 H                     3.75046  -0.59533  -2.65544 
 
 ITRead=  0  0  0  0  0  0  0  0  0  0  0  0  0  0  0  0  0  0  0  0
 ITRead=  0  0  0  0  0  0  0  0  0  0  0  0  0  0  0  0  0  0  0  0
 ITRead=  0
 MicOpt= -1 -1 -1 -1 -1 -1 -1 -1 -1 -1 -1 -1 -1 -1 -1 -1 -1 -1 -1 -1
 MicOpt= -1 -1 -1 -1 -1 -1 -1 -1 -1 -1 -1 -1 -1 -1 -1 -1 -1 -1 -1 -1
 MicOpt= -1
 NAtoms=     41 NQM=       41 NQMF=       0 NMMI=      0 NMMIF=      0
                NMic=       0 NMicF=      0.
                    Isotopes and Nuclear Properties:
 (Nuclear quadrupole moments (NQMom) in fm**2, nuclear magnetic moments (NMagM)
  in nuclear magnetons)

  Atom         1           2           3           4           5           6           7           8           9          10
 IAtWgt=          12          12          12           1          12          16          12          14          14          12
 AtmWgt=  12.0000000  12.0000000  12.0000000   1.0078250  12.0000000  15.9949146  12.0000000  14.0030740  14.0030740  12.0000000
 NucSpn=           0           0           0           1           0           0           0           2           2           0
 AtZEff=  -0.0000000  -0.0000000  -0.0000000  -0.0000000  -0.0000000  -0.0000000  -0.0000000  -0.0000000  -0.0000000  -0.0000000
 NQMom=    0.0000000   0.0000000   0.0000000   0.0000000   0.0000000   0.0000000   0.0000000   2.0440000   2.0440000   0.0000000
 NMagM=    0.0000000   0.0000000   0.0000000   2.7928460   0.0000000   0.0000000   0.0000000   0.4037610   0.4037610   0.0000000
 AtZNuc=   6.0000000   6.0000000   6.0000000   1.0000000   6.0000000   8.0000000   6.0000000   7.0000000   7.0000000   6.0000000

  Atom        11          12          13          14          15          16          17          18          19          20
 IAtWgt=          14          12          16          12          12           1          12          12          12          12
 AtmWgt=  14.0030740  12.0000000  15.9949146  12.0000000  12.0000000   1.0078250  12.0000000  12.0000000  12.0000000  12.0000000
 NucSpn=           2           0           0           0           0           1           0           0           0           0
 AtZEff=  -0.0000000  -0.0000000  -0.0000000  -0.0000000  -0.0000000  -0.0000000  -0.0000000  -0.0000000  -0.0000000  -0.0000000
 NQMom=    2.0440000   0.0000000   0.0000000   0.0000000   0.0000000   0.0000000   0.0000000   0.0000000   0.0000000   0.0000000
 NMagM=    0.4037610   0.0000000   0.0000000   0.0000000   0.0000000   2.7928460   0.0000000   0.0000000   0.0000000   0.0000000
 AtZNuc=   7.0000000   6.0000000   8.0000000   6.0000000   6.0000000   1.0000000   6.0000000   6.0000000   6.0000000   6.0000000

  Atom        21          22          23          24          25          26          27          28          29          30
 IAtWgt=           1           1           1           1           1           1           1           1           1           1
 AtmWgt=   1.0078250   1.0078250   1.0078250   1.0078250   1.0078250   1.0078250   1.0078250   1.0078250   1.0078250   1.0078250
 NucSpn=           1           1           1           1           1           1           1           1           1           1
 AtZEff=  -0.0000000  -0.0000000  -0.0000000  -0.0000000  -0.0000000  -0.0000000  -0.0000000  -0.0000000  -0.0000000  -0.0000000
 NQMom=    0.0000000   0.0000000   0.0000000   0.0000000   0.0000000   0.0000000   0.0000000   0.0000000   0.0000000   0.0000000
 NMagM=    2.7928460   2.7928460   2.7928460   2.7928460   2.7928460   2.7928460   2.7928460   2.7928460   2.7928460   2.7928460
 AtZNuc=   1.0000000   1.0000000   1.0000000   1.0000000   1.0000000   1.0000000   1.0000000   1.0000000   1.0000000   1.0000000

  Atom        31          32          33          34          35          36          37          38          39          40
 IAtWgt=           1           1           1           1           1           1           1           1           1           1
 AtmWgt=   1.0078250   1.0078250   1.0078250   1.0078250   1.0078250   1.0078250   1.0078250   1.0078250   1.0078250   1.0078250
 NucSpn=           1           1           1           1           1           1           1           1           1           1
 AtZEff=  -0.0000000  -0.0000000  -0.0000000  -0.0000000  -0.0000000  -0.0000000  -0.0000000  -0.0000000  -0.0000000  -0.0000000
 NQMom=    0.0000000   0.0000000   0.0000000   0.0000000   0.0000000   0.0000000   0.0000000   0.0000000   0.0000000   0.0000000
 NMagM=    2.7928460   2.7928460   2.7928460   2.7928460   2.7928460   2.7928460   2.7928460   2.7928460   2.7928460   2.7928460
 AtZNuc=   1.0000000   1.0000000   1.0000000   1.0000000   1.0000000   1.0000000   1.0000000   1.0000000   1.0000000   1.0000000

  Atom        41
 IAtWgt=           1
 AtmWgt=   1.0078250
 NucSpn=           1
 AtZEff=  -0.0000000
 NQMom=    0.0000000
 NMagM=    2.7928460
 AtZNuc=   1.0000000
 Leave Link  101 at Thu Nov  3 08:04:22 2022, MaxMem=  4194304000 cpu:               1.0 elap:               0.1
 (Enter /software/gaussian/G16-A.03/avx/g16/l103.exe)

 GradGradGradGradGradGradGradGradGradGradGradGradGradGradGradGradGradGrad
 Berny optimization.
 Initialization pass.
 Trust Radius=3.00D-01 FncErr=1.00D-07 GrdErr=1.00D-07 EigMax=2.50D+02 EigMin=1.00D-04
 Number of steps in this run=      2 maximum allowed number of steps=      2.
 GradGradGradGradGradGradGradGradGradGradGradGradGradGradGradGradGradGrad

 Leave Link  103 at Thu Nov  3 08:04:22 2022, MaxMem=  4194304000 cpu:               0.2 elap:               0.0
 (Enter /software/gaussian/G16-A.03/avx/g16/l202.exe)
                          Input orientation:                          
 ---------------------------------------------------------------------
 Center     Atomic      Atomic             Coordinates (Angstroms)
 Number     Number       Type             X           Y           Z
 ---------------------------------------------------------------------
      1          6           0        4.845580   -0.985560   -0.141060
      2          6           0        3.408740   -0.649900   -0.516460
      3          6           0        2.736730    0.146610    0.608450
      4          1           0        2.763340   -0.477560    1.514560
      5          6           0        3.297150    1.561640    0.855770
      6          8           0        2.205980    2.447330    0.530170
      7          6           0        1.157820    1.673190    0.270860
      8          7           0        1.328480    0.406290    0.306080
      9          7           0       -1.330000    0.420180   -0.318380
     10          6           0       -1.161830    1.687950   -0.283510
     11          7           0        0.003270    2.362220   -0.009390
     12          6           0        0.046260    3.822620   -0.001070
     13          8           0       -2.217620    2.455750   -0.533870
     14          6           0       -3.304910    1.565730   -0.859720
     15          6           0       -2.740450    0.154860   -0.604350
     16          1           0       -2.775240   -0.478080   -1.503990
     17          6           0       -3.399830   -0.631740    0.535050
     18          6           0       -3.284420    0.066850    1.882150
     19          6           0       -4.838780   -0.976070    0.176020
     20          6           0        3.303390    0.034130   -1.871840
     21          1           0        5.303160   -1.634320   -0.902450
     22          1           0        4.889130   -1.519060    0.820860
     23          1           0        5.476870   -0.083450   -0.062740
     24          1           0        2.841230   -1.595740   -0.550200
     25          1           0        4.144880    1.823960    0.207870
     26          1           0        3.574450    1.746090    1.902970
     27          1           0       -0.944850    4.197760   -0.266640
     28          1           0        0.785810    4.182410   -0.728080
     29          1           0        0.325090    4.188230    0.996060
     30          1           0       -3.578200    1.744460   -1.909090
     31          1           0       -4.155600    1.829000   -0.216250
     32          1           0       -2.829570   -1.575780    0.573690
     33          1           0       -3.814970    1.034760    1.899270
     34          1           0       -2.232640    0.245220    2.153090
     35          1           0       -3.723730   -0.554950    2.676180
     36          1           0       -5.473740   -0.076960    0.093080
     37          1           0       -5.287580   -1.617730    0.948580
     38          1           0       -4.888620   -1.520530   -0.779420
     39          1           0        3.832640    1.002660   -1.894950
     40          1           0        2.253630    0.207910   -2.153370
     41          1           0        3.750460   -0.595330   -2.655440
 ---------------------------------------------------------------------
                    Distance matrix (angstroms):
                    1          2          3          4          5
     1  C    0.000000
     2  C    1.522531   0.000000
     3  C    2.508151   1.533443   0.000000
     4  H    2.708296   2.138056   1.100605   0.000000
     5  C    3.143172   2.605067   1.541930   2.208460   0.000000
     6  O    4.382097   3.483518   2.362443   3.136025   1.442607
     7  C    4.564888   3.329153   2.222019   2.958075   2.220652
     8  N    3.808828   2.473781   1.463567   2.073750   2.347904
     9  N    6.336035   4.862095   4.179970   4.573952   4.908368
    10  C    6.577000   5.139058   4.286034   4.830057   4.603957
    11  N    5.888373   4.574627   3.572458   4.243202   3.498439
    12  C    6.794973   5.619193   4.595997   5.307655   4.051480
    13  O    7.866747   6.426608   5.584139   6.132727   5.757015
    14  C    8.570650   7.078131   6.377369   6.829048   6.821299
    15  C    7.685249   6.202250   5.609853   5.931394   6.368955
    16  H    7.758351   6.264690   5.935862   6.307734   6.826628
    17  C    8.280646   6.889313   6.186161   6.242425   7.054312
    18  C    8.443805   7.146009   6.154910   6.083330   6.826779
    19  C    9.689554   8.282965   7.670447   7.735143   8.549584
    20  C    2.532532   1.521858   2.546683   3.467158   3.126209
    21  H    1.099993   2.169539   3.470028   3.691980   4.162880
    22  H    1.100822   2.176102   2.729908   2.466764   3.467900
    23  H    1.103840   2.191778   2.830511   3.163296   2.881174
    24  H    2.134745   1.103549   2.095035   2.349389   3.486210
    25  H    2.916528   2.680772   2.226399   2.985479   1.098741
    26  H    3.640844   3.409086   2.221687   2.398621   1.098883
    27  H    7.772494   6.520427   5.543612   6.227517   5.118935
    28  H    6.598048   5.502342   4.677615   5.536730   3.960283
    29  H    6.963905   5.933306   4.722387   5.289943   3.968853
    30  H    9.029895   7.515964   6.983514   7.541477   7.412713
    31  H    9.431259   7.965821   7.142463   7.495842   7.534201
    32  H    7.730922   6.400171   5.826794   5.776847   6.889098
    33  H    9.124131   7.801014   6.736453   6.760864   7.207548
    34  H    7.541826   6.304991   5.204832   5.088217   5.830487
    35  H    9.030800   7.814992   6.819475   6.590708   7.555568
    36  H   10.361889   8.921785   8.229666   8.368427   8.955178
    37  H   10.211165   8.871810   8.223025   8.150928   9.155031
    38  H    9.769767   8.347055   7.927894   8.056216   8.898340
    39  H    2.838168   2.193372   2.863713   3.867714   2.857563
    40  H    3.491700   2.179356   2.804424   3.766083   3.460700
    41  H    2.770140   2.166792   3.497299   4.286861   4.145673
                    6          7          8          9         10
     6  O    0.000000
     7  C    1.328598   0.000000
     8  N    2.232950   1.278828   0.000000
     9  N    4.163235   2.847189   2.730871   0.000000
    10  C    3.546953   2.385020   2.862152   1.279351   0.000000
    11  N    2.269427   1.373422   2.383561   2.375837   1.373768
    12  C    2.614963   2.435069   3.661931   3.683935   2.469022
    13  O    4.549779   3.557188   4.180984   2.231110   1.329244
    14  C    5.751428   4.604967   4.916472   2.346402   2.222554
    15  C    5.568638   4.274088   4.177115   1.463401   2.223813
    16  H    6.124409   4.821516   4.571540   2.073948   2.963840
    17  C    6.395764   5.114164   4.846323   2.473676   3.325605
    18  C    6.135065   4.991000   4.886518   2.964276   3.438522
    19  C    7.840519   6.556431   6.321624   3.808606   4.563785
    20  C    3.577359   3.446905   2.963462   4.902099   5.019572
    21  H    5.320225   5.431402   4.628468   6.968567   7.294975
    22  H    4.797504   4.941218   4.080466   6.613327   6.936762
    23  H    4.177931   4.674534   4.193449   6.830262   6.874513
    24  H    4.232866   3.767481   2.651368   4.638624   5.184422
    25  H    2.061989   2.991526   3.154607   5.676429   5.331147
    26  H    2.061317   2.917053   3.064230   5.544913   5.216936
    27  H    3.691428   3.329201   4.457722   3.797516   2.519228
    28  H    2.571105   2.726253   3.952602   4.335768   3.195821
    29  H    2.604906   2.746776   3.973152   4.320333   3.177992
    30  H    6.316704   5.214130   5.547358   3.055893   2.912825
    31  H    6.434996   5.337976   5.689645   3.158990   2.997846
    32  H    6.445469   5.152358   4.614065   2.651105   3.764051
    33  H    6.334164   5.271428   5.421098   3.386850   3.497190
    34  H    5.213876   4.132446   4.014843   2.636955   3.027395
    35  H    6.984304   5.880451   5.662701   3.955782   4.511507
    36  H    8.095751   6.860920   6.822690   4.193689   4.674323
    37  H    8.535410   7.268606   6.948504   4.628251   5.428386
    38  H    8.233607   6.918264   6.598733   4.079545   4.942594
    39  H    3.257960   3.506423   3.386888   5.429338   5.292551
    40  H    3.495520   3.037225   2.635176   4.031706   4.165605
    41  H    4.668116   4.520088   3.954723   5.683677   5.913545
                   11         12         13         14         15
    11  N    0.000000
    12  C    1.461056   0.000000
    13  O    2.283896   2.697659   0.000000
    14  C    3.507351   4.130517   1.442398   0.000000
    15  C    3.571332   4.645661   2.360596   1.540903   0.000000
    16  H    4.245144   5.358699   3.139973   2.207440   1.100534
    17  C    4.565227   5.657233   3.474594   2.604471   1.533543
    18  C    4.433458   5.361507   3.561188   3.124886   2.546828
    19  C    5.884217   6.849993   4.376278   3.144243   2.508180
    20  C    4.447417   5.334916   6.175432   6.858558   6.176496
    21  H    6.697665   7.630575   8.568936   9.183736   8.245586
    22  H    6.294861   7.256894   8.254714   8.915300   7.940008
    23  H    5.995369   6.689747   8.116322   8.970765   8.238597
    24  H    4.900198   6.121440   6.481265   6.918506   5.850016
    25  H    4.182088   4.564754   6.436672   7.530326   7.131155
    26  H    4.097568   4.515027   6.323755   7.415563   6.978297
    27  H    2.081902   1.092500   2.173926   3.584579   4.436583
    28  H    2.107600   1.097691   3.469822   4.857812   5.354529
    29  H    2.109220   1.098037   3.436211   4.847507   5.312901
    30  H    4.100904   4.593038   2.061151   1.099004   2.220585
    31  H    4.198013   4.655798   2.061423   1.098653   2.226211
    32  H    4.885981   6.143571   4.225447   3.485642   2.095432
    33  H    4.470357   5.127626   3.238967   2.855541   2.863028
    34  H    3.762619   4.757266   3.479428   3.459846   2.805265
    35  H    5.441755   6.367387   4.651570   4.144307   3.497506
    36  H    5.996477   6.759141   4.172530   2.882721   2.830375
    37  H    6.689604   7.677831   5.311831   4.163574   3.470092
    38  H    6.292796   7.314925   4.796388   3.469811   2.729875
    39  H    4.479711   5.086809   6.369431   7.234181   6.752031
    40  H    3.781775   4.750895   5.260004   5.866393   5.229064
    41  H    5.458032   6.347051   7.030514   7.594277   6.848479
                   16         17         18         19         20
    16  H    0.000000
    17  C    2.138085   0.000000
    18  C    3.467298   1.521849   0.000000
    19  C    2.707143   1.522512   2.532705   0.000000
    20  C    6.111253   7.153297   7.582398   8.456309   0.000000
    21  H    8.182866   8.877703   9.186648  10.220339   2.778943
    22  H    8.076579   8.341216   8.393353   9.764368   3.489642
    23  H    8.386313   8.913685   8.975823  10.356950   2.830315
    24  H    5.805481   6.407643   6.797361   7.739118   2.148674
    25  H    7.491189   7.941043   7.815699   9.409959   2.869981
    26  H    7.541410   7.494389   7.061471   9.009714   4.153730
    27  H    5.171542   5.476651   5.211075   6.490544   6.161171
    28  H    5.916357   6.503162   6.349638   7.685267   4.985441
    29  H    6.134879   6.108983   5.549729   7.349014   5.861030
    30  H    2.397610   3.413497   4.156222   3.652127   7.091043
    31  H    2.980987   2.681582   2.875310   2.913594   7.848507
    32  H    2.350458   1.103586   2.148765   2.134179   6.796001
    33  H    3.866769   2.193322   1.103914   2.839228   8.117486
    34  H    3.767202   2.179322   1.100666   3.491750   6.847792
    35  H    4.287116   2.166852   1.100051   2.769743   8.391181
    36  H    3.161239   2.191853   2.831002   1.103835   8.995069
    37  H    3.691308   2.169512   2.778851   1.099999   9.191745
    38  H    2.465376   2.175839   3.489583   1.100812   8.409481
    39  H    6.783032   7.802870   8.111397   9.132240   1.103943
    40  H    5.116816   6.316187   6.853854   7.558449   1.100661
    41  H    6.627544   7.829891   8.397484   9.051915   1.100055
                   21         22         23         24         25
    21  H    0.000000
    22  H    1.776092   0.000000
    23  H    1.772142   1.785263   0.000000
    24  H    2.487301   2.465680   3.077537   0.000000
    25  H    3.812365   3.479288   2.342144   3.737449   0.000000
    26  H    4.720804   3.682465   3.290963   4.209927   1.790201
    27  H    8.570592   8.240146   7.720675   6.926720   5.636084
    28  H    7.366899   7.193275   6.375444   6.135423   4.209708
    29  H    7.892250   7.309878   6.775629   6.494320   4.560900
    30  H    9.555524   9.476226   9.420433   7.362921   8.008358
    31  H   10.096217   9.700116   9.821686   7.797179   8.311310
    32  H    8.265816   7.722865   8.463394   5.781133   7.767561
    33  H    9.905247   9.134896   9.562331   7.564683   8.175750
    34  H    8.346094   7.457019   8.028354   6.036644   6.851939
    35  H    9.770178   8.863017   9.611193   7.388604   8.582936
    36  H   10.934259  10.488012  10.951720   8.476982   9.805331
    37  H   10.751296  10.177990  10.920172   8.265856  10.068028
    38  H   10.193158   9.907840  10.489147   7.733614   9.683206
    39  H    3.178230   3.853682   2.690747   3.089163   2.279008
    40  H    3.776009   4.332935   3.852908   2.483663   3.429854
    41  H    2.561904   3.772865   3.156676   2.501910   3.769227
                   26         27         28         29         30
    26  H    0.000000
    27  H    5.580499   0.000000
    28  H    4.542531   1.791186   0.000000
    29  H    4.164718   1.790880   1.784644   0.000000
    30  H    8.105073   3.956116   5.136435   5.444959   0.000000
    31  H    8.015712   3.990298   5.497094   5.206942   1.790599
    32  H    7.335753   6.131239   6.922596   6.584382   4.212913
    33  H    7.423579   4.788875   6.162617   5.282069   3.881152
    34  H    6.003121   4.809997   5.737042   4.840251   4.534265
    35  H    7.691298   6.242645   7.373433   6.458599   5.131585
    36  H    9.405794   6.238067   7.615675   7.254905   3.304441
    37  H    9.526895   7.359075   8.563812   8.075487   4.732080
    38  H    9.459893   6.965279   8.045205   7.932531   3.695066
    39  H    3.878601   5.973648   4.555828   5.550559   7.447887
    40  H    4.534805   5.450590   4.470190   5.429652   6.035802
    41  H    5.127605   7.122220   5.943960   6.924526   7.729225
                   31         32         33         34         35
    31  H    0.000000
    32  H    3.738300   0.000000
    33  H    2.285229   3.089190   0.000000
    34  H    3.438009   2.483319   1.786496   0.000000
    35  H    3.773047   2.502415   1.771748   1.771227   0.000000
    36  H    2.337918   3.077187   2.692538   3.853851   3.156488
    37  H    3.810270   2.486788   3.179323   3.775458   2.561197
    38  H    3.474742   2.464477   3.854557   4.332634   3.772331
    39  H    8.204441   7.558279   8.537158   7.331300   8.967726
    40  H    6.889020   6.037990   7.344078   6.218811   7.722392
    41  H    8.621648   7.394955   8.979884   7.721785   9.181030
                   36         37         38         39         40
    36  H    0.000000
    37  H    1.772148   0.000000
    38  H    1.785362   1.776120   0.000000
    39  H    9.577398   9.906085   9.147200   0.000000
    40  H    8.052325   8.356130   7.475759   1.786528   0.000000
    41  H    9.638928   9.783682   8.888709   1.771629   1.771375
                   41
    41  H    0.000000
 Stoichiometry    C13H23N3O2
 Framework group  C1[X(C13H23N3O2)]
 Deg. of freedom   117
 Full point group                 C1      NOp   1
 Largest Abelian subgroup         C1      NOp   1
 Largest concise Abelian subgroup C1      NOp   1
                         Standard orientation:                         
 ---------------------------------------------------------------------
 Center     Atomic      Atomic             Coordinates (Angstroms)
 Number     Number       Type             X           Y           Z
 ---------------------------------------------------------------------
      1          6           0        4.846258   -1.824385    0.064316
      2          6           0        3.426868   -1.489456   -0.373012
      3          6           0        2.704434   -0.698257    0.724049
      4          1           0        2.691987   -1.325841    1.628104
      5          6           0        3.251002    0.716659    1.001216
      6          8           0        2.173821    1.601944    0.630991
      7          6           0        1.139450    0.827224    0.322673
      8          7           0        1.310503   -0.439544    0.360660
      9          7           0       -1.317778   -0.427268   -0.380724
     10          6           0       -1.153434    0.840611   -0.333700
     11          7           0       -0.002726    1.515581   -0.005788
     12          6           0        0.037413    2.976002    0.009897
     13          8           0       -2.198400    1.607772   -0.627637
     14          6           0       -3.268725    0.717368   -1.004594
     15          6           0       -2.713755   -0.693616   -0.729795
     16          1           0       -2.707665   -1.323169   -1.632458
     17          6           0       -3.421566   -1.485550    0.376369
     18          6           0       -3.367014   -0.791935    1.729863
     19          6           0       -4.842651   -1.830671   -0.047246
     20          6           0        3.380422   -0.800416   -1.729152
     21          1           0        5.338148   -2.469545   -0.678514
     22          1           0        4.848115   -2.361487    1.025215
     23          1           0        5.471958   -0.921632    0.173862
     24          1           0        2.862987   -2.436013   -0.435365
     25          1           0        4.126117    0.982725    0.392435
     26          1           0        3.481408    0.897528    2.060341
     27          1           0       -0.941607    3.350662   -0.297845
     28          1           0        0.807791    3.339676   -0.682336
     29          1           0        0.271259    3.338222    1.019748
     30          1           0       -3.495636    0.899691   -2.064348
     31          1           0       -4.147480    0.976900   -0.398400
     32          1           0       -2.851995   -2.428872    0.436657
     33          1           0       -3.899419    0.175104    1.727125
     34          1           0       -2.328546   -0.613019    2.047728
     35          1           0       -3.839972   -1.417421    2.501349
     36          1           0       -5.474824   -0.932207   -0.154821
     37          1           0       -5.324107   -2.475950    0.702296
     38          1           0       -4.849277   -2.371555   -1.005989
     39          1           0        3.908557    0.168990   -1.725200
     40          1           0        2.343851   -0.627142   -2.056187
     41          1           0        3.862762   -1.426208   -2.494563
 ---------------------------------------------------------------------
 Rotational constants (GHZ):           0.7482187           0.2208952           0.1937519
 Leave Link  202 at Thu Nov  3 08:04:22 2022, MaxMem=  4194304000 cpu:               0.1 elap:               0.1
 (Enter /software/gaussian/G16-A.03/avx/g16/l301.exe)
 Standard basis: def2SVP (5D, 7F)
 Ernie: Thresh=  0.10000D-02 Tol=  0.10000D-05 Strict=F.
 There are   385 symmetry adapted cartesian basis functions of A   symmetry.
 There are   367 symmetry adapted basis functions of A   symmetry.
   367 basis functions,   611 primitive gaussians,   385 cartesian basis functions
    69 alpha electrons       69 beta electrons
       nuclear repulsion energy      1433.6906441228 Hartrees.
 IExCor= 1009 DFT=T Ex+Corr=PBE1PBE ExCW=0 ScaHFX=  0.250000
 ScaDFX=  0.750000  0.750000  1.000000  1.000000 ScalE2=  1.000000  1.000000
 IRadAn=      5 IRanWt=     -1 IRanGd=            0 ICorTp=0 IEmpDi=141
 NAtoms=   41 NActive=   41 NUniq=   41 SFac= 1.00D+00 NAtFMM=   60 NAOKFM=F Big=F
 Integral buffers will be    131072 words long.
 Raffenetti 2 integral format.
 Two-electron integral symmetry is turned on.
 R6Disp:  Grimme-D3(BJ) Dispersion energy=       -0.0394492295 Hartrees.
 Nuclear repulsion after empirical dispersion term =     1433.6511948933 Hartrees.
 Leave Link  301 at Thu Nov  3 08:04:22 2022, MaxMem=  4194304000 cpu:               0.7 elap:               0.2
 (Enter /software/gaussian/G16-A.03/avx/g16/l302.exe)
 NPDir=0 NMtPBC=     1 NCelOv=     1 NCel=       1 NClECP=     1 NCelD=      1
         NCelK=      1 NCelE2=     1 NClLst=     1 CellRange=     0.0.
 One-electron integrals computed using PRISM.
 One-electron integral symmetry used in STVInt
   1 Symmetry operations used in ECPInt.
 ECPInt:  NShTT=   15753 NPrTT=   55249 LenC2=   14143 LenP2D=   35195.
 LDataN:  DoStor=T MaxTD1= 4 Len=   56
 NBasis=   367 RedAO= T EigKep=  1.12D-03  NBF=   367
 NBsUse=   367 1.00D-06 EigRej= -1.00D+00 NBFU=   367
 Precomputing XC quadrature grid using
 IXCGrd= 4 IRadAn=           5 IRanWt=          -1 IRanGd=           0 AccXCQ= 0.00D+00.
 Generated NRdTot=       0 NPtTot=           0 NUsed=           0 NTot=          32
 NSgBfM=   382   382   382   382   382 MxSgAt=    41 MxSgA2=    41.
 Leave Link  302 at Thu Nov  3 08:04:23 2022, MaxMem=  4194304000 cpu:               6.6 elap:               0.9
 (Enter /software/gaussian/G16-A.03/avx/g16/l303.exe)
 DipDrv:  MaxL=1.
 Leave Link  303 at Thu Nov  3 08:04:23 2022, MaxMem=  4194304000 cpu:               0.5 elap:               0.1
 (Enter /software/gaussian/G16-A.03/avx/g16/l401.exe)
 ExpMin= 1.22D-01 ExpMax= 2.27D+03 ExpMxC= 3.41D+02 IAcc=3 IRadAn=         5 AccDes= 0.00D+00
 Harris functional with IExCor= 1009 and IRadAn=       5 diagonalized for initial guess.
 HarFok:  IExCor= 1009 AccDes= 0.00D+00 IRadAn=         5 IDoV= 1 UseB2=F ITyADJ=14
 ICtDFT=  3500011 ScaDFX=  1.000000  1.000000  1.000000  1.000000
 FoFCou: FMM=F IPFlag=           0 FMFlag=      100000 FMFlg1=           0
         NFxFlg=           0 DoJE=T BraDBF=F KetDBF=T FulRan=T
         wScrn=  0.000000 ICntrl=       500 IOpCl=  0 I1Cent=   200000004 NGrid=           0
         NMat0=    1 NMatS0=      1 NMatT0=    0 NMatD0=    1 NMtDS0=    0 NMtDT0=    0
 Petite list used in FoFCou.
 Harris En= -822.630726922031    
 JPrj=0 DoOrth=F DoCkMO=F.
 Leave Link  401 at Thu Nov  3 08:04:27 2022, MaxMem=  4194304000 cpu:              33.2 elap:               4.2
 (Enter /software/gaussian/G16-A.03/avx/g16/l502.exe)
 Integral symmetry usage will be decided dynamically.
 Closed shell SCF:
 Using DIIS extrapolation, IDIIS=  1040.
 NGot=  4194304000 LenX=  4194000173 LenY=  4193851507
 Requested convergence on RMS density matrix=1.00D-08 within 128 cycles.
 Requested convergence on MAX density matrix=1.00D-06.
 Requested convergence on             energy=1.00D-06.
 No special actions if energy rises.
 Fock matrices will be formed incrementally for  20 cycles.
 Integral accuracy reduced to 1.0D-05 until final iterations.

 Cycle   1  Pass 0  IDiag  1:
 FoFJK:  IHMeth= 1 ICntrl=       0 DoSepK=F KAlg= 0 I1Cent=           0 FoldK=F
 IRaf= 830000000 NMat=       1 IRICut=       1 DoRegI=T DoRafI=F ISym2E= 0 IDoP0=0 IntGTp=1.
 FoFCou: FMM=F IPFlag=           0 FMFlag=      100000 FMFlg1=           0
         NFxFlg=           0 DoJE=F BraDBF=F KetDBF=F FulRan=T
         wScrn=  0.000000 ICntrl=         0 IOpCl=  0 I1Cent=           0 NGrid=           0
         NMat0=    1 NMatS0=      1 NMatT0=    0 NMatD0=    1 NMtDS0=    0 NMtDT0=    0
 Symmetry not used in FoFCou.
 E= -821.972025319236    
 DIIS: error= 2.48D-02 at cycle   1 NSaved=   1.
 NSaved= 1 IEnMin= 1 EnMin= -821.972025319236     IErMin= 1 ErrMin= 2.48D-02
 ErrMax= 2.48D-02  0.00D+00 EMaxC= 1.00D-01 BMatC= 4.26D-01 BMatP= 4.26D-01
 IDIUse=3 WtCom= 7.52D-01 WtEn= 2.48D-01
 Coeff-Com:  0.100D+01
 Coeff-En:   0.100D+01
 Coeff:      0.100D+01
 Gap=     0.209 Goal=   None    Shift=    0.000
 GapD=    0.209 DampG=1.000 DampE=0.500 DampFc=0.5000 IDamp=-1.
 Damping current iteration by 5.00D-01
 RMSDP=4.97D-03 MaxDP=1.81D-01              OVMax= 3.23D-01

 Cycle   2  Pass 0  IDiag  1:
 RMSU=  2.47D-03    CP:  9.84D-01
 E= -822.119761591019     Delta-E=       -0.147736271783 Rises=F Damp=T
 DIIS: error= 1.53D-02 at cycle   2 NSaved=   2.
 NSaved= 2 IEnMin= 2 EnMin= -822.119761591019     IErMin= 2 ErrMin= 1.53D-02
 ErrMax= 1.53D-02  0.00D+00 EMaxC= 1.00D-01 BMatC= 5.57D-02 BMatP= 4.26D-01
 IDIUse=3 WtCom= 8.47D-01 WtEn= 1.53D-01
 Coeff-Com:  0.175D+00 0.825D+00
 Coeff-En:   0.283D+00 0.717D+00
 Coeff:      0.191D+00 0.809D+00
 Gap=     0.322 Goal=   None    Shift=    0.000
 RMSDP=1.59D-03 MaxDP=6.21D-02 DE=-1.48D-01 OVMax= 2.83D-01

 Cycle   3  Pass 0  IDiag  1:
 RMSU=  1.39D-03    CP:  9.80D-01  6.87D-01
 E= -822.364495806961     Delta-E=       -0.244734215942 Rises=F Damp=F
 DIIS: error= 1.64D-02 at cycle   3 NSaved=   3.
 NSaved= 3 IEnMin= 3 EnMin= -822.364495806961     IErMin= 2 ErrMin= 1.53D-02
 ErrMax= 1.64D-02  0.00D+00 EMaxC= 1.00D-01 BMatC= 5.97D-02 BMatP= 5.57D-02
 IDIUse=3 WtCom= 8.36D-01 WtEn= 1.64D-01
 Coeff-Com:  0.481D-01 0.500D+00 0.452D+00
 Coeff-En:   0.000D+00 0.000D+00 0.100D+01
 Coeff:      0.402D-01 0.418D+00 0.542D+00
 Gap=     0.254 Goal=   None    Shift=    0.000
 RMSDP=9.88D-04 MaxDP=4.68D-02 DE=-2.45D-01 OVMax= 1.08D-01

 Cycle   4  Pass 0  IDiag  1:
 RMSU=  6.06D-04    CP:  9.84D-01  8.53D-01  5.25D-01
 E= -822.405924803588     Delta-E=       -0.041428996627 Rises=F Damp=F
 DIIS: error= 8.21D-03 at cycle   4 NSaved=   4.
 NSaved= 4 IEnMin= 4 EnMin= -822.405924803588     IErMin= 4 ErrMin= 8.21D-03
 ErrMax= 8.21D-03  0.00D+00 EMaxC= 1.00D-01 BMatC= 1.50D-02 BMatP= 5.57D-02
 IDIUse=3 WtCom= 9.18D-01 WtEn= 8.21D-02
 Coeff-Com:  0.929D-02 0.819D-01 0.337D+00 0.572D+00
 Coeff-En:   0.000D+00 0.000D+00 0.235D+00 0.765D+00
 Coeff:      0.852D-02 0.752D-01 0.329D+00 0.588D+00
 Gap=     0.256 Goal=   None    Shift=    0.000
 RMSDP=3.91D-04 MaxDP=1.74D-02 DE=-4.14D-02 OVMax= 3.61D-02

 Cycle   5  Pass 0  IDiag  1:
 RMSU=  1.71D-04    CP:  9.82D-01  7.82D-01  6.50D-01  5.92D-01
 E= -822.418669837152     Delta-E=       -0.012745033564 Rises=F Damp=F
 DIIS: error= 1.17D-03 at cycle   5 NSaved=   5.
 NSaved= 5 IEnMin= 5 EnMin= -822.418669837152     IErMin= 5 ErrMin= 1.17D-03
 ErrMax= 1.17D-03  0.00D+00 EMaxC= 1.00D-01 BMatC= 4.24D-04 BMatP= 1.50D-02
 IDIUse=3 WtCom= 9.88D-01 WtEn= 1.17D-02
 Coeff-Com:  0.112D-02 0.594D-02 0.123D+00 0.287D+00 0.583D+00
 Coeff-En:   0.000D+00 0.000D+00 0.000D+00 0.000D+00 0.100D+01
 Coeff:      0.111D-02 0.588D-02 0.121D+00 0.284D+00 0.588D+00
 Gap=     0.256 Goal=   None    Shift=    0.000
 RMSDP=9.37D-05 MaxDP=4.03D-03 DE=-1.27D-02 OVMax= 4.23D-03

 Cycle   6  Pass 0  IDiag  1:
 RMSU=  4.41D-05    CP:  9.83D-01  7.90D-01  6.52D-01  6.45D-01  5.72D-01
 E= -822.419012904714     Delta-E=       -0.000343067562 Rises=F Damp=F
 DIIS: error= 2.98D-04 at cycle   6 NSaved=   6.
 NSaved= 6 IEnMin= 6 EnMin= -822.419012904714     IErMin= 6 ErrMin= 2.98D-04
 ErrMax= 2.98D-04  0.00D+00 EMaxC= 1.00D-01 BMatC= 3.70D-05 BMatP= 4.24D-04
 IDIUse=3 WtCom= 9.97D-01 WtEn= 2.98D-03
 Coeff-Com: -0.197D-03-0.372D-02 0.316D-01 0.903D-01 0.303D+00 0.579D+00
 Coeff-En:   0.000D+00 0.000D+00 0.000D+00 0.000D+00 0.000D+00 0.100D+01
 Coeff:     -0.197D-03-0.371D-02 0.315D-01 0.900D-01 0.302D+00 0.580D+00
 Gap=     0.256 Goal=   None    Shift=    0.000
 RMSDP=1.93D-05 MaxDP=8.76D-04 DE=-3.43D-04 OVMax= 1.17D-03

 Cycle   7  Pass 0  IDiag  1:
 RMSU=  9.92D-06    CP:  9.83D-01  7.89D-01  6.53D-01  6.47D-01  6.20D-01
                    CP:  6.78D-01
 E= -822.419042957652     Delta-E=       -0.000030052938 Rises=F Damp=F
 DIIS: error= 1.12D-04 at cycle   7 NSaved=   7.
 NSaved= 7 IEnMin= 7 EnMin= -822.419042957652     IErMin= 7 ErrMin= 1.12D-04
 ErrMax= 1.12D-04  0.00D+00 EMaxC= 1.00D-01 BMatC= 2.08D-06 BMatP= 3.70D-05
 IDIUse=3 WtCom= 9.99D-01 WtEn= 1.12D-03
 Coeff-Com: -0.121D-03-0.227D-02 0.895D-02 0.284D-01 0.121D+00 0.288D+00
 Coeff-Com:  0.556D+00
 Coeff-En:   0.000D+00 0.000D+00 0.000D+00 0.000D+00 0.000D+00 0.000D+00
 Coeff-En:   0.100D+01
 Coeff:     -0.121D-03-0.227D-02 0.894D-02 0.283D-01 0.121D+00 0.287D+00
 Coeff:      0.557D+00
 Gap=     0.256 Goal=   None    Shift=    0.000
 RMSDP=4.36D-06 MaxDP=2.66D-04 DE=-3.01D-05 OVMax= 2.81D-04

 Initial convergence to 1.0D-05 achieved.  Increase integral accuracy.
 Cycle   8  Pass 1  IDiag  1:
 E= -822.419036003834     Delta-E=        0.000006953818 Rises=F Damp=F
 DIIS: error= 4.90D-05 at cycle   1 NSaved=   1.
 NSaved= 1 IEnMin= 1 EnMin= -822.419036003834     IErMin= 1 ErrMin= 4.90D-05
 ErrMax= 4.90D-05  0.00D+00 EMaxC= 1.00D-01 BMatC= 6.73D-07 BMatP= 6.73D-07
 IDIUse=1 WtCom= 1.00D+00 WtEn= 0.00D+00
 Coeff-Com:  0.100D+01
 Coeff:      0.100D+01
 Gap=     0.256 Goal=   None    Shift=    0.000
 RMSDP=4.36D-06 MaxDP=2.66D-04 DE= 6.95D-06 OVMax= 1.96D-04

 Cycle   9  Pass 1  IDiag  1:
 RMSU=  2.62D-05    CP:  1.00D+00
 E= -822.419036530537     Delta-E=       -0.000000526703 Rises=F Damp=F
 DIIS: error= 2.84D-05 at cycle   2 NSaved=   2.
 NSaved= 2 IEnMin= 2 EnMin= -822.419036530537     IErMin= 2 ErrMin= 2.84D-05
 ErrMax= 2.84D-05  0.00D+00 EMaxC= 1.00D-01 BMatC= 2.67D-07 BMatP= 6.73D-07
 IDIUse=1 WtCom= 1.00D+00 WtEn= 0.00D+00
 Coeff-Com:  0.339D+00 0.661D+00
 Coeff:      0.339D+00 0.661D+00
 Gap=     0.256 Goal=   None    Shift=    0.000
 RMSDP=2.45D-06 MaxDP=1.32D-04 DE=-5.27D-07 OVMax= 2.28D-04

 Cycle  10  Pass 1  IDiag  1:
 RMSU=  2.45D-06    CP:  1.00D+00  1.00D+00
 E= -822.419036605515     Delta-E=       -0.000000074979 Rises=F Damp=F
 DIIS: error= 2.52D-05 at cycle   3 NSaved=   3.
 NSaved= 3 IEnMin= 3 EnMin= -822.419036605515     IErMin= 3 ErrMin= 2.52D-05
 ErrMax= 2.52D-05  0.00D+00 EMaxC= 1.00D-01 BMatC= 1.82D-07 BMatP= 2.67D-07
 IDIUse=1 WtCom= 1.00D+00 WtEn= 0.00D+00
 Coeff-Com:  0.156D-01 0.449D+00 0.536D+00
 Coeff:      0.156D-01 0.449D+00 0.536D+00
 Gap=     0.256 Goal=   None    Shift=    0.000
 RMSDP=1.30D-06 MaxDP=8.69D-05 DE=-7.50D-08 OVMax= 1.29D-04

 Cycle  11  Pass 1  IDiag  1:
 RMSU=  5.21D-07    CP:  1.00D+00  1.02D+00  5.34D-01
 E= -822.419036748001     Delta-E=       -0.000000142486 Rises=F Damp=F
 DIIS: error= 8.76D-06 at cycle   4 NSaved=   4.
 NSaved= 4 IEnMin= 4 EnMin= -822.419036748001     IErMin= 4 ErrMin= 8.76D-06
 ErrMax= 8.76D-06  0.00D+00 EMaxC= 1.00D-01 BMatC= 1.12D-08 BMatP= 1.82D-07
 IDIUse=1 WtCom= 1.00D+00 WtEn= 0.00D+00
 Coeff-Com: -0.442D-02 0.254D+00 0.335D+00 0.415D+00
 Coeff:     -0.442D-02 0.254D+00 0.335D+00 0.415D+00
 Gap=     0.256 Goal=   None    Shift=    0.000
 RMSDP=3.00D-07 MaxDP=1.97D-05 DE=-1.42D-07 OVMax= 3.11D-05

 Cycle  12  Pass 1  IDiag  1:
 RMSU=  1.20D-07    CP:  1.00D+00  1.02D+00  5.70D-01  5.03D-01
 E= -822.419036757437     Delta-E=       -0.000000009436 Rises=F Damp=F
 DIIS: error= 1.32D-06 at cycle   5 NSaved=   5.
 NSaved= 5 IEnMin= 5 EnMin= -822.419036757437     IErMin= 5 ErrMin= 1.32D-06
 ErrMax= 1.32D-06  0.00D+00 EMaxC= 1.00D-01 BMatC= 2.49D-10 BMatP= 1.12D-08
 IDIUse=1 WtCom= 1.00D+00 WtEn= 0.00D+00
 Coeff-Com: -0.296D-02 0.125D+00 0.166D+00 0.233D+00 0.478D+00
 Coeff:     -0.296D-02 0.125D+00 0.166D+00 0.233D+00 0.478D+00
 Gap=     0.256 Goal=   None    Shift=    0.000
 RMSDP=5.79D-08 MaxDP=2.74D-06 DE=-9.44D-09 OVMax= 4.94D-06

 Cycle  13  Pass 1  IDiag  1:
 RMSU=  4.69D-08    CP:  1.00D+00  1.02D+00  5.64D-01  5.17D-01  7.66D-01
 E= -822.419036757633     Delta-E=       -0.000000000196 Rises=F Damp=F
 DIIS: error= 1.92D-07 at cycle   6 NSaved=   6.
 NSaved= 6 IEnMin= 6 EnMin= -822.419036757633     IErMin= 6 ErrMin= 1.92D-07
 ErrMax= 1.92D-07  0.00D+00 EMaxC= 1.00D-01 BMatC= 1.72D-11 BMatP= 2.49D-10
 IDIUse=1 WtCom= 1.00D+00 WtEn= 0.00D+00
 Coeff-Com: -0.125D-02 0.467D-01 0.622D-01 0.934D-01 0.260D+00 0.539D+00
 Coeff:     -0.125D-02 0.467D-01 0.622D-01 0.934D-01 0.260D+00 0.539D+00
 Gap=     0.256 Goal=   None    Shift=    0.000
 RMSDP=1.58D-08 MaxDP=9.97D-07 DE=-1.96D-10 OVMax= 1.41D-06

 Cycle  14  Pass 1  IDiag  1:
 RMSU=  1.41D-08    CP:  1.00D+00  1.02D+00  5.64D-01  5.18D-01  8.01D-01
                    CP:  8.84D-01
 E= -822.419036757658     Delta-E=       -0.000000000025 Rises=F Damp=F
 DIIS: error= 7.15D-08 at cycle   7 NSaved=   7.
 NSaved= 7 IEnMin= 7 EnMin= -822.419036757658     IErMin= 7 ErrMin= 7.15D-08
 ErrMax= 7.15D-08  0.00D+00 EMaxC= 1.00D-01 BMatC= 2.06D-12 BMatP= 1.72D-11
 IDIUse=1 WtCom= 1.00D+00 WtEn= 0.00D+00
 Coeff-Com: -0.206D-03 0.553D-02 0.737D-02 0.148D-01 0.634D-01 0.286D+00
 Coeff-Com:  0.623D+00
 Coeff:     -0.206D-03 0.553D-02 0.737D-02 0.148D-01 0.634D-01 0.286D+00
 Coeff:      0.623D+00
 Gap=     0.256 Goal=   None    Shift=    0.000
 RMSDP=5.57D-09 MaxDP=3.01D-07 DE=-2.55D-11 OVMax= 4.14D-07

 SCF Done:  E(RPBE1PBE) =  -822.419036758     A.U. after   14 cycles
            NFock= 14  Conv=0.56D-08     -V/T= 2.0100
 KE= 8.142514832466D+02 PE=-4.779540319165D+03 EE= 1.709218604267D+03
 Leave Link  502 at Thu Nov  3 08:06:00 2022, MaxMem=  4194304000 cpu:             738.1 elap:              92.3
 (Enter /software/gaussian/G16-A.03/avx/g16/l801.exe)
 DoSCS=F DFT=T ScalE2(SS,OS)=  1.000000  1.000000
 Range of M.O.s used for correlation:     1   367
 NBasis=   367 NAE=    69 NBE=    69 NFC=     0 NFV=     0
 NROrb=    367 NOA=    69 NOB=    69 NVA=   298 NVB=   298
 Leave Link  801 at Thu Nov  3 08:06:00 2022, MaxMem=  4194304000 cpu:               0.2 elap:               0.1
 (Enter /software/gaussian/G16-A.03/avx/g16/l1101.exe)
 Using compressed storage, NAtomX=    41.
 Will process     42 centers per pass.
   1 Symmetry operations used in ECPInt.
 ECPInt:  NShTT=   15753 NPrTT=   55249 LenC2=   14143 LenP2D=   35195.
 LDataN:  DoStor=T MaxTD1= 5 Len=  102
 R6Disp: Adding Grimme-D3(BJ) dispersion energy 1st derivatives to the gradient.
 Leave Link 1101 at Thu Nov  3 08:06:02 2022, MaxMem=  4194304000 cpu:               6.3 elap:               0.9
 (Enter /software/gaussian/G16-A.03/avx/g16/l1102.exe)
 Symmetrizing basis deriv contribution to polar:
 IMax=3 JMax=2 DiffMx= 0.00D+00
 Leave Link 1102 at Thu Nov  3 08:06:02 2022, MaxMem=  4194304000 cpu:               0.6 elap:               0.1
 (Enter /software/gaussian/G16-A.03/avx/g16/l1110.exe)
 Forming Gx(P) for the SCF density, NAtomX=    41.
 Integral derivatives from FoFJK, PRISM(SPDF).
 Do as many integral derivatives as possible in FoFJK.
 G2DrvN: MDV=    4194300912.
 G2DrvN: will do    42 centers at a time, making    1 passes.
 Calling FoFCou, ICntrl=  3107 FMM=F I1Cent=   0 AccDes= 0.00D+00.
 FoFJK:  IHMeth= 1 ICntrl=    3107 DoSepK=F KAlg= 0 I1Cent=           0 FoldK=F
 IRaf=         0 NMat=       1 IRICut=       1 DoRegI=T DoRafI=F ISym2E= 0 IDoP0=0 IntGTp=1.
 FoFCou: FMM=F IPFlag=           0 FMFlag=      100000 FMFlg1=           0
         NFxFlg=           0 DoJE=F BraDBF=F KetDBF=F FulRan=T
         wScrn=  0.000000 ICntrl=      3107 IOpCl=  0 I1Cent=           0 NGrid=           0
         NMat0=    1 NMatS0=      1 NMatT0=    0 NMatD0=    1 NMtDS0=    0 NMtDT0=    0
 Symmetry not used in FoFCou.
 End of G2Drv F.D. properties file   721 does not exist.
 End of G2Drv F.D. properties file   722 does not exist.
 End of G2Drv F.D. properties file   788 does not exist.
 Leave Link 1110 at Thu Nov  3 08:11:36 2022, MaxMem=  4194304000 cpu:            2666.2 elap:             333.3
 (Enter /software/gaussian/G16-A.03/avx/g16/l1002.exe)
 Minotr:  Closed shell wavefunction.
          IDoAtm=11111111111111111111111111111111111111111
          Direct CPHF calculation.
          Differentiating once with respect to electric field.
                with respect to dipole field.
          Differentiating once with respect to nuclear coordinates.
          Requested convergence is 1.0D-08 RMS, and 1.0D-07 maximum.
          Secondary convergence is 1.0D-12 RMS, and 1.0D-12 maximum.
          NewPWx=T KeepS1=F KeepF1=F KeepIn=T MapXYZ=F SortEE=F KeepMc=T.
        12429 words used for storage of precomputed grid.
 Keep R1 ints in memory in canonical form, NReq=2308824643.
 FoFCou: FMM=F IPFlag=           0 FMFlag=           0 FMFlg1=           0
         NFxFlg=           0 DoJE=F BraDBF=F KetDBF=F FulRan=T
         wScrn=  0.000000 ICntrl=       600 IOpCl=  0 I1Cent=           0 NGrid=           0
         NMat0=    1 NMatS0=  67528 NMatT0=    0 NMatD0=    1 NMtDS0=    0 NMtDT0=    0
 Symmetry not used in FoFCou.
 Two-electron integral symmetry not used.
          MDV=    4194304000 using IRadAn=       1.
          Solving linear equations simultaneously, MaxMat=       0.
          There are   126 degrees of freedom in the 1st order CPHF.  IDoFFX=6 NUNeed=     3.
    123 vectors produced by pass  0 Test12= 2.06D-14 1.00D-09 XBig12= 1.20D+02 4.74D+00.
 AX will form   123 AO Fock derivatives at one time.
    123 vectors produced by pass  1 Test12= 2.06D-14 1.00D-09 XBig12= 4.30D+01 1.58D+00.
    123 vectors produced by pass  2 Test12= 2.06D-14 1.00D-09 XBig12= 3.93D-01 9.19D-02.
    123 vectors produced by pass  3 Test12= 2.06D-14 1.00D-09 XBig12= 1.54D-03 3.88D-03.
    123 vectors produced by pass  4 Test12= 2.06D-14 1.00D-09 XBig12= 2.72D-06 1.48D-04.
     73 vectors produced by pass  5 Test12= 2.06D-14 1.00D-09 XBig12= 3.12D-09 4.78D-06.
     15 vectors produced by pass  6 Test12= 2.06D-14 1.00D-09 XBig12= 2.99D-12 1.52D-07.
      3 vectors produced by pass  7 Test12= 2.06D-14 1.00D-09 XBig12= 2.89D-15 4.06D-09.
 InvSVY:  IOpt=1 It=  1 EMax= 1.07D-14
 Solved reduced A of dimension   706 with   126 vectors.
 FullF1:  Do perturbations      1 to       3.
 Isotropic polarizability for W=    0.000000      163.58 Bohr**3.
 End of Minotr F.D. properties file   721 does not exist.
 End of Minotr F.D. properties file   722 does not exist.
 End of Minotr F.D. properties file   788 does not exist.
 Leave Link 1002 at Thu Nov  3 08:17:54 2022, MaxMem=  4194304000 cpu:            3017.6 elap:             377.3
 (Enter /software/gaussian/G16-A.03/avx/g16/l601.exe)
 Copying SCF densities to generalized density rwf, IOpCl= 0 IROHF=0.

 **********************************************************************

            Population analysis using the SCF density.

 **********************************************************************

 Orbital symmetries:
       Occupied  (A) (A) (A) (A) (A) (A) (A) (A) (A) (A) (A) (A)
                 (A) (A) (A) (A) (A) (A) (A) (A) (A) (A) (A) (A)
                 (A) (A) (A) (A) (A) (A) (A) (A) (A) (A) (A) (A)
                 (A) (A) (A) (A) (A) (A) (A) (A) (A) (A) (A) (A)
                 (A) (A) (A) (A) (A) (A) (A) (A) (A) (A) (A) (A)
                 (A) (A) (A) (A) (A) (A) (A) (A) (A)
       Virtual   (A) (A) (A) (A) (A) (A) (A) (A) (A) (A) (A) (A)
                 (A) (A) (A) (A) (A) (A) (A) (A) (A) (A) (A) (A)
                 (A) (A) (A) (A) (A) (A) (A) (A) (A) (A) (A) (A)
                 (A) (A) (A) (A) (A) (A) (A) (A) (A) (A) (A) (A)
                 (A) (A) (A) (A) (A) (A) (A) (A) (A) (A) (A) (A)
                 (A) (A) (A) (A) (A) (A) (A) (A) (A) (A) (A) (A)
                 (A) (A) (A) (A) (A) (A) (A) (A) (A) (A) (A) (A)
                 (A) (A) (A) (A) (A) (A) (A) (A) (A) (A) (A) (A)
                 (A) (A) (A) (A) (A) (A) (A) (A) (A) (A) (A) (A)
                 (A) (A) (A) (A) (A) (A) (A) (A) (A) (A) (A) (A)
                 (A) (A) (A) (A) (A) (A) (A) (A) (A) (A) (A) (A)
                 (A) (A) (A) (A) (A) (A) (A) (A) (A) (A) (A) (A)
                 (A) (A) (A) (A) (A) (A) (A) (A) (A) (A) (A) (A)
                 (A) (A) (A) (A) (A) (A) (A) (A) (A) (A) (A) (A)
                 (A) (A) (A) (A) (A) (A) (A) (A) (A) (A) (A) (A)
                 (A) (A) (A) (A) (A) (A) (A) (A) (A) (A) (A) (A)
                 (A) (A) (A) (A) (A) (A) (A) (A) (A) (A) (A) (A)
                 (A) (A) (A) (A) (A) (A) (A) (A) (A) (A) (A) (A)
                 (A) (A) (A) (A) (A) (A) (A) (A) (A) (A) (A) (A)
                 (A) (A) (A) (A) (A) (A) (A) (A) (A) (A) (A) (A)
                 (A) (A) (A) (A) (A) (A) (A) (A) (A) (A) (A) (A)
                 (A) (A) (A) (A) (A) (A) (A) (A) (A) (A) (A) (A)
                 (A) (A) (A) (A) (A) (A) (A) (A) (A) (A) (A) (A)
                 (A) (A) (A) (A) (A) (A) (A) (A) (A) (A) (A) (A)
                 (A) (A) (A) (A) (A) (A) (A) (A) (A) (A)
 The electronic state is 1-A.
 Alpha  occ. eigenvalues --  -19.24827 -19.24710 -14.44416 -14.33983 -14.33978
 Alpha  occ. eigenvalues --  -10.34106 -10.33928 -10.28809 -10.28744 -10.27122
 Alpha  occ. eigenvalues --  -10.25468 -10.25449 -10.22865 -10.22859 -10.22259
 Alpha  occ. eigenvalues --  -10.22250 -10.21463 -10.21454  -1.13185  -1.12275
 Alpha  occ. eigenvalues --   -0.98809  -0.90965  -0.90345  -0.82057  -0.81602
 Alpha  occ. eigenvalues --   -0.77287  -0.75083  -0.71930  -0.69277  -0.69204
 Alpha  occ. eigenvalues --   -0.66335  -0.65695  -0.63864  -0.57842  -0.56600
 Alpha  occ. eigenvalues --   -0.54555  -0.53459  -0.52353  -0.51978  -0.50878
 Alpha  occ. eigenvalues --   -0.48054  -0.47883  -0.45971  -0.45500  -0.45454
 Alpha  occ. eigenvalues --   -0.44867  -0.44425  -0.43470  -0.43338  -0.42118
 Alpha  occ. eigenvalues --   -0.40178  -0.39438  -0.39214  -0.38759  -0.38388
 Alpha  occ. eigenvalues --   -0.37758  -0.37539  -0.37134  -0.34812  -0.34727
 Alpha  occ. eigenvalues --   -0.34223  -0.34189  -0.32461  -0.32313  -0.30153
 Alpha  occ. eigenvalues --   -0.28136  -0.24269  -0.23488  -0.22157
 Alpha virt. eigenvalues --    0.03482   0.06391   0.06640   0.08098   0.08686
 Alpha virt. eigenvalues --    0.09306   0.09660   0.10363   0.10585   0.11241
 Alpha virt. eigenvalues --    0.11591   0.13245   0.13516   0.13822   0.14657
 Alpha virt. eigenvalues --    0.14916   0.15544   0.15671   0.15926   0.16010
 Alpha virt. eigenvalues --    0.16359   0.16761   0.17223   0.17356   0.18835
 Alpha virt. eigenvalues --    0.19667   0.19722   0.20072   0.21166   0.21985
 Alpha virt. eigenvalues --    0.22336   0.23202   0.25389   0.25973   0.26244
 Alpha virt. eigenvalues --    0.27676   0.27880   0.28364   0.31455   0.32183
 Alpha virt. eigenvalues --    0.36405   0.38302   0.39235   0.39528   0.41628
 Alpha virt. eigenvalues --    0.42123   0.42497   0.43463   0.44183   0.45133
 Alpha virt. eigenvalues --    0.45424   0.45587   0.46297   0.46846   0.51236
 Alpha virt. eigenvalues --    0.51694   0.52831   0.53620   0.53858   0.55431
 Alpha virt. eigenvalues --    0.56344   0.57229   0.59611   0.59662   0.60247
 Alpha virt. eigenvalues --    0.60666   0.61162   0.62878   0.63048   0.63356
 Alpha virt. eigenvalues --    0.63822   0.64268   0.64375   0.64691   0.65042
 Alpha virt. eigenvalues --    0.65391   0.66012   0.66157   0.66558   0.67280
 Alpha virt. eigenvalues --    0.67700   0.67970   0.68079   0.68506   0.68879
 Alpha virt. eigenvalues --    0.69181   0.69491   0.69778   0.70703   0.70819
 Alpha virt. eigenvalues --    0.70996   0.71585   0.71742   0.73022   0.73307
 Alpha virt. eigenvalues --    0.73719   0.73739   0.74226   0.74468   0.74893
 Alpha virt. eigenvalues --    0.76055   0.76348   0.76904   0.78037   0.78882
 Alpha virt. eigenvalues --    0.79949   0.81445   0.82111   0.84896   0.85755
 Alpha virt. eigenvalues --    0.87041   0.91277   0.92406   0.94975   0.96433
 Alpha virt. eigenvalues --    0.99084   1.01440   1.04025   1.07479   1.08238
 Alpha virt. eigenvalues --    1.08627   1.09112   1.09472   1.10936   1.12443
 Alpha virt. eigenvalues --    1.13035   1.14712   1.15486   1.17497   1.20266
 Alpha virt. eigenvalues --    1.20782   1.21740   1.24487   1.26513   1.26715
 Alpha virt. eigenvalues --    1.29352   1.30420   1.31977   1.33532   1.35124
 Alpha virt. eigenvalues --    1.36086   1.39378   1.41272   1.42450   1.44139
 Alpha virt. eigenvalues --    1.45040   1.47841   1.50923   1.52470   1.53001
 Alpha virt. eigenvalues --    1.53981   1.54753   1.55405   1.55923   1.56153
 Alpha virt. eigenvalues --    1.56767   1.58113   1.58427   1.59839   1.60075
 Alpha virt. eigenvalues --    1.62520   1.63307   1.64999   1.67011   1.67240
 Alpha virt. eigenvalues --    1.68040   1.70828   1.70878   1.72816   1.72899
 Alpha virt. eigenvalues --    1.75519   1.75590   1.76884   1.77490   1.79062
 Alpha virt. eigenvalues --    1.79789   1.80032   1.80148   1.80850   1.81320
 Alpha virt. eigenvalues --    1.81810   1.82347   1.82600   1.83680   1.83975
 Alpha virt. eigenvalues --    1.84277   1.85478   1.86211   1.87937   1.89034
 Alpha virt. eigenvalues --    1.89553   1.89735   1.90471   1.91428   1.92441
 Alpha virt. eigenvalues --    1.93959   1.94476   1.94813   1.96131   1.96676
 Alpha virt. eigenvalues --    1.96888   1.97487   1.97546   1.98818   1.98921
 Alpha virt. eigenvalues --    1.99574   1.99874   1.99967   2.05042   2.06414
 Alpha virt. eigenvalues --    2.06583   2.07343   2.08261   2.09420   2.10260
 Alpha virt. eigenvalues --    2.10684   2.11250   2.12573   2.17430   2.17731
 Alpha virt. eigenvalues --    2.21744   2.21879   2.27690   2.28177   2.29177
 Alpha virt. eigenvalues --    2.30872   2.31256   2.31628   2.31804   2.35095
 Alpha virt. eigenvalues --    2.35351   2.39165   2.39818   2.40542   2.42275
 Alpha virt. eigenvalues --    2.43093   2.43605   2.44110   2.44568   2.45223
 Alpha virt. eigenvalues --    2.48154   2.51761   2.52442   2.54158   2.54965
 Alpha virt. eigenvalues --    2.58926   2.60358   2.60642   2.62071   2.63693
 Alpha virt. eigenvalues --    2.66361   2.66651   2.67989   2.69207   2.69523
 Alpha virt. eigenvalues --    2.70375   2.72164   2.74151   2.78349   2.80954
 Alpha virt. eigenvalues --    2.83223   2.83990   2.85286   2.86559   2.87929
 Alpha virt. eigenvalues --    2.88069   2.90538   2.91619   2.92012   2.93412
 Alpha virt. eigenvalues --    2.93971   2.94198   2.94734   2.95783   2.96442
 Alpha virt. eigenvalues --    2.98758   2.98916   3.02234   3.02894   3.03273
 Alpha virt. eigenvalues --    3.05479   3.05554   3.06038   3.06564   3.08018
 Alpha virt. eigenvalues --    3.09477   3.09993   3.13037   3.13273   3.16891
 Alpha virt. eigenvalues --    3.20297   3.20570   3.31733   3.34089   3.41167
 Alpha virt. eigenvalues --    3.58757   3.63322   3.75665
     Molecular Orbital Coefficients:
                          65        66        67        68        69
                           O         O         O         O         O
     Eigenvalues --    -0.30153  -0.28136  -0.24269  -0.23488  -0.22157
   1 1   C  1S          0.00272  -0.00254   0.00071   0.00341  -0.00230
   2        2S         -0.00617   0.00754  -0.00173  -0.01066   0.00642
   3        3S         -0.03965  -0.03391  -0.01349   0.03832   0.04225
   4        4PX        -0.00619  -0.00952   0.02724   0.01040  -0.02945
   5        4PY        -0.00388   0.00285  -0.01120  -0.00840   0.01544
   6        4PZ         0.01275  -0.00778  -0.00307   0.00251  -0.00070
   7        5PX        -0.00332   0.01047   0.03236  -0.01312  -0.03941
   8        5PY        -0.01097   0.00581  -0.01227  -0.00605   0.01991
   9        5PZ         0.01291  -0.00757   0.00474   0.00477  -0.01183
  10        6D 0        0.00101  -0.00003  -0.00130   0.00008   0.00126
  11        6D+1        0.00171  -0.00019  -0.00297  -0.00035   0.00291
  12        6D-1       -0.00090  -0.00027   0.00138   0.00061  -0.00135
  13        6D+2       -0.00032   0.00003   0.00007  -0.00008  -0.00001
  14        6D-2        0.00199  -0.00086  -0.00229  -0.00015   0.00199
  15 2   C  1S          0.00714  -0.00572  -0.02023   0.00571   0.02152
  16        2S         -0.02782   0.01532   0.04529  -0.01765  -0.04198
  17        3S          0.06883   0.03139   0.15322  -0.02549  -0.21330
  18        4PX         0.01563   0.00204  -0.05531   0.00081   0.05840
  19        4PY        -0.04061   0.02290   0.06409  -0.00681  -0.06052
  20        4PZ        -0.05851   0.01579   0.08262  -0.01077  -0.07648
  21        5PX         0.01803   0.01846  -0.03344  -0.02137   0.01856
  22        5PY         0.01165  -0.02835   0.05987   0.04366  -0.07765
  23        5PZ        -0.01967   0.03648   0.05865  -0.04103  -0.06406
  24        6D 0        0.00021   0.00084   0.00016   0.00037  -0.00063
  25        6D+1        0.00183  -0.00156  -0.00180   0.00157   0.00137
  26        6D-1       -0.00208  -0.00108   0.00369   0.00147  -0.00346
  27        6D+2       -0.00106   0.00215  -0.00135  -0.00215   0.00213
  28        6D-2        0.00141  -0.00236  -0.00201   0.00227   0.00156
  29 3   C  1S          0.00187  -0.02057  -0.00240   0.02762   0.00215
  30        2S          0.00018   0.04597   0.01168  -0.06650  -0.01295
  31        3S         -0.08221   0.08762  -0.03181  -0.12354   0.05819
  32        4PX        -0.01802  -0.10260   0.02576   0.13229  -0.02429
  33        4PY         0.02157  -0.04964  -0.00862   0.02377   0.00275
  34        4PZ         0.07021  -0.02457  -0.10135   0.02967   0.08862
  35        5PX        -0.01955  -0.02095  -0.02315   0.03587   0.03907
  36        5PY        -0.00040   0.02998   0.01226  -0.06437  -0.01628
  37        5PZ         0.05307  -0.00894  -0.00379   0.01766  -0.00276
  38        6D 0       -0.00164   0.00040  -0.00429  -0.00002   0.00632
  39        6D+1       -0.00061  -0.00031  -0.01091   0.00000   0.01383
  40        6D-1       -0.00513  -0.00541   0.00968   0.00551  -0.00959
  41        6D+2       -0.00045   0.00253   0.00397  -0.00086  -0.00484
  42        6D-2        0.00280  -0.01616  -0.00329   0.01808   0.00278
  43 4   H  1S          0.04839   0.04328  -0.10807  -0.03872   0.10786
  44        2S          0.02527   0.01192  -0.07672  -0.01383   0.07762
  45        3PX        -0.00040  -0.00120  -0.00058   0.00195   0.00112
  46        3PY         0.00123  -0.00089  -0.00332   0.00094   0.00305
  47        3PZ        -0.00077  -0.00235   0.00103   0.00231  -0.00069
  48 5   C  1S         -0.00065   0.02724   0.00069  -0.02578   0.00000
  49        2S          0.00016  -0.06623  -0.00207   0.06176   0.00001
  50        3S          0.03933  -0.13263   0.00083   0.16596  -0.01410
  51        4PX         0.03564   0.07126  -0.01476  -0.05442   0.00462
  52        4PY        -0.01200   0.10625   0.00683  -0.10403  -0.00543
  53        4PZ        -0.12018   0.02439   0.06580  -0.02050  -0.02837
  54        5PX        -0.00230   0.03939   0.00624  -0.03289  -0.00341
  55        5PY        -0.01491   0.10301   0.00636  -0.11919  -0.00401
  56        5PZ        -0.03924   0.02263   0.00597  -0.02421  -0.00848
  57        6D 0       -0.01007   0.00154   0.00768  -0.00123  -0.00320
  58        6D+1       -0.01218  -0.00201   0.00860   0.00139  -0.00284
  59        6D-1        0.00264  -0.00004  -0.00122  -0.00036  -0.00133
  60        6D+2        0.00383   0.00034  -0.00262  -0.00119   0.00067
  61        6D-2       -0.00012   0.00323   0.00060  -0.00498   0.00018
  62 6   O  1S          0.00105  -0.00705  -0.00031   0.01258   0.00055
  63        2S          0.00341  -0.01653  -0.00050   0.02759   0.00049
  64        3S         -0.00534  -0.05316  -0.00569   0.08569   0.00839
  65        4PX        -0.09295   0.04117   0.07710  -0.04037  -0.03314
  66        4PY         0.01442   0.11138   0.00149  -0.10675  -0.00402
  67        4PZ         0.28731   0.01891  -0.24995  -0.01904   0.11435
  68        5PX        -0.07476   0.03740   0.06399  -0.03992  -0.02889
  69        5PY         0.01361   0.08371   0.00262  -0.08643  -0.00633
  70        5PZ         0.22342   0.01580  -0.20608  -0.01670   0.10235
  71        6D 0       -0.00141   0.00124  -0.00014  -0.00106  -0.00024
  72        6D+1       -0.00298   0.00034  -0.00021  -0.00046  -0.00038
  73        6D-1       -0.00757   0.00063   0.00404  -0.00059  -0.00082
  74        6D+2        0.00130   0.00319   0.00015  -0.00296  -0.00011
  75        6D-2        0.00239   0.00208  -0.00114  -0.00170   0.00014
  76 7   C  1S          0.00087  -0.03596  -0.00064   0.03219   0.00001
  77        2S         -0.00234   0.08886   0.00181  -0.08446   0.00108
  78        3S         -0.00467   0.00036   0.00818   0.00590  -0.02006
  79        4PX         0.01258   0.02946  -0.05055  -0.03059   0.02509
  80        4PY        -0.00033  -0.09963  -0.00219   0.07004   0.00033
  81        4PZ        -0.04485   0.00603   0.17639  -0.00251  -0.09330
  82        5PX         0.00267   0.09021  -0.01817  -0.11520   0.01148
  83        5PY         0.00116   0.00601  -0.00776  -0.02169   0.01641
  84        5PZ        -0.01522   0.02392   0.10984  -0.02989  -0.08037
  85        6D 0        0.01275   0.00127  -0.00411  -0.00074  -0.00438
  86        6D+1        0.02312  -0.00090  -0.00663   0.00044  -0.00949
  87        6D-1        0.00220  -0.00621  -0.02289   0.00586   0.03184
  88        6D+2       -0.00798  -0.00042   0.00218  -0.00179   0.00337
  89        6D-2       -0.00039  -0.02235   0.00575   0.02383  -0.00833
  90 8   N  1S         -0.00063  -0.06429  -0.00062   0.08460   0.00041
  91        2S         -0.00311  -0.12829   0.00172   0.17823  -0.00248
  92        3S          0.01566  -0.19311  -0.02613   0.22926   0.03867
  93        4PX        -0.00269  -0.23797   0.06431   0.27021  -0.07927
  94        4PY        -0.00349  -0.23940  -0.00038   0.24407  -0.00076
  95        4PZ         0.00658  -0.06886  -0.25838   0.06981   0.30925
  96        5PX         0.01084   0.15464  -0.05602  -0.15630   0.07423
  97        5PY         0.00234   0.16379  -0.00281  -0.17264   0.00816
  98        5PZ        -0.00902   0.04255   0.18805  -0.03878  -0.24436
  99        6D 0        0.00126  -0.00759   0.00167   0.00923  -0.00250
 100        6D+1        0.00288   0.00276   0.00282  -0.00513  -0.00422
 101        6D-1       -0.00205   0.00296   0.01588  -0.00333  -0.01505
 102        6D+2       -0.00058  -0.00453  -0.00077  -0.00074   0.00104
 103        6D-2        0.00103   0.01173  -0.00426  -0.01460   0.00385
 104 9   N  1S          0.00072  -0.06432   0.00193  -0.08438  -0.00015
 105        2S          0.00348  -0.12870   0.00730  -0.17711   0.00284
 106        3S         -0.01758  -0.18925  -0.02225  -0.23413  -0.03599
 107        4PX        -0.00180   0.24055  -0.07270   0.27006  -0.07502
 108        4PY         0.00487  -0.23705   0.00483  -0.24408  -0.00203
 109        4PZ         0.00282   0.06550   0.26762   0.07379   0.30250
 110        5PX         0.01112  -0.15590   0.06140  -0.15704   0.07053
 111        5PY        -0.00309   0.16392  -0.00731   0.16967  -0.00579
 112        5PZ        -0.00586  -0.04035  -0.19692  -0.04224  -0.24101
 113        6D 0       -0.00124  -0.00770   0.00177  -0.00924   0.00221
 114        6D+1       -0.00298   0.00259   0.00293   0.00494   0.00432
 115        6D-1       -0.00173  -0.00268  -0.01646  -0.00358  -0.01471
 116        6D+2        0.00058  -0.00434  -0.00094   0.00088  -0.00115
 117        6D-2        0.00101  -0.01176   0.00467  -0.01460   0.00359
 118 10  C  1S         -0.00047  -0.03579   0.00065  -0.03248  -0.00027
 119        2S          0.00145   0.08789  -0.00163   0.08615  -0.00056
 120        3S          0.00512  -0.00137   0.01154  -0.00424   0.01963
 121        4PX         0.01079  -0.02896   0.05076  -0.02867   0.02388
 122        4PY         0.00100  -0.09902   0.00172  -0.07091   0.00122
 123        4PZ        -0.03994  -0.00680  -0.18240  -0.00891  -0.09038
 124        5PX         0.00202  -0.09061   0.02048  -0.11904   0.00944
 125        5PY        -0.00075   0.01013  -0.00975   0.01634  -0.01557
 126        5PZ        -0.01372  -0.02315  -0.11008  -0.03395  -0.07564
 127        6D 0       -0.01272   0.00135  -0.00345   0.00071   0.00514
 128        6D+1       -0.02395  -0.00075  -0.00632  -0.00063   0.01011
 129        6D-1        0.00197   0.00597   0.02401   0.00638   0.03117
 130        6D+2        0.00826  -0.00038   0.00222   0.00128  -0.00336
 131        6D-2       -0.00023   0.02212  -0.00651   0.02378  -0.00778
 132 11  N  1S          0.00027   0.01503   0.00112   0.00033  -0.00021
 133        2S          0.00066   0.02585   0.00214   0.00049  -0.00049
 134        3S          0.00018   0.15184   0.01624   0.00447  -0.00030
 135        4PX        -0.09096  -0.00009   0.00101   0.04529   0.08778
 136        4PY        -0.00016   0.03911   0.00216  -0.00111   0.00056
 137        4PZ         0.33044   0.00048  -0.00635   0.02156  -0.29838
 138        5PX         0.07737  -0.00101   0.00170  -0.06692  -0.08617
 139        5PY         0.00002  -0.06550  -0.00291   0.00065  -0.00053
 140        5PZ        -0.27344  -0.00071  -0.00004  -0.02732   0.27670
 141        6D 0        0.00021   0.00117   0.00423   0.00018  -0.00022
 142        6D+1        0.00041  -0.00092   0.00774   0.00014  -0.00046
 143        6D-1        0.00757   0.00003  -0.00000   0.00023   0.00156
 144        6D+2       -0.00012  -0.00068  -0.00239   0.00007   0.00022
 145        6D-2       -0.00222   0.00012  -0.00011   0.00078  -0.00066
 146 12  C  1S         -0.00012   0.00657   0.00007   0.00045  -0.00009
 147        2S          0.00004  -0.00941  -0.00064  -0.00093  -0.00013
 148        3S          0.00265  -0.04212   0.00095  -0.00430   0.00253
 149        4PX        -0.03255   0.00326  -0.00233   0.02199   0.02065
 150        4PY         0.00054   0.02009   0.00164  -0.00014   0.00032
 151        4PZ         0.09186   0.00108   0.00314   0.00857  -0.06814
 152        5PX        -0.01901   0.00919  -0.01295   0.02653   0.00053
 153        5PY         0.00066   0.00413   0.00094  -0.00348   0.00079
 154        5PZ         0.05644   0.00225   0.03049   0.00896  -0.01005
 155        6D 0        0.00296   0.00065   0.00022   0.00094  -0.00260
 156        6D+1        0.00492  -0.00002   0.00037  -0.00060  -0.00405
 157        6D-1        0.01413  -0.00001  -0.00001   0.00089  -0.01513
 158        6D+2       -0.00160   0.00110  -0.00009  -0.00050   0.00146
 159        6D-2       -0.00420  -0.00003  -0.00005   0.00163   0.00449
 160 13  O  1S         -0.00044  -0.00725   0.00010  -0.01248  -0.00096
 161        2S         -0.00218  -0.01677   0.00051  -0.02712  -0.00129
 162        3S          0.00774  -0.05527  -0.00399  -0.08654  -0.01080
 163        4PX        -0.09291  -0.04193  -0.07510  -0.04401  -0.02822
 164        4PY        -0.01827   0.11013  -0.00520   0.10806   0.00242
 165        4PZ         0.29708  -0.01646   0.25433  -0.00983   0.09764
 166        5PX        -0.07517  -0.03920  -0.06205  -0.04491  -0.02427
 167        5PY        -0.01689   0.08197  -0.00221   0.08576   0.00568
 168        5PZ         0.22991  -0.01414   0.21015  -0.00943   0.09033
 169        6D 0        0.00128   0.00119  -0.00026   0.00107   0.00021
 170        6D+1        0.00313   0.00033  -0.00021   0.00042   0.00042
 171        6D-1       -0.00803  -0.00071  -0.00390  -0.00078  -0.00011
 172        6D+2       -0.00142   0.00307  -0.00000   0.00296   0.00012
 173        6D-2        0.00238  -0.00204   0.00112  -0.00166  -0.00004
 174 14  C  1S          0.00084   0.02717   0.00020   0.02598   0.00001
 175        2S         -0.00053  -0.06609  -0.00117  -0.06217  -0.00023
 176        3S         -0.04296  -0.13382   0.00796  -0.17044   0.01805
 177        4PX         0.03489  -0.07158   0.01566  -0.05497   0.00415
 178        4PY         0.01276   0.10550   0.00549   0.10291   0.00699
 179        4PZ        -0.12248  -0.02418  -0.06598  -0.02212  -0.02483
 180        5PX        -0.00461  -0.04026  -0.00421  -0.03539  -0.00020
 181        5PY         0.01548   0.10240   0.00273   0.11953   0.00398
 182        5PZ        -0.03912  -0.02287  -0.00600  -0.02482  -0.01036
 183        6D 0        0.01055   0.00153   0.00793   0.00145   0.00276
 184        6D+1        0.01240  -0.00203   0.00865  -0.00127   0.00222
 185        6D-1        0.00288   0.00011   0.00114  -0.00026  -0.00160
 186        6D+2       -0.00381   0.00044  -0.00247   0.00108  -0.00038
 187        6D-2       -0.00039  -0.00334  -0.00057  -0.00514   0.00029
 188 15  C  1S         -0.00151  -0.02056  -0.00153  -0.02765  -0.00206
 189        2S         -0.00161   0.04579   0.01019   0.06686   0.01298
 190        3S          0.08779   0.08908  -0.04242   0.12277  -0.06323
 191        4PX        -0.01578   0.10400  -0.02953   0.13109  -0.02330
 192        4PY        -0.02271  -0.04867  -0.00978  -0.02291  -0.00365
 193        4PZ         0.06885   0.02314   0.10460   0.03047   0.08614
 194        5PX        -0.01755   0.02146   0.02415   0.03453   0.03801
 195        5PY         0.00136   0.03089   0.00983   0.06623   0.01422
 196        5PZ         0.05394   0.00883   0.00296   0.01600  -0.00322
 197        6D 0        0.00180   0.00040  -0.00419  -0.00006  -0.00590
 198        6D+1        0.00083  -0.00028  -0.01151  -0.00035  -0.01374
 199        6D-1       -0.00503   0.00528  -0.01016   0.00510  -0.00930
 200        6D+2        0.00045   0.00234   0.00395   0.00067   0.00452
 201        6D-2        0.00276   0.01617   0.00290   0.01825   0.00271
 202 16  H  1S         -0.04653   0.04356  -0.11212   0.03621  -0.10379
 203        2S         -0.02398   0.01222  -0.07873   0.01212  -0.07443
 204        3PX        -0.00043   0.00125   0.00054   0.00201   0.00111
 205        3PY        -0.00119  -0.00086  -0.00344  -0.00102  -0.00297
 206        3PZ        -0.00073   0.00234  -0.00109   0.00227  -0.00064
 207 17  C  1S         -0.00699  -0.00561  -0.02088  -0.00622  -0.02101
 208        2S          0.02800   0.01513   0.04597   0.01875   0.04013
 209        3S         -0.07431   0.03048   0.16338   0.03000   0.21407
 210        4PX         0.01290  -0.00291   0.05651   0.00229   0.05640
 211        4PY         0.04045   0.02216   0.06696   0.00827   0.05938
 212        4PZ        -0.05757  -0.01516  -0.08645  -0.01271  -0.07529
 213        5PX         0.01651  -0.01903   0.03444  -0.02022   0.01658
 214        5PY        -0.01375  -0.02973   0.06531  -0.04214   0.07763
 215        5PZ        -0.01970  -0.03609  -0.06135  -0.04245  -0.06333
 216        6D 0       -0.00013   0.00082   0.00032  -0.00033   0.00074
 217        6D+1       -0.00178  -0.00155  -0.00183  -0.00165  -0.00132
 218        6D-1       -0.00201   0.00110  -0.00392   0.00135  -0.00340
 219        6D+2        0.00115   0.00214  -0.00150   0.00205  -0.00213
 220        6D-2        0.00138   0.00236   0.00200   0.00233   0.00148
 221 18  C  1S          0.00182  -0.00273  -0.00110  -0.00132  -0.00253
 222        2S         -0.00750   0.00429   0.00521   0.00433   0.00765
 223        3S          0.03621   0.06531  -0.04413   0.04650  -0.03305
 224        4PX        -0.01309   0.02161   0.01541   0.01330   0.02394
 225        4PY         0.00165  -0.00983   0.00755  -0.00319   0.00648
 226        4PZ         0.03086   0.00150   0.03430   0.00424   0.02744
 227        5PX         0.00291   0.02291   0.01078   0.00554   0.02835
 228        5PY         0.00705  -0.00340   0.00775  -0.00463   0.00590
 229        5PZ         0.00173  -0.00146   0.04418  -0.00496   0.05934
 230        6D 0        0.00154   0.00114   0.00238   0.00107   0.00192
 231        6D+1       -0.00075   0.00028  -0.00088  -0.00032  -0.00042
 232        6D-1       -0.00175  -0.00048  -0.00182  -0.00046  -0.00137
 233        6D+2        0.00118   0.00132   0.00079   0.00041   0.00077
 234        6D-2        0.00079   0.00122  -0.00027   0.00074  -0.00043
 235 19  C  1S         -0.00296  -0.00261   0.00091  -0.00329   0.00242
 236        2S          0.00676   0.00771  -0.00232   0.01047  -0.00670
 237        3S          0.04078  -0.03378  -0.01440  -0.03897  -0.04370
 238        4PX        -0.00472   0.01006  -0.02875   0.00937  -0.02910
 239        4PY         0.00477   0.00321  -0.01236   0.00809  -0.01572
 240        4PZ         0.01255   0.00757   0.00341   0.00244  -0.00043
 241        5PX        -0.00257  -0.01034  -0.03363  -0.01444  -0.03912
 242        5PY         0.01193   0.00604  -0.01366   0.00544  -0.02041
 243        5PZ         0.01296   0.00761  -0.00482   0.00492  -0.01141
 244        6D 0       -0.00096  -0.00003  -0.00128  -0.00011  -0.00116
 245        6D+1       -0.00166  -0.00016  -0.00313   0.00025  -0.00288
 246        6D-1       -0.00087   0.00028  -0.00149   0.00057  -0.00136
 247        6D+2        0.00029   0.00001   0.00002   0.00007  -0.00005
 248        6D-2        0.00200   0.00084   0.00236  -0.00010   0.00190
 249 20  C  1S         -0.00183  -0.00274  -0.00113   0.00129   0.00263
 250        2S          0.00730   0.00429   0.00519  -0.00415  -0.00786
 251        3S         -0.03304   0.06512  -0.04020  -0.04826   0.03174
 252        4PX        -0.01346  -0.02165  -0.01458   0.01309   0.02401
 253        4PY        -0.00253  -0.01008   0.00775   0.00349  -0.00720
 254        4PZ         0.03150  -0.00191  -0.03328   0.00369   0.02848
 255        5PX         0.00236  -0.02315  -0.00962   0.00558   0.02781
 256        5PY        -0.00752  -0.00353   0.00780   0.00457  -0.00618
 257        5PZ         0.00385   0.00060  -0.04175  -0.00570   0.05992
 258        6D 0       -0.00149   0.00115   0.00229  -0.00101  -0.00197
 259        6D+1        0.00082   0.00026  -0.00089   0.00030   0.00045
 260        6D-1       -0.00179   0.00052   0.00174  -0.00043  -0.00140
 261        6D+2       -0.00116   0.00133   0.00075  -0.00041  -0.00077
 262        6D-2        0.00074  -0.00122   0.00027   0.00076  -0.00045
 263 21  H  1S         -0.01570   0.00297   0.02827   0.00564  -0.02815
 264        2S         -0.00661   0.00334   0.02308   0.00407  -0.02729
 265        3PX        -0.00024  -0.00051   0.00041   0.00049  -0.00043
 266        3PY        -0.00022  -0.00003   0.00052  -0.00002  -0.00047
 267        3PZ        -0.00009   0.00005   0.00076   0.00018  -0.00099
 268 22  H  1S          0.01324  -0.00392  -0.00794   0.00148   0.00525
 269        2S          0.00902   0.00844  -0.01672  -0.00859   0.01810
 270        3PX        -0.00017  -0.00051   0.00090   0.00054  -0.00106
 271        3PY         0.00035  -0.00013  -0.00064  -0.00012   0.00076
 272        3PZ         0.00006  -0.00020  -0.00054   0.00014   0.00067
 273 23  H  1S          0.00097  -0.00254  -0.00413  -0.00513   0.00561
 274        2S          0.01988  -0.00412  -0.01646  -0.00146   0.00875
 275        3PX        -0.00048  -0.00040   0.00103   0.00059  -0.00101
 276        3PY         0.00072   0.00011  -0.00088   0.00003   0.00073
 277        3PZ         0.00043  -0.00020  -0.00046   0.00019   0.00037
 278 24  H  1S          0.02471  -0.02868  -0.01386   0.01527   0.00623
 279        2S          0.02049  -0.05401  -0.02282   0.04675   0.01796
 280        3PX         0.00151  -0.00074  -0.00083   0.00007   0.00049
 281        3PY         0.00035  -0.00065   0.00069   0.00002  -0.00104
 282        3PZ        -0.00154  -0.00013   0.00173   0.00024  -0.00141
 283 25  H  1S          0.11697   0.04005  -0.07648  -0.03625   0.03262
 284        2S          0.06786   0.04131  -0.05960  -0.04946   0.02968
 285        3PX        -0.00258  -0.00022   0.00109   0.00012  -0.00028
 286        3PY        -0.00323   0.00220   0.00233  -0.00247  -0.00084
 287        3PZ         0.00017   0.00224   0.00003  -0.00186   0.00005
 288 26  H  1S         -0.13423   0.02380   0.09052  -0.02128  -0.04129
 289        2S         -0.07974   0.02546   0.06261  -0.02887  -0.02420
 290        3PX         0.00176   0.00164  -0.00045  -0.00139   0.00017
 291        3PY         0.00255   0.00225  -0.00142  -0.00241  -0.00000
 292        3PZ         0.00310  -0.00114  -0.00154   0.00090   0.00062
 293 27  H  1S          0.00081   0.00429   0.00061  -0.02199   0.00141
 294        2S         -0.00259   0.02588  -0.00274   0.01092  -0.00095
 295        3PX        -0.00105  -0.00040  -0.00006  -0.00100   0.00095
 296        3PY         0.00015   0.00012   0.00016  -0.00011   0.00005
[...]
 -0.00000435,0.00000236,0.00000524,0.00000310,-0.00002356,0.00001749,-0
 .00000340,0.00000344,-0.00000258,0.00000478,-0.00001557,0.00001107,-0.
 00000497,0.00005445,0.00000150,0.00001547,-0.00010033,0.00001491,-0.00
 001669,0.00005641,-0.00003059,0.00000091,-0.00044745,0.00006829,0.0005
 0137,-0.00021058,0.00003060,0.00009371,0.00007652,0.00001643,-0.000073
 73,0.00000848,-0.00002109,-0.00001740,0.00023296,0.00012151,0.00011348
 ,-0.00020712,-0.00012542,-0.00007795,-0.00096156,-0.00071273,-0.000218
 98,-0.00024823,0.00007995,0.00039481,-0.00397967,-0.00645283,0.0052828
 6,-0.00050570,-0.00060327,0.00116791,0.07851746,0.11575465,-0.18546462
 ,-0.00000197,-0.00000168,-0.00000135,0.00000319,-0.00000173,-0.0000022
 7,-0.00000003,0.00000015,0.00000301,0.00000003,0.00000099,0.00000065,-
 0.00000240,0.00000143,-0.00000092,0.00000427,0.00000165,-0.00000124,0.
 00000186,-0.00000107,0.00000297,-0.00000636,-0.00001376,-0.00000082,0.
 00000367,0.00000924,-0.00000184,0.00000141,-0.00000237,0.00000343,0.00
 000685,-0.00005860,0.00004844,0.00008435,0.00002929,-0.00006190,0.0005
 9561,0.00000464,0.00024072,0.00001671,0.00000175,-0.00006420,0.0001108
 9,0.00002167,0.00017026,0.00004948,0.00026646,0.00005320,0.00035848,-0
 .00073934,-0.00113816,-0.08340891,-0.12430460,0.19557307,-0.00000062,0
 .00000080,-0.00000021,0.00000145,-0.00000380,-0.00000028,-0.00000308,0
 .00000780,-0.00001205,0.00000801,-0.00000542,0.00000365,-0.00000458,0.
 00000501,-0.00000778,0.00003785,0.00000380,0.00000946,-0.00009378,0.00
 005998,-0.00004819,0.00002076,-0.00003927,0.00005034,0.00042899,0.0007
 2196,0.00027703,0.00005362,-0.00025760,-0.00011000,0.00014300,0.000116
 70,0.00006181,0.00001605,-0.00002423,-0.00000393,0.00005895,0.00022768
 ,0.00005334,-0.00018147,0.00000478,0.00019026,0.00104253,-0.00065242,-
 0.00162774,-0.00029384,0.00017224,0.00090125,0.00044539,-0.01580721,-0
 .02758163,-0.00630713,-0.00103756,-0.00015722,-0.04593437,-0.00300140,
 -0.00597181,-0.00000463,0.00000297,0.00000130,-0.00000026,-0.00000041,
 0.,0.00000099,-0.00000152,0.00000169,0.00000154,0.00000125,0.00000012,
 -0.00000119,0.00000306,-0.00000194,0.00000145,-0.00000113,0.00000108,0
 .00000487,0.00000150,0.00000375,-0.00000475,-0.00000801,-0.00000522,0.
 00000282,0.00001070,0.00000174,0.00000798,0.00001589,0.00000296,0.0000
 4572,-0.00004559,-0.00000794,-0.00002861,0.00004240,-0.00006071,0.0010
 2786,0.00047871,-0.00005901,0.00001380,-0.00020303,0.00009153,-0.00017
 128,-0.00097159,-0.00171489,0.00000136,0.00025469,0.00010469,0.0001485
 6,0.00684317,0.01575986,-0.00051068,0.00712502,0.00992940,0.05002553,-
 0.00000055,-0.00000123,0.00000019,0.00000501,0.00000322,-0.00000124,-0
 .00000160,0.00000710,-0.00000834,0.00000656,-0.00000316,0.00000468,-0.
 00000234,0.00000344,-0.00000505,0.00001852,-0.00000742,0.00000677,-0.0
 0006810,0.00006018,-0.00003317,0.00001549,-0.00004054,0.00003061,0.000
 14313,0.00036985,0.00042432,0.00006295,-0.00017547,0.00005592,0.000111
 91,0.00007233,0.00001492,0.00001431,-0.00001407,-0.00001261,-0.0000768
 6,0.00007764,0.00012398,0.00009347,-0.00037983,-0.00022252,0.00065975,
 -0.00025154,-0.00135219,-0.00040760,0.00014356,0.00061871,0.00079592,-
 0.00450211,-0.00497880,-0.00213743,0.00053302,0.00025316,-0.00404750,-
 0.11348679,-0.11822100,-0.00000412,0.00000070,0.00000105,0.00000019,0.
 00000054,-0.00000010,0.00000152,-0.00000084,0.00000217,-0.00000024,-0.
 00000035,-0.00000028,-0.00000073,-0.00000074,-0.00000122,0.00000009,-0
 .00000083,0.00000100,0.00000297,0.00000055,0.00000202,-0.00000033,-0.0
 0000367,-0.00000788,-0.00000205,0.00000944,0.00000093,0.00000611,0.000
 00623,0.00000348,-0.00011083,-0.00011311,0.00014942,-0.00007818,0.0002
 2092,-0.00005519,-0.00009871,0.00058629,0.00051074,0.00011486,0.000342
 67,0.00034958,0.00005774,0.00015815,-0.00067409,0.00012237,0.00005599,
 -0.00025068,-0.00237276,-0.01082261,-0.02198696,0.00121341,0.00993186,
 0.01661674,0.00596322,0.11722167,-0.00000081,0.00000461,0.00000844,-0.
 00000530,-0.00001196,-0.00000925,0.00003628,-0.00001633,-0.00000325,-0
 .00000285,0.00000065,-0.00000385,0.00002178,-0.00001363,0.00000249,-0.
 00006319,0.00000352,-0.00001295,0.00014628,-0.00006405,0.00001742,-0.0
 0006342,0.00005190,0.00003117,-0.00023167,0.00000056,0.00030374,0.0001
 6623,0.00037330,0.00006042,-0.00016660,-0.00002354,-0.00006129,0.00000
 166,0.00003244,-0.00001918,0.00008118,-0.00003132,0.00003096,0.0000111
 6,-0.00010360,-0.00009277,0.00111998,0.00078443,0.00052802,-0.00027867
 ,-0.00031280,0.00050309,0.00093899,-0.00227497,-0.00655852,-0.00273672
 ,0.00013436,0.00059310,-0.00735292,-0.11827914,-0.25312532,-0.00000254
 ,0.00000619,0.00000492,-0.00000604,0.00000297,0.00000294,0.00000170,-0
 .00000219,-0.00000154,0.00000188,-0.00000023,-0.00000099,0.00000222,0.
 00000131,-0.00000121,-0.00000658,-0.00000284,0.00000190,-0.00000011,0.
 00000352,-0.00000115,0.00000529,0.00000711,-0.00000564,-0.00000530,-0.
 00000424,0.00000575,0.00000477,-0.00000595,-0.00000182,-0.00000731,-0.
 00005036,0.00006236,-0.00011287,-0.00001454,0.00001045,-0.00017533,0.0
 0021092,0.00008607,0.00012605,-0.00003366,0.00002906,0.00012875,-0.000
 55947,-0.00048364,0.00013922,0.00005113,0.00047629,-0.00001056,0.00330
 447,0.00373826,-0.00162546,-0.01180798,-0.01652284,0.00992233,0.128640
 76,0.27041341,0.00095096,0.00105524,0.00041645,-0.00036490,0.00277677,
 0.00119048,0.00033630,-0.00131055,-0.00058587,-0.00008704,0.00011361,0
 .00012064,0.00011656,0.00004079,-0.00004574,0.00057149,0.00080282,-0.0
 0013602,-0.00090335,-0.00114427,0.00004672,-0.00020934,0.00079233,0.00
 033509,0.00002302,0.00017538,0.00010647,-0.00018547,-0.00032972,-0.000
 03944,0.00008986,0.00022531,-0.00001395,-0.00004243,-0.00010145,0.0000
 6558,0.00001796,0.00011437,-0.00001552,-0.00002415,-0.00001688,-0.0000
 0536,0.00000598,-0.00001439,-0.00002153,0.00002493,0.00000864,0.000011
 41,0.00001418,-0.00000683,0.00000555,-0.00000384,-0.00000073,-0.000000
 91,0.00000111,0.00000328,-0.00000412,-0.10870436,-0.11268231,-0.000478
 53,-0.00000947,0.00005645,0.00001699,0.00001226,-0.00011046,0.00012803
 ,0.00023231,-0.00036241,-0.00001777,0.00092075,0.00035259,-0.00045205,
 0.00039987,0.00003835,0.00008273,0.00016819,0.00006475,-0.00010747,0.0
 0000237,0.00000607,-0.00001249,-0.00001145,0.00007818,-0.00001251,0.00
 000232,0.00003039,-0.00000684,0.00000355,-0.00000058,-0.00000010,0.000
 00153,0.00000390,0.00000192,-0.00000011,0.00000692,-0.00000447,-0.0000
 0360,0.00000336,0.00000159,0.00000031,-0.00000325,0.00000209,0.0000016
 7,0.00000111,0.00000045,-0.00000358,0.00000211,0.00000031,0.00000159,0
 .00000039,0.00000005,0.00000246,0.00000037,0.00000294,0.11107271,-0.00
 073993,0.00055852,-0.00072098,-0.00692903,-0.01264176,-0.00027046,0.00
 078141,-0.00036752,-0.00096193,-0.00002427,0.00007199,0.00007195,-0.00
 060445,-0.00004044,-0.00069659,0.00021597,0.00047871,-0.00009068,-0.00
 040020,-0.00078098,0.00011811,-0.00009476,0.00056032,0.00019647,-0.000
 00456,0.00003393,0.00000593,0.00004224,-0.00006038,0.00002137,-0.00006
 417,0.00014893,-0.00004941,-0.00002018,-0.00005325,0.00000567,-0.00003
 972,0.00004985,-0.00001309,0.00000378,0.00000138,0.00000444,0.00001135
 ,-0.00000372,-0.00000291,0.00000459,-0.00000067,0.00000398,0.00000688,
 -0.00000729,0.00000048,0.00000037,0.00000115,-0.00000051,0.00000072,0.
 00000195,-0.00000015,-0.11263901,-0.24941629,0.00125213,-0.00005534,-0
 .00009893,-0.00000179,0.00020217,0.00033952,0.00003201,0.00074935,0.00
 007831,0.00042895,0.00088401,-0.00017562,0.00298076,0.00031334,0.00039
 560,-0.00022541,0.00036437,0.00017155,-0.00014867,-0.00000194,0.000006
 89,-0.00000127,-0.00000509,0.00002061,-0.00000137,-0.00000258,0.000013
 08,0.00000703,-0.00000173,-0.00000046,-0.00000352,-0.00000273,0.000000
 85,0.00000131,0.00000107,0.00000678,-0.00000152,-0.00000340,0.00000376
 ,-0.00000012,0.00000092,-0.00000400,-0.00000242,0.00000047,-0.00000143
 ,0.00000066,-0.00000318,0.00000305,-0.00000025,-0.00000003,-0.00000133
 ,0.00000064,0.00000158,-0.00000073,0.00000063,0.12380508,0.26949283,0.
 00118215,-0.00038178,0.00138356,0.01513697,0.02658823,0.00161674,0.000
 17890,0.00049214,0.00151557,-0.00030716,-0.00020501,0.00023330,0.00111
 315,-0.00037099,-0.00102085,-0.00076858,-0.00030333,0.00002440,0.00070
 931,0.00037611,0.00013762,-0.00002161,-0.00036429,-0.00003758,-0.00006
 091,-0.00003983,0.00000926,0.00012756,0.00005091,0.00002415,-0.0001822
 1,-0.00003209,-0.00006272,-0.00001810,-0.00004544,0.00001122,-0.000068
 09,0.00000156,-0.00002227,0.00001535,0.00000946,0.00000964,0.00002424,
 0.00000941,-0.00000140,-0.00000185,-0.00000153,-0.00000311,-0.00000587
 ,0.00001006,-0.00000496,0.00000014,-0.00000441,0.00000264,0.00000009,-
 0.00000439,0.00000484,-0.00029525,0.00138716,-0.04602616,-0.00011315,-
 0.00008108,-0.00006343,0.00009111,-0.00035375,0.00003448,-0.00067389,-
 0.00039009,0.00008906,-0.00063257,0.00268442,-0.00530532,-0.00056008,-
 0.00072788,-0.00090918,-0.00024114,0.00002268,0.00022165,-0.00000634,0
 .00000102,0.00000129,0.00001575,-0.00000187,0.00001490,0.00001760,-0.0
 0000124,-0.00000779,-0.00000327,-0.00000297,-0.00000356,-0.00000525,0.
 00000140,0.00000037,0.00000053,-0.00000082,-0.00000120,0.00000153,0.00
 000010,-0.00000087,0.00000081,0.00000280,-0.00000491,-0.00000325,-0.00
 000129,0.00000311,0.00000080,0.00000110,-0.00000010,-0.00000355,-0.000
 00164,0.00000162,0.00000096,0.00000055,-0.00000133,-0.00018987,-0.0032
 6977,0.04931279,0.00100926,0.00063966,-0.00047849,0.00022633,-0.000164
 95,-0.00027721,-0.00078025,0.00064646,0.00020751,-0.00001316,-0.000098
 70,-0.00011024,-0.00032943,0.00005094,-0.00028852,0.00000374,-0.000451
 53,-0.00007747,-0.00013297,0.00024815,0.00075381,0.00003627,0.00004023
 ,0.00137494,0.00007987,-0.00012554,-0.00014042,0.00002067,0.00033136,-
 0.00000872,0.00010106,-0.00017790,-0.00011758,0.00002593,0.00006976,-0
 .00002713,0.00008220,-0.00010272,0.00005961,-0.00001716,-0.00001199,-0
 .00001420,-0.00004545,-0.00003963,-0.00002648,0.00000078,0.00000772,0.
 00001075,0.00000462,-0.00000145,0.00000516,0.00000041,0.00000282,-0.00
 000118,-0.00000003,0.00000176,-0.00000651,-0.30100051,0.04001910,-0.06
 657236,0.00008713,-0.00015646,0.00011199,-0.00015816,-0.00006350,0.000
 13257,0.00015955,-0.00001200,0.00016418,0.00052191,0.00001057,-0.00023
 929,0.00003774,0.00008585,-0.00004552,0.00003443,-0.00000413,-0.000029
 44,0.00000462,-0.00000293,0.00000206,-0.00001194,-0.00004831,-0.000000
 85,-0.00001170,-0.00001758,0.00001463,0.00000606,0.00000089,0.00000418
 ,0.00000534,-0.00000390,0.00000006,-0.00000146,-0.00000186,-0.00000101
 ,0.00000035,-0.00000096,0.00000082,0.00000150,0.00000058,0.00000390,0.
 00000122,0.00000079,-0.00000122,0.00000099,-0.00000125,0.00000017,0.00
 000275,0.00000111,-0.00000024,0.00000010,0.00000091,0.00000197,-0.0105
 4585,0.00368746,-0.00234650,0.32037332,-0.00040584,-0.00109108,0.00304
 578,0.01439425,-0.00331177,0.00222986,0.00007006,0.00026560,-0.0005674
 8,0.00010055,-0.00008157,-0.00001852,-0.00051135,-0.00021416,-0.000093
 38,-0.00013538,-0.00027641,0.00001762,0.00007452,0.00008265,-0.0006715
 0,0.00003863,-0.00015414,-0.00036386,-0.00003434,-0.00024990,-0.000114
 00,0.00034050,0.00036958,-0.00001156,-0.00009402,-0.00013504,0.0001047
 2,0.00002573,0.00002363,-0.00006260,-0.00002128,-0.00012592,0.00002104
 ,0.00002955,0.00002020,0.00000022,-0.00000017,0.00002427,0.00003760,-0
 .00003256,-0.00000563,-0.00001627,-0.00002322,0.00001177,-0.00000969,0
 .00000470,-0.00000094,0.00000259,-0.00000134,-0.00000533,0.00000842,0.
 03888647,-0.05326720,0.01016954,-0.00042230,0.00017065,-0.00002548,0.0
 0094713,0.00017580,0.00055986,0.00029015,0.00013456,0.00016443,0.00046
 890,0.00012530,-0.00035210,0.00010997,0.00008766,0.00005816,0.00010141
 ,0.00000647,-0.00004933,0.00000265,0.00000638,0.00000501,-0.00001470,-
 0.00005401,-0.00000351,-0.00001193,-0.00001149,0.00001622,-0.00000195,
 -0.00000042,0.00000082,-0.00000208,-0.00000509,-0.00000057,0.00000059,
 -0.00000908,0.00000797,0.00000326,-0.00000394,-0.00000293,-0.00000053,
 0.00000274,-0.00000398,-0.00000138,-0.00000109,-0.00000090,0.00000444,
 -0.00000253,-0.00000070,-0.00000252,-0.00000059,-0.00000078,-0.0000037
 2,-0.00000077,-0.00000455,-0.02675768,0.00573939,-0.00670140,-0.044669
 20,0.05469686,0.00131703,0.00262400,-0.00548025,-0.02850806,0.00267262
 ,-0.00548122,-0.00157558,0.00003504,0.00096196,0.00001976,0.00016680,0
 .00029025,-0.00052565,0.00022920,-0.00039487,0.00111744,0.00071172,0.0
 0008739,0.00081891,-0.00312907,-0.00055642,0.00000280,0.00064388,0.000
 96566,-0.00028478,-0.00016762,0.00004962,0.00075263,0.00012203,0.00014
 150,-0.00081261,0.00029184,-0.00021625,-0.00005898,-0.00023529,-0.0000
 0110,-0.00034186,0.00007059,-0.00010911,0.00008266,0.00006254,0.000046
 82,0.00015184,0.00009743,0.00005911,-0.00004152,-0.00003091,-0.0000291
 7,-0.00002941,0.00001857,-0.00003346,0.00000472,-0.00001041,0.00000882
 ,-0.00000086,-0.00001048,0.00003092,-0.06422485,0.01035917,-0.06161058
 ,0.00005381,0.00015969,0.00016964,-0.00172606,0.00066213,-0.00051051,0
 .00022508,-0.00015553,0.00004272,0.00025242,0.00002333,0.00100440,0.00
 007436,0.00014941,0.00001338,0.00006945,-0.00002173,0.00003032,-0.0000
 1150,0.00003035,0.00000555,0.00002801,0.00002182,0.00000570,0.00001635
 ,0.00004390,0.00001197,-0.00002422,-0.00000378,-0.00001871,-0.00002551
 ,0.00000638,-0.00000293,0.00000938,0.00000533,0.00000176,0.00000180,0.
 00000246,-0.00000495,0.00000385,0.00000331,-0.00003038,-0.00001355,-0.
 00000836,0.00000947,-0.00000022,0.00000435,-0.00000225,-0.00001600,-0.
 00000841,0.00000448,0.00000092,-0.00000104,-0.00000919,0.00030348,-0.0
 0012706,-0.00133081,0.07136588,-0.01307523,0.06618163,0.00061603,-0.00
 065960,-0.00086918,-0.00061157,-0.00187217,-0.00280167,-0.00049546,0.0
 0008708,-0.00086400,0.00019372,0.00003934,-0.00007567,-0.00027007,0.00
 015595,-0.00023347,0.00035973,0.00024137,-0.00016685,0.00003214,-0.001
 22526,0.00008190,0.00016339,0.00037435,0.00113744,-0.00013112,-0.00012
 786,0.00000364,0.00038431,0.00012721,0.00003976,-0.00031090,0.00009919
 ,-0.00008931,-0.00002631,-0.00009912,-0.00001187,-0.00014736,-0.000001
 97,-0.00003897,0.00003995,0.00003224,0.00001840,0.00007154,0.00005372,
 0.00003741,-0.00002165,-0.00001227,-0.00001791,-0.00001787,0.00001256,
 -0.00001561,0.00000328,-0.00000519,0.00000481,-0.00000050,-0.00000546,
 0.00001630,-0.09066543,0.06662012,0.08026151,0.00015507,0.00024321,0.0
 0004809,0.00000069,-0.00012260,0.00013704,-0.00001907,-0.00006326,-0.0
 0005185,-0.00002456,0.00009223,0.00037644,0.00013097,0.00016288,0.0002
 2705,0.00012513,0.00005219,-0.00003172,-0.00000129,0.00001619,0.000000
 81,0.00000239,0.00000094,-0.00000205,0.00000497,0.00001467,0.00001081,
 -0.00000897,-0.00000135,-0.00000728,-0.00001093,0.00000145,-0.00000087
 ,0.00000480,-0.00000033,0.00000411,0.00000152,-0.00000044,-0.00000330,
 0.00000121,0.00000105,-0.00001365,-0.00000541,-0.00000336,0.00000362,0
 .00000126,0.00000062,-0.00000126,-0.00000747,-0.00000337,0.00000170,-0
 .00000134,-0.00000085,-0.00000637,0.00612469,-0.00944080,-0.01210848,-
 0.00978011,0.01725398,0.02154863,0.09414060,-0.00052087,0.00056554,0.0
 0012467,-0.00675005,0.00895601,0.01266798,0.00059681,-0.00164776,0.003
 14145,-0.00040757,0.00043558,0.00070153,-0.00017830,-0.00007200,0.0000
 6181,0.00028453,0.00031162,-0.00003920,-0.00064004,-0.00026617,-0.0000
 3325,0.00025052,0.00006642,-0.00041556,0.00007496,0.00005587,-0.000000
 07,-0.00020012,-0.00007916,-0.00002424,0.00014542,0.00006535,0.0000427
 3,-0.00000861,0.00001505,0.00002939,0.00009561,0.00000620,0.00002370,-
 0.00003113,-0.00001934,-0.00001472,-0.00004015,-0.00001733,-0.00001089
 ,0.00000764,0.00000677,0.00000563,0.00000511,-0.00000437,0.00000858,0.
 00000010,0.00000312,-0.00000236,0.00000015,0.00000261,-0.00000859,0.06
 664788,-0.13901482,-0.11526737,0.00002176,0.00009860,-0.00026780,-0.00
 025308,0.00005685,-0.00004884,0.00009366,-0.00010857,-0.00009499,-0.00
 027206,0.00080441,-0.00049581,0.00031726,0.00026455,0.00015807,0.00020
 493,0.00006030,-0.00013615,0.00000632,0.00000093,-0.00000691,-0.000015
 23,0.00003064,-0.00001084,-0.00000752,0.00000550,-0.00000282,0.0000051
 3,0.00000156,0.00000535,0.00000773,-0.00000110,-0.00000041,-0.00000216
 ,-0.00000202,0.00000001,-0.00000105,-0.00000143,0.00000135,-0.00000078
 ,-0.00000093,0.00000848,0.00000338,0.00000282,-0.00000329,0.00000034,-
 0.00000216,0.00000064,0.00000444,0.00000286,-0.00000176,-0.00000101,0.
 00000047,0.00000257,0.01228295,-0.01452412,-0.01835223,0.00031038,-0.0
 0293540,-0.00223298,-0.07203727,0.14687708,0.00100021,-0.00122584,0.00
 120060,0.01181934,-0.01808739,-0.02026777,-0.00152888,0.00456039,-0.00
 434856,0.00089434,-0.00086999,-0.00145232,0.00010413,0.00067528,0.0001
 4400,-0.00001832,-0.00035532,-0.00011432,-0.00034522,0.00066346,0.0000
 9672,-0.00041385,-0.00015573,0.00069729,0.00009947,0.00013754,0.000057
 91,-0.00032159,-0.00020136,-0.00010582,0.00049018,-0.00020308,0.000103
 40,0.00004972,0.00008888,-0.00000469,0.00013186,0.00000543,0.00003198,
 -0.00002967,-0.00002405,-0.00001525,-0.00004109,-0.00003319,-0.0000177
 5,0.00001818,0.00000928,0.00001246,0.00001092,-0.00000946,0.00000765,-
 0.00000667,0.00000184,-0.00000258,-0.00000045,0.00000426,-0.00000897,0
 .07942107,-0.11352112,-0.18055937,-0.00089137,0.00061466,0.00004082,0.
 00010140,0.00025518,0.00047566,-0.00005760,0.00001891,-0.00004559,0.00
 026402,0.00013480,0.00098644,-0.00004833,-0.00003095,0.00024949,-0.000
 05627,-0.00006213,0.00001367,0.00000361,-0.00001689,0.00000162,-0.0000
 1615,-0.00001738,-0.00000405,-0.00001481,-0.00000650,0.00000338,0.0000
 0853,0.00000194,0.00000759,0.00000839,-0.00000052,0.00000011,-0.000004
 15,-0.00000175,-0.00000304,0.00000065,-0.00000067,0.00000312,-0.000001
 16,0.00000124,0.00000925,0.00000346,0.00000320,-0.00000302,-0.00000014
 ,-0.00000142,0.00000100,0.00000528,0.00000279,-0.00000260,0.00000112,0
 .00000067,0.00000550,-0.00068842,0.00145734,0.00015533,-0.00340361,0.0
 0570047,0.00569907,-0.08654813,0.12048715,0.19695162\\-0.00069615,0.00
 078105,0.00196727,-0.00048866,-0.00066916,-0.00321969,0.01778800,-0.00
 989285,0.00506535,-0.00402325,-0.00083976,-0.00291815,0.00151181,-0.00
 568889,0.00008003,-0.01950353,-0.01404512,-0.00490363,-0.00098618,0.03
 492319,-0.00023944,0.00203975,-0.00137214,0.00130942,-0.00193864,-0.00
 206518,-0.00128640,0.00102033,0.03464497,0.00027525,0.00023672,-0.0096
 7338,0.00016544,0.00041750,0.00512634,0.00007276,0.01954068,-0.0140149
 3,0.00467995,-0.00149060,-0.00570952,-0.00013086,-0.01804696,-0.009616
 50,-0.00487541,0.00404068,-0.00081616,0.00287989,0.00053452,-0.0005441
 0,0.00321367,-0.00073816,0.00115135,-0.00137382,0.00068025,0.00073070,
 -0.00199494,0.00071702,0.00117717,0.00139117,-0.00093946,0.00028724,0.
 00014375,-0.00073889,-0.00032359,-0.00066800,0.00051027,0.00031649,-0.
 00021153,0.00041424,-0.00052042,0.00283095,-0.00102782,-0.00068105,-0.
 00023858,-0.00093261,-0.00013868,-0.00049085,0.00022861,-0.00024574,0.
 00005906,-0.00045464,-0.00105332,0.00002799,-0.00038089,-0.00111044,-0
 .00025371,0.00092823,-0.00009368,0.00049251,0.00102267,-0.00070836,0.0
 0024402,-0.00049917,-0.00061373,-0.00280149,-0.00018424,0.00053833,0.0
 0065352,0.00018188,-0.00024108,0.00213010,0.00103718,0.00021580,-0.000
 42934,-0.00049053,0.00032174,0.00021634,0.00093509,0.00028372,-0.00014
 638,0.00077458,-0.00031884,0.00066939,0.00019105,0.00054175,-0.0006675
 6,-0.00015126,-0.00026375,-0.00213949,-0.00103939,0.00022050,0.0004214
 1\\\@

 Writing a WFNX file to "15_lig_b.wfx"


 ALMOST ALL THE CHEMICAL PROCESSES WHICH OCCUR IN NATURE,
 WHETHER IN ANIMAL OR VEGETABLE ORGANISMS,
 OR IN THE NON-LIVING SURFACE OF THE EARTH ... 
 TAKE PLACE BETWEEN SUBSTANCES IN SOLUTION

                                    -- W. OSTWALD, 1890
 Job cpu time:       0 days  2 hours 33 minutes 52.8 seconds.
 Elapsed time:       0 days  0 hours 19 minutes 15.0 seconds.
 File lengths (MBytes):  RWF=    604 Int=      0 D2E=      0 Chk=     10 Scr=      1
 Normal termination of Gaussian 16 at Thu Nov  3 08:23:41 2022.
