 Entering Gaussian System, Link 0=g16
 Initial command:
 /software/gaussian/G16-A.03/avx/g16/l1.exe "/scratch/lcmd/1361346.slurm/Gau-40302.inp" -scrdir="/scratch/lcmd/1361346.slurm/"
 Entering Link 1 = /software/gaussian/G16-A.03/avx/g16/l1.exe PID=     40304.
  
 Copyright (c) 1988,1990,1992,1993,1995,1998,2003,2009,2016,
            Gaussian, Inc.  All Rights Reserved.
  
 This is part of the Gaussian(R) 16 program.  It is based on
 the Gaussian(R) 09 system (copyright 2009, Gaussian, Inc.),
 the Gaussian(R) 03 system (copyright 2003, Gaussian, Inc.),
 the Gaussian(R) 98 system (copyright 1998, Gaussian, Inc.),
 the Gaussian(R) 94 system (copyright 1995, Gaussian, Inc.),
 the Gaussian 92(TM) system (copyright 1992, Gaussian, Inc.),
 the Gaussian 90(TM) system (copyright 1990, Gaussian, Inc.),
 the Gaussian 88(TM) system (copyright 1988, Gaussian, Inc.),
 the Gaussian 86(TM) system (copyright 1986, Carnegie Mellon
 University), and the Gaussian 82(TM) system (copyright 1983,
 Carnegie Mellon University). Gaussian is a federally registered
 trademark of Gaussian, Inc.
  
 This software contains proprietary and confidential information,
 including trade secrets, belonging to Gaussian, Inc.
  
 This software is provided under written license and may be
 used, copied, transmitted, or stored only in accord with that
 written license.
  
 The following legend is applicable only to US Government
 contracts under FAR:
  
                    RESTRICTED RIGHTS LEGEND
  
 Use, reproduction and disclosure by the US Government is
 subject to restrictions as set forth in subparagraphs (a)
 and (c) of the Commercial Computer Software - Restricted
 Rights clause in FAR 52.227-19.
  
 Gaussian, Inc.
 340 Quinnipiac St., Bldg. 40, Wallingford CT 06492
  
  
 ---------------------------------------------------------------
 Warning -- This program may not be used in any manner that
 competes with the business of Gaussian, Inc. or will provide
 assistance to any competitor of Gaussian, Inc.  The licensee
 of this program is prohibited from giving any competitor of
 Gaussian, Inc. access to this program.  By using this program,
 the user acknowledges that Gaussian, Inc. is engaged in the
 business of creating and licensing software in the field of
 computational chemistry and represents and warrants to the
 licensee that it is not a competitor of Gaussian, Inc. and that
 it will not use this program in any manner prohibited above.
 ---------------------------------------------------------------
  

 Cite this work as:
 Gaussian 16, Revision A.03,
 M. J. Frisch, G. W. Trucks, H. B. Schlegel, G. E. Scuseria, 
 M. A. Robb, J. R. Cheeseman, G. Scalmani, V. Barone, 
 G. A. Petersson, H. Nakatsuji, X. Li, M. Caricato, A. V. Marenich, 
 J. Bloino, B. G. Janesko, R. Gomperts, B. Mennucci, H. P. Hratchian, 
 J. V. Ortiz, A. F. Izmaylov, J. L. Sonnenberg, D. Williams-Young, 
 F. Ding, F. Lipparini, F. Egidi, J. Goings, B. Peng, A. Petrone, 
 T. Henderson, D. Ranasinghe, V. G. Zakrzewski, J. Gao, N. Rega, 
 G. Zheng, W. Liang, M. Hada, M. Ehara, K. Toyota, R. Fukuda, 
 J. Hasegawa, M. Ishida, T. Nakajima, Y. Honda, O. Kitao, H. Nakai, 
 T. Vreven, K. Throssell, J. A. Montgomery, Jr., J. E. Peralta, 
 F. Ogliaro, M. J. Bearpark, J. J. Heyd, E. N. Brothers, K. N. Kudin, 
 V. N. Staroverov, T. A. Keith, R. Kobayashi, J. Normand, 
 K. Raghavachari, A. P. Rendell, J. C. Burant, S. S. Iyengar, 
 J. Tomasi, M. Cossi, J. M. Millam, M. Klene, C. Adamo, R. Cammi, 
 J. W. Ochterski, R. L. Martin, K. Morokuma, O. Farkas, 
 J. B. Foresman, and D. J. Fox, Gaussian, Inc., Wallingford CT, 2016.
 
 ******************************************
 Gaussian 16:  ES64L-G16RevA.03 25-Dec-2016
                 3-Nov-2022 
 ******************************************
 %nprocs=8
 Will use up to    8 processors via shared memory.
 %mem=32000MB
 %chk=16_lig_b.chk
 ----------------------------------------------------------------------
 #p pop=(regular,nbo,savenbos) freq=noraman def2svp empiricaldispersion
 =gd3bj output=wfx pbe1pbe
 ----------------------------------------------------------------------
 1/10=4,30=1,38=1/1,3;
 2/12=2,17=6,18=5,40=1/2;
 3/5=43,7=101,11=2,25=1,30=1,71=2,74=-13,124=41,140=1/1,2,3;
 4//1;
 5/5=2,38=5,98=1/2;
 8/6=4,10=90,11=11/1;
 11/6=1,8=1,9=11,15=111,16=1/1,2,10;
 10/6=1/2;
 6/28=1,40=1,73=1/1,7;
 7/8=1,10=1,25=1/1,2,3,16;
 1/10=4,30=1/3;
 99/6=200/99;
 Leave Link    1 at Thu Nov  3 08:04:21 2022, MaxMem=  4194304000 cpu:               0.4 elap:               0.1
 (Enter /software/gaussian/G16-A.03/avx/g16/l101.exe)
 --------
 16_lig_b
 --------
 Symbolic Z-matrix:
 Charge =  0 Multiplicity = 1
 C                     0.03934   3.81092   0.00829 
 N                     0.00429   2.35057  -0.01559 
 C                    -1.13251   1.67638  -0.39021 
 N                    -1.33623   0.41362  -0.33271 
 C                    -2.73124   0.1695   -0.70797 
 H                    -2.73289  -0.64074  -1.45309 
 C                    -3.13069   1.51867  -1.32421 
 O                    -2.12512   2.43592  -0.84309 
 C                    -3.58824  -0.27755   0.50303 
 C                    -3.63105   0.80893   1.57884 
 C                    -4.99938  -0.57173  -0.01137 
 C                    -3.00361  -1.55779   1.10404 
 N                     1.33466   0.40174   0.32427 
 C                     1.12803   1.66381   0.37383 
 O                     2.11125   2.43152   0.83153 
 C                     3.11969   1.52108   1.32005 
 C                     2.72759   0.16509   0.71175 
 H                     2.72628  -0.63948   1.46296 
 C                     3.59353  -0.28879  -0.49035 
 C                     5.00191  -0.57622   0.0352 
 C                     3.01512  -1.57435  -1.08614 
 C                     3.64104   0.79024  -1.5735 
 H                    -0.89011   4.18447  -0.42822 
 H                     0.89439   4.17468  -0.57518 
 H                     0.13588   4.17346   1.04076 
 H                    -4.10877   1.89808  -1.00598 
 H                    -3.07846   1.51809  -2.42327 
 H                    -4.23671   0.46964   2.43284 
 H                    -4.07473   1.75124   1.2191 
 H                    -2.6217    1.02353   1.96347 
 H                    -5.63972  -0.91829   0.81376 
 H                    -4.9811   -1.36355  -0.77633 
 H                    -5.48492   0.31567  -0.44889 
 H                    -3.68116  -1.94941   1.87865 
 H                    -2.02753  -1.38687   1.58469 
 H                    -2.85239  -2.33355   0.3395 
 H                     3.06569   1.52769   2.41894 
 H                     4.09724   1.90168   1.00149 
 H                     4.98047  -1.36321   0.80506 
 H                     5.48221   0.31519   0.47038 
 H                     5.64864  -0.92636  -0.78341 
 H                     2.86007  -2.34485  -0.31708 
 H                     3.69841  -1.97006  -1.85358 
 H                     2.04175  -1.40825  -1.57392 
 H                     4.08184   1.73549  -1.21783 
 H                     2.63364   1.0008   -1.96548 
 H                     4.25202   0.44579  -2.42162 
 
 ITRead=  0  0  0  0  0  0  0  0  0  0  0  0  0  0  0  0  0  0  0  0
 ITRead=  0  0  0  0  0  0  0  0  0  0  0  0  0  0  0  0  0  0  0  0
 ITRead=  0  0  0  0  0  0  0
 MicOpt= -1 -1 -1 -1 -1 -1 -1 -1 -1 -1 -1 -1 -1 -1 -1 -1 -1 -1 -1 -1
 MicOpt= -1 -1 -1 -1 -1 -1 -1 -1 -1 -1 -1 -1 -1 -1 -1 -1 -1 -1 -1 -1
 MicOpt= -1 -1 -1 -1 -1 -1 -1
 NAtoms=     47 NQM=       47 NQMF=       0 NMMI=      0 NMMIF=      0
                NMic=       0 NMicF=      0.
                    Isotopes and Nuclear Properties:
 (Nuclear quadrupole moments (NQMom) in fm**2, nuclear magnetic moments (NMagM)
  in nuclear magnetons)

  Atom         1           2           3           4           5           6           7           8           9          10
 IAtWgt=          12          14          12          14          12           1          12          16          12          12
 AtmWgt=  12.0000000  14.0030740  12.0000000  14.0030740  12.0000000   1.0078250  12.0000000  15.9949146  12.0000000  12.0000000
 NucSpn=           0           2           0           2           0           1           0           0           0           0
 AtZEff=  -0.0000000  -0.0000000  -0.0000000  -0.0000000  -0.0000000  -0.0000000  -0.0000000  -0.0000000  -0.0000000  -0.0000000
 NQMom=    0.0000000   2.0440000   0.0000000   2.0440000   0.0000000   0.0000000   0.0000000   0.0000000   0.0000000   0.0000000
 NMagM=    0.0000000   0.4037610   0.0000000   0.4037610   0.0000000   2.7928460   0.0000000   0.0000000   0.0000000   0.0000000
 AtZNuc=   6.0000000   7.0000000   6.0000000   7.0000000   6.0000000   1.0000000   6.0000000   8.0000000   6.0000000   6.0000000

  Atom        11          12          13          14          15          16          17          18          19          20
 IAtWgt=          12          12          14          12          16          12          12           1          12          12
 AtmWgt=  12.0000000  12.0000000  14.0030740  12.0000000  15.9949146  12.0000000  12.0000000   1.0078250  12.0000000  12.0000000
 NucSpn=           0           0           2           0           0           0           0           1           0           0
 AtZEff=  -0.0000000  -0.0000000  -0.0000000  -0.0000000  -0.0000000  -0.0000000  -0.0000000  -0.0000000  -0.0000000  -0.0000000
 NQMom=    0.0000000   0.0000000   2.0440000   0.0000000   0.0000000   0.0000000   0.0000000   0.0000000   0.0000000   0.0000000
 NMagM=    0.0000000   0.0000000   0.4037610   0.0000000   0.0000000   0.0000000   0.0000000   2.7928460   0.0000000   0.0000000
 AtZNuc=   6.0000000   6.0000000   7.0000000   6.0000000   8.0000000   6.0000000   6.0000000   1.0000000   6.0000000   6.0000000

  Atom        21          22          23          24          25          26          27          28          29          30
 IAtWgt=          12          12           1           1           1           1           1           1           1           1
 AtmWgt=  12.0000000  12.0000000   1.0078250   1.0078250   1.0078250   1.0078250   1.0078250   1.0078250   1.0078250   1.0078250
 NucSpn=           0           0           1           1           1           1           1           1           1           1
 AtZEff=  -0.0000000  -0.0000000  -0.0000000  -0.0000000  -0.0000000  -0.0000000  -0.0000000  -0.0000000  -0.0000000  -0.0000000
 NQMom=    0.0000000   0.0000000   0.0000000   0.0000000   0.0000000   0.0000000   0.0000000   0.0000000   0.0000000   0.0000000
 NMagM=    0.0000000   0.0000000   2.7928460   2.7928460   2.7928460   2.7928460   2.7928460   2.7928460   2.7928460   2.7928460
 AtZNuc=   6.0000000   6.0000000   1.0000000   1.0000000   1.0000000   1.0000000   1.0000000   1.0000000   1.0000000   1.0000000

  Atom        31          32          33          34          35          36          37          38          39          40
 IAtWgt=           1           1           1           1           1           1           1           1           1           1
 AtmWgt=   1.0078250   1.0078250   1.0078250   1.0078250   1.0078250   1.0078250   1.0078250   1.0078250   1.0078250   1.0078250
 NucSpn=           1           1           1           1           1           1           1           1           1           1
 AtZEff=  -0.0000000  -0.0000000  -0.0000000  -0.0000000  -0.0000000  -0.0000000  -0.0000000  -0.0000000  -0.0000000  -0.0000000
 NQMom=    0.0000000   0.0000000   0.0000000   0.0000000   0.0000000   0.0000000   0.0000000   0.0000000   0.0000000   0.0000000
 NMagM=    2.7928460   2.7928460   2.7928460   2.7928460   2.7928460   2.7928460   2.7928460   2.7928460   2.7928460   2.7928460
 AtZNuc=   1.0000000   1.0000000   1.0000000   1.0000000   1.0000000   1.0000000   1.0000000   1.0000000   1.0000000   1.0000000

  Atom        41          42          43          44          45          46          47
 IAtWgt=           1           1           1           1           1           1           1
 AtmWgt=   1.0078250   1.0078250   1.0078250   1.0078250   1.0078250   1.0078250   1.0078250
 NucSpn=           1           1           1           1           1           1           1
 AtZEff=  -0.0000000  -0.0000000  -0.0000000  -0.0000000  -0.0000000  -0.0000000  -0.0000000
 NQMom=    0.0000000   0.0000000   0.0000000   0.0000000   0.0000000   0.0000000   0.0000000
 NMagM=    2.7928460   2.7928460   2.7928460   2.7928460   2.7928460   2.7928460   2.7928460
 AtZNuc=   1.0000000   1.0000000   1.0000000   1.0000000   1.0000000   1.0000000   1.0000000
 Leave Link  101 at Thu Nov  3 08:04:22 2022, MaxMem=  4194304000 cpu:               1.0 elap:               0.1
 (Enter /software/gaussian/G16-A.03/avx/g16/l103.exe)

 GradGradGradGradGradGradGradGradGradGradGradGradGradGradGradGradGradGrad
 Berny optimization.
 Initialization pass.
 Trust Radius=3.00D-01 FncErr=1.00D-07 GrdErr=1.00D-07 EigMax=2.50D+02 EigMin=1.00D-04
 Number of steps in this run=      2 maximum allowed number of steps=      2.
 GradGradGradGradGradGradGradGradGradGradGradGradGradGradGradGradGradGrad

 Leave Link  103 at Thu Nov  3 08:04:22 2022, MaxMem=  4194304000 cpu:               0.2 elap:               0.0
 (Enter /software/gaussian/G16-A.03/avx/g16/l202.exe)
                          Input orientation:                          
 ---------------------------------------------------------------------
 Center     Atomic      Atomic             Coordinates (Angstroms)
 Number     Number       Type             X           Y           Z
 ---------------------------------------------------------------------
      1          6           0        0.039340    3.810920    0.008290
      2          7           0        0.004290    2.350570   -0.015590
      3          6           0       -1.132510    1.676380   -0.390210
      4          7           0       -1.336230    0.413620   -0.332710
      5          6           0       -2.731240    0.169500   -0.707970
      6          1           0       -2.732890   -0.640740   -1.453090
      7          6           0       -3.130690    1.518670   -1.324210
      8          8           0       -2.125120    2.435920   -0.843090
      9          6           0       -3.588240   -0.277550    0.503030
     10          6           0       -3.631050    0.808930    1.578840
     11          6           0       -4.999380   -0.571730   -0.011370
     12          6           0       -3.003610   -1.557790    1.104040
     13          7           0        1.334660    0.401740    0.324270
     14          6           0        1.128030    1.663810    0.373830
     15          8           0        2.111250    2.431520    0.831530
     16          6           0        3.119690    1.521080    1.320050
     17          6           0        2.727590    0.165090    0.711750
     18          1           0        2.726280   -0.639480    1.462960
     19          6           0        3.593530   -0.288790   -0.490350
     20          6           0        5.001910   -0.576220    0.035200
     21          6           0        3.015120   -1.574350   -1.086140
     22          6           0        3.641040    0.790240   -1.573500
     23          1           0       -0.890110    4.184470   -0.428220
     24          1           0        0.894390    4.174680   -0.575180
     25          1           0        0.135880    4.173460    1.040760
     26          1           0       -4.108770    1.898080   -1.005980
     27          1           0       -3.078460    1.518090   -2.423270
     28          1           0       -4.236710    0.469640    2.432840
     29          1           0       -4.074730    1.751240    1.219100
     30          1           0       -2.621700    1.023530    1.963470
     31          1           0       -5.639720   -0.918290    0.813760
     32          1           0       -4.981100   -1.363550   -0.776330
     33          1           0       -5.484920    0.315670   -0.448890
     34          1           0       -3.681160   -1.949410    1.878650
     35          1           0       -2.027530   -1.386870    1.584690
     36          1           0       -2.852390   -2.333550    0.339500
     37          1           0        3.065690    1.527690    2.418940
     38          1           0        4.097240    1.901680    1.001490
     39          1           0        4.980470   -1.363210    0.805060
     40          1           0        5.482210    0.315190    0.470380
     41          1           0        5.648640   -0.926360   -0.783410
     42          1           0        2.860070   -2.344850   -0.317080
     43          1           0        3.698410   -1.970060   -1.853580
     44          1           0        2.041750   -1.408250   -1.573920
     45          1           0        4.081840    1.735490   -1.217830
     46          1           0        2.633640    1.000800   -1.965480
     47          1           0        4.252020    0.445790   -2.421620
 ---------------------------------------------------------------------
                    Distance matrix (angstroms):
                    1          2          3          4          5
     1  C    0.000000
     2  N    1.460966   0.000000
     3  C    2.467447   1.373749   0.000000
     4  N    3.681049   2.376833   1.280379   0.000000
     5  C    4.631315   3.566452   2.219819   1.465083   0.000000
     6  H    5.444095   4.301918   3.009979   2.077880   1.100770
     7  C    4.132682   3.497520   2.211324   2.329011   1.536090
     8  O    2.701918   2.286138   1.329389   2.229918   2.349957
     9  C    5.488141   4.481323   3.262871   2.499545   1.549459
    10  C    4.995031   4.258469   3.297322   3.012722   2.539297
    11  C    6.678077   5.794529   4.488898   3.806947   2.485786
    12  C    6.267636   5.057303   4.024134   2.954804   2.518153
    13  N    3.660629   2.383973   2.867423   2.750530   4.201309
    14  C    2.434943   1.373346   2.386201   2.852149   4.277525
    15  O    2.621694   2.272322   3.547515   4.160828   5.562059
    16  C    4.056185   3.489657   4.585882   4.879888   6.338219
    17  C    4.584062   3.566751   4.289369   4.203248   5.640430
    18  H    5.398312   4.305315   4.867002   4.564804   5.928905
    19  C    5.448718   4.480431   5.119314   4.982044   6.345085
    20  C    6.623807   5.791795   6.548762   6.425509   7.804486
    21  C    6.249334   5.061242   5.315487   4.842926   6.017032
    22  C    4.959719   4.252959   4.997219   5.143405   6.460682
    23  H    1.092684   2.081683   2.520063   3.798349   4.425834
    24  H    1.097210   2.105421   3.222428   4.379501   5.404100
    25  H    1.098522   2.110952   3.145139   4.264965   5.225909
    26  H    4.679158   4.254748   3.047367   3.216192   2.230334
    27  H    4.570583   3.999162   2.818707   2.936947   2.209414
    28  H    5.943669   5.245835   4.365992   4.008016   3.495885
    29  H    4.757511   4.303726   3.354421   3.420047   2.832043
    30  H    4.321274   3.545918   2.860718   2.701271   2.806770
    31  H    7.434106   6.574809   5.338239   4.648484   3.458064
    32  H    7.252281   6.263188   4.919543   4.079241   2.723378
    33  H    6.553109   5.870263   4.560532   4.151472   2.769701
    34  H    7.107867   5.971643   4.978925   3.996589   3.476022
    35  H    5.811541   4.545068   3.752971   2.719574   2.858983
    36  H    6.798994   5.497971   4.423800   3.208980   2.716087
    37  H    4.492568   3.997029   5.053545   5.309391   6.725076
    38  H    4.593277   4.241249   5.416445   5.789388   7.249196
    39  H    7.198696   6.263226   6.930823   6.659756   8.006805
    40  H    6.485252   5.864004   6.807935   6.866277   8.298825
    41  H    7.384637   6.571644   7.274122   7.126506   8.451567
    42  H    6.779077   5.503939   5.667127   5.021786   6.143085
    43  H    7.090492   5.974326   6.227019   5.774303   6.872448
    44  H    5.809713   4.550644   4.581707   4.033678   5.101039
    45  H    4.706653   4.295360   5.279952   5.646792   7.009304
    46  H    4.303828   3.540824   4.137846   4.332503   5.572641
    47  H    5.913986   5.240265   5.885078   5.965997   7.195752
                    6          7          8          9         10
     6  H    0.000000
     7  C    2.199524   0.000000
     8  O    3.194890   1.443605   0.000000
     9  C    2.165626   2.602799   3.363879   0.000000
    10  C    3.478625   3.030147   3.283393   1.529588   0.000000
    11  C    2.687061   3.096017   4.242533   1.530511   2.511437
    12  C    2.730052   3.921371   4.529104   1.530366   2.494089
    13  N    4.559686   4.889210   4.179796   4.972759   5.137901
    14  C    4.853379   4.587058   3.558094   5.101840   4.983143
    15  O    6.174460   5.740945   4.555349   6.319111   6.013758
    16  C    6.827625   6.786705   5.746663   6.992776   6.793130
    17  C    5.928974   6.347973   5.578798   6.334761   6.449704
    18  H    6.189175   6.835936   6.189672   6.397314   6.521270
    19  C    6.408926   7.012658   6.344401   7.250155   7.594807
    20  C    7.876947   8.507393   7.787101   8.608063   8.878596
    21  C    5.834886   6.884361   6.524064   6.914587   7.546769
    22  C    6.533696   6.815356   6.040725   7.597015   7.925963
    23  H    5.265819   3.595760   2.180549   5.296863   4.789083
    24  H    6.092303   4.880236   3.494639   6.409279   6.037192
    25  H    6.133975   4.828196   3.417610   5.828354   5.079306
    26  H    2.922081   1.096295   2.061716   2.698412   2.845305
    27  H    2.391906   1.100301   2.061125   3.470941   4.101847
    28  H    4.312177   4.054524   4.365408   2.168634   1.100572
    29  H    3.829191   2.722816   2.919314   2.205769   1.101913
    30  H    3.801978   3.363491   3.180914   2.181718   1.101263
    31  H    3.696661   4.099381   5.133059   2.171560   2.757425
    32  H    2.456605   3.468628   4.753636   2.180875   3.476943
    33  H    3.081689   2.784922   3.992381   2.203510   2.791385
    34  H    3.703016   4.752779   5.390756   2.167044   2.775038
    35  H    3.206610   4.256856   4.529610   2.199181   2.718979
    36  H    2.468454   4.205351   4.967422   2.189830   3.466620
    37  H    7.301934   7.239225   6.197599   7.155724   6.787394
    38  H    7.690224   7.602536   6.511962   8.004006   7.826487
    39  H    8.069518   8.867352   8.224305   8.642492   8.914887
    40  H    8.491255   8.879807   8.005883   9.089855   9.193692
    41  H    8.413091   9.129473   8.469937   9.348574   9.731603
    42  H    5.956149   7.199327   6.927089   6.821071   7.461600
    43  H    6.579446   7.686877   7.372059   7.843052   8.557177
    44  H    4.837443   5.948391   5.716167   6.106471   6.858312
    45  H    7.220967   7.216572   6.257586   8.114420   8.256425
    46  H    5.635321   5.822965   5.095599   6.814654   7.200372
    47  H    7.134954   7.540543   6.864422   8.399195   8.847505
                   11         12         13         14         15
    11  C    0.000000
    12  C    2.489890   0.000000
    13  N    6.417193   4.823732   0.000000
    14  C    6.533848   5.289836   1.279833   0.000000
    15  O    7.764731   6.492353   2.231684   1.328755   0.000000
    16  C    8.489513   6.857179   2.330415   2.209618   1.443781
    17  C    7.795632   5.997404   1.465059   2.217869   2.351792
    18  H    7.865371   5.814100   2.077826   3.007616   3.194997
    19  C    8.610899   6.904687   2.498586   3.261617   3.368176
    20  C   10.001399   8.135985   3.806401   4.487689   4.246947
    21  C    8.148165   6.404863   2.952649   4.022226   4.532266
    22  C    8.885498   7.538822   3.011952   3.297035   3.289107
    23  H    6.299310   6.307793   4.452515   3.327146   3.697021
    24  H    7.588334   7.132699   3.903578   2.694379   2.549154
    25  H    7.070693   6.535107   4.021978   2.779838   2.642010
    26  H    2.807561   4.197213   5.799959   5.420593   6.507661
    27  H    3.724855   4.680658   5.317033   5.053668   6.193639
    28  H    2.764106   2.719691   5.957419   5.869071   6.834454
    29  H    2.786615   3.479974   5.646536   5.271702   6.235330
    30  H    3.478248   2.747306   4.327399   4.122789   5.066018
    31  H    1.100445   2.728058   7.115058   7.256943   8.443878
    32  H    1.101125   2.735688   6.649541   6.914423   8.202999
    33  H    1.102112   3.475391   6.863808   6.798931   7.988623
    34  H    2.684750   1.101118   5.753473   6.200657   7.337644
    35  H    3.470411   1.101349   4.011497   4.553064   5.681272
    36  H    2.799408   1.099633   5.001343   5.641260   6.898239
    37  H    8.680975   6.934375   2.941406   2.820555   2.061003
    38  H    9.481146   7.899400   3.215633   3.044133   2.062468
    39  H   10.044422   7.992045   4.078987   4.918344   4.757426
    40  H   10.530073   8.713135   4.151025   4.559274   3.996580
    41  H   10.681860   8.878209   4.647712   5.337050   5.137754
    42  H    8.062777   6.084553   3.206550   4.421162   4.969280
    43  H    9.000034   7.337203   3.994469   4.977270   5.394701
    44  H    7.260774   5.713973   2.716462   3.750489   4.531540
    45  H    9.447082   8.151097   3.421105   3.356116   2.927039
    46  H    8.034575   6.909915   2.699848   2.859863   3.184826
    47  H    9.614211   8.311966   4.006600   4.365481   4.371385
                   16         17         18         19         20
    16  C    0.000000
    17  C    1.537036   0.000000
    18  H    2.200730   1.100750   0.000000
    19  C    2.603402   1.549485   2.165762   0.000000
    20  C    3.097137   2.485919   2.687190   1.530475   0.000000
    21  C    3.922037   2.518081   2.730443   1.530421   2.490181
    22  C    3.029615   2.539207   3.478645   1.529633   2.511393
    23  H    5.121386   5.526545   6.318650   6.333794   7.589126
    24  H    3.947841   4.592779   5.539492   5.216811   6.309939
    25  H    4.002030   4.784583   5.482045   5.849044   6.873781
    26  H    7.602840   7.258765   7.697583   8.023322   9.497932
    27  H    7.240823   6.735664   7.311149   7.177496   8.701873
    28  H    7.514017   7.180277   7.117165   8.392432   9.601802
    29  H    7.198808   7.003202   7.213096   8.117029   9.444791
    30  H    5.798716   5.560452   5.622900   6.809736   8.024765
    31  H    9.106817   8.437772   8.395782   9.346116  10.675554
    32  H    8.850915   7.998439   8.058685   8.646454  10.046838
    33  H    8.866875   8.295486   8.484768   9.098645  10.535816
    34  H    7.655579   6.848711   6.553167   7.828853   8.982186
    35  H    5.917777   5.077575   4.813743   6.091624   7.243694
    36  H    7.175332   6.125190   5.937474   6.813192   8.054243
    37  H    1.100236   2.210314   2.392848   3.470185   3.722580
    38  H    1.096331   2.230613   2.924035   2.697678   2.809294
    39  H    3.470857   2.723945   2.457232   2.180841   1.101135
    40  H    2.785249   2.769246   3.080870   2.203385   1.102126
    41  H    4.100012   3.458222   3.697116   2.171602   1.100445
    42  H    4.206306   2.715850   2.468750   2.189833   2.799934
    43  H    4.753410   3.475957   3.703366   2.167041   2.685031
    44  H    4.256523   2.858332   3.206591   2.198940   3.470459
    45  H    2.722598   2.832566   3.829446   2.205761   2.785788
    46  H    3.361792   2.806207   3.801750   2.181843   3.478278
    47  H    4.054444   3.495810   4.312268   2.168645   2.764562
                   21         22         23         24         25
    21  C    0.000000
    22  C    2.494109   0.000000
    23  H    6.989112   5.776139   0.000000
    24  H    6.148977   4.471595   1.790568   0.000000
    25  H    6.771340   5.528714   1.791837   1.785105   0.000000
    26  H    7.925529   7.849136   3.990133   5.513629   5.232930
    27  H    6.962961   6.812015   3.984806   5.124104   5.420560
    28  H    8.315657   8.843783   5.760673   7.007403   5.897094
    29  H    8.163311   8.261673   4.333137   5.812457   4.860884
    30  H    6.915406   7.196283   4.325520   5.360726   4.286922
    31  H    8.885172   9.733992   7.080923   8.400124   7.702922
    32  H    8.004996   8.922757   6.902022   8.076747   7.755242
    33  H    8.730919   9.207231   6.006690   7.456776   6.978180
    34  H    7.332859   8.546206   7.122927   8.028787   7.263704
    35  H    5.709361   6.844462   6.032028   6.643304   5.991116
    36  H    6.085763   7.455352   6.850148   7.565187   7.194630
    37  H    4.680897   4.100541   5.550960   4.548170   4.181300
    38  H    4.196661   2.841477   5.668233   4.232099   4.566716
    39  H    2.735657   3.476919   8.170768   7.019212   7.360728
    40  H    3.475579   2.791599   7.509013   6.085799   6.617766
    41  H    2.728913   2.757066   8.306744   6.976164   7.728278
    42  H    1.099620   3.466597   7.530486   6.814307   7.193977
    43  H    1.101107   2.775066   7.807971   6.874203   7.668876
    44  H    1.101348   2.718655   6.417706   5.786452   6.451696
    45  H    3.479982   1.101954   5.598328   4.064786   5.159024
    46  H    2.747756   1.101290   4.991567   3.877040   5.034089
    47  H    2.719264   1.100568   6.662798   5.346741   6.544174
                   26         27         28         29         30
    26  H    0.000000
    27  H    1.792942   0.000000
    28  H    3.725895   5.101235   0.000000
    29  H    2.230180   3.783355   1.772541   0.000000
    30  H    3.434217   4.438097   1.770695   1.787441   0.000000
    31  H    3.686082   4.793158   2.552686   3.120879   3.768414
    32  H    3.384070   3.825742   3.770076   3.808565   4.332600
    33  H    2.169829   3.336921   3.144217   2.613750   3.810325
    34  H    4.827745   5.558176   2.543141   3.779512   3.157217
    35  H    4.672690   5.060335   3.007734   3.764627   2.511283
    36  H    4.614705   4.745433   3.762484   4.353541   3.736373
    37  H    7.958652   7.822894   7.378666   7.243976   5.727830
    38  H    8.447991   7.960326   8.576376   8.176251   6.844027
    39  H    9.824976   9.147150   9.537579   9.584773   8.051797
    40  H    9.832196   9.116208   9.916275   9.693190   8.270696
    41  H   10.160416   9.210144  10.488719  10.282194   8.930058
    42  H    8.187904   7.390838   8.114660   8.199345   6.826177
    43  H    8.754027   7.643148   9.343001   9.149379   7.967135
    44  H    7.005945   5.958306   7.681123   7.429311   6.338332
    45  H    8.194962   7.264313   9.172134   8.512844   7.454194
    46  H    6.869195   5.753716   8.174904   7.463708   6.561689
    47  H    8.603255   7.408493   9.778798   9.181166   8.173789
                   31         32         33         34         35
    31  H    0.000000
    32  H    1.777758   0.000000
    33  H    1.772260   1.783489   0.000000
    34  H    2.456248   3.013635   3.715048   0.000000
    35  H    3.723146   3.781340   4.357480   1.771258   0.000000
    36  H    3.161818   2.591791   3.817085   1.789806   1.768359
    37  H    9.183876   9.127971   9.099801   7.609344   5.927185
    38  H   10.138829   9.810129   9.820225   8.723750   6.976209
    39  H   10.629509  10.086311  10.673117   8.747575   7.051273
    40  H   11.195388  10.670207  11.005589   9.543531   7.780417
    41  H   11.400793  10.638729  11.207618   9.755940   8.046338
    42  H    8.692543   7.915668   8.759829   6.911244   5.331331
    43  H    9.768398   8.767110   9.567197   8.269705   6.704342
    44  H    8.058912   7.068138   7.803099   6.705579   5.151341
    45  H   10.280011   9.588319   9.702064   9.134049   7.411319
    46  H    8.936194   8.061544   8.287368   7.959760   6.327020
    47  H   10.496424   9.551502   9.935623   9.336201   7.670848
                   36         37         38         39         40
    36  H    0.000000
    37  H    7.365929   0.000000
    38  H    8.165339   1.792520   0.000000
    39  H    7.906453   3.824695   3.387947   0.000000
    40  H    8.746343   3.332658   2.171905   1.783474   0.000000
    41  H    8.689570   4.790515   3.686532   1.777787   1.772325
    42  H    5.750080   4.746014   4.615434   2.592086   3.817267
    43  H    6.917710   5.557789   4.827097   3.013356   3.715522
    44  H    5.335725   5.060744   4.670483   3.781223   4.357313
    45  H    8.189378   3.781777   2.225587   3.808092   2.613109
    46  H    6.821096   4.437051   3.428793   4.332672   3.810227
    47  H    8.113024   5.099893   3.723071   3.770223   3.145487
                   41         42         43         44         45
    41  H    0.000000
    42  H    3.163179   0.000000
    43  H    2.457228   1.790004   0.000000
    44  H    3.723812   1.768195   1.771542   0.000000
    45  H    3.119139   4.353533   3.779193   3.764554   0.000000
    46  H    3.768482   3.736558   3.157889   2.511409   1.787745
    47  H    2.552856   3.762218   2.542732   3.006884   1.772399
                   46         47
    46  H    0.000000
    47  H    1.770665   0.000000
 Stoichiometry    C15H27N3O2
 Framework group  C1[X(C15H27N3O2)]
 Deg. of freedom   135
 Full point group                 C1      NOp   1
 Largest Abelian subgroup         C1      NOp   1
 Largest concise Abelian subgroup C1      NOp   1
                         Standard orientation:                         
 ---------------------------------------------------------------------
 Center     Atomic      Atomic             Coordinates (Angstroms)
 Number     Number       Type             X           Y           Z
 ---------------------------------------------------------------------
      1          6           0        0.033473    3.070914    0.016458
      2          7           0        0.000717    1.610605   -0.012621
      3          6           0       -1.121886    0.936435   -0.427886
      4          7           0       -1.326202   -0.326662   -0.380879
      5          6           0       -2.707268   -0.570995   -0.804464
      6          1           0       -2.682540   -1.379162   -1.551424
      7          6           0       -3.086678    0.779522   -1.430342
      8          8           0       -2.099125    1.696337   -0.912478
      9          6           0       -3.604876   -1.022180    0.375178
     10          6           0       -3.685662    0.061267    1.451865
     11          6           0       -4.997239   -1.316200   -0.188155
     12          6           0       -3.039942   -2.303558    0.992381
     13          7           0        1.320580   -0.337963    0.367343
     14          6           0        1.111115    0.923778    0.413248
     15          8           0        2.077284    1.691099    0.906529
     16          6           0        3.069271    0.780213    1.426869
     17          6           0        2.699627   -0.574434    0.801749
     18          1           0        2.673339   -1.381089    1.550259
     19          6           0        3.606761   -1.024192   -0.371166
     20          6           0        4.996562   -1.311812    0.201619
     21          6           0        3.050418   -2.308611   -0.989984
     22          6           0        3.690340    0.057887   -1.449080
     23          1           0       -0.880821    3.444839   -0.450666
     24          1           0        0.907680    3.437064   -0.536322
     25          1           0        0.094164    3.430671    1.052625
     26          1           0       -4.075480    1.157165   -1.144827
     27          1           0       -2.996762    0.782043   -2.526960
     28          1           0       -4.319934   -0.280940    2.283641
     29          1           0       -4.117673    1.004173    1.079699
     30          1           0       -2.690320    0.275707    1.871497
     31          1           0       -5.665173   -1.665628    0.613558
     32          1           0       -4.951930   -2.105875   -0.954208
     33          1           0       -5.468362   -0.428025   -0.639642
     34          1           0       -3.743285   -2.697939    1.742202
     35          1           0       -2.081102   -2.133095    1.506714
     36          1           0       -2.861802   -3.077054    0.231353
     37          1           0        2.977585    0.783721    2.523272
     38          1           0        4.056798    1.162577    1.143093
     39          1           0        4.949498   -2.100958    0.968125
     40          1           0        5.460757   -0.421183    0.655472
     41          1           0        5.671351   -1.659094   -0.595272
     42          1           0        2.869834   -3.081385   -0.228817
     43          1           0        3.760035   -2.701572   -1.734605
     44          1           0        2.094195   -2.142033   -1.510425
     45          1           0        4.117733    1.002541   -1.075897
     46          1           0        2.696776    0.268628   -1.874823
     47          1           0        4.330408   -0.283655   -2.276674
 ---------------------------------------------------------------------
 Rotational constants (GHZ):           0.6174092           0.1873851           0.1657623
 Leave Link  202 at Thu Nov  3 08:04:22 2022, MaxMem=  4194304000 cpu:               0.1 elap:               0.0
 (Enter /software/gaussian/G16-A.03/avx/g16/l301.exe)
 Standard basis: def2SVP (5D, 7F)
 Ernie: Thresh=  0.10000D-02 Tol=  0.10000D-05 Strict=F.
 There are   435 symmetry adapted cartesian basis functions of A   symmetry.
 There are   415 symmetry adapted basis functions of A   symmetry.
   415 basis functions,   689 primitive gaussians,   435 cartesian basis functions
    77 alpha electrons       77 beta electrons
       nuclear repulsion energy      1730.5551585254 Hartrees.
 IExCor= 1009 DFT=T Ex+Corr=PBE1PBE ExCW=0 ScaHFX=  0.250000
 ScaDFX=  0.750000  0.750000  1.000000  1.000000 ScalE2=  1.000000  1.000000
 IRadAn=      5 IRanWt=     -1 IRanGd=            0 ICorTp=0 IEmpDi=141
 NAtoms=   47 NActive=   47 NUniq=   47 SFac= 1.00D+00 NAtFMM=   60 NAOKFM=F Big=F
 Integral buffers will be    131072 words long.
 Raffenetti 2 integral format.
 Two-electron integral symmetry is turned on.
 R6Disp:  Grimme-D3(BJ) Dispersion energy=       -0.0484422412 Hartrees.
 Nuclear repulsion after empirical dispersion term =     1730.5067162842 Hartrees.
 Leave Link  301 at Thu Nov  3 08:04:22 2022, MaxMem=  4194304000 cpu:               0.6 elap:               0.1
 (Enter /software/gaussian/G16-A.03/avx/g16/l302.exe)
 NPDir=0 NMtPBC=     1 NCelOv=     1 NCel=       1 NClECP=     1 NCelD=      1
         NCelK=      1 NCelE2=     1 NClLst=     1 CellRange=     0.0.
 One-electron integrals computed using PRISM.
 One-electron integral symmetry used in STVInt
   1 Symmetry operations used in ECPInt.
 ECPInt:  NShTT=   20301 NPrTT=   70841 LenC2=   18146 LenP2D=   44573.
 LDataN:  DoStor=T MaxTD1= 4 Len=   56
 NBasis=   415 RedAO= T EigKep=  9.98D-04  NBF=   415
 NBsUse=   415 1.00D-06 EigRej= -1.00D+00 NBFU=   415
 Precomputing XC quadrature grid using
 IXCGrd= 4 IRadAn=           5 IRanWt=          -1 IRanGd=           0 AccXCQ= 0.00D+00.
 Generated NRdTot=       0 NPtTot=           0 NUsed=           0 NTot=          32
 NSgBfM=   432   432   432   432   432 MxSgAt=    47 MxSgA2=    47.
 Leave Link  302 at Thu Nov  3 08:04:23 2022, MaxMem=  4194304000 cpu:               8.2 elap:               1.1
 (Enter /software/gaussian/G16-A.03/avx/g16/l303.exe)
 DipDrv:  MaxL=1.
 Leave Link  303 at Thu Nov  3 08:04:23 2022, MaxMem=  4194304000 cpu:               0.7 elap:               0.1
 (Enter /software/gaussian/G16-A.03/avx/g16/l401.exe)
 ExpMin= 1.22D-01 ExpMax= 2.27D+03 ExpMxC= 3.41D+02 IAcc=3 IRadAn=         5 AccDes= 0.00D+00
 Harris functional with IExCor= 1009 and IRadAn=       5 diagonalized for initial guess.
 HarFok:  IExCor= 1009 AccDes= 0.00D+00 IRadAn=         5 IDoV= 1 UseB2=F ITyADJ=14
 ICtDFT=  3500011 ScaDFX=  1.000000  1.000000  1.000000  1.000000
 FoFCou: FMM=F IPFlag=           0 FMFlag=      100000 FMFlg1=           0
         NFxFlg=           0 DoJE=T BraDBF=F KetDBF=T FulRan=T
         wScrn=  0.000000 ICntrl=       500 IOpCl=  0 I1Cent=   200000004 NGrid=           0
         NMat0=    1 NMatS0=      1 NMatT0=    0 NMatD0=    1 NMtDS0=    0 NMtDT0=    0
 Petite list used in FoFCou.
 Harris En= -901.150731462832    
 JPrj=0 DoOrth=F DoCkMO=F.
 Leave Link  401 at Thu Nov  3 08:04:29 2022, MaxMem=  4194304000 cpu:              42.9 elap:               5.4
 (Enter /software/gaussian/G16-A.03/avx/g16/l502.exe)
 Integral symmetry usage will be decided dynamically.
 Closed shell SCF:
 Using DIIS extrapolation, IDIIS=  1040.
 NGot=  4194304000 LenX=  4193917215 LenY=  4193727549
 Requested convergence on RMS density matrix=1.00D-08 within 128 cycles.
 Requested convergence on MAX density matrix=1.00D-06.
 Requested convergence on             energy=1.00D-06.
 No special actions if energy rises.
 Fock matrices will be formed incrementally for  20 cycles.
 Integral accuracy reduced to 1.0D-05 until final iterations.

 Cycle   1  Pass 0  IDiag  1:
 FoFJK:  IHMeth= 1 ICntrl=       0 DoSepK=F KAlg= 0 I1Cent=           0 FoldK=F
 IRaf= 820000000 NMat=       1 IRICut=       1 DoRegI=T DoRafI=F ISym2E= 0 IDoP0=0 IntGTp=1.
 FoFCou: FMM=F IPFlag=           0 FMFlag=      100000 FMFlg1=           0
         NFxFlg=           0 DoJE=F BraDBF=F KetDBF=F FulRan=T
         wScrn=  0.000000 ICntrl=         0 IOpCl=  0 I1Cent=           0 NGrid=           0
         NMat0=    1 NMatS0=      1 NMatT0=    0 NMatD0=    1 NMtDS0=    0 NMtDT0=    0
 Symmetry not used in FoFCou.
 E= -900.374510928672    
 DIIS: error= 3.19D-02 at cycle   1 NSaved=   1.
 NSaved= 1 IEnMin= 1 EnMin= -900.374510928672     IErMin= 1 ErrMin= 3.19D-02
 ErrMax= 3.19D-02  0.00D+00 EMaxC= 1.00D-01 BMatC= 5.01D-01 BMatP= 5.01D-01
 IDIUse=3 WtCom= 6.81D-01 WtEn= 3.19D-01
 Coeff-Com:  0.100D+01
 Coeff-En:   0.100D+01
 Coeff:      0.100D+01
 Gap=     0.207 Goal=   None    Shift=    0.000
 GapD=    0.207 DampG=1.000 DampE=0.500 DampFc=0.5000 IDamp=-1.
 Damping current iteration by 5.00D-01
 RMSDP=4.75D-03 MaxDP=1.75D-01              OVMax= 3.14D-01

 Cycle   2  Pass 0  IDiag  1:
 RMSU=  2.36D-03    CP:  9.82D-01
 E= -900.552608140668     Delta-E=       -0.178097211996 Rises=F Damp=T
 DIIS: error= 1.47D-02 at cycle   2 NSaved=   2.
 NSaved= 2 IEnMin= 2 EnMin= -900.552608140668     IErMin= 2 ErrMin= 1.47D-02
 ErrMax= 1.47D-02  0.00D+00 EMaxC= 1.00D-01 BMatC= 6.14D-02 BMatP= 5.01D-01
 IDIUse=3 WtCom= 8.53D-01 WtEn= 1.47D-01
 Coeff-Com:  0.169D+00 0.831D+00
 Coeff-En:   0.277D+00 0.723D+00
 Coeff:      0.185D+00 0.815D+00
 Gap=     0.332 Goal=   None    Shift=    0.000
 RMSDP=1.56D-03 MaxDP=5.99D-02 DE=-1.78D-01 OVMax= 2.90D-01

 Cycle   3  Pass 0  IDiag  1:
 RMSU=  1.35D-03    CP:  9.79D-01  6.69D-01
 E= -900.838695916544     Delta-E=       -0.286087775876 Rises=F Damp=F
 DIIS: error= 1.61D-02 at cycle   3 NSaved=   3.
 NSaved= 3 IEnMin= 3 EnMin= -900.838695916544     IErMin= 2 ErrMin= 1.47D-02
 ErrMax= 1.61D-02  0.00D+00 EMaxC= 1.00D-01 BMatC= 6.97D-02 BMatP= 6.14D-02
 IDIUse=2 WtCom= 0.00D+00 WtEn= 1.00D+00
 Coeff-En:   0.000D+00 0.000D+00 0.100D+01
 Coeff:      0.000D+00 0.000D+00 0.100D+01
 Gap=     0.240 Goal=   None    Shift=    0.000
 RMSDP=2.11D-03 MaxDP=1.06D-01 DE=-2.86D-01 OVMax= 2.46D-01

 Cycle   4  Pass 0  IDiag  1:
 RMSU=  1.15D-03    CP:  9.84D-01  1.13D+00 -2.61D-02
 E= -900.605913585293     Delta-E=        0.232782331251 Rises=F Damp=F
 DIIS: error= 3.95D-02 at cycle   4 NSaved=   4.
 NSaved= 4 IEnMin= 3 EnMin= -900.838695916544     IErMin= 2 ErrMin= 1.47D-02
 ErrMax= 3.95D-02  0.00D+00 EMaxC= 1.00D-01 BMatC= 3.32D-01 BMatP= 6.14D-02
 IDIUse=2 WtCom= 0.00D+00 WtEn= 1.00D+00
 Coeff-En:   0.000D+00 0.000D+00 0.773D+00 0.227D+00
 Coeff:      0.000D+00 0.000D+00 0.773D+00 0.227D+00
 Gap=     0.245 Goal=   None    Shift=    0.000
 RMSDP=1.15D-03 MaxDP=5.59D-02 DE= 2.33D-01 OVMax= 1.29D-01

 Cycle   5  Pass 0  IDiag  1:
 RMSU=  1.73D-04    CP:  9.83D-01  8.35D-01  4.82D-01  5.08D-01
 E= -900.883874241564     Delta-E=       -0.277960656271 Rises=F Damp=F
 DIIS: error= 9.37D-03 at cycle   5 NSaved=   5.
 NSaved= 5 IEnMin= 5 EnMin= -900.883874241564     IErMin= 5 ErrMin= 9.37D-03
 ErrMax= 9.37D-03  0.00D+00 EMaxC= 1.00D-01 BMatC= 2.08D-02 BMatP= 6.14D-02
 IDIUse=3 WtCom= 9.06D-01 WtEn= 9.37D-02
 Coeff-Com: -0.954D-02 0.293D-01 0.272D+00-0.873D-01 0.796D+00
 Coeff-En:   0.000D+00 0.000D+00 0.272D+00 0.000D+00 0.728D+00
 Coeff:     -0.864D-02 0.266D-01 0.272D+00-0.791D-01 0.789D+00
 Gap=     0.253 Goal=   None    Shift=    0.000
 RMSDP=3.61D-04 MaxDP=1.77D-02 DE=-2.78D-01 OVMax= 4.15D-02

 Cycle   6  Pass 0  IDiag  1:
 RMSU=  4.17D-05    CP:  9.82D-01  7.70D-01  6.63D-01  3.26D-01  8.22D-01
 E= -900.902450123366     Delta-E=       -0.018575881802 Rises=F Damp=F
 DIIS: error= 5.88D-04 at cycle   6 NSaved=   6.
 NSaved= 6 IEnMin= 6 EnMin= -900.902450123366     IErMin= 6 ErrMin= 5.88D-04
 ErrMax= 5.88D-04  0.00D+00 EMaxC= 1.00D-01 BMatC= 7.68D-05 BMatP= 2.08D-02
 IDIUse=3 WtCom= 9.94D-01 WtEn= 5.88D-03
 Coeff-Com: -0.687D-02 0.148D-01 0.979D-01-0.547D-01 0.391D+00 0.558D+00
 Coeff-En:   0.000D+00 0.000D+00 0.000D+00 0.000D+00 0.000D+00 0.100D+01
 Coeff:     -0.683D-02 0.147D-01 0.974D-01-0.543D-01 0.389D+00 0.561D+00
 Gap=     0.253 Goal=   None    Shift=    0.000
 RMSDP=2.33D-05 MaxDP=1.57D-03 DE=-1.86D-02 OVMax= 2.08D-03

 Cycle   7  Pass 0  IDiag  1:
 RMSU=  1.14D-05    CP:  9.82D-01  7.74D-01  6.57D-01  3.30D-01  8.69D-01
                    CP:  7.06D-01
 E= -900.902519354853     Delta-E=       -0.000069231486 Rises=F Damp=F
 DIIS: error= 9.17D-05 at cycle   7 NSaved=   7.
 NSaved= 7 IEnMin= 7 EnMin= -900.902519354853     IErMin= 7 ErrMin= 9.17D-05
 ErrMax= 9.17D-05  0.00D+00 EMaxC= 1.00D-01 BMatC= 1.94D-06 BMatP= 7.68D-05
 IDIUse=1 WtCom= 1.00D+00 WtEn= 0.00D+00
 Coeff-Com: -0.236D-02 0.431D-02 0.265D-01-0.184D-01 0.119D+00 0.229D+00
 Coeff-Com:  0.641D+00
 Coeff:     -0.236D-02 0.431D-02 0.265D-01-0.184D-01 0.119D+00 0.229D+00
 Coeff:      0.641D+00
 Gap=     0.252 Goal=   None    Shift=    0.000
 RMSDP=4.39D-06 MaxDP=2.56D-04 DE=-6.92D-05 OVMax= 2.47D-04

 Initial convergence to 1.0D-05 achieved.  Increase integral accuracy.
 Cycle   8  Pass 1  IDiag  1:
 E= -900.902563701132     Delta-E=       -0.000044346279 Rises=F Damp=F
 DIIS: error= 9.91D-05 at cycle   1 NSaved=   1.
 NSaved= 1 IEnMin= 1 EnMin= -900.902563701132     IErMin= 1 ErrMin= 9.91D-05
 ErrMax= 9.91D-05  0.00D+00 EMaxC= 1.00D-01 BMatC= 1.22D-06 BMatP= 1.22D-06
 IDIUse=1 WtCom= 1.00D+00 WtEn= 0.00D+00
 Coeff-Com:  0.100D+01
 Coeff:      0.100D+01
 Gap=     0.253 Goal=   None    Shift=    0.000
 RMSDP=4.39D-06 MaxDP=2.56D-04 DE=-4.43D-05 OVMax= 2.21D-04

 Cycle   9  Pass 1  IDiag  1:
 RMSU=  3.86D-05    CP:  1.00D+00
 E= -900.902564819055     Delta-E=       -0.000001117923 Rises=F Damp=F
 DIIS: error= 1.76D-05 at cycle   2 NSaved=   2.
 NSaved= 2 IEnMin= 2 EnMin= -900.902564819055     IErMin= 2 ErrMin= 1.76D-05
 ErrMax= 1.76D-05  0.00D+00 EMaxC= 1.00D-01 BMatC= 3.34D-07 BMatP= 1.22D-06
 IDIUse=1 WtCom= 1.00D+00 WtEn= 0.00D+00
 Coeff-Com:  0.276D+00 0.724D+00
 Coeff:      0.276D+00 0.724D+00
 Gap=     0.252 Goal=   None    Shift=    0.000
 RMSDP=2.60D-06 MaxDP=1.68D-04 DE=-1.12D-06 OVMax= 2.30D-04

 Cycle  10  Pass 1  IDiag  1:
 RMSU=  2.58D-06    CP:  1.00D+00  1.01D+00
 E= -900.902564891233     Delta-E=       -0.000000072178 Rises=F Damp=F
 DIIS: error= 1.64D-05 at cycle   3 NSaved=   3.
 NSaved= 3 IEnMin= 3 EnMin= -900.902564891233     IErMin= 3 ErrMin= 1.64D-05
 ErrMax= 1.64D-05  0.00D+00 EMaxC= 1.00D-01 BMatC= 2.50D-07 BMatP= 3.34D-07
 IDIUse=1 WtCom= 1.00D+00 WtEn= 0.00D+00
 Coeff-Com:  0.101D-01 0.461D+00 0.529D+00
 Coeff:      0.101D-01 0.461D+00 0.529D+00
 Gap=     0.252 Goal=   None    Shift=    0.000
 RMSDP=1.52D-06 MaxDP=1.15D-04 DE=-7.22D-08 OVMax= 1.55D-04

 Cycle  11  Pass 1  IDiag  1:
 RMSU=  5.67D-07    CP:  1.00D+00  1.02D+00  4.78D-01
 E= -900.902565092863     Delta-E=       -0.000000201630 Rises=F Damp=F
 DIIS: error= 9.39D-06 at cycle   4 NSaved=   4.
 NSaved= 4 IEnMin= 4 EnMin= -900.902565092863     IErMin= 4 ErrMin= 9.39D-06
 ErrMax= 9.39D-06  0.00D+00 EMaxC= 1.00D-01 BMatC= 2.28D-08 BMatP= 2.50D-07
 IDIUse=1 WtCom= 1.00D+00 WtEn= 0.00D+00
 Coeff-Com: -0.538D-02 0.275D+00 0.350D+00 0.381D+00
 Coeff:     -0.538D-02 0.275D+00 0.350D+00 0.381D+00
 Gap=     0.252 Goal=   None    Shift=    0.000
 RMSDP=3.62D-07 MaxDP=2.53D-05 DE=-2.02D-07 OVMax= 4.06D-05

 Cycle  12  Pass 1  IDiag  1:
 RMSU=  1.36D-07    CP:  1.00D+00  1.02D+00  5.33D-01  4.64D-01
 E= -900.902565112208     Delta-E=       -0.000000019344 Rises=F Damp=F
 DIIS: error= 8.17D-07 at cycle   5 NSaved=   5.
 NSaved= 5 IEnMin= 5 EnMin= -900.902565112208     IErMin= 5 ErrMin= 8.17D-07
 ErrMax= 8.17D-07  0.00D+00 EMaxC= 1.00D-01 BMatC= 1.87D-10 BMatP= 2.28D-08
 IDIUse=1 WtCom= 1.00D+00 WtEn= 0.00D+00
 Coeff-Com: -0.309D-02 0.141D+00 0.182D+00 0.208D+00 0.472D+00
 Coeff:     -0.309D-02 0.141D+00 0.182D+00 0.208D+00 0.472D+00
 Gap=     0.252 Goal=   None    Shift=    0.000
 RMSDP=3.95D-08 MaxDP=2.14D-06 DE=-1.93D-08 OVMax= 3.77D-06

 Cycle  13  Pass 1  IDiag  1:
 RMSU=  3.73D-08    CP:  1.00D+00  1.02D+00  5.31D-01  4.76D-01  9.39D-01
 E= -900.902565112353     Delta-E=       -0.000000000146 Rises=F Damp=F
 DIIS: error= 1.87D-07 at cycle   6 NSaved=   6.
 NSaved= 6 IEnMin= 6 EnMin= -900.902565112353     IErMin= 6 ErrMin= 1.87D-07
 ErrMax= 1.87D-07  0.00D+00 EMaxC= 1.00D-01 BMatC= 1.36D-11 BMatP= 1.87D-10
 IDIUse=1 WtCom= 1.00D+00 WtEn= 0.00D+00
 Coeff-Com: -0.917D-03 0.380D-01 0.497D-01 0.599D-01 0.236D+00 0.618D+00
 Coeff:     -0.917D-03 0.380D-01 0.497D-01 0.599D-01 0.236D+00 0.618D+00
 Gap=     0.252 Goal=   None    Shift=    0.000
 RMSDP=1.42D-08 MaxDP=1.09D-06 DE=-1.46D-10 OVMax= 1.42D-06

 Cycle  14  Pass 1  IDiag  1:
 RMSU=  1.20D-08    CP:  1.00D+00  1.02D+00  5.32D-01  4.76D-01  9.71D-01
                    CP:  8.47D-01
 E= -900.902565112393     Delta-E=       -0.000000000040 Rises=F Damp=F
 DIIS: error= 9.89D-08 at cycle   7 NSaved=   7.
 NSaved= 7 IEnMin= 7 EnMin= -900.902565112393     IErMin= 7 ErrMin= 9.89D-08
 ErrMax= 9.89D-08  0.00D+00 EMaxC= 1.00D-01 BMatC= 3.80D-12 BMatP= 1.36D-11
 IDIUse=1 WtCom= 1.00D+00 WtEn= 0.00D+00
 Coeff-Com:  0.647D-04-0.519D-02-0.602D-02-0.476D-02 0.503D-01 0.390D+00
 Coeff-Com:  0.576D+00
 Coeff:      0.647D-04-0.519D-02-0.602D-02-0.476D-02 0.503D-01 0.390D+00
 Coeff:      0.576D+00
 Gap=     0.252 Goal=   None    Shift=    0.000
 RMSDP=6.23D-09 MaxDP=3.88D-07 DE=-3.96D-11 OVMax= 5.06D-07

 SCF Done:  E(RPBE1PBE) =  -900.902565112     A.U. after   14 cycles
            NFock= 14  Conv=0.62D-08     -V/T= 2.0104
 KE= 8.916577875894D+02 PE=-5.554279568654D+03 EE= 2.031212499668D+03
 Leave Link  502 at Thu Nov  3 08:06:39 2022, MaxMem=  4194304000 cpu:            1045.0 elap:             130.7
 (Enter /software/gaussian/G16-A.03/avx/g16/l801.exe)
 DoSCS=F DFT=T ScalE2(SS,OS)=  1.000000  1.000000
 Range of M.O.s used for correlation:     1   415
 NBasis=   415 NAE=    77 NBE=    77 NFC=     0 NFV=     0
 NROrb=    415 NOA=    77 NOB=    77 NVA=   338 NVB=   338
 Leave Link  801 at Thu Nov  3 08:06:40 2022, MaxMem=  4194304000 cpu:               0.2 elap:               0.0
 (Enter /software/gaussian/G16-A.03/avx/g16/l1101.exe)
 Using compressed storage, NAtomX=    47.
 Will process     48 centers per pass.
   1 Symmetry operations used in ECPInt.
 ECPInt:  NShTT=   20301 NPrTT=   70841 LenC2=   18146 LenP2D=   44573.
 LDataN:  DoStor=T MaxTD1= 5 Len=  102
 R6Disp: Adding Grimme-D3(BJ) dispersion energy 1st derivatives to the gradient.
 Leave Link 1101 at Thu Nov  3 08:06:41 2022, MaxMem=  4194304000 cpu:               7.9 elap:               1.0
 (Enter /software/gaussian/G16-A.03/avx/g16/l1102.exe)
 Symmetrizing basis deriv contribution to polar:
 IMax=3 JMax=2 DiffMx= 0.00D+00
 Leave Link 1102 at Thu Nov  3 08:06:41 2022, MaxMem=  4194304000 cpu:               0.5 elap:               0.1
 (Enter /software/gaussian/G16-A.03/avx/g16/l1110.exe)
 Forming Gx(P) for the SCF density, NAtomX=    47.
 Integral derivatives from FoFJK, PRISM(SPDF).
 Do as many integral derivatives as possible in FoFJK.
 G2DrvN: MDV=    4194300480.
 G2DrvN: will do    48 centers at a time, making    1 passes.
 Calling FoFCou, ICntrl=  3107 FMM=F I1Cent=   0 AccDes= 0.00D+00.
 FoFJK:  IHMeth= 1 ICntrl=    3107 DoSepK=F KAlg= 0 I1Cent=           0 FoldK=F
 IRaf=         0 NMat=       1 IRICut=       1 DoRegI=T DoRafI=F ISym2E= 0 IDoP0=0 IntGTp=1.
 FoFCou: FMM=F IPFlag=           0 FMFlag=      100000 FMFlg1=           0
         NFxFlg=           0 DoJE=F BraDBF=F KetDBF=F FulRan=T
         wScrn=  0.000000 ICntrl=      3107 IOpCl=  0 I1Cent=           0 NGrid=           0
         NMat0=    1 NMatS0=      1 NMatT0=    0 NMatD0=    1 NMtDS0=    0 NMtDT0=    0
 Symmetry not used in FoFCou.
 End of G2Drv F.D. properties file   721 does not exist.
 End of G2Drv F.D. properties file   722 does not exist.
 End of G2Drv F.D. properties file   788 does not exist.
 Leave Link 1110 at Thu Nov  3 08:14:57 2022, MaxMem=  4194304000 cpu:            3972.1 elap:             496.5
 (Enter /software/gaussian/G16-A.03/avx/g16/l1002.exe)
 Minotr:  Closed shell wavefunction.
          IDoAtm=11111111111111111111111111111111111111111111111
          Direct CPHF calculation.
          Differentiating once with respect to electric field.
                with respect to dipole field.
          Differentiating once with respect to nuclear coordinates.
          Requested convergence is 1.0D-08 RMS, and 1.0D-07 maximum.
          Secondary convergence is 1.0D-12 RMS, and 1.0D-12 maximum.
          NewPWx=T KeepS1=F KeepF1=F KeepIn=T MapXYZ=F SortEE=F KeepMc=T.
        14238 words used for storage of precomputed grid.
 Keep R1 ints in memory in canonical form, NReq=3767077277.
 FoFCou: FMM=F IPFlag=           0 FMFlag=           0 FMFlg1=           0
         NFxFlg=           0 DoJE=F BraDBF=F KetDBF=F FulRan=T
         wScrn=  0.000000 ICntrl=       600 IOpCl=  0 I1Cent=           0 NGrid=           0
         NMat0=    1 NMatS0=  86320 NMatT0=    0 NMatD0=    1 NMtDS0=    0 NMtDT0=    0
 Symmetry not used in FoFCou.
 Two-electron integral symmetry not used.
          MDV=    4194304000 using IRadAn=       1.
          Solving linear equations simultaneously, MaxMat=       0.
          There are   144 degrees of freedom in the 1st order CPHF.  IDoFFX=6 NUNeed=     3.
    141 vectors produced by pass  0 Test12= 2.60D-14 1.00D-09 XBig12= 1.33D+02 4.50D+00.
 AX will form   141 AO Fock derivatives at one time.
    141 vectors produced by pass  1 Test12= 2.60D-14 1.00D-09 XBig12= 4.62D+01 1.70D+00.
    141 vectors produced by pass  2 Test12= 2.60D-14 1.00D-09 XBig12= 3.81D-01 9.26D-02.
    141 vectors produced by pass  3 Test12= 2.60D-14 1.00D-09 XBig12= 1.37D-03 3.41D-03.
    141 vectors produced by pass  4 Test12= 2.60D-14 1.00D-09 XBig12= 3.00D-06 1.32D-04.
     81 vectors produced by pass  5 Test12= 2.60D-14 1.00D-09 XBig12= 3.27D-09 5.08D-06.
     12 vectors produced by pass  6 Test12= 2.60D-14 1.00D-09 XBig12= 3.26D-12 1.51D-07.
      3 vectors produced by pass  7 Test12= 2.60D-14 1.00D-09 XBig12= 3.19D-15 3.37D-09.
 InvSVY:  IOpt=1 It=  1 EMax= 5.33D-15
 Solved reduced A of dimension   801 with   144 vectors.
 FullF1:  Do perturbations      1 to       3.
 Isotropic polarizability for W=    0.000000      185.00 Bohr**3.
 End of Minotr F.D. properties file   721 does not exist.
 End of Minotr F.D. properties file   722 does not exist.
 End of Minotr F.D. properties file   788 does not exist.
 Leave Link 1002 at Thu Nov  3 08:26:01 2022, MaxMem=  4194304000 cpu:            5310.7 elap:             663.9
 (Enter /software/gaussian/G16-A.03/avx/g16/l601.exe)
 Copying SCF densities to generalized density rwf, IOpCl= 0 IROHF=0.

 **********************************************************************

            Population analysis using the SCF density.

 **********************************************************************

 Orbital symmetries:
       Occupied  (A) (A) (A) (A) (A) (A) (A) (A) (A) (A) (A) (A)
                 (A) (A) (A) (A) (A) (A) (A) (A) (A) (A) (A) (A)
                 (A) (A) (A) (A) (A) (A) (A) (A) (A) (A) (A) (A)
                 (A) (A) (A) (A) (A) (A) (A) (A) (A) (A) (A) (A)
                 (A) (A) (A) (A) (A) (A) (A) (A) (A) (A) (A) (A)
                 (A) (A) (A) (A) (A) (A) (A) (A) (A) (A) (A) (A)
                 (A) (A) (A) (A) (A)
       Virtual   (A) (A) (A) (A) (A) (A) (A) (A) (A) (A) (A) (A)
                 (A) (A) (A) (A) (A) (A) (A) (A) (A) (A) (A) (A)
                 (A) (A) (A) (A) (A) (A) (A) (A) (A) (A) (A) (A)
                 (A) (A) (A) (A) (A) (A) (A) (A) (A) (A) (A) (A)
                 (A) (A) (A) (A) (A) (A) (A) (A) (A) (A) (A) (A)
                 (A) (A) (A) (A) (A) (A) (A) (A) (A) (A) (A) (A)
                 (A) (A) (A) (A) (A) (A) (A) (A) (A) (A) (A) (A)
                 (A) (A) (A) (A) (A) (A) (A) (A) (A) (A) (A) (A)
                 (A) (A) (A) (A) (A) (A) (A) (A) (A) (A) (A) (A)
                 (A) (A) (A) (A) (A) (A) (A) (A) (A) (A) (A) (A)
                 (A) (A) (A) (A) (A) (A) (A) (A) (A) (A) (A) (A)
                 (A) (A) (A) (A) (A) (A) (A) (A) (A) (A) (A) (A)
                 (A) (A) (A) (A) (A) (A) (A) (A) (A) (A) (A) (A)
                 (A) (A) (A) (A) (A) (A) (A) (A) (A) (A) (A) (A)
                 (A) (A) (A) (A) (A) (A) (A) (A) (A) (A) (A) (A)
                 (A) (A) (A) (A) (A) (A) (A) (A) (A) (A) (A) (A)
                 (A) (A) (A) (A) (A) (A) (A) (A) (A) (A) (A) (A)
                 (A) (A) (A) (A) (A) (A) (A) (A) (A) (A) (A) (A)
                 (A) (A) (A) (A) (A) (A) (A) (A) (A) (A) (A) (A)
                 (A) (A) (A) (A) (A) (A) (A) (A) (A) (A) (A) (A)
                 (A) (A) (A) (A) (A) (A) (A) (A) (A) (A) (A) (A)
                 (A) (A) (A) (A) (A) (A) (A) (A) (A) (A) (A) (A)
                 (A) (A) (A) (A) (A) (A) (A) (A) (A) (A) (A) (A)
                 (A) (A) (A) (A) (A) (A) (A) (A) (A) (A) (A) (A)
                 (A) (A) (A) (A) (A) (A) (A) (A) (A) (A) (A) (A)
                 (A) (A) (A) (A) (A) (A) (A) (A) (A) (A) (A) (A)
                 (A) (A) (A) (A) (A) (A) (A) (A) (A) (A) (A) (A)
                 (A) (A) (A) (A) (A) (A) (A) (A) (A) (A) (A) (A)
                 (A) (A)
 The electronic state is 1-A.
 Alpha  occ. eigenvalues --  -19.24949 -19.24841 -14.44543 -14.34118 -14.34114
 Alpha  occ. eigenvalues --  -10.34242 -10.34067 -10.28868 -10.28809 -10.27254
 Alpha  occ. eigenvalues --  -10.25567 -10.25549 -10.23921 -10.23913 -10.22173
 Alpha  occ. eigenvalues --  -10.22162 -10.21648 -10.21648 -10.20844 -10.20837
 Alpha  occ. eigenvalues --   -1.13353  -1.12455  -0.98945  -0.91129  -0.90534
 Alpha  occ. eigenvalues --   -0.83236  -0.83032  -0.78058  -0.75667  -0.72149
 Alpha  occ. eigenvalues --   -0.69544  -0.69427  -0.68748  -0.68584  -0.66176
 Alpha  occ. eigenvalues --   -0.65085  -0.63228  -0.56172  -0.55262  -0.54509
 Alpha  occ. eigenvalues --   -0.53188  -0.52375  -0.51936  -0.50866  -0.47974
 Alpha  occ. eigenvalues --   -0.47810  -0.46777  -0.45669  -0.45461  -0.44971
 Alpha  occ. eigenvalues --   -0.44873  -0.44100  -0.43605  -0.42299  -0.41390
 Alpha  occ. eigenvalues --   -0.41038  -0.39888  -0.39258  -0.38820  -0.38492
 Alpha  occ. eigenvalues --   -0.38091  -0.37506  -0.36631  -0.36387  -0.36374
 Alpha  occ. eigenvalues --   -0.36355  -0.34241  -0.34120  -0.33249  -0.33214
 Alpha  occ. eigenvalues --   -0.32741  -0.32665  -0.30149  -0.27967  -0.24403
 Alpha  occ. eigenvalues --   -0.23599  -0.22256
 Alpha virt. eigenvalues --    0.02991   0.05973   0.06435   0.08242   0.08645
 Alpha virt. eigenvalues --    0.09665   0.09787   0.10122   0.10290   0.10818
 Alpha virt. eigenvalues --    0.11344   0.12256   0.12362   0.13247   0.13950
 Alpha virt. eigenvalues --    0.14275   0.14366   0.14885   0.15034   0.15321
 Alpha virt. eigenvalues --    0.16152   0.16583   0.16874   0.17024   0.18141
 Alpha virt. eigenvalues --    0.18251   0.19008   0.19302   0.20263   0.20427
 Alpha virt. eigenvalues --    0.20763   0.20865   0.21663   0.21794   0.22512
 Alpha virt. eigenvalues --    0.22936   0.24189   0.25222   0.25378   0.25678
 Alpha virt. eigenvalues --    0.26415   0.27262   0.27836   0.28068   0.31193
 Alpha virt. eigenvalues --    0.31352   0.35794   0.37979   0.38344   0.39277
 Alpha virt. eigenvalues --    0.40971   0.41623   0.42478   0.42952   0.43121
 Alpha virt. eigenvalues --    0.43207   0.44442   0.44864   0.45524   0.46434
 Alpha virt. eigenvalues --    0.51365   0.51926   0.52316   0.52603   0.52912
 Alpha virt. eigenvalues --    0.54998   0.55377   0.55547   0.56463   0.56819
 Alpha virt. eigenvalues --    0.57958   0.58450   0.59971   0.60039   0.60211
 Alpha virt. eigenvalues --    0.61093   0.61319   0.63001   0.63224   0.64466
 Alpha virt. eigenvalues --    0.64621   0.64952   0.65444   0.65806   0.65830
 Alpha virt. eigenvalues --    0.66165   0.66259   0.66419   0.67009   0.67538
 Alpha virt. eigenvalues --    0.67618   0.67987   0.68190   0.68911   0.69290
 Alpha virt. eigenvalues --    0.69449   0.69918   0.70320   0.70509   0.71418
 Alpha virt. eigenvalues --    0.71612   0.71948   0.72024   0.72787   0.73057
 Alpha virt. eigenvalues --    0.73659   0.73784   0.74253   0.74411   0.74584
 Alpha virt. eigenvalues --    0.74682   0.75688   0.76072   0.76492   0.76799
 Alpha virt. eigenvalues --    0.77331   0.77822   0.78950   0.79200   0.81103
 Alpha virt. eigenvalues --    0.81865   0.82785   0.84928   0.87514   0.88679
 Alpha virt. eigenvalues --    0.90076   0.90518   0.91797   0.93252   0.94713
 Alpha virt. eigenvalues --    0.97196   0.99087   1.01743   1.03515   1.06136
 Alpha virt. eigenvalues --    1.07199   1.09984   1.10571   1.12430   1.14265
 Alpha virt. eigenvalues --    1.14988   1.15007   1.15779   1.17091   1.17169
 Alpha virt. eigenvalues --    1.18187   1.19100   1.20355   1.21886   1.22811
 Alpha virt. eigenvalues --    1.23648   1.25484   1.26268   1.27681   1.30010
 Alpha virt. eigenvalues --    1.31324   1.31710   1.34304   1.34948   1.37722
 Alpha virt. eigenvalues --    1.39224   1.41563   1.44294   1.45498   1.46792
 Alpha virt. eigenvalues --    1.48253   1.49973   1.52463   1.53817   1.53839
 Alpha virt. eigenvalues --    1.55012   1.55396   1.55661   1.56458   1.57451
 Alpha virt. eigenvalues --    1.57849   1.58010   1.58581   1.59345   1.59685
 Alpha virt. eigenvalues --    1.59744   1.60804   1.61754   1.64057   1.65149
 Alpha virt. eigenvalues --    1.65892   1.66995   1.67450   1.70048   1.70125
 Alpha virt. eigenvalues --    1.71825   1.72638   1.75836   1.76130   1.77127
 Alpha virt. eigenvalues --    1.77456   1.77865   1.78290   1.78796   1.79046
 Alpha virt. eigenvalues --    1.80168   1.81112   1.81526   1.82359   1.83029
 Alpha virt. eigenvalues --    1.83634   1.84410   1.84673   1.85937   1.86100
 Alpha virt. eigenvalues --    1.86269   1.86352   1.87122   1.87465   1.88199
 Alpha virt. eigenvalues --    1.88532   1.88685   1.90062   1.90323   1.91188
 Alpha virt. eigenvalues --    1.91742   1.92946   1.93734   1.93991   1.94156
 Alpha virt. eigenvalues --    1.94951   1.95731   1.96639   1.97411   1.98394
 Alpha virt. eigenvalues --    1.98567   1.99383   1.99736   2.00418   2.00597
 Alpha virt. eigenvalues --    2.01386   2.02584   2.02921   2.05400   2.07834
 Alpha virt. eigenvalues --    2.08402   2.09401   2.09626   2.10963   2.11706
 Alpha virt. eigenvalues --    2.12370   2.16708   2.17863   2.19197   2.19807
 Alpha virt. eigenvalues --    2.22090   2.22143   2.23616   2.24036   2.28031
 Alpha virt. eigenvalues --    2.28216   2.29640   2.30552   2.30955   2.33032
 Alpha virt. eigenvalues --    2.33411   2.36628   2.37643   2.40472   2.41759
 Alpha virt. eigenvalues --    2.42211   2.42433   2.42982   2.43826   2.43939
 Alpha virt. eigenvalues --    2.44528   2.45586   2.48089   2.48861   2.49235
 Alpha virt. eigenvalues --    2.53795   2.53916   2.54860   2.54990   2.59850
 Alpha virt. eigenvalues --    2.61554   2.62969   2.64440   2.64562   2.65375
 Alpha virt. eigenvalues --    2.66535   2.67513   2.67960   2.68224   2.68641
 Alpha virt. eigenvalues --    2.69802   2.70672   2.72352   2.74456   2.79149
 Alpha virt. eigenvalues --    2.80510   2.83168   2.84270   2.85093   2.87515
 Alpha virt. eigenvalues --    2.88851   2.88898   2.90079   2.90847   2.91337
 Alpha virt. eigenvalues --    2.91609   2.92078   2.92665   2.92881   2.94277
 Alpha virt. eigenvalues --    2.95260   2.96027   2.96688   2.97118   2.99022
 Alpha virt. eigenvalues --    2.99657   3.00151   3.01016   3.01211   3.04998
 Alpha virt. eigenvalues --    3.06193   3.06347   3.06738   3.06838   3.07839
 Alpha virt. eigenvalues --    3.10545   3.11818   3.14995   3.15577   3.17697
 Alpha virt. eigenvalues --    3.20727   3.21505   3.33561   3.34982   3.41771
 Alpha virt. eigenvalues --    3.58442   3.63721   3.75215
     Molecular Orbital Coefficients:
                          73        74        75        76        77
                           O         O         O         O         O
     Eigenvalues --    -0.30149  -0.27967  -0.24403  -0.23599  -0.22256
   1 1   C  1S          0.00003  -0.00669  -0.00015   0.00039   0.00052
   2        2S         -0.00045   0.00948   0.00020  -0.00086  -0.00025
   3        3S          0.00563   0.04160   0.00397  -0.00366  -0.00815
   4        4PX        -0.03926  -0.00347  -0.00193   0.02316  -0.02671
   5        4PY         0.00026  -0.02107  -0.00177  -0.00020   0.00067
   6        4PZ         0.08673  -0.00060   0.00284   0.00413   0.06526
   7        5PX        -0.02130  -0.01020  -0.01659   0.02501   0.00206
   8        5PY        -0.00054  -0.00455  -0.00608  -0.00340  -0.00038
   9        5PZ         0.05259  -0.00064   0.02771   0.01075   0.01192
  10        6D 0        0.00441  -0.00061   0.00017   0.00030   0.00394
  11        6D+1        0.00311   0.00004   0.00035  -0.00116   0.00244
  12        6D-1        0.01358   0.00014  -0.00002  -0.00031   0.01462
  13        6D+2       -0.00223  -0.00111  -0.00032  -0.00016  -0.00198
  14        6D-2       -0.00537  -0.00003  -0.00004   0.00204  -0.00577
  15 2   N  1S          0.00115  -0.01503   0.00523   0.00022   0.00115
  16        2S          0.00269  -0.02473   0.01038   0.00023   0.00234
  17        3S          0.00188  -0.15841   0.05762   0.00421   0.00480
  18        4PX        -0.11156  -0.00059   0.00227   0.05422  -0.11327
  19        4PY        -0.00113  -0.03942   0.00672  -0.00101  -0.00105
  20        4PZ         0.31846   0.00155  -0.00602  -0.00233   0.28898
  21        5PX         0.09606   0.00214   0.00151  -0.07534   0.11558
  22        5PY        -0.00095   0.06995  -0.01791   0.00046   0.00154
  23        5PZ        -0.25940  -0.00149   0.00020  -0.00593  -0.26573
  24        6D 0        0.00020  -0.00054   0.00475   0.00007   0.00030
  25        6D+1        0.00036   0.00170   0.00658  -0.00005   0.00038
  26        6D-1        0.00730   0.00004   0.00002   0.00049  -0.00156
  27        6D+2       -0.00019   0.00015  -0.00418   0.00013  -0.00025
  28        6D-2       -0.00211  -0.00014   0.00001   0.00066   0.00054
  29 3   C  1S         -0.00362   0.03467  -0.00215  -0.03217  -0.00217
  30        2S          0.01067  -0.08573   0.00564   0.08531   0.00743
  31        3S          0.01578   0.01377   0.00218  -0.00017  -0.02243
  32        4PX         0.01609   0.03517   0.06459  -0.03004  -0.03870
  33        4PY        -0.00991   0.09488  -0.02403  -0.07012  -0.00341
  34        4PZ        -0.03385  -0.00949  -0.17396  -0.00394   0.08589
  35        5PX        -0.00266   0.08976   0.01131  -0.11412  -0.01664
  36        5PY        -0.00221  -0.01606  -0.02853   0.01412   0.03380
  37        5PZ        -0.01845   0.02978  -0.11347  -0.05317   0.07303
  38        6D 0       -0.01694  -0.00089  -0.00790  -0.00072  -0.00333
  39        6D+1       -0.01960   0.00196  -0.00349  -0.00163  -0.01086
  40        6D-1        0.00107  -0.00672   0.02314   0.01119  -0.02863
  41        6D+2        0.00976  -0.00040   0.00117   0.00185   0.00648
  42        6D-2       -0.00092  -0.02178  -0.00660   0.02172   0.01259
  43 4   N  1S         -0.00113   0.06277  -0.00598  -0.08294  -0.00752
  44        2S          0.00155   0.12713  -0.00818  -0.17352  -0.01956
  45        3S         -0.04520   0.16726  -0.05714  -0.23124   0.02146
  46        4PX        -0.00516  -0.22927  -0.06596   0.24493   0.11812
  47        4PY        -0.00579   0.23308   0.00809  -0.23836  -0.05664
  48        4PZ        -0.00515  -0.09561   0.26749   0.14192  -0.28140
  49        5PX         0.01979   0.15172   0.06408  -0.13967  -0.09799
  50        5PY         0.00125  -0.16375  -0.00811   0.16491   0.05124
  51        5PZ         0.00268   0.05798  -0.19330  -0.09267   0.22465
  52        6D 0       -0.00155   0.00653   0.00385  -0.00742  -0.00600
  53        6D+1       -0.00348  -0.00473   0.00186   0.00718  -0.00205
  54        6D-1       -0.00120   0.00432  -0.01569  -0.00686   0.01295
  55        6D+2        0.00026   0.00520   0.00050  -0.00020  -0.00036
  56        6D-2        0.00114   0.01108   0.00509  -0.01320  -0.00679
  57 5   C  1S         -0.00179   0.01719  -0.00357  -0.02593   0.00007
  58        2S         -0.00480  -0.03905   0.01475   0.06318  -0.00948
  59        3S          0.12160  -0.04840  -0.04469   0.09214   0.09662
  60        4PX        -0.02969  -0.11006  -0.02501   0.12797   0.04072
  61        4PY        -0.03981   0.04467  -0.01347  -0.02554  -0.00350
  62        4PZ         0.08310  -0.01194   0.11344   0.04295  -0.08383
  63        5PX        -0.01075  -0.02949   0.04198   0.04337  -0.04033
  64        5PY         0.01648  -0.02413  -0.00611   0.05796   0.01342
  65        5PZ         0.06261   0.01507   0.01572   0.00188   0.00016
  66        6D 0        0.00416   0.00266  -0.00235  -0.00292   0.00419
  67        6D+1       -0.00183   0.00022  -0.01285  -0.00254   0.01384
  68        6D-1       -0.00165  -0.00872  -0.00621   0.00740   0.00796
  69        6D+2        0.00154  -0.00282   0.00760   0.00266  -0.00770
  70        6D-2        0.00369  -0.01412   0.00372   0.01683   0.00049
  71 6   H  1S         -0.02765  -0.06073  -0.09073   0.03850   0.09588
  72        2S         -0.01291  -0.02441  -0.06643   0.01685   0.06963
  73        3PX        -0.00111  -0.00123  -0.00005   0.00187  -0.00048
  74        3PY        -0.00152  -0.00039  -0.00350  -0.00038   0.00289
  75        3PZ         0.00042  -0.00232   0.00023   0.00238  -0.00004
  76 7   C  1S          0.00322  -0.02600   0.00732   0.02588  -0.00129
  77        2S         -0.00454   0.06465  -0.02150  -0.06278   0.00545
  78        3S         -0.07560   0.11241   0.00137  -0.15533  -0.04267
  79        4PX         0.05369   0.05996   0.01323  -0.04183  -0.00607
  80        4PY         0.01745  -0.09523   0.02497   0.09815  -0.00981
  81        4PZ        -0.11616   0.04080  -0.07044  -0.04803   0.02228
  82        5PX        -0.00948   0.02373  -0.00207  -0.01903  -0.00953
  83        5PY         0.02266  -0.08633   0.01468   0.10501   0.00357
  84        5PZ        -0.05632   0.03889  -0.00964  -0.04982  -0.00287
  85        6D 0        0.01440   0.00215   0.01122  -0.00030  -0.00431
  86        6D+1        0.00477   0.00205   0.00282  -0.00086   0.00003
  87        6D-1        0.00560  -0.00031   0.00323  -0.00008   0.00032
  88        6D+2       -0.00457  -0.00088  -0.00158   0.00116  -0.00100
  89        6D-2        0.00049   0.00472  -0.00177  -0.00615  -0.00027
  90 8   O  1S         -0.00124   0.00691  -0.00095  -0.01206  -0.00014
  91        2S         -0.00466   0.01588  -0.00183  -0.02582  -0.00271
  92        3S          0.00988   0.05561  -0.01496  -0.08728   0.01515
  93        4PX        -0.14466   0.02505  -0.11371  -0.04057   0.03400
  94        4PY        -0.00526  -0.10715   0.02114   0.10637   0.00078
  95        4PZ         0.26635   0.05446   0.23265  -0.02332  -0.09404
  96        5PX        -0.11875   0.02630  -0.09204  -0.04405   0.02817
  97        5PY        -0.00808  -0.08037   0.02130   0.08617  -0.00801
  98        5PZ         0.20441   0.04442   0.19383  -0.02014  -0.08809
  99        6D 0        0.00276  -0.00132   0.00018   0.00153  -0.00019
 100        6D+1        0.00198  -0.00057  -0.00032   0.00086  -0.00026
 101        6D-1       -0.00705   0.00021  -0.00384  -0.00070   0.00012
 102        6D+2       -0.00134  -0.00285   0.00061   0.00270  -0.00002
 103        6D-2        0.00386   0.00207   0.00115  -0.00145   0.00012
 104 9   C  1S         -0.00557   0.00051  -0.02066  -0.00410   0.02043
 105        2S          0.02013  -0.00276   0.04448   0.01113  -0.04026
 106        3S         -0.04817  -0.01198   0.17542   0.04324  -0.20183
 107        4PX         0.03523   0.03589   0.08007  -0.00905  -0.07780
 108        4PY         0.03865  -0.01235   0.04466   0.00761  -0.03668
 109        4PZ        -0.07397   0.00494  -0.10200  -0.01611   0.08483
 110        5PX         0.01075   0.01298   0.04287  -0.00365  -0.03471
 111        5PY        -0.03100   0.04396   0.03403  -0.05925  -0.06729
 112        5PZ        -0.02362   0.03011  -0.09221  -0.03766   0.09581
 113        6D 0        0.00164   0.00091   0.00207  -0.00142  -0.00229
 114        6D+1       -0.00330  -0.00043  -0.00389  -0.00057   0.00312
 115        6D-1       -0.00122  -0.00293  -0.00292   0.00185   0.00303
 116        6D+2        0.00250  -0.00358   0.00087   0.00326   0.00073
 117        6D-2        0.00102  -0.00030   0.00208   0.00057  -0.00156
 118 10  C  1S          0.00319   0.00129   0.00082   0.00002   0.00045
 119        2S         -0.01208  -0.00237  -0.00071   0.00012  -0.00452
 120        3S          0.04069  -0.05166  -0.03189   0.04781   0.05347
 121        4PX        -0.01960  -0.01344   0.01120   0.00781  -0.01465
 122        4PY        -0.00086   0.00874   0.00892  -0.00188  -0.00938
 123        4PZ         0.02926   0.00275   0.03630   0.00604  -0.02828
 124        5PX         0.01197  -0.00662   0.01521   0.00240  -0.01154
 125        5PY        -0.00298   0.01783   0.01270  -0.01351  -0.01740
 126        5PZ        -0.00339   0.01029   0.03678  -0.00279  -0.04929
 127        6D 0        0.00246  -0.00039   0.00308   0.00080  -0.00239
 128        6D+1       -0.00220  -0.00084  -0.00212  -0.00018   0.00149
 129        6D-1       -0.00024  -0.00102  -0.00036   0.00054   0.00040
 130        6D+2        0.00198  -0.00068   0.00154   0.00068  -0.00076
 131        6D-2        0.00067  -0.00110  -0.00035   0.00069   0.00081
 132 11  C  1S         -0.00141   0.00667   0.00097  -0.00580  -0.00324
 133        2S          0.00321  -0.01595  -0.00217   0.01563   0.00900
 134        3S          0.01500   0.00107  -0.03406  -0.01685   0.04771
 135        4PX        -0.01484  -0.03656  -0.03085   0.02164   0.03335
 136        4PY         0.01249  -0.00281  -0.00519   0.00605   0.01279
 137        4PZ         0.00328  -0.01576   0.00022   0.00755   0.00264
 138        5PX        -0.01354  -0.01141  -0.04087  -0.00591   0.04015
 139        5PY         0.01438  -0.00946  -0.00822   0.01271   0.02106
 140        5PZ         0.00236  -0.01401  -0.00949   0.00740   0.01269
 141        6D 0       -0.00104  -0.00016  -0.00160  -0.00016   0.00137
 142        6D+1       -0.00236  -0.00085  -0.00361   0.00057   0.00332
 143        6D-1       -0.00067  -0.00140  -0.00120   0.00087   0.00115
 144        6D+2        0.00095  -0.00028   0.00135   0.00003  -0.00119
 145        6D-2        0.00164  -0.00109   0.00170   0.00047  -0.00132
 146 12  C  1S          0.00547  -0.00058   0.00195  -0.00066   0.00057
 147        2S         -0.01111   0.00403  -0.00341   0.00365   0.00132
 148        3S         -0.03821  -0.00349  -0.02391  -0.04065  -0.03268
 149        4PX        -0.00764  -0.05367   0.00630   0.03594  -0.00595
 150        4PY        -0.03741   0.01014  -0.02254  -0.00777   0.01021
 151        4PZ         0.03502  -0.02311   0.02483   0.01802  -0.01497
 152        5PX         0.00702  -0.04595   0.00546   0.02438  -0.01145
 153        5PY        -0.02879   0.01804  -0.02250  -0.02601   0.00388
 154        5PZ         0.02202  -0.04392   0.02503   0.03636  -0.02234
 155        6D 0        0.00160   0.00019   0.00191   0.00034  -0.00141
 156        6D+1       -0.00215  -0.00227  -0.00120   0.00124   0.00044
 157        6D-1       -0.00154  -0.00147  -0.00230   0.00061   0.00215
 158        6D+2        0.00039  -0.00164  -0.00060   0.00042   0.00061
 159        6D-2        0.00269   0.00005   0.00221  -0.00012  -0.00157
 160 13  N  1S          0.00081   0.06272  -0.00610   0.08318   0.00742
 161        2S         -0.00204   0.12662  -0.00870   0.17460   0.01966
 162        3S          0.04301   0.17157  -0.05389   0.22708  -0.02479
 163        4PX        -0.00781   0.22649   0.06420   0.24301   0.12188
 164        4PY         0.00292   0.23533   0.00655   0.23839   0.05693
 165        4PZ        -0.00289   0.09784  -0.25701   0.14392  -0.28783
 166        5PX         0.02072  -0.15026  -0.06272  -0.13704  -0.10173
 167        5PY         0.00068  -0.16352  -0.00556  -0.16784  -0.05149
 168        5PZ         0.00042  -0.05941   0.18381  -0.09349   0.22764
 169        6D 0        0.00147   0.00644   0.00367   0.00738   0.00612
 170        6D+1        0.00344  -0.00473   0.00172  -0.00728   0.00193
 171        6D-1       -0.00138  -0.00451   0.01508  -0.00696   0.01329
 172        6D+2       -0.00039   0.00536   0.00046   0.00035   0.00036
 173        6D-2        0.00138  -0.01104  -0.00500  -0.01308  -0.00695
 174 14  C  1S          0.00424   0.03481  -0.00259   0.03187   0.00274
 175        2S         -0.01199  -0.08666   0.00662  -0.08369  -0.00871
 176        3S         -0.01571   0.01147  -0.00240   0.00151   0.02419
 177        4PX         0.01996  -0.03521  -0.06480  -0.03049  -0.03890
 178        4PY         0.00779   0.09557  -0.02382   0.06936   0.00147
 179        4PZ        -0.03753   0.00838   0.16788  -0.00363   0.08918
 180        5PX         0.00032  -0.08878  -0.01131  -0.10906  -0.01800
 181        5PY         0.00317  -0.01210  -0.02518  -0.01973  -0.03370
 182        5PZ        -0.01849  -0.03075   0.11337  -0.05317   0.07864
 183        6D 0        0.01692  -0.00068  -0.00821   0.00075   0.00289
 184        6D+1        0.01858   0.00217  -0.00384   0.00146   0.01022
 185        6D-1        0.00127   0.00703  -0.02194   0.01140  -0.02915
 186        6D+2       -0.00975  -0.00044   0.00140  -0.00240  -0.00638
 187        6D-2       -0.00105   0.02197   0.00633   0.02152   0.01321
 188 15  O  1S          0.00249   0.00670  -0.00116   0.01210   0.00080
 189        2S          0.00739   0.01564  -0.00240   0.02613   0.00421
 190        3S         -0.00688   0.05330  -0.01488   0.08644  -0.01323
 191        4PX        -0.14321  -0.02537   0.11454  -0.03977   0.04160
 192        4PY         0.00848  -0.10834   0.02256  -0.10535   0.00262
 193        4PZ         0.25695  -0.05330  -0.22842  -0.02295  -0.10910
 194        5PX        -0.11660  -0.02559   0.09291  -0.04180   0.03560
 195        5PY         0.00991  -0.08200   0.02180  -0.08699   0.00981
 196        5PZ         0.19854  -0.04307  -0.18993  -0.01931  -0.09847
 197        6D 0       -0.00264  -0.00138   0.00024  -0.00154   0.00031
 198        6D+1       -0.00190  -0.00059  -0.00033  -0.00087   0.00016
 199        6D-1       -0.00658  -0.00021   0.00391  -0.00072   0.00078
 200        6D+2        0.00137  -0.00295   0.00066  -0.00270   0.00009
 201        6D-2        0.00384  -0.00208  -0.00127  -0.00143  -0.00009
 202 16  C  1S         -0.00264  -0.02610   0.00704  -0.02574   0.00180
 203        2S          0.00327   0.06486  -0.02039   0.06253  -0.00660
 204        3S          0.06956   0.11211  -0.00278   0.15175   0.03525
 205        4PX         0.05528  -0.05922  -0.01430  -0.04085  -0.00620
 206        4PY        -0.01907  -0.09594   0.02426  -0.09929   0.00863
 207        4PZ        -0.11304  -0.04170   0.06937  -0.04814   0.02604
 208        5PX        -0.00632  -0.02303   0.00354  -0.01716  -0.00534
 209        5PY        -0.02210  -0.08706   0.01577  -0.10499  -0.00239
[...]
 38,0.00006009,-0.00001172,0.00009444,0.00013296,0.00003741,-0.00056972
 ,0.00020170,-0.00048405,0.00042417,0.00002365,0.00001196,0.00520580,-0
 .00152900,0.00349513,-0.01475061,0.00252180,-0.00890380,0.27958982,-0.
 00000952,-0.00009917,-0.00001230,-0.00043549,0.00013437,-0.00008441,0.
 00033147,0.00008046,0.00010250,-0.00016875,-0.00011690,0.00006615,0.00
 009833,0.00008873,0.00005470,-0.00003013,-0.00001772,-0.00003130,0.000
 04277,0.00004154,0.00001479,-0.00014652,-0.00001532,-0.00006123,-0.000
 01728,0.00001170,-0.00004286,0.00000485,-0.00001054,0.00001410,-0.0000
 0529,-0.00000793,0.00002520,0.00000089,0.00002114,0.00002317,0.0002265
 5,-0.00027330,0.00012788,0.00019666,-0.00102404,0.00000878,0.00050507,
 0.00033643,0.00004706,-0.00022125,0.00001134,0.00007648,-0.00028066,0.
 00102272,0.00044647,0.00005180,-0.00006571,-0.00005056,-0.02429492,0.0
 0585469,-0.01044671,-0.00147998,-0.00484835,-0.00212926,0.04159543,-0.
 05438159,0.02159619,-0.00092646,0.00162198,-0.00069156,-0.00000010,0.0
 0001097,-0.00000128,0.00000666,0.00000520,-0.00000526,0.00000477,0.000
 01817,0.00001029,-0.00001095,0.00000616,-0.00000254,-0.00000332,-0.000
 00824,-0.00000171,-0.00000778,-0.00000160,0.00000455,0.00000603,-0.000
 00769,-0.00000460,-0.00000032,0.00000051,-0.00001380,-0.00001026,-0.00
 000366,0.00000073,-0.00000182,-0.00000242,-0.00000710,0.00000799,-0.00
 000263,0.00000077,0.00000232,-0.00001311,-0.00000028,0.00000141,0.0000
 1757,0.00000331,-0.00001876,-0.00001371,-0.00001608,0.00001147,0.00002
 075,0.00003306,-0.00001165,0.00010400,0.00000873,0.00006856,0.00002095
 ,-0.00024652,-0.00169657,0.00026774,-0.00083128,0.00003434,-0.00014138
 ,0.00018245,0.01913859,-0.00357016,0.00789531,0.00856107,-0.00276081,0
 .00537870,-0.04172719,0.05801837,-0.00003565,-0.00015550,-0.00000209,-
 0.00037196,0.00028751,-0.00010520,0.00022516,-0.00021995,0.00015720,-0
 .00012376,0.00012815,0.00005463,0.00013468,0.00006843,0.00002276,-0.00
 000650,-0.00002521,-0.00000079,0.00004208,0.00005161,0.00005151,-0.000
 23998,0.00015960,-0.00014239,0.00000294,-0.00001426,-0.00001553,-0.000
 00181,0.00000019,0.00000241,-0.00000433,0.00000701,0.00001655,0.000003
 05,-0.00000078,0.00001494,-0.00012255,0.00064342,0.00035367,0.00041811
 ,-0.00157824,0.00019011,0.00096316,0.00081030,0.00017648,-0.00026999,0
 .00016293,-0.00002905,-0.00145086,0.00081114,0.00000666,-0.00004778,-0
 .00008790,0.00009730,-0.00973456,0.00360822,-0.00621786,-0.00013878,-0
 .00255172,-0.00081403,-0.10689990,0.02012052,-0.09892847,0.00088199,0.
 00078152,0.00029783,-0.00000786,0.00001485,0.00000036,0.00001490,0.000
 02866,0.00000059,0.00000953,0.00003162,0.00001103,-0.00001700,0.000013
 48,-0.00000789,-0.00001020,-0.00000620,-0.00001941,-0.00000935,-0.0000
 0557,0.00000628,0.00000050,0.00000632,-0.00000358,0.00000264,-0.000006
 10,-0.00001753,-0.00000879,-0.00000515,0.00000444,0.00000498,-0.000003
 25,-0.00000184,-0.00000314,0.00000681,-0.00000456,-0.00002629,0.000001
 71,0.00000926,0.00000953,-0.00000400,-0.00004371,0.00002357,0.00001524
 ,0.00000682,0.00002903,-0.00002162,0.00002541,0.00006632,0.00011678,0.
 00002366,0.00033443,-0.00012156,0.00021677,-0.00095909,-0.00000886,0.0
 0023028,-0.00023588,0.00008403,0.00019224,-0.01952595,0.00266639,-0.00
 901977,0.01997303,-0.00375165,0.01037545,0.11679664,-0.02179965,0.1024
 4637,-0.00005450,-0.00012868,0.00007043,0.00020723,0.00019464,0.000094
 48,-0.00023496,-0.00030398,-0.00010247,0.00006892,0.00016961,0.0000924
 1,-0.00001570,-0.00001599,-0.00001810,0.00002052,0.00001386,0.00000714
 ,-0.00002939,-0.00002626,-0.00003158,0.00008051,0.00008618,0.00001857,
 0.00000946,-0.00000250,0.00001187,-0.00000629,0.00000074,-0.00000120,0
 .00000130,0.00000234,-0.00000648,-0.00000163,-0.00000510,-0.00000444,-
 0.00021625,0.00092986,0.00052874,-0.00144220,-0.00158655,-0.00043056,0
 .00091868,0.00123160,-0.00029360,0.00029818,-0.00026479,0.00063083,0.0
 0039672,-0.00107294,-0.00075011,-0.00004617,0.00011737,0.00007282,-0.0
 0258707,-0.00002508,0.00013121,0.00047378,0.00089305,0.00045976,0.0003
 4124,-0.00002121,0.00056826,-0.08951459,-0.09241501,-0.03782288,0.0000
 1490,0.00000988,-0.00002030,-0.00005611,0.00011844,-0.00003495,-0.0000
 0033,0.00003633,-0.00000579,0.00000481,0.00000108,0.00000570,0.0000089
 0,0.00000031,0.00000900,0.00000248,0.00000168,-0.00000098,-0.00000344,
 0.00000210,0.00000042,0.00000162,-0.00000187,0.00000454,0.00000300,0.0
 0000111,-0.00000040,0.00000098,0.00000251,0.00000296,-0.00000210,0.000
 00016,-0.00000060,0.00000090,0.00000257,-0.00000060,-0.00000091,-0.000
 00622,0.00000074,0.00000362,0.00000476,0.00000469,0.00011813,0.0000812
 2,-0.00007934,0.00032723,0.00000694,0.00023923,-0.00002495,-0.00008742
 ,0.00014618,0.00027410,-0.00010389,-0.00015484,-0.00001188,0.00007945,
 0.00007206,0.00053755,-0.00028763,-0.00013435,0.00005753,-0.00022630,-
 0.00020888,0.00033214,0.00027026,0.00014506,0.09048169,-0.00000715,-0.
 00002070,-0.00000244,0.00007461,0.00013137,0.00002230,-0.00006879,-0.0
 0013034,-0.00000389,0.00002602,0.00008075,0.00002583,-0.00000122,-0.00
 001470,-0.00001098,0.00001039,0.00000479,0.00000706,-0.00000557,-0.000
 00872,-0.00000502,0.00001001,0.00005521,-0.00000344,0.00000617,-0.0000
 0586,0.00000823,-0.00000425,0.00000230,-0.00000221,0.00000031,0.000003
 52,-0.00000369,0.00000023,-0.00000311,-0.00000423,-0.00001588,0.000531
 29,0.00034865,-0.00066717,-0.00083158,-0.00013316,0.00058507,0.0005190
 3,-0.00044532,-0.00057735,0.00014039,-0.00068759,0.00046565,-0.0003604
 8,-0.00116558,0.00005911,0.00004370,-0.00001434,-0.00803982,-0.0168769
 1,-0.00975072,-0.00088965,0.00068080,-0.00115676,0.00025268,-0.0024845
 9,0.00515311,-0.09258532,-0.24192658,-0.07687427,0.00000119,0.00000357
 ,-0.00000096,-0.00000720,0.00001104,-0.00000403,-0.00001433,0.00001544
 ,0.00000955,0.00000009,0.00000101,0.00000185,0.00000191,-0.00000048,0.
 00000040,0.00000037,-0.00000077,0.00000040,-0.00000210,0.00000386,-0.0
 0000017,0.00000149,-0.00000218,0.00000036,0.00000124,-0.00000040,0.000
 00082,0.00000188,0.00000112,0.00000249,-0.00000278,0.00000225,-0.00000
 162,-0.00000338,0.00000244,0.00000117,0.00000097,-0.00000779,-0.000006
 25,0.00000794,0.00000594,0.00000673,0.00045779,0.00016436,-0.00007217,
 0.00031568,0.00054444,0.00026736,0.00004617,0.00036086,0.00011179,0.00
 071940,0.00012615,0.00060739,-0.00000678,-0.00009618,0.00001008,-0.000
 60372,-0.00135066,-0.00054593,0.00012791,0.00035047,-0.00000603,0.0001
 0857,0.00024836,-0.00004978,0.10134347,0.26143389,-0.00005309,-0.00011
 718,0.00002222,-0.00023034,0.00005701,-0.00011226,0.00013721,0.0000240
 1,0.00003496,-0.00006389,-0.00002461,0.00000598,0.00003051,0.00001481,
 0.00000424,-0.00000189,-0.00000081,-0.00000479,0.00000851,0.00000911,0
 .00000514,-0.00007094,0.00002092,-0.00003184,-0.00000229,0.00000543,-0
 .00000991,0.00000149,-0.00000331,0.00000481,-0.00000127,-0.00000280,0.
 00000678,0.00000093,0.00000152,0.00000393,-0.00009204,-0.00016619,-0.0
 0002597,0.00051588,0.00001783,0.00031074,-0.00053600,-0.00004794,-0.00
 049850,0.00156177,0.00016790,-0.00161324,0.00011073,-0.00027181,0.0011
 6118,-0.00027415,-0.00004806,0.00018759,0.00934915,0.01881381,0.009692
 56,0.00079765,-0.00015753,0.00111680,0.00018850,0.00276224,-0.00330222
 ,-0.03810097,-0.07772800,-0.07721867,-0.00000579,0.00000725,-0.0000060
 7,0.00000645,0.00002222,0.00001634,0.00002438,0.00001274,-0.00000513,-
 0.00000569,0.00000272,0.00000083,0.00000032,-0.00000596,-0.00000194,-0
 .00000308,-0.00000097,0.00000284,0.00000028,0.00000017,-0.00000242,0.0
 0000075,-0.00000108,-0.00000489,-0.00000367,-0.00000157,0.00000187,0.0
 0000098,-0.00000007,-0.00000152,0.00000113,0.00000133,-0.00000097,-0.0
 0000329,-0.00000190,0.00000262,0.00000119,0.00000454,-0.00000358,-0.00
 000053,0.00000061,-0.00000287,-0.00017061,-0.00000704,0.00009087,-0.00
 031395,-0.00025985,-0.00116333,0.00020785,-0.00020500,0.00004596,-0.00
 031563,-0.00025604,-0.00000768,-0.00009668,-0.00010866,-0.00009507,0.0
 0039056,0.00133448,0.00059840,-0.00020633,0.00023563,0.00006065,0.0001
 4320,-0.00004882,-0.00012603,0.04017242,0.08315797,0.08259879,0.000073
 85,0.00014763,-0.00003370,0.00033843,-0.00019462,-0.00008722,-0.000129
 36,0.00006193,-0.00006529,0.00005709,-0.00001729,-0.00001888,-0.000025
 25,-0.00001703,-0.00001820,0.00000522,0.00000443,0.00000312,-0.0000069
 6,-0.00000928,-0.00001592,0.00006129,-0.00004743,0.00005161,0.00000547
 ,0.00000042,0.00000714,-0.00000189,0.00000097,-0.00000113,0.00000060,-
 0.00000013,-0.00000467,-0.00000165,-0.00000288,-0.00000237,0.00004990,
 -0.00054239,0.00106455,-0.00030289,0.00075888,0.00112777,-0.00030318,-
 0.00059269,0.00001876,-0.00025550,0.00012189,-0.00033927,-0.00079727,0
 .00068979,0.00024778,0.00002934,-0.00006835,-0.00017814,0.00182587,-0.
 00053051,0.00004044,0.00094857,0.00040906,-0.00002440,0.00058608,-0.00
 052634,0.00040983,-0.27851994,0.04628384,-0.08904186,0.00000410,-0.000
 01350,0.00000553,-0.00001307,-0.00008785,-0.00001519,-0.00002523,-0.00
 002888,0.00001748,0.00000375,-0.00000171,0.00000163,0.00000523,0.00000
 329,0.00000572,0.00000058,0.00000017,0.00000003,0.00000156,-0.00000149
 ,0.00000078,-0.00000045,0.00000202,0.00000299,0.00000155,0.00000064,0.
 00000071,-0.00000013,0.00000167,0.00000050,0.00000157,-0.00000193,0.00
 000056,0.00000097,0.00000032,0.00000005,0.00000049,0.00000040,0.000002
 70,-0.00000053,0.00000036,0.00000017,0.00007648,-0.00000031,-0.0000283
 0,0.00005097,0.00010361,0.00001977,0.00001818,-0.00009215,0.00004452,0
 .00004121,-0.00006392,0.00015638,0.00020237,-0.00024489,0.00007008,0.0
 0020851,0.00002275,0.00006380,-0.00009579,-0.00000047,-0.00007111,0.00
 024990,0.00026883,0.00000996,-0.00803896,0.00324660,-0.00187507,0.2975
 2801,0.00007742,0.00009363,-0.00007243,0.00008579,-0.00021146,0.000233
 20,0.00012858,0.00028030,-0.00001788,0.00002780,-0.00013731,-0.0001039
 4,-0.00002051,0.00000343,0.00001612,-0.00001530,-0.00000946,-0.0000026
 2,0.00001479,0.00001114,0.00000937,0.00001364,-0.00010130,0.00004337,-
 0.00000649,-0.00000393,-0.00000216,0.00000396,0.00000230,-0.00000282,-
 0.00000033,0.00000056,-0.00000054,0.00000049,0.00000478,0.00000072,0.0
 0004824,-0.00020084,-0.00073242,0.00002168,0.00134668,-0.00032104,-0.0
 0043567,-0.00057476,-0.00000416,-0.00045204,-0.00018540,-0.00020578,0.
 00049166,0.00048409,-0.00061050,0.00009798,-0.00005202,-0.00009560,0.0
 2100148,-0.00450953,0.00568030,-0.00111126,-0.00342343,0.00337397,0.00
 167659,0.00102135,0.00027753,0.04465126,-0.05573273,0.01642839,0.00000
 318,-0.00000546,0.00001208,-0.00001835,-0.00008820,-0.00002301,-0.0000
 2923,-0.00002893,0.00001861,0.00000113,-0.00000488,-0.00000247,-0.0000
 0295,0.00000598,-0.00000133,0.00000151,-0.00000038,-0.00000191,0.00000
 192,-0.00000218,0.00000095,-0.00000191,0.00000182,0.00000179,0.0000011
 6,0.00000032,-0.00000157,-0.00000192,-0.00000176,-0.00000095,0.0000010
 6,-0.00000156,0.00000122,0.00000450,-0.00000121,-0.00000267,-0.0000012
 3,0.00000076,0.00000589,-0.00000485,-0.00000578,-0.00000212,0.00013022
 ,0.00006212,-0.00002738,0.00013682,0.00003641,0.00006320,0.00133289,-0
 .00005151,0.00089510,0.00010437,0.00017003,0.00016408,-0.00034158,0.00
 006160,-0.00011364,-0.00022873,0.00027101,-0.00017338,-0.00000957,-0.0
 0001863,0.00004426,-0.00065744,-0.00054404,-0.00010745,-0.02472372,0.0
 0635380,-0.00823772,-0.05090563,0.05838026,-0.00001298,-0.00019166,-0.
 00006555,-0.00061583,0.00009257,-0.00014712,0.00075433,0.00031316,0.00
 020647,-0.00023093,-0.00022823,-0.00004412,0.00011940,0.00006098,0.000
 04587,-0.00003093,-0.00002407,-0.00001715,0.00006452,0.00005942,0.0000
 6216,-0.00028245,0.00000310,-0.00011402,-0.00001721,0.00000969,-0.0000
 4135,0.00000537,-0.00000735,0.00001156,-0.00000577,-0.00000601,0.00002
 759,0.00000165,0.00000946,0.00001472,0.00005316,0.00023910,0.00081674,
 0.00122013,-0.00205145,-0.00108831,0.00066898,0.00015099,0.00026435,-0
 .00072590,0.00025824,-0.00071199,-0.00157411,-0.00007527,0.00058509,0.
 00000896,0.00001300,0.00022742,-0.02172027,0.00292317,-0.00787675,0.00
 151449,0.00353525,-0.00333064,-0.00011128,-0.00127971,0.00040115,-0.08
 755853,0.01692672,-0.07766534,-0.00001584,0.00002664,0.00001306,0.0000
 2423,-0.00002827,0.00000804,0.00000406,0.00002812,0.00001957,-0.000019
 98,0.00000823,-0.00000974,-0.00001453,-0.00001259,-0.00001988,-0.00001
 187,-0.00000475,0.00000740,0.00000437,-0.00000038,-0.00000510,0.000002
 98,-0.00000220,-0.00002115,-0.00001330,-0.00000562,0.00000340,0.000002
 12,-0.00000362,-0.00000556,0.00000357,0.00000371,-0.00000180,-0.000012
 55,-0.00000686,0.00000700,0.00000540,0.00001378,-0.00001797,0.00000103
 ,-0.00000095,-0.00000706,0.00012192,-0.00005347,0.00000804,0.00013793,
 0.00020681,0.00007683,-0.00144392,0.00065934,-0.00037412,0.00030445,-0
 .00011471,0.00012374,-0.00009973,0.00010651,0.00019311,0.00015455,-0.0
 0018460,-0.00007823,0.00015409,-0.00004082,-0.00000035,0.00022096,0.00
 032279,0.00051476,-0.00884659,0.00302466,-0.00423572,0.09527217,-0.020
 75185,0.08314576,-0.00001154,-0.00011320,-0.00004000,-0.00031806,0.000
 07635,-0.00007779,0.00043543,0.00018167,0.00010210,-0.00013235,-0.0001
 3987,-0.00003487,0.00007012,0.00004328,0.00003372,-0.00001852,-0.00001
 562,-0.00001103,0.00004025,0.00003844,0.00003715,-0.00016204,-0.000005
 68,-0.00006219,-0.00001122,0.00000374,-0.00002467,0.00000401,-0.000004
 02,0.00000654,-0.00000351,-0.00000246,0.00001657,0.00000211,0.00000776
 ,0.00001015,0.00021853,0.00007747,0.00091442,0.00029179,-0.00096086,-0
 .00021124,0.00020946,0.00011229,-0.00008833,-0.00020007,0.00008661,-0.
 00032939,-0.00018682,-0.00038741,-0.00062684,0.00008310,0.00003734,0.0
 0011123,-0.00170664,0.00054778,-0.00054096,0.00068527,-0.00021618,-0.0
 0108984,-0.00000575,0.00048134,0.00009697,-0.13012824,0.05013707,0.118
 23529,-0.00000458,0.00001663,0.00000406,0.00000642,-0.00001832,-0.0000
 0389,0.00000208,0.00001284,0.00001362,-0.00001189,0.00000435,-0.000004
 70,-0.00000685,-0.00000619,-0.00001107,-0.00000612,-0.00000279,0.00000
 388,0.00000235,-0.00000037,-0.00000322,0.00000059,-0.00000174,-0.00001
 187,-0.00000749,-0.00000333,0.00000158,0.00000094,-0.00000318,-0.00000
 378,0.00000182,0.00000240,-0.00000101,-0.00000622,-0.00000425,0.000003
 46,0.00000281,0.00000779,-0.00000960,-0.00000040,-0.00000190,-0.000005
 02,0.00012034,0.00005002,0.00001468,0.00009277,0.00009725,0.00019474,0
 .00001203,-0.00015510,0.00005133,-0.00001659,-0.00005368,-0.00005855,0
 .00025069,0.00016925,0.00013928,0.00003738,-0.00008719,-0.00028641,0.0
 0020628,-0.00049019,0.00002954,-0.00023485,0.00006883,0.00016069,0.007
 30132,-0.00437047,-0.01122464,-0.01385907,0.00890860,0.02253969,0.1369
 6094,-0.00002889,-0.00001505,0.00003076,0.00001619,0.00012868,0.000030
 08,-0.00011983,-0.00003716,-0.00001700,0.00005343,0.00002163,-0.000001
 67,-0.00002780,-0.00000488,-0.00000385,0.00000237,0.00000373,0.0000018
 7,-0.00001929,-0.00001342,-0.00001631,0.00006191,0.00000688,0.00002540
 ,0.00000128,-0.00000291,0.00000668,0.00000038,0.00000200,-0.00000221,0
 .00000117,0.00000171,-0.00000563,0.00000167,0.,-0.00000071,0.00034200,
 0.00027147,-0.00021136,-0.00077666,-0.00076632,-0.00023860,0.00056523,
 0.00061191,-0.00034830,0.00006544,-0.00030512,0.00003734,0.00024561,-0
 .00417023,0.00320236,-0.00079805,0.00050024,0.00113630,-0.01350261,0.0
 0643185,0.01813377,-0.00085941,0.00078211,-0.00016919,-0.00057193,0.00
 131029,0.00090832,0.05086755,-0.07330244,-0.07027990,0.00001141,0.0000
 0801,-0.00000960,-0.00002079,0.00004950,-0.00001817,-0.00000603,0.0000
 1132,-0.00000216,0.00000534,-0.00000183,0.00000076,0.00000129,0.000003
 87,0.00000366,0.00000282,0.00000139,-0.00000240,-0.00000165,-0.0000007
 7,0.00000105,-0.00000015,-0.00000032,0.00000480,0.00000306,0.00000149,
 -0.00000149,-0.00000121,0.00000064,0.00000086,-0.00000073,-0.00000173,
 0.00000069,0.00000346,0.00000091,-0.00000279,-0.00000053,-0.00000165,0
 .00000569,-0.00000297,-0.00000157,-0.00000022,0.00017937,0.00008648,-0
 .00005407,0.00022531,0.00017710,0.00024654,-0.00019077,0.00002752,-0.0
 0021547,0.00012678,-0.00007752,-0.00008259,0.00031006,0.00005323,-0.00
 023451,0.00015760,0.00026072,-0.00016847,0.00029841,-0.00033718,-0.000
 17921,-0.00006050,-0.00003384,-0.00010200,0.01570361,-0.00770015,-0.01
 897131,0.00186219,-0.00269566,-0.00392101,-0.05412512,0.07871507,0.000
 04284,0.00007633,0.00001149,0.00047095,-0.00017404,0.00015775,-0.00027
 343,-0.00018091,-0.00013526,0.00009037,0.00011893,0.00004998,-0.000039
 09,-0.00002609,-0.00001576,0.00001242,0.00000951,0.00000718,-0.0000238
 5,-0.00002369,-0.00002229,0.00012214,0.00000154,0.00004854,0.00000700,
 -0.00000199,0.00001373,-0.00000531,0.00000161,-0.00000416,0.00000192,0
 .00000102,-0.00000895,-0.00000480,-0.00000581,-0.00000700,-0.00024921,
 -0.00026052,0.00079532,-0.00055447,0.00034202,0.00000653,0.00019050,-0
 .00022930,-0.00020318,-0.00005158,0.00056341,0.00031158,-0.00142150,0.
 00453600,-0.00240499,0.00093997,-0.00031408,-0.00123742,0.01298642,-0.
 00809395,-0.01847122,0.00099346,-0.00123198,0.00066109,-0.00037818,-0.
 00146607,0.00076695,0.11778281,-0.06897827,-0.20452874,0.00000622,-0.0
 0001300,0.00000053,-0.00001975,-0.00001556,-0.00001435,-0.00001962,-0.
 00000336,0.00000407,0.00000791,-0.00000287,0.00000260,0.00000564,0.000
 00513,0.00000881,0.00000377,0.00000235,-0.00000304,-0.00000082,-0.0000
 0040,0.00000291,0.00000005,0.00000209,0.00000723,0.00000462,0.00000229
 ,-0.00000218,-0.00000080,0.00000208,0.00000294,-0.00000062,-0.00000217
 ,0.00000135,0.00000527,0.00000239,-0.00000284,-0.00000235,-0.00000442,
 0.00000628,0.00000024,0.00000095,0.00000404,0.00001681,-0.00005292,-0.
 00002778,0.00000665,-0.00001101,0.00029955,-0.00013134,0.00007178,0.00
 047546,0.00001613,0.00001800,-0.00007008,-0.00087269,0.00056806,0.0000
 4445,-0.00034485,-0.00002501,0.00018212,0.00001699,0.00069214,0.000512
 29,-0.00001079,0.00008499,-0.00000602,0.00545956,-0.00181762,-0.007501
 45,-0.00682579,0.00434916,0.00909518,-0.12795980,0.07148326,0.22118678
 \\0.00040801,0.00506617,0.00008521,0.00013664,-0.00975787,0.00043068,0
 .00174633,0.03460939,-0.00324590,-0.00140748,-0.00245879,-0.00552973,-
 0.01797181,-0.00923110,-0.00458628,0.00449547,0.00032529,0.00145402,-0
 .00136460,-0.00615839,-0.00097558,0.01795887,-0.01359825,0.00936333,0.
 00029472,0.00009209,0.00325385,-0.00033512,0.00050442,-0.00105611,0.00
 062221,0.00023116,-0.00210379,-0.00313894,-0.00142967,-0.00315710,0.00
 155549,-0.00178361,0.00559246,-0.00171070,0.03493971,0.00300076,-0.017
 89448,-0.01366763,-0.00945905,0.00133701,-0.00614329,0.00102317,0.0177
 7820,-0.00940592,0.00471561,-0.00450639,0.00030146,-0.00150878,-0.0002
 8707,0.00005512,-0.00326392,-0.00063664,0.00024493,0.00208696,0.003110
 52,-0.00146942,0.00315488,0.00031535,0.00051590,0.00106744,0.00021569,
 -0.00027528,0.00006050,-0.00043375,-0.00098668,-0.00006905,-0.00030637
 ,-0.00119884,-0.00032504,0.00091302,-0.00118738,0.00072206,0.00071394,
 0.00041036,0.00064780,0.00082357,0.00017630,-0.00026118,-0.00037943,0.
 00054329,0.00031928,0.00013663,-0.00000158,0.00135429,0.00084348,0.000
 30234,-0.00004018,0.00028569,0.00016553,0.00047828,-0.00048627,0.00019
 626,0.00000462,0.00109765,0.00146687,0.00085217,0.00014976,-0.00272119
 ,0.00334087,0.00163751,0.00098869,0.00087297,-0.00070706,0.00039826,-0
 .00066913,-0.00090586,-0.00118598,-0.00072425,-0.00027797,0.00015676,-
 0.00047664,0.00048881,0.00019804,-0.00000205,-0.00084731,0.00030302,0.
 00003712,-0.00166160,0.00099896,-0.00089465,-0.00107778,0.00148118,-0.
 00086577,-0.00015913,-0.00272329,-0.00327972,0.00038294,0.00055006,-0.
 00031936,-0.00012393,-0.00001661,-0.00136443,-0.00082783,0.00017921,0.
 00025937\\\@

 Writing a WFNX file to "16_lig_b.wfx"


 Until you make peace with who you are,
 you'll never be content with what you have.
                           -- Doris Mortman
 Job cpu time:       0 days  3 hours 59 minutes  5.8 seconds.
 Elapsed time:       0 days  0 hours 29 minutes 53.6 seconds.
 File lengths (MBytes):  RWF=    863 Int=      0 D2E=      0 Chk=     13 Scr=      1
 Normal termination of Gaussian 16 at Thu Nov  3 08:34:18 2022.
