 Entering Gaussian System, Link 0=g16
 Initial command:
 /software/gaussian/G16-A.03/avx/g16/l1.exe "/scratch/lcmd/1361347.slurm/Gau-43372.inp" -scrdir="/scratch/lcmd/1361347.slurm/"
 Entering Link 1 = /software/gaussian/G16-A.03/avx/g16/l1.exe PID=     43373.
  
 Copyright (c) 1988,1990,1992,1993,1995,1998,2003,2009,2016,
            Gaussian, Inc.  All Rights Reserved.
  
 This is part of the Gaussian(R) 16 program.  It is based on
 the Gaussian(R) 09 system (copyright 2009, Gaussian, Inc.),
 the Gaussian(R) 03 system (copyright 2003, Gaussian, Inc.),
 the Gaussian(R) 98 system (copyright 1998, Gaussian, Inc.),
 the Gaussian(R) 94 system (copyright 1995, Gaussian, Inc.),
 the Gaussian 92(TM) system (copyright 1992, Gaussian, Inc.),
 the Gaussian 90(TM) system (copyright 1990, Gaussian, Inc.),
 the Gaussian 88(TM) system (copyright 1988, Gaussian, Inc.),
 the Gaussian 86(TM) system (copyright 1986, Carnegie Mellon
 University), and the Gaussian 82(TM) system (copyright 1983,
 Carnegie Mellon University). Gaussian is a federally registered
 trademark of Gaussian, Inc.
  
 This software contains proprietary and confidential information,
 including trade secrets, belonging to Gaussian, Inc.
  
 This software is provided under written license and may be
 used, copied, transmitted, or stored only in accord with that
 written license.
  
 The following legend is applicable only to US Government
 contracts under FAR:
  
                    RESTRICTED RIGHTS LEGEND
  
 Use, reproduction and disclosure by the US Government is
 subject to restrictions as set forth in subparagraphs (a)
 and (c) of the Commercial Computer Software - Restricted
 Rights clause in FAR 52.227-19.
  
 Gaussian, Inc.
 340 Quinnipiac St., Bldg. 40, Wallingford CT 06492
  
  
 ---------------------------------------------------------------
 Warning -- This program may not be used in any manner that
 competes with the business of Gaussian, Inc. or will provide
 assistance to any competitor of Gaussian, Inc.  The licensee
 of this program is prohibited from giving any competitor of
 Gaussian, Inc. access to this program.  By using this program,
 the user acknowledges that Gaussian, Inc. is engaged in the
 business of creating and licensing software in the field of
 computational chemistry and represents and warrants to the
 licensee that it is not a competitor of Gaussian, Inc. and that
 it will not use this program in any manner prohibited above.
 ---------------------------------------------------------------
  

 Cite this work as:
 Gaussian 16, Revision A.03,
 M. J. Frisch, G. W. Trucks, H. B. Schlegel, G. E. Scuseria, 
 M. A. Robb, J. R. Cheeseman, G. Scalmani, V. Barone, 
 G. A. Petersson, H. Nakatsuji, X. Li, M. Caricato, A. V. Marenich, 
 J. Bloino, B. G. Janesko, R. Gomperts, B. Mennucci, H. P. Hratchian, 
 J. V. Ortiz, A. F. Izmaylov, J. L. Sonnenberg, D. Williams-Young, 
 F. Ding, F. Lipparini, F. Egidi, J. Goings, B. Peng, A. Petrone, 
 T. Henderson, D. Ranasinghe, V. G. Zakrzewski, J. Gao, N. Rega, 
 G. Zheng, W. Liang, M. Hada, M. Ehara, K. Toyota, R. Fukuda, 
 J. Hasegawa, M. Ishida, T. Nakajima, Y. Honda, O. Kitao, H. Nakai, 
 T. Vreven, K. Throssell, J. A. Montgomery, Jr., J. E. Peralta, 
 F. Ogliaro, M. J. Bearpark, J. J. Heyd, E. N. Brothers, K. N. Kudin, 
 V. N. Staroverov, T. A. Keith, R. Kobayashi, J. Normand, 
 K. Raghavachari, A. P. Rendell, J. C. Burant, S. S. Iyengar, 
 J. Tomasi, M. Cossi, J. M. Millam, M. Klene, C. Adamo, R. Cammi, 
 J. W. Ochterski, R. L. Martin, K. Morokuma, O. Farkas, 
 J. B. Foresman, and D. J. Fox, Gaussian, Inc., Wallingford CT, 2016.
 
 ******************************************
 Gaussian 16:  ES64L-G16RevA.03 25-Dec-2016
                 3-Nov-2022 
 ******************************************
 %nprocs=8
 Will use up to    8 processors via shared memory.
 %mem=32000MB
 %chk=17_lig_b.chk
 ----------------------------------------------------------------------
 #p pop=(regular,nbo,savenbos) freq=noraman def2svp empiricaldispersion
 =gd3bj output=wfx pbe1pbe
 ----------------------------------------------------------------------
 1/10=4,30=1,38=1/1,3;
 2/12=2,17=6,18=5,40=1/2;
 3/5=43,7=101,11=2,25=1,30=1,71=2,74=-13,124=41,140=1/1,2,3;
 4//1;
 5/5=2,38=5,98=1/2;
 8/6=4,10=90,11=11/1;
 11/6=1,8=1,9=11,15=111,16=1/1,2,10;
 10/6=1/2;
 6/28=1,40=1,73=1/1,7;
 7/8=1,10=1,25=1/1,2,3,16;
 1/10=4,30=1/3;
 99/6=200/99;
 Leave Link    1 at Thu Nov  3 08:04:22 2022, MaxMem=  4194304000 cpu:               0.5 elap:               0.1
 (Enter /software/gaussian/G16-A.03/avx/g16/l101.exe)
 --------
 17_lig_b
 --------
 Symbolic Z-matrix:
 Charge =  0 Multiplicity = 1
 C                    -1.44445   3.50805   0.45306 
 N                    -1.12211   2.09045   0.31143 
 C                    -2.09314   1.1837   -0.03295 
 N                    -1.98315  -0.09144  -0.07195 
 C                    -3.23782  -0.62282  -0.59143 
 C                    -4.16545   0.59819  -0.57484 
 O                    -3.2694    1.71095  -0.36708 
 N                     0.64883   0.50049   0.34234 
 C                     0.1861    1.68852   0.43849 
 O                     1.04877   2.67043   0.67687 
 C                     2.31947   2.02539   0.91299 
 C                     2.10783   0.5817    0.42698 
 H                     2.42706  -0.15462   1.18081 
 C                     2.78291   0.22496  -0.9197 
 C                     4.29752   0.26594  -0.70561 
 C                     2.37696  -1.19282  -1.33133 
 C                     2.3745    1.20717  -2.01843 
 H                    -2.52424   3.60733   0.59216 
 H                    -1.13965   4.07273  -0.43992 
 H                    -0.91763   3.91185   1.32477 
 H                    -3.58528  -1.45531   0.03431 
 H                    -3.05809  -1.04586  -1.59117 
 H                    -4.88306   0.58787   0.25964 
 H                    -4.70557   0.77234  -1.51409 
 H                     2.52602   2.08673   1.99161 
 H                     3.08502   2.58624   0.36346 
 H                     4.60331  -0.45049   0.07264 
 H                     4.65516   1.26566  -0.40982 
 H                     4.82134  -0.00466  -1.63485 
 H                     2.53733  -1.9142   -0.51664 
 H                     2.96145  -1.51055  -2.20871 
 H                     1.31339  -1.25949  -1.61092 
 H                     2.67011   2.24512  -1.79518 
 H                     1.28591   1.18347  -2.18381 
 H                     2.85327   0.93068  -2.97014 
 
 ITRead=  0  0  0  0  0  0  0  0  0  0  0  0  0  0  0  0  0  0  0  0
 ITRead=  0  0  0  0  0  0  0  0  0  0  0  0  0  0  0
 MicOpt= -1 -1 -1 -1 -1 -1 -1 -1 -1 -1 -1 -1 -1 -1 -1 -1 -1 -1 -1 -1
 MicOpt= -1 -1 -1 -1 -1 -1 -1 -1 -1 -1 -1 -1 -1 -1 -1
 NAtoms=     35 NQM=       35 NQMF=       0 NMMI=      0 NMMIF=      0
                NMic=       0 NMicF=      0.
                    Isotopes and Nuclear Properties:
 (Nuclear quadrupole moments (NQMom) in fm**2, nuclear magnetic moments (NMagM)
  in nuclear magnetons)

  Atom         1           2           3           4           5           6           7           8           9          10
 IAtWgt=          12          14          12          14          12          12          16          14          12          16
 AtmWgt=  12.0000000  14.0030740  12.0000000  14.0030740  12.0000000  12.0000000  15.9949146  14.0030740  12.0000000  15.9949146
 NucSpn=           0           2           0           2           0           0           0           2           0           0
 AtZEff=  -0.0000000  -0.0000000  -0.0000000  -0.0000000  -0.0000000  -0.0000000  -0.0000000  -0.0000000  -0.0000000  -0.0000000
 NQMom=    0.0000000   2.0440000   0.0000000   2.0440000   0.0000000   0.0000000   0.0000000   2.0440000   0.0000000   0.0000000
 NMagM=    0.0000000   0.4037610   0.0000000   0.4037610   0.0000000   0.0000000   0.0000000   0.4037610   0.0000000   0.0000000
 AtZNuc=   6.0000000   7.0000000   6.0000000   7.0000000   6.0000000   6.0000000   8.0000000   7.0000000   6.0000000   8.0000000

  Atom        11          12          13          14          15          16          17          18          19          20
 IAtWgt=          12          12           1          12          12          12          12           1           1           1
 AtmWgt=  12.0000000  12.0000000   1.0078250  12.0000000  12.0000000  12.0000000  12.0000000   1.0078250   1.0078250   1.0078250
 NucSpn=           0           0           1           0           0           0           0           1           1           1
 AtZEff=  -0.0000000  -0.0000000  -0.0000000  -0.0000000  -0.0000000  -0.0000000  -0.0000000  -0.0000000  -0.0000000  -0.0000000
 NQMom=    0.0000000   0.0000000   0.0000000   0.0000000   0.0000000   0.0000000   0.0000000   0.0000000   0.0000000   0.0000000
 NMagM=    0.0000000   0.0000000   2.7928460   0.0000000   0.0000000   0.0000000   0.0000000   2.7928460   2.7928460   2.7928460
 AtZNuc=   6.0000000   6.0000000   1.0000000   6.0000000   6.0000000   6.0000000   6.0000000   1.0000000   1.0000000   1.0000000

  Atom        21          22          23          24          25          26          27          28          29          30
 IAtWgt=           1           1           1           1           1           1           1           1           1           1
 AtmWgt=   1.0078250   1.0078250   1.0078250   1.0078250   1.0078250   1.0078250   1.0078250   1.0078250   1.0078250   1.0078250
 NucSpn=           1           1           1           1           1           1           1           1           1           1
 AtZEff=  -0.0000000  -0.0000000  -0.0000000  -0.0000000  -0.0000000  -0.0000000  -0.0000000  -0.0000000  -0.0000000  -0.0000000
 NQMom=    0.0000000   0.0000000   0.0000000   0.0000000   0.0000000   0.0000000   0.0000000   0.0000000   0.0000000   0.0000000
 NMagM=    2.7928460   2.7928460   2.7928460   2.7928460   2.7928460   2.7928460   2.7928460   2.7928460   2.7928460   2.7928460
 AtZNuc=   1.0000000   1.0000000   1.0000000   1.0000000   1.0000000   1.0000000   1.0000000   1.0000000   1.0000000   1.0000000

  Atom        31          32          33          34          35
 IAtWgt=           1           1           1           1           1
 AtmWgt=   1.0078250   1.0078250   1.0078250   1.0078250   1.0078250
 NucSpn=           1           1           1           1           1
 AtZEff=  -0.0000000  -0.0000000  -0.0000000  -0.0000000  -0.0000000
 NQMom=    0.0000000   0.0000000   0.0000000   0.0000000   0.0000000
 NMagM=    2.7928460   2.7928460   2.7928460   2.7928460   2.7928460
 AtZNuc=   1.0000000   1.0000000   1.0000000   1.0000000   1.0000000
 Leave Link  101 at Thu Nov  3 08:04:22 2022, MaxMem=  4194304000 cpu:               1.6 elap:               0.3
 (Enter /software/gaussian/G16-A.03/avx/g16/l103.exe)

 GradGradGradGradGradGradGradGradGradGradGradGradGradGradGradGradGradGrad
 Berny optimization.
 Initialization pass.
 Trust Radius=3.00D-01 FncErr=1.00D-07 GrdErr=1.00D-07 EigMax=2.50D+02 EigMin=1.00D-04
 Number of steps in this run=      2 maximum allowed number of steps=      2.
 GradGradGradGradGradGradGradGradGradGradGradGradGradGradGradGradGradGrad

 Leave Link  103 at Thu Nov  3 08:04:22 2022, MaxMem=  4194304000 cpu:               0.4 elap:               0.2
 (Enter /software/gaussian/G16-A.03/avx/g16/l202.exe)
                          Input orientation:                          
 ---------------------------------------------------------------------
 Center     Atomic      Atomic             Coordinates (Angstroms)
 Number     Number       Type             X           Y           Z
 ---------------------------------------------------------------------
      1          6           0       -1.444450    3.508050    0.453060
      2          7           0       -1.122110    2.090450    0.311430
      3          6           0       -2.093140    1.183700   -0.032950
      4          7           0       -1.983150   -0.091440   -0.071950
      5          6           0       -3.237820   -0.622820   -0.591430
      6          6           0       -4.165450    0.598190   -0.574840
      7          8           0       -3.269400    1.710950   -0.367080
      8          7           0        0.648830    0.500490    0.342340
      9          6           0        0.186100    1.688520    0.438490
     10          8           0        1.048770    2.670430    0.676870
     11          6           0        2.319470    2.025390    0.912990
     12          6           0        2.107830    0.581700    0.426980
     13          1           0        2.427060   -0.154620    1.180810
     14          6           0        2.782910    0.224960   -0.919700
     15          6           0        4.297520    0.265940   -0.705610
     16          6           0        2.376960   -1.192820   -1.331330
     17          6           0        2.374500    1.207170   -2.018430
     18          1           0       -2.524240    3.607330    0.592160
     19          1           0       -1.139650    4.072730   -0.439920
     20          1           0       -0.917630    3.911850    1.324770
     21          1           0       -3.585280   -1.455310    0.034310
     22          1           0       -3.058090   -1.045860   -1.591170
     23          1           0       -4.883060    0.587870    0.259640
     24          1           0       -4.705570    0.772340   -1.514090
     25          1           0        2.526020    2.086730    1.991610
     26          1           0        3.085020    2.586240    0.363460
     27          1           0        4.603310   -0.450490    0.072640
     28          1           0        4.655160    1.265660   -0.409820
     29          1           0        4.821340   -0.004660   -1.634850
     30          1           0        2.537330   -1.914200   -0.516640
     31          1           0        2.961450   -1.510550   -2.208710
     32          1           0        1.313390   -1.259490   -1.610920
     33          1           0        2.670110    2.245120   -1.795180
     34          1           0        1.285910    1.183470   -2.183810
     35          1           0        2.853270    0.930680   -2.970140
 ---------------------------------------------------------------------
                    Distance matrix (angstroms):
                    1          2          3          4          5
     1  C    0.000000
     2  N    1.460668   0.000000
     3  C    2.461627   1.372477   0.000000
     4  N    3.677249   2.376765   1.280469   0.000000
     5  C    4.622902   3.557136   2.210363   1.458225   0.000000
     6  C    4.114329   3.503460   2.220571   2.343271   1.533505
     7  O    2.689357   2.283692   1.331624   2.233864   2.344741
     8  N    3.665992   2.380159   2.850617   2.729347   4.152084
     9  C    2.443275   1.374447   2.381603   2.852096   4.257494
    10  O    2.639667   2.276542   3.547648   4.169076   5.552381
    11  C    4.071475   3.494364   4.590683   4.895265   6.337173
    12  C    4.602488   3.566818   4.268734   4.175903   5.573509
    13  H    5.378974   4.288679   4.867907   4.585123   5.954067
    14  C    5.525733   4.499435   5.047908   4.851197   6.088980
    15  C    6.695074   5.808235   6.491170   6.322663   7.588431
    16  C    6.315489   5.071687   5.226417   4.670079   5.691933
    17  C    5.097714   4.293566   4.889017   4.946138   6.073165
    18  H    1.093230   2.084635   2.539802   3.796672   4.450197
    19  H    1.099627   2.119969   3.069407   4.264646   5.145237
    20  H    1.095661   2.094318   3.266195   4.371783   5.442273
    21  H    5.421572   4.326247   3.032388   2.106716   1.097870
    22  H    5.246028   4.147812   2.886194   2.091517   1.100339
    23  H    4.515407   4.050330   2.867800   2.996814   2.212895
    24  H    4.689210   4.232153   3.031136   3.199602   2.225323
    25  H    4.489089   4.016450   5.123568   5.416209   6.872817
    26  H    4.623187   4.236562   5.379368   5.748556   7.154592
    27  H    7.238105   6.268479   6.893778   6.597824   7.871087
    28  H    6.555770   5.880249   6.759312   6.784028   8.117787
    29  H    7.480550   6.595611   7.196410   6.982211   8.149902
    30  H    6.796741   5.487661   5.592155   4.894379   5.918244
    31  H    7.189111   5.999481   6.127136   5.570340   6.467968
    32  H    5.881763   4.566091   4.479242   3.820987   4.707252
    33  H    4.855840   4.340813   5.188508   5.484694   6.676656
    34  H    4.451025   3.584326   4.005518   4.095376   5.124694
    35  H    6.068899   5.283693   5.758305   5.730200   6.721086
                    6          7          8          9         10
     6  C    0.000000
     7  O    1.443712   0.000000
     8  N    4.901842   4.161853   0.000000
     9  C    4.599092   3.548229   1.278585   0.000000
    10  O    5.748830   4.545000   2.231704   1.328598   0.000000
    11  C    6.804758   5.742205   2.332809   2.211312   1.444475
    12  C    6.352791   5.551607   1.463708   2.217708   2.355174
    13  H    6.863688   6.190797   2.072270   2.995013   3.183480
    14  C    6.966917   6.256518   2.494586   3.275685   3.396557
    15  C    8.470499   7.711092   3.803439   4.498497   4.271674
    16  C    6.825183   6.422074   2.941922   4.029175   4.552105
    17  C    6.725010   5.902064   3.008416   3.325244   3.341157
    18  H    3.620826   2.252035   4.447835   3.324363   3.694774
    19  H    4.609349   3.181060   4.070810   2.865951   2.828930
    20  H    5.013701   3.638288   3.880250   2.635699   2.414048
    21  H    2.219127   3.207194   4.674155   4.926493   6.237711
    22  H    2.227571   3.023748   4.457680   4.703310   5.985074
    23  H    1.100649   2.063489   5.533198   5.190357   6.300615
    24  H    1.097383   2.063784   5.673609   5.346063   6.443251
    25  H    7.319712   6.268295   2.959745   2.836543   2.061920
    26  H    7.576415   6.455887   3.207152   3.035666   2.061948
    27  H    8.854948   8.175863   4.076152   4.921479   4.768647
    28  H    8.847367   7.937176   4.147519   4.568472   4.019990
    29  H    9.069148   8.367236   4.644814   5.352667   5.170342
    30  H    7.158404   6.847057   3.183553   4.406830   4.965794
    31  H    7.609798   7.252114   3.987524   4.994425   5.428214
    32  H    5.877255   5.601126   2.711899   3.763194   4.555028
    33  H    7.136280   6.132095   3.420278   3.386649   2.986748
    34  H    5.713901   4.932504   2.693282   2.888099   3.232766
    35  H    7.423641   6.698644   4.002142   4.393959   4.425340
                   11         12         13         14         15
    11  C    0.000000
    12  C    1.537933   0.000000
    13  H    2.199033   1.101061   0.000000
    14  C    2.610570   1.548077   2.163990   0.000000
    15  C    3.102936   2.485399   2.689623   1.530215   0.000000
    16  C    3.923921   2.512570   2.718679   1.531122   2.491597
    17  C    3.043967   2.538180   3.477409   1.529295   2.511457
    18  H    5.105584   5.535142   6.246131   6.472402   7.706199
    19  H    4.241165   4.846126   5.763564   5.515614   6.642670
    20  H    3.769232   4.587955   5.267243   5.685490   6.679288
    21  H    6.910385   6.059299   6.257355   6.654869   8.102390
    22  H    6.679936   5.780018   6.210077   6.015242   7.523964
    23  H    7.373586   6.992895   7.405248   7.764641   9.236796
    24  H    7.537376   7.087067   7.680895   7.531949   9.053492
    25  H    1.099930   2.210897   2.385548   3.465243   3.705197
    26  H    1.096632   2.230945   2.934840   2.704332   2.827872
    27  H    3.471613   2.723673   2.460009   2.180557   1.101114
    28  H    2.789707   2.767115   3.084109   2.201898   1.102197
    29  H    4.107547   3.458048   3.699055   2.172409   1.100499
    30  H    4.196627   2.702666   2.447370   2.190610   2.808378
    31  H    4.760254   3.471749   3.689575   2.169198   2.683339
    32  H    4.262951   2.859047   3.202305   2.200197   3.471535
    33  H    2.739601   2.832158   3.830710   2.204594   2.784381
    34  H    3.371535   2.802482   3.796495   2.181221   3.478036
    35  H    4.069648   3.495410   4.311603   2.169630   2.766918
                   16         17         18         19         20
    16  C    0.000000
    17  C    2.496410   0.000000
    18  H    7.124817   6.047611   0.000000
    19  H    6.394308   4.801289   1.788540   0.000000
    20  H    6.630750   5.415755   1.791827   1.785863   0.000000
    21  H    6.122269   6.842625   5.202627   6.063434   6.130909
    22  H    5.443242   5.896756   5.167601   5.586211   6.137032
    23  H    7.642639   7.631862   3.846003   5.162049   5.282800
    24  H    7.352380   7.111317   4.151103   4.976163   5.680153
    25  H    4.671145   4.108163   5.456722   4.826352   3.954044
    26  H    4.201780   2.842547   5.706025   4.550045   4.324646
    27  H    2.734743   3.476781   8.218137   7.328289   7.146931
    28  H    3.476133   2.791497   7.617819   6.438973   6.408363
    29  H    2.734747   2.757298   8.483136   7.320271   7.552098
    30  H    1.099922   3.467685   7.572069   7.026336   7.019288
    31  H    1.101080   2.786883   8.008144   7.149871   7.545539
    32  H    1.101724   2.715958   6.577758   5.985083   6.351258
    33  H    3.481454   1.102074   5.876758   4.437472   5.038249
    34  H    2.750248   1.101336   5.300788   4.155998   4.960824
    35  H    2.724302   1.100645   6.983699   5.676082   6.446186
                   21         22         23         24         25
    21  H    0.000000
    22  H    1.757203   0.000000
    23  H    2.430965   3.070030   0.000000
    24  H    2.935135   2.454788   1.792108   0.000000
    25  H    7.329738   7.337010   7.755048   8.143307   0.000000
    26  H    7.806111   7.399360   8.215507   8.216369   1.792446
    27  H    8.250099   7.862556   9.544861   9.521989   3.799351
    28  H    8.689406   8.138362   9.585678   9.438540   3.312742
    29  H    8.692626   7.948045   9.905330   9.559306   4.774266
    30  H    6.164453   5.763450   7.869254   7.789224   4.722170
    31  H    6.920539   6.068950   8.487194   8.029775   5.547316
    32  H    5.171276   4.376741   6.731101   6.353392   5.064176
    33  H    7.494673   6.609421   8.001196   7.526536   3.792839
    34  H    5.967555   4.918483   6.661935   6.042796   4.448357
    35  H    7.494971   6.383764   8.390459   7.699430   5.105145
                   26         27         28         29         30
    26  H    0.000000
    27  H    3.407567   0.000000
    28  H    2.192540   1.783431   0.000000
    29  H    3.704162   1.778152   1.772576   0.000000
    30  H    4.618279   2.599610   3.822058   3.180163   0.000000
    31  H    4.838907   3.003996   3.716450   2.460937   1.790506
    32  H    4.671883   3.783177   4.357344   3.725706   1.767519
    33  H    2.224464   3.806879   2.611319   3.116890   4.353417
    34  H    3.419524   4.332036   3.808627   3.769917   3.733774
    35  H    3.729273   3.772106   3.148691   2.555613   3.769990
                   31         32         33         34         35
    31  H    0.000000
    32  H    1.771013   0.000000
    33  H    3.789584   3.762570   0.000000
    34  H    3.172664   2.509385   1.787217   0.000000
    35  H    2.559508   3.002591   1.772521   1.771676   0.000000
 Stoichiometry    C11H19N3O2
 Framework group  C1[X(C11H19N3O2)]
 Deg. of freedom    99
 Full point group                 C1      NOp   1
 Largest Abelian subgroup         C1      NOp   1
 Largest concise Abelian subgroup C1      NOp   1
                         Standard orientation:                         
 ---------------------------------------------------------------------
 Center     Atomic      Atomic             Coordinates (Angstroms)
 Number     Number       Type             X           Y           Z
 ---------------------------------------------------------------------
      1          6           0        1.795142    2.368670    0.464010
      2          7           0        1.345934    1.063560   -0.013956
      3          6           0        2.213401    0.001207   -0.064940
      4          7           0        1.993828   -1.154270   -0.571161
      5          6           0        3.164122   -1.980496   -0.298795
      6          6           0        4.190825   -0.967477    0.222080
      7          8           0        3.406779    0.215810    0.485532
      8          7           0       -0.547608   -0.175567   -0.751670
      9          6           0        0.018966    0.888908   -0.326622
     10          8           0       -0.741026    1.963521   -0.145540
     11          6           0       -2.044408    1.611331   -0.659023
     12          6           0       -1.986358    0.083458   -0.824774
     13          1           0       -2.318853   -0.232318   -1.825807
     14          6           0       -2.772133   -0.732786    0.230141
     15          6           0       -4.261482   -0.450120    0.021578
     16          6           0       -2.514005   -2.226153    0.012061
     17          6           0       -2.351762   -0.348775    1.649495
     18          1           0        2.886041    2.405249    0.402748
     19          1           0        1.483854    2.535607    1.505361
     20          1           0        1.359928    3.152301   -0.166057
     21          1           0        3.478476   -2.505363   -1.210395
     22          1           0        2.887064   -2.762308    0.424223
     23          1           0        4.955817   -0.701276   -0.523139
     24          1           0        4.683876   -1.259313    1.158019
     25          1           0       -2.177115    2.139631   -1.614604
     26          1           0       -2.792717    1.966101    0.059847
     27          1           0       -4.577403   -0.739110   -0.992883
     28          1           0       -4.514145    0.612572    0.168831
     29          1           0       -4.863428   -1.029423    0.737935
     30          1           0       -2.683450   -2.519331   -1.034440
     31          1           0       -3.177021   -2.820011    0.660226
     32          1           0       -1.479466   -2.512957    0.259588
     33          1           0       -2.544050    0.711644    1.879940
     34          1           0       -1.281562   -0.551562    1.812254
     35          1           0       -2.910812   -0.947443    2.384668
 ---------------------------------------------------------------------
 Rotational constants (GHZ):           1.0085284           0.3253767           0.2714490
 Leave Link  202 at Thu Nov  3 08:04:23 2022, MaxMem=  4194304000 cpu:               0.6 elap:               0.2
 (Enter /software/gaussian/G16-A.03/avx/g16/l301.exe)
 Standard basis: def2SVP (5D, 7F)
 Ernie: Thresh=  0.10000D-02 Tol=  0.10000D-05 Strict=F.
 There are   335 symmetry adapted cartesian basis functions of A   symmetry.
 There are   319 symmetry adapted basis functions of A   symmetry.
   319 basis functions,   533 primitive gaussians,   335 cartesian basis functions
    61 alpha electrons       61 beta electrons
       nuclear repulsion energy      1203.5409161153 Hartrees.
 IExCor= 1009 DFT=T Ex+Corr=PBE1PBE ExCW=0 ScaHFX=  0.250000
 ScaDFX=  0.750000  0.750000  1.000000  1.000000 ScalE2=  1.000000  1.000000
 IRadAn=      5 IRanWt=     -1 IRanGd=            0 ICorTp=0 IEmpDi=141
 NAtoms=   35 NActive=   35 NUniq=   35 SFac= 1.00D+00 NAtFMM=   60 NAOKFM=F Big=F
 Integral buffers will be    131072 words long.
 Raffenetti 2 integral format.
 Two-electron integral symmetry is turned on.
 R6Disp:  Grimme-D3(BJ) Dispersion energy=       -0.0337260386 Hartrees.
 Nuclear repulsion after empirical dispersion term =     1203.5071900767 Hartrees.
 Leave Link  301 at Thu Nov  3 08:04:23 2022, MaxMem=  4194304000 cpu:               1.3 elap:               0.2
 (Enter /software/gaussian/G16-A.03/avx/g16/l302.exe)
 NPDir=0 NMtPBC=     1 NCelOv=     1 NCel=       1 NClECP=     1 NCelD=      1
         NCelK=      1 NCelE2=     1 NClLst=     1 CellRange=     0.0.
 One-electron integrals computed using PRISM.
 One-electron integral symmetry used in STVInt
   1 Symmetry operations used in ECPInt.
 ECPInt:  NShTT=   11781 NPrTT=   41593 LenC2=   11014 LenP2D=   28183.
 LDataN:  DoStor=T MaxTD1= 4 Len=   56
 NBasis=   319 RedAO= T EigKep=  1.02D-03  NBF=   319
 NBsUse=   319 1.00D-06 EigRej= -1.00D+00 NBFU=   319
 Precomputing XC quadrature grid using
 IXCGrd= 4 IRadAn=           5 IRanWt=          -1 IRanGd=           0 AccXCQ= 0.00D+00.
 Generated NRdTot=       0 NPtTot=           0 NUsed=           0 NTot=          32
 NSgBfM=   334   334   334   334   334 MxSgAt=    35 MxSgA2=    35.
 Leave Link  302 at Thu Nov  3 08:04:26 2022, MaxMem=  4194304000 cpu:              18.9 elap:               3.2
 (Enter /software/gaussian/G16-A.03/avx/g16/l303.exe)
 DipDrv:  MaxL=1.
 Leave Link  303 at Thu Nov  3 08:04:27 2022, MaxMem=  4194304000 cpu:               2.0 elap:               0.5
 (Enter /software/gaussian/G16-A.03/avx/g16/l401.exe)
 ExpMin= 1.22D-01 ExpMax= 2.27D+03 ExpMxC= 3.41D+02 IAcc=3 IRadAn=         5 AccDes= 0.00D+00
 Harris functional with IExCor= 1009 and IRadAn=       5 diagonalized for initial guess.
 HarFok:  IExCor= 1009 AccDes= 0.00D+00 IRadAn=         5 IDoV= 1 UseB2=F ITyADJ=14
 ICtDFT=  3500011 ScaDFX=  1.000000  1.000000  1.000000  1.000000
 FoFCou: FMM=F IPFlag=           0 FMFlag=      100000 FMFlg1=           0
         NFxFlg=           0 DoJE=T BraDBF=F KetDBF=T FulRan=T
         wScrn=  0.000000 ICntrl=       500 IOpCl=  0 I1Cent=   200000004 NGrid=           0
         NMat0=    1 NMatS0=      1 NMatT0=    0 NMatD0=    1 NMtDS0=    0 NMtDT0=    0
 Petite list used in FoFCou.
 Harris En= -744.101780649416    
 JPrj=0 DoOrth=F DoCkMO=F.
 Leave Link  401 at Thu Nov  3 08:04:31 2022, MaxMem=  4194304000 cpu:              30.6 elap:               4.5
 (Enter /software/gaussian/G16-A.03/avx/g16/l502.exe)
 Integral symmetry usage will be decided dynamically.
 Closed shell SCF:
 Using DIIS extrapolation, IDIIS=  1040.
 NGot=  4194304000 LenX=  4194073131 LenY=  4193960465
 Requested convergence on RMS density matrix=1.00D-08 within 128 cycles.
 Requested convergence on MAX density matrix=1.00D-06.
 Requested convergence on             energy=1.00D-06.
 No special actions if energy rises.
 Fock matrices will be formed incrementally for  20 cycles.
 Integral accuracy reduced to 1.0D-05 until final iterations.

 Cycle   1  Pass 0  IDiag  1:
 FoFJK:  IHMeth= 1 ICntrl=       0 DoSepK=F KAlg= 0 I1Cent=           0 FoldK=F
 IRaf= 870000000 NMat=       1 IRICut=       1 DoRegI=T DoRafI=F ISym2E= 0 IDoP0=0 IntGTp=1.
 FoFCou: FMM=F IPFlag=           0 FMFlag=      100000 FMFlg1=           0
         NFxFlg=           0 DoJE=F BraDBF=F KetDBF=F FulRan=T
         wScrn=  0.000000 ICntrl=         0 IOpCl=  0 I1Cent=           0 NGrid=           0
         NMat0=    1 NMatS0=      1 NMatT0=    0 NMatD0=    1 NMtDS0=    0 NMtDT0=    0
 Symmetry not used in FoFCou.
 E= -743.558673400396    
 DIIS: error= 2.50D-02 at cycle   1 NSaved=   1.
 NSaved= 1 IEnMin= 1 EnMin= -743.558673400396     IErMin= 1 ErrMin= 2.50D-02
 ErrMax= 2.50D-02  0.00D+00 EMaxC= 1.00D-01 BMatC= 3.65D-01 BMatP= 3.65D-01
 IDIUse=3 WtCom= 7.50D-01 WtEn= 2.50D-01
 Coeff-Com:  0.100D+01
 Coeff-En:   0.100D+01
 Coeff:      0.100D+01
 Gap=     0.209 Goal=   None    Shift=    0.000
 GapD=    0.209 DampG=1.000 DampE=0.500 DampFc=0.5000 IDamp=-1.
 Damping current iteration by 5.00D-01
 RMSDP=5.24D-03 MaxDP=1.79D-01              OVMax= 3.14D-01

 Cycle   2  Pass 0  IDiag  1:
 RMSU=  2.61D-03    CP:  9.86D-01
 E= -743.673905264011     Delta-E=       -0.115231863615 Rises=F Damp=T
 DIIS: error= 1.22D-02 at cycle   2 NSaved=   2.
 NSaved= 2 IEnMin= 2 EnMin= -743.673905264011     IErMin= 2 ErrMin= 1.22D-02
 ErrMax= 1.22D-02  0.00D+00 EMaxC= 1.00D-01 BMatC= 5.34D-02 BMatP= 3.65D-01
 IDIUse=3 WtCom= 8.78D-01 WtEn= 1.22D-01
 Coeff-Com:  0.190D+00 0.810D+00
 Coeff-En:   0.307D+00 0.693D+00
 Coeff:      0.204D+00 0.796D+00
 Gap=     0.324 Goal=   None    Shift=    0.000
 RMSDP=1.69D-03 MaxDP=6.07D-02 DE=-1.15D-01 OVMax= 2.71D-01

 Cycle   3  Pass 0  IDiag  1:
 RMSU=  1.46D-03    CP:  9.82D-01  6.75D-01
 E= -743.883966231700     Delta-E=       -0.210060967689 Rises=F Damp=F
 DIIS: error= 1.34D-02 at cycle   3 NSaved=   3.
 NSaved= 3 IEnMin= 3 EnMin= -743.883966231700     IErMin= 2 ErrMin= 1.22D-02
 ErrMax= 1.34D-02  0.00D+00 EMaxC= 1.00D-01 BMatC= 5.33D-02 BMatP= 5.34D-02
 IDIUse=3 WtCom= 8.66D-01 WtEn= 1.34D-01
 Coeff-Com:  0.491D-01 0.491D+00 0.460D+00
 Coeff-En:   0.000D+00 0.000D+00 0.100D+01
 Coeff:      0.425D-01 0.425D+00 0.533D+00
 Gap=     0.253 Goal=   None    Shift=    0.000
 RMSDP=9.97D-04 MaxDP=4.26D-02 DE=-2.10D-01 OVMax= 9.46D-02

 Cycle   4  Pass 0  IDiag  1:
 RMSU=  6.31D-04    CP:  9.86D-01  8.25D-01  5.48D-01
 E= -743.923892109948     Delta-E=       -0.039925878248 Rises=F Damp=F
 DIIS: error= 6.22D-03 at cycle   4 NSaved=   4.
 NSaved= 4 IEnMin= 4 EnMin= -743.923892109948     IErMin= 4 ErrMin= 6.22D-03
 ErrMax= 6.22D-03  0.00D+00 EMaxC= 1.00D-01 BMatC= 1.01D-02 BMatP= 5.33D-02
 IDIUse=3 WtCom= 9.38D-01 WtEn= 6.22D-02
 Coeff-Com:  0.718D-02 0.848D-01 0.314D+00 0.594D+00
 Coeff-En:   0.000D+00 0.000D+00 0.184D+00 0.816D+00
 Coeff:      0.673D-02 0.795D-01 0.306D+00 0.608D+00
 Gap=     0.256 Goal=   None    Shift=    0.000
 RMSDP=3.54D-04 MaxDP=1.43D-02 DE=-3.99D-02 OVMax= 2.68D-02

 Cycle   5  Pass 0  IDiag  1:
 RMSU=  1.61D-04    CP:  9.84D-01  7.70D-01  6.55D-01  6.31D-01
 E= -743.932373942503     Delta-E=       -0.008481832555 Rises=F Damp=F
 DIIS: error= 9.97D-04 at cycle   5 NSaved=   5.
 NSaved= 5 IEnMin= 5 EnMin= -743.932373942503     IErMin= 5 ErrMin= 9.97D-04
 ErrMax= 9.97D-04  0.00D+00 EMaxC= 1.00D-01 BMatC= 3.92D-04 BMatP= 1.01D-02
 IDIUse=3 WtCom= 9.90D-01 WtEn= 9.97D-03
 Coeff-Com:  0.372D-03 0.932D-02 0.117D+00 0.306D+00 0.567D+00
 Coeff-En:   0.000D+00 0.000D+00 0.000D+00 0.000D+00 0.100D+01
 Coeff:      0.368D-03 0.923D-02 0.116D+00 0.303D+00 0.571D+00
 Gap=     0.255 Goal=   None    Shift=    0.000
 RMSDP=8.48D-05 MaxDP=2.91D-03 DE=-8.48D-03 OVMax= 3.57D-03

 Cycle   6  Pass 0  IDiag  1:
 RMSU=  4.36D-05    CP:  9.85D-01  7.75D-01  6.56D-01  6.76D-01  5.92D-01
 E= -743.932690217893     Delta-E=       -0.000316275390 Rises=F Damp=F
 DIIS: error= 2.15D-04 at cycle   6 NSaved=   6.
 NSaved= 6 IEnMin= 6 EnMin= -743.932690217893     IErMin= 6 ErrMin= 2.15D-04
 ErrMax= 2.15D-04  0.00D+00 EMaxC= 1.00D-01 BMatC= 2.87D-05 BMatP= 3.92D-04
 IDIUse=3 WtCom= 9.98D-01 WtEn= 2.15D-03
 Coeff-Com: -0.441D-03-0.287D-02 0.283D-01 0.921D-01 0.284D+00 0.599D+00
 Coeff-En:   0.000D+00 0.000D+00 0.000D+00 0.000D+00 0.000D+00 0.100D+01
 Coeff:     -0.440D-03-0.287D-02 0.283D-01 0.919D-01 0.283D+00 0.600D+00
 Gap=     0.256 Goal=   None    Shift=    0.000
 RMSDP=1.75D-05 MaxDP=7.55D-04 DE=-3.16D-04 OVMax= 1.02D-03

 Cycle   7  Pass 0  IDiag  1:
 RMSU=  9.80D-06    CP:  9.85D-01  7.75D-01  6.57D-01  6.79D-01  6.34D-01
                    CP:  7.10D-01
 E= -743.932712809577     Delta-E=       -0.000022591684 Rises=F Damp=F
 DIIS: error= 8.36D-05 at cycle   7 NSaved=   7.
 NSaved= 7 IEnMin= 7 EnMin= -743.932712809577     IErMin= 7 ErrMin= 8.36D-05
 ErrMax= 8.36D-05  0.00D+00 EMaxC= 1.00D-01 BMatC= 1.64D-06 BMatP= 2.87D-05
 IDIUse=1 WtCom= 1.00D+00 WtEn= 0.00D+00
 Coeff-Com: -0.205D-03-0.205D-02 0.881D-02 0.315D-01 0.119D+00 0.300D+00
 Coeff-Com:  0.543D+00
 Coeff:     -0.205D-03-0.205D-02 0.881D-02 0.315D-01 0.119D+00 0.300D+00
 Coeff:      0.543D+00
 Gap=     0.256 Goal=   None    Shift=    0.000
 RMSDP=4.29D-06 MaxDP=2.51D-04 DE=-2.26D-05 OVMax= 2.60D-04

 Initial convergence to 1.0D-05 achieved.  Increase integral accuracy.
 Cycle   8  Pass 1  IDiag  1:
 E= -743.932715764235     Delta-E=       -0.000002954657 Rises=F Damp=F
 DIIS: error= 4.13D-05 at cycle   1 NSaved=   1.
 NSaved= 1 IEnMin= 1 EnMin= -743.932715764235     IErMin= 1 ErrMin= 4.13D-05
 ErrMax= 4.13D-05  0.00D+00 EMaxC= 1.00D-01 BMatC= 4.69D-07 BMatP= 4.69D-07
 IDIUse=1 WtCom= 1.00D+00 WtEn= 0.00D+00
 Coeff-Com:  0.100D+01
 Coeff:      0.100D+01
 Gap=     0.256 Goal=   None    Shift=    0.000
 RMSDP=4.29D-06 MaxDP=2.51D-04 DE=-2.95D-06 OVMax= 1.65D-04

 Cycle   9  Pass 1  IDiag  1:
 RMSU=  2.55D-05    CP:  1.00D+00
 E= -743.932716125281     Delta-E=       -0.000000361046 Rises=F Damp=F
 DIIS: error= 2.52D-05 at cycle   2 NSaved=   2.
 NSaved= 2 IEnMin= 2 EnMin= -743.932716125281     IErMin= 2 ErrMin= 2.52D-05
 ErrMax= 2.52D-05  0.00D+00 EMaxC= 1.00D-01 BMatC= 1.99D-07 BMatP= 4.69D-07
 IDIUse=1 WtCom= 1.00D+00 WtEn= 0.00D+00
 Coeff-Com:  0.351D+00 0.649D+00
 Coeff:      0.351D+00 0.649D+00
 Gap=     0.256 Goal=   None    Shift=    0.000
 RMSDP=2.40D-06 MaxDP=9.88D-05 DE=-3.61D-07 OVMax= 1.76D-04

 Cycle  10  Pass 1  IDiag  1:
 RMSU=  2.39D-06    CP:  1.00D+00  1.01D+00
 E= -743.932716194795     Delta-E=       -0.000000069514 Rises=F Damp=F
 DIIS: error= 2.20D-05 at cycle   3 NSaved=   3.
 NSaved= 3 IEnMin= 3 EnMin= -743.932716194795     IErMin= 3 ErrMin= 2.20D-05
 ErrMax= 2.20D-05  0.00D+00 EMaxC= 1.00D-01 BMatC= 1.18D-07 BMatP= 1.99D-07
 IDIUse=1 WtCom= 1.00D+00 WtEn= 0.00D+00
 Coeff-Com:  0.145D-01 0.432D+00 0.553D+00
 Coeff:      0.145D-01 0.432D+00 0.553D+00
 Gap=     0.256 Goal=   None    Shift=    0.000
 RMSDP=1.23D-06 MaxDP=6.10D-05 DE=-6.95D-08 OVMax= 9.97D-05

 Cycle  11  Pass 1  IDiag  1:
 RMSU=  4.77D-07    CP:  1.00D+00  1.02D+00  5.47D-01
 E= -743.932716285342     Delta-E=       -0.000000090546 Rises=F Damp=F
 DIIS: error= 6.42D-06 at cycle   4 NSaved=   4.
 NSaved= 4 IEnMin= 4 EnMin= -743.932716285342     IErMin= 4 ErrMin= 6.42D-06
 ErrMax= 6.42D-06  0.00D+00 EMaxC= 1.00D-01 BMatC= 8.91D-09 BMatP= 1.18D-07
 IDIUse=1 WtCom= 1.00D+00 WtEn= 0.00D+00
 Coeff-Com: -0.491D-02 0.251D+00 0.353D+00 0.401D+00
 Coeff:     -0.491D-02 0.251D+00 0.353D+00 0.401D+00
 Gap=     0.256 Goal=   None    Shift=    0.000
 RMSDP=3.00D-07 MaxDP=1.67D-05 DE=-9.05D-08 OVMax= 2.84D-05

 Cycle  12  Pass 1  IDiag  1:
 RMSU=  1.28D-07    CP:  1.00D+00  1.02D+00  5.87D-01  4.70D-01
 E= -743.932716292848     Delta-E=       -0.000000007506 Rises=F Damp=F
 DIIS: error= 8.62D-07 at cycle   5 NSaved=   5.
 NSaved= 5 IEnMin= 5 EnMin= -743.932716292848     IErMin= 5 ErrMin= 8.62D-07
 ErrMax= 8.62D-07  0.00D+00 EMaxC= 1.00D-01 BMatC= 1.77D-10 BMatP= 8.91D-09
 IDIUse=1 WtCom= 1.00D+00 WtEn= 0.00D+00
 Coeff-Com: -0.320D-02 0.113D+00 0.161D+00 0.216D+00 0.513D+00
 Coeff:     -0.320D-02 0.113D+00 0.161D+00 0.216D+00 0.513D+00
 Gap=     0.256 Goal=   None    Shift=    0.000
 RMSDP=5.08D-08 MaxDP=2.01D-06 DE=-7.51D-09 OVMax= 3.81D-06

 Cycle  13  Pass 1  IDiag  1:
 RMSU=  3.98D-08    CP:  1.00D+00  1.02D+00  5.82D-01  4.94D-01  8.05D-01
 E= -743.932716293009     Delta-E=       -0.000000000161 Rises=F Damp=F
 DIIS: error= 1.34D-07 at cycle   6 NSaved=   6.
 NSaved= 6 IEnMin= 6 EnMin= -743.932716293009     IErMin= 6 ErrMin= 1.34D-07
 ErrMax= 1.34D-07  0.00D+00 EMaxC= 1.00D-01 BMatC= 1.17D-11 BMatP= 1.77D-10
 IDIUse=1 WtCom= 1.00D+00 WtEn= 0.00D+00
 Coeff-Com: -0.117D-02 0.358D-01 0.508D-01 0.778D-01 0.258D+00 0.579D+00
 Coeff:     -0.117D-02 0.358D-01 0.508D-01 0.778D-01 0.258D+00 0.579D+00
 Gap=     0.256 Goal=   None    Shift=    0.000
 RMSDP=1.46D-08 MaxDP=7.23D-07 DE=-1.61D-10 OVMax= 1.14D-06

 Cycle  14  Pass 1  IDiag  1:
 RMSU=  1.29D-08    CP:  1.00D+00  1.02D+00  5.82D-01  4.98D-01  8.30D-01
                    CP:  8.71D-01
 E= -743.932716293004     Delta-E=        0.000000000004 Rises=F Damp=F
 DIIS: error= 6.15D-08 at cycle   7 NSaved=   7.
 NSaved= 7 IEnMin= 6 EnMin= -743.932716293009     IErMin= 7 ErrMin= 6.15D-08
 ErrMax= 6.15D-08  0.00D+00 EMaxC= 1.00D-01 BMatC= 1.61D-12 BMatP= 1.17D-11
 IDIUse=1 WtCom= 1.00D+00 WtEn= 0.00D+00
 Coeff-Com: -0.146D-03 0.180D-02 0.244D-02 0.982D-02 0.545D-01 0.299D+00
 Coeff-Com:  0.632D+00
 Coeff:     -0.146D-03 0.180D-02 0.244D-02 0.982D-02 0.545D-01 0.299D+00
 Coeff:      0.632D+00
 Gap=     0.256 Goal=   None    Shift=    0.000
 RMSDP=5.34D-09 MaxDP=2.72D-07 DE= 4.32D-12 OVMax= 3.99D-07

 SCF Done:  E(RPBE1PBE) =  -743.932716293     A.U. after   14 cycles
            NFock= 14  Conv=0.53D-08     -V/T= 2.0098
 KE= 7.367318235469D+02 PE=-4.138139803084D+03 EE= 1.453968073167D+03
 Leave Link  502 at Thu Nov  3 08:05:51 2022, MaxMem=  4194304000 cpu:             589.7 elap:              80.0
 (Enter /software/gaussian/G16-A.03/avx/g16/l801.exe)
 DoSCS=F DFT=T ScalE2(SS,OS)=  1.000000  1.000000
 Range of M.O.s used for correlation:     1   319
 NBasis=   319 NAE=    61 NBE=    61 NFC=     0 NFV=     0
 NROrb=    319 NOA=    61 NOB=    61 NVA=   258 NVB=   258

 **** Warning!!: The largest alpha MO coefficient is  0.12074675D+02

 Leave Link  801 at Thu Nov  3 08:05:52 2022, MaxMem=  4194304000 cpu:               0.4 elap:               0.2
 (Enter /software/gaussian/G16-A.03/avx/g16/l1101.exe)
 Using compressed storage, NAtomX=    35.
 Will process     36 centers per pass.
   1 Symmetry operations used in ECPInt.
 ECPInt:  NShTT=   11781 NPrTT=   41593 LenC2=   11014 LenP2D=   28183.
 LDataN:  DoStor=T MaxTD1= 5 Len=  102
 R6Disp: Adding Grimme-D3(BJ) dispersion energy 1st derivatives to the gradient.
 Leave Link 1101 at Thu Nov  3 08:05:56 2022, MaxMem=  4194304000 cpu:              18.4 elap:               3.4
 (Enter /software/gaussian/G16-A.03/avx/g16/l1102.exe)
 Symmetrizing basis deriv contribution to polar:
 IMax=3 JMax=2 DiffMx= 0.00D+00
 Leave Link 1102 at Thu Nov  3 08:05:57 2022, MaxMem=  4194304000 cpu:               0.9 elap:               0.2
 (Enter /software/gaussian/G16-A.03/avx/g16/l1110.exe)
 Forming Gx(P) for the SCF density, NAtomX=    35.
 Integral derivatives from FoFJK, PRISM(SPDF).
 Do as many integral derivatives as possible in FoFJK.
 G2DrvN: MDV=    4194301344.
 G2DrvN: will do    36 centers at a time, making    1 passes.
 Calling FoFCou, ICntrl=  3107 FMM=F I1Cent=   0 AccDes= 0.00D+00.
 FoFJK:  IHMeth= 1 ICntrl=    3107 DoSepK=F KAlg= 0 I1Cent=           0 FoldK=F
 IRaf=         0 NMat=       1 IRICut=       1 DoRegI=T DoRafI=F ISym2E= 0 IDoP0=0 IntGTp=1.
 FoFCou: FMM=F IPFlag=           0 FMFlag=      100000 FMFlg1=           0
         NFxFlg=           0 DoJE=F BraDBF=F KetDBF=F FulRan=T
         wScrn=  0.000000 ICntrl=      3107 IOpCl=  0 I1Cent=           0 NGrid=           0
         NMat0=    1 NMatS0=      1 NMatT0=    0 NMatD0=    1 NMtDS0=    0 NMtDT0=    0
 Symmetry not used in FoFCou.
 End of G2Drv F.D. properties file   721 does not exist.
 End of G2Drv F.D. properties file   722 does not exist.
 End of G2Drv F.D. properties file   788 does not exist.
 Leave Link 1110 at Thu Nov  3 08:10:15 2022, MaxMem=  4194304000 cpu:            1807.6 elap:             256.8
 (Enter /software/gaussian/G16-A.03/avx/g16/l1002.exe)
 Minotr:  Closed shell wavefunction.
          IDoAtm=11111111111111111111111111111111111
          Direct CPHF calculation.
          Differentiating once with respect to electric field.
                with respect to dipole field.
          Differentiating once with respect to nuclear coordinates.
          Requested convergence is 1.0D-08 RMS, and 1.0D-07 maximum.
          Secondary convergence is 1.0D-12 RMS, and 1.0D-12 maximum.
          NewPWx=T KeepS1=F KeepF1=F KeepIn=T MapXYZ=F SortEE=F KeepMc=T.
        10585 words used for storage of precomputed grid.
 Keep R1 ints in memory in canonical form, NReq=1321549342.
 FoFCou: FMM=F IPFlag=           0 FMFlag=           0 FMFlg1=           0
         NFxFlg=           0 DoJE=F BraDBF=F KetDBF=F FulRan=T
         wScrn=  0.000000 ICntrl=       600 IOpCl=  0 I1Cent=           0 NGrid=           0
         NMat0=    1 NMatS0=  51040 NMatT0=    0 NMatD0=    1 NMtDS0=    0 NMtDT0=    0
 Symmetry not used in FoFCou.
 Two-electron integral symmetry not used.
          MDV=    4194304000 using IRadAn=       1.
          Solving linear equations simultaneously, MaxMat=       0.
          There are   108 degrees of freedom in the 1st order CPHF.  IDoFFX=6 NUNeed=     3.
    105 vectors produced by pass  0 Test12= 1.57D-14 1.00D-09 XBig12= 1.03D+02 3.85D+00.
 AX will form   105 AO Fock derivatives at one time.
    105 vectors produced by pass  1 Test12= 1.57D-14 1.00D-09 XBig12= 2.45D+01 1.01D+00.
    105 vectors produced by pass  2 Test12= 1.57D-14 1.00D-09 XBig12= 2.75D-01 4.29D-02.
    105 vectors produced by pass  3 Test12= 1.57D-14 1.00D-09 XBig12= 9.27D-04 3.13D-03.
    105 vectors produced by pass  4 Test12= 1.57D-14 1.00D-09 XBig12= 1.71D-06 1.20D-04.
     73 vectors produced by pass  5 Test12= 1.57D-14 1.00D-09 XBig12= 2.05D-09 3.50D-06.
     19 vectors produced by pass  6 Test12= 1.57D-14 1.00D-09 XBig12= 2.04D-12 9.31D-08.
      3 vectors produced by pass  7 Test12= 1.57D-14 1.00D-09 XBig12= 2.29D-15 2.90D-09.
 InvSVY:  IOpt=1 It=  1 EMax= 1.07D-14
 Solved reduced A of dimension   620 with   108 vectors.
 FullF1:  Do perturbations      1 to       3.
 Isotropic polarizability for W=    0.000000      140.39 Bohr**3.
 End of Minotr F.D. properties file   721 does not exist.
 End of Minotr F.D. properties file   722 does not exist.
 End of Minotr F.D. properties file   788 does not exist.
 Leave Link 1002 at Thu Nov  3 08:14:06 2022, MaxMem=  4194304000 cpu:            1835.1 elap:             230.7
 (Enter /software/gaussian/G16-A.03/avx/g16/l601.exe)
 Copying SCF densities to generalized density rwf, IOpCl= 0 IROHF=0.

 **********************************************************************

            Population analysis using the SCF density.

 **********************************************************************

 Orbital symmetries:
       Occupied  (A) (A) (A) (A) (A) (A) (A) (A) (A) (A) (A) (A)
                 (A) (A) (A) (A) (A) (A) (A) (A) (A) (A) (A) (A)
                 (A) (A) (A) (A) (A) (A) (A) (A) (A) (A) (A) (A)
                 (A) (A) (A) (A) (A) (A) (A) (A) (A) (A) (A) (A)
                 (A) (A) (A) (A) (A) (A) (A) (A) (A) (A) (A) (A)
                 (A)
       Virtual   (A) (A) (A) (A) (A) (A) (A) (A) (A) (A) (A) (A)
                 (A) (A) (A) (A) (A) (A) (A) (A) (A) (A) (A) (A)
                 (A) (A) (A) (A) (A) (A) (A) (A) (A) (A) (A) (A)
                 (A) (A) (A) (A) (A) (A) (A) (A) (A) (A) (A) (A)
                 (A) (A) (A) (A) (A) (A) (A) (A) (A) (A) (A) (A)
                 (A) (A) (A) (A) (A) (A) (A) (A) (A) (A) (A) (A)
                 (A) (A) (A) (A) (A) (A) (A) (A) (A) (A) (A) (A)
                 (A) (A) (A) (A) (A) (A) (A) (A) (A) (A) (A) (A)
                 (A) (A) (A) (A) (A) (A) (A) (A) (A) (A) (A) (A)
                 (A) (A) (A) (A) (A) (A) (A) (A) (A) (A) (A) (A)
                 (A) (A) (A) (A) (A) (A) (A) (A) (A) (A) (A) (A)
                 (A) (A) (A) (A) (A) (A) (A) (A) (A) (A) (A) (A)
                 (A) (A) (A) (A) (A) (A) (A) (A) (A) (A) (A) (A)
                 (A) (A) (A) (A) (A) (A) (A) (A) (A) (A) (A) (A)
                 (A) (A) (A) (A) (A) (A) (A) (A) (A) (A) (A) (A)
                 (A) (A) (A) (A) (A) (A) (A) (A) (A) (A) (A) (A)
                 (A) (A) (A) (A) (A) (A) (A) (A) (A) (A) (A) (A)
                 (A) (A) (A) (A) (A) (A) (A) (A) (A) (A) (A) (A)
                 (A) (A) (A) (A) (A) (A) (A) (A) (A) (A) (A) (A)
                 (A) (A) (A) (A) (A) (A) (A) (A) (A) (A) (A) (A)
                 (A) (A) (A) (A) (A) (A) (A) (A) (A) (A) (A) (A)
                 (A) (A) (A) (A) (A) (A)
 The electronic state is 1-A.
 Alpha  occ. eigenvalues --  -19.24937 -19.24754 -14.44451 -14.34272 -14.33904
 Alpha  occ. eigenvalues --  -10.34109 -10.33930 -10.29295 -10.28721 -10.27230
 Alpha  occ. eigenvalues --  -10.25468 -10.25408 -10.23777 -10.22056 -10.21531
 Alpha  occ. eigenvalues --  -10.20696  -1.13258  -1.12352  -0.98877  -0.90937
 Alpha  occ. eigenvalues --   -0.90214  -0.83006  -0.78825  -0.76037  -0.72061
 Alpha  occ. eigenvalues --   -0.69364  -0.68553  -0.66223  -0.65069  -0.63204
 Alpha  occ. eigenvalues --   -0.55772  -0.54648  -0.53305  -0.52694  -0.52053
 Alpha  occ. eigenvalues --   -0.50989  -0.48049  -0.47562  -0.46224  -0.45618
 Alpha  occ. eigenvalues --   -0.44713  -0.43790  -0.43248  -0.42098  -0.41054
 Alpha  occ. eigenvalues --   -0.40948  -0.39932  -0.39062  -0.38384  -0.37633
 Alpha  occ. eigenvalues --   -0.37145  -0.36315  -0.36222  -0.34014  -0.33095
 Alpha  occ. eigenvalues --   -0.32558  -0.30324  -0.28076  -0.24497  -0.23382
 Alpha  occ. eigenvalues --   -0.22186
 Alpha virt. eigenvalues --    0.03372   0.06259   0.07388   0.08658   0.08727
 Alpha virt. eigenvalues --    0.09985   0.10507   0.10885   0.11449   0.11889
 Alpha virt. eigenvalues --    0.12433   0.12823   0.13924   0.14350   0.14994
 Alpha virt. eigenvalues --    0.15065   0.15799   0.16828   0.17024   0.18144
 Alpha virt. eigenvalues --    0.18938   0.19320   0.19945   0.20651   0.21407
 Alpha virt. eigenvalues --    0.22087   0.22364   0.24355   0.25484   0.26095
 Alpha virt. eigenvalues --    0.27485   0.27673   0.27941   0.31435   0.35737
 Alpha virt. eigenvalues --    0.36832   0.38429   0.39669   0.41421   0.42332
 Alpha virt. eigenvalues --    0.42871   0.43159   0.44165   0.45433   0.45977
 Alpha virt. eigenvalues --    0.47253   0.50890   0.52134   0.52774   0.52963
 Alpha virt. eigenvalues --    0.55322   0.55907   0.56751   0.57756   0.58422
 Alpha virt. eigenvalues --    0.59022   0.60066   0.60231   0.60647   0.61492
 Alpha virt. eigenvalues --    0.63063   0.64218   0.64576   0.64979   0.65406
 Alpha virt. eigenvalues --    0.65898   0.66104   0.66413   0.66756   0.67330
 Alpha virt. eigenvalues --    0.67700   0.68094   0.68901   0.69176   0.69430
 Alpha virt. eigenvalues --    0.69832   0.70430   0.70920   0.71325   0.72055
 Alpha virt. eigenvalues --    0.72432   0.72928   0.73901   0.74421   0.75003
 Alpha virt. eigenvalues --    0.75764   0.76571   0.77750   0.78974   0.79570
 Alpha virt. eigenvalues --    0.80785   0.82013   0.84352   0.87776   0.88084
 Alpha virt. eigenvalues --    0.89954   0.90508   0.93451   0.95562   0.95754
 Alpha virt. eigenvalues --    0.99240   1.04539   1.05830   1.08003   1.08924
 Alpha virt. eigenvalues --    1.11323   1.13079   1.15281   1.15781   1.15965
 Alpha virt. eigenvalues --    1.17990   1.20318   1.21781   1.23483   1.24911
 Alpha virt. eigenvalues --    1.27134   1.30083   1.30844   1.31365   1.33787
 Alpha virt. eigenvalues --    1.35344   1.37681   1.39356   1.40042   1.41579
 Alpha virt. eigenvalues --    1.44914   1.44945   1.49230   1.52158   1.54111
 Alpha virt. eigenvalues --    1.55361   1.56359   1.56763   1.58052   1.58367
 Alpha virt. eigenvalues --    1.58537   1.59749   1.60645   1.61456   1.63655
 Alpha virt. eigenvalues --    1.64005   1.65926   1.66940   1.69736   1.70572
 Alpha virt. eigenvalues --    1.71909   1.72490   1.75627   1.76639   1.76764
 Alpha virt. eigenvalues --    1.77438   1.78103   1.78633   1.79600   1.80060
 Alpha virt. eigenvalues --    1.81700   1.82456   1.82962   1.84496   1.84728
 Alpha virt. eigenvalues --    1.85526   1.85776   1.86358   1.86520   1.87870
 Alpha virt. eigenvalues --    1.88702   1.90186   1.91034   1.91403   1.92847
 Alpha virt. eigenvalues --    1.93713   1.93797   1.95239   1.96985   1.97362
 Alpha virt. eigenvalues --    1.98318   1.99115   1.99657   2.00430   2.02491
 Alpha virt. eigenvalues --    2.03701   2.04850   2.07440   2.08813   2.09336
 Alpha virt. eigenvalues --    2.10553   2.11412   2.13384   2.17374   2.19588
 Alpha virt. eigenvalues --    2.22125   2.23974   2.27202   2.28071   2.29230
 Alpha virt. eigenvalues --    2.30562   2.32892   2.33387   2.34594   2.37560
 Alpha virt. eigenvalues --    2.38814   2.40320   2.42113   2.43484   2.43938
 Alpha virt. eigenvalues --    2.45186   2.47827   2.48563   2.53314   2.54501
 Alpha virt. eigenvalues --    2.55599   2.60066   2.61932   2.64359   2.64621
 Alpha virt. eigenvalues --    2.66364   2.67769   2.68027   2.68542   2.68939
 Alpha virt. eigenvalues --    2.70477   2.73367   2.77546   2.80063   2.81255
 Alpha virt. eigenvalues --    2.83765   2.84083   2.87484   2.88504   2.89253
 Alpha virt. eigenvalues --    2.91034   2.91600   2.91770   2.93147   2.94037
 Alpha virt. eigenvalues --    2.95898   2.96282   2.97273   2.97827   3.00533
 Alpha virt. eigenvalues --    3.00608   3.02163   3.03777   3.05833   3.07027
 Alpha virt. eigenvalues --    3.07228   3.08840   3.11438   3.15187   3.15781
 Alpha virt. eigenvalues --    3.18884   3.20542   3.29121   3.34475   3.41122
 Alpha virt. eigenvalues --    3.58015   3.62880   3.74609
     Molecular Orbital Coefficients:
                          57        58        59        60        61
                           O         O         O         O         O
     Eigenvalues --    -0.30324  -0.28076  -0.24497  -0.23382  -0.22186
   1 1   C  1S         -0.00158  -0.00647   0.00031   0.00004  -0.00043
   2        2S         -0.00017   0.00928  -0.00124  -0.00034  -0.00224
   3        3S          0.03159   0.03769   0.00051  -0.00014   0.01730
   4        4PX        -0.01515  -0.00312   0.01940  -0.01897   0.01654
   5        4PY        -0.02167  -0.01761  -0.00062   0.00287   0.02544
   6        4PZ         0.09352  -0.01114  -0.00042   0.00928  -0.06408
   7        5PX        -0.00377   0.00516   0.03817  -0.01310   0.00571
   8        5PY        -0.01297  -0.00269  -0.01007   0.00077   0.01634
   9        5PZ         0.05250  -0.00856   0.01863   0.00602  -0.01115
  10        6D 0        0.01073  -0.00086  -0.00099   0.00215  -0.01025
  11        6D+1       -0.00113   0.00020  -0.00043  -0.00015  -0.00001
  12        6D-1        0.01178   0.00019  -0.00073   0.00154  -0.01250
  13        6D+2        0.00181  -0.00079   0.00082  -0.00109  -0.00197
  14        6D-2       -0.00164   0.00064   0.00055  -0.00127   0.00208
  15 2   N  1S          0.00459  -0.01524  -0.00084  -0.00089  -0.00138
  16        2S          0.01056  -0.02444  -0.00160  -0.00213  -0.00493
  17        3S          0.01385  -0.17013  -0.01140  -0.00544   0.02292
  18        4PX        -0.07148  -0.00843   0.01959  -0.05435   0.06171
  19        4PY        -0.08605  -0.03179   0.00371   0.00257   0.08573
  20        4PZ         0.32403  -0.02512  -0.02434   0.03823  -0.28851
  21        5PX         0.06189   0.01496  -0.03010   0.07724  -0.05734
  22        5PY         0.06548   0.06417   0.00848  -0.01161  -0.08100
  23        5PZ        -0.26647   0.03629   0.02081  -0.03369   0.27183
  24        6D 0        0.00369  -0.00103  -0.00119  -0.00089   0.00122
  25        6D+1        0.00139   0.00085  -0.00685  -0.00338   0.00048
  26        6D-1        0.00635   0.00012   0.00271   0.00127   0.00039
  27        6D+2        0.00176   0.00061   0.00392   0.00093   0.00129
  28        6D-2       -0.00180  -0.00053   0.00170   0.00016  -0.00127
  29 3   C  1S          0.00474   0.03685   0.01391  -0.02767  -0.00615
  30        2S         -0.01246  -0.08941  -0.03783   0.07116   0.01533
  31        3S          0.01068   0.01852   0.03136   0.00011  -0.00788
  32        4PX         0.02147   0.00264   0.06498   0.02812   0.03584
  33        4PY         0.01887   0.09944   0.08649  -0.04387   0.02555
  34        4PZ        -0.04585   0.04460  -0.14786  -0.07694  -0.08523
  35        5PX         0.01012  -0.10196  -0.00192   0.12141   0.05327
  36        5PY        -0.01163   0.03557   0.04107  -0.03195   0.01859
  37        5PZ        -0.02328  -0.02423  -0.11058  -0.00468  -0.06567
  38        6D 0        0.01063   0.00124   0.01935   0.00115   0.01679
  39        6D+1        0.02200   0.01010   0.01051  -0.00624  -0.00780
  40        6D-1       -0.01140   0.00084   0.01306  -0.00080   0.02515
  41        6D+2       -0.00761   0.01520   0.00654  -0.01299   0.00502
  42        6D-2       -0.00552   0.01548  -0.00587  -0.01685  -0.01386
  43 4   N  1S          0.00004   0.06999   0.03139  -0.07744  -0.00977
  44        2S          0.00360   0.14244   0.06717  -0.16423  -0.02210
  45        3S         -0.04116   0.17897   0.06003  -0.20079  -0.01352
  46        4PX         0.00311   0.30675   0.01072  -0.30310  -0.16160
  47        4PY         0.00738   0.11279  -0.04607  -0.10128  -0.11269
  48        4PZ         0.02689   0.15250   0.30545  -0.09487   0.24911
  49        5PX        -0.01345  -0.20558   0.00389   0.18870   0.12430
  50        5PY        -0.00106  -0.08633   0.02814   0.08047   0.09010
  51        5PZ        -0.02575  -0.10460  -0.22598   0.06568  -0.20335
  52        6D 0       -0.00072   0.00351  -0.01021  -0.00717  -0.01231
  53        6D+1        0.00078  -0.01104  -0.00933   0.01001  -0.00342
  54        6D-1       -0.00340  -0.00591  -0.01094   0.00181  -0.00659
  55        6D+2       -0.00203  -0.00490  -0.00431   0.00886   0.00176
  56        6D-2        0.00026  -0.00895   0.00486   0.00757   0.00790
  57 5   C  1S          0.00379   0.02196   0.01330  -0.02490  -0.00219
  58        2S         -0.01151  -0.05356  -0.03491   0.06493   0.00571
  59        3S          0.02117  -0.05667  -0.05008   0.06488  -0.01225
  60        4PX        -0.03386   0.10883  -0.00041  -0.11616  -0.04696
  61        4PY        -0.02112  -0.00964  -0.04766   0.02760  -0.02458
  62        4PZ         0.04095   0.04544   0.10012  -0.02655   0.06695
  63        5PX        -0.03006   0.00237  -0.01636  -0.00758  -0.00396
  64        5PY         0.00888  -0.00997  -0.02187   0.03219  -0.01210
  65        5PZ         0.01938   0.00350   0.00729  -0.00477   0.00732
  66        6D 0       -0.00221   0.00210   0.00207  -0.00173   0.00224
  67        6D+1       -0.00283   0.00667   0.00810  -0.00539   0.00670
  68        6D-1       -0.00413   0.00111  -0.01422  -0.00327  -0.01492
  69        6D+2        0.00039   0.01038  -0.00275  -0.01201  -0.01021
  70        6D-2        0.00189   0.01262   0.00754  -0.01070   0.00088
  71 6   C  1S          0.00091  -0.02757  -0.00535   0.02372   0.00639
  72        2S         -0.00225   0.06823   0.00963  -0.05847  -0.01871
  73        3S         -0.01916   0.10539   0.04978  -0.11459  -0.00541
  74        4PX         0.04168  -0.10108  -0.00284   0.08141   0.02316
  75        4PY         0.03529  -0.06167   0.00884   0.06428   0.03769
  76        4PZ        -0.11013  -0.03944  -0.06952   0.02343  -0.01249
  77        5PX         0.02154  -0.06115  -0.03298   0.05114  -0.01063
  78        5PY         0.00192  -0.07474  -0.02117   0.07886   0.03644
  79        5PZ        -0.02160  -0.03169  -0.01895   0.03253  -0.00415
  80        6D 0        0.00192  -0.00335   0.00010   0.00323   0.00013
  81        6D+1       -0.01361  -0.00124  -0.01073  -0.00036  -0.00353
  82        6D-1        0.00573  -0.00003   0.00260   0.00083  -0.00087
  83        6D+2        0.00768  -0.00226   0.00452   0.00491   0.00214
  84        6D-2        0.00225  -0.00212   0.00067   0.00240   0.00097
  85 7   O  1S          0.00511   0.00664   0.00399  -0.01021  -0.00627
  86        2S          0.01064   0.01483   0.01045  -0.02081  -0.01195
  87        3S          0.01940   0.06381   0.01466  -0.08632  -0.04498
  88        4PX        -0.11827  -0.07121  -0.10828   0.03722  -0.01552
  89        4PY        -0.11472  -0.07541  -0.11751   0.03700  -0.03137
  90        4PZ         0.27095  -0.07854   0.20103   0.11745   0.10563
  91        5PX        -0.08740  -0.05758  -0.08990   0.03489  -0.02236
  92        5PY        -0.09098  -0.05468  -0.08948   0.02885  -0.01987
  93        5PZ         0.21075  -0.06357   0.16783   0.10064   0.09790
  94        6D 0       -0.00637  -0.00011  -0.00258  -0.00043  -0.00055
  95        6D+1       -0.00307  -0.00009  -0.00029   0.00044  -0.00028
  96        6D-1       -0.00335   0.00243  -0.00165  -0.00265  -0.00038
  97        6D+2       -0.00038  -0.00332  -0.00204   0.00217   0.00061
  98        6D-2        0.00434  -0.00008   0.00168   0.00022  -0.00021
  99 8   N  1S          0.00044   0.05980  -0.02783   0.07971   0.01845
 100        2S          0.00467   0.12017  -0.06190   0.16528   0.04256
 101        3S         -0.03617   0.16935  -0.03708   0.23589   0.01330
 102        4PX        -0.00305  -0.15087   0.08735  -0.15953  -0.07333
 103        4PY         0.01273   0.28485  -0.03800   0.34454  -0.03380
 104        4PZ        -0.00477   0.06193  -0.23962  -0.07089   0.30826
 105        5PX         0.01582   0.09440  -0.06107   0.07679   0.05632
 106        5PY        -0.01204  -0.19144   0.02661  -0.23036   0.02463
 107        5PZ        -0.00376  -0.04608   0.17646   0.05694  -0.24776
 108        6D 0       -0.00043   0.00621   0.00447   0.01270  -0.00586
 109        6D+1       -0.00334   0.00131   0.00062   0.00258   0.00084
 110        6D-1       -0.00001  -0.00645   0.01398   0.00067  -0.01430
 111        6D+2        0.00091   0.00937   0.00111   0.00941  -0.00307
 112        6D-2        0.00232   0.00647  -0.00650   0.01062   0.00474
 113 9   C  1S          0.00013   0.03372  -0.01347   0.03041   0.00340
 114        2S          0.00170  -0.08305   0.03539  -0.07998  -0.01036
 115        3S          0.01200   0.00795  -0.01534  -0.00077   0.01856
 116        4PX         0.00464   0.05778  -0.03948   0.03714   0.03111
 117        4PY         0.01008   0.07426  -0.06875   0.02635   0.04091
 118        4PZ        -0.03477   0.03205   0.15011   0.09809  -0.08282
 119        5PX        -0.00451   0.08364  -0.03649   0.10689   0.00813
 120        5PY         0.00648  -0.04061   0.00162  -0.07037   0.00549
 121        5PZ        -0.01267  -0.00014   0.09919   0.05639  -0.08015
 122        6D 0       -0.00256  -0.00181  -0.00919  -0.00816   0.01839
 123        6D+1       -0.02395  -0.00614   0.00451  -0.00942   0.01668
 124        6D-1        0.01011   0.00205  -0.01853  -0.00762   0.02048
 125        6D+2        0.00830  -0.01331  -0.00191  -0.01913   0.00116
 126        6D-2        0.00321  -0.01650   0.00873  -0.01351  -0.01109
 127 10  O  1S          0.00244   0.00630  -0.00397   0.01226  -0.00081
 128        2S          0.00405   0.01478  -0.00876   0.02617   0.00001
 129        3S          0.01833   0.05106  -0.02318   0.09031  -0.01169
 130        4PX        -0.07152   0.00681   0.05009   0.03154  -0.02635
 131        4PY        -0.10372  -0.10938   0.11217  -0.07496  -0.05049
 132        4PZ         0.26705  -0.03265  -0.21251  -0.12817   0.10041
 133        5PX        -0.06580   0.01170   0.03732   0.03280  -0.01534
 134        5PY        -0.08089  -0.08480   0.09059  -0.06441  -0.03976
 135        5PZ         0.20527  -0.02492  -0.17538  -0.11034   0.09356
 136        6D 0       -0.00392  -0.00033   0.00245   0.00066  -0.00056
 137        6D+1        0.00143   0.00104   0.00089   0.00124   0.00035
 138        6D-1       -0.00668   0.00175   0.00204   0.00257  -0.00041
 139        6D+2       -0.00308  -0.00072   0.00124  -0.00060  -0.00000
 140        6D-2        0.00166   0.00315  -0.00209   0.00242   0.00043
 141 11  C  1S          0.00275  -0.02579   0.00511  -0.02648  -0.00282
 142        2S         -0.00391   0.06395  -0.00966   0.06585   0.00506
 143        3S         -0.06685   0.11161  -0.05516   0.13856   0.05539
 144        4PX         0.02732   0.03235  -0.01627   0.01264   0.01223
 145        4PY         0.05229  -0.11626   0.00386  -0.12670   0.00499
 146        4PZ        -0.11513  -0.01406   0.05869   0.00650  -0.02061
 147        5PX        -0.01330   0.00461   0.00311  -0.00738   0.00758
 148        5PY         0.04113  -0.09841   0.03079  -0.11465  -0.01639
 149        5PZ        -0.03904  -0.00940   0.00539  -0.00981  -0.00138
 150        6D 0        0.00949  -0.00188  -0.00638  -0.00418   0.00224
 151        6D+1        0.01117   0.00260  -0.00770   0.00025   0.00207
 152        6D-1       -0.00653  -0.00188   0.00551   0.00058  -0.00377
 153        6D+2       -0.00310   0.00135   0.00149   0.00262  -0.00011
 154        6D-2       -0.00243   0.00253   0.00153   0.00558   0.00006
 155 12  C  1S         -0.00245   0.01676  -0.00681   0.02570   0.00325
 156        2S         -0.00213  -0.03810   0.01179  -0.06578   0.00047
 157        3S          0.11556  -0.04893   0.06435  -0.05962  -0.09695
 158        4PX        -0.02166  -0.08332   0.05576  -0.10724  -0.04112
 159        4PY        -0.06133   0.07105   0.02496   0.08485  -0.02245
 160        4PZ         0.06849   0.02597  -0.09445  -0.03157   0.08791
 161        5PX         0.00254  -0.03348  -0.01239  -0.07301   0.02709
 162        5PY        -0.01558  -0.01894   0.02740  -0.03115  -0.01766
 163        5PZ         0.06534   0.00622   0.00143  -0.00747  -0.01664
 164        6D 0        0.00037  -0.00075   0.00175   0.00066  -0.00263
 165        6D+1       -0.00042  -0.00409   0.01385   0.00295  -0.01788
 166        6D-1       -0.00588  -0.00018   0.00441   0.00232  -0.00315
 167        6D+2        0.00070  -0.01279   0.00229  -0.01386   0.00000
 168        6D-2        0.00152  -0.00981  -0.00015  -0.01489   0.00263
 169 13  H  1S         -0.03834  -0.04880   0.09982   0.00622  -0.10283
 170        2S         -0.01887  -0.01725   0.06611   0.01736  -0.07335
 171        3PX        -0.00132  -0.00127   0.00171  -0.00146  -0.00070
 172        3PY        -0.00114   0.00133   0.00198   0.00304  -0.00242
 173        3PZ        -0.00039  -0.00164   0.00185  -0.00062  -0.00160
 174 14  C  1S         -0.00509   0.00234   0.01632   0.01340  -0.02035
 175        2S          0.01919  -0.00683  -0.03478  -0.03076   0.04043
 176        3S         -0.05030  -0.02238  -0.13046  -0.12736   0.19370
 177        4PX         0.02972   0.02274  -0.06717  -0.02452   0.07218
 178        4PY         0.05917  -0.03047  -0.05821  -0.04593   0.05952
 179        4PZ        -0.05858   0.00170   0.07608   0.04582  -0.07892
 180        5PX         0.00059   0.02577  -0.04361   0.00744   0.03941
 181        5PY        -0.01681   0.01142  -0.06667  -0.00586   0.10121
 182        5PZ        -0.03220   0.04969   0.04192   0.08595  -0.05693
 183        6D 0        0.00039  -0.00079  -0.00003  -0.00027   0.00029
 184        6D+1       -0.00314   0.00077   0.00221   0.00241  -0.00179
 185        6D-1       -0.00287  -0.00013   0.00365   0.00098  -0.00359
 186        6D+2        0.00097  -0.00433   0.00211  -0.00300  -0.00250
 187        6D-2        0.00127   0.00103  -0.00277  -0.00088   0.00275
 188 15  C  1S         -0.00155   0.00668  -0.00320   0.00461   0.00377
 189        2S          0.00345  -0.01573   0.00818  -0.01290  -0.01063
 190        3S          0.02029   0.00174   0.01918   0.03430  -0.04389
 191        4PX        -0.00791  -0.03414   0.03693  -0.00669  -0.03870
 192        4PY         0.01084   0.01285  -0.00273   0.00162  -0.00259
 193        4PZ         0.01265  -0.00650  -0.00453  -0.00477   0.00182
 194        5PX        -0.00525  -0.01262   0.03659   0.02109  -0.04646
 195        5PY         0.01197   0.00155  -0.00185  -0.01002  -0.00408
 196        5PZ         0.01191  -0.01376   0.00523  -0.01132  -0.00924
 197        6D 0       -0.00067  -0.00027   0.00070   0.00020  -0.00063
 198        6D+1       -0.00214  -0.00082   0.00336   0.00075  -0.00343
 199        6D-1       -0.00039   0.00002   0.00047  -0.00023  -0.00042
 200        6D+2        0.00107  -0.00161  -0.00076  -0.00112   0.00093
 201        6D-2        0.00199  -0.00066  -0.00237  -0.00119   0.00243
 202 16  C  1S          0.00478  -0.00088  -0.00177   0.00021  -0.00076
 203        2S         -0.00945   0.00522   0.00389  -0.00342  -0.00107
 204        3S         -0.03601  -0.00733   0.00726   0.05116   0.03734
 205        4PX        -0.01481  -0.05336   0.01365  -0.03264   0.00160
 206        4PY        -0.04357   0.03557   0.01831   0.03174  -0.01462
 207        4PZ         0.01599  -0.00250  -0.00724  -0.00458   0.00651
 208        5PX        -0.00128  -0.04841   0.00809  -0.01655   0.01166
 209        5PY        -0.03273   0.05032   0.00966   0.05205  -0.01181
 210        5PZ         0.00267  -0.01869  -0.00209  -0.01406   0.01244
 211        6D 0       -0.00006   0.00038   0.00038   0.00006  -0.00078
 212        6D+1       -0.00103  -0.00146   0.00064  -0.00090  -0.00000
 213        6D-1       -0.00301   0.00022   0.00266   0.00128  -0.00243
 214        6D+2        0.00018  -0.00211   0.00122   0.00019  -0.00120
 215        6D-2        0.00259   0.00157  -0.00242  -0.00004   0.00161
 216 17  C  1S          0.00358   0.00080  -0.00082  -0.00003  -0.00084
 217        2S         -0.01245  -0.00085   0.00062  -0.00086   0.00444
 218        3S          0.03233  -0.05142   0.04969  -0.02738  -0.04758
 219        4PX        -0.01291  -0.01166  -0.01225  -0.01622   0.02234
 220        4PY        -0.00697   0.01017   0.00634   0.00957  -0.00743
 221        4PZ         0.03536   0.00338  -0.02840  -0.01480   0.02463
 222        5PX         0.00919  -0.00350  -0.01900  -0.00779   0.02894
 223        5PY         0.00023   0.01239   0.00290   0.01313  -0.01165
 224        5PZ        -0.00124   0.01352  -0.03226  -0.00819   0.04767
 225        6D 0        0.00159  -0.00044  -0.00183  -0.00163   0.00178
 226        6D+1       -0.00173  -0.00084   0.00159   0.00052  -0.00122
 227        6D-1       -0.00271   0.00085   0.00212   0.00183  -0.00186
 228        6D+2        0.00090  -0.00155   0.00036  -0.00069  -0.00054
 229        6D-2        0.00031  -0.00004   0.00035  -0.00000  -0.00061
 230 18  H  1S         -0.03578  -0.00164   0.01255  -0.02420   0.02990
 231        2S         -0.03801  -0.02112  -0.03039  -0.00717   0.00883
 232        3PX         0.00038  -0.00041  -0.00054   0.00084  -0.00095
 233        3PY         0.00001   0.00012   0.00175  -0.00031   0.00247
 234        3PZ         0.00358  -0.00058   0.00012   0.00063  -0.00255
 235 19  H  1S          0.11577  -0.00691  -0.01113   0.02076  -0.10426
 236        2S          0.07341  -0.01342  -0.01681   0.00601  -0.07436
 237        3PX         0.00150  -0.00007  -0.00005   0.00046  -0.00205
 238        3PY        -0.00007  -0.00036   0.00022   0.00036  -0.00068
 239        3PZ        -0.00313   0.00024   0.00063  -0.00013   0.00137
 240 20  H  1S         -0.08492  -0.00090  -0.00002   0.00359   0.07485
 241        2S         -0.06193  -0.01577   0.03885   0.00200   0.04055
 242        3PX        -0.00130   0.00051  -0.00088  -0.00040   0.00417
 243        3PY         0.00207  -0.00020  -0.00128  -0.00047   0.00004
 244        3PZ         0.00037  -0.00034  -0.00016   0.00028   0.00004
 245 21  H  1S         -0.04255  -0.04143  -0.11528   0.01555  -0.08903
 246        2S         -0.01618  -0.01175  -0.07707  -0.00512  -0.07342
 247        3PX         0.00050   0.00287  -0.00017  -0.00318  -0.00252
 248        3PY        -0.00162  -0.00015  -0.00314  -0.00030  -0.00218
 249        3PZ        -0.00013  -0.00053  -0.00117  -0.00020  -0.00129
 250 22  H  1S          0.05150  -0.02455   0.12055   0.03986   0.12332
 251        2S          0.02780   0.00217   0.10131   0.01924   0.09517
 252        3PX        -0.00014   0.00203   0.00327  -0.00210   0.00253
 253        3PY         0.00078  -0.00001   0.00283   0.00080   0.00234
 254        3PZ        -0.00098   0.00221   0.00002  -0.00195  -0.00050
 255 23  H  1S          0.13857  -0.02707   0.08581   0.03989   0.04224
 256        2S          0.08510  -0.02619   0.06236   0.04068   0.03381
 257        3PX        -0.00368  -0.00164  -0.00174   0.00131   0.00026
 258        3PY        -0.00255  -0.00039  -0.00178   0.00017  -0.00002
 259        3PZ         0.00110  -0.00232   0.00018   0.00194   0.00097
 260 24  H  1S         -0.10674  -0.03439  -0.08112   0.01501  -0.02365
 261        2S         -0.06579  -0.03695  -0.05396   0.02910   0.00045
 262        3PX         0.00314  -0.00209   0.00120   0.00216   0.00096
 263        3PY         0.00132  -0.00241   0.00025   0.00268   0.00069
 264        3PZ         0.00199   0.00075   0.00112  -0.00009   0.00024
 265 25  H  1S          0.14393  -0.01525  -0.08337  -0.05104   0.03781
 266        2S          0.08518  -0.01672  -0.05855  -0.04716   0.02525
 267        3PX         0.00076   0.00099   0.00010   0.00078   0.00031
 268        3PY        -0.00347  -0.00215   0.00204  -0.00186  -0.00024
 269        3PZ         0.00270  -0.00147  -0.00081  -0.00184   0.00037
 270 26  H  1S         -0.10198  -0.04331   0.07077  -0.01614  -0.03049
 271        2S         -0.06112  -0.04347   0.06245  -0.03466  -0.03222
 272        3PX        -0.00113  -0.00116   0.00062  -0.00110  -0.00010
 273        3PY         0.00371  -0.00254  -0.00175  -0.00392   0.00073
 274        3PZ         0.00071   0.00136  -0.00040   0.00087   0.00021
 275 27  H  1S         -0.01384   0.00279   0.00726   0.00368  -0.00502
 276        2S         -0.00772  -0.00718   0.01609  -0.00155  -0.01832
 277        3PX        -0.00043  -0.00082   0.00121  -0.00018  -0.00137
 278        3PY         0.00000   0.00035   0.00028   0.00039  -0.00041
 279        3PZ        -0.00004   0.00003  -0.00052  -0.00037   0.00071
 280 28  H  1S          0.00466   0.01432   0.00125   0.00283  -0.00595
 281        2S         -0.01619   0.01493   0.01196   0.01579  -0.00747
 282        3PX        -0.00082  -0.00090   0.00152  -0.00015  -0.00136
 283        3PY        -0.00105  -0.00038   0.00071   0.00026  -0.00051
 284        3PZ         0.00035  -0.00015  -0.00047  -0.00033   0.00046
 285 29  H  1S          0.01455   0.00111  -0.02826  -0.00836   0.03074
 286        2S          0.01004   0.00497  -0.02722  -0.00542   0.03187
 287        3PX        -0.00024  -0.00089   0.00043  -0.00058  -0.00040
 288        3PY         0.00032   0.00047  -0.00074   0.00006   0.00081
 289        3PZ         0.00016  -0.00001   0.00050   0.00026  -0.00078
 290 30  H  1S         -0.01064   0.00157   0.00930   0.00420  -0.01042
 291        2S         -0.00909  -0.00038   0.01043   0.00278  -0.01131
 292        3PX        -0.00086  -0.00107   0.00055  -0.00089  -0.00030
 293        3PY        -0.00122   0.00024   0.00086   0.00067  -0.00059
 294        3PZ         0.00012   0.00019  -0.00036   0.00003   0.00050
 295 31  H  1S          0.04316   0.01675  -0.03048  -0.00040   0.01974
 296        2S          0.03180   0.01267  -0.02727  -0.00099   0.01782
 297        3PX         0.00085  -0.00077  -0.00049  -0.00132   0.00044
 298        3PY         0.00010   0.00081  -0.00010   0.00071   0.00002
 299        3PZ        -0.00069  -0.00041   0.00067  -0.00028  -0.00062
 300 32  H  1S         -0.00584  -0.04911   0.01409  -0.02734  -0.00412
 301        2S         -0.00108   0.04036   0.00247  -0.00098  -0.03703
 302        3PX        -0.00031   0.00151   0.00042   0.00343  -0.00056
 303        3PY        -0.00079   0.00205   0.00099   0.00261  -0.00201
 304        3PZ         0.00088  -0.00086  -0.00025  -0.00094   0.00049
 305 33  H  1S         -0.01147   0.01370   0.00967   0.01328  -0.00982
 306        2S          0.00506   0.00885  -0.00860   0.00231   0.00366
 307        3PX        -0.00002  -0.00051  -0.00066  -0.00102   0.00058
 308        3PY        -0.00116  -0.00040   0.00052  -0.00014  -0.00014
 309        3PZ         0.00121   0.00019  -0.00072  -0.00009   0.00030
 310 34  H  1S         -0.01362  -0.01267  -0.00007  -0.00808   0.00697
 311        2S         -0.02732   0.00525   0.00854   0.01372  -0.02373
 312        3PX         0.00060   0.00057   0.00189   0.00163  -0.00234
 313        3PY        -0.00082  -0.00009   0.00070  -0.00015  -0.00050
 314        3PZ         0.00177  -0.00062  -0.00249  -0.00241   0.00302
 315 35  H  1S          0.03709   0.00310  -0.02464  -0.01033   0.01812
 316        2S          0.03046   0.00633  -0.02737  -0.00606   0.01938
 317        3PX         0.00053  -0.00031  -0.00107  -0.00088   0.00106
 318        3PY         0.00116   0.00043  -0.00047   0.00020   0.00019
 319        3PZ        -0.00018  -0.00030   0.00019  -0.00047  -0.00022
                          62        63        64        65        66
                           V         V         V         V         V
     Eigenvalues --     0.03372   0.06259   0.07388   0.08658   0.08727
   1 1   C  1S          0.00394  -0.04190  -0.04231  -0.00656  -0.08141
   2        2S         -0.01356   0.07025   0.07328   0.00582   0.14004
   3        3S         -0.00735   0.77806   0.78561   0.16376   1.49761
   4        4PX        -0.00841  -0.00090   0.03459  -0.02815  -0.02552
   5        4PY         0.02222   0.02849   0.02241  -0.01041   0.07752
   6        4PZ        -0.00728   0.01842   0.03096   0.11574   0.03261
   7        5PX        -0.04613  -0.00872   0.09173  -0.09378  -0.11453
   8        5PY         0.05556   0.12686   0.08811  -0.04106   0.24271
   9        5PZ        -0.04225   0.08806   0.12412   0.36975   0.12629
  10        6D 0       -0.00090   0.00011  -0.00314  -0.01313  -0.00201
  11        6D+1       -0.00403   0.00113   0.00073   0.00140   0.00045
  12        6D-1        0.00198   0.00196  -0.00089  -0.01370   0.00233
  13        6D+2        0.00195  -0.00155  -0.00197  -0.00221  -0.00334
  14        6D-2        0.00103   0.00081   0.00292   0.00166   0.00377
  15 2   N  1S          0.00054   0.01324   0.01751  -0.00288   0.03149
  16        2S         -0.00052   0.02177   0.03191  -0.00286   0.07770
  17        3S          0.03599   0.24188   0.26503  -0.00555   0.30973
  18        4PX        -0.00016   0.00188   0.01528   0.04548   0.03924
  19        4PY        -0.00289   0.01083   0.02958   0.04966   0.04250
  20        4PZ        -0.00010   0.02074  -0.03227  -0.19419   0.00901
  21        5PX         0.01136  -0.03375   0.03822  -0.03817  -0.11367
  22        5PY         0.00061  -0.07858  -0.14513  -0.05297  -0.13623
  23        5PZ         0.00408  -0.06500   0.01779   0.20581  -0.05831
  24        6D 0       -0.00727  -0.00425  -0.00233   0.00505  -0.00342
  25        6D+1       -0.02869   0.00612   0.00123   0.00590   0.00014
  26        6D-1        0.01151   0.00126   0.00605   0.01258   0.00662
  27        6D+2        0.01200  -0.00435  -0.00131   0.00675  -0.00684
  28        6D-2        0.00302   0.00019   0.00060  -0.00789   0.00342
  29 3   C  1S         -0.00160  -0.00100  -0.00491  -0.00470   0.01723
  30        2S          0.00485   0.03108   0.05559   0.02157  -0.03989
  31        3S         -0.00421  -0.37677  -0.60168  -0.07292  -0.13359
  32        4PX         0.11884  -0.03941   0.02402   0.08099  -0.01981
  33        4PY         0.11315  -0.03382  -0.01081   0.10128  -0.01012
  34        4PZ        -0.33020   0.06832  -0.07508  -0.22463  -0.03090
  35        5PX         0.16255  -0.00645   0.06353   0.13264   0.04615
  36        5PY         0.11895  -0.01372  -0.02285   0.13134  -0.10507
  37        5PZ        -0.34519   0.08021  -0.07514  -0.26317  -0.05356
  38        6D 0       -0.01033   0.00066  -0.00153  -0.00305  -0.00484
  39        6D+1        0.00630   0.00117   0.00173  -0.00277   0.00166
  40        6D-1       -0.02031   0.00269   0.00071   0.00060  -0.00283
  41        6D+2       -0.00752   0.00343   0.00177  -0.00335   0.00667
  42        6D-2        0.00713  -0.00221  -0.00214   0.00338  -0.00516
  43 4   N  1S         -0.00123   0.01200   0.01798  -0.00169   0.00093
  44        2S          0.00271   0.01962   0.03585  -0.00628  -0.00881
  45        3S         -0.04038   0.19650   0.24214   0.01482   0.06031
  46        4PX         0.10080  -0.03210  -0.04241   0.07156  -0.00243
  47        4PY         0.08388  -0.00759   0.01351   0.03546   0.02519
  48        4PZ        -0.23785   0.04002  -0.04484  -0.13426  -0.01721
  49        5PX        -0.13302   0.06126   0.06360  -0.09497   0.00182
  50        5PY        -0.08324   0.08748   0.09597  -0.01998  -0.05643
  51        5PZ         0.28101  -0.02170   0.10181   0.16498   0.02055
  52        6D 0        0.00009  -0.00207  -0.00613  -0.00047   0.00060
  53        6D+1        0.00774  -0.00004   0.00437   0.00580  -0.00010
  54        6D-1       -0.00793   0.00420   0.00210  -0.00784  -0.00061
  55        6D+2       -0.00783  -0.00114  -0.00587  -0.00554   0.00071
  56        6D-2        0.00020  -0.00153  -0.00057   0.00132   0.00020
  57 5   C  1S         -0.00253  -0.01529  -0.04698   0.00425   0.03895
  58        2S          0.00642   0.02947   0.09939  -0.00883  -0.06977
[...]
 .00007154,0.00003233,0.00006365,0.00025850,0.00064615,-0.00142255,0.00
 091544,-0.00030044,0.00032784,0.00011329,0.00147692,-0.00666194,0.0063
 3549,0.00025795,-0.00025032,0.00024945,-0.03200915,0.13455949,-0.20171
 534,-0.00002206,-0.00135837,0.00021433,-0.00000395,0.00000536,0.000000
 21,0.00000262,0.00000291,0.00000039,0.00000596,0.00000132,0.00000075,-
 0.00001743,-0.00000449,0.00001085,-0.00000121,0.00000745,-0.00001132,-
 0.00000554,-0.00000225,0.00000384,0.00000012,-0.00000093,-0.00000271,-
 0.00000547,0.00006195,0.00003341,-0.00000405,-0.00001759,0.00001860,0.
 00028588,0.00023272,0.00019787,0.00021838,-0.00002410,0.00011626,-0.00
 011912,0.00005964,-0.00008395,0.03547832,-0.14385351,0.21303933,0.0000
 0032,-0.00010638,-0.00000672,-0.00027582,0.00012063,-0.00001466,0.0002
 3081,-0.00010891,0.00006520,-0.00013219,0.00003001,0.00006202,0.000080
 59,0.00006242,0.00003405,0.00003745,0.00003830,0.00000971,-0.00020047,
 0.00006547,-0.00008372,-0.00037286,0.00091443,0.00084934,0.00049469,-0
 .00079273,0.00008947,0.00042526,0.00051440,-0.00003374,0.00011513,-0.0
 0022144,-0.00046851,-0.00100628,-0.00194333,-0.00089091,-0.00008215,-0
 .00006117,0.00011659,0.00293040,-0.00365946,-0.00769797,0.00097583,-0.
 00074361,-0.00144510,-0.12444256,0.04182298,0.11846825,-0.00016501,0.0
 0013578,0.00000024,-0.00000792,0.00001201,-0.00000050,0.00000211,0.000
 02722,-0.00000586,0.00000824,0.00001090,0.00000207,-0.00000521,-0.0000
 0844,0.00000237,0.00000436,-0.00000709,-0.00001102,-0.00001154,-0.0000
 0364,0.00000454,-0.00001460,0.00000720,-0.00000716,0.00000188,-0.00008
 380,-0.00008525,0.00006540,0.00007790,0.00000956,-0.00004318,0.0000840
 7,-0.00005680,0.00014618,0.00020007,-0.00004120,0.00014967,-0.00015637
 ,0.00028101,0.00249152,-0.00222971,-0.00601523,0.13188194,0.00001303,0
 .00005687,-0.00000893,0.00038305,-0.00000099,0.00007465,-0.00020794,-0
 .00027190,-0.00008980,0.00003596,0.00016022,0.00003021,-0.00000973,-0.
 00002147,-0.00000741,-0.00001404,-0.00002051,-0.00000641,0.00006850,0.
 00005192,0.00002525,-0.00004030,0.00028377,0.00023111,-0.00044002,0.00
 018677,-0.00003342,0.00036982,-0.00023680,0.00008848,0.00050360,0.0004
 6680,-0.00167262,-0.00258792,-0.00556483,0.00022540,-0.00011802,0.0000
 7525,-0.00017662,0.01619771,-0.00927768,-0.02429934,0.00166874,0.00107
 473,-0.00022312,0.04068614,-0.06582321,-0.05844632,0.00045127,0.001239
 84,-0.00134572,0.00000712,-0.00000964,0.00000236,-0.00000727,-0.000014
 42,0.00000035,-0.00001327,0.00000426,0.00001076,0.00001388,0.00000610,
 -0.00000038,0.00001745,0.00000733,0.00001562,0.00000375,0.00000525,0.0
 0000050,0.00000656,0.00000112,0.00000216,-0.00002602,-0.00048740,-0.00
 018525,-0.00003043,0.00002008,0.00008139,-0.00013878,0.00000866,0.0000
 9407,0.00020416,0.00016246,0.00039792,-0.00077541,0.00011705,0.0003656
 2,-0.01238343,0.00626513,0.01508350,-0.04263246,0.07227061,0.00001344,
 0.00008281,0.,0.00041000,-0.00004645,0.00005789,-0.00026026,-0.0001900
 0,-0.00009573,0.00007442,0.00011209,0.00005161,-0.00003707,-0.00003589
 ,-0.00002760,-0.00003222,-0.00003464,-0.00000706,0.00014094,0.00001965
 ,0.00004156,0.00003287,-0.00011973,0.00028850,-0.00053923,0.00036257,0
 .00003024,0.00028997,-0.00049899,-0.00007658,0.00051368,0.00041448,-0.
 00030263,-0.00133158,-0.00227227,0.00039191,-0.00004136,0.00011624,0.0
 0048350,0.00419016,-0.00148556,-0.00845844,0.00089622,0.00080928,0.000
 28200,0.11730867,-0.05952415,-0.21820438,-0.00032416,0.00079874,0.0005
 2641,0.00000988,-0.00001068,0.00000172,-0.00000910,-0.00001804,0.00000
 232,-0.00001469,0.00000312,0.00000903,0.00000899,0.00000747,-0.0000033
 8,0.00001503,0.00000629,0.00001926,0.00000724,0.00000647,-0.00000340,0
 .00001012,-0.00000265,0.00000613,-0.00002883,-0.00017444,-0.00005052,-
 0.00006855,-0.00008925,0.00007398,0.00005201,-0.00005734,-0.00020277,-
 0.00015410,0.00022965,0.00035868,-0.00077737,-0.00031046,0.00027869,0.
 01216471,-0.00822025,-0.01504951,-0.12748589,0.06748090,0.23202200,-0.
 00001228,0.00002404,-0.00001143,-0.00007499,-0.00007230,0.00000109,0.0
 0006965,0.00033492,-0.00001331,0.00004984,-0.00021179,-0.00017781,-0.0
 0007145,-0.00005212,-0.00004967,-0.00002748,-0.00003063,0.00000029,0.0
 0012669,-0.00010026,0.00008482,-0.00035056,0.00097660,0.00104947,0.000
 28414,-0.00011369,0.00005180,0.00021724,0.00023670,-0.00002793,-0.0001
 7022,0.00004624,-0.00011374,-0.00050083,-0.00016029,0.00033776,-0.0000
 1139,-0.00004530,0.00006265,-0.00611074,0.00052326,-0.00104684,0.00048
 104,-0.00231823,-0.00045766,-0.30383320,-0.01271486,-0.06812848,0.0005
 9285,0.00107768,-0.00009365,0.00000102,0.00000313,0.00000205,-0.000000
 11,-0.00001077,0.00000208,-0.00000176,-0.00000648,0.00000098,0.0000088
 3,0.00000379,-0.00000366,-0.00000780,0.00000689,0.00001668,0.00000521,
 0.00000181,-0.00000313,0.00000860,-0.00000648,0.00000284,-0.00000719,-
 0.00003450,-0.00001807,-0.00000357,0.00005642,-0.00001347,0.00014443,0
 .00013362,0.00009455,-0.00044478,0.00003672,-0.00015423,0.00031361,0.0
 0013817,-0.00006340,-0.00265759,-0.00074571,0.00052691,-0.01343803,-0.
 00071626,-0.00496518,0.32498625,0.00000939,-0.00010449,-0.00000597,-0.
 00040835,0.00005007,0.00001809,0.00029780,0.00005117,0.00006022,-0.000
 13212,-0.00013656,0.00012998,0.00008065,0.00009204,0.00005043,0.000038
 79,0.00005609,-0.00000820,-0.00015595,-0.00003314,-0.00006461,0.000262
 66,-0.00003233,0.00029522,0.00043435,-0.00096159,-0.00003291,0.0004888
 7,0.00051046,-0.00007711,-0.00023886,-0.00002446,0.00009427,-0.0005966
 9,0.00092585,0.00055530,0.00004873,-0.00007496,-0.00004656,-0.02872218
 ,0.00027517,-0.00581923,-0.00073112,-0.00586669,-0.00176539,-0.0104118
 7,-0.04717356,-0.00213497,-0.00127294,0.00164048,-0.00055133,-0.000007
 21,0.00001375,0.00000143,0.00000316,0.00001614,-0.00000849,0.00000348,
 0.00001249,0.00000476,-0.00003633,-0.00001312,0.00001650,-0.00001625,0
 .00000754,-0.00005574,-0.00000853,-0.00000991,0.00000551,-0.00000596,0
 .00000155,-0.00000465,0.00001227,0.00001622,0.00002635,-0.00003179,0.0
 0011261,0.00000483,0.00005661,0.00004148,-0.00023321,-0.00201061,-0.00
 014945,-0.00046817,0.00015908,-0.00008483,0.00017174,0.01961476,0.0006
 3044,0.00387973,0.00823363,-0.00070794,0.00287705,0.01418934,0.0511991
 4,0.00000873,-0.00016284,0.00001226,-0.00033942,0.00022245,0.00000693,
 0.00021745,-0.00035668,0.00010398,-0.00008713,0.00023092,0.00008458,0.
 00012719,0.00011753,0.00009771,0.00005270,0.00006782,0.00000576,-0.000
 33916,0.00017372,-0.00015181,-0.00013427,0.00039650,0.00009509,0.00065
 104,-0.00131009,0.00007036,0.00070626,0.00092318,-0.00001835,-0.000245
 83,0.00008622,0.00005283,-0.00146632,0.00043555,0.00015383,-0.00000887
 ,-0.00008518,0.00010920,-0.00790748,0.00111742,-0.00352286,0.00022207,
 -0.00163936,-0.00045695,-0.06665179,-0.00294869,-0.06293255,0.00072369
 ,0.00064961,0.00014908,-0.00001172,0.00001536,-0.00000249,-0.00000023,
 0.00004558,-0.00001143,0.00000688,0.00002106,0.00000384,-0.00000031,-0
 .00001523,-0.00000890,-0.00001026,-0.00003151,-0.00002989,-0.00001582,
 -0.00000771,0.00000679,-0.00002686,0.00001326,-0.00000989,0.00003970,-
 0.00000479,0.00002152,0.00004818,0.00010317,0.00000618,0.00035991,-0.0
 0006773,0.00013888,-0.00061896,-0.00017624,0.00051372,-0.00028795,0.00
 002349,0.00024110,-0.02265935,-0.00180259,-0.00540816,0.02452623,0.001
 25287,0.00699551,0.07282675,0.00276564,0.06343714,0.00002491,-0.000116
 53,0.00006679,0.00009684,0.00020217,0.00003617,-0.00011496,-0.00033605
 ,-0.00008246,0.00000368,0.00015555,0.00009878,0.00000322,-0.00001150,-
 0.00002243,-0.00001761,-0.00002639,-0.00000751,0.00001979,0.00009393,-
 0.00000169,-0.00028583,0.00065453,0.00044581,-0.00079064,-0.00148543,-
 0.00005784,0.00028907,0.00110394,-0.00033325,0.00075415,-0.00005680,0.
 00019637,0.00043017,-0.00093687,-0.00033324,-0.00010578,0.00007491,0.0
 0012993,0.00042047,0.00795940,0.00359793,0.00080308,0.00088812,0.00068
 315,-0.00018331,0.00100675,-0.00132410,-0.06677455,-0.06957243,-0.0172
 6495,0.00000455,0.00001982,-0.00002576,-0.00006237,0.00006670,-0.00002
 972,-0.00001909,0.00002643,0.00001233,0.00000496,0.00000669,0.00000506
 ,0.00002578,0.00001725,0.00001734,0.00000036,0.00000649,0.00000255,0.0
 0000681,0.00000024,-0.00000005,-0.00001778,0.00003550,-0.00004030,0.00
 024075,-0.00010439,-0.00008531,0.00007854,-0.00018598,0.00012715,0.000
 06583,-0.00021700,-0.00024222,-0.00003453,0.00006653,0.00004918,0.0006
 4538,0.00043291,-0.00005192,0.00000203,-0.00026048,-0.00015658,0.00029
 275,0.00026200,0.00004876,0.06556430,0.00000151,-0.00005416,0.00001184
 ,0.00005985,0.00019737,0.00002456,-0.00005583,-0.00022811,-0.00002755,
 0.00000884,0.00012987,0.00004236,0.00000400,-0.00001408,-0.00001386,-0
 .00000549,-0.00001674,0.00000076,-0.00001107,0.00008384,-0.00000807,-0
 .00014247,0.00067312,0.00044100,-0.00062369,-0.00128176,0.00000684,0.0
 0037400,0.00082965,-0.00051549,-0.00058581,-0.00000921,-0.00057436,0.0
 0041069,-0.00056706,-0.00135914,0.00001149,0.00006673,0.00001053,-0.00
 598218,-0.01709046,-0.00634317,-0.00105684,0.00061000,-0.00080021,0.00
 177833,-0.00171113,0.00478131,-0.06948718,-0.28290192,-0.05435988,0.00
 000145,0.00000860,-0.00000664,-0.00002887,0.00002798,-0.00000807,-0.00
 001832,0.00001867,0.00001754,0.00001011,0.00000423,-0.00000089,0.00001
 758,0.00000453,0.00001712,-0.00000153,0.00000409,0.00000234,0.00000169
 ,0.00000115,-0.00000119,0.00038877,0.00027008,-0.00019987,0.00030000,0
 .00061933,0.00009951,0.00001431,0.00033598,0.00011877,0.00080381,0.000
 30445,0.00037672,0.00000934,-0.00008646,0.00002341,-0.00025633,-0.0013
 8303,-0.00036605,0.00004529,0.00031207,-0.00008887,0.00011664,0.000326
 28,-0.00007439,0.07503521,0.30604501,-0.00000455,-0.00008883,0.0000223
 7,-0.00026538,-0.00004639,-0.00006738,0.00016007,0.00010643,0.00004960
 ,-0.00005985,-0.00006703,-0.00000275,0.00002298,0.00001680,0.00000262,
 0.00001840,0.00001688,0.00000443,-0.00008971,-0.00001373,-0.00003232,0
 .00000703,-0.00036310,-0.00011922,0.00075154,0.00054211,0.00020724,-0.
 00072282,-0.00046826,-0.00020079,0.00097890,0.00036662,-0.00190995,0.0
 0032619,0.00010425,0.00135405,-0.00020068,-0.00011117,0.00022310,0.007
 50570,0.02122784,0.00672409,0.00094752,-0.00013966,0.00085971,-0.00120
 428,0.00245360,-0.00350742,-0.01735413,-0.05520380,-0.05853156,-0.0000
 0912,0.00000571,-0.00000588,0.00000762,0.00001491,0.00000219,0.0000229
 0,-0.00000456,-0.00001239,-0.00000989,-0.00000392,0.00000410,-0.000005
 51,0.00000020,-0.00000902,-0.00000554,-0.00000280,0.00000267,-0.000005
 33,-0.00000073,-0.00000439,-0.00016130,-0.00005843,0.00015176,-0.00054
 835,-0.00047316,-0.00105539,0.00024181,-0.00014611,-0.00002833,-0.0002
 7932,-0.00034031,0.00011180,-0.00008446,-0.00014932,-0.00008235,0.0000
 9885,0.00147072,0.00049148,-0.00023824,0.00023477,0.00013289,0.0000514
 1,-0.00011143,-0.00016054,0.01919753,0.05849252,0.06243866,-0.00000167
 ,0.00006288,-0.00003441,0.00016689,-0.00008779,-0.00016651,-0.00002256
 ,0.00011311,-0.00001296,0.00004467,-0.00003179,-0.00004726,-0.00000292
 ,-0.00001414,-0.00002208,-0.00000368,0.00000067,-0.00000319,0.00001202
 ,-0.00002878,0.00002624,0.00033785,-0.00032895,0.00135709,0.00011364,0
 .00000934,0.00083246,0.00008518,-0.00037091,0.00005696,-0.00041733,0.0
 0010791,-0.00034216,-0.00114635,0.00030874,0.00074123,-0.00000467,-0.0
 0005361,-0.00010055,-0.00769894,-0.00059523,-0.00122720,0.00069474,0.0
 0199272,-0.00175309,0.00046599,-0.00089593,0.00039317,-0.31499166,-0.0
 0807992,-0.03897044,-0.00000111,-0.00000795,0.00001102,0.00002206,-0.0
 0005214,0.00000658,0.00000133,-0.00001200,0.00000770,0.00000197,0.0000
 0054,0.00000256,0.00000395,0.00000330,0.00000666,-0.00000129,0.0000007
 3,0.00000116,0.00000441,-0.00000033,-0.00000037,0.00006048,-0.00000752
 ,-0.00003041,0.00001475,0.00013750,-0.00000173,-0.00059716,-0.00007509
 ,-0.00009479,0.00013085,-0.00009288,0.00011917,0.00030520,-0.00015794,
 0.00008173,0.00029857,-0.00001343,0.00002305,-0.00006061,-0.00002759,-
 0.00006039,0.00033404,0.00053572,0.00003282,-0.00483000,0.00139051,-0.
 00003995,0.33799148,-0.00000028,0.00010966,-0.00010490,0.00017775,-0.0
 0022990,0.00011470,0.00005691,0.00042996,-0.00001851,0.00009096,-0.000
 16896,-0.00016147,-0.00002790,-0.00000513,0.00001987,0.00000864,0.0000
 2132,-0.00000345,0.00007161,-0.00012998,0.00006421,0.00000610,-0.00027
 902,-0.00043052,-0.00028777,0.00120373,-0.00016087,-0.00023867,-0.0007
 1824,0.00008982,-0.00052474,-0.00028012,-0.00017042,-0.00002970,0.0005
 9784,-0.00055033,0.00008885,-0.00004920,-0.00013093,0.02032181,-0.0000
 0210,0.00076508,0.00051839,-0.00285102,0.00322646,0.00158511,0.0011485
 4,-0.00002848,-0.00972487,-0.04718102,-0.00196620,0.00000389,-0.000012
 47,0.00002649,0.00002531,-0.00009015,0.00000987,-0.00000630,-0.0000206
 1,0.00001329,-0.00000270,-0.00000416,-0.00000436,-0.00002657,-0.000010
 19,-0.00001225,0.00000374,-0.00000738,-0.00000283,0.00000249,-0.000001
 12,0.00000291,0.00011444,0.00007900,-0.00006392,0.00013161,0.00010604,
 0.00003985,0.00132405,0.00028643,0.00057598,0.00013869,0.00018557,0.00
 016499,-0.00031094,-0.00004802,-0.00001456,-0.00024890,0.00020198,-0.0
 0012946,-0.00001328,-0.00002051,0.00003767,-0.00044583,-0.00056792,0.0
 0006214,-0.02858786,0.00096954,-0.00290136,0.00725983,0.04806314,-0.00
 000519,-0.00022903,-0.00003639,-0.00068852,0.00000065,-0.00004449,0.00
 071352,0.00035338,0.00013742,-0.00020330,-0.00023158,0.00003236,0.0000
 9976,0.00009034,0.00006470,0.00007112,0.00007099,0.00002316,-0.0003035
 8,-0.00002614,-0.00011945,0.00009909,0.00040448,0.00056827,0.00135791,
 -0.00205421,-0.00142108,0.00071821,0.00051864,0.00009810,-0.00076687,0
 .00004436,-0.00043938,-0.00121357,-0.00045448,0.00076377,0.00004913,0.
 00004039,0.00026138,-0.02348135,-0.00196524,-0.00290554,-0.00019442,0.
 00340414,-0.00365193,0.00004379,-0.00117501,0.00037208,-0.03745748,-0.
 00154484,-0.04990039,-0.00001858,0.00003003,0.00001137,0.00002354,0.00
 003070,-0.00000279,0.00001475,0.00001938,-0.00000134,-0.00003376,-0.00
 002117,-0.00000293,-0.00003872,-0.00002529,-0.00004716,-0.00001767,-0.
 00001407,0.00000264,-0.00002853,0.00000383,-0.00001067,0.00010333,-0.0
 0002620,-0.00000503,0.00008113,0.00019600,0.00004016,-0.00161428,0.000
 33090,-0.00009745,0.00031238,-0.00003441,0.00002333,-0.00012234,0.0001
 3736,0.00019474,0.00012579,-0.00016915,-0.00009519,0.00017006,-0.00000
 716,-0.00001860,0.00020330,0.00035210,0.00045660,-0.00701169,0.0005291
 1,-0.00214624,0.04235587,-0.00022566,0.05323174,0.00000314,-0.00009425
 ,-0.00003734,-0.00020017,-0.00003585,-0.00002970,0.00034035,0.00018304
 ,0.00003265,-0.00009545,-0.00011921,0.00000820,0.00005391,0.00004887,0
 .00004144,0.00004139,0.00004168,0.00001103,-0.00014181,-0.00003012,-0.
 00004898,0.00029606,0.00005252,0.00106303,0.00041078,-0.00065473,-0.00
 018876,0.00013553,-0.00000973,-0.00009523,-0.00031604,0.00019823,-0.00
 021275,-0.00117843,0.00117949,-0.00166142,0.00037142,-0.00006806,-0.00
 047274,0.00257900,-0.00232208,-0.00877768,0.00094758,-0.00047629,-0.00
 104829,0.00008491,-0.00011233,0.00006314,-0.09793860,0.03198716,0.1056
 7335,-0.00000830,0.00001116,0.00000895,0.00001472,-0.00000849,-0.00000
 356,0.00000687,0.00000468,0.00000497,-0.00001755,-0.00001109,-0.000000
 06,-0.00001654,-0.00000857,-0.00002513,-0.00000896,-0.00000827,0.00000
 162,-0.00001305,0.00000285,-0.00000540,0.00007483,0.00003888,-0.000000
 45,0.00006571,0.00007531,0.00019084,0.00009377,-0.00011444,0.00018923,
 -0.00004133,-0.00004316,-0.00004615,-0.00003826,0.00027647,0.00016530,
 -0.00008071,-0.00016845,-0.00016975,0.00021463,-0.00020137,0.00014820,
 -0.00019222,0.00005547,0.00021337,0.00345905,-0.00252781,-0.00905005,-
 0.01131013,0.00854613,0.02665713,0.10240389,-0.00000574,-0.00002370,0.
 00001839,-0.00004627,0.00011774,0.00002356,-0.00003974,-0.00000435,-0.
 00000235,0.00002780,-0.00000454,-0.00001113,-0.00001312,0.00000020,0.0
 0000162,-0.00001588,-0.00000868,-0.00000447,0.00003774,0.00000624,0.00
 001351,0.00028489,0.00031910,-0.00006416,-0.00051212,-0.00101333,-0.00
 010254,0.00032071,0.00065560,-0.00038392,0.00001778,-0.00021281,-0.000
 05520,0.00151283,-0.00351303,0.00284308,-0.00055509,0.00039202,0.00116
 446,-0.00985063,0.00443908,0.01843267,-0.00080735,0.00046235,-0.000214
 53,-0.00062363,0.00120601,0.00097124,0.03237717,-0.06303140,-0.0637199
 2,0.00000378,0.00001300,-0.00000825,-0.00002705,0.00002479,-0.00001332
 ,-0.00001535,0.00000966,0.00001224,0.00000134,0.00000185,-0.00000022,-
 0.00000229,0.00000104,-0.00000056,0.00000341,0.00000023,-0.00000155,0.
 00000297,0.00000031,0.00000230,0.00017069,0.00013202,-0.00010604,0.000
 26120,0.00027742,0.00023799,-0.00021757,-0.00005018,-0.00011875,0.0001
 1474,-0.00006626,-0.00011781,0.00020267,0.00015971,-0.00025339,0.00003
 808,0.00023937,-0.00024049,0.00036908,-0.00031897,-0.00018482,-0.00012
 044,-0.00003800,-0.00004042,0.01378261,-0.00649845,-0.02435923,-0.0009
 8959,-0.00072554,0.00164685,-0.03568764,0.06705152,0.00001552,0.000106
 94,-0.00000060,0.00057799,-0.00006409,0.00006547,-0.00031699,-0.000285
 37,-0.00013547,0.00007856,0.00016461,0.00005051,-0.00003759,-0.0000401
 4,-0.00002553,-0.00003212,-0.00003734,-0.00001024,0.00015258,0.0000341
 3,0.00005194,-0.00012648,-0.00029906,0.00061195,-0.00065341,0.00044150
 ,0.00018737,0.00013031,-0.00024428,-0.00017975,-0.00005014,0.00055846,
 0.00033849,-0.00273523,0.00405484,-0.00208472,0.00069291,-0.00021652,-
 0.00142347,0.01072744,-0.00677681,-0.02057118,0.00123810,-0.00090442,0
 .00071386,0.00013271,-0.00152884,0.00081890,0.10489939,-0.06240941,-0.
 24691127,0.00001112,-0.00001564,0.00000152,-0.00001006,-0.00002864,0.0
 0000438,-0.00001771,0.00000284,0.00001137,0.00001371,0.00000886,-0.000
 00221,0.00002040,0.00001009,0.00002275,0.00000777,0.00000778,-0.000002
 13,0.00001220,-0.00000160,0.00000608,-0.00000362,-0.00006495,-0.000024
 03,0.00004118,-0.00001930,0.00025307,-0.00004830,0.00011270,0.00046989
 ,-0.00000185,0.00002709,-0.00005825,-0.00098004,0.00033176,0.00018916,
 -0.00027153,-0.00006238,0.00030295,-0.00010222,0.00080462,0.00044679,0
 .00002624,0.00007880,-0.00004909,0.00235616,-0.00024854,-0.00490684,-0
 .00314798,0.00186716,0.00466423,-0.11259900,0.06463516,0.26717408\\-0.
 00105943,0.00509517,0.00021906,0.00132923,-0.00953488,-0.00170191,-0.0
 0596710,0.03618161,-0.00010180,-0.00252126,-0.00407060,-0.00025104,-0.
 01341377,-0.01044202,-0.00763983,-0.00002375,-0.00570225,0.00184361,0.
 02153635,-0.00937109,0.00639450,0.00212874,-0.00085623,0.00390238,-0.0
 0727863,0.03289476,0.00352277,-0.01630865,-0.01748951,-0.00535345,0.00
 296101,-0.00578836,0.00049430,0.02043327,-0.00482391,0.00096312,-0.004
 97701,-0.00067394,-0.00034910,-0.00123350,0.00010816,-0.00304617,-0.00
 023754,0.00011861,0.00211540,0.00410292,-0.00052656,0.00280218,0.00058
 482,0.00055484,0.00082027,0.00032379,-0.00024502,0.00019221,0.00004039
 ,-0.00138710,0.00022136,-0.00018526,-0.00090402,-0.00006096,0.00318182
 ,0.00015145,-0.00203978,0.00253413,-0.00115259,0.00408944,0.00076390,0
 .00055464,-0.00025577,0.00121326,-0.00084709,0.00021086,-0.00099372,0.
 00006310,-0.00050388,-0.00079783,-0.00129132,-0.00047767,-0.00042438,0
 .00008861,-0.00040404,0.00034935,0.00025134,-0.00012529,-0.00081473,0.
 00013610,0.00018847,-0.00210020,0.00042066,-0.00038620,-0.00168354,0.0
 0105255,-0.00065544,-0.00039075,-0.00312775,-0.00327364,0.00011155,0.0
 0053652,-0.00040316,-0.00042578,-0.00003327,-0.00130887,-0.00075768,0.
 00005940,0.00035808\\\@

 Writing a WFNX file to "17_lig_b.wfx"


      THE ONE-EYED VIEW OF OUR UNIVERSE SAYS YOU MUST NOT LOOK
      FAR AFIELD FOR PROBLEMS.  SUCH PROBLEMS MAY NEVER ARRIVE. 
      INSTEAD, TEND TO THE WOLF WITHIN YOUR FENCES.
      THE PACKS RANGING OUTSIDE MAY NOT EVEN EXIST.

                              -- THE AZHAR BOOK SHAMRA I:4
                                 CHILDREN OF DUNE, BY FRANK HERBERT
 Job cpu time:       0 days  1 hours 46 minutes  8.9 seconds.
 Elapsed time:       0 days  0 hours 14 minutes  5.8 seconds.
 File lengths (MBytes):  RWF=    403 Int=      0 D2E=      0 Chk=      8 Scr=      1
 Normal termination of Gaussian 16 at Thu Nov  3 08:18:32 2022.
