 Entering Gaussian System, Link 0=g16
 Initial command:
 /software/gaussian/G16-A.03/avx/g16/l1.exe "/scratch/lcmd/1361348.slurm/Gau-100557.inp" -scrdir="/scratch/lcmd/1361348.slurm/"
 Entering Link 1 = /software/gaussian/G16-A.03/avx/g16/l1.exe PID=    100558.
  
 Copyright (c) 1988,1990,1992,1993,1995,1998,2003,2009,2016,
            Gaussian, Inc.  All Rights Reserved.
  
 This is part of the Gaussian(R) 16 program.  It is based on
 the Gaussian(R) 09 system (copyright 2009, Gaussian, Inc.),
 the Gaussian(R) 03 system (copyright 2003, Gaussian, Inc.),
 the Gaussian(R) 98 system (copyright 1998, Gaussian, Inc.),
 the Gaussian(R) 94 system (copyright 1995, Gaussian, Inc.),
 the Gaussian 92(TM) system (copyright 1992, Gaussian, Inc.),
 the Gaussian 90(TM) system (copyright 1990, Gaussian, Inc.),
 the Gaussian 88(TM) system (copyright 1988, Gaussian, Inc.),
 the Gaussian 86(TM) system (copyright 1986, Carnegie Mellon
 University), and the Gaussian 82(TM) system (copyright 1983,
 Carnegie Mellon University). Gaussian is a federally registered
 trademark of Gaussian, Inc.
  
 This software contains proprietary and confidential information,
 including trade secrets, belonging to Gaussian, Inc.
  
 This software is provided under written license and may be
 used, copied, transmitted, or stored only in accord with that
 written license.
  
 The following legend is applicable only to US Government
 contracts under FAR:
  
                    RESTRICTED RIGHTS LEGEND
  
 Use, reproduction and disclosure by the US Government is
 subject to restrictions as set forth in subparagraphs (a)
 and (c) of the Commercial Computer Software - Restricted
 Rights clause in FAR 52.227-19.
  
 Gaussian, Inc.
 340 Quinnipiac St., Bldg. 40, Wallingford CT 06492
  
  
 ---------------------------------------------------------------
 Warning -- This program may not be used in any manner that
 competes with the business of Gaussian, Inc. or will provide
 assistance to any competitor of Gaussian, Inc.  The licensee
 of this program is prohibited from giving any competitor of
 Gaussian, Inc. access to this program.  By using this program,
 the user acknowledges that Gaussian, Inc. is engaged in the
 business of creating and licensing software in the field of
 computational chemistry and represents and warrants to the
 licensee that it is not a competitor of Gaussian, Inc. and that
 it will not use this program in any manner prohibited above.
 ---------------------------------------------------------------
  

 Cite this work as:
 Gaussian 16, Revision A.03,
 M. J. Frisch, G. W. Trucks, H. B. Schlegel, G. E. Scuseria, 
 M. A. Robb, J. R. Cheeseman, G. Scalmani, V. Barone, 
 G. A. Petersson, H. Nakatsuji, X. Li, M. Caricato, A. V. Marenich, 
 J. Bloino, B. G. Janesko, R. Gomperts, B. Mennucci, H. P. Hratchian, 
 J. V. Ortiz, A. F. Izmaylov, J. L. Sonnenberg, D. Williams-Young, 
 F. Ding, F. Lipparini, F. Egidi, J. Goings, B. Peng, A. Petrone, 
 T. Henderson, D. Ranasinghe, V. G. Zakrzewski, J. Gao, N. Rega, 
 G. Zheng, W. Liang, M. Hada, M. Ehara, K. Toyota, R. Fukuda, 
 J. Hasegawa, M. Ishida, T. Nakajima, Y. Honda, O. Kitao, H. Nakai, 
 T. Vreven, K. Throssell, J. A. Montgomery, Jr., J. E. Peralta, 
 F. Ogliaro, M. J. Bearpark, J. J. Heyd, E. N. Brothers, K. N. Kudin, 
 V. N. Staroverov, T. A. Keith, R. Kobayashi, J. Normand, 
 K. Raghavachari, A. P. Rendell, J. C. Burant, S. S. Iyengar, 
 J. Tomasi, M. Cossi, J. M. Millam, M. Klene, C. Adamo, R. Cammi, 
 J. W. Ochterski, R. L. Martin, K. Morokuma, O. Farkas, 
 J. B. Foresman, and D. J. Fox, Gaussian, Inc., Wallingford CT, 2016.
 
 ******************************************
 Gaussian 16:  ES64L-G16RevA.03 25-Dec-2016
                 3-Nov-2022 
 ******************************************
 %nprocs=8
 Will use up to    8 processors via shared memory.
 %mem=32000MB
 %chk=18_lig_b.chk
 ----------------------------------------------------------------------
 #p pop=(regular,nbo,savenbos) freq=noraman def2svp empiricaldispersion
 =gd3bj output=wfx pbe1pbe
 ----------------------------------------------------------------------
 1/10=4,30=1,38=1/1,3;
 2/12=2,17=6,18=5,40=1/2;
 3/5=43,7=101,11=2,25=1,30=1,71=2,74=-13,124=41,140=1/1,2,3;
 4//1;
 5/5=2,38=5,98=1/2;
 8/6=4,10=90,11=11/1;
 11/6=1,8=1,9=11,15=111,16=1/1,2,10;
 10/6=1/2;
 6/28=1,40=1,73=1/1,7;
 7/8=1,10=1,25=1/1,2,3,16;
 1/10=4,30=1/3;
 99/6=200/99;
 Leave Link    1 at Thu Nov  3 08:04:22 2022, MaxMem=  4194304000 cpu:               0.4 elap:               0.1
 (Enter /software/gaussian/G16-A.03/avx/g16/l101.exe)
 --------
 18_lig_b
 --------
 Symbolic Z-matrix:
 Charge =  0 Multiplicity = 1
 C                    -0.62238   3.76902   0.4132 
 N                    -0.52723   2.3162    0.27865 
 C                    -1.64743   1.55542   0.04304 
 N                    -1.74157   0.27687   0.00834 
 C                    -3.13253  -0.04776  -0.39686 
 C                    -3.83122   1.31074  -0.19095 
 O                    -2.75577   2.2622   -0.17174 
 C                    -3.7224   -1.1278    0.49398 
 C                    -3.12341  -0.46015  -1.86538 
 N                     1.00342   0.49407   0.29196 
 C                     0.7138    1.73675   0.36647 
 O                     1.71028   2.59465   0.55262 
 C                     2.89073   1.79257   0.76378 
 C                     2.46032   0.36567   0.37696 
 H                     2.66874  -0.35179   1.18592 
 C                     3.07764  -0.1837   -0.93019 
 C                     4.58773  -0.30945  -0.71546 
 C                     2.50009  -1.57171  -1.21621 
 C                     2.78154   0.74368  -2.10908 
 H                    -1.67753   4.04267   0.48359 
 H                    -0.17147   4.26835  -0.45565 
 H                    -0.09235   4.08876   1.31828 
 H                    -4.3555    1.37477   0.77596 
 H                    -4.51647   1.58469  -1.00294 
 H                    -3.65495  -0.83874   1.55362 
 H                    -3.17377  -2.06909   0.34591 
 H                    -4.7816   -1.28824   0.23989 
 H                    -2.75171   0.36082  -2.49902 
 H                    -4.14078  -0.72235  -2.19415 
 H                    -2.46794  -1.33509  -1.98548 
 H                     3.16817   1.88437   1.82385 
 H                     3.6921    2.20988   0.14187 
 H                     4.81     -0.98292   0.12703 
 H                     5.06959   0.66111  -0.51409 
 H                     5.06551  -0.72865  -1.6138 
 H                     2.57163  -2.23051  -0.33811 
 H                     3.0406   -2.03907  -2.05395 
 H                     1.43682  -1.53492  -1.499 
 H                     3.20074   1.75398  -1.97243 
 H                     1.69647   0.83653  -2.2723 
 H                     3.21697   0.33391  -3.03315 
 
 ITRead=  0  0  0  0  0  0  0  0  0  0  0  0  0  0  0  0  0  0  0  0
 ITRead=  0  0  0  0  0  0  0  0  0  0  0  0  0  0  0  0  0  0  0  0
 ITRead=  0
 MicOpt= -1 -1 -1 -1 -1 -1 -1 -1 -1 -1 -1 -1 -1 -1 -1 -1 -1 -1 -1 -1
 MicOpt= -1 -1 -1 -1 -1 -1 -1 -1 -1 -1 -1 -1 -1 -1 -1 -1 -1 -1 -1 -1
 MicOpt= -1
 NAtoms=     41 NQM=       41 NQMF=       0 NMMI=      0 NMMIF=      0
                NMic=       0 NMicF=      0.
                    Isotopes and Nuclear Properties:
 (Nuclear quadrupole moments (NQMom) in fm**2, nuclear magnetic moments (NMagM)
  in nuclear magnetons)

  Atom         1           2           3           4           5           6           7           8           9          10
 IAtWgt=          12          14          12          14          12          12          16          12          12          14
 AtmWgt=  12.0000000  14.0030740  12.0000000  14.0030740  12.0000000  12.0000000  15.9949146  12.0000000  12.0000000  14.0030740
 NucSpn=           0           2           0           2           0           0           0           0           0           2
 AtZEff=  -0.0000000  -0.0000000  -0.0000000  -0.0000000  -0.0000000  -0.0000000  -0.0000000  -0.0000000  -0.0000000  -0.0000000
 NQMom=    0.0000000   2.0440000   0.0000000   2.0440000   0.0000000   0.0000000   0.0000000   0.0000000   0.0000000   2.0440000
 NMagM=    0.0000000   0.4037610   0.0000000   0.4037610   0.0000000   0.0000000   0.0000000   0.0000000   0.0000000   0.4037610
 AtZNuc=   6.0000000   7.0000000   6.0000000   7.0000000   6.0000000   6.0000000   8.0000000   6.0000000   6.0000000   7.0000000

  Atom        11          12          13          14          15          16          17          18          19          20
 IAtWgt=          12          16          12          12           1          12          12          12          12           1
 AtmWgt=  12.0000000  15.9949146  12.0000000  12.0000000   1.0078250  12.0000000  12.0000000  12.0000000  12.0000000   1.0078250
 NucSpn=           0           0           0           0           1           0           0           0           0           1
 AtZEff=  -0.0000000  -0.0000000  -0.0000000  -0.0000000  -0.0000000  -0.0000000  -0.0000000  -0.0000000  -0.0000000  -0.0000000
 NQMom=    0.0000000   0.0000000   0.0000000   0.0000000   0.0000000   0.0000000   0.0000000   0.0000000   0.0000000   0.0000000
 NMagM=    0.0000000   0.0000000   0.0000000   0.0000000   2.7928460   0.0000000   0.0000000   0.0000000   0.0000000   2.7928460
 AtZNuc=   6.0000000   8.0000000   6.0000000   6.0000000   1.0000000   6.0000000   6.0000000   6.0000000   6.0000000   1.0000000

  Atom        21          22          23          24          25          26          27          28          29          30
 IAtWgt=           1           1           1           1           1           1           1           1           1           1
 AtmWgt=   1.0078250   1.0078250   1.0078250   1.0078250   1.0078250   1.0078250   1.0078250   1.0078250   1.0078250   1.0078250
 NucSpn=           1           1           1           1           1           1           1           1           1           1
 AtZEff=  -0.0000000  -0.0000000  -0.0000000  -0.0000000  -0.0000000  -0.0000000  -0.0000000  -0.0000000  -0.0000000  -0.0000000
 NQMom=    0.0000000   0.0000000   0.0000000   0.0000000   0.0000000   0.0000000   0.0000000   0.0000000   0.0000000   0.0000000
 NMagM=    2.7928460   2.7928460   2.7928460   2.7928460   2.7928460   2.7928460   2.7928460   2.7928460   2.7928460   2.7928460
 AtZNuc=   1.0000000   1.0000000   1.0000000   1.0000000   1.0000000   1.0000000   1.0000000   1.0000000   1.0000000   1.0000000

  Atom        31          32          33          34          35          36          37          38          39          40
 IAtWgt=           1           1           1           1           1           1           1           1           1           1
 AtmWgt=   1.0078250   1.0078250   1.0078250   1.0078250   1.0078250   1.0078250   1.0078250   1.0078250   1.0078250   1.0078250
 NucSpn=           1           1           1           1           1           1           1           1           1           1
 AtZEff=  -0.0000000  -0.0000000  -0.0000000  -0.0000000  -0.0000000  -0.0000000  -0.0000000  -0.0000000  -0.0000000  -0.0000000
 NQMom=    0.0000000   0.0000000   0.0000000   0.0000000   0.0000000   0.0000000   0.0000000   0.0000000   0.0000000   0.0000000
 NMagM=    2.7928460   2.7928460   2.7928460   2.7928460   2.7928460   2.7928460   2.7928460   2.7928460   2.7928460   2.7928460
 AtZNuc=   1.0000000   1.0000000   1.0000000   1.0000000   1.0000000   1.0000000   1.0000000   1.0000000   1.0000000   1.0000000

  Atom        41
 IAtWgt=           1
 AtmWgt=   1.0078250
 NucSpn=           1
 AtZEff=  -0.0000000
 NQMom=    0.0000000
 NMagM=    2.7928460
 AtZNuc=   1.0000000
 Leave Link  101 at Thu Nov  3 08:04:22 2022, MaxMem=  4194304000 cpu:               1.0 elap:               0.1
 (Enter /software/gaussian/G16-A.03/avx/g16/l103.exe)

 GradGradGradGradGradGradGradGradGradGradGradGradGradGradGradGradGradGrad
 Berny optimization.
 Initialization pass.
 Trust Radius=3.00D-01 FncErr=1.00D-07 GrdErr=1.00D-07 EigMax=2.50D+02 EigMin=1.00D-04
 Number of steps in this run=      2 maximum allowed number of steps=      2.
 GradGradGradGradGradGradGradGradGradGradGradGradGradGradGradGradGradGrad

 Leave Link  103 at Thu Nov  3 08:04:22 2022, MaxMem=  4194304000 cpu:               0.2 elap:               0.0
 (Enter /software/gaussian/G16-A.03/avx/g16/l202.exe)
                          Input orientation:                          
 ---------------------------------------------------------------------
 Center     Atomic      Atomic             Coordinates (Angstroms)
 Number     Number       Type             X           Y           Z
 ---------------------------------------------------------------------
      1          6           0       -0.622380    3.769020    0.413200
      2          7           0       -0.527230    2.316200    0.278650
      3          6           0       -1.647430    1.555420    0.043040
      4          7           0       -1.741570    0.276870    0.008340
      5          6           0       -3.132530   -0.047760   -0.396860
      6          6           0       -3.831220    1.310740   -0.190950
      7          8           0       -2.755770    2.262200   -0.171740
      8          6           0       -3.722400   -1.127800    0.493980
      9          6           0       -3.123410   -0.460150   -1.865380
     10          7           0        1.003420    0.494070    0.291960
     11          6           0        0.713800    1.736750    0.366470
     12          8           0        1.710280    2.594650    0.552620
     13          6           0        2.890730    1.792570    0.763780
     14          6           0        2.460320    0.365670    0.376960
     15          1           0        2.668740   -0.351790    1.185920
     16          6           0        3.077640   -0.183700   -0.930190
     17          6           0        4.587730   -0.309450   -0.715460
     18          6           0        2.500090   -1.571710   -1.216210
     19          6           0        2.781540    0.743680   -2.109080
     20          1           0       -1.677530    4.042670    0.483590
     21          1           0       -0.171470    4.268350   -0.455650
     22          1           0       -0.092350    4.088760    1.318280
     23          1           0       -4.355500    1.374770    0.775960
     24          1           0       -4.516470    1.584690   -1.002940
     25          1           0       -3.654950   -0.838740    1.553620
     26          1           0       -3.173770   -2.069090    0.345910
     27          1           0       -4.781600   -1.288240    0.239890
     28          1           0       -2.751710    0.360820   -2.499020
     29          1           0       -4.140780   -0.722350   -2.194150
     30          1           0       -2.467940   -1.335090   -1.985480
     31          1           0        3.168170    1.884370    1.823850
     32          1           0        3.692100    2.209880    0.141870
     33          1           0        4.810000   -0.982920    0.127030
     34          1           0        5.069590    0.661110   -0.514090
     35          1           0        5.065510   -0.728650   -1.613800
     36          1           0        2.571630   -2.230510   -0.338110
     37          1           0        3.040600   -2.039070   -2.053950
     38          1           0        1.436820   -1.534920   -1.499000
     39          1           0        3.200740    1.753980   -1.972430
     40          1           0        1.696470    0.836530   -2.272300
     41          1           0        3.216970    0.333910   -3.033150
 ---------------------------------------------------------------------
                    Distance matrix (angstroms):
                    1          2          3          4          5
     1  C    0.000000
     2  N    1.462137   0.000000
     3  C    2.467341   1.374462   0.000000
     4  N    3.689391   2.388840   1.282481   0.000000
     5  C    4.639489   3.582207   2.229175   1.484702   0.000000
     6  C    4.087150   3.485373   2.209877   2.339923   1.541457
     7  O    2.676568   2.274238   1.331948   2.236642   2.351285
     8  C    5.796162   4.702830   3.421771   2.476415   1.519220
     9  C    5.415991   4.364073   3.143741   2.442029   1.525352
    10  N    3.658309   2.379753   2.866257   2.768138   4.227781
    11  C    2.432629   1.372454   2.390166   2.878949   4.308295
    12  O    2.615317   2.271353   3.551603   4.193282   5.597915
    13  C    4.046134   3.491703   4.601152   4.932164   6.404183
    14  C    4.592074   3.569270   4.289594   4.218963   5.661245
    15  H    5.330070   4.260931   4.855198   4.607900   6.020993
    16  C    5.578426   4.550372   5.128158   4.931303   6.234511
    17  C    6.712156   5.834819   6.552120   6.397476   7.731261
    18  C    6.397515   5.149283   5.344771   4.786277   5.892382
    19  C    5.205886   4.372875   4.990623   5.015965   6.207600
    20  H    1.092328   2.084680   2.526144   3.796210   4.429880
    21  H    1.098886   2.115810   3.128440   4.314211   5.234514
    22  H    1.096510   2.100457   3.234551   4.355040   5.412504
    23  H    4.449743   3.973570   2.811307   2.937219   2.212409
    24  H    4.684089   4.253424   3.053903   3.230039   2.224301
    25  H    5.632805   4.621886   3.470445   2.700648   2.168627
    26  H    6.371628   5.122447   3.944429   2.769238   2.153876
    27  H    6.550193   5.576124   4.236528   3.427093   2.159554
    28  H    4.962953   4.060452   3.018041   2.704493   2.175095
    29  H    6.272943   5.329659   4.050932   3.406701   2.168384
    30  H    5.933944   4.714293   3.625352   2.664835   2.150026
    31  H    4.462074   4.028660   5.144851   5.475918   6.954387
    32  H    4.595571   4.222885   5.380396   5.768806   7.208519
    33  H    7.223128   6.276401   6.938921   6.672648   8.014535
    34  H    6.551144   5.890005   6.799157   6.841964   8.233530
    35  H    7.529267   6.643133   7.281872   7.069565   8.315793
    36  H    6.838167   5.536777   5.681462   5.001068   6.107806
    37  H    7.296449   6.094162   6.268600   5.699629   6.694684
    38  H    6.002382   4.674255   4.630409   3.956870   4.930042
    39  H    4.936382   4.391038   5.254170   5.525553   6.770450
    40  H    4.603094   3.693455   4.130287   4.163491   5.255329
    41  H    6.198219   5.377409   5.883657   5.817305   6.885626
                    6          7          8          9         10
     6  C    0.000000
     7  O    1.436049   0.000000
     8  C    2.535241   3.587430   0.000000
     9  C    2.537866   3.227192   2.524109   0.000000
    10  N    4.926855   4.180049   5.000465   4.753460   0.000000
    11  C    4.598849   3.550167   5.282213   4.952949   1.278157
    12  O    5.736684   4.536609   6.585900   6.208308   2.231598
    13  C    6.806488   5.742709   7.234282   6.939532   2.338943
    14  C    6.387422   5.577230   6.361617   6.073558   1.465015
    15  H    6.849033   6.172641   6.475156   6.547608   2.070733
    16  C    7.107192   6.370741   7.011428   6.277263   2.501082
    17  C    8.589461   7.799744   8.437458   7.797866   3.808913
    18  C    7.031725   6.588919   6.468476   5.768946   2.963452
    19  C    6.908645   6.059785   7.251179   6.031337   2.998168
    20  H    3.543561   2.182231   5.560158   5.280494   4.451604
    21  H    4.712886   3.283877   6.529114   5.749783   4.022994
    22  H    4.896358   3.556724   6.408528   6.325788   3.895618
    23  H    1.101764   2.060292   2.596764   3.444075   5.452331
    24  H    1.097244   2.061547   3.198268   2.620265   5.773682
    25  H    2.773961   3.660768   1.100428   3.480722   5.006853
    26  H    3.484783   4.382095   1.099521   2.735147   4.901185
    27  H    2.800632   4.108412   1.101003   2.804904   6.053577
    28  H    2.719352   3.005245   3.480844   1.101659   4.680633
    29  H    2.870904   3.862115   2.750541   1.100854   5.841508
    30  H    3.475527   4.038935   2.786460   1.099811   4.536838
    31  H    7.306157   6.262444   7.636863   7.661016   2.994289
    32  H    7.584165   6.455704   8.138728   7.590078   3.193044
    33  H    8.946098   8.237775   8.541516   8.196461   4.086411
    34  H    8.930334   7.994808   9.028593   8.379049   4.148657
    35  H    9.237717   8.496890   9.045961   8.197182   4.650542
    36  H    7.318374   6.970890   6.443846   6.156315   3.206183
    37  H    7.868539   7.459326   7.284266   6.365812   4.008765
    38  H    6.128705   5.810125   5.545743   4.699475   2.740834
    39  H    7.267640   6.243459   7.894156   6.701396   3.397507
    40  H    5.925559   5.125166   6.393360   5.007815   2.678251
    41  H    7.662198   6.897796   7.920360   6.495740   3.997726
                   11         12         13         14         15
    11  C    0.000000
    12  O    1.328012   0.000000
    13  C    2.213593   1.442700   0.000000
    14  C    2.220428   2.358340   1.539781   0.000000
    15  H    2.975784   3.162471   2.196762   1.101183   0.000000
    16  C    3.310165   3.433311   2.609619   1.546458   2.161799
    17  C    4.512742   4.280367   3.080008   2.484963   2.701770
    18  C    4.079414   4.594683   3.923180   2.508628   2.699421
    19  C    3.374920   3.414430   3.060297   2.535048   3.474162
    20  H    3.324070   3.684940   5.100045   5.536560   6.220499
    21  H    2.805099   2.712722   4.122325   4.780216   5.666325
    22  H    2.662287   2.463346   3.805092   4.611248   5.230643
    23  H    5.098678   6.191258   7.258275   6.901658   7.244931
    24  H    5.408709   6.497092   7.617816   7.215659   7.756823
    25  H    5.208498   6.447935   7.098843   6.342843   6.353061
    26  H    5.440408   6.756267   7.201749   6.137751   6.147329
    27  H    6.274234   7.570941   8.284353   7.429644   7.568321
    28  H    4.702550   5.849090   6.673298   5.952860   6.593017
    29  H    6.014224   7.265132   8.032204   7.167211   7.611291
    30  H    5.009126   6.272346   6.786459   5.723762   6.116383
    31  H    2.858265   2.060574   1.099613   2.213818   2.378402
    32  H    3.023999   2.060188   1.096865   2.230170   2.949485
    33  H    4.922681   4.752725   3.434005   2.720690   2.470742
    34  H    4.572231   4.020126   2.767776   2.773003   3.111283
    35  H    5.379317   5.195697   4.091345   3.456541   3.704722
    36  H    4.437017   4.981716   4.183439   2.695156   2.421092
    37  H    5.052648   5.480449   4.758522   3.468259   3.671778
    38  H    3.834913   4.619229   4.278577   2.859899   3.182172
    39  H    3.414033   3.050258   2.753986   2.827589   3.833075
    40  H    2.956204   3.327364   3.399713   2.797098   3.783741
    41  H    4.448734   4.498756   4.080539   3.493190   4.309442
                   16         17         18         19         20
    16  C    0.000000
    17  C    1.530455   0.000000
    18  C    1.530341   2.490440   0.000000
    19  C    1.528885   2.512684   2.497491   0.000000
    20  H    6.517102   7.722186   7.201603   6.122792   0.000000
    21  H    5.531966   6.608611   6.466992   4.886450   1.789223
    22  H    5.775670   6.736728   6.722002   5.585302   1.792101
    23  H    7.784044   9.221838   7.723315   7.723928   3.791397
    24  H    7.797628   9.303594   7.696782   7.429118   4.038690
    25  H    7.205981   8.565667   6.789236   7.572835   5.374320
    26  H    6.653063   8.028930   5.905954   7.028824   6.293751
    27  H    8.022266   9.468636   7.431258   8.176029   6.173592
    28  H    6.061275   7.582726   5.741226   5.560170   4.858585
    29  H    7.348015   8.862499   6.766013   7.076369   5.995274
    30  H    5.761319   7.242055   5.032801   5.647442   5.970038
    31  H    3.445264   3.643637   4.651106   4.113222   5.471322
    32  H    2.693715   2.807880   4.191144   2.836483   5.684085
    33  H    2.181178   1.101252   2.736175   3.477928   8.214118
    34  H    2.203340   1.102146   3.475743   2.790338   7.612749
    35  H    2.171617   1.100462   2.729507   2.762169   8.522507
    36  H    2.189985   2.810253   1.100089   3.467882   7.621243
    37  H    2.169471   2.678946   1.101083   2.795326   8.104778
    38  H    2.200371   3.470439   1.100848   2.715232   6.688748
    39  H    2.203638   2.785939   3.481809   1.102319   5.921795
    40  H    2.179394   3.477989   2.749682   1.101199   5.409079
    41  H    2.170201   2.768498   2.728841   1.100643   7.076616
                   21         22         23         24         25
    21  H    0.000000
    22  H    1.784752   0.000000
    23  H    5.234097   5.082745   0.000000
    24  H    5.136203   5.588494   1.798461   0.000000
    25  H    6.500321   6.085044   2.448500   3.626462   0.000000
    26  H    7.058289   6.954119   3.666279   4.119751   1.789933
    27  H    7.253466   7.215547   2.749646   3.141440   1.788093
    28  H    5.108991   5.961670   3.784935   2.617344   4.321884
    29  H    6.609455   7.202342   3.642193   2.623463   3.780920
    30  H    6.246014   6.780590   4.304855   3.699591   3.765712
    31  H    4.693898   3.968114   7.613368   8.193549   7.351416
    32  H    4.418314   4.385908   8.115623   8.311563   8.078754
    33  H    7.261570   7.153604   9.486106   9.739225   8.585530
    34  H    6.362728   6.461578   9.539699   9.642848   9.090796
    35  H    7.330572   7.642516   9.944383   9.876185   9.278529
    36  H    7.055040   7.055040   7.888240   8.077061   6.654770
    37  H    7.256411   7.664047   8.623514   8.446630   7.699724
    38  H    6.111720   6.473114   6.869695   6.739414   5.977397
    39  H    4.471519   5.208110   8.049485   7.779711   8.133616
    40  H    4.308922   5.164217   6.797642   6.385268   6.788364
    41  H    5.796969   6.632152   8.540200   8.092731   8.344870
                   26         27         28         29         30
    26  H    0.000000
    27  H    1.790554   0.000000
    28  H    3.765133   3.787015   0.000000
    29  H    3.033269   2.579812   1.787657   0.000000
    30  H    2.544078   3.210528   1.794536   1.793708   0.000000
    31  H    7.618028   8.704782   7.486881   8.738425   7.526065
    32  H    8.092675   9.167881   7.205277   8.683834   7.418795
    33  H    8.060289   9.597122   8.116726   9.250526   7.586510
    34  H    8.726201  10.070471   8.074828   9.464010   7.934996
    35  H    8.574554  10.035680   7.942260   9.224566   7.566953
    36  H    5.788226   7.435856   6.302577   7.125720   5.377069
    37  H    6.661728   8.186102   6.285572   7.302440   5.553763
    38  H    4.994654   6.461682   4.705067   5.679184   3.940018
    39  H    7.786202   8.824240   6.135948   7.751083   6.455731
    40  H    6.246350   7.265751   4.479286   6.042326   4.705370
    41  H    7.618006   8.793252   5.992592   7.480380   6.016758
                   31         32         33         34         35
    31  H    0.000000
    32  H    1.791512   0.000000
    33  H    3.714318   3.382882   0.000000
    34  H    3.252342   2.174040   1.783608   0.000000
    35  H    4.716483   3.688305   1.777759   1.772234   0.000000
    36  H    4.686381   4.604660   2.604445   3.825211   3.178428
    37  H    5.517879   4.826971   3.000484   3.712000   2.451773
    38  H    5.072519   4.669290   3.785105   4.357707   3.718957
    39  H    3.798658   2.218004   3.806320   2.610310   3.125609
    40  H    4.476864   3.420065   4.331426   3.807888   3.772776
    41  H    5.098701   3.718301   3.776046   3.144030   2.561384
                   36         37         38         39         40
    36  H    0.000000
    37  H    1.789047   0.000000
    38  H    1.766155   1.770380   0.000000
    39  H    4.352349   3.797304   3.761969   0.000000
    40  H    3.730111   3.181735   2.507825   1.787307   0.000000
    41  H    3.775706   2.573125   3.002512   1.772566   1.772975
                   41
    41  H    0.000000
 Stoichiometry    C13H23N3O2
 Framework group  C1[X(C13H23N3O2)]
 Deg. of freedom   117
 Full point group                 C1      NOp   1
 Largest Abelian subgroup         C1      NOp   1
 Largest concise Abelian subgroup C1      NOp   1
                         Standard orientation:                         
 ---------------------------------------------------------------------
 Center     Atomic      Atomic             Coordinates (Angstroms)
 Number     Number       Type             X           Y           Z
 ---------------------------------------------------------------------
      1          6           0        0.850771    2.937454    0.422923
      2          7           0        0.680638    1.538555    0.033078
      3          6           0        1.751500    0.677145    0.013702
      4          7           0        1.783083   -0.535321   -0.403052
      5          6           0        3.137112   -1.065192   -0.102746
      6          6           0        3.908245    0.234097    0.202688
      7          8           0        2.881230    1.194943    0.492952
      8          6           0        3.714995   -1.797113   -1.302068
      9          6           0        3.041434   -1.965761    1.124658
     10          7           0       -0.932686   -0.066529   -0.662703
     11          6           0       -0.581232    1.103166   -0.285902
     12          8           0       -1.526282    2.030452   -0.182759
     13          6           0       -2.732660    1.426709   -0.694157
     14          6           0       -2.388648   -0.068410   -0.825308
     15          1           0       -2.593822   -0.441980   -1.840667
     16          6           0       -3.090355   -1.003449    0.187037
     17          6           0       -4.593349   -0.954065   -0.097331
     18          6           0       -2.593077   -2.435737   -0.020829
     19          6           0       -2.804586   -0.568993    1.624769
     20          1           0        1.919847    3.153956    0.481109
     21          1           0        0.384948    3.126114    1.400147
     22          1           0        0.378369    3.586201   -0.324271
     23          1           0        4.478528    0.601797   -0.665331
     24          1           0        4.567995    0.163345    1.076570
     25          1           0        3.709758   -1.150756   -2.192650
     26          1           0        3.116064   -2.695365   -1.510325
     27          1           0        4.752680   -2.100409   -1.093674
     28          1           0        2.680664   -1.398766    1.997592
     29          1           0        4.029138   -2.387832    1.365860
     30          1           0        2.340324   -2.785726    0.910913
     31          1           0       -2.956787    1.901630   -1.660265
     32          1           0       -3.540819    1.646696    0.014080
     33          1           0       -4.808723   -1.273918   -1.128865
     34          1           0       -5.018848    0.052662    0.044714
     35          1           0       -5.130987   -1.632339    0.582306
     36          1           0       -2.655727   -2.738504   -1.076576
     37          1           0       -3.192834   -3.133923    0.583498
     38          1           0       -1.543265   -2.565084    0.284181
     39          1           0       -3.168624    0.448337    1.843000
     40          1           0       -1.724904   -0.605284    1.838329
     41          1           0       -3.300692   -1.250059    2.332897
 ---------------------------------------------------------------------
 Rotational constants (GHZ):           0.7127089           0.2567112           0.2105931
 Leave Link  202 at Thu Nov  3 08:04:22 2022, MaxMem=  4194304000 cpu:               0.1 elap:               0.1
 (Enter /software/gaussian/G16-A.03/avx/g16/l301.exe)
 Standard basis: def2SVP (5D, 7F)
 Ernie: Thresh=  0.10000D-02 Tol=  0.10000D-05 Strict=F.
 There are   385 symmetry adapted cartesian basis functions of A   symmetry.
 There are   367 symmetry adapted basis functions of A   symmetry.
   367 basis functions,   611 primitive gaussians,   385 cartesian basis functions
    69 alpha electrons       69 beta electrons
       nuclear repulsion energy      1458.1615088033 Hartrees.
 IExCor= 1009 DFT=T Ex+Corr=PBE1PBE ExCW=0 ScaHFX=  0.250000
 ScaDFX=  0.750000  0.750000  1.000000  1.000000 ScalE2=  1.000000  1.000000
 IRadAn=      5 IRanWt=     -1 IRanGd=            0 ICorTp=0 IEmpDi=141
 NAtoms=   41 NActive=   41 NUniq=   41 SFac= 1.00D+00 NAtFMM=   60 NAOKFM=F Big=F
 Integral buffers will be    131072 words long.
 Raffenetti 2 integral format.
 Two-electron integral symmetry is turned on.
 R6Disp:  Grimme-D3(BJ) Dispersion energy=       -0.0404887818 Hartrees.
 Nuclear repulsion after empirical dispersion term =     1458.1210200215 Hartrees.
 Leave Link  301 at Thu Nov  3 08:04:23 2022, MaxMem=  4194304000 cpu:               0.6 elap:               0.1
 (Enter /software/gaussian/G16-A.03/avx/g16/l302.exe)
 NPDir=0 NMtPBC=     1 NCelOv=     1 NCel=       1 NClECP=     1 NCelD=      1
         NCelK=      1 NCelE2=     1 NClLst=     1 CellRange=     0.0.
 One-electron integrals computed using PRISM.
 One-electron integral symmetry used in STVInt
   1 Symmetry operations used in ECPInt.
 ECPInt:  NShTT=   15753 NPrTT=   55249 LenC2=   14435 LenP2D=   35955.
 LDataN:  DoStor=T MaxTD1= 4 Len=   56
 NBasis=   367 RedAO= T EigKep=  1.01D-03  NBF=   367
 NBsUse=   367 1.00D-06 EigRej= -1.00D+00 NBFU=   367
 Precomputing XC quadrature grid using
 IXCGrd= 4 IRadAn=           5 IRanWt=          -1 IRanGd=           0 AccXCQ= 0.00D+00.
 Generated NRdTot=       0 NPtTot=           0 NUsed=           0 NTot=          32
 NSgBfM=   383   383   383   383   383 MxSgAt=    41 MxSgA2=    41.
 Leave Link  302 at Thu Nov  3 08:04:24 2022, MaxMem=  4194304000 cpu:               6.6 elap:               0.9
 (Enter /software/gaussian/G16-A.03/avx/g16/l303.exe)
 DipDrv:  MaxL=1.
 Leave Link  303 at Thu Nov  3 08:04:24 2022, MaxMem=  4194304000 cpu:               0.5 elap:               0.1
 (Enter /software/gaussian/G16-A.03/avx/g16/l401.exe)
 ExpMin= 1.22D-01 ExpMax= 2.27D+03 ExpMxC= 3.41D+02 IAcc=3 IRadAn=         5 AccDes= 0.00D+00
 Harris functional with IExCor= 1009 and IRadAn=       5 diagonalized for initial guess.
 HarFok:  IExCor= 1009 AccDes= 0.00D+00 IRadAn=         5 IDoV= 1 UseB2=F ITyADJ=14
 ICtDFT=  3500011 ScaDFX=  1.000000  1.000000  1.000000  1.000000
 FoFCou: FMM=F IPFlag=           0 FMFlag=      100000 FMFlg1=           0
         NFxFlg=           0 DoJE=T BraDBF=F KetDBF=T FulRan=T
         wScrn=  0.000000 ICntrl=       500 IOpCl=  0 I1Cent=   200000004 NGrid=           0
         NMat0=    1 NMatS0=      1 NMatT0=    0 NMatD0=    1 NMtDS0=    0 NMtDT0=    0
 Petite list used in FoFCou.
 Harris En= -822.638021028426    
 JPrj=0 DoOrth=F DoCkMO=F.
 Leave Link  401 at Thu Nov  3 08:04:28 2022, MaxMem=  4194304000 cpu:              34.6 elap:               4.4
 (Enter /software/gaussian/G16-A.03/avx/g16/l502.exe)
 Integral symmetry usage will be decided dynamically.
 Closed shell SCF:
 Using DIIS extrapolation, IDIIS=  1040.
 NGot=  4194304000 LenX=  4194000173 LenY=  4193851507
 Requested convergence on RMS density matrix=1.00D-08 within 128 cycles.
 Requested convergence on MAX density matrix=1.00D-06.
 Requested convergence on             energy=1.00D-06.
 No special actions if energy rises.
 Fock matrices will be formed incrementally for  20 cycles.
 Integral accuracy reduced to 1.0D-05 until final iterations.

 Cycle   1  Pass 0  IDiag  1:
 FoFJK:  IHMeth= 1 ICntrl=       0 DoSepK=F KAlg= 0 I1Cent=           0 FoldK=F
 IRaf= 850000000 NMat=       1 IRICut=       1 DoRegI=T DoRafI=F ISym2E= 0 IDoP0=0 IntGTp=1.
 FoFCou: FMM=F IPFlag=           0 FMFlag=      100000 FMFlg1=           0
         NFxFlg=           0 DoJE=F BraDBF=F KetDBF=F FulRan=T
         wScrn=  0.000000 ICntrl=         0 IOpCl=  0 I1Cent=           0 NGrid=           0
         NMat0=    1 NMatS0=      1 NMatT0=    0 NMatD0=    1 NMtDS0=    0 NMtDT0=    0
 Symmetry not used in FoFCou.
 E= -821.960867415494    
 DIIS: error= 2.84D-02 at cycle   1 NSaved=   1.
 NSaved= 1 IEnMin= 1 EnMin= -821.960867415494     IErMin= 1 ErrMin= 2.84D-02
 ErrMax= 2.84D-02  0.00D+00 EMaxC= 1.00D-01 BMatC= 4.46D-01 BMatP= 4.46D-01
 IDIUse=3 WtCom= 7.16D-01 WtEn= 2.84D-01
 Coeff-Com:  0.100D+01
 Coeff-En:   0.100D+01
 Coeff:      0.100D+01
 Gap=     0.208 Goal=   None    Shift=    0.000
 GapD=    0.208 DampG=1.000 DampE=0.500 DampFc=0.5000 IDamp=-1.
 Damping current iteration by 5.00D-01
 RMSDP=5.03D-03 MaxDP=1.79D-01              OVMax= 3.33D-01

 Cycle   2  Pass 0  IDiag  1:
 RMSU=  2.50D-03    CP:  9.85D-01
 E= -822.111812514955     Delta-E=       -0.150945099462 Rises=F Damp=T
 DIIS: error= 1.42D-02 at cycle   2 NSaved=   2.
 NSaved= 2 IEnMin= 2 EnMin= -822.111812514955     IErMin= 2 ErrMin= 1.42D-02
 ErrMax= 1.42D-02  0.00D+00 EMaxC= 1.00D-01 BMatC= 5.87D-02 BMatP= 4.46D-01
 IDIUse=3 WtCom= 8.58D-01 WtEn= 1.42D-01
 Coeff-Com:  0.178D+00 0.822D+00
 Coeff-En:   0.290D+00 0.710D+00
 Coeff:      0.194D+00 0.806D+00
 Gap=     0.333 Goal=   None    Shift=    0.000
 RMSDP=1.66D-03 MaxDP=6.25D-02 DE=-1.51D-01 OVMax= 2.89D-01

 Cycle   3  Pass 0  IDiag  1:
 RMSU=  1.43D-03    CP:  9.81D-01  6.62D-01
 E= -822.363951776924     Delta-E=       -0.252139261968 Rises=F Damp=F
 DIIS: error= 1.54D-02 at cycle   3 NSaved=   3.
 NSaved= 3 IEnMin= 3 EnMin= -822.363951776924     IErMin= 2 ErrMin= 1.42D-02
 ErrMax= 1.54D-02  0.00D+00 EMaxC= 1.00D-01 BMatC= 6.61D-02 BMatP= 5.87D-02
 IDIUse=2 WtCom= 0.00D+00 WtEn= 1.00D+00
 Coeff-En:   0.000D+00 0.000D+00 0.100D+01
 Coeff:      0.000D+00 0.000D+00 0.100D+01
 Gap=     0.242 Goal=   None    Shift=    0.000
 RMSDP=2.25D-03 MaxDP=1.05D-01 DE=-2.52D-01 OVMax= 2.45D-01

 Cycle   4  Pass 0  IDiag  1:
 RMSU=  1.14D-03    CP:  9.87D-01  1.15D+00 -5.12D-02
 E= -822.147819109793     Delta-E=        0.216132667130 Rises=F Damp=F
 DIIS: error= 3.69D-02 at cycle   4 NSaved=   4.
 NSaved= 4 IEnMin= 3 EnMin= -822.363951776924     IErMin= 2 ErrMin= 1.42D-02
 ErrMax= 3.69D-02  0.00D+00 EMaxC= 1.00D-01 BMatC= 3.10D-01 BMatP= 5.87D-02
 IDIUse=2 WtCom= 0.00D+00 WtEn= 1.00D+00
 Coeff-En:   0.000D+00 0.000D+00 0.771D+00 0.229D+00
 Coeff:      0.000D+00 0.000D+00 0.771D+00 0.229D+00
 Gap=     0.249 Goal=   None    Shift=    0.000
 RMSDP=1.23D-03 MaxDP=5.57D-02 DE= 2.16D-01 OVMax= 1.27D-01

 Cycle   5  Pass 0  IDiag  1:
 RMSU=  1.69D-04    CP:  9.85D-01  8.31D-01  4.71D-01  5.26D-01
 E= -822.407271781183     Delta-E=       -0.259452671389 Rises=F Damp=F
 DIIS: error= 8.61D-03 at cycle   5 NSaved=   5.
 NSaved= 5 IEnMin= 5 EnMin= -822.407271781183     IErMin= 5 ErrMin= 8.61D-03
 ErrMax= 8.61D-03  0.00D+00 EMaxC= 1.00D-01 BMatC= 1.91D-02 BMatP= 5.87D-02
 IDIUse=3 WtCom= 9.14D-01 WtEn= 8.61D-02
 Coeff-Com: -0.124D-01 0.354D-01 0.261D+00-0.963D-01 0.812D+00
 Coeff-En:   0.000D+00 0.000D+00 0.266D+00 0.000D+00 0.734D+00
 Coeff:     -0.113D-01 0.323D-01 0.262D+00-0.880D-01 0.805D+00
 Gap=     0.257 Goal=   None    Shift=    0.000
 RMSDP=3.79D-04 MaxDP=1.70D-02 DE=-2.59D-01 OVMax= 3.84D-02

 Cycle   6  Pass 0  IDiag  1:
 RMSU=  4.27D-05    CP:  9.84D-01  7.66D-01  6.54D-01  3.40D-01  8.31D-01
 E= -822.424277965227     Delta-E=       -0.017006184044 Rises=F Damp=F
 DIIS: error= 5.51D-04 at cycle   6 NSaved=   6.
 NSaved= 6 IEnMin= 6 EnMin= -822.424277965227     IErMin= 6 ErrMin= 5.51D-04
 ErrMax= 5.51D-04  0.00D+00 EMaxC= 1.00D-01 BMatC= 6.33D-05 BMatP= 1.91D-02
 IDIUse=3 WtCom= 9.94D-01 WtEn= 5.51D-03
 Coeff-Com: -0.811D-02 0.180D-01 0.983D-01-0.572D-01 0.399D+00 0.550D+00
 Coeff-En:   0.000D+00 0.000D+00 0.000D+00 0.000D+00 0.000D+00 0.100D+01
 Coeff:     -0.807D-02 0.179D-01 0.977D-01-0.568D-01 0.397D+00 0.552D+00
 Gap=     0.255 Goal=   None    Shift=    0.000
 RMSDP=2.36D-05 MaxDP=1.52D-03 DE=-1.70D-02 OVMax= 1.97D-03

 Cycle   7  Pass 0  IDiag  1:
 RMSU=  1.20D-05    CP:  9.84D-01  7.70D-01  6.49D-01  3.43D-01  8.78D-01
                    CP:  7.09D-01
 E= -822.424334885449     Delta-E=       -0.000056920222 Rises=F Damp=F
 DIIS: error= 8.60D-05 at cycle   7 NSaved=   7.
 NSaved= 7 IEnMin= 7 EnMin= -822.424334885449     IErMin= 7 ErrMin= 8.60D-05
 ErrMax= 8.60D-05  0.00D+00 EMaxC= 1.00D-01 BMatC= 1.71D-06 BMatP= 6.33D-05
 IDIUse=1 WtCom= 1.00D+00 WtEn= 0.00D+00
 Coeff-Com: -0.259D-02 0.482D-02 0.246D-01-0.178D-01 0.114D+00 0.228D+00
 Coeff-Com:  0.649D+00
 Coeff:     -0.259D-02 0.482D-02 0.246D-01-0.178D-01 0.114D+00 0.228D+00
 Coeff:      0.649D+00
 Gap=     0.255 Goal=   None    Shift=    0.000
 RMSDP=4.47D-06 MaxDP=2.50D-04 DE=-5.69D-05 OVMax= 2.22D-04

 Initial convergence to 1.0D-05 achieved.  Increase integral accuracy.
 Cycle   8  Pass 1  IDiag  1:
 E= -822.424371858692     Delta-E=       -0.000036973244 Rises=F Damp=F
 DIIS: error= 7.04D-05 at cycle   1 NSaved=   1.
 NSaved= 1 IEnMin= 1 EnMin= -822.424371858692     IErMin= 1 ErrMin= 7.04D-05
 ErrMax= 7.04D-05  0.00D+00 EMaxC= 1.00D-01 BMatC= 8.84D-07 BMatP= 8.84D-07
 IDIUse=1 WtCom= 1.00D+00 WtEn= 0.00D+00
 Coeff-Com:  0.100D+01
 Coeff:      0.100D+01
 Gap=     0.255 Goal=   None    Shift=    0.000
 RMSDP=4.47D-06 MaxDP=2.50D-04 DE=-3.70D-05 OVMax= 2.01D-04

 Cycle   9  Pass 1  IDiag  1:
 RMSU=  3.57D-05    CP:  1.00D+00
 E= -822.424372636788     Delta-E=       -0.000000778096 Rises=F Damp=F
 DIIS: error= 1.77D-05 at cycle   2 NSaved=   2.
 NSaved= 2 IEnMin= 2 EnMin= -822.424372636788     IErMin= 2 ErrMin= 1.77D-05
 ErrMax= 1.77D-05  0.00D+00 EMaxC= 1.00D-01 BMatC= 2.77D-07 BMatP= 8.84D-07
 IDIUse=1 WtCom= 1.00D+00 WtEn= 0.00D+00
 Coeff-Com:  0.300D+00 0.700D+00
 Coeff:      0.300D+00 0.700D+00
 Gap=     0.255 Goal=   None    Shift=    0.000
 RMSDP=2.54D-06 MaxDP=1.34D-04 DE=-7.78D-07 OVMax= 2.07D-04

 Cycle  10  Pass 1  IDiag  1:
 RMSU=  2.50D-06    CP:  1.00D+00  1.01D+00
 E= -822.424372722121     Delta-E=       -0.000000085333 Rises=F Damp=F
 DIIS: error= 1.99D-05 at cycle   3 NSaved=   3.
 NSaved= 3 IEnMin= 3 EnMin= -822.424372722121     IErMin= 2 ErrMin= 1.77D-05
 ErrMax= 1.99D-05  0.00D+00 EMaxC= 1.00D-01 BMatC= 1.81D-07 BMatP= 2.77D-07
 IDIUse=1 WtCom= 1.00D+00 WtEn= 0.00D+00
 Coeff-Com:  0.128D-01 0.444D+00 0.543D+00
 Coeff:      0.128D-01 0.444D+00 0.543D+00
 Gap=     0.255 Goal=   None    Shift=    0.000
 RMSDP=1.40D-06 MaxDP=9.51D-05 DE=-8.53D-08 OVMax= 1.35D-04

 Cycle  11  Pass 1  IDiag  1:
 RMSU=  5.73D-07    CP:  1.00D+00  1.02D+00  5.10D-01
 E= -822.424372867556     Delta-E=       -0.000000145435 Rises=F Damp=F
 DIIS: error= 6.98D-06 at cycle   4 NSaved=   4.
 NSaved= 4 IEnMin= 4 EnMin= -822.424372867556     IErMin= 4 ErrMin= 6.98D-06
 ErrMax= 6.98D-06  0.00D+00 EMaxC= 1.00D-01 BMatC= 1.69D-08 BMatP= 1.81D-07
 IDIUse=1 WtCom= 1.00D+00 WtEn= 0.00D+00
 Coeff-Com: -0.547D-02 0.258D+00 0.353D+00 0.394D+00
 Coeff:     -0.547D-02 0.258D+00 0.353D+00 0.394D+00
 Gap=     0.255 Goal=   None    Shift=    0.000
 RMSDP=3.46D-07 MaxDP=2.38D-05 DE=-1.45D-07 OVMax= 3.43D-05

 Cycle  12  Pass 1  IDiag  1:
 RMSU=  1.31D-07    CP:  1.00D+00  1.02D+00  5.60D-01  4.85D-01
 E= -822.424372881811     Delta-E=       -0.000000014255 Rises=F Damp=F
 DIIS: error= 8.07D-07 at cycle   5 NSaved=   5.
 NSaved= 5 IEnMin= 5 EnMin= -822.424372881811     IErMin= 5 ErrMin= 8.07D-07
 ErrMax= 8.07D-07  0.00D+00 EMaxC= 1.00D-01 BMatC= 1.56D-10 BMatP= 1.69D-08
 IDIUse=1 WtCom= 1.00D+00 WtEn= 0.00D+00
 Coeff-Com: -0.323D-02 0.135D+00 0.187D+00 0.220D+00 0.461D+00
 Coeff:     -0.323D-02 0.135D+00 0.187D+00 0.220D+00 0.461D+00
 Gap=     0.255 Goal=   None    Shift=    0.000
 RMSDP=3.94D-08 MaxDP=2.09D-06 DE=-1.43D-08 OVMax= 3.56D-06

 Cycle  13  Pass 1  IDiag  1:
 RMSU=  3.63D-08    CP:  1.00D+00  1.02D+00  5.58D-01  4.95D-01  9.08D-01
 E= -822.424372881919     Delta-E=       -0.000000000109 Rises=F Damp=F
 DIIS: error= 2.20D-07 at cycle   6 NSaved=   6.
 NSaved= 6 IEnMin= 6 EnMin= -822.424372881919     IErMin= 6 ErrMin= 2.20D-07
 ErrMax= 2.20D-07  0.00D+00 EMaxC= 1.00D-01 BMatC= 1.32D-11 BMatP= 1.56D-10
 IDIUse=1 WtCom= 1.00D+00 WtEn= 0.00D+00
 Coeff-Com: -0.105D-02 0.398D-01 0.556D-01 0.701D-01 0.245D+00 0.591D+00
 Coeff:     -0.105D-02 0.398D-01 0.556D-01 0.701D-01 0.245D+00 0.591D+00
 Gap=     0.255 Goal=   None    Shift=    0.000
 RMSDP=1.56D-08 MaxDP=1.10D-06 DE=-1.09D-10 OVMax= 1.48D-06

 Cycle  14  Pass 1  IDiag  1:
 RMSU=  1.25D-08    CP:  1.00D+00  1.02D+00  5.58D-01  4.97D-01  9.46D-01
                    CP:  8.01D-01
 E= -822.424372881937     Delta-E=       -0.000000000017 Rises=F Damp=F
 DIIS: error= 7.60D-08 at cycle   7 NSaved=   7.
 NSaved= 7 IEnMin= 7 EnMin= -822.424372881937     IErMin= 7 ErrMin= 7.60D-08
 ErrMax= 7.60D-08  0.00D+00 EMaxC= 1.00D-01 BMatC= 2.99D-12 BMatP= 1.32D-11
 IDIUse=1 WtCom= 1.00D+00 WtEn= 0.00D+00
 Coeff-Com:  0.591D-04-0.473D-02-0.608D-02-0.368D-02 0.458D-01 0.361D+00
 Coeff-Com:  0.608D+00
 Coeff:      0.591D-04-0.473D-02-0.608D-02-0.368D-02 0.458D-01 0.361D+00
 Coeff:      0.608D+00
 Gap=     0.255 Goal=   None    Shift=    0.000
 RMSDP=6.25D-09 MaxDP=3.49D-07 DE=-1.73D-11 OVMax= 4.23D-07

 SCF Done:  E(RPBE1PBE) =  -822.424372882     A.U. after   14 cycles
            NFock= 14  Conv=0.62D-08     -V/T= 2.0101
 KE= 8.141900591166D+02 PE=-4.828432197147D+03 EE= 1.733696745127D+03
 Leave Link  502 at Thu Nov  3 08:06:06 2022, MaxMem=  4194304000 cpu:             785.8 elap:              98.3
 (Enter /software/gaussian/G16-A.03/avx/g16/l801.exe)
 DoSCS=F DFT=T ScalE2(SS,OS)=  1.000000  1.000000
 Range of M.O.s used for correlation:     1   367
 NBasis=   367 NAE=    69 NBE=    69 NFC=     0 NFV=     0
 NROrb=    367 NOA=    69 NOB=    69 NVA=   298 NVB=   298

 **** Warning!!: The largest alpha MO coefficient is  0.15427282D+02

 Leave Link  801 at Thu Nov  3 08:06:07 2022, MaxMem=  4194304000 cpu:               0.2 elap:               0.1
 (Enter /software/gaussian/G16-A.03/avx/g16/l1101.exe)
 Using compressed storage, NAtomX=    41.
 Will process     42 centers per pass.
   1 Symmetry operations used in ECPInt.
 ECPInt:  NShTT=   15753 NPrTT=   55249 LenC2=   14435 LenP2D=   35955.
 LDataN:  DoStor=T MaxTD1= 5 Len=  102
 R6Disp: Adding Grimme-D3(BJ) dispersion energy 1st derivatives to the gradient.
 Leave Link 1101 at Thu Nov  3 08:06:08 2022, MaxMem=  4194304000 cpu:               6.5 elap:               0.9
 (Enter /software/gaussian/G16-A.03/avx/g16/l1102.exe)
 Symmetrizing basis deriv contribution to polar:
 IMax=3 JMax=2 DiffMx= 0.00D+00
 Leave Link 1102 at Thu Nov  3 08:06:09 2022, MaxMem=  4194304000 cpu:               0.5 elap:               0.1
 (Enter /software/gaussian/G16-A.03/avx/g16/l1110.exe)
 Forming Gx(P) for the SCF density, NAtomX=    41.
 Integral derivatives from FoFJK, PRISM(SPDF).
 Do as many integral derivatives as possible in FoFJK.
 G2DrvN: MDV=    4194300912.
 G2DrvN: will do    42 centers at a time, making    1 passes.
 Calling FoFCou, ICntrl=  3107 FMM=F I1Cent=   0 AccDes= 0.00D+00.
 FoFJK:  IHMeth= 1 ICntrl=    3107 DoSepK=F KAlg= 0 I1Cent=           0 FoldK=F
 IRaf=         0 NMat=       1 IRICut=       1 DoRegI=T DoRafI=F ISym2E= 0 IDoP0=0 IntGTp=1.
 FoFCou: FMM=F IPFlag=           0 FMFlag=      100000 FMFlg1=           0
         NFxFlg=           0 DoJE=F BraDBF=F KetDBF=F FulRan=T
         wScrn=  0.000000 ICntrl=      3107 IOpCl=  0 I1Cent=           0 NGrid=           0
         NMat0=    1 NMatS0=      1 NMatT0=    0 NMatD0=    1 NMtDS0=    0 NMtDT0=    0
 Symmetry not used in FoFCou.
 End of G2Drv F.D. properties file   721 does not exist.
 End of G2Drv F.D. properties file   722 does not exist.
 End of G2Drv F.D. properties file   788 does not exist.
 Leave Link 1110 at Thu Nov  3 08:12:02 2022, MaxMem=  4194304000 cpu:            2822.7 elap:             352.9
 (Enter /software/gaussian/G16-A.03/avx/g16/l1002.exe)
 Minotr:  Closed shell wavefunction.
          IDoAtm=11111111111111111111111111111111111111111
          Direct CPHF calculation.
          Differentiating once with respect to electric field.
                with respect to dipole field.
          Differentiating once with respect to nuclear coordinates.
          Requested convergence is 1.0D-08 RMS, and 1.0D-07 maximum.
          Secondary convergence is 1.0D-12 RMS, and 1.0D-12 maximum.
          NewPWx=T KeepS1=F KeepF1=F KeepIn=T MapXYZ=F SortEE=F KeepMc=T.
        12408 words used for storage of precomputed grid.
 Keep R1 ints in memory in canonical form, NReq=2308824622.
 FoFCou: FMM=F IPFlag=           0 FMFlag=           0 FMFlg1=           0
         NFxFlg=           0 DoJE=F BraDBF=F KetDBF=F FulRan=T
         wScrn=  0.000000 ICntrl=       600 IOpCl=  0 I1Cent=           0 NGrid=           0
         NMat0=    1 NMatS0=  67528 NMatT0=    0 NMatD0=    1 NMtDS0=    0 NMtDT0=    0
 Symmetry not used in FoFCou.
 Two-electron integral symmetry not used.
          MDV=    4194304000 using IRadAn=       1.
          Solving linear equations simultaneously, MaxMat=       0.
          There are   126 degrees of freedom in the 1st order CPHF.  IDoFFX=6 NUNeed=     3.
    123 vectors produced by pass  0 Test12= 2.06D-14 1.00D-09 XBig12= 1.18D+02 4.22D+00.
 AX will form   123 AO Fock derivatives at one time.
    123 vectors produced by pass  1 Test12= 2.06D-14 1.00D-09 XBig12= 3.62D+01 1.30D+00.
    123 vectors produced by pass  2 Test12= 2.06D-14 1.00D-09 XBig12= 3.06D-01 7.81D-02.
    123 vectors produced by pass  3 Test12= 2.06D-14 1.00D-09 XBig12= 8.54D-04 2.38D-03.
    123 vectors produced by pass  4 Test12= 2.06D-14 1.00D-09 XBig12= 1.55D-06 8.50D-05.
     76 vectors produced by pass  5 Test12= 2.06D-14 1.00D-09 XBig12= 1.81D-09 2.98D-06.
     17 vectors produced by pass  6 Test12= 2.06D-14 1.00D-09 XBig12= 2.02D-12 7.65D-08.
      3 vectors produced by pass  7 Test12= 2.06D-14 1.00D-09 XBig12= 1.90D-15 2.57D-09.
 InvSVY:  IOpt=1 It=  1 EMax= 1.24D-14
 Solved reduced A of dimension   711 with   126 vectors.
 FullF1:  Do perturbations      1 to       3.
 Isotropic polarizability for W=    0.000000      163.56 Bohr**3.
 End of Minotr F.D. properties file   721 does not exist.
 End of Minotr F.D. properties file   722 does not exist.
 End of Minotr F.D. properties file   788 does not exist.
 Leave Link 1002 at Thu Nov  3 08:18:32 2022, MaxMem=  4194304000 cpu:            3114.4 elap:             389.4
 (Enter /software/gaussian/G16-A.03/avx/g16/l601.exe)
 Copying SCF densities to generalized density rwf, IOpCl= 0 IROHF=0.

 **********************************************************************

            Population analysis using the SCF density.

 **********************************************************************

 Orbital symmetries:
       Occupied  (A) (A) (A) (A) (A) (A) (A) (A) (A) (A) (A) (A)
                 (A) (A) (A) (A) (A) (A) (A) (A) (A) (A) (A) (A)
                 (A) (A) (A) (A) (A) (A) (A) (A) (A) (A) (A) (A)
                 (A) (A) (A) (A) (A) (A) (A) (A) (A) (A) (A) (A)
                 (A) (A) (A) (A) (A) (A) (A) (A) (A) (A) (A) (A)
                 (A) (A) (A) (A) (A) (A) (A) (A) (A)
       Virtual   (A) (A) (A) (A) (A) (A) (A) (A) (A) (A) (A) (A)
                 (A) (A) (A) (A) (A) (A) (A) (A) (A) (A) (A) (A)
                 (A) (A) (A) (A) (A) (A) (A) (A) (A) (A) (A) (A)
                 (A) (A) (A) (A) (A) (A) (A) (A) (A) (A) (A) (A)
                 (A) (A) (A) (A) (A) (A) (A) (A) (A) (A) (A) (A)
                 (A) (A) (A) (A) (A) (A) (A) (A) (A) (A) (A) (A)
                 (A) (A) (A) (A) (A) (A) (A) (A) (A) (A) (A) (A)
                 (A) (A) (A) (A) (A) (A) (A) (A) (A) (A) (A) (A)
                 (A) (A) (A) (A) (A) (A) (A) (A) (A) (A) (A) (A)
                 (A) (A) (A) (A) (A) (A) (A) (A) (A) (A) (A) (A)
                 (A) (A) (A) (A) (A) (A) (A) (A) (A) (A) (A) (A)
                 (A) (A) (A) (A) (A) (A) (A) (A) (A) (A) (A) (A)
                 (A) (A) (A) (A) (A) (A) (A) (A) (A) (A) (A) (A)
                 (A) (A) (A) (A) (A) (A) (A) (A) (A) (A) (A) (A)
                 (A) (A) (A) (A) (A) (A) (A) (A) (A) (A) (A) (A)
                 (A) (A) (A) (A) (A) (A) (A) (A) (A) (A) (A) (A)
                 (A) (A) (A) (A) (A) (A) (A) (A) (A) (A) (A) (A)
                 (A) (A) (A) (A) (A) (A) (A) (A) (A) (A) (A) (A)
                 (A) (A) (A) (A) (A) (A) (A) (A) (A) (A) (A) (A)
                 (A) (A) (A) (A) (A) (A) (A) (A) (A) (A) (A) (A)
                 (A) (A) (A) (A) (A) (A) (A) (A) (A) (A) (A) (A)
                 (A) (A) (A) (A) (A) (A) (A) (A) (A) (A) (A) (A)
                 (A) (A) (A) (A) (A) (A) (A) (A) (A) (A) (A) (A)
                 (A) (A) (A) (A) (A) (A) (A) (A) (A) (A) (A) (A)
                 (A) (A) (A) (A) (A) (A) (A) (A) (A) (A)
 The electronic state is 1-A.
 Alpha  occ. eigenvalues --  -19.24865 -19.24789 -14.44475 -14.34190 -14.34029
 Alpha  occ. eigenvalues --  -10.34205 -10.33979 -10.28749 -10.28648 -10.27137
 Alpha  occ. eigenvalues --  -10.26533 -10.25485 -10.23826 -10.22123 -10.22006
 Alpha  occ. eigenvalues --  -10.21995 -10.21530 -10.20783  -1.13324  -1.12422
 Alpha  occ. eigenvalues --   -0.98839  -0.91064  -0.90471  -0.83119  -0.80882
 Alpha  occ. eigenvalues --   -0.76806  -0.72666  -0.71677  -0.69830  -0.69374
 Alpha  occ. eigenvalues --   -0.68633  -0.65668  -0.63628  -0.58835  -0.55625
 Alpha  occ. eigenvalues --   -0.54918  -0.53316  -0.52326  -0.51434  -0.50469
 Alpha  occ. eigenvalues --   -0.48097  -0.47444  -0.46320  -0.45570  -0.45159
 Alpha  occ. eigenvalues --   -0.44693  -0.43911  -0.43665  -0.41829  -0.41041
 Alpha  occ. eigenvalues --   -0.40848  -0.40352  -0.39297  -0.38852  -0.38081
 Alpha  occ. eigenvalues --   -0.37191  -0.37002  -0.36445  -0.36284  -0.35731
 Alpha  occ. eigenvalues --   -0.34033  -0.33766  -0.33170  -0.32586  -0.30278
 Alpha  occ. eigenvalues --   -0.28022  -0.24676  -0.23673  -0.22291
 Alpha virt. eigenvalues --    0.03248   0.06082   0.06988   0.08199   0.08840
 Alpha virt. eigenvalues --    0.09937   0.10425   0.10839   0.10948   0.11642
 Alpha virt. eigenvalues --    0.11768   0.12632   0.13122   0.13757   0.14367
 Alpha virt. eigenvalues --    0.14436   0.14861   0.15707   0.15854   0.16158
 Alpha virt. eigenvalues --    0.16746   0.17026   0.17863   0.18047   0.18872
 Alpha virt. eigenvalues --    0.19255   0.20303   0.20821   0.21346   0.21806
 Alpha virt. eigenvalues --    0.22223   0.22835   0.24663   0.25524   0.26079
 Alpha virt. eigenvalues --    0.27096   0.27667   0.28492   0.28923   0.31608
 Alpha virt. eigenvalues --    0.35613   0.38279   0.38665   0.40035   0.41242
 Alpha virt. eigenvalues --    0.42063   0.42778   0.43043   0.43462   0.44328
 Alpha virt. eigenvalues --    0.45591   0.45957   0.47529   0.49180   0.51090
 Alpha virt. eigenvalues --    0.52102   0.52916   0.54078   0.55215   0.56102
 Alpha virt. eigenvalues --    0.56862   0.57107   0.57685   0.58479   0.59149
 Alpha virt. eigenvalues --    0.60107   0.60513   0.61376   0.62319   0.62965
 Alpha virt. eigenvalues --    0.64145   0.64280   0.64909   0.65006   0.65317
 Alpha virt. eigenvalues --    0.65902   0.66108   0.66415   0.66629   0.66863
 Alpha virt. eigenvalues --    0.67662   0.68179   0.68538   0.68863   0.69357
 Alpha virt. eigenvalues --    0.69632   0.70004   0.70452   0.70728   0.71166
 Alpha virt. eigenvalues --    0.71558   0.72074   0.72368   0.72880   0.72982
 Alpha virt. eigenvalues --    0.73810   0.73916   0.73988   0.74600   0.75685
 Alpha virt. eigenvalues --    0.76301   0.76817   0.77381   0.78685   0.79620
 Alpha virt. eigenvalues --    0.80861   0.82574   0.84868   0.87732   0.88369
 Alpha virt. eigenvalues --    0.89697   0.91372   0.92007   0.94891   0.96899
 Alpha virt. eigenvalues --    0.97500   0.98623   1.01725   1.04969   1.06098
 Alpha virt. eigenvalues --    1.06956   1.09600   1.10207   1.13066   1.14844
 Alpha virt. eigenvalues --    1.15158   1.15813   1.17135   1.17592   1.19909
 Alpha virt. eigenvalues --    1.21051   1.23564   1.24372   1.25869   1.27846
 Alpha virt. eigenvalues --    1.29712   1.31471   1.33761   1.34361   1.36582
 Alpha virt. eigenvalues --    1.39041   1.39894   1.40883   1.43406   1.44541
 Alpha virt. eigenvalues --    1.47767   1.49136   1.51385   1.53317   1.54173
 Alpha virt. eigenvalues --    1.54684   1.55279   1.55461   1.56355   1.57045
 Alpha virt. eigenvalues --    1.58264   1.58600   1.59203   1.59235   1.60487
 Alpha virt. eigenvalues --    1.60646   1.63370   1.64808   1.65844   1.66120
 Alpha virt. eigenvalues --    1.67175   1.69026   1.70901   1.72016   1.74316
 Alpha virt. eigenvalues --    1.75025   1.75569   1.76946   1.77581   1.78367
 Alpha virt. eigenvalues --    1.78729   1.79583   1.80070   1.81106   1.81678
 Alpha virt. eigenvalues --    1.82465   1.82770   1.82895   1.84403   1.84593
 Alpha virt. eigenvalues --    1.85729   1.86222   1.86345   1.86631   1.87639
 Alpha virt. eigenvalues --    1.88463   1.88674   1.89993   1.90814   1.91225
 Alpha virt. eigenvalues --    1.92414   1.93548   1.93892   1.94923   1.96212
 Alpha virt. eigenvalues --    1.97125   1.97274   1.98331   1.98753   1.99321
 Alpha virt. eigenvalues --    1.99882   2.00550   2.02417   2.03676   2.04040
 Alpha virt. eigenvalues --    2.05637   2.08380   2.08807   2.09392   2.10417
 Alpha virt. eigenvalues --    2.11773   2.14263   2.15395   2.17813   2.19564
 Alpha virt. eigenvalues --    2.19735   2.22156   2.24049   2.28030   2.28981
 Alpha virt. eigenvalues --    2.30389   2.30890   2.32020   2.33818   2.36761
 Alpha virt. eigenvalues --    2.37326   2.39518   2.40958   2.41747   2.42357
 Alpha virt. eigenvalues --    2.42663   2.43780   2.44137   2.44940   2.45716
 Alpha virt. eigenvalues --    2.47859   2.48494   2.52983   2.54133   2.54571
 Alpha virt. eigenvalues --    2.60043   2.61265   2.61799   2.64490   2.65737
 Alpha virt. eigenvalues --    2.66560   2.66961   2.67864   2.68436   2.69051
 Alpha virt. eigenvalues --    2.70527   2.71614   2.74336   2.79194   2.80878
 Alpha virt. eigenvalues --    2.82101   2.84251   2.85464   2.87956   2.88925
 Alpha virt. eigenvalues --    2.89196   2.90221   2.91159   2.91623   2.92291
 Alpha virt. eigenvalues --    2.93103   2.94511   2.94897   2.95943   2.96226
 Alpha virt. eigenvalues --    2.97069   2.98209   2.98374   3.00075   3.00634
 Alpha virt. eigenvalues --    3.02908   3.03794   3.05553   3.06316   3.07252
 Alpha virt. eigenvalues --    3.07625   3.10852   3.11654   3.15406   3.17904
 Alpha virt. eigenvalues --    3.20294   3.21178   3.32146   3.34468   3.41405
 Alpha virt. eigenvalues --    3.58569   3.63404   3.75129
     Molecular Orbital Coefficients:
                          65        66        67        68        69
                           O         O         O         O         O
     Eigenvalues --    -0.30278  -0.28022  -0.24676  -0.23673  -0.22291
   1 1   C  1S         -0.00271  -0.00666   0.00006   0.00012  -0.00007
   2        2S          0.00348   0.00931  -0.00065  -0.00010  -0.00158
   3        3S          0.02532   0.04085   0.00226  -0.00139   0.00877
   4        4PX        -0.00436   0.00157   0.02009  -0.02084   0.01147
   5        4PY        -0.01997  -0.01937   0.00468   0.00017   0.02418
   6        4PZ         0.09222  -0.01012  -0.00301   0.00829  -0.06665
   7        5PX         0.00323   0.00865   0.02972  -0.01998   0.00211
   8        5PY        -0.00845  -0.00442  -0.00087  -0.00134   0.01458
   9        5PZ         0.05512  -0.00630   0.02633   0.00761  -0.01216
  10        6D 0        0.00749  -0.00089  -0.00125   0.00182  -0.00747
  11        6D+1       -0.00423   0.00027   0.00011  -0.00082   0.00319
  12        6D-1        0.01281   0.00003  -0.00157   0.00146  -0.01386
  13        6D+2        0.00252  -0.00102   0.00039  -0.00066  -0.00288
  14        6D-2       -0.00092   0.00039   0.00083  -0.00158   0.00140
  15 2   N  1S          0.00366  -0.01560   0.00041  -0.00031   0.00046
  16        2S          0.00799  -0.02607   0.00043  -0.00044   0.00009
  17        3S          0.02062  -0.16065   0.00602  -0.00844   0.01896
  18        4PX        -0.05652  -0.00115   0.01741  -0.05504   0.04441
  19        4PY        -0.07889  -0.03487   0.01278  -0.00336   0.08050
  20        4PZ         0.32093  -0.02473  -0.04096   0.03263  -0.29438
  21        5PX         0.04971   0.00626  -0.02461   0.07423  -0.03957
  22        5PY         0.06134   0.06453  -0.00595   0.00001  -0.07411
  23        5PZ        -0.26346   0.03332   0.03278  -0.02870   0.27663
  24        6D 0        0.00340  -0.00128  -0.00150  -0.00069   0.00113
  25        6D+1        0.00026   0.00060  -0.00747  -0.00313   0.00102
  26        6D-1        0.00658   0.00020   0.00140   0.00046   0.00068
  27        6D+2        0.00172   0.00070   0.00273   0.00054   0.00105
  28        6D-2       -0.00094  -0.00026   0.00249   0.00017  -0.00067
  29 3   C  1S          0.00365   0.03617   0.01059  -0.02859  -0.00545
  30        2S         -0.00916  -0.09044  -0.02975   0.07642   0.01431
  31        3S          0.01261   0.01631   0.02769  -0.00254  -0.00001
  32        4PX         0.01452  -0.01928   0.04267   0.03322   0.02702
  33        4PY         0.02015   0.09695   0.08358  -0.04547   0.02099
  34        4PZ        -0.03930   0.03073  -0.16266  -0.06703  -0.07687
  35        5PX         0.01601  -0.09669   0.00808   0.11885   0.04428
  36        5PY        -0.01531  -0.00125   0.02521   0.00573   0.02162
  37        5PZ        -0.02128  -0.02450  -0.11154  -0.00140  -0.05972
  38        6D 0        0.01017   0.00101   0.01738   0.00129   0.01313
  39        6D+1        0.02469   0.00805   0.00693  -0.00482  -0.01215
  40        6D-1       -0.00540   0.00386   0.01890  -0.00198   0.02483
  41        6D+2       -0.00278   0.00690   0.00810  -0.00465   0.00914
  42        6D-2       -0.00736   0.02104  -0.00328  -0.02216  -0.00957
  43 4   N  1S          0.00170   0.06602   0.02513  -0.07610  -0.00987
  44        2S          0.00855   0.13026   0.05384  -0.15742  -0.02064
  45        3S         -0.05184   0.21081   0.04739  -0.23888  -0.03385
  46        4PX         0.00325   0.27469   0.00467  -0.28529  -0.12339
  47        4PY         0.01633   0.17574  -0.03712  -0.17021  -0.11945
  48        4PZ         0.02821   0.13584   0.31461  -0.08154   0.24976
  49        5PX        -0.01786  -0.16625   0.00719   0.15583   0.08675
  50        5PY        -0.00828  -0.13551   0.02534   0.13150   0.09622
  51        5PZ        -0.03319  -0.09044  -0.23364   0.05166  -0.20423
  52        6D 0       -0.00009   0.00416  -0.00892  -0.00745  -0.01012
  53        6D+1        0.00086  -0.00791  -0.00677   0.00822  -0.00278
  54        6D-1       -0.00302  -0.00757  -0.01425   0.00355  -0.00825
  55        6D+2       -0.00181   0.00017  -0.00508   0.00423  -0.00130
  56        6D-2       -0.00111  -0.01059   0.00247   0.01121   0.00698
  57 5   C  1S          0.00545   0.02020   0.01143  -0.02376  -0.00219
  58        2S         -0.01486  -0.04430  -0.02502   0.05810   0.00626
  59        3S         -0.00171  -0.11876  -0.09563   0.12317  -0.00466
  60        4PX        -0.03597   0.11462   0.00415  -0.13137  -0.03705
  61        4PY        -0.05191   0.02540  -0.05103  -0.00665  -0.03142
  62        4PZ         0.04011   0.05296   0.09857  -0.03255   0.05758
  63        5PX        -0.06228   0.05374  -0.01389  -0.06670  -0.01629
  64        5PY         0.00195  -0.04305  -0.03918   0.07198  -0.00397
  65        5PZ         0.03880   0.00540  -0.02219  -0.01653  -0.02289
  66        6D 0        0.00044   0.00142   0.00564  -0.00115   0.00491
  67        6D+1       -0.00114   0.00422   0.00937  -0.00258   0.00854
  68        6D-1       -0.00553   0.00224  -0.01168  -0.00421  -0.01100
  69        6D+2        0.00044   0.00164  -0.00439  -0.00405  -0.00639
  70        6D-2       -0.00071   0.01706   0.00384  -0.01661  -0.00383
  71 6   C  1S          0.00360  -0.02770  -0.00020   0.02464   0.00831
  72        2S         -0.00836   0.06877  -0.00517  -0.06148  -0.02514
  73        3S         -0.02534   0.13230   0.06726  -0.14410  -0.00058
  74        4PX         0.03047  -0.08649   0.00225   0.06860   0.01686
  75        4PY         0.05990  -0.09253   0.01788   0.08913   0.04241
  76        4PZ        -0.11372  -0.02870  -0.05693   0.01376  -0.00362
  77        5PX         0.02810  -0.05854  -0.02680   0.05086  -0.01108
  78        5PY         0.01365  -0.08987  -0.02602   0.09223   0.02877
  79        5PZ        -0.02584  -0.02146  -0.00747   0.02440  -0.00092
  80        6D 0        0.00519  -0.00333   0.00362   0.00379   0.00184
  81        6D+1       -0.01542  -0.00248  -0.01097   0.00039  -0.00184
  82        6D-1        0.00193  -0.00125  -0.00026   0.00155  -0.00144
  83        6D+2        0.00498  -0.00108   0.00390   0.00316   0.00182
  84        6D-2        0.00335  -0.00229   0.00181   0.00405   0.00101
  85 7   O  1S          0.00297   0.00731   0.00313  -0.01055  -0.00540
  86        2S          0.00620   0.01669   0.00927  -0.02231  -0.00956
  87        3S          0.01462   0.05696   0.00069  -0.07918  -0.04370
  88        4PX        -0.06924  -0.05558  -0.06369   0.03681  -0.00245
  89        4PY        -0.14752  -0.09175  -0.12988   0.05573  -0.02126
  90        4PZ         0.28091  -0.05726   0.21869   0.10673   0.08710
  91        5PX        -0.04892  -0.05122  -0.05572   0.03983  -0.00899
  92        5PY        -0.11348  -0.06675  -0.09829   0.04325  -0.01384
  93        5PZ         0.21830  -0.04640   0.18422   0.09057   0.08448
  94        6D 0       -0.00606  -0.00028  -0.00240  -0.00032  -0.00025
  95        6D+1       -0.00296  -0.00040   0.00032   0.00070  -0.00007
  96        6D-1       -0.00456   0.00199  -0.00212  -0.00241  -0.00021
  97        6D+2       -0.00239  -0.00317  -0.00236   0.00222   0.00077
  98        6D-2        0.00343  -0.00152   0.00064   0.00117   0.00011
  99 8   C  1S          0.00711   0.01027   0.02069  -0.00579   0.01393
 100        2S         -0.02187  -0.02656  -0.04958   0.01746  -0.02934
 101        3S          0.03300  -0.04525  -0.09666   0.02538  -0.09087
 102        4PX         0.00971   0.00968   0.04573   0.00003   0.03716
 103        4PY        -0.01496  -0.02583  -0.04950   0.00546  -0.03578
 104        4PZ        -0.01957  -0.03386  -0.05377   0.01581  -0.03429
 105        5PX         0.01476  -0.01132   0.02232   0.02078   0.01807
 106        5PY         0.01175   0.00411  -0.02872  -0.02051  -0.03935
 107        5PZ         0.01285  -0.02658  -0.02999   0.02060  -0.02239
 108        6D 0        0.00060  -0.00052  -0.00024  -0.00037  -0.00062
 109        6D+1       -0.00019   0.00282   0.00156  -0.00258   0.00026
 110        6D-1       -0.00171   0.00054  -0.00317  -0.00123  -0.00262
 111        6D+2        0.00068  -0.00100   0.00192   0.00138   0.00212
 112        6D-2        0.00060   0.00228   0.00030  -0.00238  -0.00138
 113 9   C  1S         -0.00882   0.00390  -0.02409  -0.00733  -0.02327
 114        2S          0.02354  -0.01362   0.05653   0.02301   0.05561
 115        3S         -0.00099   0.00072   0.11891   0.02587   0.11589
 116        4PX         0.03502  -0.00636  -0.01030   0.00491  -0.01696
 117        4PY         0.04746  -0.00476   0.08277   0.01031   0.06447
 118        4PZ        -0.03975   0.00082  -0.08800  -0.01643  -0.07268
 119        5PX         0.01849  -0.01764   0.01114   0.02122   0.01817
 120        5PY         0.01157   0.03060   0.06276  -0.02562   0.03616
 121        5PZ        -0.03000  -0.00010  -0.06989  -0.01919  -0.05293
 122        6D 0        0.00198  -0.00226   0.00223   0.00208   0.00236
 123        6D+1       -0.00004  -0.00108  -0.00195   0.00146  -0.00144
 124        6D-1       -0.00183  -0.00004  -0.00254  -0.00083  -0.00157
 125        6D+2        0.00047  -0.00051  -0.00271  -0.00030  -0.00260
 126        6D-2       -0.00202   0.00282   0.00281  -0.00269   0.00229
 127 10  N  1S          0.00075   0.06107  -0.02513   0.07947   0.01634
 128        2S          0.00465   0.12236  -0.05599   0.16506   0.03833
 129        3S         -0.02894   0.17579  -0.03454   0.23113   0.00707
 130        4PX        -0.00398  -0.20411   0.09720  -0.21581  -0.07939
 131        4PY         0.01096   0.25943  -0.02969   0.30158  -0.03915
 132        4PZ        -0.00020   0.03772  -0.22213  -0.07858   0.32092
 133        5PX         0.01463   0.13233  -0.06960   0.11371   0.06233
 134        5PY        -0.00858  -0.17606   0.02140  -0.20661   0.02800
 135        5PZ        -0.00588  -0.02923   0.16268   0.05929  -0.25656
 136        6D 0       -0.00089   0.00708   0.00318   0.01210  -0.00490
 137        6D+1       -0.00325   0.00172  -0.00146   0.00106   0.00341
 138        6D-1       -0.00084  -0.00444   0.01341   0.00224  -0.01514
 139        6D+2        0.00027   0.00670   0.00255   0.00474  -0.00427
 140        6D-2        0.00216   0.00989  -0.00601   0.01315   0.00393
 141 11  C  1S          0.00043   0.03394  -0.01190   0.03107   0.00409
 142        2S         -0.00010  -0.08374   0.03074  -0.08163  -0.01165
 143        3S          0.01010   0.00688  -0.01246  -0.00118   0.02203
 144        4PX         0.00552   0.04254  -0.03199   0.02855   0.02369
 145        4PY         0.01102   0.08373  -0.06381   0.04137   0.04070
 146        4PZ        -0.03856   0.03223   0.15007   0.08653  -0.09494
 147        5PX        -0.00572   0.09194  -0.03538   0.11288   0.01370
 148        5PY         0.00367  -0.02380  -0.00419  -0.04717   0.00697
 149        5PZ        -0.01533   0.00667   0.09469   0.05217  -0.08519
 150        6D 0       -0.00408  -0.00232  -0.00651  -0.00699   0.01718
 151        6D+1       -0.02474  -0.00525   0.00864  -0.00687   0.01222
 152        6D-1        0.00590  -0.00067  -0.01737  -0.00998   0.02586
 153        6D+2        0.00701  -0.00676  -0.00427  -0.01177   0.00407
 154        6D-2        0.00445  -0.02052   0.00767  -0.01968  -0.01076
 155 12  O  1S          0.00224   0.00669  -0.00363   0.01209   0.00025
 156        2S          0.00375   0.01555  -0.00804   0.02595   0.00221
 157        3S          0.01608   0.05282  -0.02137   0.08825  -0.00677
 158        4PX        -0.05900   0.02828   0.03759   0.04621  -0.02029
 159        4PY        -0.09718  -0.10603   0.10612  -0.07834  -0.05246
 160        4PZ         0.26677  -0.03229  -0.21810  -0.11162   0.11654
 161        5PX        -0.05390   0.02830   0.02890   0.04510  -0.01381
 162        5PY        -0.07735  -0.08125   0.08496  -0.06570  -0.04039
 163        5PZ         0.20598  -0.02452  -0.17936  -0.09468   0.10603
 164        6D 0       -0.00313  -0.00039   0.00231   0.00037  -0.00058
 165        6D+1        0.00259   0.00054   0.00041   0.00052   0.00032
 166        6D-1       -0.00660   0.00198   0.00253   0.00271  -0.00058
 167        6D+2       -0.00309  -0.00189   0.00177  -0.00164  -0.00037
 168        6D-2        0.00081   0.00269  -0.00163   0.00207   0.00045
 169 13  C  1S          0.00222  -0.02618   0.00549  -0.02592  -0.00291
 170        2S         -0.00299   0.06465  -0.01148   0.06394   0.00578
 171        3S         -0.05680   0.11429  -0.04691   0.13974   0.04999
 172        4PX         0.02176   0.05362  -0.01958   0.03568   0.01012
 173        4PY         0.04628  -0.11247   0.00427  -0.11969   0.00466
 174        4PZ        -0.11509  -0.00772   0.06060   0.00957  -0.02598
 175        5PX        -0.01491   0.02353  -0.00033   0.01594   0.00521
 176        5PY         0.03118  -0.09890   0.02816  -0.11445  -0.01403
 177        5PZ        -0.03859  -0.00712   0.00622  -0.00753  -0.00357
 178        6D 0        0.00941  -0.00196  -0.00650  -0.00373   0.00260
 179        6D+1        0.01203   0.00249  -0.00879   0.00003   0.00321
 180        6D-1       -0.00365  -0.00075   0.00326   0.00082  -0.00328
 181        6D+2       -0.00247   0.00049   0.00125   0.00070  -0.00035
 182        6D-2       -0.00285   0.00298   0.00157   0.00564  -0.00009
 183 14  C  1S         -0.00261   0.01780  -0.00601   0.02590   0.00268
 184        2S         -0.00038  -0.04077   0.01043  -0.06572   0.00178
 185        3S          0.10228  -0.05003   0.05376  -0.06496  -0.09479
 186        4PX        -0.01399  -0.09651   0.05156  -0.11846  -0.03892
 187        4PY        -0.05405   0.05908   0.02814   0.06063  -0.02707
 188        4PZ         0.06889   0.01236  -0.08900  -0.03794   0.09143
 189        5PX        -0.00405  -0.03002  -0.01491  -0.06362   0.03511
 190        5PY        -0.01363  -0.02324   0.01889  -0.04594  -0.00693
 191        5PZ         0.06204   0.00217  -0.00162  -0.01183  -0.01342
 192        6D 0       -0.00012  -0.00105   0.00327   0.00104  -0.00501
 193        6D+1        0.00046  -0.00371   0.01181   0.00166  -0.01732
 194        6D-1       -0.00581  -0.00144   0.00673   0.00144  -0.00655
 195        6D+2       -0.00001  -0.00835   0.00127  -0.00796   0.00038
 196        6D-2        0.00179  -0.01404   0.00061  -0.01834   0.00267
 197 15  H  1S         -0.04356  -0.04366   0.09890   0.00554  -0.11140
 198        2S         -0.02202  -0.01332   0.06538   0.01733  -0.07897
 199        3PX        -0.00091  -0.00136   0.00106  -0.00191  -0.00005
 200        3PY        -0.00113   0.00127   0.00210   0.00265  -0.00266
 201        3PZ        -0.00067  -0.00167   0.00199  -0.00077  -0.00180
 202 16  C  1S         -0.00533   0.00314   0.01527   0.01239  -0.02092
 203        2S          0.02012  -0.00859  -0.03291  -0.02836   0.04164
 204        3S         -0.04839  -0.02721  -0.12140  -0.12093   0.20103
 205        4PX         0.02268   0.02390  -0.05682  -0.01561   0.06683
 206        4PY         0.05543  -0.03108  -0.06355  -0.04664   0.07279
 207        4PZ        -0.05848   0.00929   0.06891   0.04240  -0.07796
 208        5PX         0.00835   0.02017  -0.03648   0.00346   0.02943
 209        5PY        -0.01792   0.01040  -0.06548  -0.00459   0.10983
 210        5PZ        -0.03006   0.05312   0.03601   0.08125  -0.05666
 211        6D 0       -0.00043  -0.00059   0.00040   0.00016  -0.00009
 212        6D+1       -0.00255   0.00081   0.00164   0.00199  -0.00143
 213        6D-1       -0.00299   0.00028   0.00350   0.00110  -0.00375
 214        6D+2        0.00040  -0.00440   0.00264  -0.00276  -0.00317
 215        6D-2        0.00146  -0.00071  -0.00202  -0.00187   0.00213
 216 17  C  1S         -0.00174   0.00673  -0.00272   0.00497   0.00346
 217        2S          0.00408  -0.01597   0.00689  -0.01385  -0.01009
 218        3S          0.02314   0.00338   0.01328   0.03118  -0.04074
 219        4PX        -0.00962  -0.03409   0.03429  -0.00917  -0.03747
 220        4PY         0.01134   0.00716   0.00170   0.00027  -0.00846
 221        4PZ         0.01276  -0.00871  -0.00288  -0.00504   0.00002
 222        5PX        -0.00670  -0.01043   0.03278   0.01968  -0.04439
 223        5PY         0.01098   0.00018   0.00284  -0.00577  -0.01111
 224        5PZ         0.01231  -0.01476   0.00583  -0.01026  -0.01135
 225        6D 0       -0.00104  -0.00022   0.00102   0.00029  -0.00104
 226        6D+1       -0.00197  -0.00065   0.00296   0.00058  -0.00328
 227        6D-1       -0.00059  -0.00010   0.00081  -0.00020  -0.00084
 228        6D+2        0.00046  -0.00130  -0.00012  -0.00075   0.00030
 229        6D-2        0.00195  -0.00120  -0.00235  -0.00132   0.00271
 230 18  C  1S          0.00342  -0.00144  -0.00145  -0.00008  -0.00067
 231        2S         -0.00642   0.00659   0.00254  -0.00233  -0.00070
 232        3S         -0.03082  -0.00573   0.01178   0.04840   0.03277
 233        4PX        -0.00869  -0.05481   0.01205  -0.03471   0.00181
 234        4PY        -0.03697   0.02957   0.01841   0.02575  -0.01525
 235        4PZ         0.01526  -0.00698  -0.00517  -0.00625   0.00561
 236        5PX         0.00297  -0.05237   0.00897  -0.02236   0.00953
 237        5PY        -0.02810   0.04219   0.01120   0.04660  -0.01080
 238        5PZ         0.00203  -0.02087   0.00030  -0.01388   0.01106
 239        6D 0       -0.00039   0.00029   0.00046   0.00006  -0.00083
 240        6D+1       -0.00045  -0.00153   0.00028  -0.00098   0.00032
 241        6D-1       -0.00289   0.00038   0.00246   0.00116  -0.00238
 242        6D+2       -0.00065  -0.00223   0.00183   0.00014  -0.00178
 243        6D-2        0.00236   0.00070  -0.00200  -0.00004   0.00141
 244 19  C  1S          0.00370   0.00060  -0.00058   0.00008  -0.00124
 245        2S         -0.01233   0.00009  -0.00008  -0.00127   0.00503
 246        3S          0.02741  -0.05349   0.04867  -0.02660  -0.04536
 247        4PX        -0.01218  -0.01545  -0.01077  -0.01761   0.02428
 248        4PY        -0.00304   0.00852   0.00165   0.00567  -0.00235
 249        4PZ         0.03738  -0.00111  -0.02857  -0.01602   0.02760
 250        5PX         0.00831  -0.01000  -0.01490  -0.00860   0.03124
 251        5PY         0.00394   0.01137  -0.00032   0.01103  -0.00871
 252        5PZ         0.00316   0.00890  -0.03261  -0.01097   0.05302
 253        6D 0        0.00119  -0.00053  -0.00157  -0.00143   0.00168
 254        6D+1       -0.00133  -0.00087   0.00127   0.00026  -0.00098
 255        6D-1       -0.00265   0.00097   0.00214   0.00185  -0.00206
 256        6D+2        0.00072  -0.00150   0.00013  -0.00070  -0.00012
 257        6D-2        0.00048  -0.00058   0.00040  -0.00032  -0.00073
 258 20  H  1S         -0.01565  -0.00244   0.01336  -0.02268   0.01635
 259        2S         -0.02815  -0.02357  -0.02297   0.00017   0.00395
 260        3PX        -0.00080  -0.00042  -0.00104   0.00082  -0.00063
 261        3PY         0.00012  -0.00005   0.00136  -0.00014   0.00171
 262        3PZ         0.00398  -0.00050   0.00013   0.00076  -0.00289
 263 21  H  1S          0.10686  -0.00802  -0.01844   0.02091  -0.10016
 264        2S          0.06783  -0.01477  -0.02902   0.00123  -0.06977
 265        3PX         0.00198   0.00008  -0.00016   0.00059  -0.00267
 266        3PY        -0.00030  -0.00032   0.00052   0.00052  -0.00085
 267        3PZ        -0.00250   0.00030   0.00097   0.00004   0.00092
 268 22  H  1S         -0.09368   0.00007   0.00612   0.00240   0.08510
 269        2S         -0.06525  -0.01330   0.04244   0.00122   0.05005
 270        3PX        -0.00114   0.00053  -0.00028  -0.00027   0.00407
 271        3PY         0.00178  -0.00019  -0.00155  -0.00042   0.00070
 272        3PZ        -0.00073  -0.00027   0.00005   0.00021   0.00070
 273 23  H  1S          0.15127  -0.01932   0.08805   0.03467   0.02999
 274        2S          0.08920  -0.02264   0.06561   0.03889   0.02636
 275        3PX        -0.00278  -0.00138  -0.00059   0.00106   0.00054
 276        3PY        -0.00284  -0.00132  -0.00182   0.00096   0.00040
 277        3PZ         0.00239  -0.00201   0.00062   0.00179   0.00057
 278 24  H  1S         -0.10024  -0.04306  -0.06725   0.02389  -0.00743
 279        2S         -0.05993  -0.04651  -0.05190   0.03858   0.00422
 280        3PX         0.00300  -0.00056   0.00165   0.00083   0.00055
 281        3PY         0.00275  -0.00304   0.00151   0.00348   0.00144
 282        3PZ         0.00113   0.00117   0.00079  -0.00059   0.00015
 283 25  H  1S          0.00543  -0.00098   0.00564   0.00008   0.00323
 284        2S          0.01054   0.00896   0.04822  -0.00062   0.04447
 285        3PX         0.00018   0.00006  -0.00007  -0.00009  -0.00033
 286        3PY        -0.00038  -0.00122  -0.00014   0.00094   0.00043
 287        3PZ        -0.00081  -0.00090  -0.00069   0.00061   0.00020
 288 26  H  1S          0.00128   0.02095   0.00171  -0.01267  -0.00677
 289        2S          0.00596   0.03851   0.01449  -0.03285  -0.00472
 290        3PX         0.00038   0.00045   0.00105   0.00015   0.00095
 291        3PY         0.00011   0.00027  -0.00074  -0.00006  -0.00080
 292        3PZ        -0.00090  -0.00058  -0.00148   0.00034  -0.00094
 293 27  H  1S          0.00042  -0.00212   0.02918   0.01076   0.03118
 294        2S         -0.00487   0.01044   0.03380  -0.00449   0.03423
 295        3PX         0.00030  -0.00007  -0.00012   0.00007  -0.00015
 296        3PY        -0.00082  -0.00084  -0.00090   0.00025  -0.00045
 297        3PZ        -0.00082  -0.00063  -0.00195  -0.00008  -0.00159
 298 28  H  1S         -0.00583  -0.01006  -0.00065   0.00292   0.00494
[...]
 0084291,0.00024980,0.00034400,-0.01062623,0.00833654,0.01358198,-0.059
 28831,0.10014957,0.00002693,0.00006984,-0.00000021,0.00037185,-0.00008
 875,0.00003883,-0.00027323,-0.00015443,-0.00006413,0.00009652,0.000106
 01,0.00004741,-0.00005523,-0.00003461,-0.00002931,-0.00003424,-0.00002
 632,0.00000270,0.00013065,0.00000435,0.00002352,0.00001090,0.00000327,
 0.00000830,0.00001793,-0.00000066,0.00000153,0.00001713,-0.00011497,0.
 00025031,-0.00044276,0.00039609,0.00004659,0.00019550,-0.00050687,-0.0
 0007820,0.00053523,0.00027468,-0.00014824,-0.00133830,-0.00162372,0.00
 042799,-0.00001887,0.00012724,0.00051887,0.00257563,-0.00152471,-0.006
 14553,0.00084558,0.00063552,0.00024397,0.10422101,-0.08536627,-0.20348
 292,-0.00028161,0.00072715,0.00056847,0.00000619,-0.00001057,0.0000003
 7,-0.00001235,-0.00001002,-0.00000071,-0.00001264,0.00000171,0.0000072
 8,0.00000592,0.00000759,-0.00000291,0.00000961,-0.00000419,0.00000426,
 -0.00000823,0.00000007,0.00000433,-0.00000831,-0.00000269,-0.00000614,
 0.00001183,0.00000257,0.00000085,-0.00000200,-0.00000220,-0.00000354,0
 .00000910,0.00000424,0.00001006,-0.00000355,0.00000035,-0.00000577,-0.
 00004099,-0.00011740,-0.00002514,-0.00007592,-0.00008137,0.00007487,0.
 00005678,-0.00008460,-0.00020723,-0.00013914,0.00026772,0.00030075,-0.
 00074230,-0.00020594,0.00027843,0.01211891,-0.01180350,-0.01550982,-0.
 11307836,0.09505326,0.21560392,-0.00000687,0.00000559,-0.00000787,-0.0
 0008228,-0.00003223,0.00001840,0.00012013,0.00021294,-0.00001660,-0.00
 001201,-0.00016511,-0.00009238,-0.00003925,-0.00004995,-0.00003169,-0.
 00000610,-0.00001382,-0.00000292,0.00006823,-0.00007742,0.00004425,0.0
 0000301,0.00000280,0.00000432,-0.00000773,0.00005152,0.00001761,-0.000
 13636,0.00096741,0.00087878,0.00026062,-0.00024252,0.00003083,0.000316
 28,0.00023815,-0.00003811,-0.00018415,0.00006433,-0.00008168,-0.000552
 01,0.00007004,0.00038836,-0.00001205,-0.00005771,0.00005391,-0.0094129
 6,0.00165278,-0.00182478,0.00001424,-0.00310859,-0.00040262,-0.3045403
 8,0.01238731,-0.06938658,0.00060210,0.00120350,-0.00026967,0.00000109,
 0.00000413,0.00000093,-0.00000190,-0.00000615,-0.00000059,-0.00000211,
 -0.00000250,0.00000259,0.00000332,-0.00000154,-0.00000278,0.00000453,-
 0.00000375,0.00000159,0.00000065,-0.00000193,0.00000035,0.00000161,-0.
 00000135,-0.00000025,0.00000508,0.00000058,-0.00000220,0.00000594,-0.0
 0001027,-0.00000240,0.00001381,-0.00001320,-0.00000216,-0.00000292,-0.
 00003722,-0.00002491,-0.00001246,-0.00002696,-0.00000834,0.00000299,0.
 00006724,-0.00001850,0.00016645,0.00012731,0.00005218,-0.00068492,0.00
 008020,-0.00022312,0.00034995,0.00007733,-0.00005860,-0.00035719,-0.00
 051247,0.00102940,-0.01236373,0.00028891,-0.00465542,0.32599258,-0.000
 00783,-0.00010809,-0.00000174,-0.00041821,0.00013179,0.00002358,0.0003
 0438,0.00000086,0.00005507,-0.00015451,-0.00008812,0.00013138,0.000118
 54,0.00009043,0.00003127,0.00004998,0.00004440,-0.00001418,-0.00018824
 ,0.00001789,-0.00006035,-0.00002567,0.00002941,-0.00000961,-0.00005490
 ,0.00002485,-0.00000993,0.00022529,-0.00008911,0.00022045,0.00032938,-
 0.00104571,0.00001572,0.00056866,0.00047693,-0.00010527,-0.00022164,0.
 00002836,0.00012429,-0.00054684,0.00107322,0.00042810,0.00004445,-0.00
 008381,-0.00004047,-0.02810778,0.00326082,-0.00624590,-0.00146255,-0.0
 0565325,-0.00121538,0.01481822,-0.04706947,0.00458245,-0.00107241,0.00
 165188,-0.00065029,-0.00000414,0.00001338,0.00000110,0.00000541,0.0000
 1532,-0.00000689,0.00000617,0.00001538,0.00000639,-0.00001140,-0.00000
 895,0.00000608,-0.00001212,0.00000714,-0.00000336,0.00000650,-0.000001
 69,-0.00000208,-0.00000168,-0.00001278,0.00000511,-0.00000914,-0.00001
 723,0.00000455,0.00002370,-0.00002873,0.00001604,-0.00001728,-0.000014
 09,-0.00000721,0.00002176,0.00002987,-0.00000221,0.00001858,0.00002214
 ,0.00003090,-0.00001544,0.00011261,-0.00000220,0.00006863,-0.00001084,
 -0.00023215,-0.00199296,0.00004866,-0.00038558,0.00007937,-0.00009080,
 0.00021039,0.01760017,-0.00132390,0.00341664,0.01190725,-0.00158245,0.
 00427642,-0.01260086,0.05046786,-0.00001806,-0.00013591,0.00000962,-0.
 00028021,0.00022853,0.00000069,0.00015380,-0.00027028,0.00007713,-0.00
 006635,0.00017242,0.00001653,0.00013990,0.00008840,0.00009390,0.000043
 66,0.00004780,-0.00001814,-0.00026058,0.00017349,-0.00008683,-0.000009
 46,-0.00003666,-0.00002970,-0.00001059,-0.00002468,-0.00002095,-0.0001
 0683,0.00044193,0.00005806,0.00045975,-0.00120586,0.00009961,0.0007390
 7,0.00074793,-0.00002976,-0.00020609,0.00012599,0.00005168,-0.00133676
 ,0.00053256,0.00006311,-0.00002883,-0.00006431,0.00011927,-0.00513472,
 0.00145402,-0.00311134,0.00017013,-0.00114855,-0.00018786,-0.06836786,
 0.00362311,-0.06360066,0.00088746,0.00043478,0.00015619,-0.00000786,0.
 00001233,-0.00000025,0.00000806,0.00003449,-0.00000721,0.00000911,0.00
 001911,0.00000435,-0.00000935,-0.00001287,0.00000493,-0.00002004,0.000
 01603,-0.00000648,0.00001288,0.00000528,-0.00001031,0.00002357,0.00001
 926,0.00001088,-0.00002696,0.00000495,0.00000072,-0.00001331,0.0000340
 4,0.00000312,-0.00001235,-0.00000189,-0.00002155,0.00002970,-0.0000087
 4,0.00005938,0.00003833,-0.00000382,0.00001837,0.00006263,0.00007953,-
 0.00000324,0.00034422,-0.00009699,0.00016374,-0.00043993,-0.00004425,0
 .00056610,-0.00029363,0.00009355,0.00022512,-0.02449292,0.00063025,-0.
 00579694,0.02354587,-0.00097863,0.00677838,0.07426660,-0.00492693,0.06
 411517,-0.00000201,-0.00011391,0.00006789,0.00010841,0.00020814,0.0000
 2264,-0.00017781,-0.00032759,-0.00005083,0.00004524,0.00016997,0.00009
 184,-0.00001864,-0.00001948,-0.00003357,-0.00002686,-0.00002314,0.0000
 0508,0.00003353,0.00010163,-0.00000960,0.00000929,0.00000249,0.0000113
 7,0.00001490,-0.00000424,-0.00000365,-0.00019072,0.00072541,0.00040940
 ,-0.00095074,-0.00132889,0.00003950,0.00039181,0.00099707,-0.00037789,
 0.00060122,-0.00005412,-0.00000530,0.00034367,-0.00111754,-0.00038611,
 -0.00009799,0.00010114,0.00012227,0.00047652,0.00613583,0.00239848,0.0
 0080737,0.00091222,0.00051052,0.00011766,0.00071505,-0.00083667,-0.086
 67793,-0.09498638,-0.01549859,0.00000314,0.00001244,-0.00002149,-0.000
 04064,0.00007819,-0.00002006,-0.00001100,0.00003050,0.00000469,0.00000
 192,0.00000715,0.00000344,0.00000551,-0.00000197,-0.00000062,-0.000003
 78,-0.00000175,0.00000620,-0.00000038,0.00000546,-0.00000409,0.0000029
 8,0.00000381,-0.00000211,0.00001806,-0.00002167,0.00000285,-0.00000963
 ,0.00000470,0.00001712,0.00001075,0.00002719,-0.00000893,0.00005091,0.
 00005582,-0.00007204,0.00024665,-0.00007468,-0.00010232,0.00006725,-0.
 00014354,0.00015030,0.00006795,-0.00019424,-0.00020709,-0.00002594,0.0
 0006349,0.00004213,0.00063598,0.00018687,-0.00011386,-0.00001886,-0.00
 023857,-0.00013711,0.00033987,0.00026177,0.00001706,0.08724457,-0.0000
 0683,-0.00004522,0.00000835,0.00005174,0.00016318,0.00000061,-0.000063
 97,-0.00016602,-0.00000630,0.00002910,0.00010194,0.00002225,-0.0000071
 1,-0.00001312,-0.00001014,-0.00000752,-0.00000958,0.00000468,-0.000002
 69,0.00007093,-0.00000761,0.00000729,-0.00000784,0.00000256,0.00001394
 ,-0.00001447,0.00000115,-0.00005283,0.00059452,0.00033338,-0.00061822,
 -0.00095364,0.00008920,0.00034353,0.00056417,-0.00040608,-0.00065034,0
 .00008147,-0.00076259,0.00034232,-0.00063052,-0.00115624,0.00000851,0.
 00004999,0.00001397,-0.00733395,-0.01580742,-0.00479735,-0.00101556,0.
 00051994,-0.00083736,0.00149916,-0.00137738,0.00471402,-0.09484103,-0.
 27007363,-0.03342548,-0.00000026,0.00000459,-0.00000345,-0.00001587,0.
 00002513,-0.00000359,-0.00001039,0.00001615,0.00001431,0.00000010,0.00
 000225,0.00000286,0.00000138,-0.00000033,-0.00000157,-0.00000021,-0.00
 000016,0.00000221,0.00000285,0.00000705,-0.00000057,-0.00000123,0.0000
 0454,-0.00000235,0.00000194,-0.00000152,-0.00000110,-0.00000446,0.0000
 0474,0.00000600,0.00000572,0.00001007,0.00000006,0.00041048,0.00019418
 ,-0.00022945,0.00031961,0.00055802,-0.00000420,0.00006766,0.00034191,0
 .00007557,0.00079213,0.00022238,0.00039166,-0.00000998,-0.00009560,0.0
 0002199,-0.00047535,-0.00127573,-0.00019982,0.00006921,0.00033772,-0.0
 0009367,0.00011528,0.00026550,-0.00011350,0.10348381,0.29207152,-0.000
 02158,-0.00007305,0.00001869,-0.00028756,-0.00002915,-0.00006407,0.000
 19293,0.00011798,0.00003907,-0.00007825,-0.00008070,-0.00000305,0.0000
 3400,0.00002349,0.00000357,0.00002204,0.00001475,0.00000124,-0.0000935
 2,-0.00001111,-0.00002279,-0.00000775,0.00000432,-0.00000290,-0.000015
 51,-0.00000133,0.00000258,-0.00004953,-0.00038883,-0.00011306,0.000849
 66,0.00046675,0.00015822,-0.00079831,-0.00038204,-0.00004832,0.0010132
 2,0.00004279,-0.00185900,0.00031859,0.00026475,0.00139394,-0.00022162,
 -0.00006832,0.00023033,0.01068718,0.02191737,0.00543672,0.00101592,-0.
 00023887,0.00094664,-0.00105374,0.00237426,-0.00411313,-0.01563278,-0.
 03412460,-0.05108829,-0.00000738,0.00000491,-0.00000179,0.00001682,0.0
 0000542,0.00000831,0.00002268,-0.00000549,-0.00001445,-0.00000513,-0.0
 0000323,0.00000286,-0.00000681,0.00000041,-0.00000300,0.00000280,0.000
 00149,-0.00000004,0.00000144,-0.00000141,-0.00000041,-0.00000515,-0.00
 000505,0.00000054,0.00000673,-0.00000641,0.00000404,-0.00000749,-0.000
 00345,-0.00000471,0.00000425,0.00000710,-0.00000438,-0.00018686,-0.000
 03656,0.00017707,-0.00068008,-0.00051293,-0.00109617,0.00021668,-0.000
 20592,-0.00002255,-0.00042131,-0.00028940,0.00010215,-0.00010401,-0.00
 012889,-0.00007177,0.00031425,0.00159484,0.00035968,-0.00020965,0.0002
 4846,0.00011191,0.00002473,-0.00015516,-0.00014168,0.01734037,0.035660
 07,0.05450023,0.00000841,0.00005414,-0.00003607,0.00011125,-0.00012331
 ,-0.00015113,0.00002529,0.00018359,-0.00001222,0.00004381,-0.00006312,
 -0.00007504,-0.00000498,-0.00000753,-0.00001897,-0.00000186,0.00000230
 ,0.,0.00001802,-0.00004891,0.00002968,0.00000317,-0.00000084,0.0000030
 9,0.00000831,-0.00000340,0.00001004,0.00026550,-0.00023039,0.00129036,
 0.00007004,0.00003878,0.00078385,0.00006845,-0.00040303,-0.00000368,-0
 .00046222,0.00010344,-0.00032684,-0.00103680,0.00058477,0.00062578,-0.
 00000748,-0.00005736,-0.00010705,-0.00544871,-0.00006089,-0.00113728,0
 .00092469,0.00139117,-0.00148465,0.00057185,-0.00079301,0.00047589,-0.
 31458631,0.02085788,-0.03844728,0.00000028,-0.00000408,0.00000863,0.00
 000494,-0.00005092,0.00000371,-0.00000297,-0.00001293,0.00001375,-0.00
 000091,0.00000031,0.00000099,0.00000306,-0.00000165,-0.00000001,-0.000
 00081,0.00000100,0.00000185,0.,0.00000006,-0.00000231,0.00000104,0.000
 00079,-0.00000059,0.00000401,0.00000437,-0.00000613,0.00000294,0.00000
 308,-0.00000476,0.00000069,0.00000022,-0.00000474,0.00005874,-0.000002
 69,-0.00003730,0.00004387,0.00013751,-0.00001704,-0.00043298,0.0000121
 2,-0.00001466,0.00013960,-0.00007322,0.00014133,0.00023261,-0.00017849
 ,0.00009517,0.00026595,-0.00002985,0.00000717,-0.00006341,-0.00002805,
 -0.00005086,0.00034201,0.00037573,-0.00000655,-0.00795245,0.00242829,-
 0.00058559,0.33669276,0.00001366,0.00007355,-0.00008691,0.00008606,-0.
 00019585,0.00011208,0.00017314,0.00035365,-0.00003169,0.00000881,-0.00
 017834,-0.00011731,0.00000852,0.00000905,0.00003705,0.00002247,0.00001
 995,-0.00001129,0.00001893,-0.00011900,0.00003947,-0.00000969,0.000000
 98,-0.00000813,-0.00001017,0.00002935,-0.00001130,-0.00007222,-0.00019
 632,-0.00042742,-0.00004994,0.00080261,-0.00040483,-0.00023245,-0.0005
 2838,0.00005030,-0.00055254,-0.00024119,-0.00011665,0.00008859,0.00045
 587,-0.00059570,0.00009176,-0.00006100,-0.00008956,0.01892405,-0.00233
 456,0.00080154,0.00009827,-0.00251879,0.00332723,0.00166492,0.00094430
 ,-0.00013289,0.01926436,-0.04850719,0.00239307,0.00000313,-0.00000250,
 0.00001634,-0.00000056,-0.00007404,0.00000147,-0.00000831,-0.00001796,
 0.00001591,-0.00000050,-0.00000787,-0.00000398,-0.00000100,0.00000129,
 0.00000136,0.00000238,-0.00000009,-0.00000550,-0.00000157,-0.00000739,
 0.00000459,-0.00000021,-0.00000402,0.00000237,-0.00001127,0.00002265,0
 .00000240,0.00001295,-0.00001243,-0.00001332,-0.00001645,-0.00003831,0
 .00001280,0.00011693,0.00004756,-0.00006984,0.00013868,0.00009197,0.00
 004755,0.00128146,0.00021154,0.00053996,0.00016911,0.00018284,0.000129
 14,-0.00035246,0.00002893,-0.00001062,-0.00024669,0.00020757,-0.000156
 74,0.00000269,-0.00001619,0.00004330,-0.00055432,-0.00056983,0.0001185
 0,-0.02805860,0.00393590,-0.00318108,-0.02389645,0.04990821,-0.0000411
 6,-0.00021984,-0.00002037,-0.00077255,0.00013432,-0.00006118,0.0007520
 0,0.00027982,0.00009066,-0.00027023,-0.00023949,0.00004723,0.00015820,
 0.00010418,0.00007175,0.00007957,0.00005848,-0.00000552,-0.00030902,0.
 00001086,-0.00008572,-0.00003361,-0.00000444,-0.00003434,-0.00005273,-
 0.00002658,-0.00000242,0.00008623,0.00051702,0.00069634,0.00105882,-0.
 00253998,-0.00121193,0.00083717,0.00056725,0.00006056,-0.00070060,0.00
 013656,-0.00036417,-0.00128428,-0.00026183,0.00090445,0.00005357,0.000
 05175,0.00027376,-0.02525181,0.00084534,-0.00293457,0.00016103,0.00328
 615,-0.00422371,-0.00024223,-0.00120560,0.00046808,-0.03660701,0.00262
 187,-0.04957501,-0.00001201,0.00003032,0.00000996,0.00002595,0.0000235
 8,-0.00000143,0.00001581,0.00002513,0.00000288,-0.00001579,-0.00001757
 ,0.00000373,-0.00002655,0.00001005,-0.00000684,0.00001336,0.00000759,-
 0.00001010,0.00001022,-0.00000204,0.00000610,-0.00002234,-0.00001554,0
 .00000532,-0.00000165,0.00002429,0.00001479,-0.00001579,-0.00000729,-0
 .00003145,0.00000953,-0.00000629,0.00001954,0.00009080,-0.00003423,0.0
 0000371,0.00008924,0.00017686,0.00003168,-0.00167664,0.00050548,-0.000
 17432,0.00029358,-0.00008517,0.00001167,-0.00007480,0.00016947,0.00017
 708,0.00011979,-0.00020724,-0.00006282,0.00016591,-0.00003092,-0.00001
 653,0.00029251,0.00041529,0.00042800,-0.00457890,0.00079464,-0.0019401
 7,0.04181227,-0.00488925,0.05305249,-0.00001515,-0.00008980,-0.0000258
 8,-0.00023968,0.00002158,-0.00003450,0.00034844,0.00014818,0.00000830,
 -0.00011819,-0.00012322,0.00000863,0.00008097,0.00005033,0.00004175,0.
 00004137,0.00003144,-0.00000486,-0.00013590,-0.00001225,-0.00003040,-0
 .00001689,-0.00000077,-0.00001616,-0.00002668,0.00000078,-0.00001544,0
 .00030300,0.00014883,0.00111098,0.00020239,-0.00094532,-0.00010302,0.0
 0022286,0.00009797,-0.00017785,-0.00028421,0.00021480,-0.00021348,-0.0
 0089152,0.00079537,-0.00140313,0.00029878,-0.00008415,-0.00033334,0.00
 117180,-0.00256271,-0.00653214,0.00078473,-0.00062275,-0.00098721,0.00
 002008,0.00003884,0.00018271,-0.08847844,0.04256469,0.09291866,-0.0000
 0375,0.00001379,0.00000597,0.00000646,-0.00000568,-0.00000407,0.000005
 31,0.00000749,0.00000859,-0.00000765,-0.00000970,0.00000127,-0.0000119
 4,0.00000557,-0.00000312,0.00000639,0.00000261,-0.00000549,0.00000514,
 -0.00000199,0.00000421,-0.00001095,-0.00000765,0.00000304,0.00000593,0
 .00000963,0.00001431,-0.00001079,-0.00000771,-0.00001053,0.00000432,-0
 .00000503,0.00001474,0.00009993,0.00004426,-0.00002256,0.00011398,0.00
 010887,0.00022124,0.00005543,-0.00010970,0.00018890,-0.00003448,-0.000
 05376,-0.00005601,0.00004214,0.00029857,0.00011773,-0.00009641,-0.0001
 4470,-0.00017754,0.00022216,-0.00023810,0.00014821,-0.00019709,0.00009
 167,0.00019743,0.00456021,-0.00487625,-0.01160470,-0.00990940,0.011884
 54,0.02586414,0.09188729,-0.00000432,-0.00000627,0.00002629,0.00005031
 ,0.00010868,0.00002930,-0.00011400,-0.00004947,-0.00000669,0.00005012,
 0.00002826,-0.00000621,-0.00002917,-0.00001368,-0.00000703,-0.00002370
 ,-0.00001308,-0.00000055,0.00006519,0.00000822,0.00001322,0.00000368,0
 .00000306,0.00000512,0.00000667,0.00000928,0.00000235,0.00024881,0.000
 22519,-0.00022521,-0.00068410,-0.00070191,-0.00001643,0.00033736,0.000
 51514,-0.00027931,-0.00002087,-0.00016512,-0.00003945,0.00103135,-0.00
 320243,0.00311494,-0.00047989,0.00053345,0.00107221,-0.00850288,0.0066
 4577,0.01719737,-0.00074843,0.00053853,-0.00007514,-0.00046401,0.00123
 973,0.00086560,0.04289613,-0.08485808,-0.08975041,0.00000532,0.0000073
 9,-0.00000909,-0.00002312,0.00002906,-0.00001077,-0.00001288,0.0000102
 2,0.00000804,0.00000400,0.00000257,-0.00000246,0.00000529,-0.00000075,
 0.00000242,-0.00000212,-0.00000194,0.00000056,-0.00000287,-0.00000103,
 -0.00000033,0.00000535,0.00000194,-0.00000034,-0.00000338,-0.00000169,
 -0.00000539,0.00000759,0.00000089,0.00000234,-0.00000531,-0.00000423,-
 0.00000200,0.00018287,0.00009079,-0.00012988,0.00030429,0.00025603,0.0
 0020025,-0.00023171,-0.00000869,-0.00010195,0.00010847,-0.00008046,-0.
 00011282,0.00013975,0.00011226,-0.00026723,0.00005712,0.00022910,-0.00
 021645,0.00030838,-0.00025915,-0.00014394,-0.00009747,-0.00002986,-0.0
 0006442,0.01242015,-0.00967560,-0.02281620,-0.00010941,-0.00169653,-0.
 00100301,-0.04667857,0.09017442,0.00003699,0.00009857,-0.00000333,0.00
 056312,-0.00014145,0.00003965,-0.00036559,-0.00025911,-0.00010072,0.00
 011677,0.00017157,0.00004709,-0.00006350,-0.00004522,-0.00003040,-0.00
 003686,-0.00003024,0.00000170,0.00015168,0.00001953,0.00003393,0.00001
 402,-0.00000030,0.00001139,0.00002647,0.00000213,0.00000044,-0.0002110
 3,-0.00024884,0.00061549,-0.00051656,0.00059270,0.00020341,0.00005777,
 -0.00030309,-0.00014263,0.00003989,0.00061509,0.00027894,-0.00225182,0
 .00443198,-0.00269784,0.00068936,-0.00046258,-0.00149121,0.01038919,-0
 .01030709,-0.02128265,0.00117575,-0.00103393,0.00083258,-0.00001180,-0
 .00154394,0.00087259,0.09229311,-0.08830804,-0.23472532,0.00000649,-0.
 00001715,0.00000031,-0.00001517,-0.00002121,0.00000166,-0.00001552,0.0
 0000038,0.00000938,0.00000710,0.00000910,-0.00000174,0.00001197,-0.000
 00417,0.00000394,-0.00000755,-0.00000183,0.00000496,-0.00000521,0.0000
 0126,-0.00000412,0.00001065,0.00000649,-0.00000106,0.00000040,-0.00000
 663,-0.00000441,0.00000724,0.00000558,0.00001460,-0.00000269,0.0000043
 8,-0.00000734,-0.00002601,-0.00006700,-0.00000975,0.00002399,-0.000028
 25,0.00024505,-0.00001056,0.00015940,0.00046562,-0.00001635,0.00002719
 ,-0.00005655,-0.00093417,0.00045141,0.00017229,-0.00027453,-0.00002107
 ,0.00031844,-0.00003942,0.00085553,0.00037245,0.00004683,0.00007566,-0
 .00005114,0.00120772,-0.00009711,-0.00288207,-0.00277278,0.00266758,0.
 00438281,-0.09929939,0.09275272,0.25456353\\-0.00012693,0.00506949,0.0
 0031902,0.00063463,-0.00948218,-0.00086349,-0.00100020,0.03444719,-0.0
 0068215,0.00180103,-0.00369427,0.00169786,-0.01410884,-0.01417123,-0.0
 0683240,-0.00201415,-0.00501635,0.00204528,0.02010907,-0.01303422,0.00
 399359,-0.00112544,-0.00071293,0.00255484,0.00126322,0.00116839,-0.002
 98602,0.00182367,0.00014765,0.00338365,-0.00309026,0.03470337,0.002668
 92,-0.01863224,-0.01547021,-0.00466121,0.00224044,-0.00602808,0.000436
 32,0.01974853,-0.00817768,0.00107477,-0.00497432,0.00041321,-0.0002533
 0,-0.00087614,-0.00006650,-0.00305755,-0.00019469,0.00057886,0.0021007
 2,0.00349796,-0.00002657,0.00288691,0.00064025,0.00054870,0.00080460,0
 .00027957,-0.00022304,0.00012124,-0.00027110,-0.00127221,0.00013579,-0
 .00033061,-0.00097615,-0.00011253,0.00089373,0.00054850,-0.00032196,0.
 00130857,-0.00138843,-0.00001083,-0.00089570,0.00061878,0.00074371,0.0
 0064331,0.00034866,-0.00147789,0.00057044,0.00166054,-0.00034968,-0.00
 070176,0.00136926,-0.00049662,0.00034487,0.00095627,0.00148741,-0.0000
 5537,-0.00096803,0.00201896,-0.00106106,0.00004166,-0.00045790,-0.0009
 9640,-0.00107232,-0.00038431,-0.00037064,0.00008218,-0.00040010,0.0004
 5972,0.00022400,-0.00012593,-0.00081904,0.00024234,0.00018429,-0.00213
 360,0.00053778,-0.00045618,-0.00137249,0.00108228,-0.00060741,-0.00015
 960,-0.00353880,-0.00267714,0.00020549,0.00051311,-0.00043646,-0.00039
 293,-0.00015569,-0.00135342,-0.00076098,0.00017265,0.00034662\\\@

 Writing a WFNX file to "18_lig_b.wfx"


 CHEMISTRY BEGAN BY SAYING IT WOULD CHANGE THE BASER
 METALS INTO GOLD.  BY NOT DOING THAT IT HAS DONE MUCH
 GREATER THINGS.  --  RALPH WALDO EMERSON
 Job cpu time:       0 days  2 hours 41 minutes 36.1 seconds.
 Elapsed time:       0 days  0 hours 20 minutes 12.9 seconds.
 File lengths (MBytes):  RWF=    604 Int=      0 D2E=      0 Chk=     10 Scr=      1
 Normal termination of Gaussian 16 at Thu Nov  3 08:24:39 2022.
