 Entering Gaussian System, Link 0=g16
 Initial command:
 /software/gaussian/G16-A.03/avx/g16/l1.exe "/scratch/lcmd/1361350.slurm/Gau-131984.inp" -scrdir="/scratch/lcmd/1361350.slurm/"
 Entering Link 1 = /software/gaussian/G16-A.03/avx/g16/l1.exe PID=    131986.
  
 Copyright (c) 1988,1990,1992,1993,1995,1998,2003,2009,2016,
            Gaussian, Inc.  All Rights Reserved.
  
 This is part of the Gaussian(R) 16 program.  It is based on
 the Gaussian(R) 09 system (copyright 2009, Gaussian, Inc.),
 the Gaussian(R) 03 system (copyright 2003, Gaussian, Inc.),
 the Gaussian(R) 98 system (copyright 1998, Gaussian, Inc.),
 the Gaussian(R) 94 system (copyright 1995, Gaussian, Inc.),
 the Gaussian 92(TM) system (copyright 1992, Gaussian, Inc.),
 the Gaussian 90(TM) system (copyright 1990, Gaussian, Inc.),
 the Gaussian 88(TM) system (copyright 1988, Gaussian, Inc.),
 the Gaussian 86(TM) system (copyright 1986, Carnegie Mellon
 University), and the Gaussian 82(TM) system (copyright 1983,
 Carnegie Mellon University). Gaussian is a federally registered
 trademark of Gaussian, Inc.
  
 This software contains proprietary and confidential information,
 including trade secrets, belonging to Gaussian, Inc.
  
 This software is provided under written license and may be
 used, copied, transmitted, or stored only in accord with that
 written license.
  
 The following legend is applicable only to US Government
 contracts under FAR:
  
                    RESTRICTED RIGHTS LEGEND
  
 Use, reproduction and disclosure by the US Government is
 subject to restrictions as set forth in subparagraphs (a)
 and (c) of the Commercial Computer Software - Restricted
 Rights clause in FAR 52.227-19.
  
 Gaussian, Inc.
 340 Quinnipiac St., Bldg. 40, Wallingford CT 06492
  
  
 ---------------------------------------------------------------
 Warning -- This program may not be used in any manner that
 competes with the business of Gaussian, Inc. or will provide
 assistance to any competitor of Gaussian, Inc.  The licensee
 of this program is prohibited from giving any competitor of
 Gaussian, Inc. access to this program.  By using this program,
 the user acknowledges that Gaussian, Inc. is engaged in the
 business of creating and licensing software in the field of
 computational chemistry and represents and warrants to the
 licensee that it is not a competitor of Gaussian, Inc. and that
 it will not use this program in any manner prohibited above.
 ---------------------------------------------------------------
  

 Cite this work as:
 Gaussian 16, Revision A.03,
 M. J. Frisch, G. W. Trucks, H. B. Schlegel, G. E. Scuseria, 
 M. A. Robb, J. R. Cheeseman, G. Scalmani, V. Barone, 
 G. A. Petersson, H. Nakatsuji, X. Li, M. Caricato, A. V. Marenich, 
 J. Bloino, B. G. Janesko, R. Gomperts, B. Mennucci, H. P. Hratchian, 
 J. V. Ortiz, A. F. Izmaylov, J. L. Sonnenberg, D. Williams-Young, 
 F. Ding, F. Lipparini, F. Egidi, J. Goings, B. Peng, A. Petrone, 
 T. Henderson, D. Ranasinghe, V. G. Zakrzewski, J. Gao, N. Rega, 
 G. Zheng, W. Liang, M. Hada, M. Ehara, K. Toyota, R. Fukuda, 
 J. Hasegawa, M. Ishida, T. Nakajima, Y. Honda, O. Kitao, H. Nakai, 
 T. Vreven, K. Throssell, J. A. Montgomery, Jr., J. E. Peralta, 
 F. Ogliaro, M. J. Bearpark, J. J. Heyd, E. N. Brothers, K. N. Kudin, 
 V. N. Staroverov, T. A. Keith, R. Kobayashi, J. Normand, 
 K. Raghavachari, A. P. Rendell, J. C. Burant, S. S. Iyengar, 
 J. Tomasi, M. Cossi, J. M. Millam, M. Klene, C. Adamo, R. Cammi, 
 J. W. Ochterski, R. L. Martin, K. Morokuma, O. Farkas, 
 J. B. Foresman, and D. J. Fox, Gaussian, Inc., Wallingford CT, 2016.
 
 ******************************************
 Gaussian 16:  ES64L-G16RevA.03 25-Dec-2016
                 3-Nov-2022 
 ******************************************
 %nprocs=8
 Will use up to    8 processors via shared memory.
 %mem=32000MB
 %chk=20_lig_b.chk
 ----------------------------------------------------------------------
 #p pop=(regular,nbo,savenbos) freq=noraman def2svp empiricaldispersion
 =gd3bj output=wfx pbe1pbe
 ----------------------------------------------------------------------
 1/10=4,30=1,38=1/1,3;
 2/12=2,17=6,18=5,40=1/2;
 3/5=43,7=101,11=2,25=1,30=1,71=2,74=-13,124=41,140=1/1,2,3;
 4//1;
 5/5=2,38=5,98=1/2;
 8/6=4,10=90,11=11/1;
 11/6=1,8=1,9=11,15=111,16=1/1,2,10;
 10/6=1/2;
 6/28=1,40=1,73=1/1,7;
 7/8=1,10=1,25=1/1,2,3,16;
 1/10=4,30=1/3;
 99/6=200/99;
 Leave Link    1 at Thu Nov  3 08:04:22 2022, MaxMem=  4194304000 cpu:               0.5 elap:               0.1
 (Enter /software/gaussian/G16-A.03/avx/g16/l101.exe)
 --------
 20_lig_b
 --------
 Symbolic Z-matrix:
 Charge =  0 Multiplicity = 1
 C                    -4.24771   0.65233   2.33792 
 C                    -4.20466  -0.26208   1.28695 
 C                    -3.40342  -0.01604   0.17461 
 C                    -2.63285   1.15025   0.10738 
 C                    -2.66619   2.0558    1.1725 
 C                    -3.47593   1.81194   2.27976 
 C                    -1.70053   1.33517  -1.07046 
 H                    -2.10746   0.80818  -1.94538 
 C                    -1.26267   2.76572  -1.40266 
 O                     0.07564   2.85629  -0.88308 
 C                     0.47631   1.60682  -0.62155 
 N                    -0.41482   0.69847  -0.74891 
 N                     1.67616  -0.96117   0.24995 
 C                     2.41957   0.1805    0.20811 
 C                     1.87206   1.4353   -0.21917 
 C                     2.67753   2.56432  -0.24489 
 C                     4.02791   2.52517   0.14039 
 C                     4.57524   1.33931   0.56298 
 C                     3.79302   0.1599    0.60832 
 C                     4.34906  -1.06419   1.0505 
 C                     3.56554  -2.18704   1.09186 
 C                     2.22392  -2.08505   0.67854 
 H                    -4.87802   0.45802   3.20898 
 H                    -4.79251  -1.18138   1.33293 
 H                    -3.3429   -0.74428  -0.63976 
 H                    -2.04968   2.95896   1.15217 
 H                    -3.49855   2.52832   3.10451 
 H                    -1.87233   3.54695  -0.93293 
 H                    -1.21487   2.94468  -2.48726 
 H                     2.23301   3.50385  -0.57429 
 H                     4.6287    3.4356    0.1036 
 H                     5.62195   1.28302   0.87174 
 H                     5.39822  -1.0903    1.35621 
 H                     3.95043  -3.14961   1.43136 
 H                     1.54378  -2.94617   0.70997 
 
 ITRead=  0  0  0  0  0  0  0  0  0  0  0  0  0  0  0  0  0  0  0  0
 ITRead=  0  0  0  0  0  0  0  0  0  0  0  0  0  0  0
 MicOpt= -1 -1 -1 -1 -1 -1 -1 -1 -1 -1 -1 -1 -1 -1 -1 -1 -1 -1 -1 -1
 MicOpt= -1 -1 -1 -1 -1 -1 -1 -1 -1 -1 -1 -1 -1 -1 -1
 NAtoms=     35 NQM=       35 NQMF=       0 NMMI=      0 NMMIF=      0
                NMic=       0 NMicF=      0.
                    Isotopes and Nuclear Properties:
 (Nuclear quadrupole moments (NQMom) in fm**2, nuclear magnetic moments (NMagM)
  in nuclear magnetons)

  Atom         1           2           3           4           5           6           7           8           9          10
 IAtWgt=          12          12          12          12          12          12          12           1          12          16
 AtmWgt=  12.0000000  12.0000000  12.0000000  12.0000000  12.0000000  12.0000000  12.0000000   1.0078250  12.0000000  15.9949146
 NucSpn=           0           0           0           0           0           0           0           1           0           0
 AtZEff=  -0.0000000  -0.0000000  -0.0000000  -0.0000000  -0.0000000  -0.0000000  -0.0000000  -0.0000000  -0.0000000  -0.0000000
 NQMom=    0.0000000   0.0000000   0.0000000   0.0000000   0.0000000   0.0000000   0.0000000   0.0000000   0.0000000   0.0000000
 NMagM=    0.0000000   0.0000000   0.0000000   0.0000000   0.0000000   0.0000000   0.0000000   2.7928460   0.0000000   0.0000000
 AtZNuc=   6.0000000   6.0000000   6.0000000   6.0000000   6.0000000   6.0000000   6.0000000   1.0000000   6.0000000   8.0000000

  Atom        11          12          13          14          15          16          17          18          19          20
 IAtWgt=          12          14          14          12          12          12          12          12          12          12
 AtmWgt=  12.0000000  14.0030740  14.0030740  12.0000000  12.0000000  12.0000000  12.0000000  12.0000000  12.0000000  12.0000000
 NucSpn=           0           2           2           0           0           0           0           0           0           0
 AtZEff=  -0.0000000  -0.0000000  -0.0000000  -0.0000000  -0.0000000  -0.0000000  -0.0000000  -0.0000000  -0.0000000  -0.0000000
 NQMom=    0.0000000   2.0440000   2.0440000   0.0000000   0.0000000   0.0000000   0.0000000   0.0000000   0.0000000   0.0000000
 NMagM=    0.0000000   0.4037610   0.4037610   0.0000000   0.0000000   0.0000000   0.0000000   0.0000000   0.0000000   0.0000000
 AtZNuc=   6.0000000   7.0000000   7.0000000   6.0000000   6.0000000   6.0000000   6.0000000   6.0000000   6.0000000   6.0000000

  Atom        21          22          23          24          25          26          27          28          29          30
 IAtWgt=          12          12           1           1           1           1           1           1           1           1
 AtmWgt=  12.0000000  12.0000000   1.0078250   1.0078250   1.0078250   1.0078250   1.0078250   1.0078250   1.0078250   1.0078250
 NucSpn=           0           0           1           1           1           1           1           1           1           1
 AtZEff=  -0.0000000  -0.0000000  -0.0000000  -0.0000000  -0.0000000  -0.0000000  -0.0000000  -0.0000000  -0.0000000  -0.0000000
 NQMom=    0.0000000   0.0000000   0.0000000   0.0000000   0.0000000   0.0000000   0.0000000   0.0000000   0.0000000   0.0000000
 NMagM=    0.0000000   0.0000000   2.7928460   2.7928460   2.7928460   2.7928460   2.7928460   2.7928460   2.7928460   2.7928460
 AtZNuc=   6.0000000   6.0000000   1.0000000   1.0000000   1.0000000   1.0000000   1.0000000   1.0000000   1.0000000   1.0000000

  Atom        31          32          33          34          35
 IAtWgt=           1           1           1           1           1
 AtmWgt=   1.0078250   1.0078250   1.0078250   1.0078250   1.0078250
 NucSpn=           1           1           1           1           1
 AtZEff=  -0.0000000  -0.0000000  -0.0000000  -0.0000000  -0.0000000
 NQMom=    0.0000000   0.0000000   0.0000000   0.0000000   0.0000000
 NMagM=    2.7928460   2.7928460   2.7928460   2.7928460   2.7928460
 AtZNuc=   1.0000000   1.0000000   1.0000000   1.0000000   1.0000000
 Leave Link  101 at Thu Nov  3 08:04:22 2022, MaxMem=  4194304000 cpu:               0.8 elap:               0.1
 (Enter /software/gaussian/G16-A.03/avx/g16/l103.exe)

 GradGradGradGradGradGradGradGradGradGradGradGradGradGradGradGradGradGrad
 Berny optimization.
 Initialization pass.
 Trust Radius=3.00D-01 FncErr=1.00D-07 GrdErr=1.00D-07 EigMax=2.50D+02 EigMin=1.00D-04
 Number of steps in this run=      2 maximum allowed number of steps=      2.
 GradGradGradGradGradGradGradGradGradGradGradGradGradGradGradGradGradGrad

 Leave Link  103 at Thu Nov  3 08:04:22 2022, MaxMem=  4194304000 cpu:               0.2 elap:               0.0
 (Enter /software/gaussian/G16-A.03/avx/g16/l202.exe)
                          Input orientation:                          
 ---------------------------------------------------------------------
 Center     Atomic      Atomic             Coordinates (Angstroms)
 Number     Number       Type             X           Y           Z
 ---------------------------------------------------------------------
      1          6           0       -4.247710    0.652330    2.337920
      2          6           0       -4.204660   -0.262080    1.286950
      3          6           0       -3.403420   -0.016040    0.174610
      4          6           0       -2.632850    1.150250    0.107380
      5          6           0       -2.666190    2.055800    1.172500
      6          6           0       -3.475930    1.811940    2.279760
      7          6           0       -1.700530    1.335170   -1.070460
      8          1           0       -2.107460    0.808180   -1.945380
      9          6           0       -1.262670    2.765720   -1.402660
     10          8           0        0.075640    2.856290   -0.883080
     11          6           0        0.476310    1.606820   -0.621550
     12          7           0       -0.414820    0.698470   -0.748910
     13          7           0        1.676160   -0.961170    0.249950
     14          6           0        2.419570    0.180500    0.208110
     15          6           0        1.872060    1.435300   -0.219170
     16          6           0        2.677530    2.564320   -0.244890
     17          6           0        4.027910    2.525170    0.140390
     18          6           0        4.575240    1.339310    0.562980
     19          6           0        3.793020    0.159900    0.608320
     20          6           0        4.349060   -1.064190    1.050500
     21          6           0        3.565540   -2.187040    1.091860
     22          6           0        2.223920   -2.085050    0.678540
     23          1           0       -4.878020    0.458020    3.208980
     24          1           0       -4.792510   -1.181380    1.332930
     25          1           0       -3.342900   -0.744280   -0.639760
     26          1           0       -2.049680    2.958960    1.152170
     27          1           0       -3.498550    2.528320    3.104510
     28          1           0       -1.872330    3.546950   -0.932930
     29          1           0       -1.214870    2.944680   -2.487260
     30          1           0        2.233010    3.503850   -0.574290
     31          1           0        4.628700    3.435600    0.103600
     32          1           0        5.621950    1.283020    0.871740
     33          1           0        5.398220   -1.090300    1.356210
     34          1           0        3.950430   -3.149610    1.431360
     35          1           0        1.543780   -2.946170    0.709970
 ---------------------------------------------------------------------
                    Distance matrix (angstroms):
                    1          2          3          4          5
     1  C    0.000000
     2  C    1.393749   0.000000
     3  C    2.416496   1.392775   0.000000
     4  C    2.798393   2.420051   1.399475   0.000000
     5  C    2.414361   2.784341   2.414915   1.398432   0.000000
     6  C    1.394174   2.412111   2.788983   2.422365   1.393259
     7  C    4.309461   3.791999   2.505155   1.513513   2.546110
     8  H    4.790785   3.998958   2.617863   2.146362   3.404396
     9  C    5.231522   5.005685   3.848218   2.601414   3.017500
    10  O    5.824400   5.723131   4.633880   3.350746   3.519066
    11  C    5.655606   5.389493   4.280169   3.225937   3.646300
    12  N    4.921554   4.407978   3.208605   2.420123   3.256198
    13  N    6.485001   6.012332   5.167309   4.800624   5.367421
    14  C    7.015079   6.726083   5.826402   5.145630   5.505611
    15  C    6.678573   6.486603   5.485630   4.525716   4.787220
    16  C    7.634498   7.596026   6.619078   5.506707   5.551840
    17  C    8.764848   8.766902   7.853890   6.801266   6.789443
    18  C    9.025896   8.954062   8.102273   7.224948   7.302272
    19  C    8.239378   8.037505   7.211644   6.521008   6.755304
    20  C    8.860494   8.594499   7.871896   7.385140   7.678734
    21  C    8.406043   8.007468   7.356697   7.108217   7.539407
    22  C    7.220027   6.709696   6.016785   5.863583   6.426804
    23  H    1.092608   2.160129   3.406843   3.891002   3.404753
    24  H    2.160857   1.092151   2.151579   3.406259   3.876378
    25  H    3.411126   2.165031   1.094164   2.156764   3.403332
    26  H    3.399688   3.877783   3.411577   2.168664   1.093707
    27  H    2.160611   3.404181   3.881640   3.410469   2.156099
    28  H    4.971892   4.987619   4.033086   2.721177   2.699366
    29  H    6.142910   5.785051   4.543255   3.458729   4.036122
    30  H    7.655839   7.687004   6.687288   5.448000   5.399100
    31  H    9.567102   9.648907   8.742643   7.612683   7.500788
    32  H    9.997882   9.956003   9.144990   8.291176   8.329520
    33  H    9.851116   9.638778   8.945338   8.430761   8.658314
    34  H    9.082186   8.652409   8.091835   7.973788   8.422765
    35  H    7.010048   6.370385   5.774691   5.881157   6.554196
                    6          7          8          9         10
     6  C    0.000000
     7  C    3.821430   0.000000
     8  H    4.553246   1.099452   0.000000
     9  C    4.400958   1.532498   2.200040   0.000000
    10  O    4.869073   2.345996   3.176344   1.438485   0.000000
    11  C    4.907125   2.239184   3.011016   2.230971   1.337950
    12  N    4.447814   1.470317   2.075718   2.328038   2.216921
    13  N    6.193085   4.291701   4.718671   5.025689   4.291669
    14  C    6.458347   4.465784   5.052277   4.778790   3.720827
    15  C    5.915024   3.673979   4.382883   3.605163   2.384767
    16  C    6.693654   4.621665   5.373251   4.111711   2.694877
    17  C    7.835382   5.974720   6.703824   5.516258   4.096043
    18  C    8.245729   6.484862   7.157685   6.322941   4.963740
    19  C    7.639410   5.863331   6.461990   6.032772   4.828427
    20  C    8.426961   6.844921   7.359872   7.223415   6.113184
    21  C    8.184452   6.694258   7.097824   7.352828   6.443211
    22  C    7.087928   5.491649   5.832374   6.325952   5.609867
    23  H    2.159260   5.401800   5.862256   6.297893   6.858236
    24  H    3.404385   4.655067   4.681363   5.960102   6.701669
    25  H    3.882725   2.684585   2.375097   4.150840   4.970888
    26  H    2.149722   2.774650   3.771473   2.680277   2.944447
    27  H    1.092669   4.699666   5.513203   5.036874   5.365004
    28  H    3.987878   2.222701   2.929369   1.096655   2.067386
    29  H    5.396292   2.198570   2.378021   1.100304   2.060733
    30  H    6.603041   4.519081   5.290199   3.667535   2.273528
    31  H    8.547337   6.771217   7.515152   6.117663   4.694624
    32  H    9.221372   7.575855   8.240474   7.400627   6.026286
    33  H    9.382243   7.884408   8.416647   8.176045   6.994273
    34  H    8.971487   7.635817   7.985268   8.378497   7.512753
    35  H    7.092344   5.659094   5.871761   6.705599   6.193689
                   11         12         13         14         15
    11  C    0.000000
    12  N    1.278840   0.000000
    13  N    2.965422   2.850320   0.000000
    14  C    2.549310   3.036107   1.363018   0.000000
    15  C    1.462685   2.460358   2.449800   1.434175   0.000000
    16  C    2.429825   3.646651   3.698201   2.440154   1.387130
    17  C    3.746703   4.885237   4.206816   2.844085   2.442292
    18  C    4.275032   5.199272   3.714143   2.472991   2.815698
    19  C    3.821874   4.453992   2.422049   1.430719   2.449790
    20  C    4.992819   5.388822   2.792112   2.445773   3.740995
    21  C    5.183868   5.249559   2.404439   2.774799   4.208090
    22  C    4.286523   4.092499   1.321679   2.322133   3.650007
    23  H    6.682930   5.970164   7.329886   7.895382   7.633536
    24  H    6.273318   5.199237   6.562395   7.425230   7.326153
    25  H    4.484904   3.266052   5.101920   5.897471   5.667740
    26  H    3.369717   3.375898   5.483001   5.346521   4.425173
    27  H    5.525595   5.263705   6.863139   6.994679   6.409758
    28  H    3.062217   3.205002   5.857827   5.572734   4.357634
    29  H    2.851462   2.950830   5.577279   5.302345   4.117232
    30  H    2.585914   3.861561   4.574479   3.419300   2.129623
    31  H    4.594847   5.801357   5.298160   3.935334   3.421176
    32  H    5.367716   6.277802   4.581732   3.451260   3.908318
    33  H    5.950730   6.436044   3.885128   3.435902   4.614573
    34  H    6.237594   6.214234   3.370060   3.863872   5.297667
    35  H    4.862320   4.387237   2.041903   3.285565   4.490918
                   16         17         18         19         20
    16  C    0.000000
    17  C    1.404813   0.000000
    18  C    2.398876   1.372740   0.000000
    19  C    2.784514   2.422526   1.415956   0.000000
    20  C    4.199778   3.716846   2.462853   1.415309   0.000000
    21  C    5.015066   4.829493   3.705989   2.407008   1.369820
    22  C    4.761841   4.979770   4.155515   2.739855   2.386782
    23  H    8.570417   9.643907   9.856070   9.057552   9.597665
    24  H    8.504192   9.641601   9.731467   8.719829   9.146683
    25  H    6.881013   8.101036   8.275559   7.300452   7.881978
    26  H    4.945102   6.176485   6.845435   6.501358   7.559097
    27  H    7.025933   8.089105   8.547468   8.062715   8.871869
    28  H    4.705336   6.083493   6.977290   6.778182   7.993891
    29  H    4.508179   5.879394   6.738438   6.512801   7.716482
    30  H    1.090330   2.165698   3.385950   3.874816   5.290047
    31  H    2.165095   1.091414   2.146700   3.418086   4.606835
    32  H    3.399735   2.149133   1.092750   2.162354   2.676116
    33  H    4.829278   4.053096   2.685054   2.167719   1.093104
    34  H    6.089260   5.820286   4.614637   3.413946   2.157067
    35  H    5.706369   6.035800   5.251352   3.836285   3.395203
                   21         22         23         24         25
    21  C    0.000000
    22  C    1.407544   0.000000
    23  H    9.097925   7.956625   0.000000
    24  H    8.421785   7.104586   2.492891   0.000000
    25  H    7.266815   5.875803   4.314501   2.486751   0.000000
    26  H    7.616800   6.627972   4.299381   4.969729   4.312472
    27  H    8.728502   7.740489   2.489979   4.309838   4.975309
    28  H    8.157748   7.148113   5.977548   6.001556   4.545677
    29  H    7.873815   6.866276   7.214520   6.664663   4.642219
    30  H    6.077658   5.727606   8.611444   8.657182   7.010112
    31  H    5.806983   6.049058  10.434898  10.563473   9.031633
    32  H    4.039628   4.788301  10.788544  10.712000   9.314672
    33  H    2.152077   3.394841  10.556096  10.191164   8.972781
    34  H    1.090844   2.163530   9.701364   8.962289   7.954107
    35  H    2.193087   1.097773   7.685901   6.606900   5.527181
                   26         27         28         29         30
    26  H    0.000000
    27  H    2.469070   0.000000
    28  H    2.173667   4.470248   0.000000
    29  H    3.733974   6.054456   1.791905   0.000000
    30  H    4.649624   6.880117   4.121201   3.982462   0.000000
    31  H    6.776979   8.710959   6.584086   6.410996   2.490687
    32  H    7.857565   9.472041   8.034080   7.796544   4.302093
    33  H    8.479938   9.762350   8.922172   8.647906   5.903524
    34  H    8.567024   9.514495   9.183590   8.898105   7.158260
    35  H    6.926692   7.818501   7.518613   7.248072   6.612648
                   31         32         33         34         35
    31  H    0.000000
    32  H    2.492024   0.000000
    33  H    4.758672   2.432574   0.000000
    34  H    6.751888   4.770258   2.518432   0.000000
    35  H    7.114169   5.877388   4.326498   2.520666   0.000000
 Stoichiometry    C18H14N2O
 Framework group  C1[X(C18H14N2O)]
 Deg. of freedom    99
 Full point group                 C1      NOp   1
 Largest Abelian subgroup         C1      NOp   1
 Largest concise Abelian subgroup C1      NOp   1
                         Standard orientation:                         
 ---------------------------------------------------------------------
 Center     Atomic      Atomic             Coordinates (Angstroms)
 Number     Number       Type             X           Y           Z
 ---------------------------------------------------------------------
      1          6           0        4.611964    1.427576    1.329177
      2          6           0        4.395028    1.828804    0.012176
      3          6           0        3.577961    1.074191   -0.826145
      4          6           0        2.966049   -0.090577   -0.349270
      5          6           0        3.172918   -0.479002    0.978112
      6          6           0        3.998431    0.272429    1.811810
      7          6           0        2.007814   -0.829359   -1.258505
      8          1           0        2.296508   -0.663642   -2.306355
      9          6           0        1.746765   -2.308060   -0.952157
     10          8           0        0.460315   -2.314793   -0.308542
     11          6           0       -0.088337   -1.113712   -0.524173
     12          7           0        0.667166   -0.250004   -1.088671
     13          7           0       -1.571577    1.452135   -0.624910
     14          6           0       -2.158572    0.322757   -0.137303
     15          6           0       -1.472270   -0.935483   -0.085527
     16          6           0       -2.121553   -2.053089    0.417979
     17          6           0       -3.443930   -1.997515    0.888861
     18          6           0       -4.121171   -0.803810    0.860062
     19          6           0       -3.500574    0.365193    0.356849
     20          6           0       -4.190500    1.600696    0.331678
     21          6           0       -3.561335    2.716816   -0.152920
     22          6           0       -2.240739    2.591897   -0.623667
     23          1           0        5.254422    2.020282    1.984722
     24          1           0        4.857661    2.742099   -0.368164
     25          1           0        3.380371    1.400250   -1.851737
     26          1           0        2.681081   -1.370130    1.378342
     27          1           0        4.157461   -0.042465    2.845965
     28          1           0        2.477470   -2.766503   -0.274992
     29          1           0        1.668069   -2.914607   -1.866802
     30          1           0       -1.573943   -2.995549    0.444649
     31          1           0       -3.920080   -2.900331    1.275372
     32          1           0       -5.149094   -0.733058    1.224029
     33          1           0       -5.217010    1.642539    0.705045
     34          1           0       -4.052452    3.690308   -0.185430
     35          1           0       -1.679789    3.455719   -1.003473
 ---------------------------------------------------------------------
 Rotational constants (GHZ):           0.5728613           0.1919754           0.1621002
 Leave Link  202 at Thu Nov  3 08:04:22 2022, MaxMem=  4194304000 cpu:               0.1 elap:               0.1
 (Enter /software/gaussian/G16-A.03/avx/g16/l301.exe)
 Standard basis: def2SVP (5D, 7F)
 Ernie: Thresh=  0.10000D-02 Tol=  0.10000D-05 Strict=F.
 There are   385 symmetry adapted cartesian basis functions of A   symmetry.
 There are   364 symmetry adapted basis functions of A   symmetry.
   364 basis functions,   623 primitive gaussians,   385 cartesian basis functions
    72 alpha electrons       72 beta electrons
       nuclear repulsion energy      1514.7461267445 Hartrees.
 IExCor= 1009 DFT=T Ex+Corr=PBE1PBE ExCW=0 ScaHFX=  0.250000
 ScaDFX=  0.750000  0.750000  1.000000  1.000000 ScalE2=  1.000000  1.000000
 IRadAn=      5 IRanWt=     -1 IRanGd=            0 ICorTp=0 IEmpDi=141
 NAtoms=   35 NActive=   35 NUniq=   35 SFac= 1.00D+00 NAtFMM=   60 NAOKFM=F Big=F
 Integral buffers will be    131072 words long.
 Raffenetti 2 integral format.
 Two-electron integral symmetry is turned on.
 R6Disp:  Grimme-D3(BJ) Dispersion energy=       -0.0412637485 Hartrees.
 Nuclear repulsion after empirical dispersion term =     1514.7048629960 Hartrees.
 Leave Link  301 at Thu Nov  3 08:04:22 2022, MaxMem=  4194304000 cpu:               0.5 elap:               0.1
 (Enter /software/gaussian/G16-A.03/avx/g16/l302.exe)
 NPDir=0 NMtPBC=     1 NCelOv=     1 NCel=       1 NClECP=     1 NCelD=      1
         NCelK=      1 NCelE2=     1 NClLst=     1 CellRange=     0.0.
 One-electron integrals computed using PRISM.
 One-electron integral symmetry used in STVInt
   1 Symmetry operations used in ECPInt.
 ECPInt:  NShTT=   14196 NPrTT=   52318 LenC2=   12657 LenP2D=   32202.
 LDataN:  DoStor=T MaxTD1= 4 Len=   56
 NBasis=   364 RedAO= T EigKep=  2.11D-04  NBF=   364
 NBsUse=   364 1.00D-06 EigRej= -1.00D+00 NBFU=   364
 Precomputing XC quadrature grid using
 IXCGrd= 4 IRadAn=           5 IRanWt=          -1 IRanGd=           0 AccXCQ= 0.00D+00.
 Generated NRdTot=       0 NPtTot=           0 NUsed=           0 NTot=          32
 NSgBfM=   382   382   382   382   382 MxSgAt=    35 MxSgA2=    35.
 Leave Link  302 at Thu Nov  3 08:04:23 2022, MaxMem=  4194304000 cpu:               5.1 elap:               0.7
 (Enter /software/gaussian/G16-A.03/avx/g16/l303.exe)
 DipDrv:  MaxL=1.
 Leave Link  303 at Thu Nov  3 08:04:23 2022, MaxMem=  4194304000 cpu:               0.6 elap:               0.1
 (Enter /software/gaussian/G16-A.03/avx/g16/l401.exe)
 ExpMin= 1.22D-01 ExpMax= 2.27D+03 ExpMxC= 3.41D+02 IAcc=3 IRadAn=         5 AccDes= 0.00D+00
 Harris functional with IExCor= 1009 and IRadAn=       5 diagonalized for initial guess.
 HarFok:  IExCor= 1009 AccDes= 0.00D+00 IRadAn=         5 IDoV= 1 UseB2=F ITyADJ=14
 ICtDFT=  3500011 ScaDFX=  1.000000  1.000000  1.000000  1.000000
 FoFCou: FMM=F IPFlag=           0 FMFlag=      100000 FMFlg1=           0
         NFxFlg=           0 DoJE=T BraDBF=F KetDBF=T FulRan=T
         wScrn=  0.000000 ICntrl=       500 IOpCl=  0 I1Cent=   200000004 NGrid=           0
         NMat0=    1 NMatS0=      1 NMatT0=    0 NMatD0=    1 NMtDS0=    0 NMtDT0=    0
 Petite list used in FoFCou.
 Harris En= -877.622917778132    
 JPrj=0 DoOrth=F DoCkMO=F.
 Leave Link  401 at Thu Nov  3 08:04:27 2022, MaxMem=  4194304000 cpu:              26.3 elap:               3.3
 (Enter /software/gaussian/G16-A.03/avx/g16/l502.exe)
 Integral symmetry usage will be decided dynamically.
 Closed shell SCF:
 Using DIIS extrapolation, IDIIS=  1040.
 NGot=  4194304000 LenX=  4194000371 LenY=  4193851705
 Requested convergence on RMS density matrix=1.00D-08 within 128 cycles.
 Requested convergence on MAX density matrix=1.00D-06.
 Requested convergence on             energy=1.00D-06.
 No special actions if energy rises.
 Fock matrices will be formed incrementally for  20 cycles.
 Integral accuracy reduced to 1.0D-05 until final iterations.

 Cycle   1  Pass 0  IDiag  1:
 FoFJK:  IHMeth= 1 ICntrl=       0 DoSepK=F KAlg= 0 I1Cent=           0 FoldK=F
 IRaf= 820000000 NMat=       1 IRICut=       1 DoRegI=T DoRafI=F ISym2E= 0 IDoP0=0 IntGTp=1.
 FoFCou: FMM=F IPFlag=           0 FMFlag=      100000 FMFlg1=           0
         NFxFlg=           0 DoJE=F BraDBF=F KetDBF=F FulRan=T
         wScrn=  0.000000 ICntrl=         0 IOpCl=  0 I1Cent=           0 NGrid=           0
         NMat0=    1 NMatS0=      1 NMatT0=    0 NMatD0=    1 NMtDS0=    0 NMtDT0=    0
 Symmetry not used in FoFCou.
 E= -877.150574312737    
 DIIS: error= 3.23D-02 at cycle   1 NSaved=   1.
 NSaved= 1 IEnMin= 1 EnMin= -877.150574312737     IErMin= 1 ErrMin= 3.23D-02
 ErrMax= 3.23D-02  0.00D+00 EMaxC= 1.00D-01 BMatC= 2.71D-01 BMatP= 2.71D-01
 IDIUse=3 WtCom= 6.77D-01 WtEn= 3.23D-01
 Coeff-Com:  0.100D+01
 Coeff-En:   0.100D+01
 Coeff:      0.100D+01
 Gap=     0.168 Goal=   None    Shift=    0.000
 GapD=    0.168 DampG=1.000 DampE=0.500 DampFc=0.5000 IDamp=-1.
 Damping current iteration by 5.00D-01
 RMSDP=4.61D-03 MaxDP=1.23D-01              OVMax= 1.75D-01

 Cycle   2  Pass 0  IDiag  1:
 RMSU=  2.22D-03    CP:  9.67D-01
 E= -877.294560825954     Delta-E=       -0.143986513217 Rises=F Damp=T
 DIIS: error= 7.02D-03 at cycle   2 NSaved=   2.
 NSaved= 2 IEnMin= 2 EnMin= -877.294560825954     IErMin= 2 ErrMin= 7.02D-03
 ErrMax= 7.02D-03  0.00D+00 EMaxC= 1.00D-01 BMatC= 2.23D-02 BMatP= 2.71D-01
 IDIUse=3 WtCom= 9.30D-01 WtEn= 7.02D-02
 Coeff-Com:  0.126D-01 0.987D+00
 Coeff-En:   0.000D+00 0.100D+01
 Coeff:      0.117D-01 0.988D+00
 Gap=     0.193 Goal=   None    Shift=    0.000
 RMSDP=1.53D-03 MaxDP=4.83D-02 DE=-1.44D-01 OVMax= 1.56D-01

 Cycle   3  Pass 0  IDiag  1:
 RMSU=  1.46D-03    CP:  9.45D-01  1.11D+00
 E= -877.431157977530     Delta-E=       -0.136597151576 Rises=F Damp=F
 DIIS: error= 1.05D-02 at cycle   3 NSaved=   3.
 NSaved= 3 IEnMin= 3 EnMin= -877.431157977530     IErMin= 2 ErrMin= 7.02D-03
 ErrMax= 1.05D-02  0.00D+00 EMaxC= 1.00D-01 BMatC= 2.98D-02 BMatP= 2.23D-02
 IDIUse=2 WtCom= 0.00D+00 WtEn= 1.00D+00
 Coeff-En:   0.000D+00 0.000D+00 0.100D+01
 Coeff:      0.000D+00 0.000D+00 0.100D+01
 Gap=     0.159 Goal=   None    Shift=    0.000
 RMSDP=1.84D-03 MaxDP=1.05D-01 DE=-1.37D-01 OVMax= 1.89D-01

 Cycle   4  Pass 0  IDiag  1:
 RMSU=  1.13D-03    CP:  9.49D-01  1.47D+00  1.74D-01
 E= -877.327780164469     Delta-E=        0.103377813061 Rises=F Damp=F
 DIIS: error= 2.42D-02 at cycle   4 NSaved=   4.
 NSaved= 4 IEnMin= 3 EnMin= -877.431157977530     IErMin= 2 ErrMin= 7.02D-03
 ErrMax= 2.42D-02  0.00D+00 EMaxC= 1.00D-01 BMatC= 1.42D-01 BMatP= 2.23D-02
 IDIUse=2 WtCom= 0.00D+00 WtEn= 1.00D+00
 Coeff-En:   0.000D+00 0.000D+00 0.774D+00 0.226D+00
 Coeff:      0.000D+00 0.000D+00 0.774D+00 0.226D+00
 Gap=     0.170 Goal=   None    Shift=    0.000
 RMSDP=1.00D-03 MaxDP=5.18D-02 DE= 1.03D-01 OVMax= 8.08D-02

 Cycle   5  Pass 0  IDiag  1:
 RMSU=  1.95D-04    CP:  9.46D-01  1.26D+00  6.06D-01  4.67D-01
 E= -877.449650743812     Delta-E=       -0.121870579343 Rises=F Damp=F
 DIIS: error= 6.13D-03 at cycle   5 NSaved=   5.
 NSaved= 5 IEnMin= 5 EnMin= -877.449650743812     IErMin= 5 ErrMin= 6.13D-03
 ErrMax= 6.13D-03  0.00D+00 EMaxC= 1.00D-01 BMatC= 9.77D-03 BMatP= 2.23D-02
 IDIUse=3 WtCom= 9.39D-01 WtEn= 6.13D-02
 Coeff-Com:  0.506D-02 0.367D-02 0.321D+00-0.383D-01 0.708D+00
 Coeff-En:   0.000D+00 0.000D+00 0.295D+00 0.000D+00 0.705D+00
 Coeff:      0.475D-02 0.345D-02 0.320D+00-0.359D-01 0.708D+00
 Gap=     0.171 Goal=   None    Shift=    0.000
 RMSDP=3.34D-04 MaxDP=1.88D-02 DE=-1.22D-01 OVMax= 2.96D-02

 Cycle   6  Pass 0  IDiag  1:
 RMSU=  7.84D-05    CP:  9.45D-01  1.20D+00  7.55D-01  2.96D-01  8.25D-01
 E= -877.458459167038     Delta-E=       -0.008808423226 Rises=F Damp=F
 DIIS: error= 5.75D-04 at cycle   6 NSaved=   6.
 NSaved= 6 IEnMin= 6 EnMin= -877.458459167038     IErMin= 6 ErrMin= 5.75D-04
 ErrMax= 5.75D-04  0.00D+00 EMaxC= 1.00D-01 BMatC= 1.03D-04 BMatP= 9.77D-03
 IDIUse=3 WtCom= 9.94D-01 WtEn= 5.75D-03
 Coeff-Com:  0.251D-02-0.466D-02 0.136D+00-0.550D-01 0.460D+00 0.461D+00
 Coeff-En:   0.000D+00 0.000D+00 0.000D+00 0.000D+00 0.000D+00 0.100D+01
 Coeff:      0.250D-02-0.464D-02 0.136D+00-0.547D-01 0.457D+00 0.464D+00
 Gap=     0.170 Goal=   None    Shift=    0.000
 RMSDP=3.97D-05 MaxDP=1.64D-03 DE=-8.81D-03 OVMax= 3.99D-03

 Cycle   7  Pass 0  IDiag  1:
 RMSU=  1.58D-05    CP:  9.45D-01  1.20D+00  7.54D-01  3.00D-01  8.68D-01
                    CP:  5.53D-01
 E= -877.458579263438     Delta-E=       -0.000120096400 Rises=F Damp=F
 DIIS: error= 1.20D-04 at cycle   7 NSaved=   7.
 NSaved= 7 IEnMin= 7 EnMin= -877.458579263438     IErMin= 7 ErrMin= 1.20D-04
 ErrMax= 1.20D-04  0.00D+00 EMaxC= 1.00D-01 BMatC= 4.60D-06 BMatP= 1.03D-04
 IDIUse=3 WtCom= 9.99D-01 WtEn= 1.20D-03
 Coeff-Com:  0.117D-02-0.282D-02 0.599D-01-0.308D-01 0.225D+00 0.260D+00
 Coeff-Com:  0.488D+00
 Coeff-En:   0.000D+00 0.000D+00 0.000D+00 0.000D+00 0.000D+00 0.000D+00
 Coeff-En:   0.100D+01
 Coeff:      0.117D-02-0.282D-02 0.599D-01-0.308D-01 0.225D+00 0.259D+00
 Coeff:      0.488D+00
 Gap=     0.170 Goal=   None    Shift=    0.000
 RMSDP=8.05D-06 MaxDP=3.50D-04 DE=-1.20D-04 OVMax= 6.93D-04

 Initial convergence to 1.0D-05 achieved.  Increase integral accuracy.
 Cycle   8  Pass 1  IDiag  1:
 E= -877.458587470347     Delta-E=       -0.000008206909 Rises=F Damp=F
 DIIS: error= 1.49D-04 at cycle   1 NSaved=   1.
 NSaved= 1 IEnMin= 1 EnMin= -877.458587470347     IErMin= 1 ErrMin= 1.49D-04
 ErrMax= 1.49D-04  0.00D+00 EMaxC= 1.00D-01 BMatC= 3.34D-06 BMatP= 3.34D-06
 IDIUse=3 WtCom= 9.99D-01 WtEn= 1.49D-03
 Coeff-Com:  0.100D+01
 Coeff-En:   0.100D+01
 Coeff:      0.100D+01
 Gap=     0.170 Goal=   None    Shift=    0.000
 RMSDP=8.05D-06 MaxDP=3.50D-04 DE=-8.21D-06 OVMax= 7.63D-04

 Cycle   9  Pass 1  IDiag  1:
 RMSU=  1.33D-04    CP:  1.00D+00
 E= -877.458588893079     Delta-E=       -0.000001422732 Rises=F Damp=F
 DIIS: error= 7.04D-05 at cycle   2 NSaved=   2.
 NSaved= 2 IEnMin= 2 EnMin= -877.458588893079     IErMin= 2 ErrMin= 7.04D-05
 ErrMax= 7.04D-05  0.00D+00 EMaxC= 1.00D-01 BMatC= 2.20D-06 BMatP= 3.34D-06
 IDIUse=1 WtCom= 1.00D+00 WtEn= 0.00D+00
 Coeff-Com:  0.424D+00 0.576D+00
 Coeff:      0.424D+00 0.576D+00
 Gap=     0.170 Goal=   None    Shift=    0.000
 RMSDP=9.88D-06 MaxDP=4.13D-04 DE=-1.42D-06 OVMax= 9.39D-04

 Cycle  10  Pass 1  IDiag  1:
 RMSU=  9.82D-06    CP:  1.00D+00  1.00D+00
 E= -877.458589581847     Delta-E=       -0.000000688768 Rises=F Damp=F
 DIIS: error= 6.29D-05 at cycle   3 NSaved=   3.
 NSaved= 3 IEnMin= 3 EnMin= -877.458589581847     IErMin= 3 ErrMin= 6.29D-05
 ErrMax= 6.29D-05  0.00D+00 EMaxC= 1.00D-01 BMatC= 1.51D-06 BMatP= 2.20D-06
 IDIUse=1 WtCom= 1.00D+00 WtEn= 0.00D+00
 Coeff-Com:  0.962D-03 0.452D+00 0.547D+00
 Coeff:      0.962D-03 0.452D+00 0.547D+00
 Gap=     0.170 Goal=   None    Shift=    0.000
 RMSDP=4.60D-06 MaxDP=1.80D-04 DE=-6.89D-07 OVMax= 4.73D-04

 Cycle  11  Pass 1  IDiag  1:
 RMSU=  9.90D-07    CP:  1.00D+00  1.01D+00  5.61D-01
 E= -877.458591041253     Delta-E=       -0.000001459406 Rises=F Damp=F
 DIIS: error= 1.10D-05 at cycle   4 NSaved=   4.
 NSaved= 4 IEnMin= 4 EnMin= -877.458591041253     IErMin= 4 ErrMin= 1.10D-05
 ErrMax= 1.10D-05  0.00D+00 EMaxC= 1.00D-01 BMatC= 3.20D-08 BMatP= 1.51D-06
 IDIUse=1 WtCom= 1.00D+00 WtEn= 0.00D+00
 Coeff-Com: -0.486D-02 0.284D+00 0.352D+00 0.370D+00
 Coeff:     -0.486D-02 0.284D+00 0.352D+00 0.370D+00
 Gap=     0.170 Goal=   None    Shift=    0.000
 RMSDP=6.09D-07 MaxDP=2.67D-05 DE=-1.46D-06 OVMax= 6.74D-05

 Cycle  12  Pass 1  IDiag  1:
 RMSU=  2.86D-07    CP:  1.00D+00  1.01D+00  5.69D-01  4.65D-01
 E= -877.458591075725     Delta-E=       -0.000000034471 Rises=F Damp=F
 DIIS: error= 1.06D-06 at cycle   5 NSaved=   5.
 NSaved= 5 IEnMin= 5 EnMin= -877.458591075725     IErMin= 5 ErrMin= 1.06D-06
 ErrMax= 1.06D-06  0.00D+00 EMaxC= 1.00D-01 BMatC= 4.06D-10 BMatP= 3.20D-08
 IDIUse=1 WtCom= 1.00D+00 WtEn= 0.00D+00
 Coeff-Com: -0.267D-02 0.143D+00 0.177D+00 0.203D+00 0.480D+00
 Coeff:     -0.267D-02 0.143D+00 0.177D+00 0.203D+00 0.480D+00
 Gap=     0.170 Goal=   None    Shift=    0.000
 RMSDP=9.60D-08 MaxDP=3.78D-06 DE=-3.45D-08 OVMax= 7.31D-06

 Cycle  13  Pass 1  IDiag  1:
 RMSU=  8.08D-08    CP:  1.00D+00  1.01D+00  5.66D-01  4.82D-01  8.64D-01
 E= -877.458591076100     Delta-E=       -0.000000000375 Rises=F Damp=F
 DIIS: error= 4.36D-07 at cycle   6 NSaved=   6.
 NSaved= 6 IEnMin= 6 EnMin= -877.458591076100     IErMin= 6 ErrMin= 4.36D-07
 ErrMax= 4.36D-07  0.00D+00 EMaxC= 1.00D-01 BMatC= 4.49D-11 BMatP= 4.06D-10
 IDIUse=1 WtCom= 1.00D+00 WtEn= 0.00D+00
 Coeff-Com: -0.967D-03 0.487D-01 0.597D-01 0.736D-01 0.278D+00 0.541D+00
 Coeff:     -0.967D-03 0.487D-01 0.597D-01 0.736D-01 0.278D+00 0.541D+00
 Gap=     0.170 Goal=   None    Shift=    0.000
 RMSDP=2.99D-08 MaxDP=1.30D-06 DE=-3.75D-10 OVMax= 3.06D-06

 Cycle  14  Pass 1  IDiag  1:
 RMSU=  2.45D-08    CP:  1.00D+00  1.01D+00  5.66D-01  4.86D-01  8.89D-01
                    CP:  8.47D-01
 E= -877.458591076146     Delta-E=       -0.000000000046 Rises=F Damp=F
 DIIS: error= 1.03D-07 at cycle   7 NSaved=   7.
 NSaved= 7 IEnMin= 7 EnMin= -877.458591076146     IErMin= 7 ErrMin= 1.03D-07
 ErrMax= 1.03D-07  0.00D+00 EMaxC= 1.00D-01 BMatC= 5.95D-12 BMatP= 4.49D-11
 IDIUse=1 WtCom= 1.00D+00 WtEn= 0.00D+00
 Coeff-Com: -0.190D-03 0.845D-02 0.100D-01 0.140D-01 0.942D-01 0.314D+00
 Coeff-Com:  0.560D+00
 Coeff:     -0.190D-03 0.845D-02 0.100D-01 0.140D-01 0.942D-01 0.314D+00
 Coeff:      0.560D+00
 Gap=     0.170 Goal=   None    Shift=    0.000
 RMSDP=9.95D-09 MaxDP=4.06D-07 DE=-4.64D-11 OVMax= 8.45D-07

 SCF Done:  E(RPBE1PBE) =  -877.458591076     A.U. after   14 cycles
            NFock= 14  Conv=0.99D-08     -V/T= 2.0099
 KE= 8.688523025948D+02 PE=-5.066740146414D+03 EE= 1.805724389747D+03
 Leave Link  502 at Thu Nov  3 08:05:40 2022, MaxMem=  4194304000 cpu:             589.4 elap:              73.7
 (Enter /software/gaussian/G16-A.03/avx/g16/l801.exe)
 DoSCS=F DFT=T ScalE2(SS,OS)=  1.000000  1.000000
 Range of M.O.s used for correlation:     1   364
 NBasis=   364 NAE=    72 NBE=    72 NFC=     0 NFV=     0
 NROrb=    364 NOA=    72 NOB=    72 NVA=   292 NVB=   292

 **** Warning!!: The largest alpha MO coefficient is  0.13061026D+02

 Leave Link  801 at Thu Nov  3 08:05:41 2022, MaxMem=  4194304000 cpu:               0.2 elap:               0.1
 (Enter /software/gaussian/G16-A.03/avx/g16/l1101.exe)
 Using compressed storage, NAtomX=    35.
 Will process     36 centers per pass.
   1 Symmetry operations used in ECPInt.
 ECPInt:  NShTT=   14196 NPrTT=   52318 LenC2=   12657 LenP2D=   32202.
 LDataN:  DoStor=T MaxTD1= 5 Len=  102
 R6Disp: Adding Grimme-D3(BJ) dispersion energy 1st derivatives to the gradient.
 Leave Link 1101 at Thu Nov  3 08:05:42 2022, MaxMem=  4194304000 cpu:               5.2 elap:               0.8
 (Enter /software/gaussian/G16-A.03/avx/g16/l1102.exe)
 Symmetrizing basis deriv contribution to polar:
 IMax=3 JMax=2 DiffMx= 0.00D+00
 Leave Link 1102 at Thu Nov  3 08:05:43 2022, MaxMem=  4194304000 cpu:               0.6 elap:               0.1
 (Enter /software/gaussian/G16-A.03/avx/g16/l1110.exe)
 Forming Gx(P) for the SCF density, NAtomX=    35.
 Integral derivatives from FoFJK, PRISM(SPDF).
 Do as many integral derivatives as possible in FoFJK.
 G2DrvN: MDV=    4194301344.
 G2DrvN: will do    36 centers at a time, making    1 passes.
 Calling FoFCou, ICntrl=  3107 FMM=F I1Cent=   0 AccDes= 0.00D+00.
 FoFJK:  IHMeth= 1 ICntrl=    3107 DoSepK=F KAlg= 0 I1Cent=           0 FoldK=F
 IRaf=         0 NMat=       1 IRICut=       1 DoRegI=T DoRafI=F ISym2E= 0 IDoP0=0 IntGTp=1.
 FoFCou: FMM=F IPFlag=           0 FMFlag=      100000 FMFlg1=           0
         NFxFlg=           0 DoJE=F BraDBF=F KetDBF=F FulRan=T
         wScrn=  0.000000 ICntrl=      3107 IOpCl=  0 I1Cent=           0 NGrid=           0
         NMat0=    1 NMatS0=      1 NMatT0=    0 NMatD0=    1 NMtDS0=    0 NMtDT0=    0
 Symmetry not used in FoFCou.
 End of G2Drv F.D. properties file   721 does not exist.
 End of G2Drv F.D. properties file   722 does not exist.
 End of G2Drv F.D. properties file   788 does not exist.
 Leave Link 1110 at Thu Nov  3 08:09:47 2022, MaxMem=  4194304000 cpu:            1952.8 elap:             244.1
 (Enter /software/gaussian/G16-A.03/avx/g16/l1002.exe)
 Minotr:  Closed shell wavefunction.
          IDoAtm=11111111111111111111111111111111111
          Direct CPHF calculation.
          Differentiating once with respect to electric field.
                with respect to dipole field.
          Differentiating once with respect to nuclear coordinates.
          Requested convergence is 1.0D-08 RMS, and 1.0D-07 maximum.
          Secondary convergence is 1.0D-12 RMS, and 1.0D-12 maximum.
          NewPWx=T KeepS1=F KeepF1=F KeepIn=T MapXYZ=F SortEE=F KeepMc=T.
        10557 words used for storage of precomputed grid.
 Keep R1 ints in memory in canonical form, NReq=2235278629.
 FoFCou: FMM=F IPFlag=           0 FMFlag=           0 FMFlg1=           0
         NFxFlg=           0 DoJE=F BraDBF=F KetDBF=F FulRan=T
         wScrn=  0.000000 ICntrl=       600 IOpCl=  0 I1Cent=           0 NGrid=           0
         NMat0=    1 NMatS0=  66430 NMatT0=    0 NMatD0=    1 NMtDS0=    0 NMtDT0=    0
 Symmetry not used in FoFCou.
 Two-electron integral symmetry not used.
          MDV=    4194304000 using IRadAn=       1.
          Solving linear equations simultaneously, MaxMat=       0.
          There are   108 degrees of freedom in the 1st order CPHF.  IDoFFX=6 NUNeed=     3.
    105 vectors produced by pass  0 Test12= 2.10D-14 1.00D-09 XBig12= 2.98D+02 1.01D+01.
 AX will form   105 AO Fock derivatives at one time.
    105 vectors produced by pass  1 Test12= 2.10D-14 1.00D-09 XBig12= 6.19D+01 1.54D+00.
    105 vectors produced by pass  2 Test12= 2.10D-14 1.00D-09 XBig12= 7.72D-01 1.41D-01.
    105 vectors produced by pass  3 Test12= 2.10D-14 1.00D-09 XBig12= 4.38D-03 4.37D-03.
    105 vectors produced by pass  4 Test12= 2.10D-14 1.00D-09 XBig12= 1.41D-05 2.66D-04.
    103 vectors produced by pass  5 Test12= 2.10D-14 1.00D-09 XBig12= 2.16D-08 1.16D-05.
     34 vectors produced by pass  6 Test12= 2.10D-14 1.00D-09 XBig12= 2.69D-11 3.73D-07.
      3 vectors produced by pass  7 Test12= 2.10D-14 1.00D-09 XBig12= 2.51D-14 9.53D-09.
 InvSVY:  IOpt=1 It=  1 EMax= 1.07D-14
 Solved reduced A of dimension   665 with   108 vectors.
 FullF1:  Do perturbations      1 to       3.
 Isotropic polarizability for W=    0.000000      207.09 Bohr**3.
 End of Minotr F.D. properties file   721 does not exist.
 End of Minotr F.D. properties file   722 does not exist.
 End of Minotr F.D. properties file   788 does not exist.
 Leave Link 1002 at Thu Nov  3 08:14:42 2022, MaxMem=  4194304000 cpu:            2353.4 elap:             294.2
 (Enter /software/gaussian/G16-A.03/avx/g16/l601.exe)
 Copying SCF densities to generalized density rwf, IOpCl= 0 IROHF=0.

 **********************************************************************

            Population analysis using the SCF density.

 **********************************************************************

 Orbital symmetries:
       Occupied  (A) (A) (A) (A) (A) (A) (A) (A) (A) (A) (A) (A)
                 (A) (A) (A) (A) (A) (A) (A) (A) (A) (A) (A) (A)
                 (A) (A) (A) (A) (A) (A) (A) (A) (A) (A) (A) (A)
                 (A) (A) (A) (A) (A) (A) (A) (A) (A) (A) (A) (A)
                 (A) (A) (A) (A) (A) (A) (A) (A) (A) (A) (A) (A)
                 (A) (A) (A) (A) (A) (A) (A) (A) (A) (A) (A) (A)
       Virtual   (A) (A) (A) (A) (A) (A) (A) (A) (A) (A) (A) (A)
                 (A) (A) (A) (A) (A) (A) (A) (A) (A) (A) (A) (A)
                 (A) (A) (A) (A) (A) (A) (A) (A) (A) (A) (A) (A)
                 (A) (A) (A) (A) (A) (A) (A) (A) (A) (A) (A) (A)
                 (A) (A) (A) (A) (A) (A) (A) (A) (A) (A) (A) (A)
                 (A) (A) (A) (A) (A) (A) (A) (A) (A) (A) (A) (A)
                 (A) (A) (A) (A) (A) (A) (A) (A) (A) (A) (A) (A)
                 (A) (A) (A) (A) (A) (A) (A) (A) (A) (A) (A) (A)
                 (A) (A) (A) (A) (A) (A) (A) (A) (A) (A) (A) (A)
                 (A) (A) (A) (A) (A) (A) (A) (A) (A) (A) (A) (A)
                 (A) (A) (A) (A) (A) (A) (A) (A) (A) (A) (A) (A)
                 (A) (A) (A) (A) (A) (A) (A) (A) (A) (A) (A) (A)
                 (A) (A) (A) (A) (A) (A) (A) (A) (A) (A) (A) (A)
                 (A) (A) (A) (A) (A) (A) (A) (A) (A) (A) (A) (A)
                 (A) (A) (A) (A) (A) (A) (A) (A) (A) (A) (A) (A)
                 (A) (A) (A) (A) (A) (A) (A) (A) (A) (A) (A) (A)
                 (A) (A) (A) (A) (A) (A) (A) (A) (A) (A) (A) (A)
                 (A) (A) (A) (A) (A) (A) (A) (A) (A) (A) (A) (A)
                 (A) (A) (A) (A) (A) (A) (A) (A) (A) (A) (A) (A)
                 (A) (A) (A) (A) (A) (A) (A) (A) (A) (A) (A) (A)
                 (A) (A) (A) (A) (A) (A) (A) (A) (A) (A) (A) (A)
                 (A) (A) (A) (A) (A) (A) (A) (A) (A) (A) (A) (A)
                 (A) (A) (A) (A) (A) (A) (A) (A) (A) (A) (A) (A)
                 (A) (A) (A) (A) (A) (A) (A) (A) (A) (A) (A) (A)
                 (A) (A) (A) (A)
 The electronic state is 1-A.
 Alpha  occ. eigenvalues --  -19.24269 -14.38068 -14.35594 -10.31310 -10.28933
 Alpha  occ. eigenvalues --  -10.28127 -10.27267 -10.26540 -10.26016 -10.25648
 Alpha  occ. eigenvalues --  -10.25594 -10.25326 -10.25060 -10.24903 -10.24835
 Alpha  occ. eigenvalues --  -10.24099 -10.23569 -10.23522 -10.23459 -10.23403
 Alpha  occ. eigenvalues --  -10.23301  -1.11624  -0.96342  -0.91323  -0.88010
 Alpha  occ. eigenvalues --   -0.87021  -0.83637  -0.80449  -0.77500  -0.76966
 Alpha  occ. eigenvalues --   -0.75845  -0.73935  -0.66732  -0.66552  -0.64751
 Alpha  occ. eigenvalues --   -0.63989  -0.61706  -0.59371  -0.57672  -0.54713
 Alpha  occ. eigenvalues --   -0.54263  -0.53034  -0.52676  -0.50831  -0.49514
 Alpha  occ. eigenvalues --   -0.47851  -0.46557  -0.46215  -0.45577  -0.44697
 Alpha  occ. eigenvalues --   -0.43992  -0.43589  -0.42917  -0.42170  -0.41806
 Alpha  occ. eigenvalues --   -0.41735  -0.39438  -0.38630  -0.37607  -0.37208
 Alpha  occ. eigenvalues --   -0.36561  -0.36036  -0.35650  -0.34468  -0.32316
 Alpha  occ. eigenvalues --   -0.27963  -0.27229  -0.26522  -0.26308  -0.25904
 Alpha  occ. eigenvalues --   -0.23995  -0.23687
 Alpha virt. eigenvalues --   -0.06725  -0.02099  -0.01062  -0.00073   0.00470
 Alpha virt. eigenvalues --    0.06558   0.07011   0.07570   0.08857   0.09159
 Alpha virt. eigenvalues --    0.09948   0.10979   0.11560   0.12888   0.13062
 Alpha virt. eigenvalues --    0.13632   0.14190   0.14479   0.15510   0.16198
 Alpha virt. eigenvalues --    0.17251   0.18319   0.18630   0.20443   0.20936
 Alpha virt. eigenvalues --    0.22539   0.23431   0.24458   0.25964   0.26654
 Alpha virt. eigenvalues --    0.27742   0.28339   0.30033   0.31057   0.31235
 Alpha virt. eigenvalues --    0.31497   0.32612   0.32787   0.34197   0.35436
 Alpha virt. eigenvalues --    0.35858   0.37031   0.37233   0.38934   0.39685
 Alpha virt. eigenvalues --    0.40557   0.42364   0.43040   0.43221   0.44365
 Alpha virt. eigenvalues --    0.44797   0.45983   0.46559   0.46737   0.47447
 Alpha virt. eigenvalues --    0.47901   0.48466   0.49372   0.49998   0.50194
 Alpha virt. eigenvalues --    0.50656   0.51429   0.52210   0.52822   0.53293
 Alpha virt. eigenvalues --    0.53656   0.55569   0.56482   0.57310   0.57823
 Alpha virt. eigenvalues --    0.57997   0.58920   0.59928   0.60800   0.61865
 Alpha virt. eigenvalues --    0.62089   0.62578   0.63720   0.64131   0.65246
 Alpha virt. eigenvalues --    0.65584   0.65770   0.66234   0.66726   0.66925
 Alpha virt. eigenvalues --    0.67417   0.67772   0.68115   0.68275   0.68883
 Alpha virt. eigenvalues --    0.69740   0.70646   0.70925   0.72597   0.73617
 Alpha virt. eigenvalues --    0.73833   0.74649   0.74919   0.75606   0.75896
 Alpha virt. eigenvalues --    0.76458   0.76610   0.77360   0.78091   0.78308
 Alpha virt. eigenvalues --    0.78729   0.81139   0.82530   0.83364   0.83486
 Alpha virt. eigenvalues --    0.85283   0.87236   0.87826   0.89037   0.89141
 Alpha virt. eigenvalues --    0.90920   0.93226   0.95340   0.96850   1.00545
 Alpha virt. eigenvalues --    1.02276   1.04716   1.06205   1.06657   1.07676
 Alpha virt. eigenvalues --    1.10234   1.11117   1.13135   1.15277   1.17927
 Alpha virt. eigenvalues --    1.18951   1.20015   1.20668   1.21627   1.22079
 Alpha virt. eigenvalues --    1.23795   1.25200   1.25549   1.26230   1.27104
 Alpha virt. eigenvalues --    1.27341   1.28185   1.28590   1.29272   1.30320
 Alpha virt. eigenvalues --    1.30832   1.33320   1.33457   1.34652   1.35261
 Alpha virt. eigenvalues --    1.36314   1.37777   1.38616   1.41048   1.43642
 Alpha virt. eigenvalues --    1.47594   1.51110   1.51990   1.54481   1.58024
 Alpha virt. eigenvalues --    1.58743   1.63246   1.64406   1.65841   1.67057
 Alpha virt. eigenvalues --    1.68296   1.69215   1.69585   1.70155   1.71517
 Alpha virt. eigenvalues --    1.72297   1.72681   1.73060   1.73443   1.74317
 Alpha virt. eigenvalues --    1.74850   1.75894   1.76702   1.77286   1.77673
 Alpha virt. eigenvalues --    1.78196   1.78528   1.79537   1.79781   1.80293
 Alpha virt. eigenvalues --    1.80613   1.81316   1.82089   1.83549   1.84401
 Alpha virt. eigenvalues --    1.85373   1.87153   1.88765   1.90664   1.91694
 Alpha virt. eigenvalues --    1.92733   1.93213   1.93847   1.95047   1.96125
 Alpha virt. eigenvalues --    1.96321   1.97038   1.98288   1.98933   1.99477
 Alpha virt. eigenvalues --    2.00290   2.01263   2.03342   2.04868   2.05757
 Alpha virt. eigenvalues --    2.07261   2.08355   2.10462   2.11126   2.12562
 Alpha virt. eigenvalues --    2.13485   2.14673   2.15182   2.15928   2.17372
 Alpha virt. eigenvalues --    2.18169   2.19168   2.19667   2.21652   2.23033
 Alpha virt. eigenvalues --    2.24886   2.26686   2.29051   2.30487   2.30730
 Alpha virt. eigenvalues --    2.31385   2.31416   2.32500   2.34166   2.36350
 Alpha virt. eigenvalues --    2.37469   2.38986   2.41732   2.42556   2.43797
 Alpha virt. eigenvalues --    2.44295   2.47985   2.48843   2.50367   2.51994
 Alpha virt. eigenvalues --    2.54704   2.57293   2.57456   2.59570   2.62483
 Alpha virt. eigenvalues --    2.63070   2.64930   2.65244   2.65896   2.66556
 Alpha virt. eigenvalues --    2.68953   2.73632   2.74302   2.74965   2.75136
 Alpha virt. eigenvalues --    2.75756   2.76747   2.78450   2.81703   2.83231
 Alpha virt. eigenvalues --    2.85470   2.87046   2.89045   2.89764   2.90724
 Alpha virt. eigenvalues --    2.91991   2.95832   2.96579   2.97224   2.99375
 Alpha virt. eigenvalues --    3.02165   3.04985   3.05990   3.09064   3.11240
 Alpha virt. eigenvalues --    3.15304   3.15580   3.16087   3.20068   3.27822
 Alpha virt. eigenvalues --    3.29621   3.32140   3.42550   3.57163   3.65772
 Alpha virt. eigenvalues --    3.66565   3.68639
     Molecular Orbital Coefficients:
                          68        69        70        71        72
                           O         O         O         O         O
     Eigenvalues --    -0.26522  -0.26308  -0.25904  -0.23995  -0.23687
   1 1   C  1S         -0.00137   0.00064   0.00131  -0.00012  -0.00112
   2        2S          0.00343  -0.00148  -0.00320  -0.00049   0.00253
   3        3S          0.01126  -0.00542  -0.01249   0.00587   0.01043
   4        4PX        -0.01680   0.05079   0.24489   0.06309   0.06488
   5        4PY         0.01665  -0.03388  -0.16642  -0.04289  -0.03943
   6        4PZ         0.00996  -0.02062  -0.08956  -0.02109  -0.02159
   7        5PX        -0.01492   0.03647   0.17733   0.04462   0.04908
   8        5PY         0.00171  -0.02539  -0.11747  -0.02937  -0.03451
   9        5PZ         0.01738  -0.01083  -0.05737  -0.02437  -0.00827
  10        6D 0        0.00013   0.00786   0.00048   0.00088   0.00015
  11        6D+1       -0.00024  -0.01333   0.00053  -0.00117   0.00006
  12        6D-1        0.00124   0.00459   0.00186   0.00122   0.00155
  13        6D+2        0.00157   0.00819  -0.00739  -0.00031  -0.00081
  14        6D-2        0.00103   0.00815  -0.00272   0.00051   0.00006
  15 2   C  1S         -0.00378   0.00141   0.00071  -0.00067  -0.00421
  16        2S          0.00852  -0.00435  -0.00274   0.00237   0.00828
  17        3S          0.00432   0.00385   0.02767  -0.03455   0.02127
  18        4PX        -0.00686   0.25991   0.07213   0.03944   0.01048
  19        4PY        -0.02166  -0.16562  -0.04009  -0.02969  -0.03055
  20        4PZ        -0.01667  -0.09042  -0.02291  -0.01923  -0.02191
  21        5PX         0.00289   0.18217   0.04163   0.04002   0.00438
  22        5PY        -0.01089  -0.11726  -0.03804  -0.00932  -0.02517
  23        5PZ         0.00076  -0.06109  -0.01394  -0.01693  -0.01307
  24        6D 0        0.00183   0.00180  -0.00926  -0.00201  -0.00126
  25        6D+1       -0.00043  -0.00112   0.01126   0.00255   0.00369
  26        6D-1        0.00162   0.00383  -0.00967  -0.00201  -0.00196
  27        6D+2       -0.00055  -0.00852   0.00607   0.00096   0.00215
  28        6D-2       -0.00046  -0.00251  -0.00234  -0.00111  -0.00121
  29 3   C  1S          0.00289  -0.00030  -0.00001   0.00047   0.00227
  30        2S         -0.00490  -0.00283   0.00221  -0.00064   0.00036
  31        3S         -0.01445   0.01352  -0.04519   0.06833  -0.02524
  32        4PX         0.04520   0.20144  -0.18357  -0.02546  -0.02936
  33        4PY         0.00583  -0.14103   0.11062   0.01837   0.05113
  34        4PZ        -0.01014  -0.08184   0.07183   0.01313   0.01530
  35        5PX         0.04064   0.13875  -0.12703  -0.02603  -0.01756
  36        5PY         0.01409  -0.09919   0.08203   0.00212   0.03459
  37        5PZ         0.00012  -0.05644   0.03562   0.03762   0.01744
  38        6D 0       -0.00185  -0.00344   0.00236  -0.00085  -0.00110
  39        6D+1        0.00170   0.00311  -0.00480  -0.00045  -0.00025
  40        6D-1        0.00238  -0.00716  -0.00291  -0.00047   0.00188
  41        6D+2       -0.00003   0.01125   0.01213   0.00399   0.00374
  42        6D-2        0.00071   0.00180   0.00557   0.00214   0.00324
  43 4   C  1S         -0.01986   0.00401   0.00646  -0.00304  -0.02610
  44        2S          0.04940  -0.01000  -0.00953  -0.00023   0.07224
  45        3S          0.07332  -0.01928  -0.06404   0.06878   0.06944
  46        4PX        -0.03792  -0.03599  -0.22796  -0.06472  -0.13266
  47        4PY        -0.06979   0.04042   0.19153   0.02928  -0.01287
  48        4PZ        -0.06483   0.03300   0.11427   0.00390  -0.03903
  49        5PX        -0.03016  -0.02532  -0.13946  -0.08510  -0.10137
  50        5PY        -0.04316   0.03081   0.16141  -0.04174  -0.02597
  51        5PZ        -0.08102   0.02089   0.06902   0.03841  -0.07349
  52        6D 0       -0.00064   0.00825   0.00179   0.00042   0.00047
  53        6D+1        0.00105  -0.01359   0.00023  -0.00162   0.00198
  54        6D-1        0.00208   0.00466   0.00212   0.00293   0.00313
  55        6D+2        0.00130   0.00876  -0.00759  -0.00380  -0.00225
  56        6D-2        0.00282   0.00789  -0.00282   0.00028   0.00291
  57 5   C  1S          0.00255  -0.00118  -0.00221   0.00195   0.00296
  58        2S          0.00064   0.00512   0.00622  -0.00390   0.00131
  59        3S         -0.03819  -0.00988   0.01223  -0.06233  -0.03483
  60        4PX         0.00161  -0.25231  -0.08511  -0.04990  -0.03221
  61        4PY         0.00890   0.18074   0.05820   0.03612   0.03387
  62        4PZ         0.03092   0.08181   0.01416   0.03169   0.03905
  63        5PX        -0.00483  -0.17898  -0.06821  -0.02286  -0.02415
  64        5PY         0.01921   0.12424   0.03970   0.02544   0.03998
  65        5PZ        -0.01792   0.05610  -0.00619   0.05371  -0.01102
  66        6D 0        0.00215   0.00189  -0.00848  -0.00166  -0.00060
  67        6D+1        0.00093  -0.00121   0.01103   0.00207   0.00532
  68        6D-1        0.00354   0.00342  -0.01063  -0.00087   0.00055
  69        6D+2        0.00002  -0.00840   0.00536  -0.00032   0.00140
  70        6D-2       -0.00012  -0.00192  -0.00305  -0.00083  -0.00115
  71 6   C  1S         -0.00408  -0.00008   0.00169  -0.00150  -0.00486
  72        2S          0.00898   0.00086  -0.00425   0.00191   0.00989
  73        3S          0.02299   0.00392   0.01295   0.00336   0.02989
  74        4PX        -0.04460  -0.20057   0.17474   0.00495   0.00950
  75        4PY         0.00721   0.14025  -0.11249  -0.00954  -0.03028
  76        4PZ        -0.00694   0.07698  -0.05415  -0.00899  -0.02534
  77        5PX        -0.04337  -0.14358   0.11759   0.00787  -0.00659
  78        5PY        -0.01443   0.09663  -0.08516   0.00371  -0.03794
  79        5PZ        -0.00356   0.05153  -0.04286  -0.01019  -0.02006
  80        6D 0       -0.00153  -0.00304   0.00174  -0.00072  -0.00121
  81        6D+1        0.00054   0.00348  -0.00387  -0.00037  -0.00066
  82        6D-1        0.00034  -0.00664  -0.00254  -0.00135  -0.00081
  83        6D+2       -0.00058   0.01189   0.01304   0.00467   0.00412
  84        6D-2        0.00047   0.00193   0.00538   0.00198   0.00233
  85 7   C  1S          0.00553   0.00020  -0.00817   0.02282  -0.00817
  86        2S         -0.01026  -0.00180   0.01014  -0.05347   0.02708
  87        3S         -0.02949   0.01620   0.09155  -0.15373  -0.02721
  88        4PX         0.02642   0.00036   0.02030   0.10587   0.00158
  89        4PY         0.04586  -0.01401  -0.02297  -0.07193   0.05967
  90        4PZ         0.07678  -0.01283  -0.05100   0.01975   0.06927
  91        5PX        -0.03995   0.00039  -0.00354   0.04231  -0.05697
  92        5PY         0.01017  -0.01838  -0.01496   0.02844   0.00400
  93        5PZ         0.01199   0.00650  -0.00041  -0.04195  -0.00625
  94        6D 0       -0.00433   0.00268   0.00876  -0.00084  -0.00292
  95        6D+1        0.01046  -0.00241  -0.00591   0.00848   0.01304
  96        6D-1        0.00253   0.00012   0.00404  -0.00143   0.00139
  97        6D+2        0.00405  -0.00265  -0.01229  -0.01393   0.00774
  98        6D-2        0.00292   0.00002   0.00380  -0.00279   0.00766
  99 8   H  1S         -0.08753   0.02101   0.08034  -0.04732  -0.07102
 100        2S         -0.04791   0.02420   0.04291  -0.02359  -0.05580
 101        3PX         0.00176   0.00041  -0.00088   0.00154   0.00022
 102        3PY         0.00171  -0.00011  -0.00203  -0.00209   0.00265
 103        3PZ        -0.00183   0.00055   0.00172  -0.00150  -0.00129
 104 9   C  1S          0.00193  -0.00546  -0.00460  -0.01995   0.00733
 105        2S         -0.00540   0.01336   0.00946   0.04819  -0.02183
 106        3S         -0.01137   0.00770  -0.00415   0.14606  -0.00735
 107        4PX        -0.03411   0.01806   0.03249   0.01512  -0.01682
 108        4PY        -0.03596   0.01072   0.03144   0.09027  -0.05073
 109        4PZ        -0.08185   0.02278   0.01506  -0.02369  -0.01952
 110        5PX         0.01089   0.00871   0.01528   0.03877  -0.01444
 111        5PY        -0.01747  -0.01154   0.00337   0.10015  -0.03174
 112        5PZ        -0.00956   0.01574   0.00803  -0.01992   0.00992
 113        6D 0        0.01063  -0.00084   0.00095  -0.00055   0.00523
 114        6D+1       -0.00677   0.00082  -0.00037  -0.00242  -0.00114
 115        6D-1        0.00923  -0.00171  -0.00352   0.00244   0.00376
 116        6D+2       -0.00594   0.00044  -0.00061   0.00212  -0.00354
 117        6D-2       -0.00213  -0.00028   0.00012   0.00184  -0.00195
 118 10  O  1S          0.00197  -0.00110   0.00287   0.01259  -0.00606
 119        2S          0.00406  -0.00213   0.00595   0.02955  -0.01281
 120        3S          0.00522  -0.00302   0.00908   0.05714  -0.03997
 121        4PX         0.12718  -0.02073  -0.01938   0.00971   0.06442
 122        4PY         0.11628  -0.00796  -0.02078   0.10796   0.01534
 123        4PZ         0.28982  -0.03679  -0.00355  -0.01014   0.17207
 124        5PX         0.10337  -0.01668  -0.01209   0.00644   0.04995
 125        5PY         0.08909  -0.00600  -0.01847   0.08415   0.01462
 126        5PZ         0.23168  -0.02842  -0.00275  -0.00481   0.15352
 127        6D 0       -0.00499   0.00040   0.00012   0.00023  -0.00143
 128        6D+1        0.00126   0.00056   0.00160  -0.00076   0.00118
 129        6D-1        0.00401  -0.00086  -0.00078  -0.00204   0.00128
 130        6D+2       -0.00099   0.00062   0.00043  -0.00035   0.00027
 131        6D-2        0.00338  -0.00038   0.00051   0.00281  -0.00023
 132 11  C  1S          0.00442   0.00081  -0.01013   0.03333  -0.01358
 133        2S         -0.01196  -0.00545   0.02556  -0.08433   0.03373
 134        3S         -0.00531   0.04790   0.06621   0.04607  -0.01733
 135        4PX        -0.05343  -0.00573   0.01935  -0.02124  -0.03988
 136        4PY        -0.05212  -0.00466   0.02881  -0.04293  -0.03167
 137        4PZ        -0.12601  -0.00003  -0.04088  -0.01921  -0.14735
 138        5PX         0.00126  -0.00681  -0.01246  -0.08050   0.01576
 139        5PY        -0.02930   0.01753   0.01572   0.02023  -0.04572
 140        5PZ        -0.07767  -0.00092  -0.00961  -0.01057  -0.11850
 141        6D 0        0.00892  -0.00188  -0.00348   0.00331   0.02188
 142        6D+1        0.00817   0.00080   0.00444   0.00353  -0.01358
 143        6D-1       -0.01838   0.00168   0.00070  -0.00738  -0.01300
 144        6D+2        0.00951  -0.00258  -0.00212  -0.01793   0.00794
 145        6D-2       -0.00782   0.00108   0.00307  -0.01069  -0.00823
 146 12  N  1S          0.00640  -0.00077  -0.03037   0.06505  -0.02977
 147        2S          0.01712  -0.00186  -0.06478   0.13762  -0.06170
 148        3S         -0.02222  -0.01787  -0.12016   0.18941  -0.11735
 149        4PX         0.04907   0.00773   0.06232   0.13501   0.07361
 150        4PY         0.04100  -0.02557   0.01213  -0.25543   0.20819
 151        4PZ         0.19201  -0.01807  -0.07553   0.13699   0.25927
 152        5PX        -0.05008   0.00028  -0.03996  -0.07548  -0.07586
 153        5PY        -0.02334   0.02319   0.01008   0.16022  -0.13669
 154        5PZ        -0.14010   0.01195   0.05351  -0.10444  -0.19987
 155        6D 0       -0.00737   0.00130   0.00099   0.00461  -0.01284
 156        6D+1        0.00295   0.00036   0.00031   0.00024   0.00184
 157        6D-1        0.00838  -0.00001  -0.00218   0.00872   0.01014
 158        6D+2       -0.00077   0.00095  -0.00069   0.00737  -0.00725
 159        6D-2        0.00504  -0.00028   0.00387   0.00982   0.00453
 160 13  N  1S         -0.00754   0.01321   0.01226  -0.07664   0.02868
 161        2S         -0.01611   0.02844   0.02711  -0.16424   0.06213
 162        3S         -0.01408   0.02049   0.01626  -0.18853   0.06735
 163        4PX        -0.02883  -0.06662  -0.07817   0.37113  -0.09171
 164        4PY        -0.03917  -0.00049  -0.01006   0.00065   0.02732
 165        4PZ        -0.17776   0.01907  -0.03903  -0.08772   0.14520
 166        5PX         0.02048   0.04779   0.05653  -0.24902   0.05606
 167        5PY         0.02662   0.00311   0.01154   0.00932  -0.02408
 168        5PZ         0.12557  -0.01441   0.02861   0.05129  -0.10876
 169        6D 0        0.00444   0.00122   0.00221  -0.00811   0.00249
 170        6D+1       -0.00739   0.00145  -0.00082  -0.00784   0.00691
 171        6D-1        0.00025   0.00090   0.00211  -0.00266  -0.00462
 172        6D+2       -0.00211  -0.00157  -0.00253   0.01031  -0.00126
 173        6D-2       -0.00194   0.00008   0.00008  -0.00285   0.00008
 174 14  C  1S         -0.00290   0.00423   0.00447  -0.02235   0.00717
 175        2S          0.00830  -0.01084  -0.01158   0.05914  -0.01779
 176        3S         -0.00944   0.01203   0.00310  -0.08645   0.02021
 177        4PX         0.03707  -0.02360  -0.02258   0.11079  -0.00197
 178        4PY         0.02110  -0.01443  -0.01155   0.05689  -0.00141
 179        4PZ         0.06234   0.00171  -0.00599  -0.02279   0.09726
 180        5PX         0.00755   0.02047   0.01406  -0.04250   0.02890
 181        5PY         0.02205  -0.00727   0.00274   0.12538  -0.02598
 182        5PZ         0.05681  -0.01063  -0.00874  -0.00083   0.04153
 183        6D 0       -0.00388   0.00016  -0.00160  -0.00148   0.00503
 184        6D+1       -0.00232  -0.00128  -0.00188   0.00842  -0.00131
 185        6D-1        0.01177   0.00059   0.00443  -0.00604  -0.00885
 186        6D+2       -0.00519   0.00338   0.00142  -0.01769   0.00916
 187        6D-2        0.00308   0.00188   0.00377  -0.00971  -0.00030
 188 15  C  1S         -0.00337   0.00531   0.00792  -0.00915   0.00381
 189        2S          0.00715  -0.01246  -0.01872   0.02305  -0.01112
 190        3S          0.05944  -0.03618  -0.05395   0.07730   0.03033
 191        4PX        -0.05740  -0.00306  -0.04486  -0.03985   0.08307
 192        4PY        -0.03411  -0.01202  -0.03098   0.07151   0.02476
 193        4PZ        -0.17571  -0.00348  -0.06659   0.08162   0.17140
 194        5PX        -0.03588  -0.02086  -0.05475  -0.13509   0.10748
 195        5PY        -0.02406  -0.03154  -0.02488   0.14132  -0.01866
 196        5PZ        -0.13532   0.00930  -0.04190   0.07968   0.12895
 197        6D 0        0.00008   0.00009  -0.00019   0.00191   0.00675
 198        6D+1       -0.00377  -0.00035  -0.00073   0.00002  -0.00775
 199        6D-1        0.00573  -0.00004   0.00070  -0.00263  -0.00172
 200        6D+2       -0.00328   0.00070   0.00011  -0.00652  -0.00034
 201        6D-2        0.00038  -0.00017   0.00171  -0.00068  -0.00392
 202 16  C  1S          0.00018  -0.00070  -0.00247  -0.00193   0.00049
 203        2S         -0.00094   0.00072   0.00554   0.00492  -0.00119
 204        3S          0.00270  -0.01948  -0.00406  -0.01816  -0.00275
 205        4PX        -0.03527  -0.00012  -0.00519   0.04091   0.03963
 206        4PY        -0.03343   0.00464   0.00576   0.00596   0.02901
 207        4PZ        -0.10124   0.00425  -0.03231   0.03814   0.13038
 208        5PX        -0.02650  -0.00224  -0.00501   0.08246   0.00366
 209        5PY        -0.02681  -0.00722  -0.00034  -0.02521   0.02420
 210        5PZ        -0.05306   0.00368  -0.02474   0.02143   0.12562
 211        6D 0        0.00593   0.00055   0.00345  -0.00317  -0.00735
 212        6D+1       -0.00432  -0.00067  -0.00286   0.00373   0.00564
 213        6D-1       -0.00459  -0.00004  -0.00203   0.00198   0.00560
 214        6D+2       -0.00085   0.00000  -0.00119  -0.00226   0.00198
 215        6D-2       -0.00344  -0.00016  -0.00171   0.00043   0.00431
 216 17  C  1S         -0.00009   0.00055   0.00167   0.00131  -0.00017
 217        2S          0.00026  -0.00152  -0.00404  -0.00144  -0.00035
 218        3S         -0.00825   0.01001   0.00382   0.03714  -0.01902
 219        4PX         0.02420   0.00678   0.01757  -0.04296  -0.03219
 220        4PY         0.01921   0.00102   0.00996  -0.00248  -0.02752
 221        4PZ         0.07082   0.01231   0.05977  -0.03645  -0.11125
 222        5PX         0.01351   0.00340   0.01285   0.00006  -0.04537
 223        5PY         0.01323   0.00762   0.01187  -0.00731  -0.01438
 224        5PZ         0.04747   0.00918   0.04466  -0.04024  -0.08611
 225        6D 0        0.00189  -0.00017   0.00040  -0.00096  -0.00259
 226        6D+1       -0.00612  -0.00014  -0.00250   0.00351   0.00808
 227        6D-1        0.00620   0.00030   0.00268  -0.00357  -0.00742
 228        6D+2       -0.00407   0.00033  -0.00134   0.00003   0.00550
 229        6D-2        0.00022   0.00017   0.00101   0.00035  -0.00095
 230 18  C  1S         -0.00199   0.00264   0.00260  -0.01233   0.00427
 231        2S          0.00469  -0.00670  -0.00653   0.03172  -0.01155
 232        3S          0.00695  -0.02047  -0.02122   0.03338  -0.02137
 233        4PX         0.05946  -0.00516   0.01963   0.00843  -0.08045
 234        4PY         0.03541  -0.00428   0.01292   0.01115  -0.05422
 235        4PZ         0.14408   0.01065   0.07278  -0.08978  -0.17914
 236        5PX         0.04338  -0.00665   0.01176  -0.00349  -0.06048
 237        5PY         0.02553   0.00053   0.00905  -0.00805  -0.03306
 238        5PZ         0.10336   0.00772   0.05378  -0.06138  -0.14084
 239        6D 0       -0.00180   0.00027   0.00003  -0.00025   0.00046
 240        6D+1        0.00339  -0.00018   0.00124   0.00089  -0.00360
 241        6D-1       -0.00155  -0.00057  -0.00235   0.00091   0.00429
 242        6D+2        0.00110   0.00113   0.00173  -0.00584  -0.00037
 243        6D-2        0.00026  -0.00000  -0.00017  -0.00068   0.00109
 244 19  C  1S          0.00151  -0.00351  -0.00301   0.02061  -0.00683
 245        2S         -0.00419   0.00981   0.00864  -0.05382   0.01764
 246        3S         -0.01135   0.02105   0.01885  -0.04488   0.01370
 247        4PX         0.01037   0.01901   0.01558  -0.11844   0.03683
 248        4PY         0.01340  -0.00180  -0.00161   0.00086  -0.00136
 249        4PZ         0.06094  -0.01664  -0.00983   0.04232  -0.02175
 250        5PX         0.00444   0.01819   0.01050  -0.09142   0.03621
 251        5PY         0.01285  -0.01330  -0.01514   0.02495  -0.01423
 252        5PZ         0.04358  -0.01182  -0.00703   0.03296  -0.00140
 253        6D 0        0.00234   0.00035   0.00212  -0.00268  -0.00678
 254        6D+1        0.00306  -0.00026  -0.00023   0.00125   0.00344
 255        6D-1       -0.00982   0.00007  -0.00354   0.00150   0.00893
 256        6D+2        0.00286   0.00058   0.00110  -0.00304   0.00060
 257        6D-2       -0.00279  -0.00094  -0.00235   0.00428   0.00343
 258 20  C  1S         -0.00019   0.00038   0.00020  -0.00206   0.00017
 259        2S          0.00036  -0.00043   0.00016   0.00431   0.00019
 260        3S         -0.00677   0.01470   0.01468  -0.07615   0.03568
 261        4PX        -0.05545  -0.00722  -0.02538   0.03775   0.03076
 262        4PY        -0.03522  -0.00212  -0.01374   0.00826   0.02224
 263        4PZ        -0.15685  -0.00370  -0.05690   0.03476   0.10243
 264        5PX        -0.04062  -0.00010  -0.01268   0.00265   0.03060
 265        5PY        -0.02380  -0.00287  -0.00912   0.00516   0.01405
 266        5PZ        -0.10788  -0.00395  -0.04102   0.03219   0.06623
 267        6D 0        0.00534   0.00001   0.00146  -0.00132  -0.00252
 268        6D+1       -0.00192  -0.00061  -0.00136   0.00296   0.00078
 269        6D-1       -0.00775   0.00060  -0.00111  -0.00006   0.00326
 270        6D+2        0.00001   0.00104   0.00078  -0.00588   0.00211
 271        6D-2       -0.00397   0.00020  -0.00071   0.00034   0.00183
 272 21  C  1S          0.00241  -0.00441  -0.00394   0.02429  -0.00883
 273        2S         -0.00636   0.01166   0.01042  -0.06442   0.02370
 274        3S         -0.00570   0.01279   0.01139  -0.08171   0.02812
 275        4PX        -0.07739   0.02389   0.00425  -0.10481   0.06482
 276        4PY        -0.03688  -0.00153  -0.01120   0.01812   0.00922
 277        4PZ        -0.16992  -0.00493  -0.04642   0.06709   0.04905
 278        5PX        -0.05743   0.01638   0.00284  -0.08395   0.05424
 279        5PY        -0.03352   0.00731   0.00017  -0.03864   0.02948
 280        5PZ        -0.12822  -0.00529  -0.03883   0.06790   0.03994
 281        6D 0       -0.00452  -0.00017  -0.00210   0.00063   0.00501
 282        6D+1        0.00235   0.00021   0.00159  -0.00071  -0.00402
 283        6D-1        0.00551   0.00017   0.00187  -0.00132  -0.00324
 284        6D+2       -0.00050   0.00069   0.00081  -0.00293  -0.00006
 285        6D-2        0.00271   0.00051   0.00163  -0.00360  -0.00141
 286 22  C  1S         -0.00231   0.00422   0.00408  -0.02505   0.00913
 287        2S          0.00584  -0.01030  -0.00992   0.06374  -0.02328
 288        3S          0.00110  -0.00395  -0.00726   0.02902  -0.00942
 289        4PX         0.01963  -0.01745  -0.00543   0.09220  -0.06640
 290        4PY        -0.00107   0.01052   0.01607  -0.06519   0.00633
 291        4PZ         0.01853   0.01573   0.03945  -0.05842  -0.06917
 292        5PX         0.00985   0.00676   0.01543  -0.05038  -0.00898
 293        5PY         0.01014  -0.00336   0.00157   0.01938  -0.02117
 294        5PZ         0.02869   0.00647   0.02789  -0.01781  -0.06962
 295        6D 0       -0.00396   0.00029  -0.00065  -0.00019   0.00175
 296        6D+1        0.01053  -0.00077   0.00222   0.00259  -0.00656
 297        6D-1       -0.00988   0.00130  -0.00184  -0.00640   0.00845
 298        6D+2        0.00418   0.00365   0.00491  -0.02148   0.00425
 299        6D-2        0.00013  -0.00196  -0.00202   0.01131  -0.00318
 300 23  H  1S          0.00980  -0.00265  -0.00288   0.00238   0.00783
 301        2S          0.00555  -0.00161  -0.00197   0.00254   0.00427
 302        3PX        -0.00077   0.00174   0.00824   0.00214   0.00200
 303        3PY         0.00049  -0.00102  -0.00551  -0.00164  -0.00149
 304        3PZ        -0.00017  -0.00070  -0.00304  -0.00069  -0.00114
 305 24  H  1S         -0.01432   0.00180   0.00646  -0.00121  -0.01267
 306        2S         -0.00950   0.00137   0.00542  -0.00257  -0.00782
 307        3PX         0.00003   0.00855   0.00245   0.00123   0.00077
 308        3PY        -0.00013  -0.00566  -0.00158  -0.00100  -0.00064
 309        3PZ        -0.00088  -0.00310  -0.00063  -0.00073  -0.00074
 310 25  H  1S         -0.00975   0.00178   0.00327  -0.00491  -0.00773
 311        2S         -0.00897   0.00283   0.00325   0.00373  -0.00988
 312        3PX         0.00115   0.00672  -0.00618  -0.00101  -0.00090
 313        3PY         0.00002  -0.00465   0.00346   0.00058   0.00178
 314        3PZ        -0.00029  -0.00283   0.00209   0.00058   0.00076
 315 26  H  1S         -0.00924  -0.00074   0.00341  -0.00068  -0.01099
 316        2S          0.02929   0.00343   0.00823   0.00361   0.02231
 317        3PX        -0.00042  -0.00851  -0.00252  -0.00187  -0.00107
 318        3PY         0.00156   0.00591   0.00187   0.00132   0.00175
 319        3PZ         0.00099   0.00271   0.00059   0.00053   0.00137
 320 27  H  1S         -0.01420   0.00500   0.00637  -0.00428  -0.01230
 321        2S         -0.01461   0.00292   0.00372  -0.00173  -0.01232
 322        3PX        -0.00096  -0.00667   0.00593   0.00020   0.00093
 323        3PY         0.00059   0.00481  -0.00363  -0.00052  -0.00068
 324        3PZ         0.00063   0.00243  -0.00211  -0.00011  -0.00026
 325 28  H  1S         -0.08789   0.02153   0.01903  -0.03241  -0.02398
 326        2S         -0.07410  -0.01343  -0.00337  -0.04842  -0.02495
 327        3PX         0.00027  -0.00099  -0.00115   0.00122  -0.00096
 328        3PY        -0.00363   0.00011   0.00050   0.00167  -0.00267
 329        3PZ         0.00076  -0.00062  -0.00000   0.00017   0.00011
 330 29  H  1S          0.12648  -0.02454  -0.03186  -0.00504   0.05857
 331        2S          0.08910  -0.01677  -0.01902  -0.01210   0.04374
 332        3PX         0.00069   0.00037   0.00102  -0.00001   0.00064
 333        3PY         0.00295  -0.00005   0.00074   0.00174   0.00013
 334        3PZ         0.00146  -0.00056  -0.00133  -0.00122   0.00079
 335 30  H  1S          0.00423  -0.00323  -0.00262   0.02021  -0.00415
 336        2S         -0.00735  -0.00163   0.00450  -0.01745   0.00218
 337        3PX        -0.00164   0.00024   0.00019  -0.00053   0.00203
 338        3PY        -0.00051   0.00003   0.00002   0.00074   0.00108
 339        3PZ        -0.00240  -0.00005  -0.00115   0.00173   0.00440
 340 31  H  1S         -0.00189  -0.00015   0.00463   0.01041  -0.00386
 341        2S         -0.00010   0.00012   0.00295   0.00871  -0.00182
 342        3PX         0.00097   0.00021   0.00067  -0.00138  -0.00092
 343        3PY         0.00055   0.00000   0.00049   0.00022  -0.00116
 344        3PZ         0.00254   0.00038   0.00189  -0.00135  -0.00374
 345 32  H  1S         -0.00490   0.00792   0.00559  -0.04126   0.01381
 346        2S         -0.00425   0.00738   0.00599  -0.04198   0.01469
 347        3PX         0.00166   0.00020   0.00091  -0.00131  -0.00222
 348        3PY         0.00111  -0.00015   0.00043   0.00036  -0.00191
 349        3PZ         0.00467   0.00022   0.00229  -0.00247  -0.00640
 350 33  H  1S         -0.00470   0.00895   0.00679  -0.04279   0.01430
 351        2S         -0.00353   0.00664   0.00514  -0.03456   0.01089
 352        3PX        -0.00199   0.00006  -0.00064   0.00005   0.00142
 353        3PY        -0.00109  -0.00016  -0.00056   0.00084   0.00059
 354        3PZ        -0.00511  -0.00022  -0.00195   0.00155   0.00341
 355 34  H  1S          0.00593  -0.00965  -0.00850   0.05168  -0.01928
 356        2S          0.00621  -0.01031  -0.00957   0.06150  -0.02319
 357        3PX        -0.00225   0.00032  -0.00028  -0.00101   0.00121
 358        3PY        -0.00144   0.00035  -0.00001  -0.00133   0.00099
 359        3PZ        -0.00554  -0.00006  -0.00138   0.00166   0.00166
 360 35  H  1S          0.00970  -0.01980  -0.01618   0.09950  -0.03541
 361        2S          0.00476  -0.01294  -0.00902   0.07166  -0.02671
 362        3PX         0.00025   0.00005   0.00021   0.00055  -0.00126
 363        3PY        -0.00027   0.00071   0.00073  -0.00325   0.00063
 364        3PZ         0.00030   0.00020   0.00095  -0.00073  -0.00252
                          73        74        75        76        77
                           V         V         V         V         V
     Eigenvalues --    -0.06725  -0.02099  -0.01062  -0.00073   0.00470
[...]
 02106,-0.00000250,-0.00001090,-0.00000031,-0.00012537,0.00002699,0.000
 76037,0.00010385,-0.00001743,-0.00001226,-0.00015506,-0.00019912,-0.00
 030154,-0.00097808,-0.00005802,-0.00040149,0.00119938,-0.00117001,-0.0
 0407368,-0.00010967,0.00007516,-0.00030213,-0.00021463,0.00025606,0.00
 077476,-0.00184576,0.00120679,0.00710411,-0.00101001,0.00024117,0.0045
 6274,-0.03913878,0.08068797,-0.06970165,-0.00241099,0.00713737,0.00261
 038,-0.00273589,0.00055231,0.00465357,0.00022987,-0.00041399,-0.000589
 79,0.00014866,-0.00007766,-0.00057864,-0.00004374,-0.00002337,0.000075
 58,0.00031110,-0.00023135,-0.00085656,-0.00000109,-0.00000049,-0.00000
 049,-0.00000027,-0.00000174,0.00000020,-0.00001031,-0.00000666,-0.0000
 0339,-0.00000141,0.00000586,0.00002565,0.00000943,-0.00000116,-0.00000
 577,0.00006489,0.00000704,0.00003916,-0.00006016,-0.00001636,-0.000025
 63,0.04595117,-0.08748465,0.05915847,-0.00000941,-0.00000224,0.0000131
 1,0.00000540,0.00000322,0.00000067,-0.00000816,0.00000472,0.00001955,0
 .00001906,0.00003071,-0.00005568,-0.00002129,-0.00001505,0.00001624,0.
 00000414,-0.00000329,-0.00000493,-0.00002103,-0.00004433,-0.00004340,-
 0.00004127,0.00001774,-0.00001349,0.00002159,-0.00001775,0.00003327,-0
 .00011557,0.00019899,-0.00007270,0.00032804,-0.00155909,0.00032166,-0.
 00065373,0.00008249,-0.00011013,-0.00001329,-0.00035101,0.00031528,-0.
 00040139,0.00111829,-0.00024163,-0.00409313,0.00144929,-0.00300594,-0.
 01073432,-0.02569916,0.00187270,-0.14482446,-0.13518465,0.00065096,0.0
 1079656,0.01247768,-0.00098519,-0.00000738,0.00224357,-0.00299390,0.00
 050173,0.00016161,0.00004697,0.00008700,0.00023917,0.00016833,-0.00017
 821,0.00014293,-0.00010503,-0.00000226,-0.00000063,0.00000225,-0.00000
 260,-0.00000279,0.00000277,0.00000481,0.00000546,-0.00000173,0.0000035
 2,-0.00000523,-0.00001076,-0.00000436,0.00000142,0.00000713,-0.0000219
 3,0.00001636,-0.00000376,-0.00001789,-0.00000461,-0.00001708,0.0008921
 5,0.00040391,0.00105246,0.14813906,-0.00000299,-0.00000113,0.00000222,
 0.00000005,0.00000197,0.00000148,-0.00000280,0.00000659,0.00000507,-0.
 00000081,0.00000732,-0.00001333,-0.00000694,-0.00000224,0.00000255,0.0
 0000045,-0.00000302,-0.00000297,0.00004827,-0.00001441,0.00000574,-0.0
 0001200,0.00000166,-0.00000299,0.00003412,-0.00000716,0.00002875,-0.00
 011584,0.00002340,-0.00002430,0.00021328,0.00009132,0.00008224,-0.0000
 1664,0.00000434,-0.00003436,-0.00010687,0.00017132,-0.00027328,0.00065
 038,-0.00000997,0.00009294,0.00073902,0.00158468,0.00111406,0.00370790
 ,0.00481495,0.00068470,-0.13483672,-0.25987860,0.01210949,-0.01728660,
 -0.01573148,-0.00034931,0.00300778,-0.00217979,0.00334927,-0.00106548,
 -0.00037717,-0.00017301,0.00010879,-0.00049164,-0.00001407,0.00028705,
 -0.00002311,0.00010717,-0.00000109,-0.00000083,0.00000164,-0.00000039,
 -0.00000204,0.00000141,0.00000328,0.00000122,0.00000016,0.00000239,-0.
 00000288,-0.00000352,-0.00000023,0.00000086,0.00000224,-0.00000519,0.0
 0000566,-0.00000243,-0.00000767,0.00000022,-0.00000812,0.00006244,0.00
 044012,-0.00080975,0.14430134,0.27088167,0.00000021,0.00000012,-0.0000
 0228,-0.00000069,-0.00000020,0.00000154,0.00000279,0.00000448,-0.00000
 094,-0.00000947,0.00000224,0.00000489,-0.00000061,0.00000187,-0.000007
 20,-0.00000361,0.00000016,0.00000038,0.00000630,-0.00002245,-0.0000228
 4,-0.00001842,0.00000515,-0.00000691,0.00000201,0.00000350,0.00002496,
 -0.00000345,0.00003739,0.00002408,0.00000073,-0.00038771,0.00031791,-0
 .00015601,-0.00000666,-0.00018058,0.00026959,-0.00033808,-0.00071258,-
 0.00010506,0.00020172,-0.00050984,-0.00289458,0.00130619,0.00456492,-0
 .00469963,-0.00756614,0.00359243,0.00054474,0.01198302,-0.04101115,0.0
 0572730,0.00806396,0.00409498,-0.00322066,0.00311618,0.00720445,0.0003
 1618,0.00017147,0.00027885,0.00019807,0.00001369,-0.00066191,-0.000146
 98,0.00005996,0.00002316,0.00000058,-0.00000011,0.00000060,-0.00000047
 ,-0.00000103,0.00000051,-0.00000018,-0.00000084,-0.00000097,0.00000234
 ,-0.00000282,0.00000500,0.00000327,-0.00000120,-0.00000084,-0.00000345
 ,0.,-0.00000088,-0.00000751,0.00000107,-0.00001165,0.00111625,-0.00068
 256,-0.00278513,0.00169966,-0.01473481,0.02985606,-0.00000183,0.000000
 11,0.00000342,-0.00000053,0.00000348,-0.00000233,-0.00000434,0.0000004
 8,0.00000581,0.00002254,-0.00000407,-0.00000636,-0.00000365,0.00000129
 ,0.00000470,-0.00000122,-0.00000349,-0.00000428,0.00003689,0.00000126,
 -0.00008458,-0.00001567,-0.00000470,0.00000058,0.00006741,0.00000432,0
 .00004547,-0.00016982,-0.00000279,-0.00005436,-0.00004678,0.00015397,0
 .00028451,-0.00010746,-0.00000999,0.00002576,-0.00138276,-0.00011387,-
 0.00046991,0.00164210,-0.00306195,-0.00033568,0.00057806,-0.00027836,0
 .00044394,0.00141768,0.00226306,-0.00242941,-0.00650250,-0.00344375,-0
 .00259865,-0.31937247,0.01269504,-0.08238657,-0.01279757,0.00340510,-0
 .00555629,0.00071156,0.00239933,0.00055119,0.00000850,-0.00031717,0.00
 014657,0.00028989,0.00026743,0.00013647,-0.00000153,-0.00000112,0.0000
 0202,-0.00000005,-0.00000180,0.00000075,0.00000560,0.00000162,0.000002
 32,0.00000367,-0.00000431,-0.00000556,-0.00000106,0.00000180,0.0000024
 6,-0.00000923,0.00000851,-0.00000367,-0.00000803,-0.00000068,-0.000007
 52,-0.00038779,-0.00018929,-0.00004029,0.00032217,0.00036806,0.0014331
 9,0.33528185,0.00000325,0.00000100,-0.00000464,0.00000050,0.00000073,-
 0.00000085,0.00000305,-0.00000331,-0.00000876,-0.00001362,-0.00000279,
 0.00001483,0.00000448,-0.00000193,-0.00000609,-0.00000011,0.00000399,0
 .00000305,-0.00000482,0.00002732,0.00006328,0.00002048,0.00000012,0.00
 000154,-0.00008751,0.00004111,-0.00005032,0.00015549,0.00011383,0.0000
 3024,0.00003381,-0.00014277,-0.00023542,0.00008757,0.00005215,-0.00002
 664,-0.00181413,-0.00053852,-0.00033742,-0.00092796,-0.00379134,0.0018
 3307,-0.00022320,-0.00089114,-0.00004895,0.00102214,-0.00423187,0.0030
 9509,0.02641410,0.00415442,0.00777123,0.01210430,-0.05726484,0.0077626
 6,-0.02444844,0.00432847,-0.00698492,-0.00165352,0.00100725,-0.0014286
 1,0.00077938,0.00016268,0.00012460,-0.00041695,0.00065396,-0.00037873,
 0.00000151,0.00000088,-0.00000127,0.00000164,0.00000160,-0.00000121,-0
 .00000129,-0.00000166,0.00000158,-0.00000297,0.00000388,0.00000587,0.0
 0000086,-0.00000105,-0.00000219,0.00000660,-0.00000564,0.00000101,0.00
 000754,0.00000163,0.00000666,0.00113538,0.00012547,0.00026354,-0.00002
 263,0.00077538,-0.00132200,-0.01305272,0.05571451,-0.00000366,-0.00000
 190,-0.00000013,0.00000172,-0.00000067,0.00000274,-0.00000524,0.000002
 51,0.00000576,-0.00003571,0.00000619,-0.00002641,-0.00000381,0.0000028
 6,0.00000372,0.00000197,-0.00000142,-0.00000299,-0.00006034,0.00003634
 ,0.00023846,0.00002623,-0.00000775,-0.00000140,0.00003870,-0.00003857,
 0.00001229,-0.00005825,0.00000282,0.00001547,0.00038214,-0.00016109,-0
 .00100734,-0.00004943,-0.00009042,-0.00015865,-0.00005771,0.00023751,0
 .00025768,-0.00072104,0.00111736,0.00490320,0.00040014,0.00004752,-0.0
 0071832,-0.00216713,0.00347438,0.00680341,-0.00931091,-0.00076748,0.00
 298408,-0.08222983,0.00809145,-0.06336523,0.00058586,0.00072203,0.0040
 5710,0.00151310,-0.00026041,-0.00271975,-0.00012315,-0.00019225,-0.000
 25180,0.00029482,-0.00020163,-0.00029586,0.00000019,-0.00000033,0.0000
 0077,-0.00000031,-0.00000155,0.00000133,-0.00000045,-0.00000008,-0.000
 00114,0.00000138,-0.00000107,0.00000049,0.00000203,-0.00000063,0.00000
 031,-0.00000495,-0.00000325,0.00000047,-0.00000074,0.00000418,-0.00000
 765,-0.00036133,-0.00010283,-0.00017834,0.00151492,-0.00121468,-0.0043
 3444,0.09070490,-0.01062045,0.05316222,-0.00000306,-0.00000165,0.00000
 335,0.00000051,0.00000285,0.00000045,-0.00000468,0.00000307,0.00000562
 ,0.00000441,0.00000663,-0.00001719,-0.00000686,-0.00000129,0.00000616,
 0.00000142,-0.00000311,-0.00000361,0.00001582,0.00000526,0.00000589,-0
 .00000810,-0.00000103,-0.00000180,0.00003106,0.00001216,0.00003003,-0.
 00015163,0.00004237,-0.00003827,0.00017842,0.00011174,-0.00005945,-0.0
 0007035,-0.00001193,-0.00003782,0.00000697,0.00032839,0.00109854,0.002
 19544,0.00189647,-0.00162549,-0.00060168,-0.00050520,-0.00001282,0.000
 17365,0.00001865,0.00008455,0.00002169,0.00027471,-0.00005474,0.000767
 57,-0.00172496,0.00156698,-0.00824173,-0.00210812,-0.00316543,-0.32087
 908,0.00613447,-0.08159265,-0.01077828,0.00389849,-0.00585917,0.001080
 68,-0.00428488,-0.00144604,-0.00000205,-0.00000080,0.00000193,-0.00000
 005,-0.00000212,0.00000088,0.00000457,0.00000156,0.00000156,0.00000288
 ,-0.00000325,-0.00000471,-0.00000104,0.00000210,0.00000255,-0.00001092
 ,0.00000518,-0.00000418,-0.00000634,-0.00000031,-0.00000658,0.00003689
 ,0.00002009,-0.00000393,-0.00000057,0.00003269,-0.00006389,0.00035793,
 0.00082744,-0.00015073,0.33607184,0.00000066,0.00000099,-0.00000218,0.
 00000007,0.00000265,-0.00000132,-0.00000167,-0.00000010,-0.00000301,-0
 .00000168,0.00000191,0.00000141,-0.00000100,-0.00000016,-0.00000204,-0
 .00000106,0.00000049,0.00000063,0.00000942,-0.00001048,0.00000240,0.00
 000083,0.00000109,-0.00000037,0.00000399,-0.00003132,-0.00001010,0.000
 15841,-0.00000834,0.00004482,-0.00009856,-0.00036455,0.00010846,-0.000
 00697,0.00003162,0.00000253,0.00010619,-0.00057994,-0.00079069,0.00036
 358,-0.00413815,0.00253520,0.00132904,0.00021745,0.00028869,0.00030957
 ,0.00022001,0.00000826,-0.00053903,0.00019316,-0.00020133,0.00217134,0
 .00103417,-0.00037976,0.02494283,0.00328896,0.00744567,0.00643446,-0.0
 5694377,0.00574268,-0.02549081,0.00604295,-0.00727186,-0.00278491,-0.0
 0410497,0.00255038,0.00000032,-0.00000013,0.00000074,0.00000166,-0.000
 00063,-0.00000012,0.00000261,-0.00000070,0.00000241,0.00000047,0.00000
 029,0.00000201,0.00000108,-0.00000006,0.00000009,0.00001225,0.00000229
 ,0.00000631,0.00000459,-0.00000037,0.00000164,-0.00005961,-0.00001665,
 -0.00000487,-0.00002076,0.00001676,0.00003504,-0.00092777,-0.00027717,
 -0.00014954,-0.00562429,0.05452426,-0.00000055,0.00000125,-0.00000028,
 -0.00000036,-0.00000023,-0.00000169,-0.00000137,0.00000004,0.00000246,
 0.00000860,-0.00000204,-0.00000290,-0.00000030,0.00000174,-0.00000054,
 -0.00000210,0.00000029,-0.00000051,0.00001151,0.00000136,-0.00003544,-
 0.00000729,0.00000180,-0.00000218,0.00000909,0.00001116,-0.00000728,-0
 .00007370,0.00000516,-0.00006333,-0.00001568,0.00018596,0.00021964,-0.
 00003572,0.00000860,0.00006353,0.00113796,-0.00068402,-0.00359945,-0.0
 0136987,0.00293383,0.00536589,-0.00043305,-0.00024010,-0.00023199,0.00
 001758,-0.00007544,-0.00011324,0.00012289,0.00002923,0.00001817,0.0006
 6878,-0.00152200,-0.00280744,-0.00938915,-0.00036581,0.00183709,-0.081
 67146,0.00569974,-0.06487239,0.00105452,0.00120141,0.00640270,-0.00182
 076,0.00206008,0.00885445,0.00000106,-0.00000036,0.00000044,-0.0000000
 3,-0.00000051,0.00000074,0.00000076,-0.00000032,-0.00000024,0.00000104
 ,-0.00000176,0.00000059,0.00000138,-0.00000118,0.00000015,-0.00000198,
 0.00000217,-0.00000154,-0.00000765,-0.00000069,-0.00000416,0.00001445,
 0.00001707,0.00003509,-0.00005024,0.00004950,0.00017004,0.00025698,0.0
 0035169,0.00022108,0.08993632,-0.00829471,0.05348186,-0.00000217,-0.00
 000297,0.00000651,0.00000443,0.00000201,-0.00000018,-0.00000292,0.0000
 0064,0.00000769,0.00001844,0.00000290,-0.00001644,-0.00000644,-0.00000
 397,0.00000408,0.00000098,-0.00000144,-0.00000175,0.00005469,0.0000702
 4,-0.00001165,-0.00000185,-0.00000368,-0.00000161,-0.00000935,0.000014
 56,0.00000652,-0.00002931,0.00009708,-0.00001567,0.00002037,-0.0002320
 2,0.00003210,-0.00017357,0.00004780,-0.00004949,-0.00583941,0.00074272
 ,-0.00364016,-0.00123406,-0.00208738,0.00018529,0.00005317,0.00055922,
 0.00032132,-0.00030486,-0.00008639,-0.00010766,0.00001066,-0.00030717,
 0.00029363,0.00071455,-0.00038006,0.00017782,-0.00133896,-0.00379938,-
 0.00226653,0.01115335,-0.01735383,0.00631266,-0.09416247,0.09068911,-0
 .03782409,-0.00182284,0.02806479,-0.00771043,-0.00000319,0.00000105,0.
 00000171,-0.00000525,-0.00000172,0.00000033,0.00000407,0.00000419,-0.0
 0000177,0.00000127,-0.00000364,-0.00000335,-0.00000114,0.00000143,0.00
 000133,0.00000142,0.00001252,-0.00000200,-0.00000376,0.00000005,-0.000
 00354,0.00002722,0.00000835,-0.00004723,0.00003837,-0.00007633,0.00003
 941,0.00002949,-0.00000821,-0.00007033,0.00046623,0.00086036,0.0014325
 3,0.09183937,0.00000348,0.00000240,-0.00000569,-0.00000199,-0.00000146
 ,-0.00000099,0.00000480,-0.00000374,-0.00000812,-0.00000910,-0.0000102
 6,0.00002251,0.00000868,0.00000225,-0.00000643,-0.00000168,0.00000328,
 0.00000274,-0.00004157,-0.00001248,-0.00000243,0.00001104,-0.00000110,
 0.00000387,-0.00002356,-0.00000154,-0.00001967,0.00009191,-0.00005990,
 0.00003237,-0.00012398,0.00007870,-0.00003547,0.00012932,-0.00001123,0
 .00003792,-0.00004541,0.00174772,0.00101522,-0.00057015,0.00019151,-0.
 00025561,0.00019729,0.00011706,-0.00032912,-0.00016967,0.00000740,-0.0
 0001558,-0.00019619,-0.00041481,-0.00014556,0.00097820,-0.00040437,0.0
 0044234,-0.00434392,-0.00099063,0.00131904,0.01194849,-0.01516229,0.00
 785904,0.09074436,-0.28401286,0.08480591,-0.00277539,0.00188314,-0.000
 87664,0.00000316,0.00000025,-0.00000219,0.00000237,0.00000261,-0.00000
 089,-0.00000431,-0.00000279,0.00000042,-0.00000265,0.00000402,0.000004
 64,0.00000096,-0.00000229,-0.00000253,0.00000430,-0.00000997,0.0000020
 8,0.00000620,0.00000122,0.00000566,-0.00000967,-0.00000266,0.00004203,
 0.00005476,-0.00009566,0.00003021,-0.00006804,0.00002933,0.00004054,0.
 00037113,0.00073788,-0.00130846,-0.09654900,0.29627613,-0.00000227,0.0
 0000046,0.00000020,0.00000066,0.00000172,-0.00000208,-0.00000278,0.000
 00369,0.00000542,0.00000683,0.00000183,-0.00001015,-0.00000431,-0.0000
 0104,0.00000043,-0.00000148,-0.00000018,-0.00000295,0.00002364,0.00002
 059,-0.00000995,-0.00000700,0.00000030,-0.00000390,0.00000862,0.000004
 61,0.00001774,-0.00004276,0.00005584,-0.00000671,0.00001398,-0.0000798
 7,0.00004326,-0.00005795,0.00002113,-0.00002545,-0.00341597,0.00097273
 ,0.00486201,-0.00008231,-0.00056128,-0.00006239,0.00039552,-0.00025639
 ,-0.00133248,-0.00003342,0.00002516,0.00012936,0.00022584,-0.00011680,
 -0.00066582,-0.00015831,-0.00000130,0.00028128,-0.00211354,0.00149557,
 0.00870473,-0.00075038,-0.00068095,0.00355745,-0.03745605,0.08480906,-
 0.06857184,-0.00074770,0.00828506,-0.00041870,0.00000141,-0.00000067,0
 .00000086,-0.00000041,-0.00000109,0.00000190,0.00000204,0.00000067,-0.
 00000041,0.00000165,-0.00000249,0.00000020,0.00000148,-0.00000144,0.00
 000078,-0.00000263,0.00000197,-0.00000088,-0.00000014,0.00000341,-0.00
 000559,-0.00003931,0.00004377,0.00015751,0.00000554,-0.00000498,-0.000
 03026,-0.00005181,0.00005259,0.00024366,0.00152873,-0.00116712,-0.0044
 9481,0.04206270,-0.09218191,0.05964359,-0.00000173,-0.00000257,0.00000
 364,0.00000093,-0.00001556,0.00001037,0.00001496,-0.00000058,0.0000093
 3,-0.00000887,0.00001322,-0.00000348,0.00000193,0.00000047,0.00000278,
 0.00000287,0.,-0.00000213,-0.00007830,-0.00001895,0.00005426,0.0000016
 9,0.00000470,-0.00000284,-0.00000560,-0.00001132,-0.00000711,0.0000118
 2,-0.00014070,0.00002992,0.00014407,0.00008886,-0.00005947,0.00004786,
 -0.00016996,-0.00007038,0.01349169,0.01448129,0.00153544,0.00167847,0.
 00383631,-0.00375910,0.00043501,-0.00009211,0.00004442,0.00014274,0.00
 020850,0.00015894,-0.00015605,0.00014271,-0.00010449,-0.00005109,-0.00
 021766,0.00044468,0.00003329,0.00102455,-0.00001599,-0.00450900,0.0015
 0177,-0.00311469,-0.00978267,-0.02276916,0.00077752,-0.17293523,-0.140
 06831,-0.00108143,0.00000123,0.00000037,-0.00000411,-0.00000753,0.0000
 0252,0.00000082,-0.00001760,0.00000085,-0.00001844,-0.00000348,0.00000
 025,0.00000057,-0.00000001,-0.00000288,-0.00000265,-0.00000242,-0.0000
 1144,-0.00000038,0.00000291,0.00000070,0.00000655,0.00003097,0.0000438
 7,0.00001623,0.00000865,-0.00002270,-0.00002796,0.00003895,0.00006859,
 -0.00005305,-0.00065154,-0.00115562,0.00020580,0.00050346,0.00037583,0
 .00069191,0.17161764,0.00000998,0.00000932,-0.00002189,-0.00000571,0.0
 0001966,-0.00001277,-0.00000579,-0.00000787,-0.00003269,-0.00002759,-0
 .00002836,0.00006019,0.00001198,0.00000297,-0.00001762,-0.00000630,0.0
 0000513,0.00000558,-0.00004907,-0.00010001,-0.00002684,0.00002609,-0.0
 0000431,0.00001314,-0.00003136,-0.00001240,-0.00003925,0.00021231,-0.0
 0002063,0.00003988,-0.00040904,0.00009899,-0.00003837,0.00039902,0.000
 10147,0.00020313,-0.00705910,-0.03472973,0.00519300,-0.00057606,-0.000
 62032,0.00321105,-0.00073965,-0.00032510,-0.00002805,0.00035394,-0.000
 29203,0.00000451,0.00004292,0.00005925,0.00002699,-0.00011441,0.000108
 93,-0.00043899,0.00035316,-0.00056262,0.00000192,0.00060243,0.00131070
 ,0.00125004,0.00367073,0.00573057,0.00159495,-0.13943534,-0.21094182,0
 .00403353,0.00000649,-0.00000134,0.00000016,0.00001774,0.00000271,-0.0
 0000248,0.00001255,-0.00000855,0.00002319,-0.00000114,0.00000987,0.000
 00962,0.00000211,-0.00000116,-0.00000122,0.00001038,-0.00001509,0.0000
 0856,0.00001096,-0.00000211,0.00000759,-0.00007267,-0.00008410,-0.0000
 1792,-0.00002046,-0.00000831,0.00002917,-0.00008900,-0.00004565,0.0000
 3227,0.00027753,0.00016056,-0.00006446,-0.00028182,0.00011512,-0.00074
 264,0.14290417,0.24007625,-0.00000141,0.00000446,-0.00000351,-0.000002
 99,-0.00000673,-0.00000668,-0.00000199,0.00001364,0.00002114,0.0000307
 3,-0.00001351,-0.00001046,-0.00000080,0.00000146,-0.00000179,-0.000004
 43,-0.00000269,-0.00000376,0.00004807,-0.00000082,-0.00018306,-0.00003
 021,0.00002011,-0.00001414,-0.00001097,0.00000976,-0.00001369,-0.00001
 537,-0.00004319,-0.00006574,-0.00010881,0.00003893,0.00030075,-0.00019
 454,0.00006747,0.00035858,0.00687669,0.01107908,-0.00574300,-0.0027586
 6,0.00418542,0.01046926,0.00033551,0.00010218,0.00051896,0.00006637,-0
 .00001132,-0.00055466,-0.00004655,0.00000487,0.00009330,0.00046031,-0.
 00034734,-0.00126025,-0.00000524,0.00023098,-0.00080766,-0.00302442,0.
 00134594,0.00413931,-0.00611858,-0.00617205,0.00753638,-0.00059949,0.0
 0460930,-0.04392173,0.00000422,-0.00000234,-0.00000157,0.00000104,0.00
 000055,0.00000506,-0.00000707,0.00000051,-0.00000593,0.00000032,-0.000
 00242,-0.00000036,0.00000186,-0.00000312,-0.00000009,0.00000674,0.0000
 1221,-0.00000337,-0.00000631,-0.00000807,0.00000100,0.00004983,0.00001
 842,-0.00007108,-0.00002789,0.00002528,0.00011565,-0.00001375,0.000075
 93,0.00015522,-0.00012501,-0.00050038,-0.00043450,0.00088827,-0.000469
 26,-0.00200600,0.00433453,-0.01426328,0.03139843\\0.00014810,-0.000616
 49,-0.00090763,-0.00009944,0.00135120,0.00151930,-0.00119230,-0.003033
 72,-0.00283718,-0.00105940,0.00059259,0.00288165,0.00097071,0.00048900
 ,0.00061038,0.00041323,0.00092386,0.00028863,-0.01798592,0.00162542,-0
 .00283015,0.00347023,-0.00227546,0.00070459,-0.00402135,-0.00413921,-0
 .00158462,0.00697196,-0.02333554,0.00432068,0.02016011,0.02413753,0.00
 266885,-0.00419799,0.00932477,-0.00390453,-0.00553386,-0.00203582,-0.0
 0291887,-0.00037366,0.01429814,-0.00307340,-0.00009068,-0.00284068,0.0
 0062705,0.00195373,0.00104569,0.00026078,-0.00119258,0.00131514,-0.000
 59997,-0.00188455,-0.00059004,-0.00033491,-0.00300729,-0.00231128,0.00
 003697,0.00032430,-0.00061814,0.00031656,-0.00179627,0.00601163,-0.001
 45938,0.01095685,-0.01933324,0.00646920,0.00014878,0.00007579,0.000066
 92,0.00082852,0.00009586,-0.00051682,0.00098557,-0.00084330,-0.0004428
 7,-0.00018525,0.00072811,0.00048318,0.00000927,0.00007522,-0.00009265,
 0.00012051,-0.00137866,0.00048523,0.00079011,-0.00032484,0.00070665,0.
 00017215,0.00002275,-0.00002179,-0.00031284,-0.00021941,-0.00005233,-0
 .00053667,-0.00027407,-0.00012606,-0.00005444,0.00016838,-0.00012416,-
 0.00171512,0.00029170,-0.00066525,-0.00318453,0.00159713,0.00004597\\\
 @

 Writing a WFNX file to "20_lig_b.wfx"


 IT IS DOUBTED WHETHER A MAN EVER BRINGS HIS FACULTIES TO BEAR WITH THEIR FULL FORCE
 ON A SUBJECT UNTIL HE WRITES UPON IT.

                          -- CICERO
 Job cpu time:       0 days  1 hours 57 minutes 32.4 seconds.
 Elapsed time:       0 days  0 hours 14 minutes 42.0 seconds.
 File lengths (MBytes):  RWF=    534 Int=      0 D2E=      0 Chk=     10 Scr=      1
 Normal termination of Gaussian 16 at Thu Nov  3 08:19:09 2022.
