 Entering Gaussian System, Link 0=g16
 Initial command:
 /software/gaussian/G16-A.03/avx/g16/l1.exe "/scratch/lcmd/1361351.slurm/Gau-131985.inp" -scrdir="/scratch/lcmd/1361351.slurm/"
 Entering Link 1 = /software/gaussian/G16-A.03/avx/g16/l1.exe PID=    131987.
  
 Copyright (c) 1988,1990,1992,1993,1995,1998,2003,2009,2016,
            Gaussian, Inc.  All Rights Reserved.
  
 This is part of the Gaussian(R) 16 program.  It is based on
 the Gaussian(R) 09 system (copyright 2009, Gaussian, Inc.),
 the Gaussian(R) 03 system (copyright 2003, Gaussian, Inc.),
 the Gaussian(R) 98 system (copyright 1998, Gaussian, Inc.),
 the Gaussian(R) 94 system (copyright 1995, Gaussian, Inc.),
 the Gaussian 92(TM) system (copyright 1992, Gaussian, Inc.),
 the Gaussian 90(TM) system (copyright 1990, Gaussian, Inc.),
 the Gaussian 88(TM) system (copyright 1988, Gaussian, Inc.),
 the Gaussian 86(TM) system (copyright 1986, Carnegie Mellon
 University), and the Gaussian 82(TM) system (copyright 1983,
 Carnegie Mellon University). Gaussian is a federally registered
 trademark of Gaussian, Inc.
  
 This software contains proprietary and confidential information,
 including trade secrets, belonging to Gaussian, Inc.
  
 This software is provided under written license and may be
 used, copied, transmitted, or stored only in accord with that
 written license.
  
 The following legend is applicable only to US Government
 contracts under FAR:
  
                    RESTRICTED RIGHTS LEGEND
  
 Use, reproduction and disclosure by the US Government is
 subject to restrictions as set forth in subparagraphs (a)
 and (c) of the Commercial Computer Software - Restricted
 Rights clause in FAR 52.227-19.
  
 Gaussian, Inc.
 340 Quinnipiac St., Bldg. 40, Wallingford CT 06492
  
  
 ---------------------------------------------------------------
 Warning -- This program may not be used in any manner that
 competes with the business of Gaussian, Inc. or will provide
 assistance to any competitor of Gaussian, Inc.  The licensee
 of this program is prohibited from giving any competitor of
 Gaussian, Inc. access to this program.  By using this program,
 the user acknowledges that Gaussian, Inc. is engaged in the
 business of creating and licensing software in the field of
 computational chemistry and represents and warrants to the
 licensee that it is not a competitor of Gaussian, Inc. and that
 it will not use this program in any manner prohibited above.
 ---------------------------------------------------------------
  

 Cite this work as:
 Gaussian 16, Revision A.03,
 M. J. Frisch, G. W. Trucks, H. B. Schlegel, G. E. Scuseria, 
 M. A. Robb, J. R. Cheeseman, G. Scalmani, V. Barone, 
 G. A. Petersson, H. Nakatsuji, X. Li, M. Caricato, A. V. Marenich, 
 J. Bloino, B. G. Janesko, R. Gomperts, B. Mennucci, H. P. Hratchian, 
 J. V. Ortiz, A. F. Izmaylov, J. L. Sonnenberg, D. Williams-Young, 
 F. Ding, F. Lipparini, F. Egidi, J. Goings, B. Peng, A. Petrone, 
 T. Henderson, D. Ranasinghe, V. G. Zakrzewski, J. Gao, N. Rega, 
 G. Zheng, W. Liang, M. Hada, M. Ehara, K. Toyota, R. Fukuda, 
 J. Hasegawa, M. Ishida, T. Nakajima, Y. Honda, O. Kitao, H. Nakai, 
 T. Vreven, K. Throssell, J. A. Montgomery, Jr., J. E. Peralta, 
 F. Ogliaro, M. J. Bearpark, J. J. Heyd, E. N. Brothers, K. N. Kudin, 
 V. N. Staroverov, T. A. Keith, R. Kobayashi, J. Normand, 
 K. Raghavachari, A. P. Rendell, J. C. Burant, S. S. Iyengar, 
 J. Tomasi, M. Cossi, J. M. Millam, M. Klene, C. Adamo, R. Cammi, 
 J. W. Ochterski, R. L. Martin, K. Morokuma, O. Farkas, 
 J. B. Foresman, and D. J. Fox, Gaussian, Inc., Wallingford CT, 2016.
 
 ******************************************
 Gaussian 16:  ES64L-G16RevA.03 25-Dec-2016
                 3-Nov-2022 
 ******************************************
 %nprocs=8
 Will use up to    8 processors via shared memory.
 %mem=32000MB
 %chk=21_lig_b.chk
 ----------------------------------------------------------------------
 #p pop=(regular,nbo,savenbos) freq=noraman def2svp empiricaldispersion
 =gd3bj output=wfx pbe1pbe
 ----------------------------------------------------------------------
 1/10=4,30=1,38=1/1,3;
 2/12=2,17=6,18=5,40=1/2;
 3/5=43,7=101,11=2,25=1,30=1,71=2,74=-13,124=41,140=1/1,2,3;
 4//1;
 5/5=2,38=5,98=1/2;
 8/6=4,10=90,11=11/1;
 11/6=1,8=1,9=11,15=111,16=1/1,2,10;
 10/6=1/2;
 6/28=1,40=1,73=1/1,7;
 7/8=1,10=1,25=1/1,2,3,16;
 1/10=4,30=1/3;
 99/6=200/99;
 Leave Link    1 at Thu Nov  3 08:04:22 2022, MaxMem=  4194304000 cpu:               0.5 elap:               0.1
 (Enter /software/gaussian/G16-A.03/avx/g16/l101.exe)
 --------
 21_lig_b
 --------
 Symbolic Z-matrix:
 Charge =  0 Multiplicity = 1
 C                    -4.36998  -1.54384  -0.70725 
 C                    -2.96875  -0.97486  -0.94109 
 C                    -2.15377  -1.18982   0.35685 
 H                    -2.65277  -0.64029   1.17046 
 C                    -1.88248  -2.65286   0.74336 
 O                    -0.46665  -2.8153    0.55978 
 C                     0.04557  -1.60087   0.34976 
 N                    -0.80025  -0.64484   0.25307 
 N                     1.58121   0.87849  -0.2049 
 C                     2.21532  -0.31909  -0.05836 
 C                     1.50405  -1.52657   0.24217 
 C                     2.20568  -2.71206   0.4072 
 C                     3.60301  -2.77658   0.27766 
 C                     4.30558  -1.63966  -0.03533 
 C                     3.635    -0.40544  -0.21302 
 C                     4.35017   0.76907  -0.54749 
 C                     3.67272   1.94742  -0.71806 
 C                     2.27809   1.95371  -0.52862 
 C                    -2.30226  -1.66811  -2.12939 
 C                    -3.08278   0.52518  -1.22286 
 H                    -4.35638  -2.62612  -0.50032 
 H                    -4.99591  -1.3909   -1.59943 
 H                    -4.86283  -1.04011   0.13896 
 H                    -2.39154  -3.38914   0.10811 
 H                    -2.11183  -2.86726   1.7975 
 H                     1.6394   -3.61478   0.63709 
 H                     4.1166   -3.72926   0.41847 
 H                     5.39167  -1.66521  -0.153 
 H                     5.43524   0.71322  -0.66751 
 H                     4.18185   2.87495  -0.98345 
 H                     1.68229   2.86877  -0.64556 
 H                    -2.22566  -2.7593   -1.99602 
 H                    -1.29033  -1.26944  -2.30108 
 H                    -2.88481  -1.49262  -3.04663 
 H                    -3.42326   1.08151  -0.33679 
 H                    -3.79474   0.70182  -2.04396 
 H                    -2.12367   0.96997  -1.53158 
 
 ITRead=  0  0  0  0  0  0  0  0  0  0  0  0  0  0  0  0  0  0  0  0
 ITRead=  0  0  0  0  0  0  0  0  0  0  0  0  0  0  0  0  0
 MicOpt= -1 -1 -1 -1 -1 -1 -1 -1 -1 -1 -1 -1 -1 -1 -1 -1 -1 -1 -1 -1
 MicOpt= -1 -1 -1 -1 -1 -1 -1 -1 -1 -1 -1 -1 -1 -1 -1 -1 -1
 NAtoms=     37 NQM=       37 NQMF=       0 NMMI=      0 NMMIF=      0
                NMic=       0 NMicF=      0.
                    Isotopes and Nuclear Properties:
 (Nuclear quadrupole moments (NQMom) in fm**2, nuclear magnetic moments (NMagM)
  in nuclear magnetons)

  Atom         1           2           3           4           5           6           7           8           9          10
 IAtWgt=          12          12          12           1          12          16          12          14          14          12
 AtmWgt=  12.0000000  12.0000000  12.0000000   1.0078250  12.0000000  15.9949146  12.0000000  14.0030740  14.0030740  12.0000000
 NucSpn=           0           0           0           1           0           0           0           2           2           0
 AtZEff=  -0.0000000  -0.0000000  -0.0000000  -0.0000000  -0.0000000  -0.0000000  -0.0000000  -0.0000000  -0.0000000  -0.0000000
 NQMom=    0.0000000   0.0000000   0.0000000   0.0000000   0.0000000   0.0000000   0.0000000   2.0440000   2.0440000   0.0000000
 NMagM=    0.0000000   0.0000000   0.0000000   2.7928460   0.0000000   0.0000000   0.0000000   0.4037610   0.4037610   0.0000000
 AtZNuc=   6.0000000   6.0000000   6.0000000   1.0000000   6.0000000   8.0000000   6.0000000   7.0000000   7.0000000   6.0000000

  Atom        11          12          13          14          15          16          17          18          19          20
 IAtWgt=          12          12          12          12          12          12          12          12          12          12
 AtmWgt=  12.0000000  12.0000000  12.0000000  12.0000000  12.0000000  12.0000000  12.0000000  12.0000000  12.0000000  12.0000000
 NucSpn=           0           0           0           0           0           0           0           0           0           0
 AtZEff=  -0.0000000  -0.0000000  -0.0000000  -0.0000000  -0.0000000  -0.0000000  -0.0000000  -0.0000000  -0.0000000  -0.0000000
 NQMom=    0.0000000   0.0000000   0.0000000   0.0000000   0.0000000   0.0000000   0.0000000   0.0000000   0.0000000   0.0000000
 NMagM=    0.0000000   0.0000000   0.0000000   0.0000000   0.0000000   0.0000000   0.0000000   0.0000000   0.0000000   0.0000000
 AtZNuc=   6.0000000   6.0000000   6.0000000   6.0000000   6.0000000   6.0000000   6.0000000   6.0000000   6.0000000   6.0000000

  Atom        21          22          23          24          25          26          27          28          29          30
 IAtWgt=           1           1           1           1           1           1           1           1           1           1
 AtmWgt=   1.0078250   1.0078250   1.0078250   1.0078250   1.0078250   1.0078250   1.0078250   1.0078250   1.0078250   1.0078250
 NucSpn=           1           1           1           1           1           1           1           1           1           1
 AtZEff=  -0.0000000  -0.0000000  -0.0000000  -0.0000000  -0.0000000  -0.0000000  -0.0000000  -0.0000000  -0.0000000  -0.0000000
 NQMom=    0.0000000   0.0000000   0.0000000   0.0000000   0.0000000   0.0000000   0.0000000   0.0000000   0.0000000   0.0000000
 NMagM=    2.7928460   2.7928460   2.7928460   2.7928460   2.7928460   2.7928460   2.7928460   2.7928460   2.7928460   2.7928460
 AtZNuc=   1.0000000   1.0000000   1.0000000   1.0000000   1.0000000   1.0000000   1.0000000   1.0000000   1.0000000   1.0000000

  Atom        31          32          33          34          35          36          37
 IAtWgt=           1           1           1           1           1           1           1
 AtmWgt=   1.0078250   1.0078250   1.0078250   1.0078250   1.0078250   1.0078250   1.0078250
 NucSpn=           1           1           1           1           1           1           1
 AtZEff=  -0.0000000  -0.0000000  -0.0000000  -0.0000000  -0.0000000  -0.0000000  -0.0000000
 NQMom=    0.0000000   0.0000000   0.0000000   0.0000000   0.0000000   0.0000000   0.0000000
 NMagM=    2.7928460   2.7928460   2.7928460   2.7928460   2.7928460   2.7928460   2.7928460
 AtZNuc=   1.0000000   1.0000000   1.0000000   1.0000000   1.0000000   1.0000000   1.0000000
 Leave Link  101 at Thu Nov  3 08:04:22 2022, MaxMem=  4194304000 cpu:               0.8 elap:               0.1
 (Enter /software/gaussian/G16-A.03/avx/g16/l103.exe)

 GradGradGradGradGradGradGradGradGradGradGradGradGradGradGradGradGradGrad
 Berny optimization.
 Initialization pass.
 Trust Radius=3.00D-01 FncErr=1.00D-07 GrdErr=1.00D-07 EigMax=2.50D+02 EigMin=1.00D-04
 Number of steps in this run=      2 maximum allowed number of steps=      2.
 GradGradGradGradGradGradGradGradGradGradGradGradGradGradGradGradGradGrad

 Leave Link  103 at Thu Nov  3 08:04:22 2022, MaxMem=  4194304000 cpu:               0.3 elap:               0.1
 (Enter /software/gaussian/G16-A.03/avx/g16/l202.exe)
                          Input orientation:                          
 ---------------------------------------------------------------------
 Center     Atomic      Atomic             Coordinates (Angstroms)
 Number     Number       Type             X           Y           Z
 ---------------------------------------------------------------------
      1          6           0       -4.369980   -1.543840   -0.707250
      2          6           0       -2.968750   -0.974860   -0.941090
      3          6           0       -2.153770   -1.189820    0.356850
      4          1           0       -2.652770   -0.640290    1.170460
      5          6           0       -1.882480   -2.652860    0.743360
      6          8           0       -0.466650   -2.815300    0.559780
      7          6           0        0.045570   -1.600870    0.349760
      8          7           0       -0.800250   -0.644840    0.253070
      9          7           0        1.581210    0.878490   -0.204900
     10          6           0        2.215320   -0.319090   -0.058360
     11          6           0        1.504050   -1.526570    0.242170
     12          6           0        2.205680   -2.712060    0.407200
     13          6           0        3.603010   -2.776580    0.277660
     14          6           0        4.305580   -1.639660   -0.035330
     15          6           0        3.635000   -0.405440   -0.213020
     16          6           0        4.350170    0.769070   -0.547490
     17          6           0        3.672720    1.947420   -0.718060
     18          6           0        2.278090    1.953710   -0.528620
     19          6           0       -2.302260   -1.668110   -2.129390
     20          6           0       -3.082780    0.525180   -1.222860
     21          1           0       -4.356380   -2.626120   -0.500320
     22          1           0       -4.995910   -1.390900   -1.599430
     23          1           0       -4.862830   -1.040110    0.138960
     24          1           0       -2.391540   -3.389140    0.108110
     25          1           0       -2.111830   -2.867260    1.797500
     26          1           0        1.639400   -3.614780    0.637090
     27          1           0        4.116600   -3.729260    0.418470
     28          1           0        5.391670   -1.665210   -0.153000
     29          1           0        5.435240    0.713220   -0.667510
     30          1           0        4.181850    2.874950   -0.983450
     31          1           0        1.682290    2.868770   -0.645560
     32          1           0       -2.225660   -2.759300   -1.996020
     33          1           0       -1.290330   -1.269440   -2.301080
     34          1           0       -2.884810   -1.492620   -3.046630
     35          1           0       -3.423260    1.081510   -0.336790
     36          1           0       -3.794740    0.701820   -2.043960
     37          1           0       -2.123670    0.969970   -1.531580
 ---------------------------------------------------------------------
                    Distance matrix (angstroms):
                    1          2          3          4          5
     1  C    0.000000
     2  C    1.530315   0.000000
     3  C    2.483793   1.547594   0.000000
     4  H    2.700187   2.161116   1.101338   0.000000
     5  C    3.085750   2.614008   1.537360   2.196861   0.000000
     6  O    4.296273   3.449686   2.351540   3.143679   1.436894
     7  C    4.540661   3.338309   2.237434   2.979480   2.231363
     8  N    3.804391   2.497463   1.462802   2.067234   2.333185
     9  N    6.444897   4.967798   4.306222   4.703711   5.036544
    10  C    6.729580   5.299418   4.474318   5.031050   4.783430
    11  C    5.950288   4.659445   3.675078   4.350444   3.603929
    12  C    6.770970   5.622319   4.617852   5.336603   4.102385
    13  C    8.127624   6.922397   5.971984   6.670503   5.506613
    14  C    8.702069   7.360587   6.486861   7.132412   6.318625
    15  C    8.100612   6.668121   5.869400   6.442455   6.033916
    16  C    9.023087   7.534109   6.852468   7.347028   7.226467
    17  C    8.767784   7.259379   6.704155   7.090457   7.359251
    18  C    7.514093   6.022955   5.505199   5.824868   6.336305
    19  C    2.512646   1.528680   2.536178   3.473943   3.065720
    20  C    2.490699   1.530528   2.509934   2.696518   3.925134
    21  H    1.101969   2.201467   2.765717   3.104402   2.769050
    22  H    1.100529   2.171607   3.456186   3.704863   4.095687
    23  H    1.101234   2.181354   2.721929   2.471480   3.442201
    24  H    2.825627   2.694947   2.226076   2.958548   1.097631
    25  H    3.622769   3.437349   2.211569   2.375961   1.099900
    26  H    6.496822   5.540296   4.510776   5.249266   3.652427
    27  H    8.835460   7.722519   6.765360   7.478743   6.103536
    28  H    9.778125   8.425811   7.577573   8.216753   7.395416
    29  H   10.061721   8.576218   7.890751   8.403929   8.177412
    30  H    9.629942   8.121201   7.645838   7.981746   8.385383
    31  H    7.490321   6.040944   5.673829   5.865507   6.717521
    32  H    2.781435   2.202109   2.829211   3.833956   2.762844
    33  H    3.478482   2.180239   2.795793   3.782018   3.396043
    34  H    2.771471   2.169889   3.494250   4.308614   4.088379
    35  H    2.815312   2.190985   2.692895   2.414550   4.181656
    36  H    2.675945   2.170216   3.469146   3.665767   4.762328
    37  H    3.470543   2.201182   2.869106   3.189656   4.284673
                    6          7          8          9         10
     6  O    0.000000
     7  C    1.334660   0.000000
     8  N    2.217263   1.280138   0.000000
     9  N    4.292150   2.968681   2.863848   0.000000
    10  C    3.715659   2.552908   3.049060   1.362999   0.000000
    11  C    2.375997   1.464329   2.467259   2.447476   1.433259
    12  C    2.678673   2.429839   3.651407   3.695494   2.437857
    13  C    4.079611   3.747382   4.892200   4.204768   2.842156
    14  C    4.950804   4.277556   5.209831   3.713762   2.472574
    15  C    4.819562   3.824890   4.466094   2.422106   1.430688
    16  C    6.105367   4.995123   5.400636   2.792218   2.445593
    17  C    6.438227   5.185250   5.260263   2.404238   2.774218
    18  C    5.609070   4.288442   4.103618   1.321565   2.321789
    19  C    3.452122   3.415115   2.996537   5.026945   5.149519
    20  C    4.602255   4.096315   2.959267   4.786844   5.489874
    21  H    4.036038   4.599015   4.139943   6.901053   6.978894
    22  H    5.215870   5.409247   4.646711   7.096010   7.451544
    23  H    4.759705   4.944823   4.083358   6.732378   7.117514
    24  H    2.058762   3.032459   3.175594   5.838954   5.538599
    25  H    2.059434   2.890341   3.007434   5.628392   5.353654
    26  H    2.254017   2.584315   3.862630   4.571850   3.417149
    27  H    4.675625   4.594350   5.806584   5.296051   3.933382
    28  H    6.012543   5.370074   6.288555   4.581780   3.451115
    29  H    6.984912   5.953015   6.447723   3.885212   3.435784
    30  H    7.507933   6.238528   6.224084   3.369766   3.863279
    31  H    6.195114   4.862838   4.394997   2.040983   3.285023
    32  H    3.103122   3.464553   3.400168   5.561824   5.425076
    33  H    3.354497   2.986876   2.674694   4.153711   4.268787
    34  H    4.539072   4.487127   3.994013   5.800252   6.026463
    35  H    4.972978   4.438389   3.195059   5.010323   5.816596
    36  H    5.497798   5.077426   4.007095   5.684557   6.411372
    37  H    4.631174   3.854123   2.746639   3.936316   4.760135
                   11         12         13         14         15
    11  C    0.000000
    12  C    1.387410   0.000000
    13  C    2.443239   1.404804   0.000000
    14  C    2.817511   2.399053   1.372645   0.000000
    15  C    2.450526   2.783545   2.421589   1.415821   0.000000
    16  C    3.740845   4.198635   3.716282   2.462981   1.415207
    17  C    4.206397   5.012900   4.828301   3.705911   2.406749
    18  C    3.647685   4.759245   4.978066   4.155281   2.739780
    19  C    4.486906   5.276897   6.472620   6.931771   6.365365
    20  C    5.234023   6.411289   7.606114   7.790034   6.856705
    21  H    6.008739   6.625074   7.998736   8.730342   8.299164
    22  H    6.757172   7.591767   8.909826   9.435359   8.796924
    23  H    6.386271   7.268508   8.643206   9.189645   8.528764
    24  H    4.320042   4.656428   6.028151   6.923343   6.732368
    25  H    4.158256   4.538492   5.914181   6.785972   6.567252
    26  H    2.129531   1.090149   2.165071   3.385523   3.873625
    27  H    3.421746   2.164818   1.091422   2.146643   3.417382
    28  H    3.910111   3.400037   2.149399   1.092744   2.162525
    29  H    4.615022   4.828830   4.053285   2.685485   2.167677
    30  H    5.295860   6.087186   5.819385   4.614753   3.413732
    31  H    4.487633   5.703324   6.034192   5.251664   3.836746
    32  H    4.521046   5.041277   6.256462   6.910499   6.562551
    33  H    3.787188   4.651668   5.732900   6.048545   5.418982
    34  H    5.484474   6.271289   7.402112   7.796875   7.191608
    35  H    5.604967   6.828591   8.039333   8.199428   7.214248
    36  H    6.186218   7.325831   8.497993   8.667889   7.731714
    37  H    4.747552   6.004955   7.078478   7.098182   6.065693
                   16         17         18         19         20
    16  C    0.000000
    17  C    1.369869   0.000000
    18  C    2.386890   1.407452   0.000000
    19  C    7.259275   7.124907   6.054721   0.000000
    20  C    7.467553   6.922021   5.591207   2.498305   0.000000
    21  H    9.345242   9.242896   8.061751   2.791247   3.474883
    22  H    9.649936   9.330935   8.077384   2.759249   2.733722
    23  H    9.414017   9.083801   7.771831   3.477976   2.733727
    24  H    7.948030   8.120140   7.124389   2.824238   4.191801
    25  H    7.776845   7.935377   6.922715   4.110315   4.644779
    26  H    5.288634   6.075269   5.724935   5.194191   6.549631
    27  H    4.606800   5.806326   6.047582   7.207059   8.522048
    28  H    2.676950   4.040443   4.788742   7.943720   8.818090
    29  H    1.093115   2.152274   3.394952   8.226587   8.538175
    30  H    2.157110   1.090852   2.163297   7.999766   7.638952
    31  H    3.396460   2.194528   1.098175   6.217851   5.341496
    32  H    7.601919   7.653580   6.682027   1.101976   3.481413
    33  H    6.248667   6.122582   5.124835   1.101098   2.756102
    34  H    7.981596   7.762558   6.698739   1.100677   2.727058
    35  H    7.782559   7.158778   5.770869   3.468496   1.100250
    36  H    8.281516   7.685863   6.383005   2.802028   1.101042
    37  H    6.551290   5.934253   4.620516   2.710855   1.101380
                   21         22         23         24         25
    21  H    0.000000
    22  H    1.772797   0.000000
    23  H    1.783423   1.778416   0.000000
    24  H    2.193851   3.700189   3.409717   0.000000
    25  H    3.221200   4.694325   3.695569   1.790149   0.000000
    26  H    6.182275   7.346768   7.011138   4.071758   3.997132
    27  H    8.593747   9.621730   9.377623   6.524407   6.437244
    28  H    9.801452  10.491388  10.277683   7.976119   7.845501
    29  H   10.346737  10.681980  10.477347   8.870706   8.709442
    30  H   10.168410  10.139437   9.919362   9.145479   8.961979
    31  H    8.165810   7.978284   7.663773   7.505035   7.298351
    32  H    2.606688   3.115138   3.803738   2.202630   3.796763
    33  H    3.805782   3.773379   4.332337   3.392637   4.475070
    34  H    3.151830   2.561538   3.776945   3.713824   5.094382
    35  H    3.826745   3.190658   2.607675   4.609674   4.676305
    36  H    3.711260   2.453547   2.990029   4.830769   5.507026
    37  H    4.356645   3.718612   3.786043   4.664995   5.080083
                   26         27         28         29         30
    26  H    0.000000
    27  H    2.489462   0.000000
    28  H    4.301697   2.492526   0.000000
    29  H    5.902708   4.759600   2.433834   0.000000
    30  H    7.155892   6.751683   4.771411   2.518706   0.000000
    31  H    6.609346   7.112807   5.878698   4.327992   2.522302
    32  H    4.754346   6.855279   7.913120   8.515440   8.592221
    33  H    4.766212   6.533112   7.029936   7.199499   6.989769
    34  H    6.208207   8.125836   8.769436   8.930239   8.559793
    35  H    6.973816   8.975712   9.234784   8.872318   7.840427
    36  H    7.439821   9.396134   9.673091   9.332056   8.335056
    37  H    6.315359   8.051486   8.082388   7.612467   6.609764
                   31         32         33         34         35
    31  H    0.000000
    32  H    6.983623   0.000000
    33  H    5.357425   1.785381   0.000000
    34  H    6.756128   1.772777   1.774266   0.000000
    35  H    5.418143   4.351909   3.732933   3.776150   0.000000
    36  H    6.053846   3.800482   3.197506   2.578544   1.787901
    37  H    4.344629   3.759463   2.510287   2.989826   1.768869
                   36         37
    36  H    0.000000
    37  H    1.768308   0.000000
 Stoichiometry    C16H18N2O
 Framework group  C1[X(C16H18N2O)]
 Deg. of freedom   105
 Full point group                 C1      NOp   1
 Largest Abelian subgroup         C1      NOp   1
 Largest concise Abelian subgroup C1      NOp   1
                         Standard orientation:                         
 ---------------------------------------------------------------------
 Center     Atomic      Atomic             Coordinates (Angstroms)
 Number     Number       Type             X           Y           Z
 ---------------------------------------------------------------------
      1          6           0        4.822243    0.221069    0.094715
      2          6           0        3.360479    0.621622    0.306062
      3          6           0        2.517843   -0.094172   -0.776828
      4          1           0        2.863963    0.249885   -1.764132
      5          6           0        2.480917   -1.628724   -0.691610
      6          8           0        1.128333   -1.934193   -0.314957
      7          6           0        0.427360   -0.802440   -0.410294
      8          7           0        1.099249    0.251363   -0.687453
      9          7           0       -1.477698    1.474260   -0.431548
     10          6           0       -1.902686    0.209053   -0.155140
     11          6           0       -1.012727   -0.914332   -0.169692
     12          6           0       -1.507303   -2.183692    0.093034
     13          6           0       -2.861923   -2.410635    0.387954
     14          6           0       -3.730363   -1.348626    0.433806
     15          6           0       -3.273976   -0.034113    0.172430
     16          6           0       -4.160006    1.067948    0.229220
     17          6           0       -3.687628    2.328710   -0.023524
     18          6           0       -2.329216    2.482269   -0.358274
     19          6           0        2.897293    0.231237    1.709601
     20          6           0        3.230059    2.136125    0.127767
     21          1           0        4.983630   -0.862649    0.212379
     22          1           0        5.465173    0.727636    0.830376
     23          1           0        5.168268    0.511216   -0.909674
     24          1           0        3.147272   -2.054455    0.069649
     25          1           0        2.679585   -2.116497   -1.657213
     26          1           0       -0.808336   -3.020044    0.073416
     27          1           0       -3.210469   -3.425808    0.585792
     28          1           0       -4.786483   -1.496710    0.672074
     29          1           0       -5.209737    0.892198    0.478373
     30          1           0       -4.332556    3.207589    0.016420
     31          1           0       -1.894790    3.466874   -0.576939
     32          1           0        3.002748   -0.847828    1.906697
     33          1           0        1.843935    0.509844    1.868446
     34          1           0        3.495195    0.760255    2.467324
     35          1           0        3.414778    2.441303   -0.913048
     36          1           0        3.949150    2.656103    0.779553
     37          1           0        2.228950    2.507471    0.397803
 ---------------------------------------------------------------------
 Rotational constants (GHZ):           0.7491045           0.2390856           0.1942462
 Leave Link  202 at Thu Nov  3 08:04:22 2022, MaxMem=  4194304000 cpu:               0.5 elap:               0.1
 (Enter /software/gaussian/G16-A.03/avx/g16/l301.exe)
 Standard basis: def2SVP (5D, 7F)
 Ernie: Thresh=  0.10000D-02 Tol=  0.10000D-05 Strict=F.
 There are   375 symmetry adapted cartesian basis functions of A   symmetry.
 There are   356 symmetry adapted basis functions of A   symmetry.
   356 basis functions,   601 primitive gaussians,   375 cartesian basis functions
    68 alpha electrons       68 beta electrons
       nuclear repulsion energy      1403.4001651843 Hartrees.
 IExCor= 1009 DFT=T Ex+Corr=PBE1PBE ExCW=0 ScaHFX=  0.250000
 ScaDFX=  0.750000  0.750000  1.000000  1.000000 ScalE2=  1.000000  1.000000
 IRadAn=      5 IRanWt=     -1 IRanGd=            0 ICorTp=0 IEmpDi=141
 NAtoms=   37 NActive=   37 NUniq=   37 SFac= 1.00D+00 NAtFMM=   60 NAOKFM=F Big=F
 Integral buffers will be    131072 words long.
 Raffenetti 2 integral format.
 Two-electron integral symmetry is turned on.
 R6Disp:  Grimme-D3(BJ) Dispersion energy=       -0.0414795212 Hartrees.
 Nuclear repulsion after empirical dispersion term =     1403.3586856632 Hartrees.
 Leave Link  301 at Thu Nov  3 08:04:23 2022, MaxMem=  4194304000 cpu:               0.6 elap:               0.1
 (Enter /software/gaussian/G16-A.03/avx/g16/l302.exe)
 NPDir=0 NMtPBC=     1 NCelOv=     1 NCel=       1 NClECP=     1 NCelD=      1
         NCelK=      1 NCelE2=     1 NClLst=     1 CellRange=     0.0.
 One-electron integrals computed using PRISM.
 One-electron integral symmetry used in STVInt
   1 Symmetry operations used in ECPInt.
 ECPInt:  NShTT=   14196 NPrTT=   51022 LenC2=   12915 LenP2D=   32862.
 LDataN:  DoStor=T MaxTD1= 4 Len=   56
 NBasis=   356 RedAO= T EigKep=  2.10D-04  NBF=   356
 NBsUse=   356 1.00D-06 EigRej= -1.00D+00 NBFU=   356
 Precomputing XC quadrature grid using
 IXCGrd= 4 IRadAn=           5 IRanWt=          -1 IRanGd=           0 AccXCQ= 0.00D+00.
 Generated NRdTot=       0 NPtTot=           0 NUsed=           0 NTot=          32
 NSgBfM=   372   372   372   372   372 MxSgAt=    37 MxSgA2=    37.
 Leave Link  302 at Thu Nov  3 08:04:24 2022, MaxMem=  4194304000 cpu:               7.7 elap:               1.2
 (Enter /software/gaussian/G16-A.03/avx/g16/l303.exe)
 DipDrv:  MaxL=1.
 Leave Link  303 at Thu Nov  3 08:04:24 2022, MaxMem=  4194304000 cpu:               1.5 elap:               0.3
 (Enter /software/gaussian/G16-A.03/avx/g16/l401.exe)
 ExpMin= 1.22D-01 ExpMax= 2.27D+03 ExpMxC= 3.41D+02 IAcc=3 IRadAn=         5 AccDes= 0.00D+00
 Harris functional with IExCor= 1009 and IRadAn=       5 diagonalized for initial guess.
 HarFok:  IExCor= 1009 AccDes= 0.00D+00 IRadAn=         5 IDoV= 1 UseB2=F ITyADJ=14
 ICtDFT=  3500011 ScaDFX=  1.000000  1.000000  1.000000  1.000000
 FoFCou: FMM=F IPFlag=           0 FMFlag=      100000 FMFlg1=           0
         NFxFlg=           0 DoJE=T BraDBF=F KetDBF=T FulRan=T
         wScrn=  0.000000 ICntrl=       500 IOpCl=  0 I1Cent=   200000004 NGrid=           0
         NMat0=    1 NMatS0=      1 NMatT0=    0 NMatD0=    1 NMtDS0=    0 NMtDT0=    0
 Petite list used in FoFCou.
 Harris En= -803.984478467076    
 JPrj=0 DoOrth=F DoCkMO=F.
 Leave Link  401 at Thu Nov  3 08:04:28 2022, MaxMem=  4194304000 cpu:              28.2 elap:               3.7
 (Enter /software/gaussian/G16-A.03/avx/g16/l502.exe)
 Integral symmetry usage will be decided dynamically.
 Closed shell SCF:
 Using DIIS extrapolation, IDIIS=  1040.
 NGot=  4194304000 LenX=  4194015657 LenY=  4193874591
 Requested convergence on RMS density matrix=1.00D-08 within 128 cycles.
 Requested convergence on MAX density matrix=1.00D-06.
 Requested convergence on             energy=1.00D-06.
 No special actions if energy rises.
 Fock matrices will be formed incrementally for  20 cycles.
 Integral accuracy reduced to 1.0D-05 until final iterations.

 Cycle   1  Pass 0  IDiag  1:
 FoFJK:  IHMeth= 1 ICntrl=       0 DoSepK=F KAlg= 0 I1Cent=           0 FoldK=F
 IRaf= 850000000 NMat=       1 IRICut=       1 DoRegI=T DoRafI=F ISym2E= 0 IDoP0=0 IntGTp=1.
 FoFCou: FMM=F IPFlag=           0 FMFlag=      100000 FMFlg1=           0
         NFxFlg=           0 DoJE=F BraDBF=F KetDBF=F FulRan=T
         wScrn=  0.000000 ICntrl=         0 IOpCl=  0 I1Cent=           0 NGrid=           0
         NMat0=    1 NMatS0=      1 NMatT0=    0 NMatD0=    1 NMtDS0=    0 NMtDT0=    0
 Symmetry not used in FoFCou.
 E= -803.438867103917    
 DIIS: error= 2.59D-02 at cycle   1 NSaved=   1.
 NSaved= 1 IEnMin= 1 EnMin= -803.438867103917     IErMin= 1 ErrMin= 2.59D-02
 ErrMax= 2.59D-02  0.00D+00 EMaxC= 1.00D-01 BMatC= 3.24D-01 BMatP= 3.24D-01
 IDIUse=3 WtCom= 7.41D-01 WtEn= 2.59D-01
 Coeff-Com:  0.100D+01
 Coeff-En:   0.100D+01
 Coeff:      0.100D+01
 Gap=     0.158 Goal=   None    Shift=    0.000
 GapD=    0.158 DampG=1.000 DampE=0.500 DampFc=0.5000 IDamp=-1.
 Damping current iteration by 5.00D-01
 RMSDP=4.60D-03 MaxDP=1.43D-01              OVMax= 2.01D-01

 Cycle   2  Pass 0  IDiag  1:
 RMSU=  2.24D-03    CP:  9.71D-01
 E= -803.597854579897     Delta-E=       -0.158987475980 Rises=F Damp=T
 DIIS: error= 5.42D-03 at cycle   2 NSaved=   2.
 NSaved= 2 IEnMin= 2 EnMin= -803.597854579897     IErMin= 2 ErrMin= 5.42D-03
 ErrMax= 5.42D-03  0.00D+00 EMaxC= 1.00D-01 BMatC= 2.51D-02 BMatP= 3.24D-01
 IDIUse=3 WtCom= 9.46D-01 WtEn= 5.42D-02
 Coeff-Com:  0.601D-01 0.940D+00
 Coeff-En:   0.882D-01 0.912D+00
 Coeff:      0.617D-01 0.938D+00
 Gap=     0.201 Goal=   None    Shift=    0.000
 RMSDP=1.57D-03 MaxDP=5.37D-02 DE=-1.59D-01 OVMax= 1.72D-01

 Cycle   3  Pass 0  IDiag  1:
 RMSU=  1.55D-03    CP:  9.56D-01  1.00D+00
 E= -803.767621607767     Delta-E=       -0.169767027870 Rises=F Damp=F
 DIIS: error= 1.06D-02 at cycle   3 NSaved=   3.
 NSaved= 3 IEnMin= 3 EnMin= -803.767621607767     IErMin= 2 ErrMin= 5.42D-03
 ErrMax= 1.06D-02  0.00D+00 EMaxC= 1.00D-01 BMatC= 3.25D-02 BMatP= 2.51D-02
 IDIUse=2 WtCom= 0.00D+00 WtEn= 1.00D+00
 Coeff-En:   0.000D+00 0.000D+00 0.100D+01
 Coeff:      0.000D+00 0.000D+00 0.100D+01
 Gap=     0.160 Goal=   None    Shift=    0.000
 RMSDP=1.89D-03 MaxDP=1.15D-01 DE=-1.70D-01 OVMax= 2.24D-01

 Cycle   4  Pass 0  IDiag  1:
 RMSU=  1.19D-03    CP:  9.60D-01  1.34D+00  1.86D-01
 E= -803.655903333547     Delta-E=        0.111718274220 Rises=F Damp=F
 DIIS: error= 2.44D-02 at cycle   4 NSaved=   4.
 NSaved= 4 IEnMin= 3 EnMin= -803.767621607767     IErMin= 2 ErrMin= 5.42D-03
 ErrMax= 2.44D-02  0.00D+00 EMaxC= 1.00D-01 BMatC= 1.53D-01 BMatP= 2.51D-02
 IDIUse=2 WtCom= 0.00D+00 WtEn= 1.00D+00
 Coeff-En:   0.000D+00 0.000D+00 0.772D+00 0.228D+00
 Coeff:      0.000D+00 0.000D+00 0.772D+00 0.228D+00
 Gap=     0.167 Goal=   None    Shift=    0.000
 RMSDP=1.02D-03 MaxDP=5.81D-02 DE= 1.12D-01 OVMax= 1.01D-01

 Cycle   5  Pass 0  IDiag  1:
 RMSU=  1.93D-04    CP:  9.58D-01  1.14D+00  5.92D-01  4.70D-01
 E= -803.788667605744     Delta-E=       -0.132764272197 Rises=F Damp=F
 DIIS: error= 6.04D-03 at cycle   5 NSaved=   5.
 NSaved= 5 IEnMin= 5 EnMin= -803.788667605744     IErMin= 2 ErrMin= 5.42D-03
 ErrMax= 6.04D-03  0.00D+00 EMaxC= 1.00D-01 BMatC= 1.01D-02 BMatP= 2.51D-02
 IDIUse=3 WtCom= 9.40D-01 WtEn= 6.04D-02
 Coeff-Com:  0.361D-02 0.486D-02 0.320D+00-0.351D-01 0.707D+00
 Coeff-En:   0.000D+00 0.000D+00 0.284D+00 0.000D+00 0.716D+00
 Coeff:      0.339D-02 0.457D-02 0.318D+00-0.330D-01 0.707D+00
 Gap=     0.169 Goal=   None    Shift=    0.000
 RMSDP=3.41D-04 MaxDP=1.92D-02 DE=-1.33D-01 OVMax= 3.38D-02

 Cycle   6  Pass 0  IDiag  1:
 RMSU=  7.23D-05    CP:  9.57D-01  1.08D+00  7.41D-01  3.01D-01  7.79D-01
 E= -803.797961140211     Delta-E=       -0.009293534466 Rises=F Damp=F
 DIIS: error= 7.00D-04 at cycle   6 NSaved=   6.
 NSaved= 6 IEnMin= 6 EnMin= -803.797961140211     IErMin= 6 ErrMin= 7.00D-04
 ErrMax= 7.00D-04  0.00D+00 EMaxC= 1.00D-01 BMatC= 8.38D-05 BMatP= 1.01D-02
 IDIUse=3 WtCom= 9.93D-01 WtEn= 7.00D-03
 Coeff-Com:  0.624D-03-0.144D-02 0.129D+00-0.485D-01 0.429D+00 0.492D+00
 Coeff-En:   0.000D+00 0.000D+00 0.000D+00 0.000D+00 0.000D+00 0.100D+01
 Coeff:      0.620D-03-0.143D-02 0.128D+00-0.482D-01 0.426D+00 0.495D+00
 Gap=     0.169 Goal=   None    Shift=    0.000
 RMSDP=3.79D-05 MaxDP=1.58D-03 DE=-9.29D-03 OVMax= 4.09D-03

 Cycle   7  Pass 0  IDiag  1:
 RMSU=  1.78D-05    CP:  9.57D-01  1.08D+00  7.39D-01  3.04D-01  8.40D-01
                    CP:  5.73D-01
 E= -803.798051912172     Delta-E=       -0.000090771961 Rises=F Damp=F
 DIIS: error= 1.42D-04 at cycle   7 NSaved=   7.
 NSaved= 7 IEnMin= 7 EnMin= -803.798051912172     IErMin= 7 ErrMin= 1.42D-04
 ErrMax= 1.42D-04  0.00D+00 EMaxC= 1.00D-01 BMatC= 6.84D-06 BMatP= 8.38D-05
 IDIUse=3 WtCom= 9.99D-01 WtEn= 1.42D-03
 Coeff-Com:  0.131D-03-0.108D-02 0.561D-01-0.287D-01 0.214D+00 0.297D+00
 Coeff-Com:  0.462D+00
 Coeff-En:   0.000D+00 0.000D+00 0.000D+00 0.000D+00 0.000D+00 0.000D+00
 Coeff-En:   0.100D+01
 Coeff:      0.131D-03-0.108D-02 0.560D-01-0.287D-01 0.214D+00 0.297D+00
 Coeff:      0.463D+00
 Gap=     0.169 Goal=   None    Shift=    0.000
 RMSDP=9.58D-06 MaxDP=3.70D-04 DE=-9.08D-05 OVMax= 9.82D-04

 Initial convergence to 1.0D-05 achieved.  Increase integral accuracy.
 Cycle   8  Pass 1  IDiag  1:
 E= -803.798075500244     Delta-E=       -0.000023588072 Rises=F Damp=F
 DIIS: error= 1.18D-04 at cycle   1 NSaved=   1.
 NSaved= 1 IEnMin= 1 EnMin= -803.798075500244     IErMin= 1 ErrMin= 1.18D-04
 ErrMax= 1.18D-04  0.00D+00 EMaxC= 1.00D-01 BMatC= 2.46D-06 BMatP= 2.46D-06
 IDIUse=3 WtCom= 9.99D-01 WtEn= 1.18D-03
 Coeff-Com:  0.100D+01
 Coeff-En:   0.100D+01
 Coeff:      0.100D+01
 Gap=     0.169 Goal=   None    Shift=    0.000
 RMSDP=9.58D-06 MaxDP=3.70D-04 DE=-2.36D-05 OVMax= 7.69D-04

 Cycle   9  Pass 1  IDiag  1:
 RMSU=  9.48D-05    CP:  1.00D+00
 E= -803.798076209648     Delta-E=       -0.000000709404 Rises=F Damp=F
 DIIS: error= 6.63D-05 at cycle   2 NSaved=   2.
 NSaved= 2 IEnMin= 2 EnMin= -803.798076209648     IErMin= 2 ErrMin= 6.63D-05
 ErrMax= 6.63D-05  0.00D+00 EMaxC= 1.00D-01 BMatC= 1.84D-06 BMatP= 2.46D-06
 IDIUse=1 WtCom= 1.00D+00 WtEn= 0.00D+00
 Coeff-Com:  0.448D+00 0.552D+00
 Coeff:      0.448D+00 0.552D+00
 Gap=     0.169 Goal=   None    Shift=    0.000
 RMSDP=8.53D-06 MaxDP=3.64D-04 DE=-7.09D-07 OVMax= 8.95D-04

 Cycle  10  Pass 1  IDiag  1:
 RMSU=  8.50D-06    CP:  1.00D+00  1.00D+00
 E= -803.798077003132     Delta-E=       -0.000000793485 Rises=F Damp=F
 DIIS: error= 5.00D-05 at cycle   3 NSaved=   3.
 NSaved= 3 IEnMin= 3 EnMin= -803.798077003132     IErMin= 3 ErrMin= 5.00D-05
 ErrMax= 5.00D-05  0.00D+00 EMaxC= 1.00D-01 BMatC= 1.06D-06 BMatP= 1.84D-06
 IDIUse=1 WtCom= 1.00D+00 WtEn= 0.00D+00
 Coeff-Com:  0.460D-02 0.431D+00 0.565D+00
 Coeff:      0.460D-02 0.431D+00 0.565D+00
 Gap=     0.169 Goal=   None    Shift=    0.000
 RMSDP=3.74D-06 MaxDP=1.59D-04 DE=-7.93D-07 OVMax= 4.23D-04

 Cycle  11  Pass 1  IDiag  1:
 RMSU=  8.21D-07    CP:  1.00D+00  1.01D+00  5.86D-01
 E= -803.798078037946     Delta-E=       -0.000001034814 Rises=F Damp=F
 DIIS: error= 8.63D-06 at cycle   4 NSaved=   4.
 NSaved= 4 IEnMin= 4 EnMin= -803.798078037946     IErMin= 4 ErrMin= 8.63D-06
 ErrMax= 8.63D-06  0.00D+00 EMaxC= 1.00D-01 BMatC= 2.19D-08 BMatP= 1.06D-06
 IDIUse=1 WtCom= 1.00D+00 WtEn= 0.00D+00
 Coeff-Com: -0.444D-02 0.253D+00 0.341D+00 0.410D+00
 Coeff:     -0.444D-02 0.253D+00 0.341D+00 0.410D+00
 Gap=     0.169 Goal=   None    Shift=    0.000
 RMSDP=5.14D-07 MaxDP=2.42D-05 DE=-1.03D-06 OVMax= 5.24D-05

 Cycle  12  Pass 1  IDiag  1:
 RMSU=  2.78D-07    CP:  1.00D+00  1.01D+00  5.94D-01  4.83D-01
 E= -803.798078059892     Delta-E=       -0.000000021946 Rises=F Damp=F
 DIIS: error= 1.56D-06 at cycle   5 NSaved=   5.
 NSaved= 5 IEnMin= 5 EnMin= -803.798078059892     IErMin= 5 ErrMin= 1.56D-06
 ErrMax= 1.56D-06  0.00D+00 EMaxC= 1.00D-01 BMatC= 5.24D-10 BMatP= 2.19D-08
 IDIUse=1 WtCom= 1.00D+00 WtEn= 0.00D+00
 Coeff-Com: -0.266D-02 0.132D+00 0.177D+00 0.236D+00 0.458D+00
 Coeff:     -0.266D-02 0.132D+00 0.177D+00 0.236D+00 0.458D+00
 Gap=     0.169 Goal=   None    Shift=    0.000
 RMSDP=9.59D-08 MaxDP=3.30D-06 DE=-2.19D-08 OVMax= 1.04D-05

 Cycle  13  Pass 1  IDiag  1:
 RMSU=  7.43D-08    CP:  1.00D+00  1.01D+00  5.92D-01  5.17D-01  8.19D-01
 E= -803.798078060429     Delta-E=       -0.000000000537 Rises=F Damp=F
 DIIS: error= 3.20D-07 at cycle   6 NSaved=   6.
 NSaved= 6 IEnMin= 6 EnMin= -803.798078060429     IErMin= 6 ErrMin= 3.20D-07
 ErrMax= 3.20D-07  0.00D+00 EMaxC= 1.00D-01 BMatC= 3.97D-11 BMatP= 5.24D-10
 IDIUse=1 WtCom= 1.00D+00 WtEn= 0.00D+00
 Coeff-Com: -0.964D-03 0.437D-01 0.584D-01 0.827D-01 0.253D+00 0.563D+00
 Coeff:     -0.964D-03 0.437D-01 0.584D-01 0.827D-01 0.253D+00 0.563D+00
 Gap=     0.169 Goal=   None    Shift=    0.000
 RMSDP=3.00D-08 MaxDP=9.07D-07 DE=-5.37D-10 OVMax= 2.49D-06

 Cycle  14  Pass 1  IDiag  1:
 RMSU=  2.43D-08    CP:  1.00D+00  1.01D+00  5.91D-01  5.20D-01  8.43D-01
                    CP:  8.14D-01
 E= -803.798078060454     Delta-E=       -0.000000000025 Rises=F Damp=F
 DIIS: error= 9.33D-08 at cycle   7 NSaved=   7.
 NSaved= 7 IEnMin= 7 EnMin= -803.798078060454     IErMin= 7 ErrMin= 9.33D-08
 ErrMax= 9.33D-08  0.00D+00 EMaxC= 1.00D-01 BMatC= 5.44D-12 BMatP= 3.97D-11
 IDIUse=1 WtCom= 1.00D+00 WtEn= 0.00D+00
 Coeff-Com: -0.221D-03 0.864D-02 0.113D-01 0.177D-01 0.897D-01 0.318D+00
 Coeff-Com:  0.555D+00
 Coeff:     -0.221D-03 0.864D-02 0.113D-01 0.177D-01 0.897D-01 0.318D+00
 Coeff:      0.555D+00
 Gap=     0.169 Goal=   None    Shift=    0.000
 RMSDP=1.07D-08 MaxDP=4.89D-07 DE=-2.55D-11 OVMax= 1.05D-06

 Cycle  15  Pass 1  IDiag  1:
 RMSU=  7.35D-09    CP:  1.00D+00  1.01D+00  5.92D-01  5.19D-01  8.53D-01
                    CP:  8.52D-01  7.32D-01
 E= -803.798078060469     Delta-E=       -0.000000000015 Rises=F Damp=F
 DIIS: error= 4.36D-08 at cycle   8 NSaved=   8.
 NSaved= 8 IEnMin= 8 EnMin= -803.798078060469     IErMin= 8 ErrMin= 4.36D-08
 ErrMax= 4.36D-08  0.00D+00 EMaxC= 1.00D-01 BMatC= 8.01D-13 BMatP= 5.44D-12
 IDIUse=1 WtCom= 1.00D+00 WtEn= 0.00D+00
 Coeff-Com:  0.389D-04-0.248D-02-0.342D-02-0.409D-02 0.832D-02 0.799D-01
 Coeff-Com:  0.316D+00 0.605D+00
 Coeff:      0.389D-04-0.248D-02-0.342D-02-0.409D-02 0.832D-02 0.799D-01
 Coeff:      0.316D+00 0.605D+00
 Gap=     0.169 Goal=   None    Shift=    0.000
 RMSDP=4.03D-09 MaxDP=1.41D-07 DE=-1.46D-11 OVMax= 4.07D-07

 SCF Done:  E(RPBE1PBE) =  -803.798078060     A.U. after   15 cycles
            NFock= 15  Conv=0.40D-08     -V/T= 2.0103
 KE= 7.956276722877D+02 PE=-4.672294398490D+03 EE= 1.669509962478D+03
 Leave Link  502 at Thu Nov  3 08:05:54 2022, MaxMem=  4194304000 cpu:             682.6 elap:              86.0
 (Enter /software/gaussian/G16-A.03/avx/g16/l801.exe)
 DoSCS=F DFT=T ScalE2(SS,OS)=  1.000000  1.000000
 Range of M.O.s used for correlation:     1   356
 NBasis=   356 NAE=    68 NBE=    68 NFC=     0 NFV=     0
 NROrb=    356 NOA=    68 NOB=    68 NVA=   288 NVB=   288

 **** Warning!!: The largest alpha MO coefficient is  0.13886273D+02

 Leave Link  801 at Thu Nov  3 08:05:54 2022, MaxMem=  4194304000 cpu:               0.3 elap:               0.1
 (Enter /software/gaussian/G16-A.03/avx/g16/l1101.exe)
 Using compressed storage, NAtomX=    37.
 Will process     38 centers per pass.
   1 Symmetry operations used in ECPInt.
 ECPInt:  NShTT=   14196 NPrTT=   51022 LenC2=   12915 LenP2D=   32862.
 LDataN:  DoStor=T MaxTD1= 5 Len=  102
 R6Disp: Adding Grimme-D3(BJ) dispersion energy 1st derivatives to the gradient.
 Leave Link 1101 at Thu Nov  3 08:05:57 2022, MaxMem=  4194304000 cpu:              17.5 elap:               2.9
 (Enter /software/gaussian/G16-A.03/avx/g16/l1102.exe)
 Symmetrizing basis deriv contribution to polar:
 IMax=3 JMax=2 DiffMx= 0.00D+00
 Leave Link 1102 at Thu Nov  3 08:05:57 2022, MaxMem=  4194304000 cpu:               1.2 elap:               0.2
 (Enter /software/gaussian/G16-A.03/avx/g16/l1110.exe)
 Forming Gx(P) for the SCF density, NAtomX=    37.
 Integral derivatives from FoFJK, PRISM(SPDF).
 Do as many integral derivatives as possible in FoFJK.
 G2DrvN: MDV=    4194301200.
 G2DrvN: will do    38 centers at a time, making    1 passes.
 Calling FoFCou, ICntrl=  3107 FMM=F I1Cent=   0 AccDes= 0.00D+00.
 FoFJK:  IHMeth= 1 ICntrl=    3107 DoSepK=F KAlg= 0 I1Cent=           0 FoldK=F
 IRaf=         0 NMat=       1 IRICut=       1 DoRegI=T DoRafI=F ISym2E= 0 IDoP0=0 IntGTp=1.
 FoFCou: FMM=F IPFlag=           0 FMFlag=      100000 FMFlg1=           0
         NFxFlg=           0 DoJE=F BraDBF=F KetDBF=F FulRan=T
         wScrn=  0.000000 ICntrl=      3107 IOpCl=  0 I1Cent=           0 NGrid=           0
         NMat0=    1 NMatS0=      1 NMatT0=    0 NMatD0=    1 NMtDS0=    0 NMtDT0=    0
 Symmetry not used in FoFCou.
 End of G2Drv F.D. properties file   721 does not exist.
 End of G2Drv F.D. properties file   722 does not exist.
 End of G2Drv F.D. properties file   788 does not exist.
 Leave Link 1110 at Thu Nov  3 08:10:24 2022, MaxMem=  4194304000 cpu:            2129.7 elap:             267.4
 (Enter /software/gaussian/G16-A.03/avx/g16/l1002.exe)
 Minotr:  Closed shell wavefunction.
          IDoAtm=1111111111111111111111111111111111111
          Direct CPHF calculation.
          Differentiating once with respect to electric field.
                with respect to dipole field.
          Differentiating once with respect to nuclear coordinates.
          Requested convergence is 1.0D-08 RMS, and 1.0D-07 maximum.
          Secondary convergence is 1.0D-12 RMS, and 1.0D-12 maximum.
          NewPWx=T KeepS1=F KeepF1=F KeepIn=T MapXYZ=F SortEE=F KeepMc=T.
        11174 words used for storage of precomputed grid.
 Keep R1 ints in memory in canonical form, NReq=2045675035.
 FoFCou: FMM=F IPFlag=           0 FMFlag=           0 FMFlg1=           0
         NFxFlg=           0 DoJE=F BraDBF=F KetDBF=F FulRan=T
         wScrn=  0.000000 ICntrl=       600 IOpCl=  0 I1Cent=           0 NGrid=           0
         NMat0=    1 NMatS0=  63546 NMatT0=    0 NMatD0=    1 NMtDS0=    0 NMtDT0=    0
 Symmetry not used in FoFCou.
 Two-electron integral symmetry not used.
          MDV=    4194304000 using IRadAn=       1.
          Solving linear equations simultaneously, MaxMat=       0.
          There are   114 degrees of freedom in the 1st order CPHF.  IDoFFX=6 NUNeed=     3.
    111 vectors produced by pass  0 Test12= 1.96D-14 1.00D-09 XBig12= 2.79D+02 1.02D+01.
 AX will form   111 AO Fock derivatives at one time.
    111 vectors produced by pass  1 Test12= 1.96D-14 1.00D-09 XBig12= 6.15D+01 1.71D+00.
    111 vectors produced by pass  2 Test12= 1.96D-14 1.00D-09 XBig12= 7.33D-01 1.38D-01.
    111 vectors produced by pass  3 Test12= 1.96D-14 1.00D-09 XBig12= 2.63D-03 4.04D-03.
    111 vectors produced by pass  4 Test12= 1.96D-14 1.00D-09 XBig12= 7.16D-06 3.01D-04.
     86 vectors produced by pass  5 Test12= 1.96D-14 1.00D-09 XBig12= 9.54D-09 6.65D-06.
     24 vectors produced by pass  6 Test12= 1.96D-14 1.00D-09 XBig12= 1.13D-11 2.14D-07.
      3 vectors produced by pass  7 Test12= 1.96D-14 1.00D-09 XBig12= 1.11D-14 7.22D-09.
 InvSVY:  IOpt=1 It=  1 EMax= 2.49D-14
 Solved reduced A of dimension   668 with   114 vectors.
 FullF1:  Do perturbations      1 to       3.
 Isotropic polarizability for W=    0.000000      191.30 Bohr**3.
 End of Minotr F.D. properties file   721 does not exist.
 End of Minotr F.D. properties file   722 does not exist.
 End of Minotr F.D. properties file   788 does not exist.
 Leave Link 1002 at Thu Nov  3 08:15:43 2022, MaxMem=  4194304000 cpu:            2523.2 elap:             318.0
 (Enter /software/gaussian/G16-A.03/avx/g16/l601.exe)
 Copying SCF densities to generalized density rwf, IOpCl= 0 IROHF=0.

 **********************************************************************

            Population analysis using the SCF density.

 **********************************************************************

 Orbital symmetries:
       Occupied  (A) (A) (A) (A) (A) (A) (A) (A) (A) (A) (A) (A)
                 (A) (A) (A) (A) (A) (A) (A) (A) (A) (A) (A) (A)
                 (A) (A) (A) (A) (A) (A) (A) (A) (A) (A) (A) (A)
                 (A) (A) (A) (A) (A) (A) (A) (A) (A) (A) (A) (A)
                 (A) (A) (A) (A) (A) (A) (A) (A) (A) (A) (A) (A)
                 (A) (A) (A) (A) (A) (A) (A) (A)
       Virtual   (A) (A) (A) (A) (A) (A) (A) (A) (A) (A) (A) (A)
                 (A) (A) (A) (A) (A) (A) (A) (A) (A) (A) (A) (A)
                 (A) (A) (A) (A) (A) (A) (A) (A) (A) (A) (A) (A)
                 (A) (A) (A) (A) (A) (A) (A) (A) (A) (A) (A) (A)
                 (A) (A) (A) (A) (A) (A) (A) (A) (A) (A) (A) (A)
                 (A) (A) (A) (A) (A) (A) (A) (A) (A) (A) (A) (A)
                 (A) (A) (A) (A) (A) (A) (A) (A) (A) (A) (A) (A)
                 (A) (A) (A) (A) (A) (A) (A) (A) (A) (A) (A) (A)
                 (A) (A) (A) (A) (A) (A) (A) (A) (A) (A) (A) (A)
                 (A) (A) (A) (A) (A) (A) (A) (A) (A) (A) (A) (A)
                 (A) (A) (A) (A) (A) (A) (A) (A) (A) (A) (A) (A)
                 (A) (A) (A) (A) (A) (A) (A) (A) (A) (A) (A) (A)
                 (A) (A) (A) (A) (A) (A) (A) (A) (A) (A) (A) (A)
                 (A) (A) (A) (A) (A) (A) (A) (A) (A) (A) (A) (A)
                 (A) (A) (A) (A) (A) (A) (A) (A) (A) (A) (A) (A)
                 (A) (A) (A) (A) (A) (A) (A) (A) (A) (A) (A) (A)
                 (A) (A) (A) (A) (A) (A) (A) (A) (A) (A) (A) (A)
                 (A) (A) (A) (A) (A) (A) (A) (A) (A) (A) (A) (A)
                 (A) (A) (A) (A) (A) (A) (A) (A) (A) (A) (A) (A)
                 (A) (A) (A) (A) (A) (A) (A) (A) (A) (A) (A) (A)
                 (A) (A) (A) (A) (A) (A) (A) (A) (A) (A) (A) (A)
                 (A) (A) (A) (A) (A) (A) (A) (A) (A) (A) (A) (A)
                 (A) (A) (A) (A) (A) (A) (A) (A) (A) (A) (A) (A)
                 (A) (A) (A) (A) (A) (A) (A) (A) (A) (A) (A) (A)
 The electronic state is 1-A.
 Alpha  occ. eigenvalues --  -19.23931 -14.38163 -14.35229 -10.31174 -10.28362
 Alpha  occ. eigenvalues --  -10.28135 -10.27340 -10.26066 -10.25616 -10.25582
 Alpha  occ. eigenvalues --  -10.25541 -10.25314 -10.24987 -10.24886 -10.24882
 Alpha  occ. eigenvalues --  -10.24094 -10.22231 -10.21555 -10.20995  -1.11382
 Alpha  occ. eigenvalues --   -0.96408  -0.90878  -0.87951  -0.84198  -0.82683
 Alpha  occ. eigenvalues --   -0.78887  -0.77474  -0.74498  -0.69484  -0.68880
 Alpha  occ. eigenvalues --   -0.66640  -0.66100  -0.64232  -0.63683  -0.57550
 Alpha  occ. eigenvalues --   -0.55451  -0.54640  -0.53176  -0.52663  -0.51066
 Alpha  occ. eigenvalues --   -0.50040  -0.47872  -0.46447  -0.45157  -0.44840
 Alpha  occ. eigenvalues --   -0.44561  -0.44395  -0.43332  -0.42707  -0.41833
 Alpha  occ. eigenvalues --   -0.41033  -0.39255  -0.39129  -0.38720  -0.37641
 Alpha  occ. eigenvalues --   -0.37055  -0.36413  -0.36202  -0.35888  -0.33984
 Alpha  occ. eigenvalues --   -0.33267  -0.32609  -0.32257  -0.27723  -0.27226
 Alpha  occ. eigenvalues --   -0.26198  -0.23955  -0.23560
 Alpha virt. eigenvalues --   -0.06702  -0.02112  -0.00493   0.06083   0.06904
 Alpha virt. eigenvalues --    0.07067   0.08987   0.09468   0.10005   0.10751
 Alpha virt. eigenvalues --    0.11128   0.11783   0.12523   0.13687   0.13797
 Alpha virt. eigenvalues --    0.14734   0.15045   0.15715   0.16614   0.17497
 Alpha virt. eigenvalues --    0.17644   0.18930   0.20119   0.20473   0.20890
 Alpha virt. eigenvalues --    0.21537   0.21929   0.23131   0.24664   0.24825
 Alpha virt. eigenvalues --    0.25327   0.26254   0.27025   0.27983   0.28517
 Alpha virt. eigenvalues --    0.29967   0.31335   0.31565   0.32978   0.35006
 Alpha virt. eigenvalues --    0.35843   0.37004   0.38497   0.39289   0.40697
 Alpha virt. eigenvalues --    0.41420   0.42316   0.43111   0.43942   0.44274
 Alpha virt. eigenvalues --    0.46046   0.46560   0.46857   0.47465   0.48485
 Alpha virt. eigenvalues --    0.49929   0.50064   0.51928   0.52603   0.53529
 Alpha virt. eigenvalues --    0.53782   0.54847   0.56241   0.56990   0.57494
 Alpha virt. eigenvalues --    0.57940   0.58299   0.59712   0.60769   0.61662
 Alpha virt. eigenvalues --    0.61869   0.62046   0.62786   0.64074   0.64861
 Alpha virt. eigenvalues --    0.65593   0.65891   0.66154   0.66588   0.66820
 Alpha virt. eigenvalues --    0.67323   0.67451   0.67754   0.68581   0.69452
 Alpha virt. eigenvalues --    0.69758   0.70182   0.70450   0.71479   0.71983
 Alpha virt. eigenvalues --    0.72876   0.73496   0.73549   0.74256   0.74582
 Alpha virt. eigenvalues --    0.75228   0.75902   0.76136   0.76372   0.77194
 Alpha virt. eigenvalues --    0.77665   0.78684   0.79685   0.80252   0.80702
 Alpha virt. eigenvalues --    0.82890   0.83597   0.83940   0.86177   0.87091
 Alpha virt. eigenvalues --    0.88087   0.89752   0.91102   0.94177   0.95995
 Alpha virt. eigenvalues --    0.99366   1.03900   1.04638   1.05443   1.06777
 Alpha virt. eigenvalues --    1.08177   1.10369   1.13972   1.14849   1.15195
 Alpha virt. eigenvalues --    1.16197   1.17226   1.18439   1.19432   1.20418
 Alpha virt. eigenvalues --    1.20967   1.22199   1.23993   1.24252   1.26264
 Alpha virt. eigenvalues --    1.27091   1.27228   1.29386   1.30507   1.32026
 Alpha virt. eigenvalues --    1.33206   1.33966   1.35207   1.36280   1.38342
 Alpha virt. eigenvalues --    1.39402   1.40752   1.43588   1.46621   1.48596
 Alpha virt. eigenvalues --    1.51401   1.52520   1.53682   1.55796   1.57429
 Alpha virt. eigenvalues --    1.57897   1.58949   1.59857   1.61949   1.64976
 Alpha virt. eigenvalues --    1.66755   1.67278   1.67905   1.68564   1.69579
 Alpha virt. eigenvalues --    1.71153   1.71973   1.72721   1.73167   1.74574
 Alpha virt. eigenvalues --    1.75062   1.76074   1.77402   1.78037   1.78215
 Alpha virt. eigenvalues --    1.79028   1.79803   1.80595   1.80816   1.81178
 Alpha virt. eigenvalues --    1.81733   1.83368   1.84168   1.84962   1.85609
 Alpha virt. eigenvalues --    1.86430   1.87211   1.88096   1.88781   1.91347
 Alpha virt. eigenvalues --    1.92157   1.92303   1.92997   1.93315   1.94338
 Alpha virt. eigenvalues --    1.94955   1.95797   1.96320   1.97286   1.98428
 Alpha virt. eigenvalues --    1.98937   1.99409   1.99993   2.02209   2.04335
 Alpha virt. eigenvalues --    2.05414   2.06113   2.07819   2.08542   2.11018
 Alpha virt. eigenvalues --    2.11405   2.13440   2.13926   2.17322   2.18543
 Alpha virt. eigenvalues --    2.19639   2.19789   2.21330   2.21722   2.22836
 Alpha virt. eigenvalues --    2.24517   2.24977   2.27983   2.29821   2.30499
 Alpha virt. eigenvalues --    2.31297   2.31614   2.34986   2.37547   2.40876
 Alpha virt. eigenvalues --    2.41902   2.42349   2.42503   2.44126   2.44386
 Alpha virt. eigenvalues --    2.45385   2.47263   2.48840   2.50232   2.51270
 Alpha virt. eigenvalues --    2.54575   2.55320   2.57495   2.59271   2.60494
 Alpha virt. eigenvalues --    2.63920   2.64479   2.65024   2.66396   2.66740
 Alpha virt. eigenvalues --    2.68104   2.69208   2.73539   2.74175   2.75360
 Alpha virt. eigenvalues --    2.75664   2.77394   2.79822   2.83170   2.85719
 Alpha virt. eigenvalues --    2.87362   2.89374   2.89710   2.90508   2.92432
 Alpha virt. eigenvalues --    2.93219   2.94074   2.95844   2.96278   2.97376
 Alpha virt. eigenvalues --    2.99715   3.00148   3.01983   3.05346   3.06685
 Alpha virt. eigenvalues --    3.07029   3.09141   3.11408   3.15261   3.15767
 Alpha virt. eigenvalues --    3.16986   3.20565   3.31592   3.33889   3.43191
 Alpha virt. eigenvalues --    3.57466   3.67300   3.68821
     Molecular Orbital Coefficients:
                          64        65        66        67        68
                           O         O         O         O         O
     Eigenvalues --    -0.27723  -0.27226  -0.26198  -0.23955  -0.23560
   1 1   C  1S         -0.00697   0.00019  -0.00039   0.00623   0.00194
   2        2S          0.01658  -0.00033   0.00090  -0.01704  -0.00564
   3        3S         -0.00553   0.00161   0.00680   0.01396  -0.03483
   4        4PX        -0.03226  -0.00398   0.01890   0.02507   0.03754
   5        4PY         0.01421  -0.00016  -0.00932  -0.00215  -0.00255
   6        4PZ         0.00701  -0.00260   0.00749  -0.00188   0.00493
   7        5PX        -0.01053  -0.00487   0.01978   0.00275   0.04766
   8        5PY         0.00211   0.00094  -0.01018   0.00882  -0.00496
   9        5PZ         0.01446  -0.00170   0.00471  -0.01132  -0.00331
  10        6D 0        0.00012   0.00017  -0.00080  -0.00001  -0.00086
  11        6D+1       -0.00060  -0.00070   0.00274   0.00102   0.00404
  12        6D-1       -0.00002  -0.00005   0.00014   0.00042   0.00011
  13        6D+2        0.00169  -0.00036   0.00124  -0.00054   0.00172
  14        6D-2        0.00035  -0.00043   0.00170   0.00032   0.00252
  15 2   C  1S         -0.00368   0.00307  -0.01314   0.00317  -0.02399
  16        2S          0.00979  -0.00650   0.03341  -0.00844   0.05090
  17        3S          0.03059  -0.02194   0.05835  -0.04559   0.20256
  18        4PX         0.01582   0.01247  -0.05230  -0.01182  -0.08746
  19        4PY        -0.03404   0.01322  -0.04757   0.01351  -0.06648
  20        4PZ        -0.01097   0.01866  -0.07087   0.00531  -0.10232
  21        5PX         0.02659   0.00721  -0.02992  -0.02484  -0.05250
  22        5PY         0.00680   0.00796  -0.01358  -0.02740  -0.08254
  23        5PZ        -0.05498   0.01270  -0.04487   0.04721  -0.07888
  24        6D 0        0.00055  -0.00002  -0.00030   0.00014   0.00006
  25        6D+1        0.00113  -0.00076   0.00278  -0.00109   0.00337
  26        6D-1       -0.00018  -0.00070   0.00257   0.00103   0.00389
  27        6D+2        0.00425  -0.00022  -0.00014  -0.00353  -0.00098
  28        6D-2       -0.00136  -0.00051   0.00186   0.00100   0.00336
  29 3   C  1S         -0.02020   0.00194  -0.00005   0.02549  -0.00389
  30        2S          0.04702  -0.00515  -0.00043  -0.06334   0.01684
  31        3S          0.05661  -0.00207   0.02436  -0.08366  -0.04998
  32        4PX        -0.09129   0.00011   0.02080   0.11552   0.01642
  33        4PY         0.08607  -0.01288   0.03247  -0.06865   0.03782
  34        4PZ        -0.01319  -0.02092   0.08580   0.00925   0.11701
  35        5PX        -0.04131   0.00459  -0.01505   0.05879  -0.04345
  36        5PY        -0.01167  -0.00334   0.00817   0.03086   0.00961
  37        5PZ        -0.00654  -0.00798   0.02887  -0.00317   0.00442
  38        6D 0        0.00058   0.00033  -0.00127  -0.00028  -0.00321
  39        6D+1       -0.00280  -0.00200   0.00838   0.00357   0.01906
  40        6D-1       -0.00047  -0.00085   0.00509   0.00019   0.00406
  41        6D+2        0.01521  -0.00119   0.00101  -0.01387   0.00369
  42        6D-2        0.00899  -0.00099   0.00162  -0.01015   0.00409
  43 4   H  1S          0.04302   0.01588  -0.07928  -0.03703  -0.12290
  44        2S          0.01082   0.01022  -0.04944  -0.01121  -0.08677
  45        3PX        -0.00127  -0.00017   0.00123   0.00182   0.00078
  46        3PY         0.00150  -0.00056   0.00169  -0.00169   0.00334
  47        3PZ         0.00168   0.00022  -0.00139  -0.00132  -0.00187
  48 5   C  1S          0.02799  -0.00143   0.00075  -0.02229   0.00230
  49        2S         -0.06802   0.00348  -0.00194   0.05509  -0.00686
  50        3S         -0.12327   0.00523  -0.01833   0.12545   0.00998
  51        4PX         0.02767   0.00269  -0.01495  -0.00109  -0.01072
  52        4PY        -0.12994   0.01277  -0.02022   0.10991  -0.02967
  53        4PZ         0.00852   0.01161  -0.09022  -0.00909  -0.05175
  54        5PX         0.00093   0.00133   0.00922   0.02143  -0.00067
  55        5PY        -0.10972   0.00874  -0.01063   0.10773  -0.01389
  56        5PZ         0.00568   0.00577  -0.01452  -0.00844  -0.00806
  57        6D 0        0.00218  -0.00089   0.00786  -0.00148   0.00488
  58        6D+1        0.00228   0.00111  -0.01265  -0.00139  -0.00641
  59        6D-1       -0.00145  -0.00099   0.00515   0.00156   0.00487
  60        6D+2       -0.00237   0.00023  -0.00262   0.00294  -0.00152
  61        6D-2       -0.00244   0.00031  -0.00210   0.00285  -0.00154
  62 6   O  1S         -0.00687   0.00118   0.00185   0.01438  -0.00201
  63        2S         -0.01421   0.00255   0.00356   0.03306  -0.00379
  64        3S         -0.07469   0.00640   0.00826   0.07345  -0.01678
  65        4PX        -0.00633  -0.00824   0.05886  -0.01181   0.04063
  66        4PY        -0.12501  -0.00269   0.06830   0.11764   0.03420
  67        4PZ         0.02040  -0.03422   0.30101  -0.02242   0.21096
  68        5PX         0.00600  -0.00684   0.05047  -0.00967   0.03119
  69        5PY        -0.10113  -0.00221   0.05286   0.09243   0.02629
  70        5PZ         0.01607  -0.03049   0.23926  -0.01821   0.18363
  71        6D 0        0.00096   0.00010  -0.00281  -0.00043  -0.00105
  72        6D+1        0.00086   0.00018   0.00165  -0.00052   0.00072
  73        6D-1        0.00138  -0.00035   0.00609  -0.00158   0.00205
  74        6D+2        0.00050   0.00005  -0.00114  -0.00167  -0.00009
  75        6D-2       -0.00360   0.00007   0.00184   0.00331   0.00030
  76 7   C  1S         -0.03215   0.00220   0.00211   0.03862  -0.00186
  77        2S          0.08521  -0.00580  -0.00527  -0.09718   0.00489
  78        3S         -0.13689   0.00465   0.01322   0.04652   0.00324
  79        4PX         0.06811   0.00150  -0.02096  -0.01431  -0.02274
  80        4PY         0.07469   0.00157  -0.02493  -0.04629  -0.02851
  81        4PZ        -0.02106   0.02866  -0.12375   0.00684  -0.16274
  82        5PX         0.13128  -0.00610  -0.00211  -0.10475   0.01379
  83        5PY        -0.10989   0.00719  -0.01002   0.01509  -0.01566
  84        5PZ        -0.00060   0.01356  -0.06227   0.00798  -0.12308
  85        6D 0        0.00213  -0.00145   0.00269  -0.00152   0.01197
  86        6D+1       -0.00433   0.00015   0.01213   0.00318  -0.01344
  87        6D-1        0.00131   0.00455  -0.01877  -0.00185  -0.02667
  88        6D+2        0.01640  -0.00195   0.00530  -0.01740   0.00453
  89        6D-2        0.01460   0.00000  -0.00244  -0.01576  -0.00500
  90 8   N  1S         -0.06646   0.00357   0.00383   0.07680  -0.00259
  91        2S         -0.13694   0.00689   0.01138   0.16102  -0.00141
  92        3S         -0.14355   0.01276  -0.02103   0.23447  -0.04897
  93        4PX        -0.14584   0.00340   0.02214   0.15475   0.03182
  94        4PY         0.33458  -0.02336   0.00568  -0.31110   0.07516
  95        4PZ        -0.03562  -0.03563   0.15079   0.04398   0.34023
  96        5PX         0.07638   0.00132  -0.02577  -0.08175  -0.03765
  97        5PY        -0.23968   0.01686  -0.00045   0.20016  -0.04654
  98        5PZ         0.03264   0.02913  -0.11334  -0.03278  -0.26452
  99        6D 0       -0.00830   0.00133  -0.00289   0.00914  -0.00641
 100        6D+1        0.00022  -0.00094   0.00373  -0.00030   0.00270
 101        6D-1       -0.00417  -0.00189   0.00875   0.00369   0.01747
 102        6D+2       -0.01072   0.00077  -0.00034   0.00761  -0.00316
 103        6D-2       -0.00582  -0.00022   0.00269   0.01032   0.00243
 104 9   N  1S         -0.05731   0.00257  -0.00522  -0.07929   0.00627
 105        2S         -0.11999   0.00540  -0.01127  -0.17017   0.01385
 106        3S         -0.09579   0.00604  -0.01064  -0.19626   0.01455
 107        4PX         0.30349  -0.00526  -0.02307   0.37610  -0.00284
 108        4PY         0.06695   0.00435  -0.02292   0.06899   0.01001
 109        4PZ        -0.07530   0.02812  -0.19512  -0.07562   0.10460
 110        5PX        -0.22493   0.00464   0.01745  -0.25162  -0.00152
 111        5PY        -0.05381  -0.00109   0.01584  -0.03424  -0.00846
 112        5PZ         0.05695  -0.01755   0.13914   0.04892  -0.08444
 113        6D 0       -0.00706   0.00196   0.00311  -0.01010   0.00000
 114        6D+1       -0.00479   0.00403  -0.00893  -0.00605   0.00453
 115        6D-1       -0.00284  -0.01356   0.00007  -0.00190  -0.00446
 116        6D+2        0.00469   0.00259  -0.00145   0.01077   0.00072
 117        6D-2        0.00403  -0.00260  -0.00110   0.00187  -0.00060
 118 10  C  1S         -0.02092   0.00099  -0.00154  -0.02282   0.00092
 119        2S          0.05391  -0.00291   0.00461   0.06004  -0.00101
 120        3S         -0.08777   0.01070  -0.01063  -0.08846  -0.01285
 121        4PX         0.10220   0.04847   0.01084   0.09659   0.01670
 122        4PY         0.08445   0.03751   0.01077   0.07361   0.00683
 123        4PZ        -0.02188   0.25246   0.03349  -0.03056   0.09258
 124        5PX        -0.10576   0.03884  -0.00075  -0.06150   0.01522
 125        5PY         0.03229   0.02203   0.01239   0.11791   0.00650
 126        5PZ         0.02468   0.16367   0.03683  -0.00605   0.04345
 127        6D 0       -0.00102   0.00399  -0.00228  -0.00194   0.00213
 128        6D+1        0.00414  -0.00854  -0.00452   0.00565   0.00217
 129        6D-1        0.00066  -0.00265   0.01445  -0.00061  -0.01025
 130        6D+2       -0.01363  -0.00117  -0.00319  -0.01563   0.00254
 131        6D-2       -0.01291  -0.00092   0.00172  -0.01557  -0.00069
 132 11  C  1S         -0.02630   0.00214  -0.00197  -0.00916   0.00022
 133        2S          0.06119  -0.00526   0.00502   0.02359  -0.00086
 134        3S          0.22445  -0.02013   0.01712   0.05580   0.03825
 135        4PX        -0.00132   0.00213  -0.03593  -0.07341   0.03747
 136        4PY         0.05579  -0.00303  -0.02690   0.04470   0.02386
 137        4PZ        -0.00806   0.01511  -0.21986   0.02895   0.18240
 138        5PX         0.07994   0.00054  -0.03376  -0.19311   0.03886
 139        5PY         0.18978  -0.00720  -0.01376   0.09605   0.01060
 140        5PZ        -0.03930   0.01613  -0.16764   0.03900   0.14068
 141        6D 0        0.00036  -0.00316  -0.00009   0.00018   0.00419
 142        6D+1        0.00083  -0.00231  -0.00388   0.00121  -0.00898
 143        6D-1        0.00081   0.01626   0.00444  -0.00132  -0.00536
 144        6D+2       -0.00275  -0.00283  -0.00145  -0.00626  -0.00061
 145        6D-2       -0.00055   0.00308   0.00010  -0.00211  -0.00273
 146 12  C  1S          0.00753  -0.00090  -0.00025  -0.00222  -0.00015
 147        2S         -0.01012   0.00182  -0.00006   0.00512   0.00002
 148        3S          0.06811   0.00011   0.00886  -0.02150  -0.00306
 149        4PX        -0.00319  -0.04347  -0.01922   0.02978   0.02615
 150        4PY        -0.01183  -0.02759  -0.01817   0.00201   0.01557
 151        4PZ        -0.00919  -0.22978  -0.11271   0.01201   0.13705
 152        5PX        -0.00214  -0.02992  -0.01102   0.08467   0.01464
 153        5PY         0.05304  -0.02016  -0.01336  -0.02054   0.00529
 154        5PZ        -0.01519  -0.16316  -0.06529   0.00030   0.12649
 155        6D 0       -0.00024  -0.00362   0.00450  -0.00036  -0.00438
 156        6D+1        0.00043   0.00935  -0.00668   0.00137   0.00664
 157        6D-1       -0.00002   0.00107  -0.00848   0.00102   0.00834
 158        6D+2       -0.00009   0.00179  -0.00013  -0.00235   0.00029
 159        6D-2       -0.00022   0.00153  -0.00243  -0.00201   0.00246
 160 13  C  1S         -0.00473   0.00012   0.00004   0.00142   0.00006
 161        2S          0.01195  -0.00019   0.00022  -0.00154  -0.00005
 162        3S         -0.03024   0.00045  -0.00599   0.04287  -0.00448
 163        4PX        -0.00644  -0.04916   0.02153  -0.03111  -0.02245
 164        4PY         0.00537  -0.03131   0.01489   0.00130  -0.01406
 165        4PZ        -0.01107  -0.24616   0.11301  -0.00344  -0.11549
 166        5PX         0.00917  -0.03414   0.01426   0.01387  -0.02562
 167        5PY        -0.02319  -0.02208   0.00837   0.00337  -0.00885
 168        5PZ        -0.00690  -0.17430   0.07793  -0.01059  -0.09509
 169        6D 0        0.00040   0.00341   0.00201  -0.00039  -0.00246
 170        6D+1        0.00021  -0.00817  -0.00891   0.00162   0.01038
 171        6D-1       -0.00017  -0.00249   0.00608  -0.00089  -0.00603
 172        6D+2       -0.00197  -0.00129  -0.00270  -0.00171   0.00303
 173        6D-2       -0.00067  -0.00160  -0.00017  -0.00003   0.00008
 174 14  C  1S         -0.01204  -0.00004  -0.00118  -0.01266   0.00070
 175        2S          0.03078   0.00014   0.00294   0.03277  -0.00202
 176        3S          0.07173   0.00036   0.00662   0.03476  -0.00726
 177        4PX         0.03257  -0.00374   0.04199   0.02746  -0.04273
 178        4PY         0.04066  -0.00176   0.02515   0.03327  -0.02750
 179        4PZ        -0.01239  -0.01293   0.18727  -0.03220  -0.19721
 180        5PX         0.03066  -0.00177   0.03175   0.01265  -0.03527
 181        5PY         0.00798  -0.00155   0.01776   0.00659  -0.01752
 182        5PZ        -0.00782  -0.00717   0.13570  -0.02062  -0.15260
 183        6D 0       -0.00018  -0.00257  -0.00128   0.00002   0.00061
 184        6D+1        0.00102  -0.00389   0.00484   0.00097  -0.00379
 185        6D-1        0.00092   0.01728  -0.00246   0.00018   0.00365
 186        6D+2       -0.00394  -0.00267   0.00108  -0.00482  -0.00101
 187        6D-2       -0.00272   0.00340   0.00007  -0.00294   0.00033
 188 15  C  1S          0.01685  -0.00080  -0.00006   0.02106  -0.00059
 189        2S         -0.04739   0.00236   0.00016  -0.05483   0.00096
 190        3S         -0.08207   0.00126  -0.00169  -0.04014   0.00739
 191        4PX        -0.11220   0.06161   0.00595  -0.12379   0.00388
 192        4PY        -0.02238   0.03285   0.00426  -0.02522   0.00071
 193        4PZ         0.03913   0.26193   0.04444   0.02404  -0.00715
 194        5PX        -0.09750   0.04169   0.00160  -0.09872   0.01502
 195        5PY         0.01457   0.02290   0.00602   0.00676  -0.00259
 196        5PZ         0.02750   0.18467   0.02972   0.01705   0.00757
 197        6D 0       -0.00049  -0.00340   0.00145  -0.00073  -0.00388
 198        6D+1        0.00076   0.00688   0.00303   0.00026   0.00366
 199        6D-1       -0.00098   0.00281  -0.01189   0.00033   0.01070
 200        6D+2       -0.00436   0.00122   0.00182  -0.00397  -0.00019
 201        6D-2        0.00232   0.00192  -0.00192   0.00184   0.00260
 202 16  C  1S         -0.00283   0.00054   0.00020  -0.00198  -0.00017
 203        2S          0.00554  -0.00148  -0.00038   0.00408   0.00073
 204        3S         -0.05946  -0.00000  -0.00914  -0.08176   0.00896
 205        4PX         0.03207   0.00502  -0.03808   0.02659   0.02133
 206        4PY         0.01129   0.00488  -0.01999   0.00521   0.01119
 207        4PZ        -0.00480   0.03267  -0.17935   0.01329   0.10234
 208        5PX        -0.00076   0.00557  -0.02929  -0.00688   0.01575
 209        5PY         0.00213   0.00426  -0.01450  -0.00238   0.00504
 210        5PZ         0.00239   0.02652  -0.12366   0.01553   0.06913
 211        6D 0       -0.00006   0.00202   0.00284  -0.00029  -0.00138
 212        6D+1        0.00179   0.00385  -0.00222   0.00178   0.00149
 213        6D-1       -0.00075  -0.01595  -0.00877   0.00079   0.00358
 214        6D+2       -0.00580   0.00293   0.00019  -0.00596   0.00024
 215        6D-2       -0.00274  -0.00303  -0.00257  -0.00233   0.00123
 216 17  C  1S          0.01996  -0.00017   0.00173   0.02495  -0.00179
 217        2S         -0.05224   0.00032  -0.00465  -0.06627   0.00488
 218        3S         -0.05273   0.00127  -0.00099  -0.08341   0.00672
 219        4PX        -0.11702  -0.04350  -0.04782  -0.11777   0.02250
 220        4PY        -0.01539  -0.02410  -0.02088  -0.01018   0.00792
 221        4PZ         0.02005  -0.20816  -0.17310   0.04446   0.06005
 222        5PX        -0.07329  -0.03157  -0.03491  -0.08739   0.01781
 223        5PY        -0.05307  -0.01653  -0.02095  -0.06532   0.01017
 224        5PZ         0.01732  -0.15181  -0.13375   0.04153   0.05433
 225        6D 0       -0.00052   0.00443  -0.00317  -0.00070   0.00284
 226        6D+1        0.00012  -0.00941   0.00350  -0.00023  -0.00409
 227        6D-1       -0.00005  -0.00136   0.00774  -0.00041  -0.00478
 228        6D+2       -0.00268  -0.00202  -0.00021  -0.00163  -0.00034
 229        6D-2       -0.00243  -0.00138   0.00194  -0.00381  -0.00134
 230 18  C  1S         -0.01826   0.00104  -0.00146  -0.02591   0.00186
 231        2S          0.04302  -0.00272   0.00380   0.06614  -0.00452
 232        3S          0.01776  -0.00282  -0.00101   0.03015  -0.00186
 233        4PX         0.10882  -0.06201   0.02075   0.11499  -0.02762
 234        4PY        -0.01131  -0.02638   0.00372  -0.04072  -0.00610
 235        4PZ        -0.03699  -0.24179   0.05254  -0.03381  -0.08068
 236        5PX        -0.02196  -0.03865   0.01199  -0.04944  -0.01411
 237        5PY         0.03497  -0.01971   0.00848   0.01543  -0.00772
 238        5PZ        -0.00868  -0.16396   0.05383  -0.00158  -0.06928
 239        6D 0       -0.00161  -0.00338  -0.00385  -0.00110   0.00167
 240        6D+1        0.00387   0.00642   0.01310   0.00360  -0.00611
 241        6D-1       -0.00303   0.00285  -0.00799  -0.00321   0.00439
 242        6D+2       -0.01937   0.00177   0.00275  -0.02502  -0.00026
 243        6D-2        0.00268   0.00154   0.00001   0.00364  -0.00001
 244 19  C  1S         -0.00043  -0.00027   0.00106  -0.00021  -0.00034
 245        2S         -0.00140   0.00080  -0.00332   0.00019   0.00254
 246        3S          0.05795   0.00133  -0.00599  -0.03690  -0.03914
 247        4PX        -0.01381   0.00427  -0.00866   0.00677  -0.02549
 248        4PY         0.01209  -0.00195   0.00033  -0.00538   0.00771
 249        4PZ         0.00214  -0.00840   0.03087  -0.00256   0.03588
 250        5PX        -0.00899   0.00585  -0.01550  -0.00459  -0.03127
 251        5PY         0.01306  -0.00255  -0.00032  -0.00586   0.01289
 252        5PZ        -0.01018  -0.00781   0.01835   0.00646   0.05049
 253        6D 0        0.00049  -0.00037   0.00178  -0.00050   0.00244
 254        6D+1       -0.00061  -0.00037   0.00146   0.00010   0.00163
 255        6D-1        0.00105  -0.00055   0.00189  -0.00072   0.00232
 256        6D+2        0.00163  -0.00019   0.00024  -0.00084  -0.00016
 257        6D-2       -0.00025   0.00012  -0.00039  -0.00013  -0.00077
 258 20  C  1S          0.00098  -0.00052   0.00172   0.00033   0.00008
 259        2S         -0.00500   0.00090  -0.00253  -0.00370  -0.00058
 260        3S          0.00486   0.00626  -0.02828   0.04875   0.00268
 261        4PX        -0.04768   0.00014   0.00967   0.02815   0.00013
 262        4PY         0.04045  -0.00795   0.02242  -0.02192   0.02541
 263        4PZ         0.00501  -0.00279   0.00861  -0.00164   0.00846
 264        5PX        -0.04102  -0.00066   0.00546   0.00819  -0.00323
 265        5PY         0.05497  -0.00722   0.02322  -0.03900   0.02656
 266        5PZ         0.02144  -0.00182   0.00127  -0.00976   0.01075
 267        6D 0       -0.00037   0.00008  -0.00027  -0.00017  -0.00067
 268        6D+1       -0.00146  -0.00013   0.00078   0.00087   0.00042
 269        6D-1        0.00059  -0.00067   0.00258  -0.00010   0.00324
 270        6D+2        0.00160   0.00001  -0.00021  -0.00026  -0.00086
 271        6D-2       -0.00179  -0.00041   0.00212   0.00099   0.00236
 272 21  H  1S         -0.01260   0.00107   0.00269  -0.00020  -0.00496
 273        2S         -0.01264   0.00359  -0.01641   0.00705  -0.01584
 274        3PX        -0.00094  -0.00023   0.00125   0.00082   0.00160
 275        3PY        -0.00021  -0.00011   0.00083  -0.00014   0.00061
 276        3PZ         0.00012  -0.00012   0.00036  -0.00006   0.00054
 277 22  H  1S         -0.00050  -0.00614   0.01931   0.00814   0.03390
 278        2S         -0.00466  -0.00468   0.01520   0.01001   0.03191
 279        3PX        -0.00086   0.00002   0.00028   0.00069   0.00027
 280        3PY         0.00049   0.00010  -0.00051  -0.00042  -0.00078
 281        3PZ         0.00000   0.00012  -0.00018  -0.00013  -0.00082
 282 23  H  1S         -0.00363   0.00259  -0.01025   0.00034  -0.00803
 283        2S          0.00634   0.00277  -0.01249  -0.00777  -0.01945
 284        3PX        -0.00076  -0.00017   0.00073   0.00076   0.00140
 285        3PY         0.00040  -0.00009   0.00000  -0.00022   0.00032
 286        3PZ         0.00003  -0.00011   0.00031  -0.00006   0.00085
 287 24  H  1S          0.04463   0.00972  -0.09512  -0.03080  -0.05715
 288        2S          0.04385   0.00490  -0.06816  -0.04243  -0.04525
 289        3PX        -0.00111   0.00007   0.00041   0.00110  -0.00016
 290        3PY        -0.00261   0.00057  -0.00327   0.00260  -0.00231
 291        3PZ        -0.00177   0.00004   0.00064   0.00116   0.00017
 292 25  H  1S          0.02147  -0.01742   0.11987  -0.01616   0.08139
 293        2S          0.02384  -0.00920   0.08350  -0.02254   0.05419
 294        3PX         0.00058   0.00002  -0.00011  -0.00017  -0.00007
 295        3PY        -0.00248  -0.00003   0.00286   0.00224   0.00075
 296        3PZ         0.00170  -0.00036   0.00178  -0.00137   0.00119
 297 26  H  1S          0.00714  -0.00111   0.00062   0.02075   0.00115
 298        2S          0.02823   0.00003  -0.00638  -0.02016  -0.00372
 299        3PX         0.00012  -0.00129  -0.00102  -0.00120   0.00086
 300        3PY        -0.00034  -0.00095  -0.00042   0.00024   0.00066
 301        3PZ        -0.00024  -0.00741  -0.00277   0.00071   0.00494
 302 27  H  1S          0.00199   0.00020  -0.00063   0.01051  -0.00113
 303        2S         -0.00210   0.00022  -0.00016   0.00867   0.00006
 304        3PX        -0.00030  -0.00166   0.00081  -0.00106  -0.00064
 305        3PY         0.00024  -0.00103   0.00050   0.00038  -0.00056
 306        3PZ        -0.00037  -0.00819   0.00398  -0.00017  -0.00385
 307 28  H  1S         -0.03874   0.00191  -0.00253  -0.04235   0.00211
 308        2S         -0.03511   0.00145  -0.00224  -0.04334   0.00202
 309        3PX        -0.00078  -0.00005   0.00121  -0.00073  -0.00137
 310        3PY         0.00105  -0.00004   0.00077   0.00076  -0.00096
 311        3PZ         0.00002  -0.00036   0.00606  -0.00070  -0.00688
 312 29  H  1S         -0.04940   0.00185  -0.00252  -0.04353   0.00243
 313        2S         -0.03518   0.00180  -0.00174  -0.03525   0.00093
 314        3PX        -0.00096   0.00025  -0.00134  -0.00044   0.00080
 315        3PY         0.00051   0.00015  -0.00063   0.00049   0.00041
 316        3PZ         0.00027   0.00100  -0.00591   0.00073   0.00350
 317 30  H  1S          0.04633  -0.00196   0.00430   0.05342  -0.00416
 318        2S          0.04745  -0.00178   0.00442   0.06383  -0.00484
 319        3PX        -0.00107  -0.00151  -0.00134  -0.00100   0.00053
 320        3PY        -0.00191  -0.00076  -0.00082  -0.00179   0.00039
 321        3PZ         0.00019  -0.00685  -0.00561   0.00099   0.00185
 322 31  H  1S          0.09855  -0.00214   0.00527   0.10187  -0.00622
 323        2S          0.04935  -0.00037   0.00298   0.07376  -0.00518
 324        3PX         0.00085  -0.00186   0.00042   0.00140  -0.00071
 325        3PY        -0.00316  -0.00081  -0.00003  -0.00298  -0.00012
 326        3PZ        -0.00021  -0.00759   0.00128  -0.00031  -0.00260
 327 32  H  1S         -0.01500   0.00297  -0.00652   0.00726  -0.01204
 328        2S         -0.01108  -0.00084   0.00631   0.00622   0.00648
 329        3PX        -0.00047   0.00010  -0.00049   0.00068  -0.00070
 330        3PY        -0.00037  -0.00019   0.00117   0.00023   0.00080
 331        3PZ        -0.00003  -0.00020   0.00112   0.00012   0.00082
 332 33  H  1S          0.01414  -0.00208  -0.00122  -0.00636   0.00819
 333        2S         -0.01238   0.00749  -0.01775   0.00191  -0.02931
 334        3PX         0.00046  -0.00034   0.00132  -0.00057   0.00256
 335        3PY        -0.00017  -0.00009   0.00044   0.00052   0.00033
 336        3PZ         0.00098  -0.00066   0.00250  -0.00089   0.00399
[...]
 0.00000952,-0.00107707,0.00000969,0.00003702,0.00002091,-0.00003032,-0
 .00001561,0.00000513,0.00014294,-0.00002271,0.00003216,-0.00001836,0.0
 0003615,0.00002607,0.00001890,0.00000666,-0.00000219,-0.00000103,-0.00
 001300,-0.00000006,-0.00001171,0.00001117,0.00000508,-0.00000218,-0.00
 000683,-0.00000027,-0.00000184,0.00001251,-0.00000963,0.00001995,-0.00
 002261,0.00000800,-0.27801305,-0.09312551,0.03745986,0.00027661,-0.001
 08592,-0.00048403,0.00009928,-0.00010838,-0.00006695,0.00040398,0.0000
 1153,-0.00008611,-0.00076184,-0.00049444,0.00027007,-0.00004567,0.0000
 5176,0.00005260,0.00000057,-0.00001554,-0.00000145,-0.00000262,-0.0000
 0440,0.00000035,0.00000112,0.00000013,0.00000086,0.00000068,-0.0000001
 4,0.00000153,0.00000066,0.00000126,0.00000136,0.00000288,0.00000141,0.
 00000165,0.00000496,0.00001305,0.00000780,0.00455394,0.00276334,-0.000
 94512,0.29852326,0.00114897,-0.00123640,-0.00229668,0.01398682,0.00451
 698,-0.00040162,-0.00062268,0.00044020,0.00031975,0.00010466,-0.000032
 03,0.00012725,-0.00050210,-0.00047014,0.00022796,0.00009697,-0.0006520
 8,-0.00000178,-0.00009650,0.00050774,-0.00015464,0.00010866,-0.0000649
 4,-0.00013348,0.00007658,-0.00000399,0.00010486,0.00001050,0.00013646,
 -0.00006477,0.00005776,0.00003686,0.00010728,0.00001931,-0.00005022,-0
 .00001537,0.00000721,-0.00002278,-0.00001270,-0.00000011,0.00000901,-0
 .00000373,-0.00000913,-0.00002527,-0.00000388,0.00001820,0.00003494,-0
 .00000853,0.00002909,-0.00003992,-0.00000918,-0.00006161,-0.00002454,0
 .00001780,-0.09455522,-0.08503561,0.01558325,0.00132264,0.00123970,-0.
 00010467,0.00012973,0.00021288,-0.00018481,-0.00015544,-0.00014669,-0.
 00002902,0.00075269,0.00060824,-0.00047429,0.00005107,0.00019097,-0.00
 003191,0.00008209,0.00009126,0.00007658,-0.00000140,-0.00001013,0.0000
 2945,0.00000153,-0.00000091,0.00000734,0.00000168,-0.00000254,0.000002
 85,0.00000111,-0.00000061,0.00000332,0.00000139,-0.00000074,-0.0000004
 8,-0.00000630,-0.00001393,0.00000301,-0.02781626,-0.00871773,0.0033598
 5,0.09983016,0.08749034,0.00133489,-0.00307868,-0.00426153,0.02325518,
 0.01054199,-0.00329855,0.00091092,0.00076895,0.00095166,0.00000813,-0.
 00006326,0.00028440,0.00065203,0.00016979,-0.00034975,-0.00049711,-0.0
 0087310,0.00004413,-0.00136571,0.00153487,-0.00110652,0.00016675,-0.00
 030302,0.00053761,0.00008037,0.00015677,0.00000973,-0.00002058,-0.0001
 2086,-0.00000312,-0.00017820,0.00000178,0.00005747,-0.00000385,0.00005
 930,0.00003215,0.00002898,0.00006849,-0.00003940,0.00007327,-0.0000515
 8,-0.00000205,0.00002518,0.00001096,-0.00000098,-0.00000805,-0.0000114
 0,-0.00000208,0.00001036,0.00002125,-0.00001888,-0.00002110,-0.0000917
 1,0.00002928,0.03574460,0.01455187,-0.05050861,-0.00034315,0.00120927,
 0.00045224,-0.00030199,-0.00005722,0.00001679,0.00015220,-0.00011535,0
 .00018112,0.00174251,0.00032289,-0.00018682,-0.00000048,-0.00017785,0.
 00002853,-0.00009556,-0.00000928,0.00000784,-0.00002726,0.00001563,-0.
 00000582,0.00001831,-0.00000973,0.00000188,0.00001074,0.00000695,0.000
 00347,0.00001030,-0.00000032,0.00000205,0.00001276,0.00001243,0.000000
 07,-0.00000543,0.00002472,0.00000591,0.00428852,0.00129513,-0.00190103
 ,-0.04180206,-0.01484653,0.05408745,0.00126654,-0.00024932,0.00083367,
 0.00663803,-0.00256890,0.01304411,-0.00171545,0.00130103,0.00266805,0.
 00055685,-0.00004024,0.00072456,-0.00030820,0.00013018,0.00018201,0.00
 006814,-0.00008314,0.00005047,0.00056301,-0.00022233,0.00003047,-0.000
 02927,0.00007647,-0.00089015,-0.00003131,-0.00007659,-0.00000387,0.000
 02619,0.00007206,-0.00002341,0.00006621,0.00000594,0.00006008,0.000019
 76,-0.00004313,-0.00000730,-0.00001257,-0.00003532,0.00001031,-0.00002
 485,0.00002152,0.00000047,-0.00001432,-0.00001064,0.00000569,0.0000051
 3,0.00001139,-0.00000109,-0.00000148,-0.00001309,0.00001375,0.00001082
 ,0.00005671,-0.00001033,-0.12472977,0.02491840,-0.12425276,0.00045259,
 -0.00032892,0.00023242,-0.00006292,-0.00004474,0.00000290,-0.00012407,
 0.00017801,-0.00020863,0.00017698,-0.00001317,-0.00021203,-0.00003241,
 -0.00004246,-0.00011993,0.00000196,0.00000009,-0.00004093,0.00001671,-
 0.00001444,0.00000852,-0.00000775,0.00000499,-0.00000050,-0.00000653,-
 0.00000374,-0.00000082,-0.00000593,0.00000006,-0.00000179,-0.00000739,
 -0.00000712,-0.00000100,0.00000343,-0.00001409,-0.00000549,-0.00130307
 ,-0.00071650,0.00019452,-0.01302908,0.00634898,-0.02339885,0.13164500,
 -0.00036265,0.00002380,0.00051379,-0.00854770,0.00112781,-0.01241674,0
 .00155979,-0.00200015,-0.00218628,-0.00047803,0.00024545,-0.00081751,-
 0.00015247,-0.00012041,0.00019181,0.00015215,0.00060115,0.00024635,-0.
 00015117,-0.00103243,0.00006789,0.00025040,0.00034803,-0.00024016,0.00
 000176,-0.00000866,-0.00000017,0.00000236,-0.00001043,0.00001032,0.000
 07152,0.00005314,-0.00002675,-0.00001321,-0.00001385,0.00000663,-0.000
 00849,0.00000518,0.00000509,-0.00000804,0.00001077,-0.00000133,0.00001
 468,-0.00000046,-0.00000236,-0.00000002,0.00000316,-0.00000021,0.00000
 529,-0.00000735,0.00000191,-0.00001212,0.00001356,-0.00000087,0.025222
 17,-0.05172954,0.03923249,-0.00085900,0.00080897,-0.00082548,0.0001164
 8,-0.00004755,0.00012344,0.00000931,0.00027735,0.00019435,-0.00013477,
 -0.00012985,0.00000600,0.00016683,0.00041630,-0.00027708,0.00015091,0.
 00019268,0.00013877,-0.00001984,0.00000903,-0.00001114,-0.00000234,-0.
 00000063,0.00000027,0.00000210,0.00000144,-0.00000114,0.00000097,-0.00
 000038,-0.00000011,-0.00000191,-0.00000012,-0.00000035,-0.00000315,-0.
 00000645,-0.00000229,0.01686267,-0.00382175,0.02541248,-0.00579702,0.0
 0137457,-0.01056625,-0.02829305,0.05348829,-0.00151744,0.00039033,0.00
 081266,-0.01418044,0.00467676,-0.02114245,0.00373623,-0.00290878,-0.00
 280111,-0.00084600,0.00007379,-0.00146234,0.00023217,-0.00057021,0.000
 25381,-0.00014207,0.00025247,-0.00014947,0.00019990,-0.00017567,0.0002
 3350,0.00033399,0.00022734,0.00053914,-0.00002394,-0.00007455,0.000036
 63,-0.00002377,0.00007223,-0.00001693,0.00004699,0.00001708,-0.0000294
 3,-0.00003126,-0.00000087,0.00000258,-0.00000651,-0.00004271,0.0000131
 7,-0.00004520,0.00002460,0.00000100,-0.00001909,-0.00001076,0.00000216
 ,0.00000915,0.00001492,-0.00000224,0.00000566,-0.00001929,0.00000177,-
 0.00000613,0.00003327,-0.00000812,-0.12299959,0.03818541,-0.23191041,-
 0.00067973,0.00136902,0.00088067,0.00002076,-0.00002082,-0.00005155,0.
 00102956,0.00002216,0.00016134,0.00009231,-0.00013792,0.00046682,-0.00
 002644,0.00000977,0.00025927,-0.00000181,0.00006722,-0.00000865,0.0000
 2646,-0.00002005,-0.00000186,-0.00000979,0.00000515,-0.00000183,-0.000
 00494,-0.00000487,-0.00000002,-0.00000477,0.00000034,-0.00000009,-0.00
 000542,-0.00000599,0.00000027,0.00000123,-0.00001254,-0.00000050,-0.00
 108974,-0.00046064,-0.00279131,0.00383371,-0.00122234,0.00458160,0.131
 44377,-0.03906127,0.25151455,0.00034447,-0.00045605,-0.00075862,-0.003
 15070,0.00103395,0.00164465,0.00016112,0.00055178,0.00108814,0.0000712
 0,0.00020997,-0.00042920,0.00016688,0.00000693,-0.00011484,0.00004013,
 -0.00035203,0.00004273,-0.00013451,0.00009198,0.00006004,0.00014575,-0
 .00035801,-0.00038232,0.00004007,-0.00005493,-0.00008469,0.00001133,0.
 00003447,0.00000380,-0.00001057,-0.00002308,0.00000792,0.00001292,-0.0
 0000147,-0.00000743,0.00000006,-0.00000252,-0.00000425,0.00000551,0.00
 000053,-0.00000297,0.00001101,-0.00001233,0.00001112,0.00000687,0.0000
 0596,-0.00000643,0.00001536,-0.00001900,0.00000985,-0.00003006,0.00002
 439,0.00000601,0.00018107,0.00118414,-0.00064654,-0.07101412,0.0421947
 4,0.06995907,-0.00002952,0.00015387,0.00000994,0.00004568,-0.00002149,
 -0.00007258,0.00016749,-0.00014702,0.00019752,-0.00000417,-0.00010606,
 0.00001963,-0.00001840,0.00002268,-0.00001754,-0.00000187,0.00000282,0
 .00000734,0.00000303,-0.00000151,0.00000253,0.00000309,0.00000022,0.00
 000196,0.00000290,-0.00000217,0.00000091,0.00000148,0.00000272,0.00000
 213,-0.00002097,-0.00000930,0.00001597,0.00036547,0.00035477,0.0004398
 5,0.00036653,-0.00017230,-0.00020093,0.00000570,-0.00005796,0.00023346
 ,0.07184997,0.00118246,0.00111961,-0.00090816,0.01024930,-0.01358168,-
 0.02557969,0.00013256,0.00079035,-0.00227474,0.00006597,0.00012392,0.0
 0117978,-0.00035963,0.00002039,0.00012809,-0.00023467,0.00035029,0.000
 04394,0.00001796,-0.00012229,-0.00004068,-0.00006179,0.00005022,0.0003
 2726,-0.00001935,-0.00001650,-0.00000236,-0.00000331,-0.00000702,0.000
 00179,0.00000437,0.00000623,-0.00003758,-0.00001243,0.00000083,0.00000
 614,-0.00000280,-0.00000086,0.00001088,-0.00000775,0.00000289,0.000000
 68,-0.00000231,0.00000105,0.00000089,-0.00000132,-0.00000133,0.0000011
 2,-0.00000167,-0.00000182,0.00000186,0.00000612,0.00002230,-0.00000517
 ,-0.00023750,-0.00626959,0.00250820,0.04193320,-0.11217363,-0.10939333
 ,-0.00000125,0.00026034,0.00037385,-0.00000201,-0.00005277,0.00008818,
 -0.00074025,-0.00006885,0.00052121,0.00002458,0.00015475,-0.00009601,0
 .00003570,-0.00000825,0.00004158,0.00000417,-0.00000534,-0.00001206,-0
 .00000331,0.00000074,-0.00000236,-0.00000121,-0.00000055,-0.00000134,-
 0.00000073,-0.00000040,-0.00000067,-0.00000207,-0.00000071,0.00000014,
 -0.00000129,-0.00000090,0.00000215,0.00099318,-0.00098667,-0.00157655,
 0.00005191,0.00010838,0.00012943,-0.00025599,0.00013185,0.00014746,-0.
 04716099,0.12263376,-0.00024056,0.00021869,0.00022023,-0.00217009,0.00
 410308,0.00464431,-0.00099740,0.00124524,0.00081732,0.00039403,-0.0001
 7055,0.00022984,-0.00007071,-0.00010710,0.00028198,-0.00005789,-0.0000
 4214,-0.00006428,-0.00003917,0.00018662,-0.00002884,0.00028733,-0.0000
 9946,0.00016313,0.00001066,0.00005983,0.00003248,-0.00000145,-0.000034
 37,-0.00000166,-0.00002413,0.00000183,0.00001069,-0.00000181,0.0000077
 7,0.00000420,0.00000508,0.00002135,-0.00000487,0.00001599,-0.00001263,
 0.00000278,0.00000335,0.00000855,-0.00000709,-0.00000763,-0.00000874,0
 .00000554,-0.00000995,0.00001670,-0.00000501,0.00001038,-0.00004706,0.
 00000511,-0.00046076,0.00062784,0.00060215,0.07044801,-0.11103196,-0.2
 2875411,-0.00020224,-0.00005083,0.00014988,0.00012623,-0.00000892,-0.0
 0007287,-0.00025148,-0.00031849,0.00020947,0.00000187,0.00004684,0.000
 01712,0.00002237,-0.00006139,0.00003435,-0.00000774,0.00000523,-0.0000
 0402,0.00000268,-0.00000219,-0.00000187,0.00000121,0.00000154,-0.00000
 185,0.00000091,0.00000011,-0.00000137,0.00000344,0.00000142,-0.0000032
 3,0.00000800,0.00000816,-0.00000961,0.00001143,0.00022331,0.00033726,-
 0.00008547,0.00013710,-0.00005690,0.00006623,0.00027438,0.00031686,-0.
 07645474,0.11875360,0.24261107,0.00072497,-0.00109952,0.00119826,-0.00
 264987,-0.00108295,-0.00129098,0.00005646,0.00007184,0.00101099,-0.000
 01800,-0.00011142,-0.00013567,0.00004820,-0.00038609,-0.00016478,0.000
 04750,0.00061887,0.00004379,0.00050099,-0.00042195,-0.00004674,-0.0005
 1574,0.00050104,-0.00060920,-0.00009631,-0.00004681,-0.00002065,0.0000
 0426,-0.00001307,-0.00000296,0.00003884,0.00003102,-0.00000431,-0.0000
 1006,-0.00001195,-0.00000034,-0.00001318,-0.00003042,0.00001421,-0.000
 03405,0.00002001,0.00000049,-0.00002248,0.00000668,0.00000790,-0.00000
 412,0.00000456,0.00000103,-0.00000791,0.00000212,0.00000982,0.00004489
 ,0.00007256,-0.00001546,-0.00019009,-0.00034685,-0.00044310,-0.1610116
 3,0.02692499,-0.13323305,0.00004045,0.00011130,0.00021635,0.00046080,-
 0.00000252,-0.00014015,-0.00001806,0.00007307,0.00008001,0.00005107,0.
 00008591,0.00002839,-0.00001800,0.00009125,0.00001870,0.00001640,-0.00
 001190,-0.00000262,-0.00000904,0.00000578,-0.00000190,-0.00000764,-0.0
 0000235,-0.00000127,-0.00000678,0.00000237,-0.00000198,-0.00001157,-0.
 00000825,-0.00000023,0.00002153,-0.00000008,-0.00000719,0.00012884,-0.
 00003267,0.00029771,-0.00003233,-0.00001151,-0.00015390,0.00009024,0.0
 0048427,0.00042835,0.00719108,-0.00228097,0.00909174,0.17081652,0.0016
 3243,0.00137805,0.00075441,0.02041232,-0.00583677,0.02429470,-0.000486
 50,-0.00664995,-0.00029244,-0.00017066,0.00000509,0.00007919,0.0004969
 3,0.00050018,0.00165368,0.00055456,0.00000610,-0.00001474,-0.00002950,
 -0.00020442,-0.00003427,-0.00048932,0.00047093,-0.00042581,-0.00003806
 ,0.00006354,-0.00002930,0.00002035,-0.00009185,0.00002111,-0.00001458,
 0.00001697,-0.00000774,0.00002280,-0.00001199,-0.00000150,-0.00000062,
 0.00002825,-0.00000098,0.00002556,-0.00001199,-0.00000081,0.00000490,0
 .00001986,-0.00000172,-0.00001129,-0.00001427,0.00000377,-0.00001147,0
 .00002625,-0.00000081,0.00004072,0.00000479,-0.00000274,-0.00008205,0.
 00120027,0.00128300,0.02565950,-0.05036525,0.02785463,0.00011448,0.000
 33889,-0.00036407,-0.00075090,-0.00019183,-0.00045207,-0.00014855,-0.0
 0000907,-0.00004338,-0.00001767,0.00003528,-0.00009417,0.00010481,-0.0
 0045235,0.00016538,-0.00002507,0.00001731,-0.00000344,0.00000411,-0.00
 000146,0.00000087,0.00000030,0.00000364,-0.00000155,0.00000061,0.00000
 197,-0.00000079,-0.00000137,0.00000101,-0.00000030,0.00001539,0.000016
 61,-0.00000675,-0.00034574,0.00018574,-0.00012631,-0.00004879,-0.00003
 724,-0.00004447,-0.00006361,-0.00013155,-0.00073862,-0.01135793,0.0017
 7457,-0.01013594,-0.02821290,0.05676725,-0.00047313,-0.00092572,0.0002
 4788,-0.00296209,0.00018800,-0.00596328,0.00035785,0.00205381,0.000351
 91,0.00007708,-0.00010150,0.00053219,-0.00035944,-0.00049781,-0.000126
 63,-0.00039143,0.00036056,-0.00009306,0.00024980,-0.00006304,0.0000598
 6,0.00007374,0.00003490,0.00026458,-0.00002906,-0.00005187,0.00003911,
 -0.00000908,0.00004909,-0.00001271,0.00003247,0.00001012,-0.00000662,-
 0.00002027,-0.00000089,0.00000331,-0.00000667,-0.00003453,0.00000668,-
 0.00002966,0.00001722,0.00000032,-0.00001759,-0.00000818,-0.00000121,0
 .00000632,0.00000965,-0.00000152,0.00000191,-0.00000928,0.00000034,0.0
 0000479,0.00002997,-0.00000877,0.00058613,-0.00048010,0.00054936,-0.13
 250051,0.02916084,-0.19729298,0.00024750,-0.00018293,0.00028960,0.0005
 5355,0.00051387,0.00027446,-0.00008554,0.00005420,-0.00022003,0.000032
 07,0.00010564,0.00007590,-0.00001375,0.00011631,-0.00002562,0.00002267
 ,-0.00001892,0.00000155,-0.00000714,0.00000443,-0.00000074,-0.00000483
 ,-0.00000361,0.00000133,-0.00000434,0.00000107,0.00000017,-0.00000485,
 -0.00000502,0.00000062,0.00000447,-0.00000695,-0.00000350,0.00007193,0
 .00014402,0.00010059,0.00006466,-0.00002151,-0.00000863,-0.00018679,0.
 00003827,0.00034992,-0.01667733,0.00511656,-0.01539596,0.14477637,-0.0
 3376523,0.20888479,0.00069648,0.00006314,-0.00014635,0.00385315,0.0020
 5757,-0.00141787,0.00002800,-0.00052909,-0.00010711,-0.00002928,-0.000
 00819,-0.00007333,-0.00008145,0.00001706,0.00012755,0.00003074,0.00001
 940,-0.00001696,0.00007403,0.00021113,-0.00000502,-0.00071728,0.000760
 95,-0.00071325,0.00010226,0.00000122,0.00015756,0.00004078,0.00008257,
 -0.00000357,-0.00000074,-0.00001991,-0.00002134,-0.00001593,0.00000400
 ,0.00000510,0.00001054,0.00001751,-0.00000245,0.00001920,-0.00000953,-
 0.00000158,0.00001990,-0.00001961,-0.00001129,0.00000374,-0.00000416,0
 .00000393,0.00000406,0.00001534,-0.00003663,-0.00004596,-0.00017025,0.
 00002737,0.00077139,0.00076237,-0.00005878,-0.25920161,-0.09518885,0.0
 6889974,0.00022842,0.00016800,0.00003667,0.00021268,0.00022766,0.00015
 298,0.00004567,0.00016130,-0.00015705,0.00000547,0.00001459,0.00001510
 ,-0.00000474,-0.00003906,0.00001964,-0.00000484,0.00000242,-0.00000020
 ,0.00000245,-0.00000287,0.00000059,0.00000463,-0.00000237,-0.00000248,
 0.00000322,0.00000042,0.00000445,0.00001499,0.00000500,-0.00000089,-0.
 00000570,0.00002899,0.00000960,0.00017107,0.00007102,-0.00009710,0.000
 22886,-0.00017723,-0.00010179,-0.00016690,-0.00017071,-0.00000961,-0.0
 0680127,-0.00330689,0.00057230,-0.01560619,-0.00680318,0.00662019,0.27
 611015,0.00178080,-0.00635203,0.00125419,-0.02771719,-0.00994299,0.006
 96254,-0.00095851,0.00058341,-0.00053261,0.00005829,-0.00007170,0.0000
 0648,-0.00024851,-0.00007722,-0.00007056,0.00033324,0.00076051,0.00011
 440,0.00049365,-0.00061872,-0.00004282,-0.00004329,0.00013142,-0.00052
 968,-0.00001825,-0.00014261,-0.00005487,0.00002865,0.00002706,-0.00001
 300,0.00003306,0.00001054,-0.00003647,0.00001649,-0.00002629,-0.000004
 81,-0.00001862,-0.00003598,0.00001781,-0.00002831,0.00002683,-0.000005
 44,-0.00000144,-0.00000993,0.00001354,0.00000958,0.00000836,-0.0000063
 6,0.00000526,-0.00003337,0.00002174,-0.00001741,0.00013258,-0.00002023
 ,-0.00151351,0.00153027,0.00074436,-0.09274186,-0.08810002,0.02932249,
 -0.00189751,-0.00086669,0.00046026,0.00021597,0.00006526,-0.00016482,0
 .00010688,0.00010734,0.00018150,-0.00006542,0.00009922,0.00001596,0.00
 000500,0.00001117,-0.00002752,0.00000565,-0.00000753,0.00000006,-0.000
 00650,0.00000366,0.00000135,-0.00000266,-0.00000218,0.00000076,-0.0000
 0172,-0.00000150,-0.00000010,-0.00000984,-0.00000421,0.00000300,-0.000
 02296,-0.00003183,-0.00000495,0.00021468,0.00043017,0.00012172,0.00078
 457,-0.00041008,-0.00048186,0.00001472,-0.00007096,-0.00010141,0.01444
 025,0.00574668,-0.00381743,0.00500654,0.00114745,-0.00183143,0.1017602
 5,0.09598393,-0.00067894,0.00088757,-0.00015463,0.00504170,0.00093581,
 -0.00314654,0.00131989,0.00008337,0.00004538,0.00001071,0.00006799,0.0
 0012814,0.00022770,-0.00001357,0.00006447,-0.00033553,-0.00099548,-0.0
 0001803,-0.00061948,0.00073088,0.00003325,0.00031086,-0.00015305,0.000
 11449,0.00013356,-0.00009632,0.00001327,0.00004349,0.00011888,-0.00000
 731,-0.00005630,-0.00003767,0.00005424,0.00000410,0.00000863,-0.000007
 85,0.00001288,0.00001827,-0.00001402,0.00003485,-0.00001307,-0.0000037
 7,0.00003127,-0.00004283,0.00000038,0.00001435,0.00000880,-0.00000691,
 0.00003531,-0.00001807,-0.00001033,-0.00010201,-0.00011094,0.00002869,
 -0.00059665,-0.00081451,0.00017475,0.06768550,0.02983071,-0.06704785,0
 .00036168,0.00021877,0.00055981,0.00030409,0.00005381,0.00021838,-0.00
 034677,-0.00006904,0.00016464,-0.00002708,-0.00008933,-0.00000696,-0.0
 0003709,-0.00001865,0.00001881,-0.00000631,0.00000571,0.00000721,0.000
 00951,-0.00000677,0.00000257,0.00001060,-0.00000116,0.00000182,0.00000
 873,-0.00000407,0.00000305,0.00001609,0.00001003,-0.00000036,-0.000055
 84,0.00000231,0.00001961,-0.00007329,0.00008609,-0.00014359,0.00004462
 ,-0.00008573,0.00043528,-0.00020633,-0.00002676,-0.00004944,0.02209587
 ,0.01054593,-0.00628221,-0.02094763,-0.00952079,0.00712677,-0.07366812
 ,-0.03149578,0.06768479\\0.00034675,-0.00020682,0.00184152,0.00048824,
 -0.00012246,-0.00295506,-0.01989262,-0.00077159,0.00063626,0.00409096,
 0.00136722,-0.00016466,-0.00430571,0.00438606,0.00002565,0.00888919,0.
 02239774,-0.00515152,0.01813345,-0.02703679,0.00271942,-0.00434694,-0.
 00584863,0.00416469,-0.00532249,0.00238491,0.00294362,-0.00159159,-0.0
 1428762,0.00282746,0.00033628,0.00303150,0.00005143,0.00183111,-0.0011
 4537,0.00009616,-0.00138825,-0.00126321,0.00026375,-0.00189351,0.00070
 701,-0.00003348,-0.00282864,0.00244998,-0.00076183,0.00053778,0.000602
 75,-0.00012244,-0.00254201,-0.00613234,0.00097793,0.01344287,0.0177020
 4,-0.00551949,-0.00042012,-0.00060614,0.00066403,-0.00324096,-0.001819
 98,0.00327957,-0.00025199,-0.00034544,-0.00011644,0.00072187,0.0001180
 5,0.00014725,0.00037979,0.00006908,-0.00036285,0.00043966,0.00126569,-
 0.00038620,0.00097576,0.00056255,-0.00045613,0.00018332,-0.00004580,0.
 00009149,-0.00030695,0.00024591,0.00000940,-0.00051946,0.00031226,0.00
 006328,-0.00006523,-0.00017293,0.00017521,-0.00182522,-0.00014948,0.00
 036080,-0.00358092,-0.00113733,0.00004689,0.00006745,-0.00045941,-0.00
 038955,0.00024615,0.00022256,-0.00119551,0.00067597,0.00014065,0.00026
 976,0.00190559,0.00049600,-0.00044736,0.00177327,-0.00011642,-0.000625
 44,-0.00114284,0.00320578,-0.00296761\\\@

 Writing a WFNX file to "21_lig_b.wfx"


 THERE IS NOTHING NOBLE IN BEING SUPERIOR TO SOME OTHER MAN.
 TRUE NOBILITY IS BEING SUPERIOR TO YOUR FORMER SELF.

                                                   -- HINDU PROVERB
 Job cpu time:       0 days  2 hours  6 minutes 12.7 seconds.
 Elapsed time:       0 days  0 hours 15 minutes 57.3 seconds.
 File lengths (MBytes):  RWF=    526 Int=      0 D2E=      0 Chk=     10 Scr=      1
 Normal termination of Gaussian 16 at Thu Nov  3 08:20:20 2022.
