 Entering Gaussian System, Link 0=g16
 Initial command:
 /software/gaussian/G16-A.03/avx/g16/l1.exe "/scratch/lcmd/1361352.slurm/Gau-124641.inp" -scrdir="/scratch/lcmd/1361352.slurm/"
 Entering Link 1 = /software/gaussian/G16-A.03/avx/g16/l1.exe PID=    124644.
  
 Copyright (c) 1988,1990,1992,1993,1995,1998,2003,2009,2016,
            Gaussian, Inc.  All Rights Reserved.
  
 This is part of the Gaussian(R) 16 program.  It is based on
 the Gaussian(R) 09 system (copyright 2009, Gaussian, Inc.),
 the Gaussian(R) 03 system (copyright 2003, Gaussian, Inc.),
 the Gaussian(R) 98 system (copyright 1998, Gaussian, Inc.),
 the Gaussian(R) 94 system (copyright 1995, Gaussian, Inc.),
 the Gaussian 92(TM) system (copyright 1992, Gaussian, Inc.),
 the Gaussian 90(TM) system (copyright 1990, Gaussian, Inc.),
 the Gaussian 88(TM) system (copyright 1988, Gaussian, Inc.),
 the Gaussian 86(TM) system (copyright 1986, Carnegie Mellon
 University), and the Gaussian 82(TM) system (copyright 1983,
 Carnegie Mellon University). Gaussian is a federally registered
 trademark of Gaussian, Inc.
  
 This software contains proprietary and confidential information,
 including trade secrets, belonging to Gaussian, Inc.
  
 This software is provided under written license and may be
 used, copied, transmitted, or stored only in accord with that
 written license.
  
 The following legend is applicable only to US Government
 contracts under FAR:
  
                    RESTRICTED RIGHTS LEGEND
  
 Use, reproduction and disclosure by the US Government is
 subject to restrictions as set forth in subparagraphs (a)
 and (c) of the Commercial Computer Software - Restricted
 Rights clause in FAR 52.227-19.
  
 Gaussian, Inc.
 340 Quinnipiac St., Bldg. 40, Wallingford CT 06492
  
  
 ---------------------------------------------------------------
 Warning -- This program may not be used in any manner that
 competes with the business of Gaussian, Inc. or will provide
 assistance to any competitor of Gaussian, Inc.  The licensee
 of this program is prohibited from giving any competitor of
 Gaussian, Inc. access to this program.  By using this program,
 the user acknowledges that Gaussian, Inc. is engaged in the
 business of creating and licensing software in the field of
 computational chemistry and represents and warrants to the
 licensee that it is not a competitor of Gaussian, Inc. and that
 it will not use this program in any manner prohibited above.
 ---------------------------------------------------------------
  

 Cite this work as:
 Gaussian 16, Revision A.03,
 M. J. Frisch, G. W. Trucks, H. B. Schlegel, G. E. Scuseria, 
 M. A. Robb, J. R. Cheeseman, G. Scalmani, V. Barone, 
 G. A. Petersson, H. Nakatsuji, X. Li, M. Caricato, A. V. Marenich, 
 J. Bloino, B. G. Janesko, R. Gomperts, B. Mennucci, H. P. Hratchian, 
 J. V. Ortiz, A. F. Izmaylov, J. L. Sonnenberg, D. Williams-Young, 
 F. Ding, F. Lipparini, F. Egidi, J. Goings, B. Peng, A. Petrone, 
 T. Henderson, D. Ranasinghe, V. G. Zakrzewski, J. Gao, N. Rega, 
 G. Zheng, W. Liang, M. Hada, M. Ehara, K. Toyota, R. Fukuda, 
 J. Hasegawa, M. Ishida, T. Nakajima, Y. Honda, O. Kitao, H. Nakai, 
 T. Vreven, K. Throssell, J. A. Montgomery, Jr., J. E. Peralta, 
 F. Ogliaro, M. J. Bearpark, J. J. Heyd, E. N. Brothers, K. N. Kudin, 
 V. N. Staroverov, T. A. Keith, R. Kobayashi, J. Normand, 
 K. Raghavachari, A. P. Rendell, J. C. Burant, S. S. Iyengar, 
 J. Tomasi, M. Cossi, J. M. Millam, M. Klene, C. Adamo, R. Cammi, 
 J. W. Ochterski, R. L. Martin, K. Morokuma, O. Farkas, 
 J. B. Foresman, and D. J. Fox, Gaussian, Inc., Wallingford CT, 2016.
 
 ******************************************
 Gaussian 16:  ES64L-G16RevA.03 25-Dec-2016
                 3-Nov-2022 
 ******************************************
 %nprocs=8
 Will use up to    8 processors via shared memory.
 %mem=32000MB
 %chk=22_lig_b.chk
 ----------------------------------------------------------------------
 #p pop=(regular,nbo,savenbos) freq=noraman def2svp empiricaldispersion
 =gd3bj output=wfx pbe1pbe
 ----------------------------------------------------------------------
 1/10=4,30=1,38=1/1,3;
 2/12=2,17=6,18=5,40=1/2;
 3/5=43,7=101,11=2,25=1,30=1,71=2,74=-13,124=41,140=1/1,2,3;
 4//1;
 5/5=2,38=5,98=1/2;
 8/6=4,10=90,11=11/1;
 11/6=1,8=1,9=11,15=111,16=1/1,2,10;
 10/6=1/2;
 6/28=1,40=1,73=1/1,7;
 7/8=1,10=1,25=1/1,2,3,16;
 1/10=4,30=1/3;
 99/6=200/99;
 Leave Link    1 at Thu Nov  3 08:04:22 2022, MaxMem=  4194304000 cpu:               0.4 elap:               0.1
 (Enter /software/gaussian/G16-A.03/avx/g16/l101.exe)
 --------
 22_lig_b
 --------
 Symbolic Z-matrix:
 Charge =  0 Multiplicity = 1
 C                    -1.74482   2.09785  -1.86941 
 C                    -1.48492   1.77268  -0.40301 
 C                    -1.04501   3.03444   0.37114 
 O                     0.38895   2.97905   0.34064 
 C                     0.71589   1.71809   0.03804 
 N                    -0.24865   0.96101  -0.3319 
 N                     1.78879  -1.03333   0.00901 
 C                     2.62765   0.03301   0.10531 
 C                     2.13695   1.37833   0.13903 
 C                     3.02906   2.43043   0.2818 
 C                     4.41601   2.22162   0.37082 
 C                     4.91291   0.94202   0.334 
 C                     4.03981  -0.16572   0.21131 
 C                     4.53385  -1.49213   0.19932 
 C                     3.6565   -2.54093   0.10779 
 C                     2.27956  -2.25986   0.02157 
 C                    -2.61244   1.02341   0.28743 
 C                    -2.37209   0.45209   1.5432 
 C                    -3.35435  -0.28963   2.19051 
 C                    -4.60407  -0.45461   1.59787 
 C                    -4.85466   0.11406   0.3519 
 C                    -3.86266   0.83962  -0.30402 
 H                    -0.88123   2.63961  -2.28413 
 H                    -2.63158   2.74017  -1.97174 
 H                    -1.88314   1.16313  -2.43169 
 H                    -1.3655    3.02179   1.42414 
 H                    -1.36877   3.96895  -0.10368 
 H                     2.62846   3.44388   0.31966 
 H                     5.08644   3.07701   0.47129 
 H                     5.98729   0.7554    0.40477 
 H                     5.61184  -1.65758   0.27289 
 H                     3.99396  -3.57824   0.10477 
 H                     1.53016  -3.0596   -0.00674 
 H                    -1.38815   0.54823   2.01053 
 H                    -3.13276  -0.75799   3.15148 
 H                    -5.37604  -1.0432    2.09863 
 H                    -5.82476  -0.02763  -0.12976 
 H                    -4.06564   1.23855  -1.29761 
 
 ITRead=  0  0  0  0  0  0  0  0  0  0  0  0  0  0  0  0  0  0  0  0
 ITRead=  0  0  0  0  0  0  0  0  0  0  0  0  0  0  0  0  0  0
 MicOpt= -1 -1 -1 -1 -1 -1 -1 -1 -1 -1 -1 -1 -1 -1 -1 -1 -1 -1 -1 -1
 MicOpt= -1 -1 -1 -1 -1 -1 -1 -1 -1 -1 -1 -1 -1 -1 -1 -1 -1 -1
 NAtoms=     38 NQM=       38 NQMF=       0 NMMI=      0 NMMIF=      0
                NMic=       0 NMicF=      0.
                    Isotopes and Nuclear Properties:
 (Nuclear quadrupole moments (NQMom) in fm**2, nuclear magnetic moments (NMagM)
  in nuclear magnetons)

  Atom         1           2           3           4           5           6           7           8           9          10
 IAtWgt=          12          12          12          16          12          14          14          12          12          12
 AtmWgt=  12.0000000  12.0000000  12.0000000  15.9949146  12.0000000  14.0030740  14.0030740  12.0000000  12.0000000  12.0000000
 NucSpn=           0           0           0           0           0           2           2           0           0           0
 AtZEff=  -0.0000000  -0.0000000  -0.0000000  -0.0000000  -0.0000000  -0.0000000  -0.0000000  -0.0000000  -0.0000000  -0.0000000
 NQMom=    0.0000000   0.0000000   0.0000000   0.0000000   0.0000000   2.0440000   2.0440000   0.0000000   0.0000000   0.0000000
 NMagM=    0.0000000   0.0000000   0.0000000   0.0000000   0.0000000   0.4037610   0.4037610   0.0000000   0.0000000   0.0000000
 AtZNuc=   6.0000000   6.0000000   6.0000000   8.0000000   6.0000000   7.0000000   7.0000000   6.0000000   6.0000000   6.0000000

  Atom        11          12          13          14          15          16          17          18          19          20
 IAtWgt=          12          12          12          12          12          12          12          12          12          12
 AtmWgt=  12.0000000  12.0000000  12.0000000  12.0000000  12.0000000  12.0000000  12.0000000  12.0000000  12.0000000  12.0000000
 NucSpn=           0           0           0           0           0           0           0           0           0           0
 AtZEff=  -0.0000000  -0.0000000  -0.0000000  -0.0000000  -0.0000000  -0.0000000  -0.0000000  -0.0000000  -0.0000000  -0.0000000
 NQMom=    0.0000000   0.0000000   0.0000000   0.0000000   0.0000000   0.0000000   0.0000000   0.0000000   0.0000000   0.0000000
 NMagM=    0.0000000   0.0000000   0.0000000   0.0000000   0.0000000   0.0000000   0.0000000   0.0000000   0.0000000   0.0000000
 AtZNuc=   6.0000000   6.0000000   6.0000000   6.0000000   6.0000000   6.0000000   6.0000000   6.0000000   6.0000000   6.0000000

  Atom        21          22          23          24          25          26          27          28          29          30
 IAtWgt=          12          12           1           1           1           1           1           1           1           1
 AtmWgt=  12.0000000  12.0000000   1.0078250   1.0078250   1.0078250   1.0078250   1.0078250   1.0078250   1.0078250   1.0078250
 NucSpn=           0           0           1           1           1           1           1           1           1           1
 AtZEff=  -0.0000000  -0.0000000  -0.0000000  -0.0000000  -0.0000000  -0.0000000  -0.0000000  -0.0000000  -0.0000000  -0.0000000
 NQMom=    0.0000000   0.0000000   0.0000000   0.0000000   0.0000000   0.0000000   0.0000000   0.0000000   0.0000000   0.0000000
 NMagM=    0.0000000   0.0000000   2.7928460   2.7928460   2.7928460   2.7928460   2.7928460   2.7928460   2.7928460   2.7928460
 AtZNuc=   6.0000000   6.0000000   1.0000000   1.0000000   1.0000000   1.0000000   1.0000000   1.0000000   1.0000000   1.0000000

  Atom        31          32          33          34          35          36          37          38
 IAtWgt=           1           1           1           1           1           1           1           1
 AtmWgt=   1.0078250   1.0078250   1.0078250   1.0078250   1.0078250   1.0078250   1.0078250   1.0078250
 NucSpn=           1           1           1           1           1           1           1           1
 AtZEff=  -0.0000000  -0.0000000  -0.0000000  -0.0000000  -0.0000000  -0.0000000  -0.0000000  -0.0000000
 NQMom=    0.0000000   0.0000000   0.0000000   0.0000000   0.0000000   0.0000000   0.0000000   0.0000000
 NMagM=    2.7928460   2.7928460   2.7928460   2.7928460   2.7928460   2.7928460   2.7928460   2.7928460
 AtZNuc=   1.0000000   1.0000000   1.0000000   1.0000000   1.0000000   1.0000000   1.0000000   1.0000000
 Leave Link  101 at Thu Nov  3 08:04:22 2022, MaxMem=  4194304000 cpu:               0.7 elap:               0.1
 (Enter /software/gaussian/G16-A.03/avx/g16/l103.exe)

 GradGradGradGradGradGradGradGradGradGradGradGradGradGradGradGradGradGrad
 Berny optimization.
 Initialization pass.
 Trust Radius=3.00D-01 FncErr=1.00D-07 GrdErr=1.00D-07 EigMax=2.50D+02 EigMin=1.00D-04
 Number of steps in this run=      2 maximum allowed number of steps=      2.
 GradGradGradGradGradGradGradGradGradGradGradGradGradGradGradGradGradGrad

 Leave Link  103 at Thu Nov  3 08:04:22 2022, MaxMem=  4194304000 cpu:               0.2 elap:               0.0
 (Enter /software/gaussian/G16-A.03/avx/g16/l202.exe)
                          Input orientation:                          
 ---------------------------------------------------------------------
 Center     Atomic      Atomic             Coordinates (Angstroms)
 Number     Number       Type             X           Y           Z
 ---------------------------------------------------------------------
      1          6           0       -1.744820    2.097850   -1.869410
      2          6           0       -1.484920    1.772680   -0.403010
      3          6           0       -1.045010    3.034440    0.371140
      4          8           0        0.388950    2.979050    0.340640
      5          6           0        0.715890    1.718090    0.038040
      6          7           0       -0.248650    0.961010   -0.331900
      7          7           0        1.788790   -1.033330    0.009010
      8          6           0        2.627650    0.033010    0.105310
      9          6           0        2.136950    1.378330    0.139030
     10          6           0        3.029060    2.430430    0.281800
     11          6           0        4.416010    2.221620    0.370820
     12          6           0        4.912910    0.942020    0.334000
     13          6           0        4.039810   -0.165720    0.211310
     14          6           0        4.533850   -1.492130    0.199320
     15          6           0        3.656500   -2.540930    0.107790
     16          6           0        2.279560   -2.259860    0.021570
     17          6           0       -2.612440    1.023410    0.287430
     18          6           0       -2.372090    0.452090    1.543200
     19          6           0       -3.354350   -0.289630    2.190510
     20          6           0       -4.604070   -0.454610    1.597870
     21          6           0       -4.854660    0.114060    0.351900
     22          6           0       -3.862660    0.839620   -0.304020
     23          1           0       -0.881230    2.639610   -2.284130
     24          1           0       -2.631580    2.740170   -1.971740
     25          1           0       -1.883140    1.163130   -2.431690
     26          1           0       -1.365500    3.021790    1.424140
     27          1           0       -1.368770    3.968950   -0.103680
     28          1           0        2.628460    3.443880    0.319660
     29          1           0        5.086440    3.077010    0.471290
     30          1           0        5.987290    0.755400    0.404770
     31          1           0        5.611840   -1.657580    0.272890
     32          1           0        3.993960   -3.578240    0.104770
     33          1           0        1.530160   -3.059600   -0.006740
     34          1           0       -1.388150    0.548230    2.010530
     35          1           0       -3.132760   -0.757990    3.151480
     36          1           0       -5.376040   -1.043200    2.098630
     37          1           0       -5.824760   -0.027630   -0.129760
     38          1           0       -4.065640    1.238550   -1.297610
 ---------------------------------------------------------------------
                    Distance matrix (angstroms):
                    1          2          3          4          5
     1  C    0.000000
     2  C    1.524340   0.000000
     3  C    2.527251   1.544302   0.000000
     4  O    3.195905   2.349411   1.435353   0.000000
     5  C    3.136507   2.245233   2.223624   1.337339   0.000000
     6  N    2.427935   1.480618   2.329714   2.220660   1.280767
     7  N    5.081255   4.331354   4.970746   4.262479   2.953349
     8  C    5.223177   4.494227   4.750545   3.707602   2.549283
     9  C    4.429411   3.683376   3.594641   2.378751   1.464598
    10  C    5.246737   4.612767   4.119570   2.697152   2.432612
    11  C    6.556659   5.968361   5.521179   4.097783   3.749023
    12  C    7.107484   6.493490   6.314777   4.961426   4.278417
    13  C    6.550961   5.887056   6.010155   4.820278   3.824553
    14  C    7.522586   6.873673   7.186309   6.098493   4.990826
    15  C    7.389307   6.730702   7.297828   6.418822   5.176032
    16  C    6.225839   5.532898   6.261356   5.578744   4.274274
    17  C    2.561083   1.519676   2.551095   3.582695   3.409187
    18  C    3.840300   2.513715   3.131038   3.931287   3.661131
    19  C    4.977308   3.804502   4.437634   5.302696   5.023039
    20  C    5.168403   4.323591   5.132762   6.188772   5.954466
    21  C    4.305897   3.830934   4.800252   5.975261   5.805381
    22  C    2.918704   2.556178   3.634863   4.803013   4.674595
    23  H    1.100584   2.157457   2.689456   2.935642   2.965209
    24  H    1.099723   2.170663   2.844800   3.811531   4.036015
    25  H    1.099542   2.155382   3.472768   4.018180   3.628017
    26  H    3.441660   2.216532   1.100765   2.062497   2.820123
    27  H    2.600044   2.219615   1.097080   2.065648   3.071199
    28  H    5.072416   4.498339   3.696576   2.287337   2.591445
    29  H    7.287232   6.756364   6.132416   4.700327   4.597399
    30  H    8.170654   7.584279   7.392455   6.024130   5.371119
    31  H    8.533062   7.911228   8.144836   6.984376   5.951523
    32  H    8.309572   7.675175   8.318035   7.486640   6.229070
    33  H    6.387043   5.709524   6.626584   6.155349   4.846789
    34  H    4.193146   2.708102   2.997763   3.443182   3.112278
    35  H    5.940668   4.664125   5.145048   5.853950   5.535033
    36  H    6.228747   5.415551   6.194287   7.245974   6.998740
    37  H    4.918329   4.706378   5.698525   6.918930   6.771691
    38  H    2.539992   2.783113   3.890264   5.055351   4.987680
                    6          7          8          9         10
     6  N    0.000000
     7  N    2.871371   0.000000
     8  C    3.053758   1.360162   0.000000
     9  C    2.467188   2.440128   1.432414   0.000000
    10  C    3.644064   3.689216   2.437191   1.386780   0.000000
    11  C    4.882828   4.198558   2.838792   2.441102   1.405403
    12  C    5.204372   3.710492   2.470023   2.816795   2.401454
    13  C    4.467156   2.420901   1.430009   2.451569   2.786858
    14  C    5.401148   2.789636   2.443049   3.740094   4.202103
    15  C    5.263754   2.402281   2.771950   4.203642   5.013819
    16  C    4.109841   1.321132   2.320653   3.642878   4.756920
    17  C    2.444374   4.866058   5.335973   4.764945   5.814315
    18  C    2.878193   4.676872   5.219249   4.812593   5.888750
    19  C    4.191900   5.635949   6.343223   6.094673   7.196515
    20  C    4.969676   6.612719   7.400222   7.136472   8.265602
    21  C    4.732889   6.750519   7.486811   7.108186   8.217270
    22  C    3.616156   5.961947   6.553037   6.040018   7.097159
    23  H    2.651237   5.087041   4.981569   4.070865   4.681679
    24  H    3.396004   6.140223   6.269159   5.389697   6.100592
    25  H    2.668619   4.925903   5.297241   4.776613   5.753154
    26  H    2.928796   5.328803   5.159202   4.076717   4.578952
    27  H    3.217834   5.916561   5.613081   4.365810   4.675099
    28  H    3.855767   4.565847   3.417599   2.130893   1.090410
    29  H    5.795322   5.289905   3.930080   3.419854   2.164898
    30  H    6.282667   4.580784   3.449450   3.909447   3.401760
    31  H    6.447335   3.882658   3.433885   4.616224   4.835562
    32  H    6.228580   3.368755   3.861079   5.293132   6.088225
    33  H    4.408537   2.042770   3.283485   4.481592   5.698279
    34  H    2.637390   4.074354   4.474591   4.076507   5.103227
    35  H    4.838077   5.845732   6.564081   6.434948   7.507937
    36  H    6.017845   7.463337   8.318089   8.133195   9.274302
    37  H    5.666681   7.680940   8.455896   8.089363   9.197911
    38  H    3.947029   6.414284   6.944180   6.368328   7.365452
                   11         12         13         14         15
    11  C    0.000000
    12  C    1.373187   0.000000
    13  C    2.422057   1.415784   0.000000
    14  C    3.719575   2.467167   1.415480   0.000000
    15  C    4.829899   3.709539   2.408166   1.370439   0.000000
    16  C    4.976953   4.157425   2.742244   2.388059   1.407977
    17  C    7.130342   7.525934   6.758125   7.576620   7.213626
    18  C    7.112244   7.400907   6.577848   7.299179   6.882040
    19  C    8.366370   8.562195   7.655468   8.224022   7.652326
    20  C    9.488398   9.701590   8.759148   9.302364   8.649282
    21  C    9.507234   9.802615   8.899980   9.526135   8.918991
    22  C    8.420315   8.799329   7.982813   8.728791   8.254421
    23  H    5.940053   6.580917   6.189809   7.249958   7.290423
    24  H    7.444797   8.091298   7.597193   8.600538   8.470798
    25  H    6.975224   7.340588   6.620621   7.426330   7.131383
    26  H    5.930903   6.703155   6.391287   7.528478   7.609015
    27  H    6.061517   6.986657   6.815237   8.047119   8.226579
    28  H    2.166073   3.387952   3.877223   5.292371   6.076159
    29  H    1.091450   2.146426   3.417356   4.610462   5.808452
    30  H    2.149389   1.092762   2.163000   2.684416   4.048033
    31  H    4.060516   2.692612   2.168114   1.093091   2.151957
    32  H    5.821279   4.618416   3.414491   2.156914   1.090826
    33  H    6.030088   5.250911   3.836721   3.394345   2.191679
    34  H    6.259166   6.532165   5.762783   6.520248   6.213841
    35  H    8.578699   8.692585   7.774390   8.248098   7.650946
    36  H   10.465592  10.626265   9.643142  10.100239   9.369814
    37  H   10.496813  10.791332   9.871430  10.466798   9.811595
    38  H    8.699912   9.130413   8.363440   9.145963   8.711548
                   16         17         18         19         20
    16  C    0.000000
    17  C    5.897644   0.000000
    18  C    5.595344   1.400405   0.000000
    19  C    6.350358   2.428213   1.390681   0.000000
    20  C    7.288896   2.805064   2.409736   1.392925   0.000000
    21  C    7.526069   2.420460   2.774277   2.407152   1.392344
    22  C    6.887645   1.395221   2.405036   2.785007   2.417003
    23  H    6.269900   3.496014   4.653640   5.892298   6.205132
    24  H    7.286486   2.837513   4.202077   5.198693   5.180681
    25  H    5.921437   2.818690   4.067481   5.063566   5.124246
    26  H    6.568827   2.615433   2.762382   3.938064   4.754353
    27  H    7.219700   3.221163   4.010881   5.228895   5.738495
    28  H    5.722171   5.772932   5.954272   7.296108   8.315139
    29  H    6.046735   7.970184   7.979277   9.248617  10.375332
    30  H    4.794361   8.604705   8.441993   9.568030  10.726813
    31  H    3.395584   8.650243   8.355090   9.270443  10.371477
    32  H    2.164305   8.053140   7.670674   8.316425   9.268901
    33  H    1.096351   5.823971   5.473741   6.029849   6.854891
    34  H    5.029257   2.166508   1.093516   2.144841   3.393835
    35  H    6.430020   3.412756   2.151622   1.091754   2.161133
    36  H    8.025126   3.897282   3.401192   2.159523   1.092308
    37  H    8.407482   3.405544   3.866504   3.399297   2.158032
    38  H    7.364827   2.161117   3.399534   3.874048   3.397131
                   21         22         23         24         25
    21  C    0.000000
    22  C    1.393102   0.000000
    23  H    5.395851   4.006211   0.000000
    24  H    4.151848   2.812283   1.780850   0.000000
    25  H    4.204623   2.924062   1.790416   1.805207   0.000000
    26  H    4.666779   3.739547   3.759235   3.635144   4.311611
    27  H    5.217198   4.006536   2.599847   2.567925   3.681960
    28  H    8.190594   7.021808   4.443478   5.780462   5.755544
    29  H   10.373948   9.257074   6.587620   8.102450   7.788792
    30  H   10.861031   9.875778   7.612949   9.158167   8.375883
    31  H   10.615676   9.815039   8.195374   9.608982   8.452567
    32  H    9.591258   9.022809   8.254452   9.387863   7.965835
    33  H    7.139094   6.661441   6.594111   7.403961   5.946633
    34  H    3.867331   3.400772   4.803638   4.712663   4.511811
    35  H    3.400450   3.876286   6.794036   6.223800   6.035233
    36  H    2.159202   3.407060   7.278392   6.197892   6.131235
    37  H    1.092322   2.152284   6.016142   4.609773   4.717325
    38  H    2.146605   1.089756   3.616166   2.183081   2.460718
                   26         27         28         29         30
    26  H    0.000000
    27  H    1.797597   0.000000
    28  H    4.165303   4.053734   0.000000
    29  H    6.522155   6.541856   2.489829   0.000000
    30  H    7.761389   8.043447   4.303128   2.491150   0.000000
    31  H    8.479691   8.973771   5.909961   4.767783   2.445573
    32  H    8.603775   9.260799   7.156880   6.754273   4.779519
    33  H    6.885896   7.603533   6.603639   7.108700   5.881290
    34  H    2.542217   4.021391   5.232302   7.119291   7.551060
    35  H    4.515933   6.004306   7.672455   9.457584   9.644173
    36  H    5.750088   6.784543   9.347226  11.361684  11.628817
    37  H    5.621260   5.985748   9.149333  11.360208  11.850037
    38  H    4.228312   4.019162   7.231184   9.501027  10.207494
                   31         32         33         34         35
    31  H    0.000000
    32  H    2.516890   0.000000
    33  H    4.324808   2.520264   0.000000
    34  H    7.542205   7.044628   5.059876   0.000000
    35  H    9.250058   8.247811   6.083961   2.460008   0.000000
    36  H   11.155460   9.909531   7.496269   4.294610   2.494422
    37  H   11.559182  10.443615   7.956307   4.959432   4.306603
    38  H   10.222899   9.493434   7.173104   4.311529   4.964961
                   36         37         38
    36  H    0.000000
    37  H    2.489669   0.000000
    38  H    4.296275   2.462029   0.000000
 Stoichiometry    C19H16N2O
 Framework group  C1[X(C19H16N2O)]
 Deg. of freedom   108
 Full point group                 C1      NOp   1
 Largest Abelian subgroup         C1      NOp   1
 Largest concise Abelian subgroup C1      NOp   1
                         Standard orientation:                         
 ---------------------------------------------------------------------
 Center     Atomic      Atomic             Coordinates (Angstroms)
 Number     Number       Type             X           Y           Z
 ---------------------------------------------------------------------
      1          6           0       -2.110402   -1.598353    1.939952
      2          6           0       -1.882877   -1.035761    0.541619
      3          6           0       -1.607436   -2.169659   -0.469951
      4          8           0       -0.175299   -2.252914   -0.517839
      5          6           0        0.290822   -1.104082   -0.016448
      6          7           0       -0.574861   -0.341987    0.540478
      7          7           0        1.637753    1.485065    0.435618
      8          6           0        2.359032    0.381769    0.100156
      9          6           0        1.733287   -0.883754   -0.142134
     10          6           0        2.506914   -1.969509   -0.523963
     11          6           0        3.902704   -1.876409   -0.659088
     12          6           0        4.528075   -0.676351   -0.425817
     13          6           0        3.778116    0.465790   -0.054981
     14          6           0        4.404316    1.716470    0.162400
     15          6           0        3.642794    2.807010    0.492413
     16          6           0        2.249495    2.642772    0.611329
     17          6           0       -2.957468   -0.072368    0.065652
     18          6           0       -2.715219    0.694432   -1.080849
     19          6           0       -3.644329    1.629185   -1.524680
     20          6           0       -4.843870    1.797219   -0.836853
     21          6           0       -5.096453    1.035747    0.301121
     22          6           0       -4.155648    0.114341    0.755686
     23          1           0       -1.289055   -2.283924    2.198147
     24          1           0       -3.052495   -2.164221    1.980489
     25          1           0       -2.128518   -0.773554    2.666844
     26          1           0       -1.970492   -1.935198   -1.482325
     27          1           0       -2.003432   -3.141444   -0.149943
     28          1           0        2.004230   -2.917721   -0.716827
     29          1           0        4.477820   -2.756968   -0.950842
     30          1           0        5.611749   -0.579559   -0.527848
     31          1           0        5.489307    1.792721    0.053634
     32          1           0        4.083632    3.790757    0.659162
     33          1           0        1.587104    3.489322    0.827146
     34          1           0       -1.767391    0.595305   -1.617109
     35          1           0       -3.418353    2.243011   -2.398796
     36          1           0       -5.573147    2.535938   -1.176831
     37          1           0       -6.025278    1.175565    0.858707
     38          1           0       -4.354660   -0.439203    1.673046
 ---------------------------------------------------------------------
 Rotational constants (GHZ):           0.5628995           0.1707422           0.1439786
 Leave Link  202 at Thu Nov  3 08:04:22 2022, MaxMem=  4194304000 cpu:               0.1 elap:               0.1
 (Enter /software/gaussian/G16-A.03/avx/g16/l301.exe)
 Standard basis: def2SVP (5D, 7F)
 Ernie: Thresh=  0.10000D-02 Tol=  0.10000D-05 Strict=F.
 There are   410 symmetry adapted cartesian basis functions of A   symmetry.
 There are   388 symmetry adapted basis functions of A   symmetry.
   388 basis functions,   662 primitive gaussians,   410 cartesian basis functions
    76 alpha electrons       76 beta electrons
       nuclear repulsion energy      1659.7927498136 Hartrees.
 IExCor= 1009 DFT=T Ex+Corr=PBE1PBE ExCW=0 ScaHFX=  0.250000
 ScaDFX=  0.750000  0.750000  1.000000  1.000000 ScalE2=  1.000000  1.000000
 IRadAn=      5 IRanWt=     -1 IRanGd=            0 ICorTp=0 IEmpDi=141
 NAtoms=   38 NActive=   38 NUniq=   38 SFac= 1.00D+00 NAtFMM=   60 NAOKFM=F Big=F
 Integral buffers will be    131072 words long.
 Raffenetti 2 integral format.
 Two-electron integral symmetry is turned on.
 R6Disp:  Grimme-D3(BJ) Dispersion energy=       -0.0456000693 Hartrees.
 Nuclear repulsion after empirical dispersion term =     1659.7471497443 Hartrees.
 Leave Link  301 at Thu Nov  3 08:04:22 2022, MaxMem=  4194304000 cpu:               0.6 elap:               0.1
 (Enter /software/gaussian/G16-A.03/avx/g16/l302.exe)
 NPDir=0 NMtPBC=     1 NCelOv=     1 NCel=       1 NClECP=     1 NCelD=      1
         NCelK=      1 NCelE2=     1 NClLst=     1 CellRange=     0.0.
 One-electron integrals computed using PRISM.
 One-electron integral symmetry used in STVInt
   1 Symmetry operations used in ECPInt.
 ECPInt:  NShTT=   16290 NPrTT=   59674 LenC2=   14472 LenP2D=   36551.
 LDataN:  DoStor=T MaxTD1= 4 Len=   56
 NBasis=   388 RedAO= T EigKep=  2.12D-04  NBF=   388
 NBsUse=   388 1.00D-06 EigRej= -1.00D+00 NBFU=   388
 Precomputing XC quadrature grid using
 IXCGrd= 4 IRadAn=           5 IRanWt=          -1 IRanGd=           0 AccXCQ= 0.00D+00.
 Generated NRdTot=       0 NPtTot=           0 NUsed=           0 NTot=          32
 NSgBfM=   407   407   407   407   407 MxSgAt=    38 MxSgA2=    38.
 Leave Link  302 at Thu Nov  3 08:04:23 2022, MaxMem=  4194304000 cpu:               5.7 elap:               0.8
 (Enter /software/gaussian/G16-A.03/avx/g16/l303.exe)
 DipDrv:  MaxL=1.
 Leave Link  303 at Thu Nov  3 08:04:23 2022, MaxMem=  4194304000 cpu:               0.7 elap:               0.2
 (Enter /software/gaussian/G16-A.03/avx/g16/l401.exe)
 ExpMin= 1.22D-01 ExpMax= 2.27D+03 ExpMxC= 3.41D+02 IAcc=3 IRadAn=         5 AccDes= 0.00D+00
 Harris functional with IExCor= 1009 and IRadAn=       5 diagonalized for initial guess.
 HarFok:  IExCor= 1009 AccDes= 0.00D+00 IRadAn=         5 IDoV= 1 UseB2=F ITyADJ=14
 ICtDFT=  3500011 ScaDFX=  1.000000  1.000000  1.000000  1.000000
 FoFCou: FMM=F IPFlag=           0 FMFlag=      100000 FMFlg1=           0
         NFxFlg=           0 DoJE=T BraDBF=F KetDBF=T FulRan=T
         wScrn=  0.000000 ICntrl=       500 IOpCl=  0 I1Cent=   200000004 NGrid=           0
         NMat0=    1 NMatS0=      1 NMatT0=    0 NMatD0=    1 NMtDS0=    0 NMtDT0=    0
 Petite list used in FoFCou.
 Harris En= -916.890155186753    
 JPrj=0 DoOrth=F DoCkMO=F.
 Leave Link  401 at Thu Nov  3 08:04:27 2022, MaxMem=  4194304000 cpu:              30.4 elap:               3.8
 (Enter /software/gaussian/G16-A.03/avx/g16/l502.exe)
 Integral symmetry usage will be decided dynamically.
 Closed shell SCF:
 Using DIIS extrapolation, IDIIS=  1040.
 NGot=  4194304000 LenX=  4193960142 LenY=  4193791601
 Requested convergence on RMS density matrix=1.00D-08 within 128 cycles.
 Requested convergence on MAX density matrix=1.00D-06.
 Requested convergence on             energy=1.00D-06.
 No special actions if energy rises.
 Fock matrices will be formed incrementally for  20 cycles.
 Integral accuracy reduced to 1.0D-05 until final iterations.

 Cycle   1  Pass 0  IDiag  1:
 FoFJK:  IHMeth= 1 ICntrl=       0 DoSepK=F KAlg= 0 I1Cent=           0 FoldK=F
 IRaf= 820000000 NMat=       1 IRICut=       1 DoRegI=T DoRafI=F ISym2E= 0 IDoP0=0 IntGTp=1.
 FoFCou: FMM=F IPFlag=           0 FMFlag=      100000 FMFlg1=           0
         NFxFlg=           0 DoJE=F BraDBF=F KetDBF=F FulRan=T
         wScrn=  0.000000 ICntrl=         0 IOpCl=  0 I1Cent=           0 NGrid=           0
         NMat0=    1 NMatS0=      1 NMatT0=    0 NMatD0=    1 NMtDS0=    0 NMtDT0=    0
 Symmetry not used in FoFCou.
 E= -916.352082935369    
 DIIS: error= 3.03D-02 at cycle   1 NSaved=   1.
 NSaved= 1 IEnMin= 1 EnMin= -916.352082935369     IErMin= 1 ErrMin= 3.03D-02
 ErrMax= 3.03D-02  0.00D+00 EMaxC= 1.00D-01 BMatC= 3.12D-01 BMatP= 3.12D-01
 IDIUse=3 WtCom= 6.97D-01 WtEn= 3.03D-01
 Coeff-Com:  0.100D+01
 Coeff-En:   0.100D+01
 Coeff:      0.100D+01
 Gap=     0.163 Goal=   None    Shift=    0.000
 GapD=    0.163 DampG=1.000 DampE=0.500 DampFc=0.5000 IDamp=-1.
 Damping current iteration by 5.00D-01
 RMSDP=4.45D-03 MaxDP=1.44D-01              OVMax= 1.57D-01

 Cycle   2  Pass 0  IDiag  1:
 RMSU=  2.13D-03    CP:  9.64D-01
 E= -916.515287730298     Delta-E=       -0.163204794929 Rises=F Damp=T
 DIIS: error= 6.41D-03 at cycle   2 NSaved=   2.
 NSaved= 2 IEnMin= 2 EnMin= -916.515287730298     IErMin= 2 ErrMin= 6.41D-03
 ErrMax= 6.41D-03  0.00D+00 EMaxC= 1.00D-01 BMatC= 2.44D-02 BMatP= 3.12D-01
 IDIUse=3 WtCom= 9.36D-01 WtEn= 6.41D-02
 Coeff-Com:  0.246D-01 0.975D+00
 Coeff-En:   0.110D-01 0.989D+00
 Coeff:      0.237D-01 0.976D+00
 Gap=     0.198 Goal=   None    Shift=    0.000
 RMSDP=1.53D-03 MaxDP=5.03D-02 DE=-1.63D-01 OVMax= 1.55D-01

 Cycle   3  Pass 0  IDiag  1:
 RMSU=  1.46D-03    CP:  9.42D-01  1.10D+00
 E= -916.672149339558     Delta-E=       -0.156861609260 Rises=F Damp=F
 DIIS: error= 1.20D-02 at cycle   3 NSaved=   3.
 NSaved= 3 IEnMin= 3 EnMin= -916.672149339558     IErMin= 2 ErrMin= 6.41D-03
 ErrMax= 1.20D-02  0.00D+00 EMaxC= 1.00D-01 BMatC= 3.45D-02 BMatP= 2.44D-02
 IDIUse=2 WtCom= 0.00D+00 WtEn= 1.00D+00
 Coeff-En:   0.000D+00 0.000D+00 0.100D+01
 Coeff:      0.000D+00 0.000D+00 0.100D+01
 Gap=     0.160 Goal=   None    Shift=    0.000
 RMSDP=1.86D-03 MaxDP=1.11D-01 DE=-1.57D-01 OVMax= 1.94D-01

 Cycle   4  Pass 0  IDiag  1:
 RMSU=  1.12D-03    CP:  9.46D-01  1.46D+00  1.36D-01
 E= -916.548043372394     Delta-E=        0.124105967164 Rises=F Damp=F
 DIIS: error= 2.78D-02 at cycle   4 NSaved=   4.
 NSaved= 4 IEnMin= 3 EnMin= -916.672149339558     IErMin= 2 ErrMin= 6.41D-03
 ErrMax= 2.78D-02  0.00D+00 EMaxC= 1.00D-01 BMatC= 1.69D-01 BMatP= 2.44D-02
 IDIUse=2 WtCom= 0.00D+00 WtEn= 1.00D+00
 Coeff-En:   0.000D+00 0.000D+00 0.777D+00 0.223D+00
 Coeff:      0.000D+00 0.000D+00 0.777D+00 0.223D+00
 Gap=     0.171 Goal=   None    Shift=    0.000
 RMSDP=9.99D-04 MaxDP=5.45D-02 DE= 1.24D-01 OVMax= 7.80D-02

 Cycle   5  Pass 0  IDiag  1:
 RMSU=  1.90D-04    CP:  9.43D-01  1.25D+00  5.88D-01  4.81D-01
 E= -916.693064841114     Delta-E=       -0.145021468720 Rises=F Damp=F
 DIIS: error= 7.28D-03 at cycle   5 NSaved=   5.
 NSaved= 5 IEnMin= 5 EnMin= -916.693064841114     IErMin= 2 ErrMin= 6.41D-03
 ErrMax= 7.28D-03  0.00D+00 EMaxC= 1.00D-01 BMatC= 1.20D-02 BMatP= 2.44D-02
 IDIUse=3 WtCom= 9.27D-01 WtEn= 7.28D-02
 Coeff-Com:  0.413D-02 0.464D-02 0.320D+00-0.468D-01 0.718D+00
 Coeff-En:   0.000D+00 0.000D+00 0.305D+00 0.000D+00 0.695D+00
 Coeff:      0.383D-02 0.431D-02 0.319D+00-0.434D-01 0.716D+00
 Gap=     0.172 Goal=   None    Shift=    0.000
 RMSDP=3.43D-04 MaxDP=2.04D-02 DE=-1.45D-01 OVMax= 3.22D-02

 Cycle   6  Pass 0  IDiag  1:
 RMSU=  7.94D-05    CP:  9.42D-01  1.19D+00  7.43D-01  3.01D-01  7.97D-01
 E= -916.703850169626     Delta-E=       -0.010785328511 Rises=F Damp=F
 DIIS: error= 6.86D-04 at cycle   6 NSaved=   6.
 NSaved= 6 IEnMin= 6 EnMin= -916.703850169626     IErMin= 6 ErrMin= 6.86D-04
 ErrMax= 6.86D-04  0.00D+00 EMaxC= 1.00D-01 BMatC= 1.19D-04 BMatP= 1.20D-02
 IDIUse=3 WtCom= 9.93D-01 WtEn= 6.86D-03
 Coeff-Com:  0.153D-02-0.244D-02 0.137D+00-0.596D-01 0.466D+00 0.458D+00
 Coeff-En:   0.000D+00 0.000D+00 0.000D+00 0.000D+00 0.000D+00 0.100D+01
 Coeff:      0.152D-02-0.242D-02 0.136D+00-0.592D-01 0.462D+00 0.462D+00
 Gap=     0.170 Goal=   None    Shift=    0.000
 RMSDP=4.05D-05 MaxDP=1.85D-03 DE=-1.08D-02 OVMax= 4.29D-03

 Cycle   7  Pass 0  IDiag  1:
 RMSU=  1.59D-05    CP:  9.42D-01  1.19D+00  7.43D-01  3.05D-01  8.56D-01
                    CP:  5.57D-01
 E= -916.703990135976     Delta-E=       -0.000139966351 Rises=F Damp=F
 DIIS: error= 1.19D-04 at cycle   7 NSaved=   7.
 NSaved= 7 IEnMin= 7 EnMin= -916.703990135976     IErMin= 7 ErrMin= 1.19D-04
 ErrMax= 1.19D-04  0.00D+00 EMaxC= 1.00D-01 BMatC= 5.09D-06 BMatP= 1.19D-04
 IDIUse=3 WtCom= 9.99D-01 WtEn= 1.19D-03
 Coeff-Com:  0.657D-03-0.154D-02 0.594D-01-0.318D-01 0.222D+00 0.254D+00
 Coeff-Com:  0.498D+00
 Coeff-En:   0.000D+00 0.000D+00 0.000D+00 0.000D+00 0.000D+00 0.000D+00
 Coeff-En:   0.100D+01
 Coeff:      0.657D-03-0.154D-02 0.594D-01-0.317D-01 0.221D+00 0.254D+00
 Coeff:      0.498D+00
 Gap=     0.170 Goal=   None    Shift=    0.000
 RMSDP=7.90D-06 MaxDP=4.23D-04 DE=-1.40D-04 OVMax= 7.21D-04

 Initial convergence to 1.0D-05 achieved.  Increase integral accuracy.
 Cycle   8  Pass 1  IDiag  1:
 E= -916.704001722317     Delta-E=       -0.000011586340 Rises=F Damp=F
 DIIS: error= 1.20D-04 at cycle   1 NSaved=   1.
 NSaved= 1 IEnMin= 1 EnMin= -916.704001722317     IErMin= 1 ErrMin= 1.20D-04
 ErrMax= 1.20D-04  0.00D+00 EMaxC= 1.00D-01 BMatC= 4.33D-06 BMatP= 4.33D-06
 IDIUse=3 WtCom= 9.99D-01 WtEn= 1.20D-03
 Coeff-Com:  0.100D+01
 Coeff-En:   0.100D+01
 Coeff:      0.100D+01
 Gap=     0.170 Goal=   None    Shift=    0.000
 RMSDP=7.90D-06 MaxDP=4.23D-04 DE=-1.16D-05 OVMax= 8.46D-04

 Cycle   9  Pass 1  IDiag  1:
 RMSU=  1.12D-04    CP:  1.00D+00
 E= -916.704003376991     Delta-E=       -0.000001654675 Rises=F Damp=F
 DIIS: error= 7.44D-05 at cycle   2 NSaved=   2.
 NSaved= 2 IEnMin= 2 EnMin= -916.704003376991     IErMin= 2 ErrMin= 7.44D-05
 ErrMax= 7.44D-05  0.00D+00 EMaxC= 1.00D-01 BMatC= 2.82D-06 BMatP= 4.33D-06
 IDIUse=1 WtCom= 1.00D+00 WtEn= 0.00D+00
 Coeff-Com:  0.422D+00 0.578D+00
 Coeff:      0.422D+00 0.578D+00
 Gap=     0.170 Goal=   None    Shift=    0.000
 RMSDP=1.02D-05 MaxDP=4.90D-04 DE=-1.65D-06 OVMax= 9.97D-04

 Cycle  10  Pass 1  IDiag  1:
 RMSU=  1.01D-05    CP:  1.00D+00  1.01D+00
 E= -916.704004282876     Delta-E=       -0.000000905885 Rises=F Damp=F
 DIIS: error= 6.56D-05 at cycle   3 NSaved=   3.
 NSaved= 3 IEnMin= 3 EnMin= -916.704004282876     IErMin= 3 ErrMin= 6.56D-05
 ErrMax= 6.56D-05  0.00D+00 EMaxC= 1.00D-01 BMatC= 1.90D-06 BMatP= 2.82D-06
 IDIUse=1 WtCom= 1.00D+00 WtEn= 0.00D+00
 Coeff-Com:  0.208D-02 0.450D+00 0.548D+00
 Coeff:      0.208D-02 0.450D+00 0.548D+00
 Gap=     0.170 Goal=   None    Shift=    0.000
 RMSDP=4.75D-06 MaxDP=2.14D-04 DE=-9.06D-07 OVMax= 5.19D-04

 Cycle  11  Pass 1  IDiag  1:
 RMSU=  1.18D-06    CP:  1.00D+00  1.02D+00  5.58D-01
 E= -916.704006101370     Delta-E=       -0.000001818494 Rises=F Damp=F
 DIIS: error= 1.36D-05 at cycle   4 NSaved=   4.
 NSaved= 4 IEnMin= 4 EnMin= -916.704006101370     IErMin= 4 ErrMin= 1.36D-05
 ErrMax= 1.36D-05  0.00D+00 EMaxC= 1.00D-01 BMatC= 4.83D-08 BMatP= 1.90D-06
 IDIUse=1 WtCom= 1.00D+00 WtEn= 0.00D+00
 Coeff-Com: -0.479D-02 0.284D+00 0.357D+00 0.364D+00
 Coeff:     -0.479D-02 0.284D+00 0.357D+00 0.364D+00
 Gap=     0.170 Goal=   None    Shift=    0.000
 RMSDP=7.19D-07 MaxDP=3.44D-05 DE=-1.82D-06 OVMax= 7.82D-05

 Cycle  12  Pass 1  IDiag  1:
 RMSU=  3.69D-07    CP:  1.00D+00  1.02D+00  5.72D-01  4.92D-01
 E= -916.704006154068     Delta-E=       -0.000000052697 Rises=F Damp=F
 DIIS: error= 1.00D-06 at cycle   5 NSaved=   5.
 NSaved= 5 IEnMin= 5 EnMin= -916.704006154068     IErMin= 5 ErrMin= 1.00D-06
 ErrMax= 1.00D-06  0.00D+00 EMaxC= 1.00D-01 BMatC= 5.03D-10 BMatP= 4.83D-08
 IDIUse=1 WtCom= 1.00D+00 WtEn= 0.00D+00
 Coeff-Com: -0.264D-02 0.144D+00 0.180D+00 0.198D+00 0.481D+00
 Coeff:     -0.264D-02 0.144D+00 0.180D+00 0.198D+00 0.481D+00
 Gap=     0.170 Goal=   None    Shift=    0.000
 RMSDP=9.31D-08 MaxDP=3.38D-06 DE=-5.27D-08 OVMax= 8.10D-06

 Cycle  13  Pass 1  IDiag  1:
 RMSU=  8.32D-08    CP:  1.00D+00  1.02D+00  5.71D-01  5.09D-01  9.07D-01
 E= -916.704006154526     Delta-E=       -0.000000000458 Rises=F Damp=F
 DIIS: error= 4.58D-07 at cycle   6 NSaved=   6.
 NSaved= 6 IEnMin= 6 EnMin= -916.704006154526     IErMin= 6 ErrMin= 4.58D-07
 ErrMax= 4.58D-07  0.00D+00 EMaxC= 1.00D-01 BMatC= 6.05D-11 BMatP= 5.03D-10
 IDIUse=1 WtCom= 1.00D+00 WtEn= 0.00D+00
 Coeff-Com: -0.884D-03 0.450D-01 0.561D-01 0.655D-01 0.281D+00 0.553D+00
 Coeff:     -0.884D-03 0.450D-01 0.561D-01 0.655D-01 0.281D+00 0.553D+00
 Gap=     0.170 Goal=   None    Shift=    0.000
 RMSDP=3.43D-08 MaxDP=1.46D-06 DE=-4.58D-10 OVMax= 3.03D-06

 Cycle  14  Pass 1  IDiag  1:
 RMSU=  2.62D-08    CP:  1.00D+00  1.02D+00  5.71D-01  5.14D-01  9.37D-01
                    CP:  8.07D-01
 E= -916.704006154592     Delta-E=       -0.000000000065 Rises=F Damp=F
 DIIS: error= 1.28D-07 at cycle   7 NSaved=   7.
 NSaved= 7 IEnMin= 7 EnMin= -916.704006154592     IErMin= 7 ErrMin= 1.28D-07
 ErrMax= 1.28D-07  0.00D+00 EMaxC= 1.00D-01 BMatC= 8.89D-12 BMatP= 6.05D-11
 IDIUse=1 WtCom= 1.00D+00 WtEn= 0.00D+00
 Coeff-Com: -0.188D-03 0.837D-02 0.103D-01 0.132D-01 0.107D+00 0.329D+00
 Coeff-Com:  0.532D+00
 Coeff:     -0.188D-03 0.837D-02 0.103D-01 0.132D-01 0.107D+00 0.329D+00
 Coeff:      0.532D+00
 Gap=     0.170 Goal=   None    Shift=    0.000
 RMSDP=1.15D-08 MaxDP=4.01D-07 DE=-6.55D-11 OVMax= 9.79D-07

 Cycle  15  Pass 1  IDiag  1:
 RMSU=  7.94D-09    CP:  1.00D+00  1.02D+00  5.71D-01  5.15D-01  9.45D-01
                    CP:  8.36D-01  7.36D-01
 E= -916.704006154604     Delta-E=       -0.000000000012 Rises=F Damp=F
 DIIS: error= 3.77D-08 at cycle   8 NSaved=   8.
 NSaved= 8 IEnMin= 8 EnMin= -916.704006154604     IErMin= 8 ErrMin= 3.77D-08
 ErrMax= 3.77D-08  0.00D+00 EMaxC= 1.00D-01 BMatC= 6.43D-13 BMatP= 8.89D-12
 IDIUse=1 WtCom= 1.00D+00 WtEn= 0.00D+00
 Coeff-Com:  0.464D-04-0.290D-02-0.365D-02-0.408D-02 0.757D-02 0.685D-01
 Coeff-Com:  0.253D+00 0.681D+00
 Coeff:      0.464D-04-0.290D-02-0.365D-02-0.408D-02 0.757D-02 0.685D-01
 Coeff:      0.253D+00 0.681D+00
 Gap=     0.170 Goal=   None    Shift=    0.000
 RMSDP=3.62D-09 MaxDP=1.15D-07 DE=-1.18D-11 OVMax= 2.91D-07

 SCF Done:  E(RPBE1PBE) =  -916.704006155     A.U. after   15 cycles
            NFock= 15  Conv=0.36D-08     -V/T= 2.0100
 KE= 9.075988163042D+02 PE=-5.447327230796D+03 EE= 1.963277258593D+03
 Leave Link  502 at Thu Nov  3 08:06:04 2022, MaxMem=  4194304000 cpu:             772.9 elap:              96.7
 (Enter /software/gaussian/G16-A.03/avx/g16/l801.exe)
 DoSCS=F DFT=T ScalE2(SS,OS)=  1.000000  1.000000
 Range of M.O.s used for correlation:     1   388
 NBasis=   388 NAE=    76 NBE=    76 NFC=     0 NFV=     0
 NROrb=    388 NOA=    76 NOB=    76 NVA=   312 NVB=   312

 **** Warning!!: The largest alpha MO coefficient is  0.10688750D+02

 Leave Link  801 at Thu Nov  3 08:06:04 2022, MaxMem=  4194304000 cpu:               0.1 elap:               0.0
 (Enter /software/gaussian/G16-A.03/avx/g16/l1101.exe)
 Using compressed storage, NAtomX=    38.
 Will process     39 centers per pass.
   1 Symmetry operations used in ECPInt.
 ECPInt:  NShTT=   16290 NPrTT=   59674 LenC2=   14472 LenP2D=   36551.
 LDataN:  DoStor=T MaxTD1= 5 Len=  102
 R6Disp: Adding Grimme-D3(BJ) dispersion energy 1st derivatives to the gradient.
 Leave Link 1101 at Thu Nov  3 08:06:05 2022, MaxMem=  4194304000 cpu:               5.5 elap:               0.7
 (Enter /software/gaussian/G16-A.03/avx/g16/l1102.exe)
 Symmetrizing basis deriv contribution to polar:
 IMax=3 JMax=2 DiffMx= 0.00D+00
 Leave Link 1102 at Thu Nov  3 08:06:05 2022, MaxMem=  4194304000 cpu:               0.4 elap:               0.1
 (Enter /software/gaussian/G16-A.03/avx/g16/l1110.exe)
 Forming Gx(P) for the SCF density, NAtomX=    38.
 Integral derivatives from FoFJK, PRISM(SPDF).
 Do as many integral derivatives as possible in FoFJK.
 G2DrvN: MDV=    4194301128.
 G2DrvN: will do    39 centers at a time, making    1 passes.
 Calling FoFCou, ICntrl=  3107 FMM=F I1Cent=   0 AccDes= 0.00D+00.
 FoFJK:  IHMeth= 1 ICntrl=    3107 DoSepK=F KAlg= 0 I1Cent=           0 FoldK=F
 IRaf=         0 NMat=       1 IRICut=       1 DoRegI=T DoRafI=F ISym2E= 0 IDoP0=0 IntGTp=1.
 FoFCou: FMM=F IPFlag=           0 FMFlag=      100000 FMFlg1=           0
         NFxFlg=           0 DoJE=F BraDBF=F KetDBF=F FulRan=T
         wScrn=  0.000000 ICntrl=      3107 IOpCl=  0 I1Cent=           0 NGrid=           0
         NMat0=    1 NMatS0=      1 NMatT0=    0 NMatD0=    1 NMtDS0=    0 NMtDT0=    0
 Symmetry not used in FoFCou.
 End of G2Drv F.D. properties file   721 does not exist.
 End of G2Drv F.D. properties file   722 does not exist.
 End of G2Drv F.D. properties file   788 does not exist.
 Leave Link 1110 at Thu Nov  3 08:11:07 2022, MaxMem=  4194304000 cpu:            2414.6 elap:             301.9
 (Enter /software/gaussian/G16-A.03/avx/g16/l1002.exe)
 Minotr:  Closed shell wavefunction.
          IDoAtm=11111111111111111111111111111111111111
          Direct CPHF calculation.
          Differentiating once with respect to electric field.
                with respect to dipole field.
          Differentiating once with respect to nuclear coordinates.
          Requested convergence is 1.0D-08 RMS, and 1.0D-07 maximum.
          Secondary convergence is 1.0D-12 RMS, and 1.0D-12 maximum.
          NewPWx=T KeepS1=F KeepF1=F KeepIn=T MapXYZ=F SortEE=F KeepMc=T.
        11486 words used for storage of precomputed grid.
 Keep R1 ints in memory in canonical form, NReq=2882327702.
 FoFCou: FMM=F IPFlag=           0 FMFlag=           0 FMFlg1=           0
         NFxFlg=           0 DoJE=F BraDBF=F KetDBF=F FulRan=T
         wScrn=  0.000000 ICntrl=       600 IOpCl=  0 I1Cent=           0 NGrid=           0
         NMat0=    1 NMatS0=  75466 NMatT0=    0 NMatD0=    1 NMtDS0=    0 NMtDT0=    0
 Symmetry not used in FoFCou.
 Two-electron integral symmetry not used.
          MDV=    4194304000 using IRadAn=       1.
          Solving linear equations simultaneously, MaxMat=       0.
          There are   117 degrees of freedom in the 1st order CPHF.  IDoFFX=6 NUNeed=     3.
    114 vectors produced by pass  0 Test12= 2.37D-14 1.00D-09 XBig12= 3.12D+02 9.85D+00.
 AX will form   114 AO Fock derivatives at one time.
    114 vectors produced by pass  1 Test12= 2.37D-14 1.00D-09 XBig12= 7.21D+01 1.54D+00.
    114 vectors produced by pass  2 Test12= 2.37D-14 1.00D-09 XBig12= 8.29D-01 1.44D-01.
    114 vectors produced by pass  3 Test12= 2.37D-14 1.00D-09 XBig12= 4.70D-03 5.35D-03.
    114 vectors produced by pass  4 Test12= 2.37D-14 1.00D-09 XBig12= 1.45D-05 2.93D-04.
    102 vectors produced by pass  5 Test12= 2.37D-14 1.00D-09 XBig12= 2.19D-08 1.28D-05.
     37 vectors produced by pass  6 Test12= 2.37D-14 1.00D-09 XBig12= 2.68D-11 3.39D-07.
      3 vectors produced by pass  7 Test12= 2.37D-14 1.00D-09 XBig12= 2.42D-14 9.93D-09.
 InvSVY:  IOpt=1 It=  1 EMax= 1.60D-14
 Solved reduced A of dimension   712 with   117 vectors.
 FullF1:  Do perturbations      1 to       3.
 Isotropic polarizability for W=    0.000000      220.26 Bohr**3.
 End of Minotr F.D. properties file   721 does not exist.
 End of Minotr F.D. properties file   722 does not exist.
 End of Minotr F.D. properties file   788 does not exist.
 Leave Link 1002 at Thu Nov  3 08:17:55 2022, MaxMem=  4194304000 cpu:            3267.4 elap:             408.5
 (Enter /software/gaussian/G16-A.03/avx/g16/l601.exe)
 Copying SCF densities to generalized density rwf, IOpCl= 0 IROHF=0.

 **********************************************************************

            Population analysis using the SCF density.

 **********************************************************************

 Orbital symmetries:
       Occupied  (A) (A) (A) (A) (A) (A) (A) (A) (A) (A) (A) (A)
                 (A) (A) (A) (A) (A) (A) (A) (A) (A) (A) (A) (A)
                 (A) (A) (A) (A) (A) (A) (A) (A) (A) (A) (A) (A)
                 (A) (A) (A) (A) (A) (A) (A) (A) (A) (A) (A) (A)
                 (A) (A) (A) (A) (A) (A) (A) (A) (A) (A) (A) (A)
                 (A) (A) (A) (A) (A) (A) (A) (A) (A) (A) (A) (A)
                 (A) (A) (A) (A)
       Virtual   (A) (A) (A) (A) (A) (A) (A) (A) (A) (A) (A) (A)
                 (A) (A) (A) (A) (A) (A) (A) (A) (A) (A) (A) (A)
                 (A) (A) (A) (A) (A) (A) (A) (A) (A) (A) (A) (A)
                 (A) (A) (A) (A) (A) (A) (A) (A) (A) (A) (A) (A)
                 (A) (A) (A) (A) (A) (A) (A) (A) (A) (A) (A) (A)
                 (A) (A) (A) (A) (A) (A) (A) (A) (A) (A) (A) (A)
                 (A) (A) (A) (A) (A) (A) (A) (A) (A) (A) (A) (A)
                 (A) (A) (A) (A) (A) (A) (A) (A) (A) (A) (A) (A)
                 (A) (A) (A) (A) (A) (A) (A) (A) (A) (A) (A) (A)
                 (A) (A) (A) (A) (A) (A) (A) (A) (A) (A) (A) (A)
                 (A) (A) (A) (A) (A) (A) (A) (A) (A) (A) (A) (A)
                 (A) (A) (A) (A) (A) (A) (A) (A) (A) (A) (A) (A)
                 (A) (A) (A) (A) (A) (A) (A) (A) (A) (A) (A) (A)
                 (A) (A) (A) (A) (A) (A) (A) (A) (A) (A) (A) (A)
                 (A) (A) (A) (A) (A) (A) (A) (A) (A) (A) (A) (A)
                 (A) (A) (A) (A) (A) (A) (A) (A) (A) (A) (A) (A)
                 (A) (A) (A) (A) (A) (A) (A) (A) (A) (A) (A) (A)
                 (A) (A) (A) (A) (A) (A) (A) (A) (A) (A) (A) (A)
                 (A) (A) (A) (A) (A) (A) (A) (A) (A) (A) (A) (A)
                 (A) (A) (A) (A) (A) (A) (A) (A) (A) (A) (A) (A)
                 (A) (A) (A) (A) (A) (A) (A) (A) (A) (A) (A) (A)
                 (A) (A) (A) (A) (A) (A) (A) (A) (A) (A) (A) (A)
                 (A) (A) (A) (A) (A) (A) (A) (A) (A) (A) (A) (A)
                 (A) (A) (A) (A) (A) (A) (A) (A) (A) (A) (A) (A)
                 (A) (A) (A) (A) (A) (A) (A) (A) (A) (A) (A) (A)
                 (A) (A) (A) (A) (A) (A) (A) (A) (A) (A) (A) (A)
 The electronic state is 1-A.
 Alpha  occ. eigenvalues --  -19.24280 -14.38215 -14.35648 -10.31474 -10.28659
 Alpha  occ. eigenvalues --  -10.28209 -10.27381 -10.27254 -10.26141 -10.25748
 Alpha  occ. eigenvalues --  -10.25719 -10.25433 -10.25186 -10.25026 -10.24959
 Alpha  occ. eigenvalues --  -10.23875 -10.23286 -10.23212 -10.23194 -10.23166
 Alpha  occ. eigenvalues --  -10.22985 -10.22657  -1.11715  -0.96563  -0.91629
 Alpha  occ. eigenvalues --   -0.88135  -0.86930  -0.83868  -0.81117  -0.77661
 Alpha  occ. eigenvalues --   -0.77292  -0.75658  -0.74357  -0.71358  -0.66815
 Alpha  occ. eigenvalues --   -0.65502  -0.64390  -0.63547  -0.61078  -0.58141
 Alpha  occ. eigenvalues --   -0.57955  -0.54848  -0.54159  -0.52932  -0.52766
 Alpha  occ. eigenvalues --   -0.50389  -0.49598  -0.47930  -0.46943  -0.46103
 Alpha  occ. eigenvalues --   -0.45311  -0.44733  -0.44453  -0.43908  -0.43001
 Alpha  occ. eigenvalues --   -0.42468  -0.41923  -0.41317  -0.40267  -0.39935
 Alpha  occ. eigenvalues --   -0.38799  -0.37820  -0.37494  -0.37181  -0.36129
 Alpha  occ. eigenvalues --   -0.35878  -0.34669  -0.33846  -0.32361  -0.28045
 Alpha  occ. eigenvalues --   -0.27348  -0.26697  -0.26084  -0.25700  -0.24257
 Alpha  occ. eigenvalues --   -0.23802
 Alpha virt. eigenvalues --   -0.06785  -0.02216  -0.00780  -0.00162   0.00537
 Alpha virt. eigenvalues --    0.06245   0.07008   0.07536   0.08911   0.09247
 Alpha virt. eigenvalues --    0.10059   0.10640   0.11592   0.12548   0.12750
 Alpha virt. eigenvalues --    0.13413   0.13855   0.14167   0.14840   0.15366
 Alpha virt. eigenvalues --    0.15508   0.16660   0.16948   0.17647   0.19518
 Alpha virt. eigenvalues --    0.20166   0.21458   0.22343   0.22681   0.24427
 Alpha virt. eigenvalues --    0.26158   0.26378   0.27709   0.28028   0.28924
 Alpha virt. eigenvalues --    0.30457   0.30890   0.31031   0.31763   0.32333
 Alpha virt. eigenvalues --    0.32818   0.34144   0.35083   0.35620   0.36813
 Alpha virt. eigenvalues --    0.37890   0.38795   0.39822   0.41340   0.42086
 Alpha virt. eigenvalues --    0.43388   0.43740   0.44158   0.44922   0.45413
 Alpha virt. eigenvalues --    0.46244   0.46758   0.47088   0.47356   0.48139
 Alpha virt. eigenvalues --    0.49609   0.49928   0.50411   0.50652   0.50800
 Alpha virt. eigenvalues --    0.51557   0.52103   0.52821   0.54302   0.55625
 Alpha virt. eigenvalues --    0.55862   0.56380   0.57526   0.57738   0.57913
 Alpha virt. eigenvalues --    0.59104   0.59896   0.60713   0.61232   0.62014
 Alpha virt. eigenvalues --    0.62333   0.62616   0.63881   0.64188   0.64709
 Alpha virt. eigenvalues --    0.65454   0.65769   0.66056   0.66584   0.67069
 Alpha virt. eigenvalues --    0.67235   0.67633   0.67867   0.68403   0.69074
 Alpha virt. eigenvalues --    0.70084   0.70374   0.71013   0.71268   0.72087
 Alpha virt. eigenvalues --    0.72610   0.73344   0.73897   0.73967   0.75077
 Alpha virt. eigenvalues --    0.75892   0.76311   0.76651   0.77039   0.77309
 Alpha virt. eigenvalues --    0.77821   0.79630   0.80115   0.81785   0.82706
 Alpha virt. eigenvalues --    0.83520   0.83758   0.84225   0.86071   0.88328
 Alpha virt. eigenvalues --    0.89066   0.90284   0.91084   0.92230   0.94310
 Alpha virt. eigenvalues --    0.97366   0.98223   1.00524   1.02011   1.03435
 Alpha virt. eigenvalues --    1.06043   1.06347   1.07852   1.09274   1.10303
 Alpha virt. eigenvalues --    1.13320   1.15442   1.16925   1.18141   1.18947
 Alpha virt. eigenvalues --    1.20073   1.20988   1.21331   1.23209   1.23782
 Alpha virt. eigenvalues --    1.24965   1.25492   1.26128   1.26562   1.27410
 Alpha virt. eigenvalues --    1.27784   1.28668   1.29207   1.31255   1.31955
 Alpha virt. eigenvalues --    1.32448   1.34041   1.35106   1.35893   1.36541
 Alpha virt. eigenvalues --    1.38120   1.39904   1.40811   1.44218   1.45447
 Alpha virt. eigenvalues --    1.47966   1.51732   1.53103   1.53855   1.56159
 Alpha virt. eigenvalues --    1.57330   1.57509   1.61601   1.65651   1.66631
 Alpha virt. eigenvalues --    1.67373   1.67695   1.68276   1.69496   1.70369
 Alpha virt. eigenvalues --    1.71117   1.71658   1.72509   1.73055   1.73454
 Alpha virt. eigenvalues --    1.74130   1.74766   1.75147   1.75531   1.75978
 Alpha virt. eigenvalues --    1.77229   1.77608   1.78344   1.78404   1.78844
 Alpha virt. eigenvalues --    1.80409   1.80614   1.80753   1.81600   1.82269
 Alpha virt. eigenvalues --    1.83269   1.83731   1.84019   1.86163   1.87988
 Alpha virt. eigenvalues --    1.89202   1.90386   1.90734   1.92536   1.93148
 Alpha virt. eigenvalues --    1.94749   1.94984   1.95040   1.96036   1.96900
 Alpha virt. eigenvalues --    1.98039   1.98747   1.99665   2.00325   2.00940
 Alpha virt. eigenvalues --    2.01293   2.01772   2.02560   2.04889   2.06254
 Alpha virt. eigenvalues --    2.07729   2.08295   2.10697   2.12144   2.12913
 Alpha virt. eigenvalues --    2.13567   2.14135   2.15874   2.17568   2.17931
 Alpha virt. eigenvalues --    2.18363   2.18723   2.20494   2.21713   2.23266
 Alpha virt. eigenvalues --    2.25002   2.26363   2.29503   2.30459   2.31012
 Alpha virt. eigenvalues --    2.31319   2.31992   2.32929   2.33635   2.36364
 Alpha virt. eigenvalues --    2.37445   2.38315   2.39130   2.41491   2.41790
 Alpha virt. eigenvalues --    2.43228   2.44140   2.46595   2.48724   2.48863
 Alpha virt. eigenvalues --    2.50532   2.51163   2.54231   2.57358   2.58801
 Alpha virt. eigenvalues --    2.59615   2.62201   2.62801   2.64358   2.64602
 Alpha virt. eigenvalues --    2.65631   2.66838   2.68720   2.72728   2.73506
 Alpha virt. eigenvalues --    2.74282   2.74852   2.75468   2.75620   2.76500
 Alpha virt. eigenvalues --    2.78355   2.82142   2.83634   2.84082   2.88416
 Alpha virt. eigenvalues --    2.89853   2.90016   2.90778   2.91933   2.95654
 Alpha virt. eigenvalues --    2.95914   2.96912   2.97389   2.99644   3.01684
 Alpha virt. eigenvalues --    3.02846   3.04854   3.08353   3.09135   3.11518
 Alpha virt. eigenvalues --    3.15137   3.15778   3.16512   3.20506   3.27286
 Alpha virt. eigenvalues --    3.31360   3.32320   3.42672   3.57132   3.66144
 Alpha virt. eigenvalues --    3.66719   3.68571
     Molecular Orbital Coefficients:
                          72        73        74        75        76
                           O         O         O         O         O
     Eigenvalues --    -0.26697  -0.26084  -0.25700  -0.24257  -0.23802
   1 1   C  1S         -0.01921   0.00762  -0.00171   0.00046  -0.02583
   2        2S          0.04845  -0.01992   0.00394   0.00355   0.06395
   3        3S          0.07620  -0.01128   0.01028  -0.01423   0.11094
   4        4PX         0.02335  -0.01363   0.00546  -0.01537   0.04070
   5        4PY         0.01929  -0.02609   0.00122  -0.00383   0.04595
   6        4PZ        -0.09460   0.02293  -0.00371   0.01562  -0.09881
   7        5PX        -0.01957  -0.01336  -0.01244  -0.03551   0.00353
   8        5PY         0.01349  -0.02464  -0.00958   0.00517   0.02586
   9        5PZ        -0.06766   0.00644  -0.00446   0.03180  -0.07530
  10        6D 0        0.00286  -0.00110   0.00138  -0.00249   0.00370
  11        6D+1       -0.00037  -0.00008  -0.00023  -0.00136  -0.00039
  12        6D-1       -0.00275   0.00089   0.00130  -0.00243  -0.00239
  13        6D+2       -0.00098   0.00011  -0.00080   0.00044  -0.00143
  14        6D-2       -0.00184   0.00000  -0.00158   0.00141  -0.00167
  15 2   C  1S         -0.00178  -0.00127  -0.00798  -0.02378  -0.00120
  16        2S          0.00212   0.00506   0.01737   0.05564   0.00211
  17        3S          0.01191  -0.01495   0.05724   0.13760   0.01435
  18        4PX         0.00784  -0.00061   0.00557   0.08838   0.02457
  19        4PY        -0.01257  -0.00833  -0.04207   0.09791   0.01021
  20        4PZ         0.08119  -0.03630  -0.02407   0.00803   0.10076
  21        5PX         0.05451   0.00301   0.00085   0.10330   0.01799
  22        5PY         0.04051   0.00929  -0.00463  -0.01124   0.06345
  23        5PZ         0.00778  -0.00720  -0.02436  -0.02818   0.00397
  24        6D 0        0.00539  -0.00182   0.00001  -0.00454   0.00561
  25        6D+1       -0.01057   0.00048  -0.00854  -0.00298  -0.00910
  26        6D-1       -0.00584   0.00319   0.00209  -0.00536  -0.01134
  27        6D+2       -0.00445  -0.00314  -0.00983   0.01467   0.00101
  28        6D-2        0.00092  -0.00229  -0.00531  -0.00225   0.00871
  29 3   C  1S          0.00111  -0.00443  -0.01640   0.01971   0.01888
  30        2S         -0.00904   0.01142   0.03763  -0.04726  -0.05233
  31        3S          0.02077   0.02497   0.05875  -0.14584  -0.02659
  32        4PX        -0.01012  -0.00227  -0.03395   0.01920   0.01176
  33        4PY         0.04186   0.00780   0.06202  -0.08344  -0.04570
  34        4PZ        -0.09182   0.05314   0.02109  -0.05360  -0.06950
  35        5PX         0.00173   0.00334  -0.00032   0.02674   0.00915
  36        5PY         0.00280   0.01923   0.02586  -0.08214  -0.02317
  37        5PZ        -0.01147   0.03355   0.00192  -0.07169  -0.01668
  38        6D 0        0.00669  -0.00130   0.00384  -0.00192   0.00199
  39        6D+1        0.01339  -0.00433  -0.00253  -0.00012   0.00705
  40        6D-1       -0.00195   0.00104   0.00235  -0.00010  -0.00336
  41        6D+2        0.00051  -0.00120  -0.00325  -0.00425   0.00034
  42        6D-2       -0.00599   0.00166   0.00151   0.00074  -0.00121
  43 4   O  1S         -0.00168   0.00188   0.00335  -0.01389  -0.00124
  44        2S         -0.00354   0.00432   0.00693  -0.03240  -0.00022
  45        3S         -0.02081   0.00707  -0.00212  -0.06067  -0.02180
  46        4PX         0.02850   0.00421   0.05187   0.00381   0.00229
  47        4PY        -0.16662   0.04208  -0.02322  -0.08351  -0.07691
  48        4PZ         0.27639  -0.08581  -0.05600  -0.07627   0.15980
  49        5PX         0.02627   0.00451   0.04342  -0.00086   0.00138
  50        5PY        -0.13296   0.03382  -0.01633  -0.06686  -0.07178
  51        5PZ         0.21928  -0.06885  -0.04344  -0.05924   0.13836
  52        6D 0        0.00507  -0.00140   0.00038   0.00027   0.00098
  53        6D+1       -0.00256   0.00041   0.00156   0.00194  -0.00068
  54        6D-1        0.00326  -0.00142  -0.00113  -0.00071   0.00085
  55        6D+2        0.00222  -0.00057  -0.00016   0.00049  -0.00036
  56        6D-2        0.00175  -0.00061  -0.00082   0.00306   0.00160
  57 5   C  1S         -0.00815   0.00289  -0.00480  -0.03557  -0.00490
  58        2S          0.02247  -0.00778   0.01072   0.09065   0.01341
  59        3S          0.00961   0.00812   0.01809  -0.02564   0.01905
  60        4PX        -0.03110   0.01320  -0.01313  -0.01223  -0.02096
  61        4PY         0.08167  -0.01467   0.02052   0.01838   0.05957
  62        4PZ        -0.10549   0.02737   0.03880   0.04510  -0.13990
  63        5PX        -0.02992   0.02280  -0.00378  -0.06790  -0.03042
  64        5PY         0.02406   0.00522   0.00357  -0.03700   0.04192
  65        5PZ        -0.06154   0.01480   0.01159   0.00631  -0.10168
  66        6D 0       -0.01653   0.00436  -0.00173   0.00127  -0.02011
  67        6D+1       -0.00523   0.00281   0.00689  -0.00853   0.01506
  68        6D-1       -0.01615   0.00521   0.00111  -0.00764  -0.01295
  69        6D+2       -0.00661   0.00059  -0.00003   0.01911  -0.00162
  70        6D-2       -0.00449   0.00024  -0.00568  -0.00363  -0.00915
  71 6   N  1S         -0.01747   0.00351  -0.02444  -0.06957  -0.00516
  72        2S         -0.03281   0.00719  -0.05377  -0.14435  -0.00715
  73        3S         -0.10401   0.00874  -0.08269  -0.23750  -0.04876
  74        4PX         0.01938  -0.02037  -0.03977   0.07709   0.10420
  75        4PY        -0.05329  -0.00396   0.00787   0.30377  -0.10012
  76        4PZ         0.20969  -0.05062   0.07503   0.08459   0.28656
  77        5PX         0.00144   0.01938   0.02586  -0.02194  -0.06807
  78        5PY         0.05735   0.00114   0.00789  -0.18573   0.08138
  79        5PZ        -0.15399   0.03970  -0.05522  -0.05431  -0.22108
  80        6D 0        0.00870  -0.00205   0.00037  -0.00751   0.01235
  81        6D+1       -0.00392   0.00107   0.00100   0.00169  -0.00308
  82        6D-1        0.00700  -0.00148   0.00310   0.00772   0.00918
  83        6D+2        0.00216   0.00014  -0.00062  -0.00952   0.00461
  84        6D-2        0.00242  -0.00071  -0.00228   0.00501   0.00675
  85 7   N  1S          0.00096   0.01579   0.01129   0.08119   0.00192
  86        2S          0.00156   0.03369   0.02416   0.17425   0.00287
  87        3S          0.01178   0.03062   0.02411   0.19367   0.01844
  88        4PX        -0.01356   0.08784   0.06686   0.39751   0.02453
  89        4PY         0.03289  -0.00782  -0.01824   0.02680  -0.02303
  90        4PZ        -0.14639   0.04472   0.09958  -0.05858   0.10333
  91        5PX         0.01262  -0.06197  -0.04863  -0.26605  -0.01398
  92        5PY        -0.02333   0.00607   0.01245  -0.02734   0.01653
  93        5PZ         0.10204  -0.03145  -0.07504   0.03538  -0.08393
  94        6D 0       -0.00186   0.00242   0.00140   0.01104  -0.00113
  95        6D+1        0.00715  -0.00184  -0.00403   0.00414  -0.00356
  96        6D-1       -0.00057  -0.00108  -0.00303  -0.00079  -0.00516
  97        6D+2        0.00090  -0.00250  -0.00250  -0.01101  -0.00146
  98        6D-2       -0.00175   0.00047   0.00051  -0.00312   0.00013
  99 8   C  1S          0.00290   0.00465   0.00340   0.02338   0.00208
 100        2S         -0.00841  -0.01214  -0.00920  -0.06138  -0.00633
 101        3S         -0.00363   0.01313   0.01552   0.07838   0.02189
 102        4PX         0.01829   0.02425   0.01877   0.11774   0.01945
 103        4PY        -0.00849  -0.01257  -0.01347  -0.05113  -0.01631
 104        4PZ         0.07663  -0.01457   0.01698  -0.02624   0.08567
 105        5PX         0.01095  -0.02021  -0.00068  -0.04763  -0.00254
 106        5PY        -0.02313  -0.01003  -0.01172  -0.11759  -0.04384
 107        5PZ         0.05432  -0.00944   0.00096  -0.02473   0.03439
 108        6D 0        0.00384  -0.00157  -0.00369   0.00115  -0.00473
 109        6D+1        0.00171  -0.00116  -0.00083  -0.00353  -0.00015
 110        6D-1        0.01021  -0.00478  -0.00866  -0.00309  -0.01013
 111        6D+2        0.00320   0.00338   0.00049   0.02235  -0.00161
 112        6D-2        0.00079  -0.00205  -0.00253  -0.00673  -0.00092
 113 9   C  1S         -0.00160   0.00624   0.00629   0.01090  -0.00399
 114        2S          0.00745  -0.01636  -0.01510  -0.02767   0.01436
 115        3S         -0.04252  -0.03256  -0.04636  -0.07622  -0.06205
 116        4PX        -0.02418   0.00931   0.02986  -0.06843   0.00561
 117        4PY         0.02824  -0.02682  -0.04512  -0.05362  -0.05455
 118        4PZ        -0.14808   0.05576   0.13519  -0.02892   0.18466
 119        5PX        -0.04140   0.02018   0.01235  -0.14379  -0.01481
 120        5PY         0.04490  -0.04270  -0.03349  -0.12985  -0.05116
 121        5PZ        -0.10339   0.03530   0.10238  -0.03500   0.14276
 122        6D 0        0.00158  -0.00053  -0.00123   0.00009  -0.00364
 123        6D+1        0.00306  -0.00070   0.00038  -0.00179   0.00910
 124        6D-1        0.00525  -0.00131  -0.00208  -0.00133  -0.00272
 125        6D+2        0.00298   0.00032   0.00018   0.00612   0.00102
 126        6D-2       -0.00226   0.00033  -0.00102   0.00163  -0.00393
 127 10  C  1S         -0.00099  -0.00066   0.00024   0.00152   0.00006
 128        2S          0.00415   0.00043  -0.00075  -0.00413  -0.00042
 129        3S          0.02423  -0.00986   0.00478   0.01666   0.02114
 130        4PX        -0.01133   0.00512   0.00948   0.02288   0.01738
 131        4PY         0.03898  -0.00539  -0.00490   0.01101  -0.03317
 132        4PZ        -0.09417   0.03037   0.06690  -0.02384   0.13369
 133        5PX        -0.02116   0.01262   0.00006   0.07249   0.00845
 134        5PY         0.05001  -0.01257   0.00685   0.03334  -0.00943
 135        5PZ        -0.04295   0.01357   0.05243  -0.01908   0.12338
 136        6D 0       -0.00325   0.00137   0.00334  -0.00076   0.00480
 137        6D+1        0.00444  -0.00236  -0.00657   0.00014  -0.00883
 138        6D-1       -0.00394   0.00153   0.00388  -0.00135   0.00579
 139        6D+2       -0.00027   0.00043   0.00042   0.00306   0.00112
 140        6D-2       -0.00242   0.00089   0.00227  -0.00127   0.00269
 141 11  C  1S         -0.00040   0.00071   0.00039  -0.00110  -0.00037
 142        2S          0.00104  -0.00184  -0.00090   0.00110   0.00090
 143        3S          0.00003   0.00041   0.00231  -0.03802  -0.00685
 144        4PX         0.00339  -0.00583  -0.01200  -0.02744  -0.01635
 145        4PY        -0.01563   0.00604   0.01971  -0.01104   0.02881
 146        4PZ         0.04749  -0.03149  -0.09192   0.00941  -0.11588
 147        5PX        -0.00416   0.00255  -0.00914   0.01796  -0.01431
 148        5PY        -0.02021   0.01139   0.01382   0.00078   0.01433
 149        5PZ         0.02753  -0.02043  -0.06871   0.00601  -0.09716
 150        6D 0        0.00101  -0.00053  -0.00134   0.00010  -0.00168
 151        6D+1        0.00599  -0.00218  -0.00505   0.00143  -0.00923
 152        6D-1        0.00494  -0.00208  -0.00494   0.00045  -0.00770
 153        6D+2        0.00217  -0.00036  -0.00153   0.00235  -0.00291
 154        6D-2       -0.00155   0.00036   0.00016   0.00066   0.00151
 155 12  C  1S          0.00090   0.00294   0.00268   0.01306   0.00031
 156        2S         -0.00158  -0.00766  -0.00681  -0.03373  -0.00006
 157        3S          0.01277  -0.01960  -0.01101  -0.04166   0.02581
 158        4PX         0.01678   0.00361  -0.00722   0.04456  -0.02143
 159        4PY        -0.02803   0.00600   0.03026  -0.03525   0.04990
 160        4PZ         0.12444  -0.05335  -0.12802   0.01420  -0.19647
 161        5PX         0.00913   0.00336  -0.00634   0.02320  -0.02348
 162        5PY        -0.02504   0.00953   0.02019  -0.00820   0.04050
 163        5PZ         0.08863  -0.03770  -0.09441   0.01563  -0.15011
 164        6D 0        0.00044   0.00016   0.00095  -0.00030   0.00123
 165        6D+1       -0.00322   0.00099   0.00254  -0.00132   0.00306
 166        6D-1       -0.00035   0.00072   0.00314  -0.00134   0.00407
 167        6D+2       -0.00025   0.00152   0.00196   0.00560   0.00179
 168        6D-2        0.00071  -0.00035  -0.00040  -0.00046  -0.00037
 169 13  C  1S         -0.00117  -0.00402  -0.00235  -0.02156  -0.00150
 170        2S          0.00250   0.01103   0.00647   0.05643   0.00377
 171        3S          0.00431   0.01772   0.00145   0.05457   0.00230
 172        4PX         0.00154  -0.02810  -0.01677  -0.13152  -0.00908
 173        4PY        -0.01704   0.00172   0.00048  -0.00703  -0.00070
 174        4PZ         0.06238  -0.00676  -0.00377   0.02378  -0.00576
 175        5PX        -0.00011  -0.02309  -0.00561  -0.10463  -0.01170
 176        5PY        -0.00547  -0.01019  -0.00922  -0.03466   0.01704
 177        5PZ         0.04677  -0.00665  -0.00084   0.01307   0.01465
 178        6D 0       -0.00310   0.00136   0.00348  -0.00050   0.00529
 179        6D+1       -0.00263   0.00026  -0.00161   0.00079  -0.00602
 180        6D-1       -0.00818   0.00275   0.00663  -0.00268   0.00874
 181        6D+2       -0.00205   0.00137   0.00191   0.00245   0.00189
 182        6D-2       -0.00093   0.00136   0.00191   0.00313   0.00227
 183 14  C  1S          0.00087   0.00035   0.00032   0.00201   0.00108
 184        2S         -0.00261  -0.00038  -0.00059  -0.00380  -0.00352
 185        3S         -0.00779   0.01721   0.01607   0.08197  -0.01319
 186        4PX        -0.01347   0.01166   0.01518   0.02242   0.01537
 187        4PY         0.03432  -0.01198  -0.02331   0.00665  -0.02193
 188        4PZ        -0.13612   0.04785   0.10014  -0.02296   0.10693
 189        5PX        -0.00771   0.00237   0.00398  -0.01015   0.01426
 190        5PY         0.02195  -0.00934  -0.01505   0.00333  -0.01408
 191        5PZ        -0.09482   0.03374   0.07010  -0.01458   0.07255
 192        6D 0       -0.00386   0.00094   0.00165  -0.00099   0.00174
 193        6D+1        0.00349  -0.00136  -0.00259  -0.00022  -0.00262
 194        6D-1       -0.00754   0.00157   0.00277  -0.00248   0.00294
 195        6D+2       -0.00116   0.00175   0.00133   0.00651   0.00075
 196        6D-2       -0.00169   0.00055   0.00091   0.00011   0.00099
 197 15  C  1S          0.00006  -0.00534  -0.00392  -0.02579  -0.00089
 198        2S         -0.00051   0.01416   0.01036   0.06849   0.00204
 199        3S          0.00465   0.01590   0.00820   0.08588   0.00794
 200        4PX        -0.01933  -0.02315  -0.01046  -0.13147   0.00278
 201        4PY         0.03574  -0.01350  -0.01969  -0.01254  -0.01475
 202        4PZ        -0.16470   0.04788   0.07854  -0.00978   0.06700
 203        5PX        -0.01416  -0.01708  -0.00871  -0.10932   0.00306
 204        5PY         0.02522  -0.00023  -0.00533   0.04657  -0.01445
 205        5PZ        -0.12494   0.03926   0.06514   0.00477   0.05900
 206        6D 0        0.00261  -0.00085  -0.00210   0.00144  -0.00261
 207        6D+1       -0.00277   0.00147   0.00399  -0.00151   0.00553
 208        6D-1        0.00495  -0.00182  -0.00344  -0.00001  -0.00354
 209        6D+2        0.00103   0.00048   0.00013   0.00318  -0.00001
 210        6D-2        0.00112  -0.00090  -0.00157  -0.00223  -0.00167
 211 16  C  1S          0.00038   0.00507   0.00394   0.02635   0.00104
 212        2S         -0.00158  -0.01234  -0.00944  -0.06665  -0.00347
 213        3S         -0.00261  -0.00478  -0.00462  -0.02956  -0.00291
 214        4PX         0.00230   0.02354   0.01198   0.11428  -0.00425
 215        4PY         0.00076   0.01449   0.01905   0.06282   0.01811
 216        4PZ         0.00697  -0.01778  -0.05476   0.01262  -0.08467
 217        5PX         0.00284  -0.00789  -0.00910  -0.04011  -0.00722
 218        5PY        -0.00301  -0.00174   0.00234  -0.02986   0.01238
 219        5PZ         0.01755  -0.01703  -0.04779   0.00882  -0.07091
 220        6D 0       -0.00094   0.00048   0.00096  -0.00034   0.00097
 221        6D+1       -0.01013   0.00327   0.00578  -0.00057   0.00543
 222        6D-1       -0.00782   0.00157   0.00464  -0.00728   0.00530
 223        6D+2       -0.00266   0.00522   0.00467   0.02070   0.00246
 224        6D-2        0.00131   0.00255   0.00138   0.01500  -0.00008
 225 17  C  1S          0.01078  -0.00307   0.00266  -0.00997   0.01550
 226        2S         -0.02449   0.00936   0.00035   0.03252  -0.03735
 227        3S         -0.06260  -0.00582  -0.06301  -0.00850  -0.10584
 228        4PX         0.02386   0.03085   0.10333   0.01465  -0.09381
 229        4PY         0.12872   0.04219   0.21278  -0.04146  -0.05007
 230        4PZ         0.05223   0.04735   0.14618  -0.00192  -0.09067
 231        5PX        -0.01178   0.02344   0.05690   0.00846  -0.11668
 232        5PY         0.05443   0.02638   0.15575  -0.06109  -0.04728
 233        5PZ         0.07139   0.03286   0.10100   0.02498  -0.02679
 234        6D 0        0.00393   0.01272  -0.00634  -0.00070   0.00349
 235        6D+1       -0.00087  -0.00143  -0.00420   0.00139   0.00258
 236        6D-1        0.00115   0.00888  -0.00122  -0.00105  -0.00093
 237        6D+2       -0.00215  -0.00255  -0.00423   0.00376   0.00425
 238        6D-2       -0.00158  -0.01105   0.00173  -0.00076   0.00243
 239 18  C  1S          0.00282   0.00074   0.00010  -0.00084   0.00389
 240        2S         -0.00700  -0.00478   0.00350   0.00681  -0.01157
 241        3S          0.04781   0.02237  -0.01019   0.03773   0.05061
 242        4PX        -0.02183  -0.09266   0.09720   0.00608  -0.06981
 243        4PY        -0.00770  -0.16561   0.16131   0.00286  -0.07690
 244        4PZ         0.02404  -0.14436   0.14193  -0.01242  -0.03629
 245        5PX        -0.01382  -0.07069   0.06614  -0.02921  -0.03803
 246        5PY        -0.02425  -0.11015   0.10745  -0.00093  -0.08397
 247        5PZ         0.03878  -0.09439   0.10260   0.00309   0.01280
 248        6D 0        0.00577   0.00593   0.00965  -0.00164  -0.00462
 249        6D+1        0.00350   0.00730   0.00254  -0.00082  -0.00101
 250        6D-1        0.00067  -0.00160   0.00289  -0.00089  -0.00140
 251        6D+2        0.00535   0.01024   0.00419  -0.00231  -0.00101
 252        6D-2       -0.00080   0.00176  -0.00410  -0.00092   0.00190
 253 19  C  1S         -0.00025   0.00023   0.00026  -0.00083  -0.00079
 254        2S          0.00066  -0.00167  -0.00060   0.00225   0.00408
 255        3S          0.00288  -0.00781   0.00366  -0.03433   0.00804
 256        4PX        -0.04651  -0.13459  -0.01613   0.01821   0.01502
 257        4PY        -0.07822  -0.21416  -0.02163   0.02313   0.01884
 258        4PZ        -0.07784  -0.18274  -0.02275   0.02756   0.00981
 259        5PX        -0.03251  -0.09617  -0.00632   0.02138   0.01321
 260        5PY        -0.05290  -0.14792  -0.01523   0.02767   0.01212
 261        5PZ        -0.05435  -0.13319  -0.01501   0.00743  -0.00041
 262        6D 0       -0.00184  -0.00538  -0.00211   0.00043   0.00197
 263        6D+1        0.00171  -0.00447   0.00808  -0.00066  -0.00335
 264        6D-1       -0.00313   0.00060  -0.00635   0.00137   0.00179
 265        6D+2        0.00091  -0.00579   0.01179  -0.00019  -0.00688
 266        6D-2        0.00347   0.00023   0.00782  -0.00104  -0.00285
 267 20  C  1S          0.00243   0.00020   0.00041  -0.00069   0.00262
 268        2S         -0.00610  -0.00067  -0.00126   0.00143  -0.00558
 269        3S         -0.00872   0.00470   0.00433   0.02700  -0.01050
 270        4PX        -0.06189  -0.03051  -0.11802   0.01885   0.04682
 271        4PY        -0.08601  -0.05146  -0.18905   0.02789   0.08852
 272        4PZ        -0.06404  -0.04481  -0.15495   0.01856   0.07904
 273        5PX        -0.04012  -0.02076  -0.08285   0.02050   0.04011
 274        5PY        -0.05899  -0.03782  -0.13501   0.01540   0.06731
 275        5PZ        -0.04669  -0.02955  -0.11086   0.01429   0.05526
 276        6D 0        0.00207   0.01371  -0.00664  -0.00115   0.00204
 277        6D+1       -0.00190  -0.00131  -0.00328   0.00052   0.00101
 278        6D-1        0.00183   0.00752  -0.00167  -0.00071   0.00044
 279        6D+2       -0.00256  -0.00301  -0.00380   0.00072   0.00168
 280        6D-2       -0.00231  -0.01010   0.00254   0.00075  -0.00059
 281 21  C  1S          0.00207  -0.00060   0.00110  -0.00148   0.00330
 282        2S         -0.00575   0.00191  -0.00278   0.00296  -0.00775
 283        3S         -0.00548  -0.00540  -0.00087   0.00173  -0.01072
 284        4PX        -0.01155   0.10418  -0.10417   0.00142   0.02463
 285        4PY         0.00167   0.16562  -0.15550  -0.01104   0.06534
 286        4PZ        -0.01053   0.13406  -0.12760  -0.00068   0.03852
 287        5PX        -0.00659   0.07162  -0.07425  -0.00014   0.01793
 288        5PY         0.00168   0.11702  -0.11200  -0.01242   0.05209
 289        5PZ        -0.01217   0.09484  -0.08953   0.00355   0.02198
 290        6D 0        0.00524   0.00578   0.00946  -0.00187  -0.00504
 291        6D+1        0.00349   0.00715   0.00353  -0.00122  -0.00277
 292        6D-1        0.00071  -0.00069   0.00292  -0.00022  -0.00096
 293        6D+2        0.00491   0.01091   0.00490  -0.00196  -0.00342
 294        6D-2       -0.00115   0.00147  -0.00385   0.00006   0.00125
 295 22  C  1S         -0.00166  -0.00076  -0.00207   0.00074  -0.00259
 296        2S          0.00297   0.00438   0.00456  -0.00193   0.00302
 297        3S         -0.01791  -0.00203   0.00800  -0.00500  -0.01444
 298        4PX         0.05641   0.13855   0.03241  -0.02273  -0.01786
 299        4PY         0.07586   0.22661   0.03440  -0.02689  -0.05330
 300        4PZ         0.06595   0.16303   0.02914  -0.02756  -0.03114
 301        5PX         0.02610   0.09575   0.02532  -0.00648  -0.03430
 302        5PY         0.06511   0.16240   0.02649  -0.01733  -0.03264
 303        5PZ         0.04999   0.11495   0.02151  -0.02544  -0.01517
 304        6D 0       -0.00107  -0.00518  -0.00217   0.00007   0.00339
 305        6D+1        0.00065  -0.00416   0.00691   0.00052  -0.00365
 306        6D-1       -0.00321   0.00007  -0.00623   0.00065   0.00195
 307        6D+2        0.00244  -0.00576   0.01194   0.00008  -0.00510
 308        6D-2        0.00451  -0.00045   0.00859  -0.00121  -0.00205
 309 23  H  1S          0.00699   0.00352   0.00392  -0.00284   0.00463
 310        2S          0.01409   0.00069  -0.00045   0.00677  -0.00362
 311        3PX        -0.00030  -0.00032  -0.00008   0.00012  -0.00043
 312        3PY         0.00026  -0.00045   0.00030  -0.00029   0.00083
 313        3PZ        -0.00330   0.00087   0.00013  -0.00021  -0.00271
 314 24  H  1S         -0.02448   0.01261  -0.01393   0.02349  -0.04261
 315        2S         -0.04866  -0.00682  -0.02717   0.01187  -0.04845
[...]
 021514,0.00043449,-0.00009053,-0.00000096,0.00026126,0.00000983,0.0000
 0579,0.00000740,0.00000436,0.00000125,0.00000061,0.00000266,0.00000010
 ,0.00000006,0.00000216,-0.00000023,-0.00000199,0.00000539,-0.00000392,
 -0.00000011,0.00000046,-0.00001483,-0.00001234,0.30093598,0.00021631,-
 0.00004158,-0.00009266,0.00066538,-0.00232238,-0.00122512,-0.00050915,
 0.00002840,0.00077822,0.00007374,-0.00060115,-0.00053963,-0.00050845,0
 .00039083,0.00042603,0.00011832,-0.00006161,0.00020453,-0.00013551,-0.
 00007954,0.00023798,0.00005277,0.00023421,-0.00001589,0.00007022,-0.00
 002011,0.00005104,0.00000346,-0.00003786,-0.00002436,0.00000898,-0.000
 03883,-0.00000357,0.00002581,0.00001936,0.00000380,-0.00000082,-0.0000
 3957,-0.00002683,-0.00001084,0.00003826,0.00000941,-0.00004255,-0.0000
 3981,-0.00003380,0.00006867,-0.00007562,-0.00000035,0.01164076,0.00535
 927,0.00425228,-0.02555176,-0.04671371,-0.00193964,-0.01564085,0.00283
 778,-0.00760761,-0.00400166,0.00329714,0.00473193,0.00028371,-0.000979
 96,0.00019900,-0.00153173,0.00371337,0.00445479,-0.00004148,0.00005376
 ,-0.00005006,-0.00001510,0.00004336,-0.00000710,0.00001958,0.00000820,
 -0.00007101,0.00005439,-0.00086583,-0.00005248,0.00015862,0.00010708,-
 0.00018974,-0.00002732,-0.00001241,0.00000648,0.00000275,-0.00000192,0
 .00000092,-0.00000360,-0.00000463,-0.00000239,-0.00000203,-0.00000401,
 0.00000237,-0.00000399,0.00000078,-0.00000374,0.00001566,-0.00002073,-
 0.00000106,0.03290972,0.03896057,0.00014603,-0.00002750,-0.00002071,-0
 .00111213,-0.00178779,-0.00037995,-0.00016165,0.00019210,-0.00015406,0
 .00034364,-0.00066046,-0.00048618,0.00138610,0.00133768,0.00036937,-0.
 00031415,-0.00030164,0.00066789,-0.00008587,0.00014965,0.00010065,-0.0
 0003225,-0.00002965,-0.00001669,0.00021203,-0.00000455,0.00000587,-0.0
 0001124,0.00002477,0.00000988,-0.00000748,0.00006970,-0.00001180,-0.00
 007769,-0.00002402,-0.00000734,-0.00003555,-0.00000318,-0.00001416,0.0
 0000098,-0.00000099,0.00000171,-0.00002003,0.00001907,-0.00002332,0.00
 001615,-0.00013745,0.00001090,-0.02421582,-0.00385846,-0.00565556,-0.1
 1334349,-0.00358483,-0.10567629,0.01421436,0.00255255,0.00950772,0.001
 16915,0.00424637,0.00097292,0.00079446,0.00015880,-0.00072461,-0.00070
 961,0.00505285,-0.00336155,0.00004403,0.00004815,-0.00002738,0.0000235
 8,-0.00011280,0.00009736,-0.00004124,0.00004202,0.00006269,0.00002812,
 0.00022153,0.00012814,-0.00003375,-0.00001767,0.00011865,0.00002611,0.
 00000892,0.00000148,-0.00001811,-0.00000781,0.00000021,-0.00001003,0.0
 0000600,0.00000114,-0.00001062,-0.00000051,0.00000411,-0.00001340,0.00
 001485,0.00000161,0.00001863,0.00001632,0.00001068,0.12181439,-0.00098
 751,0.10508593,-0.00029771,-0.00010742,0.00007818,0.00059259,-0.000352
 43,0.00090260,0.00006282,0.00011060,0.00007610,-0.00004946,-0.00001101
 ,-0.00002619,0.00004457,0.00001325,0.00002099,-0.00002689,0.00004769,-
 0.00009215,0.00002207,0.00002408,-0.00004127,-0.00001255,-0.00003834,0
 .00000466,0.00000325,-0.00000596,0.00000620,-0.00000692,0.00000171,-0.
 00000392,-0.00000070,0.00000810,-0.00000220,-0.00001212,-0.00000354,-0
 .00000239,-0.00000031,0.00000625,0.00000453,0.00000039,-0.00000849,-0.
 00000327,0.00000869,0.00001661,0.00000382,-0.00002401,0.00000150,0.000
 00252,-0.00201010,-0.00429309,0.00107989,0.00800074,-0.00987380,0.0200
 9219,-0.06786588,0.02016586,-0.05533243,0.00004725,0.01255487,-0.02473
 809,-0.00401251,-0.00285154,-0.00275645,-0.00115911,-0.00028635,0.0003
 2337,0.00001006,-0.00001032,0.00011598,0.00000692,-0.00000672,-0.00002
 069,0.00000197,0.00000879,0.00001218,0.00002378,0.00000323,-0.00004294
 ,0.00000928,0.00000317,-0.00001338,0.00000470,0.00000199,0.00000285,-0
 .00000102,0.00000052,0.00000142,0.00000107,0.00000030,0.00000156,0.000
 00085,0.00000136,0.00000099,-0.00000086,0.00000025,0.00000215,-0.00000
 236,0.00001086,0.00000648,0.00054070,0.00152109,0.00060366,0.06571075,
 -0.00027306,-0.00021290,0.00002947,0.00048710,0.00005014,0.00071717,-0
 .00000271,0.00000344,0.00002861,-0.00005440,-0.00010084,-0.00003571,0.
 00003677,0.00007949,-0.00000304,0.00010660,-0.00000003,-0.00008013,-0.
 00001390,-0.00000423,-0.00001049,-0.00000533,0.00000553,0.00000275,0.0
 0001124,-0.00001289,-0.00000387,-0.00001117,-0.00000113,-0.00000326,0.
 00000156,0.00000205,-0.00000163,-0.00000698,0.00000056,-0.00000171,-0.
 00000455,-0.00000285,0.00000036,-0.00000065,0.00000478,-0.00000123,-0.
 00000931,-0.00000817,0.00000068,0.00001855,0.00001242,0.00000285,-0.00
 466547,0.00390672,0.00307364,0.00508272,-0.00223830,0.01465742,0.02001
 720,-0.09771378,0.11719427,-0.00226940,0.00520854,-0.00412295,-0.00240
 813,0.00514313,0.00158085,-0.00026340,-0.00059542,-0.00069307,0.000022
 92,-0.00006377,0.00010331,0.00001948,0.00000052,-0.00000140,-0.0000009
 0,0.00001246,-0.00003577,-0.00003305,-0.00002881,0.00002618,-0.0000071
 7,-0.00001916,0.00000361,0.00000534,0.00000219,0.00000425,-0.00000332,
 -0.00000147,0.00000175,-0.00000191,0.00000114,0.00000116,-0.00000207,-
 0.00000039,0.00000064,0.00000129,0.00000099,0.00000049,0.00000402,-0.0
 0000513,-0.00000257,0.00128490,-0.00272347,-0.00213453,-0.01867693,0.0
 9238675,0.00025005,0.00006043,-0.00003086,-0.00067876,0.00015887,-0.00
 036463,-0.00003473,-0.00011908,-0.00011504,0.00010232,0.00006837,0.000
 04476,-0.00014573,-0.00008242,-0.00005197,0.00022943,0.00004125,0.0000
 0135,-0.00001852,-0.00006904,0.00003686,0.00001467,0.00006701,-0.00000
 002,-0.00001651,0.00000988,0.00000372,0.00000583,-0.00001062,0.0000000
 4,0.00000270,-0.00002613,0.00000054,0.00002509,0.00001103,0.00000358,0
 .00000467,-0.00001487,-0.00000568,-0.00000396,0.00001743,0.00000270,-0
 .00001771,-0.00002832,-0.00000261,0.00003909,0.00003764,-0.00000136,0.
 00136956,0.00393449,0.00197925,-0.00550173,0.00445755,-0.00766155,-0.0
 5471510,0.11652320,-0.27793026,0.00104283,0.00632156,-0.00660150,-0.00
 360154,0.00160120,0.00205301,0.00040180,-0.00062000,0.00045620,0.00000
 191,-0.00000349,-0.00008350,-0.00000405,-0.00001491,0.00002384,-0.0000
 1974,-0.00000010,-0.00001407,-0.00002769,-0.00003768,0.00002704,-0.000
 00445,0.00000690,0.00000551,-0.00001290,-0.00000681,-0.00000165,0.0000
 0380,0.00000044,-0.00000069,0.00000008,-0.00000204,-0.00000107,0.00000
 028,-0.00000169,-0.00000105,0.00000458,-0.00000298,-0.00000240,0.00000
 450,-0.00001859,-0.00001079,0.00065073,-0.00207262,-0.00031170,0.05972
 973,-0.12818236,0.28953732,-0.00004746,-0.00000990,0.00001290,-0.00001
 305,0.00029572,0.00014076,0.00006757,-0.00000193,-0.00004876,-0.000029
 21,-0.00002550,0.00000233,0.00012535,0.00007608,0.00000110,-0.00012666
 ,-0.00008158,0.00009515,-0.00001186,0.00003843,0.00000910,0.,-0.000021
 75,-0.00000254,0.00001461,-0.00000631,-0.00000072,-0.00000035,0.000007
 57,0.00000360,-0.00000146,0.00001676,0.00000035,-0.00001441,-0.0000065
 5,-0.00000143,-0.00000632,0.00000659,-0.00000101,0.00000137,-0.0000072
 5,-0.00000028,0.00000574,0.00000857,-0.00000225,-0.00000640,-0.0000343
 1,-0.00000070,-0.00027691,0.00073195,-0.00087684,-0.00317894,-0.001709
 74,-0.00432936,-0.01296953,-0.01518369,0.01529842,-0.19996552,-0.11505
 060,0.09012123,0.00745624,0.00428430,-0.00491243,0.00181485,-0.0011092
 6,-0.00232406,0.00000783,-0.00000165,0.00002471,0.00000336,-0.00000565
 ,0.00000018,0.00000056,0.00000828,0.00000945,-0.00000064,0.00004783,0.
 00004075,-0.00001537,-0.00001304,0.00002617,0.00000822,0.00000458,-0.0
 0000068,-0.00000307,-0.00000123,-0.00000046,-0.00000176,0.00000160,0.0
 0000007,-0.00000187,0.,0.00000049,-0.00000389,0.00000326,0.00000071,0.
 00000211,0.00000443,0.00000195,-0.00071806,-0.00075141,0.00064598,0.00
 055834,0.00144292,0.00071566,0.20697090,-0.00002598,-0.00001809,-0.000
 00393,0.00017122,-0.00070005,-0.00032055,-0.00006777,0.00006138,0.0000
 3643,-0.00006375,-0.00008146,-0.00008708,0.00007907,0.00003458,0.00009
 196,-0.00001182,-0.00000245,0.00003600,-0.00001374,0.00000575,0.000002
 85,-0.00000282,-0.00000027,-0.00000186,0.00001311,0.00000052,-0.000003
 33,-0.00000120,0.00000077,-0.00000061,0.00000095,0.00000789,-0.0000007
 9,-0.00000618,-0.00000166,-0.00000073,-0.00000572,-0.00000124,-0.00000
 011,0.00000104,0.00000214,0.00000010,-0.00000606,-0.00000554,-0.000001
 16,0.00001413,-0.00000202,0.00000101,0.00087606,-0.00041134,-0.0002408
 2,-0.00193857,0.00547302,0.00148745,-0.00088677,0.00172763,0.00280516,
 -0.11531339,-0.12790540,0.07920602,-0.00995974,-0.00235262,0.00336633,
 -0.00065392,0.00471050,0.00456043,-0.00002499,-0.00001341,-0.00000842,
 0.00000750,0.00002954,-0.00001515,0.00002102,-0.00001884,-0.00002253,0
 .00000206,0.00000053,-0.00002622,0.00001218,0.00001100,0.00000618,0.00
 000526,0.00000318,0.00000123,-0.00000247,-0.00000142,0.00000020,-0.000
 00184,0.00000137,0.00000009,-0.00000200,-0.00000053,0.00000017,0.00000
 021,0.00000162,0.00000009,0.00000344,-0.00000272,-0.00000049,-0.000024
 65,-0.00000763,0.00016484,0.00121045,-0.00252695,-0.00192880,0.1256437
 1,0.12475690,0.00001651,0.00005463,-0.00002047,0.00006406,-0.00039092,
 -0.00017936,-0.00004656,0.00000682,0.00000001,0.00002313,-0.00001666,-
 0.00003217,0.00000053,-0.00000574,0.00004833,0.00007379,0.00001216,0.0
 0006639,-0.00000044,-0.00001559,0.00000374,0.00000112,0.00001212,0.000
 00039,0.00000484,0.00000839,-0.00000481,0.00000321,-0.00000268,-0.0000
 0094,0.00000066,-0.00000526,-0.00000093,0.00000455,0.00000225,0.000000
 22,0.00000170,-0.00000375,-0.00000008,-0.00000110,0.00000400,-0.000000
 07,-0.00000420,-0.00000489,-0.00000157,0.00000689,0.00001123,-0.000000
 47,-0.00068523,-0.00038148,-0.00074233,-0.00358191,0.00204997,0.000928
 78,-0.01096613,-0.00773238,0.00964113,0.09021678,0.07871747,-0.1141839
 6,0.02115488,0.01427267,-0.00687033,-0.00305965,0.00432174,-0.00287206
 ,0.00004032,-0.00000503,0.00001422,0.00002800,-0.00006481,0.00001380,-
 0.00002989,0.00001827,0.00002053,0.00000039,0.00000985,0.00000220,0.00
 000153,-0.00000255,0.00000301,-0.00000335,-0.00000161,0.00000027,0.000
 00076,0.00000020,0.00000029,0.00000027,-0.00000060,0.00000026,0.000000
 26,-0.00000014,0.00000038,0.00000129,-0.00000083,0.00000056,0.00000047
 ,-0.00000236,0.00000123,-0.00052558,-0.00034364,0.00030468,0.00111144,
 -0.00166783,-0.00032138,-0.09538124,-0.08741361,0.11456883,-0.00008553
 ,0.00002031,-0.00004117,-0.00016979,0.00020273,-0.00090107,-0.00006448
 ,0.00003670,0.00015553,-0.00018149,-0.00011095,-0.00003385,0.00009369,
 0.00008961,0.00004067,-0.00027011,-0.00017888,0.00007066,-0.00001094,0
 .00004397,0.00000595,-0.00000693,-0.00003362,-0.00000324,0.00000778,-0
 .00002008,-0.00001771,-0.00001027,0.00001026,0.00000182,-0.00000274,0.
 00002076,0.00000426,-0.00001900,-0.00000795,-0.00000146,-0.00000891,0.
 00000768,-0.00000027,0.00000247,-0.00000743,0.00000057,0.00000371,0.00
 000780,0.00000009,-0.00000391,-0.00002753,0.00000076,-0.00066646,-0.00
 421918,0.00216450,0.00044054,0.00015640,0.00088476,0.00236368,-0.00109
 140,-0.00185103,-0.00086328,-0.00232447,0.00076219,-0.28271563,-0.0386
 2508,-0.11547388,-0.01384234,-0.00085386,-0.01206721,-0.00000410,-0.00
 002017,0.00004268,0.00003020,0.00000406,-0.00001509,0.00000242,-0.0000
 0686,0.00001213,-0.00000812,0.00000702,0.00001106,-0.00001170,-0.00004
 033,-0.00000499,0.00001323,0.00000787,-0.00000260,-0.00000496,-0.00000
 167,-0.00000094,-0.00000230,0.00000265,-0.00000103,-0.00000255,0.00000
 011,-0.00000044,-0.00000293,0.00000367,-0.00000104,0.00000256,0.000004
 72,-0.00000289,-0.00016029,0.00028369,0.00011041,-0.00012460,-0.000157
 63,0.00003241,0.00010135,0.00148852,0.00062464,0.29582360,0.00002801,0
 .00000784,-0.00008506,-0.00039132,0.00010825,-0.00044971,-0.00008263,0
 .00013502,0.00011309,-0.00000265,-0.00010204,-0.00002172,-0.00002948,0
 .00008007,-0.00001227,-0.00028680,-0.00012121,0.00015848,-0.00000454,0
 .00000830,-0.00000903,-0.00000895,-0.00001014,0.00000062,0.00001368,-0
 .00000661,-0.00002921,-0.00000975,0.00000215,0.00000034,0.00000207,0.0
 0000780,0.00000593,-0.00001039,-0.00000131,-0.00000147,-0.00000460,-0.
 00000146,0.00000192,0.00000176,0.00000036,-0.00000028,-0.00000326,-0.0
 0000197,0.00000036,0.00000750,0.00000202,0.00000137,-0.00353615,0.0034
 7224,0.00436873,0.00022661,-0.00099598,0.00008417,-0.00153467,0.004070
 07,0.00484444,0.01171041,0.00540728,0.00598807,-0.03886058,-0.04845663
 ,-0.00949167,-0.01471043,0.00190484,-0.00782972,-0.00000294,0.00001042
 ,0.00002945,-0.00001327,-0.00001025,0.00001380,0.00001711,0.00004374,-
 0.00000606,0.00002382,0.00002482,-0.00005099,0.00000038,-0.00001927,-0
 .00001110,0.00000400,0.00000341,-0.00000275,-0.00000288,-0.00000112,-0
 .00000020,-0.00000106,0.00000139,-0.00000055,-0.00000145,-0.00000013,0
 .00000014,0.00000040,0.00000127,0.00000042,0.00000156,-0.00000010,0.00
 000116,0.00023928,-0.00068106,-0.00044480,0.00048755,0.00019020,0.0003
 3490,0.00125978,-0.00265756,-0.00210869,0.04386124,0.04034096,-0.00000
 539,-0.00005566,0.00002356,0.00044312,0.00001990,0.00045938,0.00003191
 ,0.00005815,-0.00006704,0.00006803,0.00000167,-0.00000566,0.00001791,0
 .00000893,0.00000818,0.00002608,0.00005328,-0.00000150,-0.00000865,-0.
 00000465,0.00000472,0.00000286,0.00000951,-0.00000081,0.00000299,0.000
 00382,0.00000416,0.00000371,-0.00000102,0.00000082,0.00000169,0.000000
 22,-0.00000104,0.00000126,0.00000067,0.00000026,-0.00000170,-0.0000021
 9,-0.00000082,0.00000045,0.00000259,0.00000035,-0.00000365,-0.00000558
 ,-0.00000072,0.00000963,0.00000008,0.00000002,0.00175630,0.00397140,0.
 00059604,0.00080517,0.00022777,-0.00088809,-0.00108107,0.00515749,-0.0
 0309636,-0.02536683,-0.00505076,-0.00615315,-0.11602903,-0.00902501,-0
 .11041752,0.01415127,0.00266387,0.00968694,-0.00001472,0.00000894,-0.0
 0001202,-0.00003093,0.00002113,0.00000476,0.00001415,0.00000632,-0.000
 02394,0.00001238,0.00001761,-0.00001436,0.00000614,0.00001885,0.000012
 06,-0.00000027,-0.00000023,0.00000072,-0.00000016,-0.00000051,-0.00000
 013,-0.00000069,0.00000025,0.00000007,-0.00000071,-0.00000054,-0.00000
 007,0.00000031,0.00000033,-0.00000012,0.00000171,-0.00000340,-0.000000
 68,0.00009925,-0.00041631,-0.00016227,-0.00125300,-0.00013843,-0.00039
 367,0.00102272,-0.00191882,0.00006047,0.12481227,0.00633234,0.11038209
 ,-0.00131743,-0.00035339,0.00000957,0.00074781,0.00180659,-0.00032125,
 0.00017192,0.00000189,-0.00007193,0.00013406,0.00006613,0.00009015,-0.
 00013508,-0.00000039,-0.00002568,-0.00001494,-0.00010641,0.00047915,0.
 00000212,-0.00004039,0.00003883,0.00001260,0.00004042,0.00000018,0.000
 00013,0.00001606,-0.00005213,0.00000589,-0.00000523,0.00000501,0.00000
 037,-0.00002295,0.00000847,0.00001744,0.00000776,0.00000276,0.00000923
 ,-0.00000878,-0.00000360,-0.00000392,0.00000839,0.00000260,-0.00000398
 ,-0.00000760,-0.00000415,0.00000459,0.00001619,-0.00000460,0.00088351,
 0.01062162,-0.02386149,-0.00427638,-0.00289043,-0.00290957,-0.00121575
 ,-0.00022827,0.00029906,-0.00193244,-0.00425021,0.00102195,0.00790365,
 -0.00873739,0.02085695,-0.06530541,0.01481589,-0.05335822,0.00037922,0
 .00005974,0.00011530,-0.00035521,-0.00112921,0.00065061,-0.00074352,0.
 00014811,0.00064576,0.00005371,0.00010116,0.00012146,-0.00000129,-0.00
 006064,-0.00001448,-0.00001501,-0.00000777,-0.00001060,0.00000427,0.00
 000191,-0.00000208,0.00000245,-0.00000286,-0.00000184,0.00000261,-0.00
 000005,-0.00000060,0.00000189,-0.00000327,-0.00000154,-0.00000148,-0.0
 0000491,-0.00000256,-0.00004922,0.00058464,-0.00134372,-0.00004369,0.0
 0032882,0.00017140,0.00025431,-0.00053654,0.00090328,0.00035812,0.0016
 1267,0.00050547,0.06446487,-0.00160808,0.00027208,0.00030768,0.0006954
 1,-0.00319494,-0.00121358,-0.00045314,-0.00000324,0.00019686,-0.000121
 16,-0.00010722,-0.00007721,0.00013499,-0.00021422,-0.00003829,0.000738
 73,0.00043976,0.00000886,-0.00001142,-0.00003557,-0.00000650,0.0000127
 2,0.00003953,0.00000490,-0.00001846,0.00003287,0.00002707,0.00001108,-
 0.00001092,-0.00000042,0.00000314,-0.00001418,-0.00000289,0.00001706,0
 .00000811,0.00000139,0.00000279,-0.00000808,-0.00000086,-0.00000323,0.
 00001059,-0.00000045,-0.00001056,-0.00001320,-0.00000073,0.00001822,0.
 00001276,-0.00000014,-0.00072178,0.00517851,-0.00368009,-0.00264382,0.
 00496946,0.00198817,-0.00005157,-0.00070095,-0.00060834,-0.00461514,0.
 00391465,0.00329947,0.00417704,-0.00183359,0.01460405,0.01518758,-0.08
 137083,0.10347302,0.00001362,-0.00035011,-0.00024377,-0.00090775,-0.00
 080605,0.00068670,0.00027599,-0.00012194,-0.00013652,-0.00003444,0.000
 00953,0.00000888,-0.00002214,-0.00008268,-0.00001401,-0.00000386,-0.00
 000159,0.00000036,0.00000285,0.00000044,0.00000061,0.00000016,-0.00000
 140,0.00000052,0.00000071,-0.00000059,0.00000017,0.00000179,-0.0000019
 7,0.00000112,0.00000168,-0.00000883,0.00000362,-0.00015987,0.00028106,
 -0.00019999,0.00032586,-0.00075137,-0.00040962,0.00013897,-0.00011717,
 0.00066929,0.00146735,-0.00275558,-0.00196203,-0.01184129,0.07733686,0
 .00169421,0.00125129,-0.00036522,0.00115215,-0.00076633,-0.00185562,-0
 .00031553,0.00005881,0.00008899,-0.00010267,-0.00016623,-0.00004855,0.
 00008220,0.00000092,0.00001064,0.00018212,0.00001220,0.00012207,-0.000
 01320,-0.00000089,0.00001713,0.00000606,0.00001037,-0.00000314,-0.0000
 0390,-0.00000491,0.00000263,-0.00000314,0.00000160,0.00000242,0.000000
 33,-0.00000022,0.00000175,0.00000061,0.00000087,0.00000062,-0.00000168
 ,-0.00000227,-0.00000222,-0.00000057,0.00000360,0.00000117,-0.00000548
 ,-0.00000484,-0.00000184,0.00001005,-0.00000586,-0.00000118,-0.0006989
 0,0.00545918,-0.00780144,-0.00312749,0.00102624,0.00180943,0.00030641,
 -0.00057622,0.00046151,0.00183168,0.00327390,0.00165582,-0.00572315,0.
 00366402,-0.00818999,-0.05371115,0.10480285,-0.29649637,0.00051936,-0.
 00009280,0.00034065,0.00092166,0.00010914,-0.00000376,0.00037521,0.000
 13803,-0.00014628,-0.00001965,0.00005377,0.00002860,-0.00002968,-0.000
 10180,0.00000891,0.00000192,0.00000249,-0.00000317,-0.00000127,-0.0000
 0043,-0.00000119,-0.00000095,0.00000043,-0.00000076,-0.00000080,-0.000
 00031,-0.00000042,-0.00000011,0.00000059,-0.00000079,0.00000219,-0.000
 00280,-0.00000189,0.00007474,0.00034834,-0.00043003,0.00014486,-0.0003
 0947,-0.00026823,-0.00029105,0.00022850,-0.00044879,0.00068253,-0.0017
 2445,-0.00000463,0.05606210,-0.11668730,0.31152320\\0.00023093,0.00208
 327,-0.00257175,-0.01686642,0.00176589,-0.00724087,-0.00486195,-0.0030
 1786,0.00081804,0.00519103,-0.02216582,-0.00653685,0.02127828,0.020587
 62,0.00790707,-0.00339110,0.00446450,0.00530485,-0.00374775,0.00088766
 ,-0.00294162,0.00068426,0.01358284,0.00072994,-0.00035765,-0.00290371,
 -0.00027192,0.00190732,0.00080764,0.00030660,-0.00110870,0.00148919,-0
 .00001650,-0.00194236,-0.00042133,-0.00013367,-0.00304215,-0.00194028,
 0.00019431,0.00016712,-0.00062871,0.00011809,-0.00150141,0.00576308,0.
 00060786,0.00822261,-0.02089721,-0.00156380,-0.00259766,-0.00092267,0.
 00223977,-0.00036961,0.00162942,-0.00123722,-0.00084394,-0.00139910,0.
 00082439,0.00225374,0.00088825,0.00077636,0.00159969,0.00170037,-0.000
 69205,-0.00064202,0.00034325,-0.00113655,0.00034527,0.00108954,0.00000
 447,0.00075822,0.00053023,0.00173459,0.00038644,-0.00185379,0.00148374
 ,0.00092310,-0.00008477,-0.00020520,0.00002616,-0.00166472,-0.00075226
 ,0.00017649,0.00001591,-0.00007182,-0.00033447,-0.00017260,-0.00004902
 ,-0.00055021,-0.00019481,-0.00007088,-0.00009480,0.00015902,-0.0000513
 2,-0.00171776,0.00056937,-0.00022269,-0.00209498,0.00213965,0.00187229
 ,-0.00009257,-0.00050490,0.00199539,0.00044046,-0.00036855,-0.00100424
 ,0.00046266,-0.00011468,-0.00012245,0.00056859,-0.00010096,-0.00021918
 ,0.00053517,-0.00114024,0.00019410\\\@

 Writing a WFNX file to "22_lig_b.wfx"


 When I told the people of Northern Ireland that I was
 an atheist, a woman in the audience stood up and said,
 "Yes, but is it the God of the Catholics or the God
 of the Protestants in whom you don't believe?"
                               -- Quentin Crisp
 Job cpu time:       0 days  2 hours 30 minutes 10.4 seconds.
 Elapsed time:       0 days  0 hours 18 minutes 46.7 seconds.
 File lengths (MBytes):  RWF=    647 Int=      0 D2E=      0 Chk=     11 Scr=      1
 Normal termination of Gaussian 16 at Thu Nov  3 08:23:12 2022.
