 Entering Gaussian System, Link 0=g16
 Initial command:
 /software/gaussian/G16-A.03/avx/g16/l1.exe "/scratch/lcmd/1361353.slurm/Gau-124643.inp" -scrdir="/scratch/lcmd/1361353.slurm/"
 Entering Link 1 = /software/gaussian/G16-A.03/avx/g16/l1.exe PID=    124645.
  
 Copyright (c) 1988,1990,1992,1993,1995,1998,2003,2009,2016,
            Gaussian, Inc.  All Rights Reserved.
  
 This is part of the Gaussian(R) 16 program.  It is based on
 the Gaussian(R) 09 system (copyright 2009, Gaussian, Inc.),
 the Gaussian(R) 03 system (copyright 2003, Gaussian, Inc.),
 the Gaussian(R) 98 system (copyright 1998, Gaussian, Inc.),
 the Gaussian(R) 94 system (copyright 1995, Gaussian, Inc.),
 the Gaussian 92(TM) system (copyright 1992, Gaussian, Inc.),
 the Gaussian 90(TM) system (copyright 1990, Gaussian, Inc.),
 the Gaussian 88(TM) system (copyright 1988, Gaussian, Inc.),
 the Gaussian 86(TM) system (copyright 1986, Carnegie Mellon
 University), and the Gaussian 82(TM) system (copyright 1983,
 Carnegie Mellon University). Gaussian is a federally registered
 trademark of Gaussian, Inc.
  
 This software contains proprietary and confidential information,
 including trade secrets, belonging to Gaussian, Inc.
  
 This software is provided under written license and may be
 used, copied, transmitted, or stored only in accord with that
 written license.
  
 The following legend is applicable only to US Government
 contracts under FAR:
  
                    RESTRICTED RIGHTS LEGEND
  
 Use, reproduction and disclosure by the US Government is
 subject to restrictions as set forth in subparagraphs (a)
 and (c) of the Commercial Computer Software - Restricted
 Rights clause in FAR 52.227-19.
  
 Gaussian, Inc.
 340 Quinnipiac St., Bldg. 40, Wallingford CT 06492
  
  
 ---------------------------------------------------------------
 Warning -- This program may not be used in any manner that
 competes with the business of Gaussian, Inc. or will provide
 assistance to any competitor of Gaussian, Inc.  The licensee
 of this program is prohibited from giving any competitor of
 Gaussian, Inc. access to this program.  By using this program,
 the user acknowledges that Gaussian, Inc. is engaged in the
 business of creating and licensing software in the field of
 computational chemistry and represents and warrants to the
 licensee that it is not a competitor of Gaussian, Inc. and that
 it will not use this program in any manner prohibited above.
 ---------------------------------------------------------------
  

 Cite this work as:
 Gaussian 16, Revision A.03,
 M. J. Frisch, G. W. Trucks, H. B. Schlegel, G. E. Scuseria, 
 M. A. Robb, J. R. Cheeseman, G. Scalmani, V. Barone, 
 G. A. Petersson, H. Nakatsuji, X. Li, M. Caricato, A. V. Marenich, 
 J. Bloino, B. G. Janesko, R. Gomperts, B. Mennucci, H. P. Hratchian, 
 J. V. Ortiz, A. F. Izmaylov, J. L. Sonnenberg, D. Williams-Young, 
 F. Ding, F. Lipparini, F. Egidi, J. Goings, B. Peng, A. Petrone, 
 T. Henderson, D. Ranasinghe, V. G. Zakrzewski, J. Gao, N. Rega, 
 G. Zheng, W. Liang, M. Hada, M. Ehara, K. Toyota, R. Fukuda, 
 J. Hasegawa, M. Ishida, T. Nakajima, Y. Honda, O. Kitao, H. Nakai, 
 T. Vreven, K. Throssell, J. A. Montgomery, Jr., J. E. Peralta, 
 F. Ogliaro, M. J. Bearpark, J. J. Heyd, E. N. Brothers, K. N. Kudin, 
 V. N. Staroverov, T. A. Keith, R. Kobayashi, J. Normand, 
 K. Raghavachari, A. P. Rendell, J. C. Burant, S. S. Iyengar, 
 J. Tomasi, M. Cossi, J. M. Millam, M. Klene, C. Adamo, R. Cammi, 
 J. W. Ochterski, R. L. Martin, K. Morokuma, O. Farkas, 
 J. B. Foresman, and D. J. Fox, Gaussian, Inc., Wallingford CT, 2016.
 
 ******************************************
 Gaussian 16:  ES64L-G16RevA.03 25-Dec-2016
                 3-Nov-2022 
 ******************************************
 %nprocs=8
 Will use up to    8 processors via shared memory.
 %mem=32000MB
 %chk=23_lig_b.chk
 ----------------------------------------------------------------------
 #p pop=(regular,nbo,savenbos) freq=noraman def2svp empiricaldispersion
 =gd3bj output=wfx pbe1pbe
 ----------------------------------------------------------------------
 1/10=4,30=1,38=1/1,3;
 2/12=2,17=6,18=5,40=1/2;
 3/5=43,7=101,11=2,25=1,30=1,71=2,74=-13,124=41,140=1/1,2,3;
 4//1;
 5/5=2,38=5,98=1/2;
 8/6=4,10=90,11=11/1;
 11/6=1,8=1,9=11,15=111,16=1/1,2,10;
 10/6=1/2;
 6/28=1,40=1,73=1/1,7;
 7/8=1,10=1,25=1/1,2,3,16;
 1/10=4,30=1/3;
 99/6=200/99;
 Leave Link    1 at Thu Nov  3 08:04:22 2022, MaxMem=  4194304000 cpu:               0.8 elap:               0.1
 (Enter /software/gaussian/G16-A.03/avx/g16/l101.exe)
 --------
 23_lig_b
 --------
 Symbolic Z-matrix:
 Charge =  0 Multiplicity = 1
 C                     4.39506  -0.56776   0.31503 
 C                     2.92925  -0.40279   0.72021 
 C                     2.06352  -0.6144   -0.54671 
 H                     2.3714    0.12687  -1.30099 
 C                     2.05079  -2.05247  -1.11392 
 O                     0.72038  -2.54993  -0.82173 
 C                     0.02768  -1.49522  -0.42751 
 N                     0.65124  -0.39041  -0.27827 
 N                    -1.93586  -0.35048   0.08231 
 C                    -1.41692  -1.55956  -0.17514 
 C                    -2.17916  -2.72024  -0.18288 
 C                    -3.54063  -2.59817   0.10216 
 C                    -4.07094  -1.3419    0.37763 
 C                    -3.22676  -0.22781   0.35604 
 C                     2.56259  -1.41032   1.8108 
 C                     2.70619   1.01614   1.24883 
 H                     5.05088  -0.41515   1.18546 
 H                     4.67735   0.17045  -0.45169 
 H                     4.60997  -1.573    -0.08276 
 H                     2.77323  -2.73115  -0.64414 
 H                     2.17968  -2.08601  -2.20539 
 H                    -1.71304  -3.68157  -0.40311 
 H                    -4.18076  -3.4832    0.10948 
 H                    -5.13038  -1.21442   0.60644 
 H                    -3.55455   0.79768   0.5654 
 H                     3.16386  -1.223     2.71331 
 H                     2.74792  -2.45362   1.50935 
 H                     1.504    -1.31555   2.09913 
 H                     3.41717   1.22973   2.06176 
 H                     1.69074   1.14067   1.65486 
 H                     2.82518   1.77063   0.45798 
 
 ITRead=  0  0  0  0  0  0  0  0  0  0  0  0  0  0  0  0  0  0  0  0
 ITRead=  0  0  0  0  0  0  0  0  0  0  0
 MicOpt= -1 -1 -1 -1 -1 -1 -1 -1 -1 -1 -1 -1 -1 -1 -1 -1 -1 -1 -1 -1
 MicOpt= -1 -1 -1 -1 -1 -1 -1 -1 -1 -1 -1
 NAtoms=     31 NQM=       31 NQMF=       0 NMMI=      0 NMMIF=      0
                NMic=       0 NMicF=      0.
                    Isotopes and Nuclear Properties:
 (Nuclear quadrupole moments (NQMom) in fm**2, nuclear magnetic moments (NMagM)
  in nuclear magnetons)

  Atom         1           2           3           4           5           6           7           8           9          10
 IAtWgt=          12          12          12           1          12          16          12          14          14          12
 AtmWgt=  12.0000000  12.0000000  12.0000000   1.0078250  12.0000000  15.9949146  12.0000000  14.0030740  14.0030740  12.0000000
 NucSpn=           0           0           0           1           0           0           0           2           2           0
 AtZEff=  -0.0000000  -0.0000000  -0.0000000  -0.0000000  -0.0000000  -0.0000000  -0.0000000  -0.0000000  -0.0000000  -0.0000000
 NQMom=    0.0000000   0.0000000   0.0000000   0.0000000   0.0000000   0.0000000   0.0000000   2.0440000   2.0440000   0.0000000
 NMagM=    0.0000000   0.0000000   0.0000000   2.7928460   0.0000000   0.0000000   0.0000000   0.4037610   0.4037610   0.0000000
 AtZNuc=   6.0000000   6.0000000   6.0000000   1.0000000   6.0000000   8.0000000   6.0000000   7.0000000   7.0000000   6.0000000

  Atom        11          12          13          14          15          16          17          18          19          20
 IAtWgt=          12          12          12          12          12          12           1           1           1           1
 AtmWgt=  12.0000000  12.0000000  12.0000000  12.0000000  12.0000000  12.0000000   1.0078250   1.0078250   1.0078250   1.0078250
 NucSpn=           0           0           0           0           0           0           1           1           1           1
 AtZEff=  -0.0000000  -0.0000000  -0.0000000  -0.0000000  -0.0000000  -0.0000000  -0.0000000  -0.0000000  -0.0000000  -0.0000000
 NQMom=    0.0000000   0.0000000   0.0000000   0.0000000   0.0000000   0.0000000   0.0000000   0.0000000   0.0000000   0.0000000
 NMagM=    0.0000000   0.0000000   0.0000000   0.0000000   0.0000000   0.0000000   2.7928460   2.7928460   2.7928460   2.7928460
 AtZNuc=   6.0000000   6.0000000   6.0000000   6.0000000   6.0000000   6.0000000   1.0000000   1.0000000   1.0000000   1.0000000

  Atom        21          22          23          24          25          26          27          28          29          30
 IAtWgt=           1           1           1           1           1           1           1           1           1           1
 AtmWgt=   1.0078250   1.0078250   1.0078250   1.0078250   1.0078250   1.0078250   1.0078250   1.0078250   1.0078250   1.0078250
 NucSpn=           1           1           1           1           1           1           1           1           1           1
 AtZEff=  -0.0000000  -0.0000000  -0.0000000  -0.0000000  -0.0000000  -0.0000000  -0.0000000  -0.0000000  -0.0000000  -0.0000000
 NQMom=    0.0000000   0.0000000   0.0000000   0.0000000   0.0000000   0.0000000   0.0000000   0.0000000   0.0000000   0.0000000
 NMagM=    2.7928460   2.7928460   2.7928460   2.7928460   2.7928460   2.7928460   2.7928460   2.7928460   2.7928460   2.7928460
 AtZNuc=   1.0000000   1.0000000   1.0000000   1.0000000   1.0000000   1.0000000   1.0000000   1.0000000   1.0000000   1.0000000

  Atom        31
 IAtWgt=           1
 AtmWgt=   1.0078250
 NucSpn=           1
 AtZEff=  -0.0000000
 NQMom=    0.0000000
 NMagM=    2.7928460
 AtZNuc=   1.0000000
 Leave Link  101 at Thu Nov  3 08:04:22 2022, MaxMem=  4194304000 cpu:               0.9 elap:               0.1
 (Enter /software/gaussian/G16-A.03/avx/g16/l103.exe)

 GradGradGradGradGradGradGradGradGradGradGradGradGradGradGradGradGradGrad
 Berny optimization.
 Initialization pass.
 Trust Radius=3.00D-01 FncErr=1.00D-07 GrdErr=1.00D-07 EigMax=2.50D+02 EigMin=1.00D-04
 Number of steps in this run=      2 maximum allowed number of steps=      2.
 GradGradGradGradGradGradGradGradGradGradGradGradGradGradGradGradGradGrad

 Leave Link  103 at Thu Nov  3 08:04:22 2022, MaxMem=  4194304000 cpu:               0.6 elap:               0.1
 (Enter /software/gaussian/G16-A.03/avx/g16/l202.exe)
                          Input orientation:                          
 ---------------------------------------------------------------------
 Center     Atomic      Atomic             Coordinates (Angstroms)
 Number     Number       Type             X           Y           Z
 ---------------------------------------------------------------------
      1          6           0        4.395060   -0.567760    0.315030
      2          6           0        2.929250   -0.402790    0.720210
      3          6           0        2.063520   -0.614400   -0.546710
      4          1           0        2.371400    0.126870   -1.300990
      5          6           0        2.050790   -2.052470   -1.113920
      6          8           0        0.720380   -2.549930   -0.821730
      7          6           0        0.027680   -1.495220   -0.427510
      8          7           0        0.651240   -0.390410   -0.278270
      9          7           0       -1.935860   -0.350480    0.082310
     10          6           0       -1.416920   -1.559560   -0.175140
     11          6           0       -2.179160   -2.720240   -0.182880
     12          6           0       -3.540630   -2.598170    0.102160
     13          6           0       -4.070940   -1.341900    0.377630
     14          6           0       -3.226760   -0.227810    0.356040
     15          6           0        2.562590   -1.410320    1.810800
     16          6           0        2.706190    1.016140    1.248830
     17          1           0        5.050880   -0.415150    1.185460
     18          1           0        4.677350    0.170450   -0.451690
     19          1           0        4.609970   -1.573000   -0.082760
     20          1           0        2.773230   -2.731150   -0.644140
     21          1           0        2.179680   -2.086010   -2.205390
     22          1           0       -1.713040   -3.681570   -0.403110
     23          1           0       -4.180760   -3.483200    0.109480
     24          1           0       -5.130380   -1.214420    0.606440
     25          1           0       -3.554550    0.797680    0.565400
     26          1           0        3.163860   -1.223000    2.713310
     27          1           0        2.747920   -2.453620    1.509350
     28          1           0        1.504000   -1.315550    2.099130
     29          1           0        3.417170    1.229730    2.061760
     30          1           0        1.690740    1.140670    1.654860
     31          1           0        2.825180    1.770630    0.457980
 ---------------------------------------------------------------------
                    Distance matrix (angstroms):
                    1          2          3          4          5
     1  C    0.000000
     2  C    1.529701   0.000000
     3  C    2.486132   1.548985   0.000000
     4  H    2.681274   2.162634   1.101458   0.000000
     5  C    3.121196   2.618620   1.545941   2.210726   0.000000
     6  O    4.327181   3.444836   2.371906   3.181323   1.450115
     7  C    4.526097   3.306021   2.221418   2.981135   2.207863
     8  N    3.794687   2.487257   1.454911   2.066999   2.327981
     9  N    6.338921   4.907030   4.057137   4.549052   4.496789
    10  C    5.916337   4.585735   3.625583   4.296854   3.626194
    11  C    6.935521   5.681725   4.750502   5.483047   4.382377
    12  C    8.194087   6.860104   5.980207   6.659337   5.748097
    13  C    8.501551   7.071206   6.246220   6.817536   6.340758
    14  C    7.629508   6.169254   5.380657   5.849012   5.774314
    15  C    2.511012   1.529360   2.537797   3.476024   3.037809
    16  C    2.496598   1.530541   2.509113   2.721115   3.927913
    17  H    1.100472   2.172078   3.458964   3.695380   4.119285
    18  H    1.101136   2.181240   2.730774   2.457766   3.504103
    19  H    1.102239   2.199766   2.760176   3.063468   2.800462
    20  H    2.868902   2.703156   2.234684   2.959932   1.096914
    21  H    3.683138   3.457488   2.220439   2.398236   1.099566
    22  H    6.893506   5.793367   4.867295   5.656240   4.162407
    23  H    9.060173   7.772655   6.903016   7.612676   6.509678
    24  H    9.551811   8.101193   7.310402   7.855829   7.431768
    25  H    8.069908   6.595814   5.898599   6.249022   6.508710
    26  H    2.774336   2.168002   3.494120   4.308683   4.071196
    27  H    2.774155   2.204887   2.842273   3.833889   2.743803
    28  H    3.478567   2.183092   2.793769   3.793913   3.341515
    29  H    2.690410   2.168627   3.469481   3.690261   4.767051
    30  H    3.468029   2.188549   2.840096   3.198146   4.241689
    31  H    2.820111   2.191655   2.697758   2.449865   4.205549
                    6          7          8          9         10
     6  O    0.000000
     7  C    1.321989   0.000000
     8  N    2.227926   1.277382   0.000000
     9  N    3.565176   2.329342   2.612412   0.000000
    10  C    2.442737   1.467889   2.377989   1.340691   0.000000
    11  C    2.973965   2.535875   3.667202   2.396932   1.388614
    12  C    4.360287   3.772252   4.752968   2.761846   2.380284
    13  C    5.084737   4.179766   4.861535   2.372487   2.719697
    14  C    4.728562   3.579338   3.932896   1.325292   2.308946
    15  C    3.409203   3.382752   3.009599   4.934267   4.450026
    16  C    4.576846   4.036268   2.921170   4.977655   5.065763
    17  H    5.228702   5.385236   4.636804   7.073589   6.707708
    18  H    4.816120   4.939076   4.068685   6.655154   6.341099
    19  H    4.077914   4.595899   4.136216   6.661058   6.027613
    20  H    2.068471   3.018691   3.180529   5.326429   4.376065
    21  H    2.063806   2.853243   2.987470   5.018297   4.163484
    22  H    2.716134   2.794786   4.054274   3.373639   2.154666
    23  H    5.075364   4.685231   5.750124   3.854121   3.379380
    24  H    6.168845   5.268158   5.906677   3.350532   3.810482
    25  H    5.604074   4.367566   4.451068   2.042500   3.267176
    26  H    4.497538   4.446850   3.994498   5.804360   5.425860
    27  H    3.090975   3.474142   3.442163   5.328924   4.580692
    28  H    3.266371   2.931844   2.689817   4.102628   3.709935
    29  H    5.465622   5.011034   3.968748   5.922011   6.012677
    30  H    4.549244   3.748326   2.676146   4.224769   4.505296
    31  H    4.973437   4.390430   3.152487   5.225681   5.430140
                   11         12         13         14         15
    11  C    0.000000
    12  C    1.396334   0.000000
    13  C    2.406829   1.391160   0.000000
    14  C    2.756829   2.404491   1.397964   0.000000
    15  C    5.307998   6.448235   6.786927   6.085329   0.000000
    16  C    6.314822   7.307588   7.228335   6.127347   2.494823
    17  H    7.710984   8.930462   9.204295   8.321199   2.751909
    18  H    7.445809   8.689488   8.916701   7.955249   3.477054
    19  H    6.886107   8.216900   8.696181   7.963443   2.793528
    20  H    4.973836   6.359204   7.058094   6.577762   2.795656
    21  H    4.846884   6.189430   6.804112   6.264457   4.090594
    22  H    1.090837   2.183836   3.412228   3.846572   5.323625
    23  H    2.161940   1.092290   2.160817   3.401246   7.257003
    24  H    3.405909   2.167110   1.091338   2.158673   7.789136
    25  H    3.850634   3.427329   2.209009   1.096771   6.621608
    26  H    6.259194   7.325257   7.603412   6.883832   1.100517
    27  H    5.216402   6.445692   7.000969   6.479287   1.101678
    28  H    4.554821   5.575060   5.834742   5.157677   1.101239
    29  H    7.208299   8.179476   8.094527   7.012539   2.786243
    30  H    5.767152   6.614910   6.402455   5.267018   2.700368
    31  H    6.754408   7.728943   7.566424   6.374177   3.466629
                   16         17         18         19         20
    16  C    0.000000
    17  H    2.747759   0.000000
    18  H    2.737231   1.778402   0.000000
    19  H    3.478672   1.772964   1.783330   0.000000
    20  H    4.198811   3.728134   3.475916   2.242782   0.000000
    21  H    4.672492   4.746939   3.795449   3.267269   1.790533
    22  H    6.657851   7.677478   7.461736   6.673016   4.592169
    23  H    8.304954   9.787433   9.598447   8.997931   7.035019
    24  H    8.173120  10.228986   9.961379   9.771284   8.144414
    25  H    6.301719   8.712569   8.318177   8.526407   7.345504
    26  H    2.714390   2.558865   3.774862   3.167292   3.701294
    27  H    3.479777   3.092554   3.801858   2.603370   2.171447
    28  H    2.757725   3.771720   4.334170   3.804468   3.337724
    29  H    1.100894   2.478415   3.004590   3.725189   4.839951
    30  H    1.100685   3.732486   3.781365   4.348015   4.631218
    31  H    1.099481   3.203217   2.611247   3.828542   4.635018
                   21         22         23         24         25
    21  H    0.000000
    22  H    4.576821   0.000000
    23  H    6.911292   2.528189   0.000000
    24  H    7.880548   4.334078   2.509205   0.000000
    25  H    6.991018   4.938912   4.350395   2.556066   0.000000
    26  H    5.089893   6.288147   8.113685   8.557651   7.337145
    27  H    3.775888   5.006549   7.143268   8.026112   7.154238
    28  H    4.424821   4.712600   6.401087   6.800981   5.692714
    29  H    5.543833   7.517680   9.151593   9.008465   7.143573
    30  H    5.054904   6.250997   7.631703   7.292003   5.368206
    31  H    4.731161   7.145866   8.763982   8.498441   6.454388
                   26         27         28         29         30
    26  H    0.000000
    27  H    1.771144   0.000000
    28  H    1.772263   1.786164   0.000000
    29  H    2.550405   3.784193   3.184347   0.000000
    30  H    2.979486   3.749363   2.503051   1.775967   0.000000
    31  H    3.763381   4.353807   3.736763   1.793080   1.765312
                   31
    31  H    0.000000
 Stoichiometry    C12H16N2O
 Framework group  C1[X(C12H16N2O)]
 Deg. of freedom    87
 Full point group                 C1      NOp   1
 Largest Abelian subgroup         C1      NOp   1
 Largest concise Abelian subgroup C1      NOp   1
                         Standard orientation:                         
 ---------------------------------------------------------------------
 Center     Atomic      Atomic             Coordinates (Angstroms)
 Number     Number       Type             X           Y           Z
 ---------------------------------------------------------------------
      1          6           0        4.134993   -0.141544   -0.009028
      2          6           0        2.744215    0.449189    0.229204
      3          6           0        1.778788   -0.188240   -0.800839
      4          1           0        2.157197    0.035632   -1.810738
      5          6           0        1.494542   -1.695234   -0.605624
      6          8           0        0.121064   -1.752339   -0.143963
      7          6           0       -0.362916   -0.535386   -0.324084
      8          7           0        0.441960    0.378599   -0.709457
      9          7           0       -2.075982    1.035397   -0.478619
     10          6           0       -1.779998   -0.218819   -0.108768
     11          6           0       -2.721836   -1.089112    0.423942
     12          6           0       -4.024389   -0.610910    0.580236
     13          6           0       -4.322686    0.694524    0.203159
     14          6           0       -3.309665    1.496432   -0.330728
     15          6           0        2.284929    0.167155    1.660447
     16          6           0        2.790806    1.962264    0.003399
     17          1           0        4.859548    0.292003    0.696731
     18          1           0        4.486938    0.078196   -1.029004
     19          1           0        4.156543   -1.234513    0.131988
     20          1           0        2.123112   -2.180485    0.151113
     21          1           0        1.548399   -2.268472   -1.542396
     22          1           0       -2.434781   -2.103066    0.705761
     23          1           0       -4.799729   -1.257947    0.996516
     24          1           0       -5.330500    1.097960    0.315271
     25          1           0       -3.450659    2.536359   -0.649444
     26          1           0        2.963479    0.655411    2.376209
     27          1           0        2.277055   -0.907362    1.903438
     28          1           0        1.276250    0.570747    1.840475
     29          1           0        3.576140    2.411215    0.630824
     30          1           0        1.836772    2.440256    0.273307
     31          1           0        2.983180    2.212884   -1.049711
 ---------------------------------------------------------------------
 Rotational constants (GHZ):           1.4919858           0.3303004           0.2990438
 Leave Link  202 at Thu Nov  3 08:04:22 2022, MaxMem=  4194304000 cpu:               0.3 elap:               0.1
 (Enter /software/gaussian/G16-A.03/avx/g16/l301.exe)
 Standard basis: def2SVP (5D, 7F)
 Ernie: Thresh=  0.10000D-02 Tol=  0.10000D-05 Strict=F.
 There are   305 symmetry adapted cartesian basis functions of A   symmetry.
 There are   290 symmetry adapted basis functions of A   symmetry.
   290 basis functions,   487 primitive gaussians,   305 cartesian basis functions
    55 alpha electrons       55 beta electrons
       nuclear repulsion energy       994.8745785367 Hartrees.
 IExCor= 1009 DFT=T Ex+Corr=PBE1PBE ExCW=0 ScaHFX=  0.250000
 ScaDFX=  0.750000  0.750000  1.000000  1.000000 ScalE2=  1.000000  1.000000
 IRadAn=      5 IRanWt=     -1 IRanGd=            0 ICorTp=0 IEmpDi=141
 NAtoms=   31 NActive=   31 NUniq=   31 SFac= 1.00D+00 NAtFMM=   60 NAOKFM=F Big=F
 Integral buffers will be    131072 words long.
 Raffenetti 2 integral format.
 Two-electron integral symmetry is turned on.
 R6Disp:  Grimme-D3(BJ) Dispersion energy=       -0.0313621556 Hartrees.
 Nuclear repulsion after empirical dispersion term =      994.8432163811 Hartrees.
 Leave Link  301 at Thu Nov  3 08:04:23 2022, MaxMem=  4194304000 cpu:               0.7 elap:               0.2
 (Enter /software/gaussian/G16-A.03/avx/g16/l302.exe)
 NPDir=0 NMtPBC=     1 NCelOv=     1 NCel=       1 NClECP=     1 NCelD=      1
         NCelK=      1 NCelE2=     1 NClLst=     1 CellRange=     0.0.
 One-electron integrals computed using PRISM.
 One-electron integral symmetry used in STVInt
   1 Symmetry operations used in ECPInt.
 ECPInt:  NShTT=    9591 NPrTT=   34173 LenC2=    8960 LenP2D=   23428.
 LDataN:  DoStor=T MaxTD1= 4 Len=   56
 NBasis=   290 RedAO= T EigKep=  6.00D-04  NBF=   290
 NBsUse=   290 1.00D-06 EigRej= -1.00D+00 NBFU=   290
 Precomputing XC quadrature grid using
 IXCGrd= 4 IRadAn=           5 IRanWt=          -1 IRanGd=           0 AccXCQ= 0.00D+00.
 Generated NRdTot=       0 NPtTot=           0 NUsed=           0 NTot=          32
 NSgBfM=   304   304   304   304   304 MxSgAt=    31 MxSgA2=    31.
 Leave Link  302 at Thu Nov  3 08:04:24 2022, MaxMem=  4194304000 cpu:               7.3 elap:               1.0
 (Enter /software/gaussian/G16-A.03/avx/g16/l303.exe)
 DipDrv:  MaxL=1.
 Leave Link  303 at Thu Nov  3 08:04:24 2022, MaxMem=  4194304000 cpu:               1.3 elap:               0.3
 (Enter /software/gaussian/G16-A.03/avx/g16/l401.exe)
 ExpMin= 1.22D-01 ExpMax= 2.27D+03 ExpMxC= 3.41D+02 IAcc=3 IRadAn=         5 AccDes= 0.00D+00
 Harris functional with IExCor= 1009 and IRadAn=       5 diagonalized for initial guess.
 HarFok:  IExCor= 1009 AccDes= 0.00D+00 IRadAn=         5 IDoV= 1 UseB2=F ITyADJ=14
 ICtDFT=  3500011 ScaDFX=  1.000000  1.000000  1.000000  1.000000
 FoFCou: FMM=F IPFlag=           0 FMFlag=      100000 FMFlg1=           0
         NFxFlg=           0 DoJE=T BraDBF=F KetDBF=T FulRan=T
         wScrn=  0.000000 ICntrl=       500 IOpCl=  0 I1Cent=   200000004 NGrid=           0
         NMat0=    1 NMatS0=      1 NMatT0=    0 NMatD0=    1 NMtDS0=    0 NMtDT0=    0
 Petite list used in FoFCou.
 Harris En= -650.583618297103    
 JPrj=0 DoOrth=F DoCkMO=F.
 Leave Link  401 at Thu Nov  3 08:04:28 2022, MaxMem=  4194304000 cpu:              21.8 elap:               3.6
 (Enter /software/gaussian/G16-A.03/avx/g16/l502.exe)
 Integral symmetry usage will be decided dynamically.
 Closed shell SCF:
 Using DIIS extrapolation, IDIIS=  1040.
 NGot=  4194304000 LenX=  4194112119 LenY=  4194018653
 Requested convergence on RMS density matrix=1.00D-08 within 128 cycles.
 Requested convergence on MAX density matrix=1.00D-06.
 Requested convergence on             energy=1.00D-06.
 No special actions if energy rises.
 Fock matrices will be formed incrementally for  20 cycles.
 Integral accuracy reduced to 1.0D-05 until final iterations.

 Cycle   1  Pass 0  IDiag  1:
 FoFJK:  IHMeth= 1 ICntrl=       0 DoSepK=F KAlg= 0 I1Cent=           0 FoldK=F
 IRaf= 880000000 NMat=       1 IRICut=       1 DoRegI=T DoRafI=F ISym2E= 0 IDoP0=0 IntGTp=1.
 FoFCou: FMM=F IPFlag=           0 FMFlag=      100000 FMFlg1=           0
         NFxFlg=           0 DoJE=F BraDBF=F KetDBF=F FulRan=T
         wScrn=  0.000000 ICntrl=         0 IOpCl=  0 I1Cent=           0 NGrid=           0
         NMat0=    1 NMatS0=      1 NMatT0=    0 NMatD0=    1 NMtDS0=    0 NMtDT0=    0
 Symmetry not used in FoFCou.
 E= -650.121973674713    
 DIIS: error= 3.25D-02 at cycle   1 NSaved=   1.
 NSaved= 1 IEnMin= 1 EnMin= -650.121973674713     IErMin= 1 ErrMin= 3.25D-02
 ErrMax= 3.25D-02  0.00D+00 EMaxC= 1.00D-01 BMatC= 2.81D-01 BMatP= 2.81D-01
 IDIUse=3 WtCom= 6.75D-01 WtEn= 3.25D-01
 Coeff-Com:  0.100D+01
 Coeff-En:   0.100D+01
 Coeff:      0.100D+01
 Gap=     0.182 Goal=   None    Shift=    0.000
 GapD=    0.182 DampG=1.000 DampE=0.500 DampFc=0.5000 IDamp=-1.
 Damping current iteration by 5.00D-01
 RMSDP=4.90D-03 MaxDP=1.43D-01              OVMax= 2.30D-01

 Cycle   2  Pass 0  IDiag  1:
 RMSU=  2.43D-03    CP:  9.82D-01
 E= -650.250672262946     Delta-E=       -0.128698588232 Rises=F Damp=T
 DIIS: error= 7.39D-03 at cycle   2 NSaved=   2.
 NSaved= 2 IEnMin= 2 EnMin= -650.250672262946     IErMin= 2 ErrMin= 7.39D-03
 ErrMax= 7.39D-03  0.00D+00 EMaxC= 1.00D-01 BMatC= 2.44D-02 BMatP= 2.81D-01
 IDIUse=3 WtCom= 9.26D-01 WtEn= 7.39D-02
 Coeff-Com:  0.931D-01 0.907D+00
 Coeff-En:   0.146D+00 0.854D+00
 Coeff:      0.970D-01 0.903D+00
 Gap=     0.229 Goal=   None    Shift=    0.000
 RMSDP=1.61D-03 MaxDP=5.49D-02 DE=-1.29D-01 OVMax= 1.83D-01

 Cycle   3  Pass 0  IDiag  1:
 RMSU=  1.56D-03    CP:  9.75D-01  8.42D-01
 E= -650.400016792916     Delta-E=       -0.149344529970 Rises=F Damp=F
 DIIS: error= 1.34D-02 at cycle   3 NSaved=   3.
 NSaved= 3 IEnMin= 3 EnMin= -650.400016792916     IErMin= 2 ErrMin= 7.39D-03
 ErrMax= 1.34D-02  0.00D+00 EMaxC= 1.00D-01 BMatC= 3.15D-02 BMatP= 2.44D-02
 IDIUse=2 WtCom= 0.00D+00 WtEn= 1.00D+00
 Coeff-En:   0.000D+00 0.000D+00 0.100D+01
 Coeff:      0.000D+00 0.000D+00 0.100D+01
 Gap=     0.180 Goal=   None    Shift=    0.000
 RMSDP=2.21D-03 MaxDP=1.10D-01 DE=-1.49D-01 OVMax= 2.30D-01

 Cycle   4  Pass 0  IDiag  1:
 RMSU=  1.31D-03    CP:  9.81D-01  1.25D+00  5.70D-02
 E= -650.292585969192     Delta-E=        0.107430823724 Rises=F Damp=F
 DIIS: error= 3.08D-02 at cycle   4 NSaved=   4.
 NSaved= 4 IEnMin= 3 EnMin= -650.400016792916     IErMin= 2 ErrMin= 7.39D-03
 ErrMax= 3.08D-02  0.00D+00 EMaxC= 1.00D-01 BMatC= 1.49D-01 BMatP= 2.44D-02
 IDIUse=2 WtCom= 0.00D+00 WtEn= 1.00D+00
 Coeff-En:   0.000D+00 0.000D+00 0.772D+00 0.228D+00
 Coeff:      0.000D+00 0.000D+00 0.772D+00 0.228D+00
 Gap=     0.197 Goal=   None    Shift=    0.000
 RMSDP=1.20D-03 MaxDP=5.54D-02 DE= 1.07D-01 OVMax= 1.20D-01

 Cycle   5  Pass 0  IDiag  1:
 RMSU=  2.02D-04    CP:  9.78D-01  9.99D-01  5.17D-01  4.61D-01
 E= -650.420024008655     Delta-E=       -0.127438039463 Rises=F Damp=F
 DIIS: error= 7.85D-03 at cycle   5 NSaved=   5.
 NSaved= 5 IEnMin= 5 EnMin= -650.420024008655     IErMin= 2 ErrMin= 7.39D-03
 ErrMax= 7.85D-03  0.00D+00 EMaxC= 1.00D-01 BMatC= 9.97D-03 BMatP= 2.44D-02
 IDIUse=3 WtCom= 9.21D-01 WtEn= 7.85D-02
 Coeff-Com:  0.942D-03 0.824D-02 0.295D+00-0.640D-01 0.760D+00
 Coeff-En:   0.000D+00 0.000D+00 0.287D+00 0.000D+00 0.713D+00
 Coeff:      0.868D-03 0.759D-02 0.294D+00-0.589D-01 0.756D+00
 Gap=     0.198 Goal=   None    Shift=    0.000
 RMSDP=3.98D-04 MaxDP=1.89D-02 DE=-1.27D-01 OVMax= 3.98D-02

 Cycle   6  Pass 0  IDiag  1:
 RMSU=  6.01D-05    CP:  9.77D-01  9.31D-01  6.91D-01  2.87D-01  7.98D-01
 E= -650.429052061004     Delta-E=       -0.009028052349 Rises=F Damp=F
 DIIS: error= 4.00D-04 at cycle   6 NSaved=   6.
 NSaved= 6 IEnMin= 6 EnMin= -650.429052061004     IErMin= 6 ErrMin= 4.00D-04
 ErrMax= 4.00D-04  0.00D+00 EMaxC= 1.00D-01 BMatC= 4.60D-05 BMatP= 9.97D-03
 IDIUse=3 WtCom= 9.96D-01 WtEn= 4.00D-03
 Coeff-Com: -0.114D-02 0.218D-02 0.115D+00-0.537D-01 0.419D+00 0.518D+00
 Coeff-En:   0.000D+00 0.000D+00 0.000D+00 0.000D+00 0.000D+00 0.100D+01
 Coeff:     -0.114D-02 0.217D-02 0.115D+00-0.535D-01 0.418D+00 0.520D+00
 Gap=     0.198 Goal=   None    Shift=    0.000
 RMSDP=3.16D-05 MaxDP=1.10D-03 DE=-9.03D-03 OVMax= 2.97D-03

 Cycle   7  Pass 0  IDiag  1:
 RMSU=  1.50D-05    CP:  9.77D-01  9.33D-01  6.86D-01  2.90D-01  8.53D-01
                    CP:  6.11D-01
 E= -650.429096790649     Delta-E=       -0.000044729645 Rises=F Damp=F
 DIIS: error= 1.55D-04 at cycle   7 NSaved=   7.
 NSaved= 7 IEnMin= 7 EnMin= -650.429096790649     IErMin= 7 ErrMin= 1.55D-04
 ErrMax= 1.55D-04  0.00D+00 EMaxC= 1.00D-01 BMatC= 3.82D-06 BMatP= 4.60D-05
 IDIUse=3 WtCom= 9.98D-01 WtEn= 1.55D-03
 Coeff-Com: -0.707D-03 0.797D-03 0.533D-01-0.296D-01 0.211D+00 0.305D+00
 Coeff-Com:  0.460D+00
 Coeff-En:   0.000D+00 0.000D+00 0.000D+00 0.000D+00 0.000D+00 0.000D+00
 Coeff-En:   0.100D+01
 Coeff:     -0.706D-03 0.796D-03 0.532D-01-0.295D-01 0.211D+00 0.304D+00
 Coeff:      0.461D+00
 Gap=     0.198 Goal=   None    Shift=    0.000
 RMSDP=8.18D-06 MaxDP=4.11D-04 DE=-4.47D-05 OVMax= 8.70D-04

 Initial convergence to 1.0D-05 achieved.  Increase integral accuracy.
 Cycle   8  Pass 1  IDiag  1:
 E= -650.429097666353     Delta-E=       -0.000000875704 Rises=F Damp=F
 DIIS: error= 6.65D-05 at cycle   1 NSaved=   1.
 NSaved= 1 IEnMin= 1 EnMin= -650.429097666353     IErMin= 1 ErrMin= 6.65D-05
 ErrMax= 6.65D-05  0.00D+00 EMaxC= 1.00D-01 BMatC= 8.35D-07 BMatP= 8.35D-07
 IDIUse=1 WtCom= 1.00D+00 WtEn= 0.00D+00
 Coeff-Com:  0.100D+01
 Coeff:      0.100D+01
 Gap=     0.198 Goal=   None    Shift=    0.000
 RMSDP=8.18D-06 MaxDP=4.11D-04 DE=-8.76D-07 OVMax= 4.73D-04

 Cycle   9  Pass 1  IDiag  1:
 RMSU=  4.66D-05    CP:  1.00D+00
 E= -650.429097600323     Delta-E=        0.000000066030 Rises=F Damp=F
 DIIS: error= 8.01D-05 at cycle   2 NSaved=   2.
 NSaved= 2 IEnMin= 1 EnMin= -650.429097666353     IErMin= 1 ErrMin= 6.65D-05
 ErrMax= 8.01D-05  0.00D+00 EMaxC= 1.00D-01 BMatC= 1.03D-06 BMatP= 8.35D-07
 IDIUse=1 WtCom= 1.00D+00 WtEn= 0.00D+00
 Coeff-Com:  0.534D+00 0.466D+00
 Coeff:      0.534D+00 0.466D+00
 Gap=     0.198 Goal=   None    Shift=    0.000
 RMSDP=6.09D-06 MaxDP=2.32D-04 DE= 6.60D-08 OVMax= 4.53D-04

 Cycle  10  Pass 1  IDiag  1:
 RMSU=  6.06D-06    CP:  1.00D+00  9.98D-01
 E= -650.429098384011     Delta-E=       -0.000000783688 Rises=F Damp=F
 DIIS: error= 3.21D-05 at cycle   3 NSaved=   3.
 NSaved= 3 IEnMin= 3 EnMin= -650.429098384011     IErMin= 3 ErrMin= 3.21D-05
 ErrMax= 3.21D-05  0.00D+00 EMaxC= 1.00D-01 BMatC= 2.05D-07 BMatP= 8.35D-07
 IDIUse=1 WtCom= 1.00D+00 WtEn= 0.00D+00
 Coeff-Com:  0.281D-01 0.305D+00 0.666D+00
 Coeff:      0.281D-01 0.305D+00 0.666D+00
 Gap=     0.198 Goal=   None    Shift=    0.000
 RMSDP=2.06D-06 MaxDP=9.09D-05 DE=-7.84D-07 OVMax= 1.92D-04

 Cycle  11  Pass 1  IDiag  1:
 RMSU=  8.10D-07    CP:  1.00D+00  1.01D+00  7.05D-01
 E= -650.429098559320     Delta-E=       -0.000000175310 Rises=F Damp=F
 DIIS: error= 8.22D-06 at cycle   4 NSaved=   4.
 NSaved= 4 IEnMin= 4 EnMin= -650.429098559320     IErMin= 4 ErrMin= 8.22D-06
 ErrMax= 8.22D-06  0.00D+00 EMaxC= 1.00D-01 BMatC= 1.89D-08 BMatP= 2.05D-07
 IDIUse=1 WtCom= 1.00D+00 WtEn= 0.00D+00
 Coeff-Com: -0.457D-02 0.173D+00 0.418D+00 0.413D+00
 Coeff:     -0.457D-02 0.173D+00 0.418D+00 0.413D+00
 Gap=     0.198 Goal=   None    Shift=    0.000
 RMSDP=5.05D-07 MaxDP=2.49D-05 DE=-1.75D-07 OVMax= 4.44D-05

 Cycle  12  Pass 1  IDiag  1:
 RMSU=  1.86D-07    CP:  1.00D+00  1.01D+00  7.26D-01  4.46D-01
 E= -650.429098575810     Delta-E=       -0.000000016490 Rises=F Damp=F
 DIIS: error= 1.09D-06 at cycle   5 NSaved=   5.
 NSaved= 5 IEnMin= 5 EnMin= -650.429098575810     IErMin= 5 ErrMin= 1.09D-06
 ErrMax= 1.09D-06  0.00D+00 EMaxC= 1.00D-01 BMatC= 3.67D-10 BMatP= 1.89D-08
 IDIUse=1 WtCom= 1.00D+00 WtEn= 0.00D+00
 Coeff-Com: -0.333D-02 0.940D-01 0.227D+00 0.240D+00 0.442D+00
 Coeff:     -0.333D-02 0.940D-01 0.227D+00 0.240D+00 0.442D+00
 Gap=     0.198 Goal=   None    Shift=    0.000
 RMSDP=8.39D-08 MaxDP=2.89D-06 DE=-1.65D-08 OVMax= 6.14D-06

 Cycle  13  Pass 1  IDiag  1:
 RMSU=  6.74D-08    CP:  1.00D+00  1.01D+00  7.24D-01  4.64D-01  7.52D-01
 E= -650.429098576136     Delta-E=       -0.000000000325 Rises=F Damp=F
 DIIS: error= 3.06D-07 at cycle   6 NSaved=   6.
 NSaved= 6 IEnMin= 6 EnMin= -650.429098576136     IErMin= 6 ErrMin= 3.06D-07
 ErrMax= 3.06D-07  0.00D+00 EMaxC= 1.00D-01 BMatC= 2.15D-11 BMatP= 3.67D-10
 IDIUse=1 WtCom= 1.00D+00 WtEn= 0.00D+00
 Coeff-Com: -0.116D-02 0.276D-01 0.653D-01 0.717D-01 0.227D+00 0.610D+00
 Coeff:     -0.116D-02 0.276D-01 0.653D-01 0.717D-01 0.227D+00 0.610D+00
 Gap=     0.198 Goal=   None    Shift=    0.000
 RMSDP=2.78D-08 MaxDP=7.29D-07 DE=-3.25D-10 OVMax= 2.27D-06

 Cycle  14  Pass 1  IDiag  1:
 RMSU=  2.06D-08    CP:  1.00D+00  1.01D+00  7.22D-01  4.67D-01  7.91D-01
                    CP:  7.89D-01
 E= -650.429098576163     Delta-E=       -0.000000000027 Rises=F Damp=F
 DIIS: error= 5.64D-08 at cycle   7 NSaved=   7.
 NSaved= 7 IEnMin= 7 EnMin= -650.429098576163     IErMin= 7 ErrMin= 5.64D-08
 ErrMax= 5.64D-08  0.00D+00 EMaxC= 1.00D-01 BMatC= 1.89D-12 BMatP= 2.15D-11
 IDIUse=1 WtCom= 1.00D+00 WtEn= 0.00D+00
 Coeff-Com: -0.162D-03 0.231D-02 0.480D-02 0.557D-02 0.547D-01 0.281D+00
 Coeff-Com:  0.652D+00
 Coeff:     -0.162D-03 0.231D-02 0.480D-02 0.557D-02 0.547D-01 0.281D+00
 Coeff:      0.652D+00
 Gap=     0.198 Goal=   None    Shift=    0.000
 RMSDP=7.72D-09 MaxDP=2.84D-07 DE=-2.73D-11 OVMax= 4.30D-07

 SCF Done:  E(RPBE1PBE) =  -650.429098576     A.U. after   14 cycles
            NFock= 14  Conv=0.77D-08     -V/T= 2.0101
 KE= 6.439240492725D+02 PE=-3.500020083480D+03 EE= 1.210823719250D+03
 Leave Link  502 at Thu Nov  3 08:05:19 2022, MaxMem=  4194304000 cpu:             410.3 elap:              51.9
 (Enter /software/gaussian/G16-A.03/avx/g16/l801.exe)
 DoSCS=F DFT=T ScalE2(SS,OS)=  1.000000  1.000000
 Range of M.O.s used for correlation:     1   290
 NBasis=   290 NAE=    55 NBE=    55 NFC=     0 NFV=     0
 NROrb=    290 NOA=    55 NOB=    55 NVA=   235 NVB=   235

 **** Warning!!: The largest alpha MO coefficient is  0.11164641D+02

 Leave Link  801 at Thu Nov  3 08:05:20 2022, MaxMem=  4194304000 cpu:               0.6 elap:               0.2
 (Enter /software/gaussian/G16-A.03/avx/g16/l1101.exe)
 Using compressed storage, NAtomX=    31.
 Will process     32 centers per pass.
   1 Symmetry operations used in ECPInt.
 ECPInt:  NShTT=    9591 NPrTT=   34173 LenC2=    8960 LenP2D=   23428.
 LDataN:  DoStor=T MaxTD1= 5 Len=  102
 R6Disp: Adding Grimme-D3(BJ) dispersion energy 1st derivatives to the gradient.
 Leave Link 1101 at Thu Nov  3 08:05:22 2022, MaxMem=  4194304000 cpu:              10.9 elap:               1.9
 (Enter /software/gaussian/G16-A.03/avx/g16/l1102.exe)
 Symmetrizing basis deriv contribution to polar:
 IMax=3 JMax=2 DiffMx= 0.00D+00
 Leave Link 1102 at Thu Nov  3 08:05:23 2022, MaxMem=  4194304000 cpu:               1.1 elap:               0.2
 (Enter /software/gaussian/G16-A.03/avx/g16/l1110.exe)
 Forming Gx(P) for the SCF density, NAtomX=    31.
 Integral derivatives from FoFJK, PRISM(SPDF).
 Do as many integral derivatives as possible in FoFJK.
 G2DrvN: MDV=    4194301632.
 G2DrvN: will do    32 centers at a time, making    1 passes.
 Calling FoFCou, ICntrl=  3107 FMM=F I1Cent=   0 AccDes= 0.00D+00.
 FoFJK:  IHMeth= 1 ICntrl=    3107 DoSepK=F KAlg= 0 I1Cent=           0 FoldK=F
 IRaf=         0 NMat=       1 IRICut=       1 DoRegI=T DoRafI=F ISym2E= 0 IDoP0=0 IntGTp=1.
 FoFCou: FMM=F IPFlag=           0 FMFlag=      100000 FMFlg1=           0
         NFxFlg=           0 DoJE=F BraDBF=F KetDBF=F FulRan=T
         wScrn=  0.000000 ICntrl=      3107 IOpCl=  0 I1Cent=           0 NGrid=           0
         NMat0=    1 NMatS0=      1 NMatT0=    0 NMatD0=    1 NMtDS0=    0 NMtDT0=    0
 Symmetry not used in FoFCou.
 End of G2Drv F.D. properties file   721 does not exist.
 End of G2Drv F.D. properties file   722 does not exist.
 End of G2Drv F.D. properties file   788 does not exist.
 Leave Link 1110 at Thu Nov  3 08:08:09 2022, MaxMem=  4194304000 cpu:            1303.2 elap:             165.9
 (Enter /software/gaussian/G16-A.03/avx/g16/l1002.exe)
 Minotr:  Closed shell wavefunction.
          IDoAtm=1111111111111111111111111111111
          Direct CPHF calculation.
          Differentiating once with respect to electric field.
                with respect to dipole field.
          Differentiating once with respect to nuclear coordinates.
          Requested convergence is 1.0D-08 RMS, and 1.0D-07 maximum.
          Secondary convergence is 1.0D-12 RMS, and 1.0D-12 maximum.
          NewPWx=T KeepS1=F KeepF1=F KeepIn=T MapXYZ=F SortEE=F KeepMc=T.
         9365 words used for storage of precomputed grid.
 Keep R1 ints in memory in canonical form, NReq=904571096.
 FoFCou: FMM=F IPFlag=           0 FMFlag=           0 FMFlg1=           0
         NFxFlg=           0 DoJE=F BraDBF=F KetDBF=F FulRan=T
         wScrn=  0.000000 ICntrl=       600 IOpCl=  0 I1Cent=           0 NGrid=           0
         NMat0=    1 NMatS0=  42195 NMatT0=    0 NMatD0=    1 NMtDS0=    0 NMtDT0=    0
 Symmetry not used in FoFCou.
 Two-electron integral symmetry not used.
          MDV=    4194304000 using IRadAn=       1.
          Solving linear equations simultaneously, MaxMat=       0.
          There are    96 degrees of freedom in the 1st order CPHF.  IDoFFX=6 NUNeed=     3.
     93 vectors produced by pass  0 Test12= 1.35D-14 1.04D-09 XBig12= 1.69D+02 7.08D+00.
 AX will form    93 AO Fock derivatives at one time.
     93 vectors produced by pass  1 Test12= 1.35D-14 1.04D-09 XBig12= 3.18D+01 1.36D+00.
     93 vectors produced by pass  2 Test12= 1.35D-14 1.04D-09 XBig12= 2.44D-01 6.07D-02.
     93 vectors produced by pass  3 Test12= 1.35D-14 1.04D-09 XBig12= 9.37D-04 3.45D-03.
     93 vectors produced by pass  4 Test12= 1.35D-14 1.04D-09 XBig12= 2.20D-06 1.89D-04.
     65 vectors produced by pass  5 Test12= 1.35D-14 1.04D-09 XBig12= 3.36D-09 5.27D-06.
     19 vectors produced by pass  6 Test12= 1.35D-14 1.04D-09 XBig12= 3.86D-12 1.89D-07.
      3 vectors produced by pass  7 Test12= 1.35D-14 1.04D-09 XBig12= 3.47D-15 6.30D-09.
 InvSVY:  IOpt=1 It=  1 EMax= 2.66D-15
 Solved reduced A of dimension   552 with    96 vectors.
 FullF1:  Do perturbations      1 to       3.
 Isotropic polarizability for W=    0.000000      143.52 Bohr**3.
 End of Minotr F.D. properties file   721 does not exist.
 End of Minotr F.D. properties file   722 does not exist.
 End of Minotr F.D. properties file   788 does not exist.
 Leave Link 1002 at Thu Nov  3 08:12:09 2022, MaxMem=  4194304000 cpu:            1686.0 elap:             238.6
 (Enter /software/gaussian/G16-A.03/avx/g16/l601.exe)
 Copying SCF densities to generalized density rwf, IOpCl= 0 IROHF=0.

 **********************************************************************

            Population analysis using the SCF density.

 **********************************************************************

 Orbital symmetries:
       Occupied  (A) (A) (A) (A) (A) (A) (A) (A) (A) (A) (A) (A)
                 (A) (A) (A) (A) (A) (A) (A) (A) (A) (A) (A) (A)
                 (A) (A) (A) (A) (A) (A) (A) (A) (A) (A) (A) (A)
                 (A) (A) (A) (A) (A) (A) (A) (A) (A) (A) (A) (A)
                 (A) (A) (A) (A) (A) (A) (A)
       Virtual   (A) (A) (A) (A) (A) (A) (A) (A) (A) (A) (A) (A)
                 (A) (A) (A) (A) (A) (A) (A) (A) (A) (A) (A) (A)
                 (A) (A) (A) (A) (A) (A) (A) (A) (A) (A) (A) (A)
                 (A) (A) (A) (A) (A) (A) (A) (A) (A) (A) (A) (A)
                 (A) (A) (A) (A) (A) (A) (A) (A) (A) (A) (A) (A)
                 (A) (A) (A) (A) (A) (A) (A) (A) (A) (A) (A) (A)
                 (A) (A) (A) (A) (A) (A) (A) (A) (A) (A) (A) (A)
                 (A) (A) (A) (A) (A) (A) (A) (A) (A) (A) (A) (A)
                 (A) (A) (A) (A) (A) (A) (A) (A) (A) (A) (A) (A)
                 (A) (A) (A) (A) (A) (A) (A) (A) (A) (A) (A) (A)
                 (A) (A) (A) (A) (A) (A) (A) (A) (A) (A) (A) (A)
                 (A) (A) (A) (A) (A) (A) (A) (A) (A) (A) (A) (A)
                 (A) (A) (A) (A) (A) (A) (A) (A) (A) (A) (A) (A)
                 (A) (A) (A) (A) (A) (A) (A) (A) (A) (A) (A) (A)
                 (A) (A) (A) (A) (A) (A) (A) (A) (A) (A) (A) (A)
                 (A) (A) (A) (A) (A) (A) (A) (A) (A) (A) (A) (A)
                 (A) (A) (A) (A) (A) (A) (A) (A) (A) (A) (A) (A)
                 (A) (A) (A) (A) (A) (A) (A) (A) (A) (A) (A) (A)
                 (A) (A) (A) (A) (A) (A) (A) (A) (A) (A) (A) (A)
                 (A) (A) (A) (A) (A) (A) (A)
 The electronic state is 1-A.
 Alpha  occ. eigenvalues --  -19.24969 -14.38445 -14.35555 -10.31141 -10.29002
 Alpha  occ. eigenvalues --  -10.28178 -10.27364 -10.26289 -10.25945 -10.25486
 Alpha  occ. eigenvalues --  -10.25304 -10.24366 -10.22457 -10.21905 -10.21190
 Alpha  occ. eigenvalues --   -1.12192  -0.97216  -0.91644  -0.84082  -0.82489
 Alpha  occ. eigenvalues --   -0.80344  -0.75604  -0.69793  -0.69210  -0.66814
 Alpha  occ. eigenvalues --   -0.65993  -0.63835  -0.58789  -0.55811  -0.53996
 Alpha  occ. eigenvalues --   -0.51529  -0.50820  -0.50331  -0.47492  -0.46644
 Alpha  occ. eigenvalues --   -0.45216  -0.44775  -0.44362  -0.42923  -0.42404
 Alpha  occ. eigenvalues --   -0.40961  -0.39524  -0.39103  -0.38514  -0.37650
 Alpha  occ. eigenvalues --   -0.36883  -0.36653  -0.34425  -0.33588  -0.33029
 Alpha  occ. eigenvalues --   -0.30739  -0.28890  -0.27853  -0.25050  -0.24426
 Alpha virt. eigenvalues --   -0.04587  -0.02269   0.05818   0.06875   0.07435
 Alpha virt. eigenvalues --    0.09334   0.09706   0.10510   0.11488   0.12206
 Alpha virt. eigenvalues --    0.13306   0.13841   0.14373   0.14765   0.15553
 Alpha virt. eigenvalues --    0.16474   0.16846   0.17788   0.18686   0.19876
 Alpha virt. eigenvalues --    0.20384   0.21427   0.21654   0.23711   0.24425
 Alpha virt. eigenvalues --    0.24785   0.26380   0.26487   0.27834   0.28885
 Alpha virt. eigenvalues --    0.30479   0.32410   0.34383   0.36463   0.39073
 Alpha virt. eigenvalues --    0.39877   0.40456   0.42343   0.42550   0.43241
 Alpha virt. eigenvalues --    0.44094   0.46116   0.47160   0.47682   0.48645
 Alpha virt. eigenvalues --    0.52461   0.53191   0.53450   0.54322   0.55409
 Alpha virt. eigenvalues --    0.55830   0.57180   0.58151   0.59223   0.59635
 Alpha virt. eigenvalues --    0.60838   0.61467   0.62915   0.63466   0.64493
 Alpha virt. eigenvalues --    0.65171   0.65412   0.65840   0.66374   0.66680
 Alpha virt. eigenvalues --    0.67090   0.68436   0.68514   0.69097   0.69968
 Alpha virt. eigenvalues --    0.70769   0.71296   0.71448   0.72233   0.72933
 Alpha virt. eigenvalues --    0.73297   0.74276   0.74329   0.74804   0.75587
 Alpha virt. eigenvalues --    0.76094   0.76335   0.76702   0.78905   0.79260
 Alpha virt. eigenvalues --    0.80213   0.81789   0.85268   0.86724   0.87742
 Alpha virt. eigenvalues --    0.90087   0.90527   0.95294   0.99144   1.00445
 Alpha virt. eigenvalues --    1.03033   1.04056   1.04857   1.10074   1.12774
 Alpha virt. eigenvalues --    1.13661   1.14638   1.15829   1.17105   1.17846
 Alpha virt. eigenvalues --    1.18937   1.19895   1.23178   1.24350   1.25297
 Alpha virt. eigenvalues --    1.25615   1.29572   1.29802   1.32038   1.34404
 Alpha virt. eigenvalues --    1.35709   1.38452   1.39840   1.43217   1.48968
 Alpha virt. eigenvalues --    1.49195   1.51538   1.53768   1.55216   1.57350
 Alpha virt. eigenvalues --    1.57994   1.58330   1.59597   1.61032   1.64798
 Alpha virt. eigenvalues --    1.66200   1.67542   1.68604   1.69312   1.70612
 Alpha virt. eigenvalues --    1.72254   1.73374   1.74586   1.75973   1.77496
 Alpha virt. eigenvalues --    1.77967   1.78397   1.79488   1.79749   1.80823
 Alpha virt. eigenvalues --    1.81494   1.83521   1.83742   1.85153   1.85762
 Alpha virt. eigenvalues --    1.86748   1.87232   1.88395   1.90751   1.91641
 Alpha virt. eigenvalues --    1.92664   1.93214   1.93240   1.94587   1.95273
 Alpha virt. eigenvalues --    1.96612   1.96724   1.98580   1.98968   1.99533
 Alpha virt. eigenvalues --    2.00297   2.01905   2.02563   2.05417   2.07777
 Alpha virt. eigenvalues --    2.08433   2.10352   2.13082   2.15687   2.18426
 Alpha virt. eigenvalues --    2.19390   2.21762   2.22249   2.24902   2.27437
 Alpha virt. eigenvalues --    2.29300   2.30383   2.31564   2.34115   2.34988
 Alpha virt. eigenvalues --    2.38370   2.41110   2.41715   2.42042   2.43794
 Alpha virt. eigenvalues --    2.44435   2.44811   2.47786   2.49821   2.53659
 Alpha virt. eigenvalues --    2.55871   2.58142   2.59184   2.60554   2.64392
 Alpha virt. eigenvalues --    2.64802   2.66118   2.67750   2.68659   2.71551
 Alpha virt. eigenvalues --    2.72834   2.73926   2.75110   2.80935   2.83053
 Alpha virt. eigenvalues --    2.85045   2.87220   2.88929   2.89802   2.91281
 Alpha virt. eigenvalues --    2.92198   2.93436   2.94483   2.98390   2.99097
 Alpha virt. eigenvalues --    2.99920   3.05273   3.05576   3.06777   3.07305
 Alpha virt. eigenvalues --    3.09681   3.11412   3.14513   3.15580   3.19716
 Alpha virt. eigenvalues --    3.29447   3.35115   3.46612   3.64745   3.71379
     Molecular Orbital Coefficients:
                          51        52        53        54        55
                           O         O         O         O         O
     Eigenvalues --    -0.30739  -0.28890  -0.27853  -0.25050  -0.24426
   1 1   C  1S         -0.00052  -0.00071  -0.00920  -0.00443   0.00232
   2        2S          0.00078   0.00157   0.02152   0.01245  -0.00644
   3        3S          0.00889   0.01273   0.00383  -0.02002  -0.03491
   4        4PX         0.00520   0.00844  -0.04284  -0.01482   0.04366
   5        4PY        -0.00202  -0.00874   0.01741   0.00849  -0.00805
   6        4PZ         0.00730   0.00776   0.00444   0.00538   0.00544
   7        5PX         0.00252   0.00599  -0.01815   0.00251   0.05159
   8        5PY        -0.00297  -0.01005   0.00233  -0.00440  -0.01307
   9        5PZ         0.00634   0.00711   0.01347   0.01261  -0.00428
  10        6D 0       -0.00033  -0.00056   0.00017   0.00016  -0.00117
  11        6D+1        0.00119   0.00162  -0.00148  -0.00024   0.00451
  12        6D-1        0.00002  -0.00011   0.00001  -0.00010  -0.00051
  13        6D+2        0.00103   0.00129   0.00144   0.00113   0.00295
  14        6D-2        0.00071   0.00101  -0.00061   0.00011   0.00257
  15 2   C  1S         -0.00272  -0.00623  -0.00200  -0.00584  -0.02663
  16        2S          0.00836   0.01937   0.00706   0.01243   0.05791
  17        3S         -0.00987  -0.00748   0.01520   0.07155   0.20786
  18        4PX        -0.02231  -0.03602   0.02667  -0.00671  -0.11454
  19        4PY        -0.02508  -0.03263  -0.03338  -0.02607  -0.06909
  20        4PZ        -0.03072  -0.04292   0.00055  -0.01665  -0.11368
  21        5PX        -0.00508  -0.00825   0.03646   0.00940  -0.07131
  22        5PY         0.00347   0.01022   0.00688   0.00986  -0.08109
  23        5PZ        -0.01754  -0.02859  -0.05127  -0.05902  -0.08214
  24        6D 0        0.00007  -0.00006   0.00026   0.00060  -0.00037
  25        6D+1        0.00187   0.00238   0.00063   0.00147   0.00456
  26        6D-1        0.00112   0.00138  -0.00062  -0.00027   0.00396
  27        6D+2        0.00074   0.00063   0.00425   0.00307   0.00001
  28        6D-2        0.00059   0.00086  -0.00331  -0.00148   0.00435
  29 3   C  1S         -0.00264  -0.00054  -0.02178  -0.02177  -0.00252
  30        2S          0.00406  -0.00243   0.04948   0.05692   0.01254
  31        3S          0.03830   0.05630   0.05756   0.05320  -0.04886
  32        4PX         0.01700   0.02507  -0.10255  -0.07903   0.04001
  33        4PY         0.02639   0.03301   0.10217   0.09504   0.04849
  34        4PZ         0.03392   0.04945  -0.02552  -0.00401   0.13465
  35        5PX         0.00454  -0.00148  -0.05780  -0.04737  -0.03878
  36        5PY         0.00587   0.00803  -0.00062  -0.01346   0.02502
  37        5PZ         0.02972   0.03335  -0.00310  -0.00084   0.01233
  38        6D 0       -0.00008  -0.00029   0.00042   0.00055  -0.00435
  39        6D+1        0.00108   0.00290  -0.00445  -0.00272   0.02134
  40        6D-1        0.00239   0.00362   0.00065   0.00149   0.00153
  41        6D+2        0.00125   0.00107   0.01693   0.01705   0.00459
  42        6D-2        0.00090   0.00148   0.00326   0.00518   0.00410
  43 4   H  1S         -0.01850  -0.03564   0.04566   0.03229  -0.14164
  44        2S         -0.00859  -0.02001   0.01464   0.00848  -0.09790
  45        3PX         0.00065   0.00119  -0.00147  -0.00110   0.00195
  46        3PY         0.00054   0.00073   0.00196   0.00218   0.00335
  47        3PZ        -0.00015  -0.00049   0.00149   0.00126  -0.00238
  48 5   C  1S          0.00199   0.00108   0.02346   0.02785   0.00171
  49        2S         -0.00389  -0.00167  -0.05851  -0.06568  -0.00702
  50        3S         -0.02582  -0.03410  -0.10370  -0.14745   0.01798
  51        4PX        -0.01629  -0.02803  -0.01697   0.00645  -0.02025
  52        4PY        -0.02418  -0.02765  -0.12778  -0.12376  -0.03155
  53        4PZ        -0.04377  -0.07641   0.02625   0.00923  -0.06682
  54        5PX        -0.00310   0.00060  -0.03403  -0.01308  -0.00062
  55        5PY        -0.02062  -0.02230  -0.09906  -0.11393  -0.00662
  56        5PZ        -0.01674  -0.01618   0.01552   0.01165  -0.00834
  57        6D 0        0.00302   0.00641   0.00180   0.00219   0.00673
  58        6D+1       -0.00386  -0.00862   0.00196   0.00226  -0.00686
  59        6D-1        0.00354   0.00613  -0.00220  -0.00092   0.00805
  60        6D+2       -0.00126  -0.00286  -0.00247  -0.00318  -0.00344
  61        6D-2       -0.00014  -0.00095  -0.00199  -0.00315  -0.00165
  62 6   O  1S         -0.00072  -0.00128  -0.01470  -0.00606  -0.00015
  63        2S         -0.00195  -0.00389  -0.03229  -0.01187   0.00059
  64        3S         -0.00031   0.00191  -0.08322  -0.07693  -0.00834
  65        4PX         0.03452   0.07529  -0.00139  -0.02737   0.07530
  66        4PY         0.02332   0.06039  -0.12106  -0.08796   0.07311
  67        4PZ         0.10154   0.22232   0.02237   0.04220   0.27571
  68        5PX         0.02900   0.06092   0.00846  -0.01944   0.06344
  69        5PY         0.01781   0.04640  -0.09227  -0.08247   0.05966
  70        5PZ         0.07862   0.17061   0.01585   0.03771   0.23325
  71        6D 0       -0.00136  -0.00345   0.00023   0.00041  -0.00241
  72        6D+1       -0.00004   0.00105   0.00092   0.00141   0.00188
  73        6D-1        0.00279   0.00527   0.00176   0.00115   0.00287
  74        6D+2       -0.00069  -0.00087   0.00093  -0.00143  -0.00029
  75        6D-2        0.00080   0.00238  -0.00394  -0.00270   0.00139
  76 7   C  1S         -0.00252  -0.00072  -0.05625  -0.01073  -0.00163
  77        2S          0.00616   0.00222   0.14639   0.02858   0.00479
  78        3S          0.01908   0.00237   0.02146  -0.24064   0.05530
  79        4PX         0.00151  -0.00917  -0.01100   0.11638  -0.05379
  80        4PY         0.00118  -0.00919   0.06802   0.02658  -0.04832
  81        4PZ        -0.01329  -0.04638  -0.00629  -0.04146  -0.19258
  82        5PX         0.00643   0.00322   0.00297   0.22641  -0.03914
  83        5PY         0.00365  -0.00874  -0.07039  -0.14014  -0.02082
  84        5PZ         0.00331  -0.01519   0.02293  -0.02255  -0.13329
  85        6D 0        0.00159   0.00124   0.00202   0.00214   0.01667
  86        6D+1        0.00551   0.01264  -0.00436  -0.00698  -0.01177
  87        6D-1       -0.00760  -0.01380   0.00622   0.00006  -0.02613
  88        6D+2        0.00431   0.00704   0.02347   0.01688   0.00425
  89        6D-2        0.00024   0.00045   0.00632   0.00877  -0.01089
  90 8   N  1S         -0.00208   0.00081  -0.07275  -0.07212   0.00379
  91        2S         -0.00227   0.00374  -0.14977  -0.15182   0.01333
  92        3S         -0.02583  -0.01826  -0.18142  -0.17651  -0.03777
  93        4PX         0.00203   0.01206  -0.12361  -0.08592   0.06721
  94        4PY         0.01303   0.00412   0.33059   0.34303   0.07107
  95        4PZ         0.00639   0.03683  -0.06343  -0.03378   0.36532
  96        5PX        -0.00327  -0.01660   0.07486   0.01876  -0.05804
  97        5PY        -0.00597   0.00148  -0.23965  -0.21948  -0.04776
  98        5PZ        -0.01522  -0.02916   0.05262   0.02376  -0.28149
  99        6D 0       -0.00069  -0.00138  -0.00766  -0.00888  -0.00947
 100        6D+1        0.00204   0.00284  -0.00094   0.00109   0.00545
 101        6D-1       -0.00033   0.00148  -0.00613  -0.00431   0.01758
 102        6D+2        0.00017   0.00057  -0.00995  -0.01129  -0.00242
 103        6D-2        0.00098   0.00179  -0.00394  -0.00650   0.00578
 104 9   N  1S          0.00053   0.00146  -0.05713   0.08045  -0.01066
 105        2S          0.00110   0.00292  -0.11816   0.17324  -0.02379
 106        3S          0.00066  -0.00104  -0.13312   0.15323  -0.01447
 107        4PX         0.07158  -0.01793   0.22314  -0.28683   0.01297
 108        4PY         0.10040  -0.02968   0.18912  -0.23508  -0.00925
 109        4PZ         0.29588  -0.04278  -0.12503   0.13532  -0.10990
 110        5PX        -0.04975   0.01364  -0.18554   0.18758  -0.00751
 111        5PY        -0.07059   0.02015  -0.13227   0.16401  -0.00065
 112        5PZ        -0.20605   0.03004   0.09323  -0.09527   0.07244
 113        6D 0       -0.00912  -0.00067  -0.00568   0.00801   0.00297
 114        6D+1        0.00865  -0.01175  -0.00556   0.00774  -0.00191
 115        6D-1        0.00625   0.00992  -0.00576   0.00635  -0.00571
 116        6D+2       -0.00029  -0.00592  -0.00093  -0.00317   0.00232
 117        6D-2        0.00524  -0.00216   0.00473  -0.00933  -0.00118
 118 10  C  1S         -0.00045  -0.00049  -0.02916   0.01104  -0.00367
 119        2S          0.00181   0.00216   0.07829  -0.03165   0.01274
 120        3S         -0.00696  -0.00344   0.04348   0.18982  -0.04370
 121        4PX        -0.02329  -0.05597   0.07594   0.01456   0.03179
 122        4PY        -0.04028  -0.09811   0.10551  -0.10815   0.04671
 123        4PZ        -0.10724  -0.24981  -0.06403   0.05509   0.10121
 124        5PX        -0.02115  -0.03095   0.05585   0.24061   0.00020
 125        5PY        -0.02891  -0.05262   0.01932   0.01417   0.02715
 126        5PZ        -0.08937  -0.17142  -0.02531  -0.04371   0.08603
 127        6D 0        0.01303  -0.00646  -0.00347   0.00409   0.00356
 128        6D+1       -0.00160   0.00207   0.00436  -0.00520  -0.01088
 129        6D-1       -0.01633   0.00701   0.00601  -0.00543   0.00263
 130        6D+2        0.00597  -0.00179   0.00708  -0.00663  -0.00178
 131        6D-2       -0.00556   0.00415  -0.01739   0.01895  -0.00531
 132 11  C  1S          0.00005  -0.00108   0.02111  -0.01578   0.00155
 133        2S         -0.00025   0.00339  -0.05457   0.04976  -0.00537
 134        3S          0.00298   0.01030   0.02193   0.11255  -0.00368
 135        4PX         0.04793  -0.05933  -0.09442   0.06380   0.02059
 136        4PY         0.06787  -0.08390  -0.08326   0.07507   0.03229
 137        4PZ         0.19302  -0.25606   0.03745  -0.02887   0.11508
 138        5PX         0.03698  -0.03468  -0.09299   0.06472   0.02562
 139        5PY         0.04919  -0.05330   0.00975   0.07675   0.03429
 140        5PZ         0.13575  -0.17192   0.00884  -0.03267   0.09674
 141        6D 0        0.00402   0.00702  -0.00066  -0.00016  -0.00382
 142        6D+1       -0.01381  -0.00494   0.00123  -0.00076   0.00395
 143        6D-1        0.00441  -0.00616  -0.00064   0.00186   0.00220
 144        6D+2       -0.00460   0.00176  -0.00177   0.00489  -0.00033
 145        6D-2       -0.00401  -0.00367  -0.00331   0.00202   0.00222
 146 12  C  1S         -0.00006  -0.00004  -0.00263  -0.00471   0.00050
 147        2S          0.00016   0.00019   0.00553   0.01158  -0.00131
 148        3S          0.00127   0.00098  -0.12324   0.05705  -0.00898
 149        4PX         0.08094  -0.00510   0.03186  -0.00509  -0.00965
 150        4PY         0.11204  -0.01001   0.02049  -0.02333  -0.01340
 151        4PZ         0.32590  -0.02061  -0.01982  -0.00339  -0.04314
 152        5PX         0.05256  -0.00292  -0.01413  -0.00391  -0.00597
 153        5PY         0.07073  -0.00953  -0.01412  -0.00191  -0.01936
 154        5PZ         0.20964  -0.01629   0.00491  -0.00778  -0.03322
 155        6D 0       -0.00603  -0.00220  -0.00055   0.00105   0.00171
 156        6D+1        0.00577  -0.01191   0.00206  -0.00112   0.00615
 157        6D-1        0.00417   0.01144   0.00175  -0.00192  -0.00662
 158        6D+2       -0.00023  -0.00692  -0.00152   0.00063   0.00397
 159        6D-2        0.00373  -0.00073  -0.00664   0.00536  -0.00043
 160 13  C  1S         -0.00023  -0.00111   0.01835  -0.02537   0.00317
 161        2S          0.00074   0.00289  -0.05031   0.06572  -0.00824
 162        3S          0.00186   0.00572  -0.00346   0.09641  -0.00290
 163        4PX         0.04813   0.06063  -0.08445   0.09097  -0.04710
 164        4PY         0.06579   0.08300  -0.06499   0.06624  -0.05675
 165        4PZ         0.18645   0.22478   0.05365  -0.06778  -0.13589
 166        5PX         0.03232   0.04128  -0.00758   0.04095  -0.03137
 167        5PY         0.04474   0.05743  -0.08537   0.09270  -0.05307
 168        5PZ         0.12744   0.15822   0.03867  -0.05982  -0.10446
 169        6D 0        0.00829  -0.00743  -0.00166   0.00113   0.00061
 170        6D+1        0.00231   0.00719   0.00068  -0.00004  -0.00227
 171        6D-1       -0.01298   0.00484   0.00127  -0.00075   0.00069
 172        6D+2        0.00533   0.00003   0.00169  -0.00307  -0.00024
 173        6D-2       -0.00320   0.00459  -0.00342   0.00282  -0.00109
 174 14  C  1S         -0.00024   0.00032  -0.01758   0.02501  -0.00379
 175        2S          0.00071  -0.00032   0.03942  -0.06430   0.01010
 176        3S          0.00086   0.00038  -0.01013  -0.03944   0.00538
 177        4PX        -0.02901   0.06671   0.10813  -0.12273   0.00397
 178        4PY        -0.03992   0.08781   0.04393  -0.02881  -0.01718
 179        4PZ        -0.11221   0.27086  -0.02746   0.03780  -0.05797
 180        5PX        -0.02085   0.04793  -0.02500   0.04495  -0.01033
 181        5PY        -0.02931   0.06005   0.02700   0.00374  -0.00857
 182        5PZ        -0.08558   0.17878   0.00697  -0.01208  -0.02664
 183        6D 0        0.00745   0.00608  -0.00217   0.00229  -0.00516
 184        6D+1       -0.01822  -0.00276   0.00711  -0.00789   0.00950
 185        6D-1        0.00302  -0.00628  -0.00100   0.00110   0.00029
 186        6D+2       -0.00519   0.00254  -0.01016   0.01424   0.00043
 187        6D-2       -0.00614  -0.00231  -0.01498   0.01938   0.00143
 188 15  C  1S          0.00147   0.00127  -0.00009  -0.00027   0.00045
 189        2S         -0.00475  -0.00511  -0.00234   0.00097   0.00046
 190        3S          0.01115   0.01814   0.06307   0.02895  -0.04234
 191        4PX         0.00391   0.00287  -0.00923  -0.00670  -0.02228
 192        4PY         0.00073  -0.00091   0.01183   0.00873   0.01310
 193        4PZ         0.01840   0.02196  -0.00127   0.00356   0.04393
 194        5PX        -0.00472  -0.00769  -0.00477   0.00500  -0.03002
 195        5PY         0.00092  -0.00239   0.01213   0.00740   0.01478
 196        5PZ         0.00612   0.00211  -0.01531  -0.00499   0.05324
 197        6D 0        0.00058   0.00110   0.00022   0.00083   0.00258
 198        6D+1        0.00110   0.00140  -0.00086   0.00018   0.00275
 199        6D-1        0.00111   0.00135   0.00103   0.00102   0.00275
 200        6D+2        0.00038   0.00030   0.00162   0.00071  -0.00041
 201        6D-2       -0.00006  -0.00009  -0.00064  -0.00014  -0.00043
 202 16  C  1S          0.00174   0.00215   0.00090  -0.00055   0.00072
 203        2S         -0.00443  -0.00391  -0.00411   0.00288  -0.00230
 204        3S         -0.00825  -0.02563  -0.00100  -0.03484  -0.00262
 205        4PX         0.00593   0.01103  -0.04492  -0.03152   0.00557
 206        4PY         0.01956   0.02144   0.04657   0.03393   0.03161
 207        4PZ         0.00896   0.00905   0.00271   0.00325   0.01138
 208        5PX        -0.00150   0.00401  -0.03373  -0.01083   0.00027
 209        5PY         0.01740   0.02137   0.05835   0.05183   0.02991
 210        5PZ         0.00379   0.00146   0.01802   0.01447   0.01069
 211        6D 0       -0.00028  -0.00021  -0.00025   0.00006  -0.00093
 212        6D+1        0.00059   0.00087  -0.00147  -0.00096   0.00099
 213        6D-1        0.00140   0.00180   0.00046   0.00068   0.00367
 214        6D+2        0.00062   0.00057   0.00115   0.00023  -0.00031
 215        6D-2        0.00082   0.00158  -0.00242  -0.00093   0.00319
 216 17  H  1S          0.01079   0.01224  -0.01082   0.00231   0.04045
 217        2S          0.00686   0.00858  -0.01220  -0.00131   0.03710
 218        3PX        -0.00000   0.00014  -0.00084  -0.00059   0.00017
 219        3PY        -0.00020  -0.00033   0.00077   0.00035  -0.00094
 220        3PZ        -0.00007  -0.00003   0.00023  -0.00006  -0.00092
 221 18  H  1S         -0.00688  -0.00881  -0.00177  -0.00217  -0.00921
 222        2S         -0.00438  -0.00640   0.00704   0.00676  -0.02152
 223        3PX         0.00031   0.00043  -0.00101  -0.00045   0.00170
 224        3PY         0.00005  -0.00005   0.00043   0.00035   0.00024
 225        3PZ         0.00004   0.00005  -0.00003   0.00009   0.00092
 226 19  H  1S         -0.00103   0.00285  -0.01026  -0.00528  -0.00628
 227        2S         -0.00781  -0.01250  -0.01400  -0.00844  -0.02030
 228        3PX         0.00048   0.00082  -0.00116  -0.00057   0.00188
 229        3PY         0.00028   0.00053   0.00007   0.00009   0.00041
 230        3PZ         0.00021   0.00022   0.00009   0.00019   0.00057
 231 20  H  1S         -0.03983  -0.07760   0.04333   0.04004  -0.07546
 232        2S         -0.02228  -0.05055   0.04520   0.04578  -0.05960
 233        3PX        -0.00000  -0.00000  -0.00210  -0.00140  -0.00049
 234        3PY        -0.00158  -0.00287  -0.00262  -0.00249  -0.00295
 235        3PZ         0.00030   0.00074  -0.00127  -0.00132   0.00040
 236 21  H  1S          0.05556   0.09958   0.01381   0.02775   0.10579
 237        2S          0.03161   0.06500   0.01612   0.03067   0.07202
 238        3PX        -0.00007   0.00008  -0.00013   0.00034   0.00050
 239        3PY         0.00123   0.00268  -0.00274  -0.00212   0.00156
 240        3PZ         0.00107   0.00159   0.00184   0.00169   0.00142
 241 22  H  1S         -0.00119  -0.00398   0.05246  -0.05897   0.00521
 242        2S         -0.00055  -0.00318   0.05682  -0.03343   0.00710
 243        3PX         0.00132  -0.00202  -0.00241   0.00287   0.00039
 244        3PY         0.00198  -0.00284   0.00048  -0.00064   0.00133
 245        3PZ         0.00578  -0.00799  -0.00005  -0.00011   0.00372
 246 23  H  1S          0.00052   0.00237  -0.05768   0.03686  -0.00417
 247        2S         -0.00003   0.00131  -0.03780   0.02278  -0.00330
 248        3PX         0.00260  -0.00010  -0.00063   0.00095  -0.00054
 249        3PY         0.00363  -0.00016  -0.00079  -0.00007  -0.00038
 250        3PZ         0.01044  -0.00063   0.00027  -0.00067  -0.00139
 251 24  H  1S         -0.00085  -0.00099   0.05301  -0.05565   0.00751
 252        2S         -0.00080  -0.00142   0.05396  -0.06213   0.00835
 253        3PX         0.00141   0.00184   0.00041  -0.00021  -0.00119
 254        3PY         0.00202   0.00265  -0.00202   0.00205  -0.00191
 255        3PZ         0.00568   0.00722   0.00092  -0.00140  -0.00484
 256 25  H  1S         -0.00147  -0.00668   0.09018  -0.10393   0.01007
 257        2S         -0.00114  -0.00423   0.04794  -0.06601   0.00536
 258        3PX        -0.00083   0.00200   0.00254  -0.00294  -0.00014
 259        3PY        -0.00103   0.00294  -0.00197   0.00173  -0.00089
 260        3PZ        -0.00313   0.00812   0.00048  -0.00002  -0.00218
 261 26  H  1S          0.01618   0.01931  -0.00326   0.00281   0.03249
 262        2S          0.01259   0.01796  -0.00628  -0.00080   0.03337
 263        3PX        -0.00033  -0.00058  -0.00022  -0.00042  -0.00168
 264        3PY        -0.00046  -0.00062   0.00040   0.00041  -0.00031
 265        3PZ        -0.00004   0.00007   0.00029   0.00036  -0.00005
 266 27  H  1S         -0.00340  -0.00393  -0.01397  -0.00920  -0.01455
 267        2S          0.00113   0.00268  -0.01158  -0.00588   0.00507
 268        3PX         0.00022   0.00008  -0.00047  -0.00066  -0.00061
 269        3PY         0.00063   0.00106  -0.00037  -0.00016   0.00107
 270        3PZ         0.00061   0.00097  -0.00000  -0.00006   0.00120
 271 28  H  1S         -0.00425  -0.00671   0.01333   0.00611   0.00550
 272        2S         -0.01402  -0.01583  -0.00972   0.00103  -0.02928
 273        3PX        -0.00008   0.00042   0.00006   0.00087   0.00303
 274        3PY         0.00032   0.00031  -0.00016  -0.00052   0.00017
 275        3PZ         0.00091   0.00139   0.00064   0.00104   0.00427
 276 29  H  1S          0.01831   0.02446  -0.01759  -0.00934   0.03468
 277        2S          0.01351   0.01943  -0.01400  -0.00871   0.03133
 278        3PX        -0.00046  -0.00054  -0.00068  -0.00085  -0.00104
 279        3PY         0.00001   0.00004   0.00107   0.00087   0.00035
 280        3PZ        -0.00027  -0.00034   0.00046   0.00051  -0.00069
 281 30  H  1S          0.00179  -0.00276   0.04925   0.03289  -0.00342
 282        2S         -0.00761  -0.00137  -0.02926  -0.00849  -0.01862
 283        3PX         0.00026   0.00050   0.00234   0.00314   0.00225
 284        3PY         0.00056   0.00049   0.00167   0.00152   0.00216
 285        3PZ         0.00052   0.00052   0.00080   0.00076   0.00072
 286 31  H  1S         -0.00728  -0.00773  -0.00055  -0.00062  -0.01551
 287        2S         -0.00572  -0.00703   0.00025  -0.00043  -0.01642
 288        3PX         0.00045   0.00057  -0.00102  -0.00091   0.00056
 289        3PY         0.00047   0.00058   0.00059   0.00048   0.00115
 290        3PZ         0.00002   0.00004  -0.00014  -0.00016   0.00052
                          56        57        58        59        60
                           V         V         V         V         V
     Eigenvalues --    -0.04587  -0.02269   0.05818   0.06875   0.07435
   1 1   C  1S          0.00350  -0.00066  -0.04574  -0.04532  -0.02388
   2        2S         -0.00888   0.00102   0.06618   0.06526   0.04088
   3        3S         -0.10272   0.04008   0.75416   0.96422   0.38959
   4        4PX         0.02395  -0.00749   0.09056   0.03750   0.01842
   5        4PY        -0.00305   0.00204  -0.04494  -0.03003  -0.01827
   6        4PZ        -0.01025   0.00355  -0.03160   0.02745   0.00507
   7        5PX         0.06454  -0.02590   0.27350   0.04141   0.08493
   8        5PY        -0.00692   0.00676  -0.11819  -0.07162  -0.04194
   9        5PZ        -0.03147   0.01203  -0.12244   0.04714   0.02868
  10        6D 0       -0.00045   0.00018  -0.00249  -0.00049  -0.00005
  11        6D+1        0.00140  -0.00039   0.00082  -0.00141  -0.00157
  12        6D-1       -0.00054   0.00024   0.00076   0.00215  -0.00066
  13        6D+2        0.00120  -0.00035   0.00433   0.00048  -0.00038
  14        6D-2        0.00073  -0.00023  -0.00217  -0.00258  -0.00199
  15 2   C  1S         -0.01700   0.00619  -0.01723   0.01881  -0.00011
  16        2S          0.03003  -0.01331   0.05161  -0.02295  -0.00389
  17        3S          0.25972  -0.10448   0.09957  -0.43860   0.05751
  18        4PX        -0.04323   0.01484  -0.01324   0.04422   0.00329
  19        4PY        -0.02025   0.00731  -0.00378   0.03450   0.00535
  20        4PZ        -0.03602   0.01285  -0.01681   0.04659   0.00460
  21        5PX        -0.02158   0.00522   0.06499  -0.02048  -0.01550
  22        5PY        -0.13689   0.04847  -0.11239   0.20482   0.01214
  23        5PZ        -0.04315   0.02681   0.01206   0.10517   0.00180
  24        6D 0        0.00135  -0.00025   0.00539   0.00011  -0.00061
  25        6D+1       -0.00000  -0.00009  -0.00140   0.00259   0.00102
  26        6D-1        0.00118  -0.00038   0.00019  -0.00108  -0.00101
  27        6D+2       -0.00235   0.00056  -0.00419   0.00240   0.00214
  28        6D-2        0.00180  -0.00051  -0.00078  -0.00180  -0.00020
  29 3   C  1S         -0.00194   0.00115  -0.02801  -0.01259  -0.01024
  30        2S          0.01130  -0.00490   0.04929   0.02854   0.02830
  31        3S         -0.07967   0.01939   0.45154   0.13837   0.06862
  32        4PX         0.00456   0.00153   0.04253   0.02231  -0.02215
  33        4PY        -0.00492  -0.00168   0.00047   0.03975   0.01500
  34        4PZ         0.00788  -0.00075  -0.10056  -0.01145  -0.00180
  35        5PX        -0.05754   0.03600   0.04897   0.16828  -0.04615
  36        5PY         0.00707  -0.00291   0.10606   0.11642   0.03426
  37        5PZ        -0.07322   0.05314  -0.26581   0.01637  -0.02796
  38        6D 0       -0.00292   0.00081  -0.00527  -0.00050   0.00342
  39        6D+1        0.01490  -0.00528   0.01106  -0.01481  -0.00215
  40        6D-1       -0.00367   0.00122  -0.00155   0.00420  -0.00071
  41        6D+2        0.00354  -0.00154   0.00271  -0.00454  -0.00246
  42        6D-2        0.00233  -0.00101  -0.00098  -0.00779   0.00348
  43 4   H  1S         -0.05718   0.01994  -0.04612   0.04214   0.02152
  44        2S         -0.09456   0.04680  -0.59881  -0.08368  -0.01692
  45        3PX        -0.00176   0.00010  -0.00382   0.00250  -0.00169
  46        3PY         0.00183  -0.00071  -0.00101  -0.00321   0.00086
  47        3PZ        -0.00017  -0.00001   0.00352   0.00164  -0.00020
  48 5   C  1S         -0.00257   0.00046  -0.04965  -0.02438  -0.01902
  49        2S          0.00410  -0.00019   0.09225   0.03118   0.04682
  50        3S          0.07134  -0.01817   0.79418   0.52934   0.13005
  51        4PX        -0.00858   0.00448   0.04155   0.11600  -0.04971
  52        4PY        -0.00721   0.00404  -0.09849  -0.04602  -0.00672
  53        4PZ         0.00412  -0.00078  -0.01303   0.02995   0.03433
  54        5PX        -0.02873   0.00419   0.08059   0.25608  -0.10968
  55        5PY        -0.00877   0.00005  -0.23815  -0.04774  -0.02083
  56        5PZ        -0.03398  -0.01460  -0.06822   0.10400   0.08611
  57        6D 0       -0.00461   0.00043  -0.00852   0.00127   0.00283
  58        6D+1        0.00682  -0.00099   0.00183  -0.01185   0.00140
  59        6D-1       -0.00107   0.00024  -0.00641  -0.00038   0.00017
  60        6D+2        0.00194  -0.00001  -0.00003  -0.00066  -0.00503
  61        6D-2        0.00149   0.00022   0.00496  -0.00086  -0.00093
  62 6   O  1S         -0.00093   0.00079   0.00220   0.02089  -0.02316
  63        2S          0.00034   0.00143   0.00756   0.04393  -0.04798
  64        3S         -0.01074   0.00682   0.03036   0.14692  -0.15285
  65        4PX        -0.03669   0.00395  -0.03123   0.05054  -0.02668
  66        4PY        -0.02018  -0.00231  -0.00740   0.03997   0.01455
  67        4PZ        -0.10296   0.00404  -0.08639   0.11720   0.02116
  68        5PX        -0.04485   0.01076  -0.06317   0.06307  -0.06224
  69        5PY        -0.01703  -0.00102   0.03273   0.06886   0.00412
  70        5PZ        -0.09494   0.01127  -0.10494   0.11369   0.03554
  71        6D 0        0.00133   0.00036  -0.00348  -0.00239  -0.00056
  72        6D+1       -0.00530   0.00052  -0.00661   0.00763   0.00040
  73        6D-1        0.00261  -0.00088   0.00538  -0.00781  -0.00057
  74        6D+2       -0.00185   0.00022  -0.00224   0.00228   0.00292
  75        6D-2       -0.00143  -0.00005  -0.00464  -0.00065  -0.00074
  76 7   C  1S         -0.00058  -0.00009  -0.00960  -0.00243  -0.01529
  77        2S          0.00174  -0.00236   0.04779   0.02750   0.03403
  78        3S          0.05496   0.05884  -0.12587  -0.19929   0.03419
  79        4PX         0.03778  -0.00822   0.05507  -0.05862  -0.04809
  80        4PY         0.04328  -0.01059   0.04802  -0.06009  -0.01155
  81        4PZ         0.19616  -0.04531   0.24942  -0.32810  -0.03401
  82        5PX         0.02466  -0.01011  -0.03239  -0.11562   0.04818
  83        5PY         0.08510   0.01259   0.14028  -0.07717   0.01715
  84        5PZ         0.15654  -0.01650   0.29931  -0.37277  -0.07091
  85        6D 0        0.01142  -0.00131   0.00070  -0.00827   0.00181
  86        6D+1       -0.02597   0.00638  -0.00402   0.00688   0.00325
  87        6D-1       -0.00330  -0.00116  -0.00636   0.00576   0.00067
  88        6D+2       -0.00561   0.00191  -0.00117  -0.00028  -0.00538
  89        6D-2       -0.00867   0.00215   0.00161  -0.00038   0.00179
  90 8   N  1S          0.00110   0.00130   0.01534   0.00676  -0.01416
  91        2S          0.00590   0.00431   0.04032   0.01218  -0.02769
  92        3S         -0.05195  -0.00705   0.03370   0.13705  -0.15507
  93        4PX         0.04183  -0.01287   0.02847  -0.05591   0.01081
  94        4PY         0.05021  -0.02111   0.03064  -0.03324  -0.01955
  95        4PZ         0.22899  -0.07373   0.11700  -0.20732  -0.03385
  96        5PX        -0.03966   0.02586  -0.06653   0.06703  -0.02769
  97        5PY        -0.04348   0.01713  -0.07003  -0.00401   0.05508
  98        5PZ        -0.24346   0.04574  -0.12969   0.28349   0.03757
  99        6D 0        0.00062   0.00027   0.00195  -0.00750  -0.00040
 100        6D+1       -0.00688   0.00328  -0.01082   0.00911   0.00105
 101        6D-1        0.00497  -0.00215  -0.00257  -0.00079   0.00062
 102        6D+2       -0.00260   0.00110  -0.00052   0.00398   0.00285
 103        6D-2       -0.00114   0.00053  -0.00179   0.00446  -0.00042
 104 9   N  1S          0.00190  -0.00013   0.00724  -0.00163  -0.01081
 105        2S          0.00284  -0.00004   0.01109  -0.00326  -0.03951
 106        3S          0.03891  -0.00428   0.14758  -0.00422   0.03830
 107        4PX         0.05591   0.06079   0.00028  -0.00561  -0.04581
 108        4PY         0.08622   0.08385   0.01499  -0.02077  -0.04099
 109        4PZ         0.23314   0.23927   0.01865  -0.04678   0.01700
 110        5PX        -0.05713  -0.06568  -0.00259   0.00651   0.04816
 111        5PY        -0.10378  -0.09341  -0.05855   0.00555   0.04948
 112        5PZ        -0.25619  -0.27022  -0.01216   0.07195  -0.01631
 113        6D 0       -0.00077  -0.00482  -0.00328   0.00300   0.00043
 114        6D+1        0.01123  -0.00899  -0.00534   0.00680  -0.00099
 115        6D-1       -0.00701   0.01304   0.00689  -0.00971  -0.00216
 116        6D+2        0.00487  -0.00689  -0.00465   0.00490   0.00155
 117        6D-2        0.00258   0.00062   0.00016  -0.00262   0.00393
 118 10  C  1S          0.00160   0.00066   0.00102  -0.00903   0.02296
 119        2S         -0.00347  -0.00160   0.00651   0.03418  -0.06833
 120        3S         -0.02823  -0.02724  -0.10659  -0.00683   0.03736
 121        4PX         0.06614  -0.01604  -0.02717   0.04232  -0.02000
 122        4PY         0.10195  -0.02280  -0.03951   0.04045   0.01922
 123        4PZ         0.28627  -0.06227  -0.10149   0.11583   0.01338
 124        5PX         0.03477  -0.05046  -0.07821   0.07322   0.07002
 125        5PY         0.06679  -0.03852  -0.16663   0.05349  -0.06639
 126        5PZ         0.33173  -0.12303  -0.10915   0.14338   0.02478
 127        6D 0        0.00019   0.02164  -0.00422   0.00443  -0.00231
 128        6D+1        0.01836  -0.00827   0.01314  -0.02076  -0.00634
 129        6D-1       -0.01236  -0.02298  -0.00558   0.00619   0.00424
 130        6D+2        0.00792   0.00681   0.00341  -0.00576   0.01192
 131        6D-2        0.00194  -0.01057   0.00211  -0.00056  -0.00220
 132 11  C  1S          0.00163   0.00005  -0.00327  -0.01494   0.03956
 133        2S         -0.00637  -0.00090   0.00684   0.03970  -0.09310
 134        3S         -0.05450   0.00083  -0.02486   0.18782  -0.50772
 135        4PX        -0.03411   0.07928  -0.00390   0.02709  -0.00845
 136        4PY        -0.04462   0.11163  -0.01718  -0.00160   0.11420
 137        4PZ        -0.12383   0.32093  -0.01734   0.05629  -0.02850
 138        5PX        -0.03750   0.11726  -0.01578   0.01828  -0.16434
 139        5PY        -0.06382   0.15668  -0.05461  -0.03469   0.29144
[...]
 .00015253,-0.00061845,0.00117483,-0.00040719,0.00643488,0.00055511,0.0
 0080350,0.00643172,0.01561582,-0.05063956,-0.05257147,-0.00000034,0.00
 000421,0.00000005,-0.00000062,-0.00000523,0.00000236,0.00000396,0.0000
 0028,0.00000055,0.00000073,0.00000160,-0.00000230,-0.00000153,-0.00000
 090,-0.00000057,0.00000031,-0.00000693,0.00000027,0.00002265,0.0000110
 4,-0.00000267,-0.00041344,0.00020235,-0.00189031,-0.00007036,0.0001321
 3,-0.00026316,-0.00063511,0.00026695,-0.00263702,-0.02393098,0.0568051
 0,0.03953166,0.00100958,0.00028759,0.00097233,0.00316453,0.00138386,0.
 00756394,-0.00061715,-0.00093224,0.00170606,0.00037318,0.00000578,0.00
 033091,-0.00029609,-0.00013761,0.00032969,0.00008916,0.00000416,0.0000
 3006,0.00042959,0.00042796,0.00011291,0.00007501,-0.00002030,-0.000817
 77,-0.00006866,0.00001865,-0.00001587,0.00019978,0.00002672,0.00005722
 ,-0.00005778,0.00001801,0.00000447,0.00002871,-0.00000352,-0.00000626,
 -0.00003039,0.00002969,0.00001784,0.00001614,-0.00006450,-0.00000777,-
 0.12898131,-0.02769959,-0.12545955,0.00018033,0.00000348,0.00012480,-0
 .00000746,-0.00021550,-0.00016713,0.00010765,0.00011024,-0.00015891,-0
 .00004296,0.00003256,0.00004033,-0.00000282,-0.00004547,-0.00016204,0.
 00005525,-0.00004088,-0.00001454,0.00001243,0.00001407,0.00000419,-0.0
 0000936,-0.00000413,-0.00000029,-0.00001054,-0.00000066,-0.00000111,-0
 .00001149,0.00001212,-0.00000014,0.13560049,0.00078198,0.00038182,-0.0
 0042982,0.01250828,0.00258716,0.01784712,-0.00146584,-0.00365031,0.002
 86004,0.00076414,0.00024234,0.00115238,0.00008364,-0.00022071,-0.00028
 093,-0.00027875,0.00065976,-0.00012289,0.00042877,-0.00091182,-0.00027
 840,-0.00040506,0.00028034,0.00004569,0.00001367,-0.00001642,-0.000016
 77,-0.00004416,0.00003803,0.00005678,0.00001442,-0.00000984,-0.0000065
 7,0.00000699,0.00000330,-0.00000514,0.00001289,0.00000680,-0.00000077,
 -0.00001718,0.00001202,0.00000300,-0.02827898,-0.05282368,-0.04226187,
 0.00083447,0.00114386,0.00093283,-0.00024672,0.00021010,-0.00020895,0.
 00017562,-0.00007483,-0.00015277,-0.00012329,-0.00004953,-0.00010312,-
 0.00022994,0.00035238,0.00028080,-0.00021180,0.00017583,-0.00010017,0.
 00001595,0.00001008,0.00000670,0.00000067,-0.00000109,-0.00000071,-0.0
 0000171,0.00000182,0.00000097,0.00000156,0.00000021,0.00000099,0.03097
 306,0.05654839,-0.00129938,-0.00083291,0.00066219,-0.01313196,-0.00467
 593,-0.01937520,0.00259376,0.00365053,-0.00229971,-0.00088576,-0.00002
 235,-0.00127092,0.00019567,0.00055750,0.00024917,-0.00012975,-0.000194
 98,-0.00019349,0.00011767,0.00000392,0.00021742,0.00036709,-0.00015386
 ,0.00056971,-0.00010747,0.00004697,0.00003951,0.00014505,-0.00000015,-
 0.00006114,-0.00008437,-0.00001112,0.00001481,0.00002632,-0.00000073,-
 0.00000266,-0.00004378,0.00002595,0.00001140,0.00000869,-0.00005366,-0
 .00000786,-0.12458641,-0.04096267,-0.22665208,-0.00015694,-0.00153909,
 0.00082147,0.00099484,0.00025131,0.00008414,0.00012176,0.00006726,0.00
 047268,-0.00001725,0.00003668,-0.00004747,-0.00002776,0.00001989,0.000
 31035,-0.00002466,-0.00003325,-0.00002995,0.00001494,0.00001341,-0.000
 00635,-0.00000961,-0.00000378,-0.00000002,-0.00000739,-0.00000014,-0.0
 0000030,-0.00000928,0.00000988,0.00000166,0.13409733,0.04131612,0.2450
 6628,0.00063545,-0.00089116,-0.00075658,-0.00088286,-0.00676853,-0.003
 59553,0.00040303,0.00079306,0.00030516,-0.00009721,-0.00006629,-0.0000
 8696,0.00037322,0.00005087,-0.00039942,0.00030197,-0.00100551,0.000097
 02,-0.00064972,0.00129815,0.00022664,-0.00034079,-0.00047183,-0.000381
 36,-0.00000672,-0.00001396,-0.00002639,0.00002615,0.00001913,-0.000022
 43,0.00001845,0.00002041,0.00001608,-0.00002972,-0.00000691,0.00001382
 ,0.00000131,-0.00003589,-0.00000165,0.00005245,0.00001609,-0.00000243,
 -0.05427514,0.04433794,0.01478822,-0.00014074,-0.00096024,0.00132922,-
 0.00004677,-0.00008370,-0.00006799,0.00004905,0.00019205,-0.00012543,0
 .00003672,0.00016915,0.00032857,0.00038328,0.00004743,-0.00013147,0.00
 002653,-0.00003710,0.00005675,-0.00002906,-0.00002463,-0.00002308,-0.0
 0000138,0.00000199,-0.00000235,0.00000380,-0.00000319,-0.00000096,0.00
 000822,-0.00000468,-0.00000211,0.00291171,-0.01697965,-0.00417233,0.05
 228723,0.00102626,0.00066767,-0.00089193,0.00404910,-0.01759929,-0.007
 88263,-0.00061115,-0.00056726,-0.00134401,0.00001168,0.00006324,0.0000
 2269,0.00058636,-0.00004795,-0.00084885,-0.00035780,0.00096417,-0.0001
 9350,0.00057636,-0.00131418,-0.00019284,0.00021762,0.00062455,0.000477
 54,0.00000450,0.00002857,0.00001888,-0.00002418,0.00002853,0.00002983,
 -0.00000344,-0.00000871,-0.00000933,0.00002082,0.00000011,-0.00000557,
 0.00000275,0.00003060,0.00000100,-0.00004193,-0.00001646,0.00000207,0.
 04430506,-0.28634004,-0.07305825,-0.00136324,-0.00192042,0.00491151,-0
 .00002992,-0.00008140,0.00002613,0.00004647,0.00032030,0.00013481,-0.0
 0069141,0.00035047,0.00044675,-0.00028806,0.00074747,0.00018431,-0.000
 42557,0.00035546,-0.00019826,0.00002149,0.00001778,0.00000823,0.000001
 33,-0.00000029,0.00000086,-0.00000220,0.00000138,0.00000076,-0.0000116
 0,0.00000160,0.00000123,0.00145034,-0.00426337,-0.00020667,-0.04724478
 ,0.30961551,-0.00087215,0.00006048,0.00105160,-0.00467623,0.02104840,0
 .00853608,-0.00023022,-0.00009114,0.00120380,0.00023150,-0.00014040,0.
 00018849,-0.00128475,0.00056043,-0.00190250,0.00069465,-0.00029340,-0.
 00016899,-0.00029821,0.00039004,0.00023663,-0.00001825,-0.00027592,-0.
 00009409,0.00006405,-0.00001056,-0.00000221,-0.00008559,-0.00006648,0.
 00000020,0.00003971,-0.00000185,-0.00002446,-0.00001358,0.00000201,-0.
 00000117,0.00001894,-0.00001266,-0.00000822,-0.00000512,0.00002309,0.0
 0000470,0.01484649,-0.07393617,-0.06851119,0.00090387,0.00253834,-0.00
 338824,0.00006414,-0.00015627,-0.00008655,-0.00026685,-0.00012955,0.00
 001550,0.00025278,-0.00036892,0.00002088,0.00024935,-0.00045227,-0.001
 43649,0.00014121,-0.00005995,0.00012120,-0.00000952,-0.00000842,0.0000
 1723,0.00000869,0.00000236,0.00000177,0.00000484,0.00000015,0.00000012
 ,0.00000476,-0.00000425,-0.00000219,0.00627636,-0.02325725,-0.00660467
 ,-0.01592561,0.07899349,0.07349838,0.00069827,-0.00190962,0.00134970,-
 0.00636693,0.00092013,0.00160608,-0.00087549,-0.00016104,-0.00057093,-
 0.00000100,0.00003137,0.00010245,-0.00027227,-0.00008466,0.00031183,0.
 00005540,0.00039351,0.00000849,-0.00005819,-0.00007016,-0.00089903,0.0
 0022223,0.00028959,-0.00106013,0.00003361,0.00001175,0.00006564,0.0001
 0455,-0.00000371,-0.00001923,0.00001141,-0.00003390,0.00002121,0.00000
 622,0.00000565,-0.00001022,0.00000633,-0.00000020,-0.00000533,-0.00001
 481,0.00001954,0.00000469,-0.30103715,0.02506794,0.06763405,0.00032853
 ,0.00081471,-0.00034265,0.00035217,0.00013748,-0.00008764,-0.00045053,
 0.00017390,0.00021013,0.00007495,0.00010171,-0.00010060,-0.00001118,-0
 .00009294,0.00003017,0.00002215,-0.00000273,0.00001499,0.00000192,0.00
 000822,0.00001159,0.00000406,0.00000027,0.00000335,0.00000330,0.000000
 81,0.00000283,0.00000541,-0.00000329,0.00000404,-0.01407501,0.00202623
 ,0.00551835,-0.00196214,-0.00109886,-0.00029311,0.32264301,-0.00044353
 ,-0.00299648,0.00310557,-0.02069194,0.00164068,0.00320394,0.00010860,0
 .00074267,-0.00053624,-0.00011766,-0.00003570,-0.00015663,0.00038323,-
 0.00033735,-0.00018416,0.00020857,-0.00081672,-0.00008467,0.00005541,0
 .00102664,0.00024223,-0.00009613,-0.00012777,-0.00030197,-0.00009374,0
 .00001302,-0.00001685,0.00004849,0.00009722,-0.00011475,-0.00001348,-0
 .00001825,0.00004034,-0.00002820,-0.00000420,0.00002880,-0.00001812,-0
 .00002997,0.00000817,0.00005810,0.00000025,-0.00001679,0.02667637,-0.0
 4953965,-0.00757820,-0.00148645,0.00127309,0.00022743,0.00025172,-0.00
 010021,-0.00005783,-0.00123888,0.00036111,0.00073518,-0.00009320,0.000
 18205,0.00020618,-0.00007149,0.00011883,0.00007538,-0.00007861,0.00008
 845,-0.00004821,-0.00001131,-0.00002180,-0.00003652,-0.00000673,-0.000
 00126,-0.00000701,-0.00000185,-0.00000307,-0.00000078,0.00000637,0.000
 00175,-0.00000324,-0.00603431,-0.00051501,0.00201090,0.02806651,-0.000
 92037,-0.00590993,-0.02598791,0.05033383,0.00002738,0.00374535,-0.0034
 5980,0.02262238,-0.00356127,-0.00589575,0.00121733,-0.00050887,0.00069
 678,0.00001339,0.00000843,0.00026436,0.00074377,-0.00004143,-0.0005097
 7,-0.00069783,0.00050788,0.00014619,-0.00102954,-0.00140720,-0.0011092
 3,0.00007805,0.00020611,0.00057006,0.00016530,-0.00006075,0.00001717,-
 0.00042577,-0.00006522,0.00000218,0.00013373,-0.00001458,0.00000366,-0
 .00004795,0.00001120,-0.00000735,0.00007308,-0.00005426,-0.00002643,-0
 .00002643,0.00011202,0.00001117,0.06620583,-0.00692952,-0.06226337,-0.
 00025124,-0.00123191,0.00032083,0.00014020,0.00008826,0.00019452,0.001
 62393,0.00017498,-0.00025466,-0.00032907,-0.00000574,0.00009026,-0.000
 03754,0.00019179,0.00005736,-0.00010218,-0.00000944,0.00000456,-0.0000
 2233,-0.00001499,-0.00000359,0.00001820,0.00000744,0.00000055,0.000017
 73,0.00000090,0.00000150,0.00002096,-0.00002219,-0.00000047,-0.0247356
 1,0.00316355,0.00734541,0.00853819,0.00016996,-0.00313675,-0.07346190,
 0.00531884,0.06651473,0.00097382,0.00068861,0.00133817,0.00185151,0.00
 219624,0.00443838,-0.00030640,0.00117187,0.00111162,-0.00008079,0.0000
 9058,-0.00007428,0.00006616,0.00027462,0.00028960,0.00032434,-0.000637
 33,-0.00006179,0.00037256,0.00060479,-0.00002546,-0.00056608,-0.000685
 81,-0.00086367,-0.00011585,-0.00000513,-0.00000922,0.00010470,0.000044
 04,-0.00001142,-0.00006196,-0.00000248,0.00001463,0.00001313,-0.000005
 43,0.00000081,-0.00003625,0.00001278,0.00001555,0.00005079,-0.00006230
 ,-0.00001795,-0.00016640,0.00008748,-0.00003069,-0.16214579,-0.0334751
 7,-0.13266047,0.00025750,0.00010797,-0.00025710,-0.00003366,-0.0000885
 1,0.00003944,0.00012938,-0.00017110,0.00007738,0.00006540,-0.00009267,
 -0.00000945,0.00001256,0.00001953,0.00006140,0.00000531,0.00000307,-0.
 00000627,-0.00000923,-0.00000484,-0.00000107,-0.00001178,-0.00000363,0
 .00000040,-0.00000196,0.00001502,-0.00000152,0.00019568,-0.00044817,0.
 00018510,0.00007360,-0.00004181,0.00026018,-0.00006021,0.00002793,-0.0
 0015482,0.17175678,-0.00156678,0.00115898,-0.00007587,-0.01965757,-0.0
 0653945,-0.02240880,0.00181663,-0.00574733,-0.00056200,0.00010577,0.00
 005747,-0.00019394,-0.00062037,0.00056378,-0.00154344,-0.00040527,-0.0
 0015878,0.00008273,0.00007246,-0.00010673,-0.00000859,0.00033694,0.000
 41034,0.00029226,-0.00005688,0.00005436,0.00002545,0.00010369,-0.00001
 085,-0.00001750,-0.00004616,-0.00000683,0.00000835,0.00001572,0.000001
 59,-0.00000328,-0.00002823,0.00001761,0.00000756,-0.00000832,-0.000029
 07,-0.00000359,-0.00050667,0.00130466,-0.00127685,-0.03227248,-0.05407
 782,-0.03490789,0.00076790,0.00002574,0.00028111,0.00015686,0.00000051
 ,0.00008170,-0.00015881,0.00015647,0.00040260,0.00002867,0.00002396,0.
 00007853,-0.00003507,-0.00044942,-0.00019673,0.00001250,0.00001185,-0.
 00000373,-0.00000571,-0.00000134,0.,-0.00000269,0.00000065,0.00000023,
 -0.00001085,0.00000368,0.00000245,0.00024891,-0.00032988,0.00071300,0.
 00029555,0.00028617,0.00018673,0.00003487,-0.00002767,0.00000639,0.034
 50406,0.05942864,-0.00094545,0.00085168,0.00027718,-0.00677866,-0.0013
 0414,-0.00987908,0.00116076,-0.00292056,-0.00006056,0.00012172,0.00008
 777,0.00047951,-0.00054172,0.00048334,-0.00033989,-0.00039289,-0.00039
 144,-0.00009279,0.00015838,0.00002910,0.00005728,0.00025090,0.00008680
 ,0.00042702,-0.00008304,0.00003311,0.00003522,0.00013213,-0.00000165,-
 0.00003089,-0.00006847,-0.00000818,0.00001241,0.00002293,-0.00000049,-
 0.00000497,-0.00003251,0.00002265,0.00000816,0.00000786,-0.00004507,-0
 .00000491,0.00046341,0.00082817,0.00045241,-0.13173163,-0.03598929,-0.
 19360124,0.00076470,-0.00040356,0.00020245,-0.00005966,-0.00003030,-0.
 00020467,0.00018143,0.00022129,0.00035749,0.00005844,-0.00008697,0.000
 07180,0.00000443,-0.00019515,-0.00007590,0.00001430,0.00001372,-0.0000
 0242,-0.00000769,-0.00000338,0.00000067,-0.00000688,0.,-0.00000037,-0.
 00000730,0.00000861,0.00000177,-0.00011827,-0.00014624,0.00047103,0.00
 017070,-0.00008117,0.00008566,0.00007032,0.00003333,0.00000005,0.14301
 041,0.04246763,0.20553035,0.00072146,0.00155917,0.00033235,-0.00288281
 ,-0.00017850,0.00056914,-0.00022719,0.00040454,-0.00018689,-0.00003046
 ,0.00001189,-0.00006321,-0.00011355,-0.00002528,0.00015630,0.00007486,
 -0.00006769,0.00001826,0.00016612,-0.00014905,-0.00007066,-0.00069290,
 -0.00091271,-0.00114573,0.00006142,0.00001303,0.00008936,-0.00001360,0
 .00000284,-0.00001105,0.00001944,0.00001301,-0.00001209,-0.00000831,0.
 00000502,0.00000513,0.00001395,-0.00000872,-0.00001790,-0.00003227,0.0
 0004117,0.00000272,0.00057280,-0.00095861,-0.00007635,-0.28357095,0.02
 616311,0.09543973,0.00032214,-0.00018126,0.00005007,0.00007441,-0.0001
 3574,-0.00012399,-0.00020027,-0.00005184,0.00018452,-0.00000916,-0.000
 03441,0.00001481,-0.00001345,0.00004172,0.00002534,-0.00000162,0.00000
 177,0.00000099,0.00000308,0.00000178,0.00000250,0.00000693,0.00000261,
 0.00000345,0.00000363,-0.00000903,0.00000251,-0.00021948,0.00013809,0.
 00000606,0.00024867,-0.00011625,-0.00010847,0.00031241,0.00037632,-0.0
 0014759,-0.01553086,0.00177755,0.00812914,0.30262233,-0.00008519,-0.00
 588933,-0.00216660,0.02803453,-0.00210015,-0.00944120,0.00056645,0.000
 82830,0.00052619,-0.00004290,-0.00005937,-0.00002724,0.00024134,-0.000
 05193,0.00007160,-0.00043848,0.00057112,-0.00000030,-0.00019418,-0.000
 68077,-0.00006335,-0.00015785,-0.00023962,0.00029599,0.00007857,-0.000
 07995,0.00003797,-0.00013580,-0.00004267,0.00004850,0.00004925,-0.0000
 0495,-0.00001119,-0.00002576,-0.00000630,0.00000352,0.00003800,-0.0000
 3117,-0.00002043,-0.00002754,0.00009001,0.00001592,0.00135003,0.001540
 19,-0.00062209,0.02373121,-0.04870445,-0.00896316,-0.00019160,-0.00005
 715,0.00017132,-0.00008204,0.00007325,-0.00021480,0.00191211,-0.000285
 40,-0.00074905,0.00004157,0.00008895,-0.00000845,-0.00000149,0.0000164
 6,0.00003261,-0.00000516,-0.00000777,-0.00000031,0.00000591,0.00000186
 ,-0.00000100,0.00000673,0.00000298,-0.00000226,0.00002125,-0.00000676,
 -0.00000013,-0.00001903,-0.00003894,0.00008828,-0.00025595,0.00037351,
 -0.00004269,-0.00057231,-0.00057679,0.00034910,-0.00538259,-0.00061997
 ,0.00271301,-0.02847744,0.05390283,-0.00049304,-0.00215706,-0.00067650
 ,0.00985727,0.00041555,-0.00507238,0.00149699,0.00037535,0.00004586,0.
 00002664,-0.00009375,0.00011641,0.00030907,0.00006198,0.00005826,-0.00
 068906,0.00114971,0.00014039,-0.00052423,-0.00110083,-0.00005821,0.000
 28256,0.00023009,0.00028694,0.00013420,0.00002042,-0.00000963,-0.00014
 450,-0.00005762,0.00010582,0.00007570,0.00000863,-0.00002650,-0.000015
 52,0.00000776,-0.00000370,0.00005397,-0.00001178,-0.00001908,-0.000068
 22,0.00008451,0.00003202,-0.00064552,0.00093956,0.00025852,0.09366963,
 -0.01001390,-0.08276989,0.00026396,-0.00001691,0.00019980,-0.00036187,
 -0.00002222,0.00017550,0.00080535,-0.00027830,0.00034514,-0.00004095,0
 .00010755,0.00000652,-0.00004094,0.00000709,0.00003172,-0.00000255,0.0
 0000005,0.00001017,0.00001231,0.00000625,0.00000177,0.00001521,0.00000
 559,-0.00000153,0.00000131,-0.00002328,0.00000384,-0.00020511,-0.00004
 066,-0.00002400,-0.00011846,-0.00001597,-0.00015727,-0.00003614,-0.000
 04622,0.00051132,-0.02191602,0.00254472,0.00939982,-0.10251101,0.01111
 284,0.08499038,0.00047299,0.00040717,-0.00094433,-0.00160057,0.0023723
 5,-0.00381106,0.00036279,-0.00086946,0.00039991,0.00015317,-0.00015486
 ,-0.00011829,0.00006843,0.00001328,-0.00005266,-0.00006931,0.00025745,
 0.00007955,-0.00013430,-0.00010698,0.00006510,0.00008549,0.00047096,-0
 .00021190,0.00002448,0.00004186,-0.00004363,0.00000134,0.00000313,0.00
 000643,0.00001474,0.00000470,-0.00000113,0.00000189,0.00000479,-0.0000
 0211,0.00000634,0.00000599,0.00000333,-0.00001019,-0.00000265,0.000005
 01,0.00002320,0.00036074,0.00006881,-0.04781811,-0.02105524,0.02286341
 ,0.00003399,0.00005558,-0.00004678,-0.00007548,0.00010849,0.00036693,0
 .00001660,-0.00022433,0.00007449,-0.00000976,0.00005679,0.00000699,-0.
 00000484,-0.00001599,-0.00000596,0.00000033,0.00000180,0.00000327,0.00
 000245,0.00000183,0.00000067,0.00000341,0.00000046,0.00000153,-0.00000
 770,-0.00000657,0.00000347,-0.00001871,-0.00004919,0.00030147,0.000621
 41,0.00003211,0.00002614,0.00029898,0.00024594,-0.00016966,0.00287400,
 0.01510379,-0.01394782,-0.00167676,-0.01998163,0.02080895,0.04635968,-
 0.00122281,0.00089082,0.00090966,-0.00490847,-0.01828174,0.02209979,0.
 00008982,0.00045720,0.00224952,-0.00020081,0.00015547,-0.00117802,0.00
 036177,0.00010074,-0.00020144,0.00014166,0.00047513,0.00001485,-0.0000
 0024,-0.00013995,0.00005564,-0.00003890,0.00018325,-0.00040542,0.00002
 837,0.00001422,-0.00001857,-0.00000376,-0.00000246,0.00004881,0.000016
 20,-0.00000051,-0.00001203,0.00000219,0.00000578,-0.00000833,0.0000082
 3,0.00000318,-0.00000070,-0.00001267,0.00000573,0.00000178,0.00157070,
 -0.00544063,-0.00364614,-0.02104237,-0.17170586,0.13596898,-0.00000266
 ,-0.00002896,-0.00009507,0.00074484,0.00021177,-0.00053848,-0.00007199
 ,0.00026581,-0.00032894,-0.00005163,0.00015059,0.00012765,-0.00004280,
 -0.00001875,-0.00004309,0.00000237,0.00000129,0.00001175,0.00000369,0.
 00000053,0.00000190,0.00000230,0.00000076,0.00000249,-0.00000190,-0.00
 000266,0.00000141,0.00017052,0.00025121,-0.00012031,-0.00045430,-0.001
 39733,0.00141257,-0.00001634,0.00019268,-0.00013485,0.00125839,0.00459
 867,-0.00627259,0.00075292,0.00199400,-0.00319918,0.02291768,0.1870600
 0,-0.00041255,-0.00019111,0.00044805,-0.00145016,-0.00844066,0.0080679
 2,-0.00062987,-0.00125433,0.00099392,0.00032520,0.00028893,0.00003470,
 0.00000980,0.00007771,0.00025818,-0.00005082,0.00009234,-0.00006766,0.
 00005092,-0.00017596,-0.00004187,0.00025042,0.00010603,0.00014832,0.00
 004477,-0.00003745,0.00001479,-0.00007823,-0.00001200,0.00001838,0.000
 03007,0.,-0.00000639,-0.00001422,-0.00000350,0.00000242,0.00001819,-0.
 00001570,-0.00000744,-0.00001209,0.00003802,0.00000401,0.00002059,-0.0
 0173186,-0.00010034,0.02307043,0.13762841,-0.19411050,0.00010940,0.000
 03860,-0.00008524,-0.00015972,0.00024250,0.00014067,-0.00020890,0.0000
 3414,0.00010729,0.00000809,-0.00002594,0.00003295,0.00000818,0.0000541
 4,0.00003284,-0.00000549,-0.00000586,-0.00000105,0.00000294,0.00000127
 ,-0.00000159,0.00000287,0.00000094,-0.00000188,0.00000845,-0.00000195,
 -0.00000414,0.00020195,-0.00025393,0.00023861,-0.00002784,-0.00050106,
 0.00054277,-0.00008299,-0.00013628,-0.00008548,0.00525815,0.01402077,-
 0.01357260,-0.00055744,0.00686741,-0.00790148,-0.02573012,-0.14670363,
 0.20490183\\-0.00044927,0.00010382,-0.00178998,-0.00071678,0.00007582,
 0.00324908,0.01577662,0.00870948,-0.00187851,-0.00409480,0.00123745,0.
 00116701,0.00220488,0.00482943,-0.00010490,-0.01293887,0.01708393,0.00
 776143,-0.00730261,-0.03226873,-0.00541934,-0.00269353,-0.00328183,-0.
 00346308,0.00610093,-0.00086817,-0.00203977,0.00571070,-0.01219689,-0.
 00257892,0.00213347,0.00304726,0.00028677,-0.00135960,0.00040194,0.000
 39839,0.00681957,-0.00240563,-0.00147250,-0.01414214,0.00958812,0.0036
 2727,0.00024522,-0.00062541,-0.00104276,0.00376281,0.00132320,-0.00272
 124,-0.00077089,-0.00006213,-0.00013660,-0.00027295,-0.00007369,0.0003
 9495,0.00034162,-0.00025939,0.00006518,-0.00063675,0.00130804,0.000627
 10,-0.00086270,0.00006159,0.00056176,0.00051276,0.00083880,0.00003014,
 0.00038070,-0.00005438,-0.00013542,0.00127520,0.00135391,-0.00012685,0
 .00534983,0.00264337,-0.00009124,-0.00067274,0.00002255,-0.00033863,0.
 00009748,-0.00050657,0.00038232,-0.00017709,-0.00005487,0.00118118,-0.
 00121052,-0.00123599,0.00077245,0.00009085,0.00171819,0.00206715,-0.00
 250140,-0.00045322,0.00076756\\\@

 Writing a WFNX file to "23_lig_b.wfx"


 LIFE CAN ONLY BE UNDERSTOOD BACKWARD, BUT MUST
 BE LIVED FORWARD. -- KIRKEGAARD
 Job cpu time:       0 days  1 hours 21 minutes 35.1 seconds.
 Elapsed time:       0 days  0 hours 10 minutes 55.4 seconds.
 File lengths (MBytes):  RWF=    301 Int=      0 D2E=      0 Chk=      7 Scr=      1
 Normal termination of Gaussian 16 at Thu Nov  3 08:15:22 2022.
