 Entering Gaussian System, Link 0=g16
 Initial command:
 /software/gaussian/G16-A.03/avx/g16/l1.exe "/scratch/lcmd/1361354.slurm/Gau-90809.inp" -scrdir="/scratch/lcmd/1361354.slurm/"
 Entering Link 1 = /software/gaussian/G16-A.03/avx/g16/l1.exe PID=     90812.
  
 Copyright (c) 1988,1990,1992,1993,1995,1998,2003,2009,2016,
            Gaussian, Inc.  All Rights Reserved.
  
 This is part of the Gaussian(R) 16 program.  It is based on
 the Gaussian(R) 09 system (copyright 2009, Gaussian, Inc.),
 the Gaussian(R) 03 system (copyright 2003, Gaussian, Inc.),
 the Gaussian(R) 98 system (copyright 1998, Gaussian, Inc.),
 the Gaussian(R) 94 system (copyright 1995, Gaussian, Inc.),
 the Gaussian 92(TM) system (copyright 1992, Gaussian, Inc.),
 the Gaussian 90(TM) system (copyright 1990, Gaussian, Inc.),
 the Gaussian 88(TM) system (copyright 1988, Gaussian, Inc.),
 the Gaussian 86(TM) system (copyright 1986, Carnegie Mellon
 University), and the Gaussian 82(TM) system (copyright 1983,
 Carnegie Mellon University). Gaussian is a federally registered
 trademark of Gaussian, Inc.
  
 This software contains proprietary and confidential information,
 including trade secrets, belonging to Gaussian, Inc.
  
 This software is provided under written license and may be
 used, copied, transmitted, or stored only in accord with that
 written license.
  
 The following legend is applicable only to US Government
 contracts under FAR:
  
                    RESTRICTED RIGHTS LEGEND
  
 Use, reproduction and disclosure by the US Government is
 subject to restrictions as set forth in subparagraphs (a)
 and (c) of the Commercial Computer Software - Restricted
 Rights clause in FAR 52.227-19.
  
 Gaussian, Inc.
 340 Quinnipiac St., Bldg. 40, Wallingford CT 06492
  
  
 ---------------------------------------------------------------
 Warning -- This program may not be used in any manner that
 competes with the business of Gaussian, Inc. or will provide
 assistance to any competitor of Gaussian, Inc.  The licensee
 of this program is prohibited from giving any competitor of
 Gaussian, Inc. access to this program.  By using this program,
 the user acknowledges that Gaussian, Inc. is engaged in the
 business of creating and licensing software in the field of
 computational chemistry and represents and warrants to the
 licensee that it is not a competitor of Gaussian, Inc. and that
 it will not use this program in any manner prohibited above.
 ---------------------------------------------------------------
  

 Cite this work as:
 Gaussian 16, Revision A.03,
 M. J. Frisch, G. W. Trucks, H. B. Schlegel, G. E. Scuseria, 
 M. A. Robb, J. R. Cheeseman, G. Scalmani, V. Barone, 
 G. A. Petersson, H. Nakatsuji, X. Li, M. Caricato, A. V. Marenich, 
 J. Bloino, B. G. Janesko, R. Gomperts, B. Mennucci, H. P. Hratchian, 
 J. V. Ortiz, A. F. Izmaylov, J. L. Sonnenberg, D. Williams-Young, 
 F. Ding, F. Lipparini, F. Egidi, J. Goings, B. Peng, A. Petrone, 
 T. Henderson, D. Ranasinghe, V. G. Zakrzewski, J. Gao, N. Rega, 
 G. Zheng, W. Liang, M. Hada, M. Ehara, K. Toyota, R. Fukuda, 
 J. Hasegawa, M. Ishida, T. Nakajima, Y. Honda, O. Kitao, H. Nakai, 
 T. Vreven, K. Throssell, J. A. Montgomery, Jr., J. E. Peralta, 
 F. Ogliaro, M. J. Bearpark, J. J. Heyd, E. N. Brothers, K. N. Kudin, 
 V. N. Staroverov, T. A. Keith, R. Kobayashi, J. Normand, 
 K. Raghavachari, A. P. Rendell, J. C. Burant, S. S. Iyengar, 
 J. Tomasi, M. Cossi, J. M. Millam, M. Klene, C. Adamo, R. Cammi, 
 J. W. Ochterski, R. L. Martin, K. Morokuma, O. Farkas, 
 J. B. Foresman, and D. J. Fox, Gaussian, Inc., Wallingford CT, 2016.
 
 ******************************************
 Gaussian 16:  ES64L-G16RevA.03 25-Dec-2016
                 3-Nov-2022 
 ******************************************
 %nprocs=8
 Will use up to    8 processors via shared memory.
 %mem=32000MB
 %chk=24_lig_b.chk
 ----------------------------------------------------------------------
 #p pop=(regular,nbo,savenbos) freq=noraman def2svp empiricaldispersion
 =gd3bj output=wfx pbe1pbe
 ----------------------------------------------------------------------
 1/10=4,30=1,38=1/1,3;
 2/12=2,17=6,18=5,40=1/2;
 3/5=43,7=101,11=2,25=1,30=1,71=2,74=-13,124=41,140=1/1,2,3;
 4//1;
 5/5=2,38=5,98=1/2;
 8/6=4,10=90,11=11/1;
 11/6=1,8=1,9=11,15=111,16=1/1,2,10;
 10/6=1/2;
 6/28=1,40=1,73=1/1,7;
 7/8=1,10=1,25=1/1,2,3,16;
 1/10=4,30=1/3;
 99/6=200/99;
 Leave Link    1 at Thu Nov  3 08:04:22 2022, MaxMem=  4194304000 cpu:               0.4 elap:               0.1
 (Enter /software/gaussian/G16-A.03/avx/g16/l101.exe)
 --------
 24_lig_b
 --------
 Symbolic Z-matrix:
 Charge =  0 Multiplicity = 1
 C                     2.77179  -0.66016  -1.54214 
 C                     2.96617   0.73243  -0.956 
 C                     2.11106   0.95801   0.29959 
 H                     2.50571   0.32994   1.11552 
 C                     1.97314   2.44724   0.69982 
 O                     0.56959   2.75407   0.5047 
 C                    -0.01436   1.60301   0.21832 
 N                     0.72354   0.56746   0.1018 
 N                    -1.85901   0.21316  -0.0867 
 C                    -1.46881   1.48777   0.05611 
 C                    -2.35781   2.55436   0.03808 
 C                    -3.71049   2.26205  -0.1476 
 C                    -4.10766   0.93815  -0.3048 
 C                    -3.14109  -0.07101  -0.26638 
 C                     4.43044   0.99604  -0.62346 
 H                     3.46578  -0.82022  -2.38099 
 H                     1.74989  -0.80159  -1.92435 
 H                     2.94022  -1.43922  -0.7832 
 H                     2.63637   1.47729  -1.70643 
 H                     2.55437   3.12499   0.05919 
 H                     2.21118   2.64976   1.75354 
 H                    -1.99341   3.57484   0.16367 
 H                    -4.44753   3.06787  -0.1703 
 H                    -5.15688   0.67765  -0.45412 
 H                    -3.36007  -1.13909  -0.38588 
 H                     4.79895   0.25569   0.10469 
 H                     4.59376   1.99862  -0.19586 
 H                     5.0552    0.91814  -1.52529 
 
 ITRead=  0  0  0  0  0  0  0  0  0  0  0  0  0  0  0  0  0  0  0  0
 ITRead=  0  0  0  0  0  0  0  0
 MicOpt= -1 -1 -1 -1 -1 -1 -1 -1 -1 -1 -1 -1 -1 -1 -1 -1 -1 -1 -1 -1
 MicOpt= -1 -1 -1 -1 -1 -1 -1 -1
 NAtoms=     28 NQM=       28 NQMF=       0 NMMI=      0 NMMIF=      0
                NMic=       0 NMicF=      0.
                    Isotopes and Nuclear Properties:
 (Nuclear quadrupole moments (NQMom) in fm**2, nuclear magnetic moments (NMagM)
  in nuclear magnetons)

  Atom         1           2           3           4           5           6           7           8           9          10
 IAtWgt=          12          12          12           1          12          16          12          14          14          12
 AtmWgt=  12.0000000  12.0000000  12.0000000   1.0078250  12.0000000  15.9949146  12.0000000  14.0030740  14.0030740  12.0000000
 NucSpn=           0           0           0           1           0           0           0           2           2           0
 AtZEff=  -0.0000000  -0.0000000  -0.0000000  -0.0000000  -0.0000000  -0.0000000  -0.0000000  -0.0000000  -0.0000000  -0.0000000
 NQMom=    0.0000000   0.0000000   0.0000000   0.0000000   0.0000000   0.0000000   0.0000000   2.0440000   2.0440000   0.0000000
 NMagM=    0.0000000   0.0000000   0.0000000   2.7928460   0.0000000   0.0000000   0.0000000   0.4037610   0.4037610   0.0000000
 AtZNuc=   6.0000000   6.0000000   6.0000000   1.0000000   6.0000000   8.0000000   6.0000000   7.0000000   7.0000000   6.0000000

  Atom        11          12          13          14          15          16          17          18          19          20
 IAtWgt=          12          12          12          12          12           1           1           1           1           1
 AtmWgt=  12.0000000  12.0000000  12.0000000  12.0000000  12.0000000   1.0078250   1.0078250   1.0078250   1.0078250   1.0078250
 NucSpn=           0           0           0           0           0           1           1           1           1           1
 AtZEff=  -0.0000000  -0.0000000  -0.0000000  -0.0000000  -0.0000000  -0.0000000  -0.0000000  -0.0000000  -0.0000000  -0.0000000
 NQMom=    0.0000000   0.0000000   0.0000000   0.0000000   0.0000000   0.0000000   0.0000000   0.0000000   0.0000000   0.0000000
 NMagM=    0.0000000   0.0000000   0.0000000   0.0000000   0.0000000   2.7928460   2.7928460   2.7928460   2.7928460   2.7928460
 AtZNuc=   6.0000000   6.0000000   6.0000000   6.0000000   6.0000000   1.0000000   1.0000000   1.0000000   1.0000000   1.0000000

  Atom        21          22          23          24          25          26          27          28
 IAtWgt=           1           1           1           1           1           1           1           1
 AtmWgt=   1.0078250   1.0078250   1.0078250   1.0078250   1.0078250   1.0078250   1.0078250   1.0078250
 NucSpn=           1           1           1           1           1           1           1           1
 AtZEff=  -0.0000000  -0.0000000  -0.0000000  -0.0000000  -0.0000000  -0.0000000  -0.0000000  -0.0000000
 NQMom=    0.0000000   0.0000000   0.0000000   0.0000000   0.0000000   0.0000000   0.0000000   0.0000000
 NMagM=    2.7928460   2.7928460   2.7928460   2.7928460   2.7928460   2.7928460   2.7928460   2.7928460
 AtZNuc=   1.0000000   1.0000000   1.0000000   1.0000000   1.0000000   1.0000000   1.0000000   1.0000000
 Leave Link  101 at Thu Nov  3 08:04:22 2022, MaxMem=  4194304000 cpu:               0.7 elap:               0.1
 (Enter /software/gaussian/G16-A.03/avx/g16/l103.exe)

 GradGradGradGradGradGradGradGradGradGradGradGradGradGradGradGradGradGrad
 Berny optimization.
 Initialization pass.
 Trust Radius=3.00D-01 FncErr=1.00D-07 GrdErr=1.00D-07 EigMax=2.50D+02 EigMin=1.00D-04
 Number of steps in this run=      2 maximum allowed number of steps=      2.
 GradGradGradGradGradGradGradGradGradGradGradGradGradGradGradGradGradGrad

 Leave Link  103 at Thu Nov  3 08:04:22 2022, MaxMem=  4194304000 cpu:               0.2 elap:               0.0
 (Enter /software/gaussian/G16-A.03/avx/g16/l202.exe)
                          Input orientation:                          
 ---------------------------------------------------------------------
 Center     Atomic      Atomic             Coordinates (Angstroms)
 Number     Number       Type             X           Y           Z
 ---------------------------------------------------------------------
      1          6           0        2.771790   -0.660160   -1.542140
      2          6           0        2.966170    0.732430   -0.956000
      3          6           0        2.111060    0.958010    0.299590
      4          1           0        2.505710    0.329940    1.115520
      5          6           0        1.973140    2.447240    0.699820
      6          8           0        0.569590    2.754070    0.504700
      7          6           0       -0.014360    1.603010    0.218320
      8          7           0        0.723540    0.567460    0.101800
      9          7           0       -1.859010    0.213160   -0.086700
     10          6           0       -1.468810    1.487770    0.056110
     11          6           0       -2.357810    2.554360    0.038080
     12          6           0       -3.710490    2.262050   -0.147600
     13          6           0       -4.107660    0.938150   -0.304800
     14          6           0       -3.141090   -0.071010   -0.266380
     15          6           0        4.430440    0.996040   -0.623460
     16          1           0        3.465780   -0.820220   -2.380990
     17          1           0        1.749890   -0.801590   -1.924350
     18          1           0        2.940220   -1.439220   -0.783200
     19          1           0        2.636370    1.477290   -1.706430
     20          1           0        2.554370    3.124990    0.059190
     21          1           0        2.211180    2.649760    1.753540
     22          1           0       -1.993410    3.574840    0.163670
     23          1           0       -4.447530    3.067870   -0.170300
     24          1           0       -5.156880    0.677650   -0.454120
     25          1           0       -3.360070   -1.139090   -0.385880
     26          1           0        4.798950    0.255690    0.104690
     27          1           0        4.593760    1.998620   -0.195860
     28          1           0        5.055200    0.918140   -1.525290
 ---------------------------------------------------------------------
                    Distance matrix (angstroms):
                    1          2          3          4          5
     1  C    0.000000
     2  C    1.523368   0.000000
     3  C    2.539096   1.535775   0.000000
     4  H    2.848553   2.159911   1.102707   0.000000
     5  C    3.914098   2.582329   1.548229   2.222475   0.000000
     6  O    4.549308   3.458940   2.375717   3.161972   1.449886
     7  C    3.997973   3.319713   2.222620   2.962504   2.212402
     8  N    2.899124   2.485064   1.454944   2.064019   2.335102
     9  N    4.932069   4.930283   4.057768   4.528769   4.505008
    10  C    5.015047   4.611285   3.627037   4.273140   3.630698
    11  C    6.256439   5.714227   4.752633   5.455525   4.382522
    12  C    7.245965   6.897176   5.982553   6.630962   5.749440
    13  C    7.170247   7.106719   6.248053   6.791457   6.345293
    14  C    6.077566   6.198364   5.381848   5.827243   5.781909
    15  C    2.517557   1.524520   2.496596   2.678120   3.145691
    16  H    1.100414   2.165855   3.490398   3.803970   4.732405
    17  H    1.100167   2.184092   2.858766   3.330531   4.182225
    18  H    1.100588   2.178669   2.758016   2.631324   4.270733
    19  H    2.148028   1.107578   2.137690   3.049080   2.677819
    20  H    4.115688   2.631451   2.224886   2.988395   1.098900
    21  H    4.704398   3.404082   2.232938   2.423919   1.099092
    22  H    6.599405   5.824980   4.869594   5.628275   4.158420
    23  H    8.240069   7.812461   6.905607   7.582687   6.509016
    24  H    8.114021   8.138724   7.312293   7.829429   7.436411
    25  H    6.258276   6.621853   5.899234   6.230540   6.517947
    26  H    2.767708   2.170582   2.784958   2.507238   3.625227
    27  H    3.493015   2.197749   2.737177   2.977274   2.805557
    28  H    2.775838   2.173160   3.464064   3.717493   4.097360
                    6          7          8          9         10
     6  O    0.000000
     7  C    1.322101   0.000000
     8  N    2.228742   1.276886   0.000000
     9  N    3.564278   2.329690   2.613546   0.000000
    10  C    2.441275   1.467998   2.378120   1.340627   0.000000
    11  C    2.971075   2.535609   3.666954   2.396996   1.388618
    12  C    4.357369   3.772215   4.753363   2.762180   2.380365
    13  C    5.082275   4.179808   4.862430   2.372679   2.719534
    14  C    4.727027   3.579625   3.934281   1.325431   2.308748
    15  C    4.389713   4.564346   3.801420   6.360676   5.958587
    16  H    5.430531   4.973915   3.950922   5.889400   5.967952
    17  H    4.464987   3.672290   2.651976   4.175025   4.418532
    18  H    4.986206   4.357493   3.118278   5.123288   5.358289
    19  H    3.284942   3.278237   2.785032   4.942670   4.467568
    20  H    2.067707   2.990003   3.145586   5.289420   4.343556
    21  H    2.065260   2.899244   3.045865   5.088217   4.215900
    22  H    2.712735   2.794233   4.053391   3.373669   2.154678
    23  H    5.072040   4.685065   5.750309   3.854451   3.379460
    24  H    6.166305   5.268204   5.907667   3.350626   3.810314
    25  H    5.602861   4.367831   4.452641   2.042369   3.266897
    26  H    4.928427   4.999614   4.087319   6.660846   6.387895
    27  H    4.153966   4.643579   4.137079   6.696120   6.089270
    28  H    5.254731   5.404596   4.640439   7.097382   6.737062
                   11         12         13         14         15
    11  C    0.000000
    12  C    1.396304   0.000000
    13  C    2.406590   1.391103   0.000000
    14  C    2.756590   2.404474   1.397905   0.000000
    15  C    6.996166   8.252513   8.544241   7.654683   0.000000
    16  H    7.152195   8.123255   8.047324   6.977365   2.705232
    17  H    5.655681   6.508339   6.321434   5.215774   3.479818
    18  H    6.685230   7.637757   7.453413   6.254713   2.859504
    19  H    5.398632   6.582434   6.909210   6.152237   2.150142
    20  H    4.945258   6.327393   7.021211   6.539012   2.918575
    21  H    4.881350   6.231439   6.862515   6.334782   3.648292
    22  H    1.090844   2.183729   3.411986   3.846340   6.966752
    23  H    2.161954   1.092286   2.160858   3.401262   9.127770
    24  H    3.405744   2.167100   1.091338   2.158506   9.594100
    25  H    3.850434   3.427437   2.209161   1.096826   8.081291
    26  H    7.517149   8.746411   8.942099   7.955417   1.101871
    27  H    6.977672   8.308567   8.766480   8.007262   1.102126
    28  H    7.750746   8.974489   9.243809   8.351194   1.099859
                   16         17         18         19         20
    16  H    0.000000
    17  H    1.775710   0.000000
    18  H    1.792291   1.767960   0.000000
    19  H    2.534069   2.454920   3.074201   0.000000
    20  H    4.727561   4.472097   4.657308   2.416413   0.000000
    21  H    5.541581   5.064729   4.866858   3.677889   1.792887
    22  H    7.456179   6.125787   7.097751   5.415889   4.571169
    23  H    9.089822   7.513816   8.675734   7.421003   7.005893
    24  H    8.961401   7.214790   8.375707   7.933628   8.106561
    25  H    7.118593   5.347194   6.319936   6.674323   7.304866
    26  H    3.018862   3.812035   2.667573   3.073957   3.643226
    27  H    3.740721   4.349305   3.859781   2.526852   2.343688
    28  H    2.506067   3.747238   3.252842   2.489217   3.692549
                   21         22         23         24         25
    21  H    0.000000
    22  H    4.589339   0.000000
    23  H    6.943659   2.528094   0.000000
    24  H    7.940484   4.333926   2.509359   0.000000
    25  H    7.069040   4.938714   4.350581   2.556116   0.000000
    26  H    3.891893   7.560185   9.668576   9.980424   8.291904
    27  H    3.146559   6.782665   9.104333   9.843101   8.552470
    28  H    4.673081   7.719685   9.836626  10.270921   8.737690
                   26         27         28
    26  H    0.000000
    27  H    1.780516   0.000000
    28  H    1.778015   1.774189   0.000000
 Stoichiometry    C11H14N2O
 Framework group  C1[X(C11H14N2O)]
 Deg. of freedom    78
 Full point group                 C1      NOp   1
 Largest Abelian subgroup         C1      NOp   1
 Largest concise Abelian subgroup C1      NOp   1
                         Standard orientation:                         
 ---------------------------------------------------------------------
 Center     Atomic      Atomic             Coordinates (Angstroms)
 Number     Number       Type             X           Y           Z
 ---------------------------------------------------------------------
      1          6           0       -2.882183    1.972102   -0.439805
      2          6           0       -2.929961    0.449629   -0.460853
      3          6           0       -1.982412   -0.174964    0.573864
      4          1           0       -2.372650    0.033293    1.583966
      5          6           0       -1.703743   -1.679067    0.335053
      6          8           0       -0.295629   -1.744904   -0.004136
      7          6           0        0.177498   -0.524671    0.183305
      8          7           0       -0.644837    0.394415    0.514188
      9          7           0        1.885155    1.042735    0.416971
     10          6           0        1.605392   -0.213991    0.043265
     11          6           0        2.572005   -1.092975   -0.427167
     12          6           0        3.883346   -0.621359   -0.514513
     13          6           0        4.165289    0.686722   -0.134252
     14          6           0        3.127265    1.497698    0.333681
     15          6           0       -4.345310   -0.065316   -0.224684
     16          1           0       -3.638042    2.386034   -1.124092
     17          1           0       -1.900569    2.352694   -0.759098
     18          1           0       -3.062718    2.362670    0.573189
     19          1           0       -2.591002    0.102458   -1.456499
     20          1           0       -2.269535   -2.097141   -0.509147
     21          1           0       -1.858354   -2.307802    1.223192
     22          1           0        2.296995   -2.108667   -0.714706
     23          1           0        4.678121   -1.275483   -0.879950
     24          1           0        5.179475    1.085432   -0.193213
     25          1           0        3.254258    2.540268    0.649827
     26          1           0       -4.723836    0.282899    0.749783
     27          1           0       -4.402613   -1.165912   -0.234088
     28          1           0       -5.029847    0.305592   -1.001554
 ---------------------------------------------------------------------
 Rotational constants (GHZ):           1.7849576           0.3608581           0.3136780
 Leave Link  202 at Thu Nov  3 08:04:22 2022, MaxMem=  4194304000 cpu:               0.1 elap:               0.0
 (Enter /software/gaussian/G16-A.03/avx/g16/l301.exe)
 Standard basis: def2SVP (5D, 7F)
 Ernie: Thresh=  0.10000D-02 Tol=  0.10000D-05 Strict=F.
 There are   280 symmetry adapted cartesian basis functions of A   symmetry.
 There are   266 symmetry adapted basis functions of A   symmetry.
   266 basis functions,   448 primitive gaussians,   280 cartesian basis functions
    51 alpha electrons       51 beta electrons
       nuclear repulsion energy       866.0711101456 Hartrees.
 IExCor= 1009 DFT=T Ex+Corr=PBE1PBE ExCW=0 ScaHFX=  0.250000
 ScaDFX=  0.750000  0.750000  1.000000  1.000000 ScalE2=  1.000000  1.000000
 IRadAn=      5 IRanWt=     -1 IRanGd=            0 ICorTp=0 IEmpDi=141
 NAtoms=   28 NActive=   28 NUniq=   28 SFac= 1.00D+00 NAtFMM=   60 NAOKFM=F Big=F
 Integral buffers will be    131072 words long.
 Raffenetti 2 integral format.
 Two-electron integral symmetry is turned on.
 R6Disp:  Grimme-D3(BJ) Dispersion energy=       -0.0264889414 Hartrees.
 Nuclear repulsion after empirical dispersion term =      866.0446212042 Hartrees.
 Leave Link  301 at Thu Nov  3 08:04:22 2022, MaxMem=  4194304000 cpu:               0.6 elap:               0.1
 (Enter /software/gaussian/G16-A.03/avx/g16/l302.exe)
 NPDir=0 NMtPBC=     1 NCelOv=     1 NCel=       1 NClECP=     1 NCelD=      1
         NCelK=      1 NCelE2=     1 NClLst=     1 CellRange=     0.0.
 One-electron integrals computed using PRISM.
 One-electron integral symmetry used in STVInt
   1 Symmetry operations used in ECPInt.
 ECPInt:  NShTT=    8001 NPrTT=   28665 LenC2=    7446 LenP2D=   19548.
 LDataN:  DoStor=T MaxTD1= 4 Len=   56
 NBasis=   266 RedAO= T EigKep=  6.06D-04  NBF=   266
 NBsUse=   266 1.00D-06 EigRej= -1.00D+00 NBFU=   266
 Precomputing XC quadrature grid using
 IXCGrd= 4 IRadAn=           5 IRanWt=          -1 IRanGd=           0 AccXCQ= 0.00D+00.
 Generated NRdTot=       0 NPtTot=           0 NUsed=           0 NTot=          32
 NSgBfM=   278   278   278   278   278 MxSgAt=    28 MxSgA2=    28.
 Leave Link  302 at Thu Nov  3 08:04:23 2022, MaxMem=  4194304000 cpu:               3.6 elap:               0.5
 (Enter /software/gaussian/G16-A.03/avx/g16/l303.exe)
 DipDrv:  MaxL=1.
 Leave Link  303 at Thu Nov  3 08:04:23 2022, MaxMem=  4194304000 cpu:               0.4 elap:               0.1
 (Enter /software/gaussian/G16-A.03/avx/g16/l401.exe)
 ExpMin= 1.22D-01 ExpMax= 2.27D+03 ExpMxC= 3.41D+02 IAcc=3 IRadAn=         5 AccDes= 0.00D+00
 Harris functional with IExCor= 1009 and IRadAn=       5 diagonalized for initial guess.
 HarFok:  IExCor= 1009 AccDes= 0.00D+00 IRadAn=         5 IDoV= 1 UseB2=F ITyADJ=14
 ICtDFT=  3500011 ScaDFX=  1.000000  1.000000  1.000000  1.000000
 FoFCou: FMM=F IPFlag=           0 FMFlag=      100000 FMFlg1=           0
         NFxFlg=           0 DoJE=T BraDBF=F KetDBF=T FulRan=T
         wScrn=  0.000000 ICntrl=       500 IOpCl=  0 I1Cent=   200000004 NGrid=           0
         NMat0=    1 NMatS0=      1 NMatT0=    0 NMatD0=    1 NMtDS0=    0 NMtDT0=    0
 Petite list used in FoFCou.
 Harris En= -611.322703347179    
 JPrj=0 DoOrth=F DoCkMO=F.
 Leave Link  401 at Thu Nov  3 08:04:25 2022, MaxMem=  4194304000 cpu:              17.8 elap:               2.2
 (Enter /software/gaussian/G16-A.03/avx/g16/l502.exe)
 Integral symmetry usage will be decided dynamically.
 Closed shell SCF:
 Using DIIS extrapolation, IDIIS=  1040.
 NGot=  4194304000 LenX=  4194141848 LenY=  4194063007
 Requested convergence on RMS density matrix=1.00D-08 within 128 cycles.
 Requested convergence on MAX density matrix=1.00D-06.
 Requested convergence on             energy=1.00D-06.
 No special actions if energy rises.
 Fock matrices will be formed incrementally for  20 cycles.
 Integral accuracy reduced to 1.0D-05 until final iterations.

 Cycle   1  Pass 0  IDiag  1:
 FoFJK:  IHMeth= 1 ICntrl=       0 DoSepK=F KAlg= 0 I1Cent=           0 FoldK=F
 IRaf= 880000000 NMat=       1 IRICut=       1 DoRegI=T DoRafI=F ISym2E= 0 IDoP0=0 IntGTp=1.
 FoFCou: FMM=F IPFlag=           0 FMFlag=      100000 FMFlg1=           0
         NFxFlg=           0 DoJE=F BraDBF=F KetDBF=F FulRan=T
         wScrn=  0.000000 ICntrl=         0 IOpCl=  0 I1Cent=           0 NGrid=           0
         NMat0=    1 NMatS0=      1 NMatT0=    0 NMatD0=    1 NMtDS0=    0 NMtDT0=    0
 Symmetry not used in FoFCou.
 E= -610.919194993487    
 DIIS: error= 2.53D-02 at cycle   1 NSaved=   1.
 NSaved= 1 IEnMin= 1 EnMin= -610.919194993487     IErMin= 1 ErrMin= 2.53D-02
 ErrMax= 2.53D-02  0.00D+00 EMaxC= 1.00D-01 BMatC= 2.45D-01 BMatP= 2.45D-01
 IDIUse=3 WtCom= 7.47D-01 WtEn= 2.53D-01
 Coeff-Com:  0.100D+01
 Coeff-En:   0.100D+01
 Coeff:      0.100D+01
 Gap=     0.185 Goal=   None    Shift=    0.000
 GapD=    0.185 DampG=1.000 DampE=0.500 DampFc=0.5000 IDamp=-1.
 Damping current iteration by 5.00D-01
 RMSDP=5.00D-03 MaxDP=1.44D-01              OVMax= 2.30D-01

 Cycle   2  Pass 0  IDiag  1:
 RMSU=  2.48D-03    CP:  9.84D-01
 E= -611.031257489932     Delta-E=       -0.112062496445 Rises=F Damp=T
 DIIS: error= 7.31D-03 at cycle   2 NSaved=   2.
 NSaved= 2 IEnMin= 2 EnMin= -611.031257489932     IErMin= 2 ErrMin= 7.31D-03
 ErrMax= 7.31D-03  0.00D+00 EMaxC= 1.00D-01 BMatC= 2.27D-02 BMatP= 2.45D-01
 IDIUse=3 WtCom= 9.27D-01 WtEn= 7.31D-02
 Coeff-Com:  0.936D-01 0.906D+00
 Coeff-En:   0.142D+00 0.858D+00
 Coeff:      0.971D-01 0.903D+00
 Gap=     0.228 Goal=   None    Shift=    0.000
 RMSDP=1.61D-03 MaxDP=5.53D-02 DE=-1.12D-01 OVMax= 1.92D-01

 Cycle   3  Pass 0  IDiag  1:
 RMSU=  1.57D-03    CP:  9.75D-01  8.71D-01
 E= -611.159572486421     Delta-E=       -0.128314996489 Rises=F Damp=F
 DIIS: error= 1.33D-02 at cycle   3 NSaved=   3.
 NSaved= 3 IEnMin= 3 EnMin= -611.159572486421     IErMin= 2 ErrMin= 7.31D-03
 ErrMax= 1.33D-02  0.00D+00 EMaxC= 1.00D-01 BMatC= 2.95D-02 BMatP= 2.27D-02
 IDIUse=2 WtCom= 0.00D+00 WtEn= 1.00D+00
 Coeff-En:   0.000D+00 0.000D+00 0.100D+01
 Coeff:      0.000D+00 0.000D+00 0.100D+01
 Gap=     0.180 Goal=   None    Shift=    0.000
 RMSDP=2.30D-03 MaxDP=1.08D-01 DE=-1.28D-01 OVMax= 2.23D-01

 Cycle   4  Pass 0  IDiag  1:
 RMSU=  1.29D-03    CP:  9.83D-01  1.29D+00 -7.47D-03
 E= -611.059135182664     Delta-E=        0.100437303757 Rises=F Damp=F
 DIIS: error= 3.04D-02 at cycle   4 NSaved=   4.
 NSaved= 4 IEnMin= 3 EnMin= -611.159572486421     IErMin= 2 ErrMin= 7.31D-03
 ErrMax= 3.04D-02  0.00D+00 EMaxC= 1.00D-01 BMatC= 1.40D-01 BMatP= 2.27D-02
 IDIUse=2 WtCom= 0.00D+00 WtEn= 1.00D+00
 Coeff-En:   0.000D+00 0.000D+00 0.772D+00 0.228D+00
 Coeff:      0.000D+00 0.000D+00 0.772D+00 0.228D+00
 Gap=     0.199 Goal=   None    Shift=    0.000
 RMSDP=1.24D-03 MaxDP=5.47D-02 DE= 1.00D-01 OVMax= 1.12D-01

 Cycle   5  Pass 0  IDiag  1:
 RMSU=  1.99D-04    CP:  9.79D-01  1.03D+00  4.90D-01  4.75D-01
 E= -611.178320850096     Delta-E=       -0.119185667432 Rises=F Damp=F
 DIIS: error= 7.79D-03 at cycle   5 NSaved=   5.
 NSaved= 5 IEnMin= 5 EnMin= -611.178320850096     IErMin= 2 ErrMin= 7.31D-03
 ErrMax= 7.79D-03  0.00D+00 EMaxC= 1.00D-01 BMatC= 9.33D-03 BMatP= 2.27D-02
 IDIUse=3 WtCom= 9.22D-01 WtEn= 7.79D-02
 Coeff-Com:  0.484D-03 0.917D-02 0.283D+00-0.757D-01 0.783D+00
 Coeff-En:   0.000D+00 0.000D+00 0.287D+00 0.000D+00 0.713D+00
 Coeff:      0.447D-03 0.845D-02 0.283D+00-0.698D-01 0.778D+00
 Gap=     0.199 Goal=   None    Shift=    0.000
 RMSDP=4.16D-04 MaxDP=1.88D-02 DE=-1.19D-01 OVMax= 3.82D-02

 Cycle   6  Pass 0  IDiag  1:
 RMSU=  6.25D-05    CP:  9.77D-01  9.60D-01  6.75D-01  2.94D-01  8.09D-01
 E= -611.186764314780     Delta-E=       -0.008443464685 Rises=F Damp=F
 DIIS: error= 4.70D-04 at cycle   6 NSaved=   6.
 NSaved= 6 IEnMin= 6 EnMin= -611.186764314780     IErMin= 6 ErrMin= 4.70D-04
 ErrMax= 4.70D-04  0.00D+00 EMaxC= 1.00D-01 BMatC= 4.14D-05 BMatP= 9.33D-03
 IDIUse=3 WtCom= 9.95D-01 WtEn= 4.70D-03
 Coeff-Com: -0.134D-02 0.332D-02 0.119D+00-0.584D-01 0.441D+00 0.497D+00
 Coeff-En:   0.000D+00 0.000D+00 0.000D+00 0.000D+00 0.000D+00 0.100D+01
 Coeff:     -0.133D-02 0.330D-02 0.118D+00-0.582D-01 0.439D+00 0.499D+00
 Gap=     0.199 Goal=   None    Shift=    0.000
 RMSDP=3.36D-05 MaxDP=1.03D-03 DE=-8.44D-03 OVMax= 3.14D-03

 Cycle   7  Pass 0  IDiag  1:
 RMSU=  1.55D-05    CP:  9.77D-01  9.61D-01  6.70D-01  2.99D-01  8.68D-01
                    CP:  5.95D-01
 E= -611.186806144130     Delta-E=       -0.000041829349 Rises=F Damp=F
 DIIS: error= 1.35D-04 at cycle   7 NSaved=   7.
 NSaved= 7 IEnMin= 7 EnMin= -611.186806144130     IErMin= 7 ErrMin= 1.35D-04
 ErrMax= 1.35D-04  0.00D+00 EMaxC= 1.00D-01 BMatC= 3.46D-06 BMatP= 4.14D-05
 IDIUse=3 WtCom= 9.99D-01 WtEn= 1.35D-03
 Coeff-Com: -0.782D-03 0.126D-02 0.526D-01-0.307D-01 0.213D+00 0.291D+00
 Coeff-Com:  0.474D+00
 Coeff-En:   0.000D+00 0.000D+00 0.000D+00 0.000D+00 0.000D+00 0.000D+00
 Coeff-En:   0.100D+01
 Coeff:     -0.780D-03 0.126D-02 0.525D-01-0.306D-01 0.212D+00 0.291D+00
 Coeff:      0.474D+00
 Gap=     0.199 Goal=   None    Shift=    0.000
 RMSDP=8.20D-06 MaxDP=3.97D-04 DE=-4.18D-05 OVMax= 8.13D-04

 Initial convergence to 1.0D-05 achieved.  Increase integral accuracy.
 Cycle   8  Pass 1  IDiag  1:
 E= -611.186801412965     Delta-E=        0.000004731164 Rises=F Damp=F
 DIIS: error= 4.68D-05 at cycle   1 NSaved=   1.
 NSaved= 1 IEnMin= 1 EnMin= -611.186801412965     IErMin= 1 ErrMin= 4.68D-05
 ErrMax= 4.68D-05  0.00D+00 EMaxC= 1.00D-01 BMatC= 6.35D-07 BMatP= 6.35D-07
 IDIUse=1 WtCom= 1.00D+00 WtEn= 0.00D+00
 Coeff-Com:  0.100D+01
 Coeff:      0.100D+01
 Gap=     0.199 Goal=   None    Shift=    0.000
 RMSDP=8.20D-06 MaxDP=3.97D-04 DE= 4.73D-06 OVMax= 4.14D-04

 Cycle   9  Pass 1  IDiag  1:
 RMSU=  4.00D-05    CP:  1.00D+00
 E= -611.186801274042     Delta-E=        0.000000138923 Rises=F Damp=F
 DIIS: error= 6.29D-05 at cycle   2 NSaved=   2.
 NSaved= 2 IEnMin= 1 EnMin= -611.186801412965     IErMin= 1 ErrMin= 4.68D-05
 ErrMax= 6.29D-05  0.00D+00 EMaxC= 1.00D-01 BMatC= 8.82D-07 BMatP= 6.35D-07
 IDIUse=1 WtCom= 1.00D+00 WtEn= 0.00D+00
 Coeff-Com:  0.552D+00 0.448D+00
 Coeff:      0.552D+00 0.448D+00
 Gap=     0.199 Goal=   None    Shift=    0.000
 RMSDP=5.62D-06 MaxDP=2.13D-04 DE= 1.39D-07 OVMax= 3.83D-04

 Cycle  10  Pass 1  IDiag  1:
 RMSU=  5.59D-06    CP:  1.00D+00  9.94D-01
 E= -611.186801964056     Delta-E=       -0.000000690013 Rises=F Damp=F
 DIIS: error= 2.54D-05 at cycle   3 NSaved=   3.
 NSaved= 3 IEnMin= 3 EnMin= -611.186801964056     IErMin= 3 ErrMin= 2.54D-05
 ErrMax= 2.54D-05  0.00D+00 EMaxC= 1.00D-01 BMatC= 1.29D-07 BMatP= 6.35D-07
 IDIUse=1 WtCom= 1.00D+00 WtEn= 0.00D+00
 Coeff-Com:  0.423D-01 0.275D+00 0.683D+00
 Coeff:      0.423D-01 0.275D+00 0.683D+00
 Gap=     0.199 Goal=   None    Shift=    0.000
 RMSDP=1.85D-06 MaxDP=8.06D-05 DE=-6.90D-07 OVMax= 1.64D-04

 Cycle  11  Pass 1  IDiag  1:
 RMSU=  8.44D-07    CP:  1.00D+00  1.01D+00  7.23D-01
 E= -611.186802066749     Delta-E=       -0.000000102694 Rises=F Damp=F
 DIIS: error= 7.53D-06 at cycle   4 NSaved=   4.
 NSaved= 4 IEnMin= 4 EnMin= -611.186802066749     IErMin= 4 ErrMin= 7.53D-06
 ErrMax= 7.53D-06  0.00D+00 EMaxC= 1.00D-01 BMatC= 1.77D-08 BMatP= 1.29D-07
 IDIUse=1 WtCom= 1.00D+00 WtEn= 0.00D+00
 Coeff-Com: -0.418D-02 0.150D+00 0.435D+00 0.419D+00
 Coeff:     -0.418D-02 0.150D+00 0.435D+00 0.419D+00
 Gap=     0.199 Goal=   None    Shift=    0.000
 RMSDP=5.29D-07 MaxDP=2.48D-05 DE=-1.03D-07 OVMax= 4.61D-05

 Cycle  12  Pass 1  IDiag  1:
 RMSU=  1.72D-07    CP:  1.00D+00  1.01D+00  7.54D-01  4.48D-01
 E= -611.186802082645     Delta-E=       -0.000000015896 Rises=F Damp=F
 DIIS: error= 9.33D-07 at cycle   5 NSaved=   5.
 NSaved= 5 IEnMin= 5 EnMin= -611.186802082645     IErMin= 5 ErrMin= 9.33D-07
 ErrMax= 9.33D-07  0.00D+00 EMaxC= 1.00D-01 BMatC= 2.69D-10 BMatP= 1.77D-08
 IDIUse=1 WtCom= 1.00D+00 WtEn= 0.00D+00
 Coeff-Com: -0.325D-02 0.814D-01 0.235D+00 0.240D+00 0.447D+00
 Coeff:     -0.325D-02 0.814D-01 0.235D+00 0.240D+00 0.447D+00
 Gap=     0.199 Goal=   None    Shift=    0.000
 RMSDP=7.87D-08 MaxDP=2.60D-06 DE=-1.59D-08 OVMax= 5.39D-06

 Cycle  13  Pass 1  IDiag  1:
 RMSU=  6.54D-08    CP:  1.00D+00  1.01D+00  7.52D-01  4.59D-01  7.63D-01
 E= -611.186802082882     Delta-E=       -0.000000000237 Rises=F Damp=F
 DIIS: error= 3.45D-07 at cycle   6 NSaved=   6.
 NSaved= 6 IEnMin= 6 EnMin= -611.186802082882     IErMin= 6 ErrMin= 3.45D-07
 ErrMax= 3.45D-07  0.00D+00 EMaxC= 1.00D-01 BMatC= 1.79D-11 BMatP= 2.69D-10
 IDIUse=1 WtCom= 1.00D+00 WtEn= 0.00D+00
 Coeff-Com: -0.117D-02 0.248D-01 0.695D-01 0.726D-01 0.232D+00 0.602D+00
 Coeff:     -0.117D-02 0.248D-01 0.695D-01 0.726D-01 0.232D+00 0.602D+00
 Gap=     0.199 Goal=   None    Shift=    0.000
 RMSDP=2.70D-08 MaxDP=7.44D-07 DE=-2.37D-10 OVMax= 2.37D-06

 Cycle  14  Pass 1  IDiag  1:
 RMSU=  1.88D-08    CP:  1.00D+00  1.01D+00  7.50D-01  4.62D-01  8.05D-01
                    CP:  7.75D-01
 E= -611.186802082897     Delta-E=       -0.000000000015 Rises=F Damp=F
 DIIS: error= 6.51D-08 at cycle   7 NSaved=   7.
 NSaved= 7 IEnMin= 7 EnMin= -611.186802082897     IErMin= 7 ErrMin= 6.51D-08
 ErrMax= 6.51D-08  0.00D+00 EMaxC= 1.00D-01 BMatC= 2.11D-12 BMatP= 1.79D-11
 IDIUse=1 WtCom= 1.00D+00 WtEn= 0.00D+00
 Coeff-Com: -0.209D-03 0.297D-02 0.700D-02 0.743D-02 0.632D-01 0.312D+00
 Coeff-Com:  0.608D+00
 Coeff:     -0.209D-03 0.297D-02 0.700D-02 0.743D-02 0.632D-01 0.312D+00
 Coeff:      0.608D+00
 Gap=     0.199 Goal=   None    Shift=    0.000
 RMSDP=7.15D-09 MaxDP=2.49D-07 DE=-1.46D-11 OVMax= 4.80D-07

 SCF Done:  E(RPBE1PBE) =  -611.186802083     A.U. after   14 cycles
            NFock= 14  Conv=0.71D-08     -V/T= 2.0099
 KE= 6.052153049762D+02 PE=-3.151912505431D+03 EE= 1.069465777168D+03
 Leave Link  502 at Thu Nov  3 08:05:07 2022, MaxMem=  4194304000 cpu:             330.5 elap:              41.4
 (Enter /software/gaussian/G16-A.03/avx/g16/l801.exe)
 DoSCS=F DFT=T ScalE2(SS,OS)=  1.000000  1.000000
 Range of M.O.s used for correlation:     1   266
 NBasis=   266 NAE=    51 NBE=    51 NFC=     0 NFV=     0
 NROrb=    266 NOA=    51 NOB=    51 NVA=   215 NVB=   215
 Leave Link  801 at Thu Nov  3 08:05:08 2022, MaxMem=  4194304000 cpu:               0.2 elap:               0.1
 (Enter /software/gaussian/G16-A.03/avx/g16/l1101.exe)
 Using compressed storage, NAtomX=    28.
 Will process     29 centers per pass.
   1 Symmetry operations used in ECPInt.
 ECPInt:  NShTT=    8001 NPrTT=   28665 LenC2=    7446 LenP2D=   19548.
 LDataN:  DoStor=T MaxTD1= 5 Len=  102
 R6Disp: Adding Grimme-D3(BJ) dispersion energy 1st derivatives to the gradient.
 Leave Link 1101 at Thu Nov  3 08:05:09 2022, MaxMem=  4194304000 cpu:               3.0 elap:               0.6
 (Enter /software/gaussian/G16-A.03/avx/g16/l1102.exe)
 Symmetrizing basis deriv contribution to polar:
 IMax=3 JMax=2 DiffMx= 0.00D+00
 Leave Link 1102 at Thu Nov  3 08:05:10 2022, MaxMem=  4194304000 cpu:               0.4 elap:               0.1
 (Enter /software/gaussian/G16-A.03/avx/g16/l1110.exe)
 Forming Gx(P) for the SCF density, NAtomX=    28.
 Integral derivatives from FoFJK, PRISM(SPDF).
 Do as many integral derivatives as possible in FoFJK.
 G2DrvN: MDV=    4194301848.
 G2DrvN: will do    29 centers at a time, making    1 passes.
 Calling FoFCou, ICntrl=  3107 FMM=F I1Cent=   0 AccDes= 0.00D+00.
 FoFJK:  IHMeth= 1 ICntrl=    3107 DoSepK=F KAlg= 0 I1Cent=           0 FoldK=F
 IRaf=         0 NMat=       1 IRICut=       1 DoRegI=T DoRafI=F ISym2E= 0 IDoP0=0 IntGTp=1.
 FoFCou: FMM=F IPFlag=           0 FMFlag=      100000 FMFlg1=           0
         NFxFlg=           0 DoJE=F BraDBF=F KetDBF=F FulRan=T
         wScrn=  0.000000 ICntrl=      3107 IOpCl=  0 I1Cent=           0 NGrid=           0
         NMat0=    1 NMatS0=      1 NMatT0=    0 NMatD0=    1 NMtDS0=    0 NMtDT0=    0
 Symmetry not used in FoFCou.
 End of G2Drv F.D. properties file   721 does not exist.
 End of G2Drv F.D. properties file   722 does not exist.
 End of G2Drv F.D. properties file   788 does not exist.
 Leave Link 1110 at Thu Nov  3 08:07:14 2022, MaxMem=  4194304000 cpu:             988.8 elap:             123.6
 (Enter /software/gaussian/G16-A.03/avx/g16/l1002.exe)
 Minotr:  Closed shell wavefunction.
          IDoAtm=1111111111111111111111111111
          Direct CPHF calculation.
          Differentiating once with respect to electric field.
                with respect to dipole field.
          Differentiating once with respect to nuclear coordinates.
          Requested convergence is 1.0D-08 RMS, and 1.0D-07 maximum.
          Secondary convergence is 1.0D-12 RMS, and 1.0D-12 maximum.
          NewPWx=T KeepS1=F KeepF1=F KeepIn=T MapXYZ=F SortEE=F KeepMc=T.
         8457 words used for storage of precomputed grid.
 Keep R1 ints in memory in canonical form, NReq=641640646.
 FoFCou: FMM=F IPFlag=           0 FMFlag=           0 FMFlg1=           0
         NFxFlg=           0 DoJE=F BraDBF=F KetDBF=F FulRan=T
         wScrn=  0.000000 ICntrl=       600 IOpCl=  0 I1Cent=           0 NGrid=           0
         NMat0=    1 NMatS0=  35511 NMatT0=    0 NMatD0=    1 NMtDS0=    0 NMtDT0=    0
 Symmetry not used in FoFCou.
 Two-electron integral symmetry not used.
          MDV=    4194304000 using IRadAn=       1.
          Solving linear equations simultaneously, MaxMat=       0.
          There are    87 degrees of freedom in the 1st order CPHF.  IDoFFX=6 NUNeed=     3.
     84 vectors produced by pass  0 Test12= 1.26D-14 1.15D-09 XBig12= 1.64D+02 7.02D+00.
 AX will form    84 AO Fock derivatives at one time.
     84 vectors produced by pass  1 Test12= 1.26D-14 1.15D-09 XBig12= 3.08D+01 1.44D+00.
     84 vectors produced by pass  2 Test12= 1.26D-14 1.15D-09 XBig12= 2.65D-01 7.07D-02.
     84 vectors produced by pass  3 Test12= 1.26D-14 1.15D-09 XBig12= 1.21D-03 4.14D-03.
     84 vectors produced by pass  4 Test12= 1.26D-14 1.15D-09 XBig12= 3.00D-06 1.93D-04.
     62 vectors produced by pass  5 Test12= 1.26D-14 1.15D-09 XBig12= 4.56D-09 6.57D-06.
     17 vectors produced by pass  6 Test12= 1.26D-14 1.15D-09 XBig12= 5.39D-12 2.05D-07.
      3 vectors produced by pass  7 Test12= 1.26D-14 1.15D-09 XBig12= 4.89D-15 6.53D-09.
 InvSVY:  IOpt=1 It=  1 EMax= 1.95D-14
 Solved reduced A of dimension   502 with    87 vectors.
 FullF1:  Do perturbations      1 to       3.
 Isotropic polarizability for W=    0.000000      133.38 Bohr**3.
 End of Minotr F.D. properties file   721 does not exist.
 End of Minotr F.D. properties file   722 does not exist.
 End of Minotr F.D. properties file   788 does not exist.
 Leave Link 1002 at Thu Nov  3 08:09:11 2022, MaxMem=  4194304000 cpu:             922.6 elap:             115.4
 (Enter /software/gaussian/G16-A.03/avx/g16/l601.exe)
 Copying SCF densities to generalized density rwf, IOpCl= 0 IROHF=0.

 **********************************************************************

            Population analysis using the SCF density.

 **********************************************************************

 Orbital symmetries:
       Occupied  (A) (A) (A) (A) (A) (A) (A) (A) (A) (A) (A) (A)
                 (A) (A) (A) (A) (A) (A) (A) (A) (A) (A) (A) (A)
                 (A) (A) (A) (A) (A) (A) (A) (A) (A) (A) (A) (A)
                 (A) (A) (A) (A) (A) (A) (A) (A) (A) (A) (A) (A)
                 (A) (A) (A)
       Virtual   (A) (A) (A) (A) (A) (A) (A) (A) (A) (A) (A) (A)
                 (A) (A) (A) (A) (A) (A) (A) (A) (A) (A) (A) (A)
                 (A) (A) (A) (A) (A) (A) (A) (A) (A) (A) (A) (A)
                 (A) (A) (A) (A) (A) (A) (A) (A) (A) (A) (A) (A)
                 (A) (A) (A) (A) (A) (A) (A) (A) (A) (A) (A) (A)
                 (A) (A) (A) (A) (A) (A) (A) (A) (A) (A) (A) (A)
                 (A) (A) (A) (A) (A) (A) (A) (A) (A) (A) (A) (A)
                 (A) (A) (A) (A) (A) (A) (A) (A) (A) (A) (A) (A)
                 (A) (A) (A) (A) (A) (A) (A) (A) (A) (A) (A) (A)
                 (A) (A) (A) (A) (A) (A) (A) (A) (A) (A) (A) (A)
                 (A) (A) (A) (A) (A) (A) (A) (A) (A) (A) (A) (A)
                 (A) (A) (A) (A) (A) (A) (A) (A) (A) (A) (A) (A)
                 (A) (A) (A) (A) (A) (A) (A) (A) (A) (A) (A) (A)
                 (A) (A) (A) (A) (A) (A) (A) (A) (A) (A) (A) (A)
                 (A) (A) (A) (A) (A) (A) (A) (A) (A) (A) (A) (A)
                 (A) (A) (A) (A) (A) (A) (A) (A) (A) (A) (A) (A)
                 (A) (A) (A) (A) (A) (A) (A) (A) (A) (A) (A) (A)
                 (A) (A) (A) (A) (A) (A) (A) (A) (A) (A) (A)
 The electronic state is 1-A.
 Alpha  occ. eigenvalues --  -19.24965 -14.38416 -14.35546 -10.31147 -10.29093
 Alpha  occ. eigenvalues --  -10.28149 -10.27336 -10.26264 -10.26013 -10.25460
 Alpha  occ. eigenvalues --  -10.25278 -10.23622 -10.22611 -10.21240  -1.12183
 Alpha  occ. eigenvalues --   -0.97187  -0.91559  -0.83196  -0.82412  -0.79740
 Alpha  occ. eigenvalues --   -0.75369  -0.69367  -0.66833  -0.66057  -0.63901
 Alpha  occ. eigenvalues --   -0.58999  -0.57812  -0.54677  -0.51242  -0.50781
 Alpha  occ. eigenvalues --   -0.50242  -0.47465  -0.47334  -0.44603  -0.44354
 Alpha  occ. eigenvalues --   -0.43127  -0.43086  -0.41808  -0.39650  -0.39116
 Alpha  occ. eigenvalues --   -0.38607  -0.38318  -0.37434  -0.34744  -0.34455
 Alpha  occ. eigenvalues --   -0.33352  -0.30723  -0.28880  -0.27868  -0.25076
 Alpha  occ. eigenvalues --   -0.24436
 Alpha virt. eigenvalues --   -0.04538  -0.02242   0.06242   0.07183   0.07422
 Alpha virt. eigenvalues --    0.09119   0.09498   0.10452   0.11471   0.13226
 Alpha virt. eigenvalues --    0.13672   0.14186   0.15044   0.15361   0.16007
 Alpha virt. eigenvalues --    0.17017   0.17379   0.17887   0.18706   0.21244
 Alpha virt. eigenvalues --    0.23231   0.24087   0.24672   0.25514   0.26736
 Alpha virt. eigenvalues --    0.27663   0.29101   0.30246   0.32471   0.33581
 Alpha virt. eigenvalues --    0.36713   0.39380   0.40997   0.41289   0.42053
 Alpha virt. eigenvalues --    0.43321   0.44082   0.45329   0.46303   0.47465
 Alpha virt. eigenvalues --    0.47675   0.48886   0.52289   0.53597   0.54114
 Alpha virt. eigenvalues --    0.55057   0.55370   0.56438   0.59051   0.59362
 Alpha virt. eigenvalues --    0.60003   0.60191   0.62312   0.63447   0.64195
 Alpha virt. eigenvalues --    0.64356   0.65128   0.65662   0.66046   0.66602
 Alpha virt. eigenvalues --    0.66796   0.67950   0.68327   0.68963   0.69842
 Alpha virt. eigenvalues --    0.70928   0.71214   0.71548   0.71977   0.72802
 Alpha virt. eigenvalues --    0.73149   0.73715   0.74317   0.74985   0.75694
 Alpha virt. eigenvalues --    0.75858   0.76056   0.77686   0.79798   0.81592
 Alpha virt. eigenvalues --    0.84693   0.85666   0.89644   0.90560   0.92476
 Alpha virt. eigenvalues --    0.98120   0.99951   1.01364   1.03757   1.06871
 Alpha virt. eigenvalues --    1.09579   1.10550   1.13120   1.14883   1.15703
 Alpha virt. eigenvalues --    1.16457   1.18535   1.20286   1.22118   1.24953
 Alpha virt. eigenvalues --    1.25623   1.28016   1.30439   1.31570   1.33907
 Alpha virt. eigenvalues --    1.34941   1.36108   1.39316   1.40488   1.44815
 Alpha virt. eigenvalues --    1.48630   1.49094   1.50333   1.52538   1.54912
 Alpha virt. eigenvalues --    1.57696   1.59245   1.60507   1.64603   1.65163
 Alpha virt. eigenvalues --    1.67726   1.68310   1.70488   1.72224   1.72452
 Alpha virt. eigenvalues --    1.73832   1.75161   1.75891   1.77539   1.78089
 Alpha virt. eigenvalues --    1.79106   1.79531   1.80646   1.81595   1.82311
 Alpha virt. eigenvalues --    1.82611   1.84274   1.85618   1.86684   1.87860
 Alpha virt. eigenvalues --    1.90124   1.90717   1.92594   1.93461   1.94317
 Alpha virt. eigenvalues --    1.94417   1.96524   1.97213   1.97826   1.98276
 Alpha virt. eigenvalues --    1.99407   1.99972   2.01466   2.02371   2.05270
 Alpha virt. eigenvalues --    2.08160   2.08306   2.11324   2.13348   2.15382
 Alpha virt. eigenvalues --    2.18236   2.18697   2.23823   2.27773   2.29075
 Alpha virt. eigenvalues --    2.30395   2.31259   2.33923   2.34131   2.36009
 Alpha virt. eigenvalues --    2.39609   2.41107   2.41627   2.43263   2.44548
 Alpha virt. eigenvalues --    2.46303   2.49602   2.52675   2.54738   2.57322
 Alpha virt. eigenvalues --    2.57972   2.59628   2.62343   2.63848   2.66824
 Alpha virt. eigenvalues --    2.69105   2.71270   2.72766   2.73708   2.74776
 Alpha virt. eigenvalues --    2.82019   2.82917   2.84552   2.87061   2.89107
 Alpha virt. eigenvalues --    2.89694   2.91180   2.91873   2.94437   2.95310
 Alpha virt. eigenvalues --    2.99407   3.02959   3.04617   3.05952   3.08311
 Alpha virt. eigenvalues --    3.09466   3.10540   3.12648   3.15277   3.18873
 Alpha virt. eigenvalues --    3.28628   3.34756   3.46417   3.64704   3.71317
     Molecular Orbital Coefficients:
                          47        48        49        50        51
                           O         O         O         O         O
     Eigenvalues --    -0.30723  -0.28880  -0.27868  -0.25076  -0.24436
   1 1   C  1S         -0.00131  -0.00198  -0.00072  -0.00193   0.00126
   2        2S          0.00390   0.00389   0.00027   0.00706  -0.00085
   3        3S          0.00494   0.02429  -0.01021  -0.04181  -0.02283
   4        4PX         0.00320   0.00760   0.04762   0.03280   0.00134
   5        4PY        -0.01742  -0.02201   0.03988   0.03043  -0.02124
   6        4PZ         0.01078   0.01069  -0.00519  -0.00689   0.02129
   7        5PX        -0.00367   0.00218   0.03317   0.01124  -0.00924
   8        5PY        -0.01716  -0.02355   0.05975   0.05389  -0.01847
   9        5PZ         0.00534   0.00268  -0.02509  -0.02062   0.01298
  10        6D 0        0.00005  -0.00020  -0.00020   0.00010   0.00049
  11        6D+1       -0.00042  -0.00071  -0.00182  -0.00110  -0.00105
  12        6D-1        0.00120   0.00148  -0.00032  -0.00087   0.00381
  13        6D+2       -0.00072  -0.00067   0.00134   0.00025   0.00030
  14        6D-2        0.00056   0.00121   0.00185   0.00038   0.00269
  15 2   C  1S          0.00383   0.00759  -0.00263  -0.00885   0.02835
  16        2S         -0.01088  -0.02211   0.00240   0.01558  -0.06785
  17        3S          0.00289  -0.00462   0.07589   0.12282  -0.15542
  18        4PX        -0.01769  -0.03130  -0.01829   0.01961  -0.10732
  19        4PY         0.02201   0.03105  -0.02788  -0.02604   0.05580
  20        4PZ        -0.02750  -0.03679   0.00805   0.03098  -0.10582
  21        5PX        -0.00834  -0.01640  -0.01866   0.00222  -0.05278
  22        5PY        -0.00528  -0.01150   0.01344   0.01070   0.06576
  23        5PZ        -0.01226  -0.01694   0.03923   0.05364  -0.07789
  24        6D 0        0.00006   0.00002   0.00040   0.00050   0.00098
  25        6D+1       -0.00139  -0.00184   0.00095   0.00202  -0.00464
  26        6D-1        0.00104   0.00134   0.00111   0.00025   0.00378
  27        6D+2       -0.00087  -0.00092   0.00407   0.00285   0.00074
  28        6D-2        0.00040   0.00066   0.00279   0.00106   0.00376
  29 3   C  1S          0.00212   0.00102  -0.02297  -0.02182   0.00060
  30        2S         -0.00340   0.00046   0.05386   0.05912  -0.00702
  31        3S         -0.02829  -0.04211   0.04063   0.03645   0.03327
  32        4PX         0.01144   0.01718   0.10249   0.07449   0.04013
  33        4PY        -0.02067  -0.02680   0.10351   0.09533  -0.03005
  34        4PZ         0.03184   0.04692   0.02121  -0.00910   0.13438
  35        5PX         0.00515   0.00236   0.05735   0.04620  -0.02942
  36        5PY        -0.00217  -0.00341  -0.00088  -0.01228  -0.01805
  37        5PZ         0.02611   0.02829   0.00952   0.00266   0.01810
  38        6D 0        0.00050   0.00075  -0.00000  -0.00010   0.00445
  39        6D+1       -0.00122  -0.00298  -0.00378  -0.00022  -0.02194
  40        6D-1        0.00233   0.00355  -0.00124  -0.00204   0.00137
  41        6D+2       -0.00119  -0.00124   0.01716   0.01694  -0.00173
  42        6D-2        0.00081   0.00133  -0.00380  -0.00575   0.00349
  43 4   H  1S          0.02093   0.03738   0.03932   0.01435   0.14986
  44        2S          0.00967   0.02115   0.00870  -0.00475   0.10336
  45        3PX         0.00048   0.00088   0.00127   0.00086   0.00171
  46        3PY        -0.00052  -0.00072   0.00210   0.00247  -0.00306
  47        3PZ        -0.00026  -0.00056  -0.00140  -0.00081  -0.00293
  48 5   C  1S         -0.00186  -0.00133   0.02394   0.02731   0.00225
  49        2S          0.00415   0.00326  -0.06029  -0.06467  -0.00345
  50        3S          0.02189   0.02757  -0.09660  -0.13813  -0.02428
  51        4PX        -0.01232  -0.02249   0.01742  -0.00625  -0.01487
  52        4PY         0.02227   0.02851  -0.12772  -0.12175   0.01344
  53        4PZ        -0.04566  -0.07787  -0.02761  -0.00656  -0.07244
  54        5PX        -0.00378  -0.00301   0.03554   0.01332   0.00164
  55        5PY         0.01617   0.01645  -0.09673  -0.10879  -0.00634
  56        5PZ        -0.01457  -0.01182  -0.02182  -0.01565  -0.01384
  57        6D 0       -0.00186  -0.00394   0.00202   0.00267  -0.00373
  58        6D+1        0.00478   0.01021   0.00183   0.00093   0.00907
  59        6D-1        0.00333   0.00560   0.00130  -0.00050   0.00765
  60        6D+2        0.00126   0.00251  -0.00271  -0.00367   0.00291
  61        6D-2       -0.00043  -0.00137   0.00160   0.00293  -0.00138
  62 6   O  1S          0.00073   0.00184  -0.01481  -0.00586  -0.00080
  63        2S          0.00161   0.00434  -0.03225  -0.01145  -0.00208
  64        3S          0.00329   0.00528  -0.08751  -0.07581  -0.00578
  65        4PX         0.02662   0.05798   0.00541   0.02592   0.05850
  66        4PY        -0.02053  -0.05304  -0.12495  -0.08131  -0.07778
  67        4PZ         0.11011   0.23170  -0.01972  -0.06266   0.27882
  68        5PX         0.02221   0.04581  -0.00371   0.01915   0.05125
  69        5PY        -0.01548  -0.04018  -0.09518  -0.07632  -0.06564
  70        5PZ         0.08536   0.17787  -0.01382  -0.05448   0.23531
  71        6D 0        0.00132   0.00314   0.00052   0.00044   0.00218
  72        6D+1       -0.00018  -0.00152   0.00094   0.00142  -0.00197
  73        6D-1        0.00301   0.00561  -0.00133  -0.00114   0.00298
  74        6D+2        0.00063   0.00083   0.00090  -0.00155   0.00027
  75        6D-2        0.00056   0.00180   0.00420   0.00265   0.00148
  76 7   C  1S          0.00232   0.00161  -0.05674  -0.01002  -0.00006
  77        2S         -0.00595  -0.00483   0.14802   0.02667  -0.00129
  78        3S         -0.01332   0.00116   0.00786  -0.23766  -0.06579
  79        4PX         0.00128  -0.00687   0.00915  -0.11466  -0.05239
  80        4PY        -0.00036   0.00886   0.06927   0.02267   0.04796
  81        4PZ        -0.01559  -0.04977   0.00808   0.05096  -0.19310
  82        5PX         0.00537   0.00320  -0.00918  -0.22132  -0.06768
  83        5PY        -0.00001   0.01154  -0.07618  -0.13886   0.01007
  84        5PZ         0.00334  -0.01456  -0.01971   0.02340  -0.13359
  85        6D 0       -0.00215  -0.00227   0.00203   0.00285  -0.01486
  86        6D+1       -0.00554  -0.01251  -0.00382  -0.00739   0.01266
  87        6D-1       -0.00811  -0.01419  -0.00625   0.00214  -0.02745
  88        6D+2       -0.00407  -0.00655   0.02397   0.01713  -0.00239
  89        6D-2        0.00069   0.00133  -0.00617  -0.00797  -0.01018
  90 8   N  1S          0.00200   0.00046  -0.07471  -0.07080  -0.01081
  91        2S          0.00257  -0.00057  -0.15403  -0.14938  -0.02625
  92        3S          0.01780   0.01167  -0.18157  -0.17002   0.00148
  93        4PX         0.00079   0.00777   0.12020   0.07669   0.06162
  94        4PY        -0.01587  -0.01357   0.33918   0.34318  -0.03261
  95        4PZ         0.01159   0.04163   0.06353   0.00071   0.37435
  96        5PX        -0.00149  -0.01151  -0.07041  -0.01352  -0.04807
  97        5PY         0.00903   0.00661  -0.24558  -0.22012   0.02575
  98        5PZ        -0.01859  -0.03288  -0.05264   0.00264  -0.28567
  99        6D 0        0.00071   0.00149  -0.00821  -0.00954   0.00785
 100        6D+1       -0.00210  -0.00295  -0.00075   0.00174  -0.00594
 101        6D-1       -0.00000   0.00177   0.00581   0.00248   0.01857
 102        6D+2        0.00011  -0.00002  -0.01031  -0.01151   0.00147
 103        6D-2        0.00081   0.00139   0.00371   0.00588   0.00543
 104 9   N  1S         -0.00060  -0.00072  -0.05622   0.08011   0.01706
 105        2S         -0.00118  -0.00136  -0.11637   0.17233   0.03771
 106        3S         -0.00007   0.00286  -0.13048   0.15351   0.02833
 107        4PX         0.05433  -0.01271  -0.22527   0.29372   0.04187
 108        4PY        -0.09751   0.02708   0.18786  -0.24033  -0.01008
 109        4PZ         0.29979  -0.04875   0.11045  -0.10821  -0.11784
 110        5PX        -0.03789   0.00955   0.18812  -0.19310  -0.02555
 111        5PY         0.06832  -0.01845  -0.13192   0.16702   0.01339
 112        5PZ        -0.20871   0.03446  -0.08152   0.07765   0.07768
 113        6D 0        0.00814   0.00165  -0.00607   0.00913  -0.00199
 114        6D+1       -0.00936   0.01219  -0.00468   0.00655   0.00254
 115        6D-1        0.00681   0.00964   0.00565  -0.00522  -0.00630
 116        6D+2        0.00085   0.00519  -0.00063  -0.00316  -0.00275
 117        6D-2        0.00477  -0.00260  -0.00500   0.00987   0.00001
 118 10  C  1S          0.00044   0.00075  -0.02904   0.01124   0.00382
 119        2S         -0.00174  -0.00284   0.07791  -0.03199  -0.01341
 120        3S          0.00711   0.00413   0.05011   0.18277   0.07481
 121        4PX        -0.01739  -0.04053  -0.08052  -0.01297   0.02217
 122        4PY         0.04013   0.09338   0.10770  -0.10524  -0.05419
 123        4PZ        -0.11132  -0.25338   0.05047  -0.06637   0.10019
 124        5PX        -0.01344  -0.01892  -0.06825  -0.24013  -0.02939
 125        5PY         0.02657   0.04933   0.02156   0.01815  -0.03229
 126        5PZ        -0.09358  -0.17408   0.01794   0.02061   0.08839
 127        6D 0       -0.01252   0.00621  -0.00279   0.00371  -0.00228
 128        6D+1        0.00253  -0.00258   0.00460  -0.00674   0.01083
 129        6D-1       -0.01683   0.00760  -0.00491   0.00425   0.00254
 130        6D+2       -0.00593   0.00190   0.00702  -0.00668   0.00063
 131        6D-2       -0.00461   0.00339   0.01756  -0.01898  -0.00667
 132 11  C  1S         -0.00016   0.00063   0.02096  -0.01591  -0.00252
 133        2S          0.00041  -0.00221  -0.05403   0.04995   0.00865
 134        3S         -0.00551  -0.01202   0.02686   0.11155   0.00676
 135        4PX         0.03596  -0.04649   0.09421  -0.06757   0.01013
 136        4PY        -0.06573   0.08302  -0.08077   0.07972  -0.02639
 137        4PZ         0.19424  -0.26033  -0.03738   0.01411   0.11796
 138        5PX         0.02981  -0.02518   0.09207  -0.06951   0.01901
 139        5PY        -0.04920   0.05052   0.01451   0.08018  -0.02899
 140        5PZ         0.13646  -0.17490  -0.00693   0.01956   0.09930
 141        6D 0       -0.00275  -0.00635  -0.00077  -0.00052   0.00338
 142        6D+1        0.01451   0.00536   0.00136  -0.00003  -0.00431
 143        6D-1        0.00405  -0.00654   0.00062  -0.00216   0.00222
 144        6D+2        0.00368  -0.00202  -0.00180   0.00488   0.00095
 145        6D-2       -0.00418  -0.00327   0.00315  -0.00220   0.00196
 146 12  C  1S          0.00012   0.00014  -0.00270  -0.00460  -0.00102
 147        2S         -0.00034  -0.00043   0.00561   0.01133   0.00238
 148        3S         -0.00068   0.00081  -0.12476   0.05812   0.01398
 149        4PX         0.06231  -0.00364  -0.03268   0.00597  -0.00748
 150        4PY        -0.10895   0.01032   0.02010  -0.02491   0.01132
 151        4PZ         0.33126  -0.02382   0.01902   0.00805  -0.04333
 152        5PX         0.04050  -0.00231   0.01489   0.00352  -0.00400
 153        5PY        -0.06810   0.01071  -0.01497  -0.00354   0.02049
 154        5PZ         0.21320  -0.01816  -0.00331   0.01131  -0.03255
 155        6D 0        0.00540   0.00313  -0.00021   0.00112  -0.00215
 156        6D+1       -0.00624   0.01206   0.00225  -0.00057  -0.00626
 157        6D-1        0.00461   0.01143  -0.00103   0.00229  -0.00657
 158        6D+2        0.00060   0.00613  -0.00137   0.00099  -0.00354
 159        6D-2        0.00341  -0.00144   0.00667  -0.00556  -0.00044
 160 13  C  1S          0.00022   0.00081   0.01806  -0.02525  -0.00521
 161        2S         -0.00070  -0.00211  -0.04969   0.06546   0.01341
 162        3S         -0.00224  -0.00597  -0.00133   0.09572   0.01005
 163        4PX         0.03759   0.04576   0.08745  -0.09163  -0.04636
 164        4PY        -0.06490  -0.07936  -0.06749   0.06276   0.06060
 165        4PZ         0.19166   0.22776  -0.03986   0.07582  -0.13465
 166        5PX         0.02513   0.03163   0.00942  -0.04140  -0.02901
 167        5PY        -0.04367  -0.05407  -0.08699   0.08954   0.06009
 168        5PZ         0.13107   0.16034  -0.03130   0.06695  -0.10215
 169        6D 0       -0.00820   0.00670  -0.00143   0.00117  -0.00033
 170        6D+1       -0.00190  -0.00791   0.00068  -0.00055   0.00235
 171        6D-1       -0.01330   0.00536  -0.00101   0.00054   0.00065
 172        6D+2       -0.00510   0.00040   0.00163  -0.00311  -0.00015
 173        6D-2       -0.00242   0.00419   0.00354  -0.00276  -0.00131
 174 14  C  1S          0.00018  -0.00010  -0.01729   0.02486   0.00575
 175        2S         -0.00053  -0.00016   0.03848  -0.06381  -0.01534
 176        3S         -0.00110  -0.00024  -0.01086  -0.03865  -0.00929
 177        4PX        -0.02205   0.05274  -0.10666   0.12533   0.01664
 178        4PY         0.03798  -0.08668   0.04222  -0.03207   0.01483
 179        4PZ        -0.11146   0.27584   0.02683  -0.02454  -0.06078
 180        5PX        -0.01570   0.03721   0.02583  -0.04478  -0.01276
 181        5PY         0.02813  -0.05918   0.02537   0.00249   0.00921
 182        5PZ        -0.08513   0.18274  -0.00170   0.01271  -0.02689
 183        6D 0       -0.00573  -0.00559  -0.00171   0.00120   0.00434
 184        6D+1        0.01921   0.00290   0.00673  -0.00625  -0.01053
 185        6D-1        0.00246  -0.00660   0.00152  -0.00206   0.00035
 186        6D+2        0.00403  -0.00255  -0.01026   0.01460   0.00127
 187        6D-2       -0.00617  -0.00208   0.01470  -0.01977  -0.00020
 188 15  C  1S          0.00102   0.00110  -0.00759  -0.00322  -0.00302
 189        2S         -0.00220  -0.00256   0.01782   0.00930   0.00695
 190        3S         -0.01223  -0.01882  -0.00612  -0.02961   0.03297
 191        4PX         0.00300   0.00705   0.03485   0.00630   0.04678
 192        4PY         0.00027   0.00512   0.01168   0.00478   0.00589
 193        4PZ         0.00818   0.00769  -0.00486  -0.00622   0.00421
 194        5PX         0.00112   0.00366   0.01313  -0.00978   0.05285
 195        5PY         0.00073   0.00584  -0.00188  -0.00846   0.00816
 196        5PZ         0.00482   0.00454  -0.01132  -0.01145  -0.00617
 197        6D 0        0.00028   0.00042   0.00012   0.00006   0.00079
 198        6D+1       -0.00117  -0.00154  -0.00099   0.00054  -0.00431
 199        6D-1        0.00008   0.00001   0.00031   0.00030  -0.00042
 200        6D+2       -0.00095  -0.00126   0.00132   0.00117  -0.00235
 201        6D-2        0.00058   0.00090   0.00029  -0.00046   0.00236
 202 16  H  1S         -0.01594  -0.02169  -0.01872  -0.00718  -0.03380
 203        2S         -0.01133  -0.01690  -0.01668  -0.00805  -0.03056
 204        3PX        -0.00044  -0.00057   0.00063   0.00094  -0.00120
 205        3PY        -0.00001  -0.00008   0.00091   0.00074  -0.00014
 206        3PZ        -0.00030  -0.00036  -0.00055  -0.00048  -0.00071
 207 17  H  1S         -0.00308   0.00082   0.04809   0.03183   0.00154
 208        2S          0.01056   0.00375  -0.03080  -0.00738   0.02772
 209        3PX         0.00014   0.00049  -0.00216  -0.00323   0.00206
 210        3PY        -0.00055  -0.00060   0.00156   0.00148  -0.00218
 211        3PZ         0.00060   0.00062  -0.00091  -0.00099   0.00127
 212 18  H  1S          0.00676   0.00588   0.00195  -0.00059   0.02162
 213        2S          0.00561   0.00596  -0.00134  -0.00430   0.02207
 214        3PX         0.00038   0.00045   0.00095   0.00072   0.00060
 215        3PY        -0.00041  -0.00053   0.00041   0.00051  -0.00096
 216        3PZ         0.00008   0.00013  -0.00008  -0.00005   0.00032
 217 19  H  1S          0.01081   0.00982   0.00238  -0.00364   0.03222
 218        2S          0.00490   0.00433   0.01135  -0.00271   0.05726
 219        3PX        -0.00036  -0.00050  -0.00049   0.00020  -0.00161
 220        3PY         0.00081   0.00113  -0.00099  -0.00104   0.00079
 221        3PZ        -0.00040  -0.00104   0.00080   0.00101  -0.00137
 222 20  H  1S          0.04427   0.08313   0.03873   0.02685   0.08800
 223        2S          0.02231   0.04974   0.03917   0.03561   0.06231
 224        3PX         0.00007   0.00002   0.00154   0.00100  -0.00044
 225        3PY         0.00157   0.00288  -0.00285  -0.00273   0.00226
 226        3PZ         0.00051   0.00106   0.00124   0.00112   0.00103
 227 21  H  1S         -0.05465  -0.09668   0.01960   0.04095  -0.09966
 228        2S         -0.03189  -0.06444   0.02242   0.04042  -0.06377
 229        3PX        -0.00015  -0.00009   0.00036  -0.00016   0.00036
 230        3PY        -0.00139  -0.00281  -0.00262  -0.00177  -0.00210
 231        3PZ         0.00092   0.00137  -0.00216  -0.00203   0.00105
 232 22  H  1S          0.00147   0.00329   0.05176  -0.05918  -0.00959
 233        2S          0.00011   0.00171   0.05747  -0.03326  -0.00955
 234        3PX         0.00099  -0.00156   0.00232  -0.00293  -0.00004
 235        3PY        -0.00189   0.00279   0.00052  -0.00052  -0.00136
 236        3PZ         0.00581  -0.00816  -0.00002  -0.00039   0.00375
 237 23  H  1S         -0.00044  -0.00135  -0.05730   0.03727   0.00641
 238        2S          0.00016  -0.00054  -0.03747   0.02300   0.00493
 239        3PX         0.00199  -0.00010   0.00063  -0.00094  -0.00055
 240        3PY        -0.00354   0.00019  -0.00081  -0.00008   0.00033
 241        3PZ         0.01061  -0.00071  -0.00018   0.00076  -0.00138
 242 24  H  1S          0.00073   0.00012   0.05245  -0.05554  -0.01170
 243        2S          0.00071   0.00058   0.05347  -0.06195  -0.01306
 244        3PX         0.00110   0.00142  -0.00033   0.00023  -0.00090
 245        3PY        -0.00200  -0.00254  -0.00208   0.00191   0.00200
 246        3PZ         0.00584   0.00729  -0.00066   0.00186  -0.00483
 247 25  H  1S          0.00147   0.00511   0.08895  -0.10402  -0.01798
 248        2S          0.00108   0.00337   0.04733  -0.06591  -0.01049
 249        3PX        -0.00064   0.00158  -0.00244   0.00297   0.00021
 250        3PY         0.00098  -0.00284  -0.00203   0.00166   0.00099
 251        3PZ        -0.00310   0.00829  -0.00040   0.00041  -0.00220
 252 26  H  1S          0.00716   0.00789  -0.00233  -0.00291   0.00476
 253        2S          0.00596   0.00751   0.00722   0.00575   0.01996
 254        3PX         0.00029   0.00043   0.00084   0.00021   0.00175
 255        3PY        -0.00013  -0.00007   0.00028   0.00025  -0.00021
 256        3PZ         0.00002   0.00007  -0.00006  -0.00028   0.00095
 257 27  H  1S          0.00229   0.00013  -0.00856  -0.00532   0.00662
 258        2S          0.00743   0.01234  -0.00996  -0.00753   0.01701
 259        3PX         0.00034   0.00064   0.00079   0.00018   0.00155
 260        3PY        -0.00018  -0.00037   0.00016   0.00016  -0.00031
 261        3PZ         0.00024   0.00019  -0.00021  -0.00027   0.00052
 262 28  H  1S         -0.01083  -0.01268  -0.00751   0.00728  -0.03821
 263        2S         -0.00574  -0.00735  -0.00821   0.00392  -0.03362
 264        3PX        -0.00005   0.00012   0.00071   0.00039   0.00039
 265        3PY         0.00017   0.00026   0.00046   0.00015   0.00076
 266        3PZ        -0.00012  -0.00016  -0.00019   0.00027  -0.00115
                          52        53        54        55        56
                           V         V         V         V         V
     Eigenvalues --    -0.04538  -0.02242   0.06242   0.07183   0.07422
   1 1   C  1S          0.00637  -0.00166  -0.03387  -0.02445  -0.00667
   2        2S         -0.01137   0.00577   0.05906   0.03638   0.01265
   3        3S         -0.11411   0.01008   0.59303   0.37876   0.07174
   4        4PX        -0.01221   0.00248  -0.00246  -0.02770  -0.01954
   5        4PY         0.00041   0.00040   0.03715   0.04823   0.01971
   6        4PZ         0.00259   0.00017   0.00795  -0.01930  -0.00600
   7        5PX        -0.02301  -0.00479  -0.00834  -0.04608  -0.06200
   8        5PY         0.00434   0.00021   0.12028   0.17355   0.06836
   9        5PZ         0.02253  -0.00418  -0.00809  -0.01663  -0.00888
  10        6D 0        0.00051  -0.00006  -0.00084   0.00032  -0.00026
  11        6D+1        0.00032   0.00006   0.00046   0.00172   0.00092
  12        6D-1        0.00128  -0.00041   0.00097   0.00743   0.00062
  13        6D+2        0.00156  -0.00065  -0.00515  -0.00300  -0.00116
  14        6D-2        0.00039  -0.00041  -0.00183  -0.00271  -0.00125
  15 2   C  1S          0.01689  -0.00643  -0.03156  -0.01505  -0.00442
  16        2S         -0.03441   0.01435   0.06516   0.01681   0.00186
  17        3S         -0.20465   0.10081   0.44483   0.35148   0.16013
  18        4PX        -0.04031   0.01409   0.03890   0.00360   0.00367
  19        4PY         0.01734  -0.00655  -0.02624  -0.01006   0.00139
  20        4PZ        -0.03770   0.01249  -0.00433  -0.15386  -0.02109
  21        5PX         0.00779  -0.00041  -0.00887   0.12361   0.08339
  22        5PY         0.12225  -0.04274  -0.21120   0.02579   0.00745
  23        5PZ        -0.07128   0.02698  -0.03541  -0.44015  -0.02810
  24        6D 0       -0.00052   0.00009   0.00253  -0.00104  -0.00208
  25        6D+1       -0.00055   0.00027  -0.00112   0.00263   0.00061
  26        6D-1        0.00093  -0.00029  -0.00185  -0.00409   0.00061
  27        6D+2        0.00253  -0.00065  -0.00449   0.00174   0.00315
  28        6D-2        0.00139  -0.00042   0.00057   0.00285   0.00016
  29 3   C  1S          0.00194  -0.00144  -0.02333  -0.01912  -0.00922
  30        2S         -0.01112   0.00592   0.04368   0.04440   0.02861
  31        3S          0.06019  -0.01429   0.32651   0.18940  -0.00170
  32        4PX         0.00245   0.00227  -0.02996  -0.02985   0.02763
  33        4PY         0.00169   0.00227  -0.01194   0.01659   0.01084
  34        4PZ         0.00870  -0.00106   0.09453   0.03329   0.00260
  35        5PX        -0.06465   0.03538   0.03628  -0.13559   0.06923
  36        5PY        -0.01234   0.00619   0.06109   0.08673   0.01207
  37        5PZ        -0.06579   0.05245   0.30055   0.10061   0.04351
  38        6D 0        0.00232  -0.00063  -0.00160   0.00307   0.00572
  39        6D+1       -0.01523   0.00540   0.01598  -0.00981  -0.00351
  40        6D-1       -0.00378   0.00123   0.00296  -0.00259   0.00026
  41        6D+2       -0.00279   0.00133   0.00303  -0.00257  -0.00276
  42        6D-2        0.00226  -0.00096  -0.00108   0.00952  -0.00401
  43 4   H  1S          0.05911  -0.02074  -0.04800   0.05328   0.03504
  44        2S          0.09820  -0.04957  -0.55197  -0.17815   0.02286
  45        3PX        -0.00179   0.00016   0.00519  -0.00048   0.00219
  46        3PY        -0.00187   0.00067  -0.00011  -0.00352   0.00052
  47        3PZ        -0.00054   0.00012  -0.00194  -0.00157   0.00064
  48 5   C  1S          0.00216  -0.00058  -0.03910  -0.04568  -0.02260
  49        2S         -0.00450   0.00078   0.07371   0.06673   0.05080
  50        3S         -0.05806   0.02133   0.63478   0.95121   0.19000
  51        4PX        -0.00454   0.00393   0.00242  -0.11375   0.06085
  52        4PY         0.00390  -0.00333  -0.08402  -0.10744  -0.01372
  53        4PZ         0.00101   0.00007   0.02597  -0.05163  -0.03871
  54        5PX        -0.01521   0.00236   0.00591  -0.27766   0.13782
  55        5PY         0.01046   0.00078  -0.21737  -0.22045  -0.02643
  56        5PZ        -0.04638  -0.01157   0.09667  -0.15515  -0.10497
  57        6D 0        0.00313  -0.00025  -0.00531  -0.00249   0.00403
  58        6D+1       -0.00779   0.00108   0.00825  -0.00930   0.00072
  59        6D-1       -0.00048   0.00014   0.00553   0.00318  -0.00020
  60        6D+2       -0.00125  -0.00007  -0.00129  -0.00160  -0.00674
  61        6D-2        0.00159   0.00014  -0.00548  -0.00235   0.00109
  62 6   O  1S          0.00007  -0.00065  -0.00757   0.01654  -0.02632
  63        2S         -0.00044  -0.00159  -0.01344   0.03731  -0.05355
  64        3S         -0.00382  -0.00290  -0.04178   0.11627  -0.18021
  65        4PX        -0.02863   0.00350   0.04538  -0.02045   0.03874
  66        4PY         0.01843   0.00265  -0.01811   0.03535   0.01633
  67        4PZ        -0.10576   0.00460   0.12407  -0.07884  -0.02661
  68        5PX        -0.03088   0.00896   0.07838  -0.01083   0.08251
  69        5PY         0.01346   0.00191   0.01052   0.08111   0.00628
  70        5PZ        -0.09754   0.01231   0.13871  -0.07087  -0.03872
  71        6D 0       -0.00084  -0.00039  -0.00285  -0.00357  -0.00056
  72        6D+1        0.00558  -0.00052  -0.00852   0.00551   0.00120
  73        6D-1        0.00247  -0.00088  -0.00727   0.00544   0.00097
  74        6D+2        0.00154  -0.00017  -0.00206   0.00117   0.00330
  75        6D-2       -0.00122  -0.00007   0.00478   0.00366   0.00122
  76 7   C  1S          0.00064   0.00008  -0.00869  -0.00597  -0.01524
  77        2S         -0.00249   0.00250   0.03764   0.04835   0.03210
  78        3S         -0.03856  -0.06009  -0.09940  -0.31903   0.07536
  79        4PX         0.02720  -0.00583  -0.05298   0.01832   0.04910
  80        4PY        -0.04255   0.01060   0.05790  -0.04600  -0.01856
  81        4PZ         0.19732  -0.04592  -0.34568   0.21355   0.05380
  82        5PX         0.00118  -0.00500   0.02488   0.07882  -0.02899
  83        5PY        -0.07134  -0.01247   0.11654  -0.04518   0.02996
  84        5PZ         0.15663  -0.01720  -0.40352   0.25562   0.08784
  85        6D 0       -0.00920   0.00075   0.00419  -0.00562   0.00174
  86        6D+1        0.02712  -0.00663  -0.00601   0.00543   0.00325
  87        6D-1       -0.00376  -0.00102   0.00703  -0.00362  -0.00093
  88        6D+2        0.00423  -0.00158  -0.00209  -0.00221  -0.00648
  89        6D-2       -0.00853   0.00224  -0.00235  -0.00143  -0.00260
  90 8   N  1S         -0.00030  -0.00147   0.00919   0.01043  -0.01528
  91        2S         -0.00259  -0.00479   0.02497   0.02083  -0.03011
  92        3S          0.04032   0.00778   0.00771   0.16388  -0.16585
  93        4PX         0.03196  -0.00999  -0.04382   0.02676  -0.01889
  94        4PY        -0.04630   0.01986   0.03366  -0.01674  -0.02565
  95        4PZ         0.23110  -0.07481  -0.18025   0.15184   0.04615
  96        5PX        -0.03399   0.02509   0.09340  -0.01463   0.02706
  97        5PY         0.04369  -0.01714  -0.06416  -0.03358   0.06552
  98        5PZ        -0.24118   0.04665   0.21098  -0.21949  -0.05314
  99        6D 0       -0.00012  -0.00053   0.00369  -0.00483   0.00005
 100        6D+1        0.00710  -0.00333  -0.01377   0.00555   0.00204
 101        6D-1        0.00485  -0.00212   0.00200   0.00120  -0.00074
 102        6D+2        0.00209  -0.00088  -0.00097   0.00277   0.00296
 103        6D-2       -0.00101   0.00056   0.00241  -0.00347   0.00057
 104 9   N  1S         -0.00170   0.00009   0.00742   0.00239  -0.01024
 105        2S         -0.00253  -0.00001   0.01276   0.00506  -0.03789
 106        3S         -0.03349   0.00395   0.11804   0.04000   0.04432
 107        4PX         0.04295   0.04675  -0.00129  -0.00187   0.04538
 108        4PY        -0.08427  -0.08150   0.02266  -0.00693  -0.04036
 109        4PZ         0.23718   0.24271  -0.03464   0.03645  -0.01021
 110        5PX        -0.04371  -0.05010   0.00743   0.00720  -0.05020
 111        5PY         0.09969   0.09070  -0.04863  -0.01914   0.04824
 112        5PZ        -0.26168  -0.27372   0.04045  -0.06045   0.00767
 113        6D 0       -0.00020   0.00546  -0.00450   0.00208   0.00056
 114        6D+1       -0.01155   0.00892  -0.00719   0.00448  -0.00053
 115        6D-1       -0.00684   0.01319  -0.00997   0.00647   0.00248
 116        6D+2       -0.00422   0.00628  -0.00539   0.00237   0.00178
 117        6D-2        0.00292  -0.00007  -0.00091   0.00174  -0.00407
 118 10  C  1S         -0.00163  -0.00065   0.00629  -0.00679   0.02396
 119        2S          0.00365   0.00167  -0.01579   0.02385  -0.07101
 120        3S          0.03590   0.02356  -0.08280   0.01947   0.00748
 121        4PX         0.04929  -0.01240   0.03879  -0.01870   0.02400
 122        4PY        -0.09947   0.02254  -0.04812   0.02264   0.02198
 123        4PZ         0.29109  -0.06404   0.13683  -0.07158  -0.01882
 124        5PX         0.01957  -0.04191   0.06709  -0.07587  -0.03842
 125        5PY        -0.07590   0.03852  -0.13963  -0.00544  -0.06707
 126        5PZ         0.33310  -0.12702   0.16250  -0.09742  -0.04041
 127        6D 0       -0.00178  -0.02036  -0.00384   0.00108  -0.00264
 128        6D+1       -0.01869   0.00995   0.02029  -0.01396  -0.00645
 129        6D-1       -0.01234  -0.02396   0.00713  -0.00344  -0.00429
 130        6D+2       -0.00681  -0.00716   0.00382  -0.00415   0.01151
 131        6D-2        0.00259  -0.00916  -0.00209   0.00066   0.00269
 132 11  C  1S         -0.00148  -0.00010   0.00184  -0.01746   0.03855
 133        2S          0.00573   0.00102  -0.00704   0.04336  -0.09095
 134        3S          0.04054   0.00052  -0.04906   0.21439  -0.51665
 135        4PX        -0.02630   0.06053   0.01099  -0.01985   0.00679
 136        4PY         0.04321  -0.10875  -0.01576  -0.01847   0.11412
 137        4PZ        -0.12545   0.32622   0.03704  -0.04738   0.02364
 138        5PX        -0.02808   0.09065   0.01249  -0.01838   0.15170
 139        5PY         0.05866  -0.15254  -0.02958  -0.06719   0.27989
 140        5PZ        -0.13348   0.46503   0.03037  -0.07196   0.04763
 141        6D 0        0.01044   0.00129   0.00711  -0.00355  -0.00389
 142        6D+1       -0.02159  -0.01208  -0.01365   0.00709   0.00728
 143        6D-1        0.00333  -0.00478   0.00408  -0.00275   0.00458
 144        6D+2       -0.00222  -0.00379  -0.00063   0.00279  -0.01518
 145        6D-2        0.00839   0.00328   0.00629  -0.00581   0.00882
 146 12  C  1S          0.00036  -0.00010  -0.00292  -0.01097   0.05485
 147        2S         -0.00072  -0.00032   0.00656   0.02254  -0.13111
 148        3S         -0.01867  -0.00225   0.04272   0.16081  -0.84755
 149        4PX        -0.03562  -0.05102  -0.03205   0.05825  -0.12652
 150        4PY         0.06454   0.09059   0.05213  -0.05809   0.09179
 151        4PZ        -0.19479  -0.27362  -0.16402   0.09221   0.08830
 152        5PX        -0.04379  -0.07186  -0.05485   0.12077  -0.31584
 153        5PY         0.08523   0.12857   0.08957  -0.10523   0.29390
 154        5PZ        -0.26732  -0.38401  -0.25839   0.14129   0.21270
 155        6D 0        0.00634  -0.00038   0.00621  -0.00404  -0.00199
 156        6D+1        0.01125  -0.01789   0.00225   0.00143  -0.00831
 157        6D-1        0.01561  -0.01066   0.01072  -0.00745   0.00295
 158        6D+2        0.00758  -0.00691   0.00413  -0.00255   0.00154
 159        6D-2       -0.00035   0.00399   0.00198   0.00418  -0.02113
 160 13  C  1S         -0.00008  -0.00004   0.00006  -0.01081   0.04236
 161        2S         -0.00010  -0.00031  -0.00027   0.02269  -0.09935
 162        3S          0.00814   0.00139  -0.01251   0.17005  -0.67642
 163        4PX         0.05286  -0.01154   0.03843   0.01434  -0.16050
 164        4PY        -0.09255   0.02056  -0.06623   0.05066  -0.02744
 165        4PZ         0.27960  -0.06265   0.20129  -0.12879  -0.01896
 166        5PX         0.06738  -0.01382   0.06256   0.03650  -0.37632
 167        5PY        -0.12561   0.02158  -0.11125   0.10999  -0.12180
 168        5PZ         0.36981  -0.06716   0.35399  -0.22582  -0.04202
 169        6D 0        0.00434   0.01901  -0.00125   0.00177  -0.00415
 170        6D+1        0.00250  -0.00937   0.00734  -0.00513  -0.00021
 171        6D-1        0.00787   0.02286   0.00274  -0.00032  -0.00600
 172        6D+2        0.00332   0.00648   0.00174  -0.00506   0.01342
 173        6D-2        0.00085   0.00870  -0.00198  -0.00297   0.01490
 174 14  C  1S         -0.00115  -0.00045   0.00336  -0.01086   0.03649
 175        2S          0.00272   0.00054  -0.00881   0.02633  -0.09559
 176        3S          0.00282   0.00132  -0.03954   0.09553  -0.36211
 177        4PX        -0.00941   0.06468  -0.02476   0.02684  -0.01941
 178        4PY         0.01019  -0.11080   0.05923  -0.01718  -0.08058
 179        4PZ        -0.03510   0.33688  -0.17665   0.11535   0.01360
 180        5PX        -0.01739   0.07727  -0.03191   0.03516  -0.02073
 181        5PY         0.02530  -0.13074   0.08997   0.00611  -0.21810
 182        5PZ        -0.07602   0.39985  -0.26750   0.19049  -0.01069
 183        6D 0       -0.01038  -0.00040  -0.00754   0.00490   0.00007
 184        6D+1        0.02532   0.01152   0.00779  -0.00470  -0.00026
 185        6D-1       -0.00101   0.00583  -0.00615   0.00255   0.00713
 186        6D+2        0.00429   0.00420  -0.00111   0.00447  -0.01254
 187        6D-2       -0.00957  -0.00283  -0.00386   0.00239  -0.00171
 188 15  C  1S         -0.00321   0.00068  -0.03582  -0.06236  -0.03530
 189        2S          0.00698  -0.00099   0.05439   0.09590   0.05997
 190        3S          0.10492  -0.03943   0.54501   1.16963   0.60312
 191        4PX         0.02382  -0.00785  -0.07977  -0.06023  -0.02094
 192        4PY         0.00158  -0.00169  -0.03344  -0.06105  -0.02763
 193        4PZ        -0.00893   0.00329   0.03659  -0.01959  -0.00898
 194        5PX         0.06933  -0.02693  -0.28580  -0.16147  -0.10071
 195        5PY         0.00492  -0.00596  -0.08545  -0.15012  -0.06069
 196        5PZ        -0.02295   0.00983   0.11746   0.02950  -0.03257
 197        6D 0        0.00035  -0.00017  -0.00153   0.00043  -0.00044
 198        6D+1       -0.00120   0.00033  -0.00105  -0.00537  -0.00205
 199        6D-1       -0.00069   0.00027   0.00014  -0.00387   0.00024
 200        6D+2       -0.00101   0.00030   0.00443   0.00358   0.00001
 201        6D-2        0.00078  -0.00022   0.00050   0.00128   0.00232
[...]
 .00002142,-0.00013668,-0.00006965,-0.00003338,0.00005176,0.00004325,0.
 00000225,-0.00009484,-0.00002917,-0.00003832,-0.00007582,0.00052358,-0
 .00334922,-0.00483680,-0.01486656,0.05860707,0.05086637,0.32299557,0.0
 0002924,0.00001140,-0.00001795,-0.00001224,-0.00001910,0.00004007,0.00
 010396,0.00003835,-0.00005176,0.00000919,-0.00005768,-0.00001122,-0.00
 073044,-0.00021407,-0.00015900,0.00000757,-0.00061301,0.00003400,0.000
 73498,0.00119827,0.00062025,0.00017109,-0.00058907,-0.00004076,-0.0019
 6584,0.00561142,-0.00076129,0.01304845,0.01740189,0.00269028,-0.089791
 03,-0.09089161,-0.01328671,-0.00292865,-0.02787664,-0.00295011,-0.0050
 3728,-0.00000412,-0.00158138,-0.00180641,0.00006086,-0.00015670,0.0000
 0268,-0.00000254,-0.00002026,0.00000677,-0.00001595,-0.00001599,-0.000
 00153,0.00000584,0.00000338,0.00000087,-0.00000442,0.00000525,0.000003
 48,-0.00000095,0.00001217,0.00004476,0.00001231,-0.00000546,0.00007365
 ,-0.00000827,0.00003250,0.08676575,-0.00002445,-0.00000721,0.00000942,
 0.00002092,0.00000676,-0.00002552,-0.00009092,0.00015189,-0.00002756,-
 0.00003619,0.00002957,0.00000643,0.00058240,0.00019513,0.00013368,-0.0
 0049089,0.00076301,0.00003370,-0.00115115,-0.00140742,-0.00009370,0.00
 001177,0.00029948,0.00005271,0.00364415,-0.00335987,-0.00045601,-0.011
 96900,-0.01437599,-0.00284436,-0.08982021,-0.31691729,-0.03307220,0.00
 162342,0.00075229,-0.00001955,-0.00033721,0.00201535,-0.00054862,0.001
 34768,0.00075870,0.00024815,-0.00000046,0.00000696,0.00001070,-0.00000
 263,0.00001170,0.00001148,-0.00000256,-0.00000817,0.00000151,-0.000003
 51,0.00000379,-0.00000506,0.00000047,0.00000325,-0.00000466,-0.0000427
 1,-0.00000127,0.00001828,-0.00003800,0.00001178,-0.00002657,0.09700275
 ,0.33059996,0.00000519,0.00000056,-0.00001972,-0.00008202,-0.00004241,
 -0.00002966,-0.00003952,-0.00011852,0.00062029,0.00008946,0.00000762,-
 0.00001385,-0.00005231,-0.00000092,-0.00013932,-0.00000753,-0.00002632
 ,-0.00026037,0.00019226,0.00031148,-0.00262309,0.00020215,-0.00011144,
 -0.00035115,-0.00095704,-0.00036252,0.00780510,0.00036693,0.00103501,0
 .00214341,-0.01317380,-0.03335118,-0.04251108,-0.00065724,-0.00353495,
 0.00293072,-0.00162627,-0.00046799,0.00798527,0.00004144,0.00011850,-0
 .00042026,-0.00000612,0.00001212,0.00001781,0.00000700,-0.00000348,-0.
 00000163,0.00000137,-0.00000249,0.00000944,-0.00000371,0.00000705,-0.0
 0000040,0.00000160,0.00000904,-0.00001935,0.00004186,0.00000405,0.0000
 0815,-0.00004192,0.00001107,-0.00001747,0.01487377,0.03609809,0.030636
 60,-0.00000380,-0.00000976,0.00000962,-0.00002949,-0.00001565,-0.00005
 996,0.00001730,0.00005592,0.00003264,-0.00004429,-0.00000591,-0.000012
 51,0.00003847,0.00001384,0.00002013,-0.00014189,-0.00012865,-0.0000328
 9,0.00042385,0.00143429,0.00016260,-0.00070235,0.00004759,-0.00004477,
 -0.00018691,-0.00074041,0.00037738,-0.00492652,-0.00283328,-0.00180668
 ,-0.01358193,0.02368222,-0.00033658,-0.19021289,0.14458909,-0.00614640
 ,0.01000184,-0.00897067,-0.00014313,0.00059257,-0.00246238,-0.00119523
 ,-0.00000928,0.00000939,0.00003828,-0.00001011,0.00000635,0.00000820,0
 .00000332,-0.00000636,-0.00001413,0.00000265,-0.00000109,-0.00000322,0
 .00000244,-0.00000163,0.00000456,-0.00002519,-0.00001002,0.00000158,-0
 .00002073,0.00000113,-0.00001186,0.00120536,-0.00023793,0.00061535,0.1
 9665414,0.00000001,0.00000203,-0.00000253,-0.00000398,0.00000283,0.000
 01029,-0.00005086,0.00000339,-0.00000056,0.00000681,0.00000024,0.00000
 113,-0.00003599,-0.00000026,-0.00001165,0.00008127,0.00000153,0.000010
 20,-0.00031399,0.00034569,-0.00000104,-0.00008384,0.00001222,0.0000044
 6,-0.00078086,-0.00002906,0.00021281,-0.00223013,0.00111542,-0.0008690
 9,-0.00662402,0.00901646,-0.00047853,0.14470297,-0.21611648,0.00306593
 ,0.02161408,-0.01469257,0.00101475,-0.00314738,-0.00448927,-0.00149553
 ,-0.00000025,-0.00000048,-0.00000455,0.00000395,-0.00000077,-0.0000026
 9,-0.00000144,0.00000078,0.00000556,-0.00000197,-0.00000001,0.00000064
 ,-0.00000005,-0.00000005,0.00000025,0.00000295,0.00000290,0.00000031,0
 .00000310,0.00000014,0.00000250,0.00024705,0.00057523,0.00041567,-0.15
 427120,0.22379051,-0.00000108,-0.00000143,-0.00000246,-0.00000242,-0.0
 0000908,-0.00000705,-0.00001438,-0.00000741,0.00001190,-0.00000304,0.0
 0000462,-0.00000407,-0.00000784,0.00000176,0.00003590,-0.00003374,-0.0
 0003239,0.00000286,0.00009588,0.00022685,-0.00013394,-0.00009360,0.000
 04552,-0.00010581,0.00035227,0.00020014,-0.00379694,-0.00183003,-0.000
 87760,0.00815917,-0.00266943,0.00319335,0.00490714,-0.00615165,0.00302
 305,-0.04143466,0.00237141,-0.00272023,0.00519334,-0.00127985,-0.00138
 845,0.00846759,-0.00000044,0.00000262,0.00000577,0.00000157,-0.0000001
 3,0.00000044,-0.00000308,-0.00000115,0.00000307,-0.00000097,0.00000142
 ,-0.00000147,-0.00000003,0.00000286,-0.00000140,-0.00000292,0.00000137
 ,-0.00000157,-0.00000167,-0.00000093,-0.00000480,0.00066145,0.00036208
 ,-0.00406774,0.00784691,-0.00243505,0.02743330,0.00000059,-0.00000283,
 0.00001184,-0.00000055,-0.00000524,-0.00002810,0.00007861,-0.00007177,
 0.00001296,-0.00001463,0.00000945,-0.00000501,0.00004322,-0.00001682,0
 .00000660,-0.00018556,-0.00005644,-0.00003615,0.00003777,-0.00000467,0
 .00025854,-0.00025813,0.00003141,-0.00005862,-0.00293720,0.00409486,-0
 .00096581,0.00119898,0.00131694,0.00030356,0.00174882,-0.00119107,-0.0
 0093445,-0.00266412,0.00179928,-0.00055539,-0.32806475,-0.06536157,-0.
 04082237,-0.01345010,-0.01114973,-0.00278282,-0.00000291,0.00000361,0.
 00001750,-0.00001243,0.00000284,0.00000735,0.00000769,-0.00000619,-0.0
 0001770,0.00000395,-0.00000108,-0.00000299,0.00000004,0.00000042,-0.00
 000032,-0.00001425,-0.00001333,0.00000022,-0.00001451,-0.00000370,-0.0
 0000829,-0.00013157,0.00022827,-0.00003754,0.00059543,-0.00015810,0.00
 060670,0.34353071,-0.00000411,-0.00000153,-0.00000316,-0.00000124,-0.0
 0000300,0.00000018,-0.00004656,0.00004988,0.00000751,-0.00000505,0.000
 00192,0.00000262,0.00007363,0.00003733,0.00001497,0.00002762,0.0001359
 0,0.00002081,0.00012164,-0.00007437,0.00015538,0.00005482,0.00007476,-
 0.00003146,0.00520933,-0.00266633,-0.00014381,-0.00000251,-0.00219541,
 -0.00016892,-0.00082316,-0.00509183,-0.00121216,-0.02891482,-0.0010946
 6,-0.00388956,-0.06553335,-0.07445411,-0.01098186,0.02110617,0.0121607
 7,0.00338467,-0.00000033,0.00000022,-0.00000040,0.00000217,0.00000129,
 0.00000060,-0.00000212,0.00000105,0.00000396,-0.00000040,0.00000086,0.
 00000066,0.00000006,-0.00000038,-0.00000081,0.00000241,0.00000523,0.00
 000299,-0.00000157,0.00000305,-0.00000019,-0.00129735,0.00000668,-0.00
 016869,0.00029380,0.00113024,0.00049556,0.07045830,0.07162855,0.000003
 61,-0.00000203,0.00000558,0.00000934,0.00002386,0.00000795,0.00000550,
 -0.00002172,-0.00008357,0.00001314,-0.00000545,-0.00000550,0.00000149,
 -0.00003220,0.00005414,-0.00008915,-0.00001185,0.00001571,0.00039628,0
 .00011125,-0.00207997,-0.00002978,0.00001559,0.00043258,-0.00074313,-0
 .00012520,0.00725632,0.00008642,-0.00006563,-0.00018768,-0.00086890,-0
 .00128954,0.00824261,-0.00310609,-0.00012565,0.00297234,-0.04067654,-0
 .01106819,-0.04395815,-0.00043710,-0.00049700,0.00215272,0.00000105,-0
 .00000354,-0.00000282,-0.00000008,-0.00000005,-0.00000070,-0.00000441,
 -0.00000121,-0.00000057,-0.00000145,0.00000164,-0.00000168,0.00000104,
 0.00000305,-0.00000352,-0.00001334,-0.00000575,-0.00000905,0.00000568,
 0.00000607,-0.00000248,-0.00017310,0.00000468,0.00028164,0.00064282,0.
 00044796,-0.00437869,0.04461906,0.01234838,0.03203672,-0.00001297,-0.0
 0000641,0.00000898,0.00000178,-0.00002674,-0.00004397,0.00002207,-0.00
 003540,-0.00000727,-0.00003558,0.00000002,-0.00001231,0.00005072,-0.00
 006433,0.00001528,-0.00054191,0.00003712,-0.00006510,0.00083897,-0.000
 88882,-0.00004914,-0.00021379,0.00024019,0.00000727,-0.01889877,-0.035
 98942,-0.00482374,-0.00312508,-0.00292608,-0.00196658,-0.00094683,-0.0
 0025859,-0.00004970,-0.00296840,0.00297120,-0.00097038,0.00917432,0.01
 939175,0.00194362,-0.05882928,-0.04114549,-0.00573102,-0.00000800,0.00
 001475,0.00002765,-0.00000105,0.00001197,0.00000570,0.00000539,-0.0000
 2303,0.00000093,-0.00001229,0.00000374,-0.00000951,0.00000050,0.000007
 98,-0.00000071,-0.00003112,-0.00000120,-0.00000495,-0.00002711,0.00000
 426,-0.00000509,0.00020010,-0.00021422,0.00025999,0.00036918,0.0010398
 1,0.00016186,0.00051031,-0.00071822,0.00035888,0.07448198,-0.00000385,
 -0.00000767,0.00001438,0.00000072,-0.00001538,-0.00005052,0.00008556,-
 0.00004548,-0.00000540,-0.00003413,-0.00000117,-0.00001250,0.00005492,
 -0.00001996,0.00002745,-0.00024384,-0.00008731,-0.00004513,0.00033400,
 0.00009696,0.00000936,-0.00033781,0.00001069,0.00000550,-0.01179470,-0
 .00210930,-0.00125551,0.00106798,0.00248258,-0.00070574,0.00027052,0.0
 0031649,0.00011798,0.00364425,-0.00098658,-0.00021768,-0.00765665,-0.0
 1163462,-0.00247069,-0.04358614,-0.32682201,-0.02968370,-0.00000563,0.
 00000841,0.00002986,-0.00001519,0.00000534,0.00001013,0.00000922,-0.00
 000858,-0.00002534,0.00000578,-0.00000053,-0.00000334,0.00000022,-0.00
 000022,0.00000167,-0.00001796,-0.00001449,-0.00000138,-0.00001355,-0.0
 0000262,-0.00000944,0.00002408,-0.00012262,0.00016415,-0.00043993,-0.0
 0066961,-0.00008744,0.00009416,0.00034281,0.00029084,0.05856719,0.3392
 8089,0.00000119,-0.00000598,0.00000006,-0.00001687,-0.00000831,-0.0000
 1043,0.00000461,0.00001770,0.00007833,-0.00000632,0.00000195,-0.000001
 96,0.00004380,0.00000040,-0.00005393,-0.00007966,0.00000882,-0.0001073
 7,0.00016331,-0.00017170,0.00041778,0.00001242,0.00000463,0.00005500,-
 0.00269102,-0.00405567,-0.00453206,-0.00174101,-0.00125070,0.01126910,
 -0.00012063,0.00009459,-0.00062877,-0.00083480,-0.00017103,0.00661430,
 -0.00025007,0.00091551,0.00647624,-0.00613334,-0.02969610,-0.04570812,
 -0.00000090,0.00000010,0.00000635,0.00000267,0.00000168,0.00000071,-0.
 00000451,0.00000290,0.00000570,-0.00000308,0.00000152,-0.00000235,0.00
 000075,0.00000266,-0.00000203,0.00000461,-0.00000626,0.00000218,-0.000
 02171,0.00000819,-0.00000058,0.00026389,0.00013092,-0.00195720,0.00004
 964,0.00010795,-0.00027842,0.00041139,0.00016210,-0.00274276,0.0109489
 3,0.03390384,0.03110223,0.00161515,0.00136458,0.00051826,-0.01161872,0
 .02235703,-0.02169409,0.00136325,0.00124119,-0.00231096,-0.00014049,-0
 .00043799,0.00112141,-0.00009660,-0.00003922,-0.00003585,0.00009278,-0
 .00020375,0.00005591,0.00021497,0.00012464,0.00005330,0.00038005,-0.00
 048833,0.00044909,0.00000431,-0.00000570,0.00001097,0.00002757,-0.0000
 3308,-0.00006991,0.00000908,0.00000474,0.00000806,0.00000595,-0.000004
 71,0.00000765,0.00000027,-0.00000442,-0.00000094,-0.00000342,0.0000028
 3,0.00000144,-0.07249119,0.05871623,-0.05698466,0.00000192,-0.00018011
 ,0.00001651,0.00012499,0.00002438,0.00040600,0.00003299,-0.00086407,0.
 00019958,-0.00611741,-0.00133857,-0.00107676,0.00001428,-0.00019220,-0
 .00010145,-0.00003827,0.00004786,0.00008061,0.00000108,-0.00000163,-0.
 00000678,0.00000171,0.00000013,-0.00000114,0.00000059,-0.00000011,-0.0
 0000150,-0.00000161,0.00000051,-0.00000122,0.08080150,-0.00018698,0.00
 130715,-0.00091373,-0.00183254,0.00325560,-0.00414837,-0.00032675,-0.0
 0001056,0.00022862,0.00045496,0.00012815,-0.00036251,-0.00017645,-0.00
 042289,0.00038015,0.00029106,0.00018487,-0.00012759,-0.00011068,-0.000
 25762,-0.00006320,-0.00007345,0.00021996,-0.00027773,0.00001530,0.0000
 0168,-0.00000827,-0.00001580,0.00002096,0.00005096,0.00000507,-0.00000
 265,-0.00000242,-0.00000373,-0.00000001,-0.00000727,0.00000046,0.00000
 389,0.00000096,0.00000011,-0.00000358,-0.00000272,0.05951107,-0.171819
 52,0.12242673,0.00008353,0.00000194,-0.00002181,0.00008445,0.00007006,
 0.00000750,0.00001265,0.00021455,0.00045693,-0.00128466,0.00080831,-0.
 00055071,0.00001432,0.00025503,-0.00003947,0.00008348,-0.00002032,-0.0
 0009660,-0.00000584,0.00000210,0.00000472,0.00000051,-0.00000103,0.000
 00131,0.00000153,0.00000019,0.00000220,0.00000006,0.00000175,0.0000014
 7,-0.06394474,0.18053552,0.00060183,0.00058715,0.00037522,-0.00229374,
 0.00480220,-0.00597162,0.00105874,-0.00103013,0.00095904,-0.00038200,0
 .00021777,0.00038936,0.00009465,-0.00011685,0.00006071,0.00014763,0.00
 010200,-0.00000522,0.00008005,-0.00016079,-0.00013920,0.00000036,-0.00
 005651,0.00007161,-0.00003352,-0.00002586,0.00000306,0.00005812,0.0000
 1238,-0.00000942,-0.00002753,-0.00000123,0.00000033,0.00001108,-0.0000
 0011,0.00000545,-0.00001403,-0.00001311,-0.00000314,0.00000458,0.00002
 696,0.00000064,-0.05739904,0.12213183,-0.16489891,-0.00004398,0.000066
 53,-0.00020907,0.00016095,-0.00023641,0.00017068,-0.00031287,-0.000514
 72,0.00004840,-0.00163995,-0.00068589,0.00073781,-0.00011898,0.0000668
 8,-0.00003179,0.00000555,0.00000661,0.00000319,0.00000603,-0.00000454,
 -0.00000355,-0.00000286,0.00000111,-0.00000125,-0.00000299,0.,-0.00000
 100,-0.00000444,-0.00000422,-0.00000134,0.06486560,-0.13274205,0.17419
 644,-0.00662432,0.00048134,-0.00102043,-0.00077957,-0.02934757,-0.0108
 4863,0.00111272,-0.00089763,-0.00055600,-0.00002109,0.00009084,0.00011
 294,-0.00146363,-0.00035205,0.00096279,0.00081263,0.00059824,-0.000008
 78,-0.00012030,-0.00067145,-0.00025502,0.00025126,0.00040071,0.0000634
 2,0.00004462,0.00004617,0.00003222,-0.00005193,0.00000099,0.00004552,0
 .00004421,0.00000620,0.00000336,-0.00001957,-0.00000628,-0.00000428,0.
 00001566,0.00003138,0.00000291,0.00002701,-0.00003218,-0.00000361,-0.0
 5118614,-0.03190141,-0.01361193,0.00010027,0.00019759,-0.00015344,-0.0
 0018242,-0.00186300,-0.00079364,-0.00001422,-0.00000730,0.00018850,0.0
 0110069,0.00055197,-0.00004626,-0.00048154,0.00089312,-0.00022271,0.00
 005747,0.00023085,-0.00004017,-0.00001993,0.00001211,-0.00000231,0.000
 00579,-0.00000113,0.00000056,0.00000488,0.00000117,-0.00000052,0.00001
 179,0.00000711,0.00000021,0.00022536,0.00883373,0.00488397,0.05516392,
 -0.00208384,0.00119390,-0.00060497,0.00031651,-0.00344165,-0.00022473,
 0.00055704,-0.00032902,-0.00091334,-0.00005170,-0.00009370,0.00013542,
 0.00016523,0.00003467,0.00020241,0.00072708,0.00077086,-0.00005089,0.0
 0001044,-0.00082662,-0.00012369,-0.00025184,0.00038904,0.00034002,-0.0
 0001003,0.00001328,0.00002387,0.00003609,0.00003169,0.00001593,-0.0000
 0477,0.00000106,-0.00000110,-0.00000513,-0.00000358,0.00000272,-0.0000
 0574,0.00001384,-0.00000044,0.00002668,0.00000102,-0.00000403,-0.03251
 859,-0.27213888,-0.09534048,0.00017733,0.00011754,0.00018618,0.0001358
 5,-0.00041270,-0.00027620,0.00024084,0.00032401,0.00005902,-0.00041721
 ,0.00056949,0.00002699,0.00027136,0.00017021,-0.00015059,-0.00013719,0
 .00000477,0.00022944,-0.00000915,0.00000502,-0.00000474,-0.00000072,0.
 00000063,-0.00000082,0.00000015,0.00000053,-0.00000053,0.00000793,0.00
 000086,-0.00000149,-0.00306755,-0.01637301,-0.00957435,0.03618705,0.29
 108523,-0.00182543,0.00004434,0.00005009,0.00055512,-0.00549377,-0.004
 10071,0.00037730,0.00035714,0.00028413,-0.00013844,0.00016260,-0.00000
 822,0.00016725,-0.00047483,0.00044395,0.00035632,0.00042553,-0.0001107
 7,-0.00004396,-0.00045209,-0.00012126,-0.00026194,0.00027572,-0.000056
 58,-0.00002935,-0.00000373,0.00000606,0.00004764,0.00001119,0.00005374
 ,-0.00002139,-0.00000229,-0.00000619,0.00000293,0.00000008,-0.00000146
 ,-0.00001246,0.00000077,-0.00000218,0.00001603,0.00001215,-0.00000099,
 -0.01386771,-0.09525557,-0.08632802,-0.00008878,0.00042066,0.00040156,
 -0.00013373,-0.00066989,0.00032186,-0.00012575,-0.00038895,0.00005622,
 0.00016434,-0.00023216,-0.00006207,0.00005784,0.00019482,0.00006660,0.
 00016163,0.00003812,-0.00009885,-0.00000196,0.00000007,0.00000322,-0.0
 0000363,0.00000073,0.00000042,-0.00000174,0.00000024,0.,0.00000205,-0.
 00000207,-0.00000068,0.00350481,0.01927511,0.00891190,0.01593020,0.105
 16090,0.08876869,0.00120416,0.00133752,0.00120704,-0.01710931,0.002310
 51,0.02690684,-0.00500843,-0.00183040,-0.00373908,0.00020484,-0.000203
 39,-0.00017933,-0.00019014,-0.00043793,-0.00011671,0.00038971,0.000565
 41,0.00021315,-0.00049749,-0.00111974,-0.00019365,-0.00132469,0.000926
 70,0.00187140,-0.00013123,-0.00009158,-0.00002035,0.00027784,0.0002038
 2,-0.00017548,-0.00016137,-0.00002881,-0.00001410,0.00003062,0.0000160
 3,0.00002712,-0.00006674,-0.00004712,-0.00001442,0.00001058,0.00009331
 ,0.00000680,-0.12974801,0.01108893,0.12762196,0.00026396,-0.00075143,-
 0.00074281,0.00023233,0.00027953,-0.00026445,0.00004653,0.00000481,-0.
 00010539,0.00098976,0.00056106,-0.00004030,0.00012560,0.00008069,-0.00
 007822,0.00001333,0.00010525,0.00007180,0.00001595,-0.00001026,-0.0000
 0425,-0.00001869,0.00000307,-0.00000129,-0.00001088,-0.00000018,0.0000
 0078,-0.00001332,-0.00001685,-0.00000227,0.00558993,-0.00143068,-0.009
 70321,0.00198636,-0.00029608,-0.00478719,0.14289879,-0.00055663,0.0003
 8694,0.00126550,-0.00225867,-0.00124219,0.00469447,-0.00072052,-0.0003
 1491,-0.00027073,0.00002477,0.00004194,-0.00034588,-0.00017170,0.00007
 793,0.00017741,0.00026234,0.00031927,-0.00005535,-0.00012363,-0.000293
 89,-0.00006198,-0.00042591,0.00049542,0.00004407,0.00001205,-0.0000048
 1,-0.00000454,0.00000452,0.00004281,0.00004868,0.00000057,-0.00000110,
 0.00000061,-0.00000510,-0.00000193,-0.00000004,0.00000079,0.00000431,0
 .00000154,0.00000359,0.00000004,-0.00000267,0.01167756,-0.04661311,-0.
 01700294,-0.00010025,-0.00005681,-0.00043443,0.00018846,-0.00002185,-0
 .00004709,-0.00004669,-0.00001861,0.00001180,0.00032594,0.00019805,-0.
 00039870,-0.00019285,0.00027887,-0.00013991,-0.00001630,-0.00001769,0.
 00009596,-0.00000444,0.00000117,-0.00000346,0.00000146,-0.00000063,-0.
 00000040,0.00000135,0.00000038,0.00000003,-0.00000002,0.00000134,0.000
 00030,-0.01307794,0.00189948,0.01714534,0.01650944,-0.00110850,-0.0234
 0484,-0.01131218,0.04594808,-0.00059140,0.00022353,0.00062347,-0.00623
 256,0.00019652,0.00676105,-0.00121526,-0.00043197,0.00017738,-0.000143
 74,-0.00022358,0.00039191,-0.00025193,0.00007612,-0.00001353,0.0003457
 3,0.00011062,0.00006999,-0.00015917,-0.00013546,-0.00006837,-0.0003543
 5,-0.00014855,0.00055432,0.00003323,0.00000277,0.00000284,-0.00001100,
 0.00001588,-0.00007217,0.00002123,0.00001086,0.00001081,-0.00000677,-0
 .00000391,0.00000879,0.00000514,0.00000976,0.00000137,-0.00000099,-0.0
 0002002,-0.00000132,0.12930942,-0.01632220,-0.23705316,0.00022834,0.00
 027404,0.00018789,-0.00005830,0.00015365,0.00020826,0.00002717,-0.0000
 7645,-0.00008780,0.00049123,0.00007179,0.00075592,-0.00000571,0.000081
 00,-0.00007443,-0.00001528,0.00002034,0.00006303,-0.00000938,0.0000064
 4,-0.00000581,0.00000414,-0.00000101,-0.00000061,0.00000458,0.00000038
 ,-0.00000018,0.00000275,0.00000494,0.,0.01098610,-0.00347221,-0.014658
 32,0.00534115,0.00088949,-0.00847047,-0.13774437,0.01868725,0.25068915
 \\0.00371141,-0.00174524,0.00226832,-0.00111131,-0.00017019,-0.0029178
 6,0.01655731,-0.00693515,0.00295480,-0.00388135,-0.00175936,-0.0013463
 3,0.00279199,-0.00426418,-0.00035350,-0.01116631,-0.01893780,-0.006044
 50,-0.01075504,0.03160517,0.00406418,-0.00307209,0.00287334,0.00296689
 ,0.00613309,0.00159622,0.00150623,0.00431057,0.01292487,0.00154093,0.0
 0248193,-0.00280502,-0.00023441,-0.00136655,-0.00059429,-0.00028768,0.
 00661673,0.00332133,0.00087304,-0.01324826,-0.01122809,-0.00206207,-0.
 00030628,-0.00015616,0.00181086,-0.00140092,0.00119338,-0.00069787,-0.
 00004753,-0.00121199,-0.00243132,-0.00202723,0.00059327,-0.00021614,0.
 00011034,0.00086318,-0.00043389,-0.00062309,-0.00118412,-0.00031337,-0
 .00080846,-0.00044556,-0.00046608,0.00060190,-0.00077677,-0.00000140,0
 .00038485,0.00010828,0.00010463,0.00143380,-0.00119684,0.00012661,0.00
 564802,-0.00207102,-0.00006346,-0.00042374,0.00008437,-0.00036236,0.00
 029884,0.00024901,-0.00006466,-0.00084262,0.00006934,0.00008042\\\@

 Writing a WFNX file to "24_lig_b.wfx"


 AN AIRPLANE IS A COLLECTION OF SPARE PARTS
 FLYING IN CLOSE FORMATION.
 Job cpu time:       0 days  0 hours 55 minutes 19.2 seconds.
 Elapsed time:       0 days  0 hours  6 minutes 55.7 seconds.
 File lengths (MBytes):  RWF=    224 Int=      0 D2E=      0 Chk=      6 Scr=      1
 Normal termination of Gaussian 16 at Thu Nov  3 08:11:23 2022.
