 Entering Gaussian System, Link 0=g16
 Initial command:
 /software/gaussian/G16-A.03/avx/g16/l1.exe "/scratch/lcmd/1361355.slurm/Gau-90811.inp" -scrdir="/scratch/lcmd/1361355.slurm/"
 Entering Link 1 = /software/gaussian/G16-A.03/avx/g16/l1.exe PID=     90813.
  
 Copyright (c) 1988,1990,1992,1993,1995,1998,2003,2009,2016,
            Gaussian, Inc.  All Rights Reserved.
  
 This is part of the Gaussian(R) 16 program.  It is based on
 the Gaussian(R) 09 system (copyright 2009, Gaussian, Inc.),
 the Gaussian(R) 03 system (copyright 2003, Gaussian, Inc.),
 the Gaussian(R) 98 system (copyright 1998, Gaussian, Inc.),
 the Gaussian(R) 94 system (copyright 1995, Gaussian, Inc.),
 the Gaussian 92(TM) system (copyright 1992, Gaussian, Inc.),
 the Gaussian 90(TM) system (copyright 1990, Gaussian, Inc.),
 the Gaussian 88(TM) system (copyright 1988, Gaussian, Inc.),
 the Gaussian 86(TM) system (copyright 1986, Carnegie Mellon
 University), and the Gaussian 82(TM) system (copyright 1983,
 Carnegie Mellon University). Gaussian is a federally registered
 trademark of Gaussian, Inc.
  
 This software contains proprietary and confidential information,
 including trade secrets, belonging to Gaussian, Inc.
  
 This software is provided under written license and may be
 used, copied, transmitted, or stored only in accord with that
 written license.
  
 The following legend is applicable only to US Government
 contracts under FAR:
  
                    RESTRICTED RIGHTS LEGEND
  
 Use, reproduction and disclosure by the US Government is
 subject to restrictions as set forth in subparagraphs (a)
 and (c) of the Commercial Computer Software - Restricted
 Rights clause in FAR 52.227-19.
  
 Gaussian, Inc.
 340 Quinnipiac St., Bldg. 40, Wallingford CT 06492
  
  
 ---------------------------------------------------------------
 Warning -- This program may not be used in any manner that
 competes with the business of Gaussian, Inc. or will provide
 assistance to any competitor of Gaussian, Inc.  The licensee
 of this program is prohibited from giving any competitor of
 Gaussian, Inc. access to this program.  By using this program,
 the user acknowledges that Gaussian, Inc. is engaged in the
 business of creating and licensing software in the field of
 computational chemistry and represents and warrants to the
 licensee that it is not a competitor of Gaussian, Inc. and that
 it will not use this program in any manner prohibited above.
 ---------------------------------------------------------------
  

 Cite this work as:
 Gaussian 16, Revision A.03,
 M. J. Frisch, G. W. Trucks, H. B. Schlegel, G. E. Scuseria, 
 M. A. Robb, J. R. Cheeseman, G. Scalmani, V. Barone, 
 G. A. Petersson, H. Nakatsuji, X. Li, M. Caricato, A. V. Marenich, 
 J. Bloino, B. G. Janesko, R. Gomperts, B. Mennucci, H. P. Hratchian, 
 J. V. Ortiz, A. F. Izmaylov, J. L. Sonnenberg, D. Williams-Young, 
 F. Ding, F. Lipparini, F. Egidi, J. Goings, B. Peng, A. Petrone, 
 T. Henderson, D. Ranasinghe, V. G. Zakrzewski, J. Gao, N. Rega, 
 G. Zheng, W. Liang, M. Hada, M. Ehara, K. Toyota, R. Fukuda, 
 J. Hasegawa, M. Ishida, T. Nakajima, Y. Honda, O. Kitao, H. Nakai, 
 T. Vreven, K. Throssell, J. A. Montgomery, Jr., J. E. Peralta, 
 F. Ogliaro, M. J. Bearpark, J. J. Heyd, E. N. Brothers, K. N. Kudin, 
 V. N. Staroverov, T. A. Keith, R. Kobayashi, J. Normand, 
 K. Raghavachari, A. P. Rendell, J. C. Burant, S. S. Iyengar, 
 J. Tomasi, M. Cossi, J. M. Millam, M. Klene, C. Adamo, R. Cammi, 
 J. W. Ochterski, R. L. Martin, K. Morokuma, O. Farkas, 
 J. B. Foresman, and D. J. Fox, Gaussian, Inc., Wallingford CT, 2016.
 
 ******************************************
 Gaussian 16:  ES64L-G16RevA.03 25-Dec-2016
                 3-Nov-2022 
 ******************************************
 %nprocs=8
 Will use up to    8 processors via shared memory.
 %mem=32000MB
 %chk=25_lig_b.chk
 ----------------------------------------------------------------------
 #p pop=(regular,nbo,savenbos) freq=noraman def2svp empiricaldispersion
 =gd3bj output=wfx pbe1pbe
 ----------------------------------------------------------------------
 1/10=4,30=1,38=1/1,3;
 2/12=2,17=6,18=5,40=1/2;
 3/5=43,7=101,11=2,25=1,30=1,71=2,74=-13,124=41,140=1/1,2,3;
 4//1;
 5/5=2,38=5,98=1/2;
 8/6=4,10=90,11=11/1;
 11/6=1,8=1,9=11,15=111,16=1/1,2,10;
 10/6=1/2;
 6/28=1,40=1,73=1/1,7;
 7/8=1,10=1,25=1/1,2,3,16;
 1/10=4,30=1/3;
 99/6=200/99;
 Leave Link    1 at Thu Nov  3 08:04:22 2022, MaxMem=  4194304000 cpu:               0.6 elap:               0.1
 (Enter /software/gaussian/G16-A.03/avx/g16/l101.exe)
 --------
 25_lig_b
 --------
 Symbolic Z-matrix:
 Charge =  0 Multiplicity = 1
 C                    -4.61475  -0.80473   0.82377 
 C                    -4.12853  -2.0963    0.65021 
 C                    -2.84465  -2.26923   0.13688 
 C                    -2.11546  -1.12551  -0.17988 
 N                    -2.58659   0.11623  -0.03346 
 C                    -3.80156   0.2748    0.46695 
 N                    -0.00924  -0.14687  -0.80788 
 C                    -0.73838  -1.18735  -0.68803 
 O                    -0.20488  -2.34692  -1.0509 
 C                     1.16329  -2.07999  -1.45257 
 C                     1.28323  -0.53198  -1.34989 
 H                     1.42943  -0.0073   -2.30743 
 C                     2.40004  -0.29452  -0.37487 
 C                     2.88347  -1.50011   0.13389 
 C                     3.89893  -1.4898    1.0879 
 C                     4.40273  -0.26362   1.52231 
 C                     3.90419   0.93895   1.01316 
 C                     2.89317   0.93412   0.05432 
 C                     2.17965  -2.68579  -0.47413 
 H                    -5.61184  -0.62646   1.23065 
 H                    -4.73806  -2.96203   0.91812 
 H                    -2.40611  -3.25715  -0.00991 
 H                    -4.14574   1.30536   0.59547 
 H                     4.29273  -2.42394   1.49632 
 H                     5.19504  -0.24293   2.27437 
 H                     4.30624   1.88858   1.3726 
 H                     2.48442   1.86429  -0.35098 
 H                     1.65495  -3.29299   0.28073 
 H                     2.88001  -3.35919  -0.99307 
 H                     1.26584  -2.46892  -2.47349 
 
 ITRead=  0  0  0  0  0  0  0  0  0  0  0  0  0  0  0  0  0  0  0  0
 ITRead=  0  0  0  0  0  0  0  0  0  0
 MicOpt= -1 -1 -1 -1 -1 -1 -1 -1 -1 -1 -1 -1 -1 -1 -1 -1 -1 -1 -1 -1
 MicOpt= -1 -1 -1 -1 -1 -1 -1 -1 -1 -1
 NAtoms=     30 NQM=       30 NQMF=       0 NMMI=      0 NMMIF=      0
                NMic=       0 NMicF=      0.
                    Isotopes and Nuclear Properties:
 (Nuclear quadrupole moments (NQMom) in fm**2, nuclear magnetic moments (NMagM)
  in nuclear magnetons)

  Atom         1           2           3           4           5           6           7           8           9          10
 IAtWgt=          12          12          12          12          14          12          14          12          16          12
 AtmWgt=  12.0000000  12.0000000  12.0000000  12.0000000  14.0030740  12.0000000  14.0030740  12.0000000  15.9949146  12.0000000
 NucSpn=           0           0           0           0           2           0           2           0           0           0
 AtZEff=  -0.0000000  -0.0000000  -0.0000000  -0.0000000  -0.0000000  -0.0000000  -0.0000000  -0.0000000  -0.0000000  -0.0000000
 NQMom=    0.0000000   0.0000000   0.0000000   0.0000000   2.0440000   0.0000000   2.0440000   0.0000000   0.0000000   0.0000000
 NMagM=    0.0000000   0.0000000   0.0000000   0.0000000   0.4037610   0.0000000   0.4037610   0.0000000   0.0000000   0.0000000
 AtZNuc=   6.0000000   6.0000000   6.0000000   6.0000000   7.0000000   6.0000000   7.0000000   6.0000000   8.0000000   6.0000000

  Atom        11          12          13          14          15          16          17          18          19          20
 IAtWgt=          12           1          12          12          12          12          12          12          12           1
 AtmWgt=  12.0000000   1.0078250  12.0000000  12.0000000  12.0000000  12.0000000  12.0000000  12.0000000  12.0000000   1.0078250
 NucSpn=           0           1           0           0           0           0           0           0           0           1
 AtZEff=  -0.0000000  -0.0000000  -0.0000000  -0.0000000  -0.0000000  -0.0000000  -0.0000000  -0.0000000  -0.0000000  -0.0000000
 NQMom=    0.0000000   0.0000000   0.0000000   0.0000000   0.0000000   0.0000000   0.0000000   0.0000000   0.0000000   0.0000000
 NMagM=    0.0000000   2.7928460   0.0000000   0.0000000   0.0000000   0.0000000   0.0000000   0.0000000   0.0000000   2.7928460
 AtZNuc=   6.0000000   1.0000000   6.0000000   6.0000000   6.0000000   6.0000000   6.0000000   6.0000000   6.0000000   1.0000000

  Atom        21          22          23          24          25          26          27          28          29          30
 IAtWgt=           1           1           1           1           1           1           1           1           1           1
 AtmWgt=   1.0078250   1.0078250   1.0078250   1.0078250   1.0078250   1.0078250   1.0078250   1.0078250   1.0078250   1.0078250
 NucSpn=           1           1           1           1           1           1           1           1           1           1
 AtZEff=  -0.0000000  -0.0000000  -0.0000000  -0.0000000  -0.0000000  -0.0000000  -0.0000000  -0.0000000  -0.0000000  -0.0000000
 NQMom=    0.0000000   0.0000000   0.0000000   0.0000000   0.0000000   0.0000000   0.0000000   0.0000000   0.0000000   0.0000000
 NMagM=    2.7928460   2.7928460   2.7928460   2.7928460   2.7928460   2.7928460   2.7928460   2.7928460   2.7928460   2.7928460
 AtZNuc=   1.0000000   1.0000000   1.0000000   1.0000000   1.0000000   1.0000000   1.0000000   1.0000000   1.0000000   1.0000000
 Leave Link  101 at Thu Nov  3 08:04:22 2022, MaxMem=  4194304000 cpu:               1.1 elap:               0.2
 (Enter /software/gaussian/G16-A.03/avx/g16/l103.exe)

 GradGradGradGradGradGradGradGradGradGradGradGradGradGradGradGradGradGrad
 Berny optimization.
 Initialization pass.
 Trust Radius=3.00D-01 FncErr=1.00D-07 GrdErr=1.00D-07 EigMax=2.50D+02 EigMin=1.00D-04
 Number of steps in this run=      2 maximum allowed number of steps=      2.
 GradGradGradGradGradGradGradGradGradGradGradGradGradGradGradGradGradGrad

 Leave Link  103 at Thu Nov  3 08:04:22 2022, MaxMem=  4194304000 cpu:               0.5 elap:               0.1
 (Enter /software/gaussian/G16-A.03/avx/g16/l202.exe)
                          Input orientation:                          
 ---------------------------------------------------------------------
 Center     Atomic      Atomic             Coordinates (Angstroms)
 Number     Number       Type             X           Y           Z
 ---------------------------------------------------------------------
      1          6           0       -4.614750   -0.804730    0.823770
      2          6           0       -4.128530   -2.096300    0.650210
      3          6           0       -2.844650   -2.269230    0.136880
      4          6           0       -2.115460   -1.125510   -0.179880
      5          7           0       -2.586590    0.116230   -0.033460
      6          6           0       -3.801560    0.274800    0.466950
      7          7           0       -0.009240   -0.146870   -0.807880
      8          6           0       -0.738380   -1.187350   -0.688030
      9          8           0       -0.204880   -2.346920   -1.050900
     10          6           0        1.163290   -2.079990   -1.452570
     11          6           0        1.283230   -0.531980   -1.349890
     12          1           0        1.429430   -0.007300   -2.307430
     13          6           0        2.400040   -0.294520   -0.374870
     14          6           0        2.883470   -1.500110    0.133890
     15          6           0        3.898930   -1.489800    1.087900
     16          6           0        4.402730   -0.263620    1.522310
     17          6           0        3.904190    0.938950    1.013160
     18          6           0        2.893170    0.934120    0.054320
     19          6           0        2.179650   -2.685790   -0.474130
     20          1           0       -5.611840   -0.626460    1.230650
     21          1           0       -4.738060   -2.962030    0.918120
     22          1           0       -2.406110   -3.257150   -0.009910
     23          1           0       -4.145740    1.305360    0.595470
     24          1           0        4.292730   -2.423940    1.496320
     25          1           0        5.195040   -0.242930    2.274370
     26          1           0        4.306240    1.888580    1.372600
     27          1           0        2.484420    1.864290   -0.350980
     28          1           0        1.654950   -3.292990    0.280730
     29          1           0        2.880010   -3.359190   -0.993070
     30          1           0        1.265840   -2.468920   -2.473490
 ---------------------------------------------------------------------
                    Distance matrix (angstroms):
                    1          2          3          4          5
     1  C    0.000000
     2  C    1.390930   0.000000
     3  C    2.397881   1.393471   0.000000
     4  C    2.712317   2.384100   1.392893   0.000000
     5  N    2.386722   2.782135   2.405417   1.336159   0.000000
     6  C    1.397850   2.400543   2.738012   2.285211   1.323521
     7  N    4.930090   4.784857   3.665588   2.405885   2.704012
     8  C    4.178299   3.756354   2.507452   1.469146   2.354498
     9  O    5.033854   4.283878   2.895728   2.429163   3.574190
    10  C    6.339855   5.694322   4.315756   3.644307   4.571527
    11  C    6.291690   5.977846   4.718889   3.643116   4.138680
    12  H    6.853643   6.633436   5.418370   4.282885   4.616775
    13  C    7.134727   6.849776   5.627445   4.595466   5.015153
    14  C    7.561930   7.056215   5.779525   5.022756   5.706323
    15  C    8.545281   8.062229   6.854766   6.157342   6.774862
    16  C    9.060668   8.769360   7.646333   6.791694   7.170446
    17  C    8.697622   8.594712   7.523771   6.474683   6.625897
    18  C    7.744967   7.670906   6.571974   5.420636   5.541157
    19  C    7.168459   6.434654   5.078429   4.579195   5.546400
    20  H    1.091568   2.167383   3.398877   3.803067   3.361800
    21  H    2.162880   1.092150   2.162246   3.384736   3.874276
    22  H    3.404038   2.179464   1.090803   2.158068   3.378287
    23  H    2.173608   3.402144   3.831558   3.260726   2.059255
    24  H    9.078401   8.469998   7.267338   6.749849   7.491177
    25  H    9.932363   9.643746   8.562206   7.761810   8.124582
    26  H    9.334838   9.356627   8.363589   7.261760   7.254608
    27  H    7.674759   7.773015   6.761877   5.488814   5.373237
    28  H    6.767235   5.917535   4.616836   4.373342   5.450886
    29  H    8.123891   7.308549   5.936037   5.532208   6.548520
    30  H    6.944263   6.244644   4.873401   4.300998   5.241943
                    6          7          8          9         10
     6  C    0.000000
     7  N    4.023020   0.000000
     8  C    3.585378   1.276169   0.000000
     9  O    4.702488   2.222061   1.326989   0.000000
    10  C    5.820595   2.351043   2.235548   1.450682   0.000000
    11  C    5.459569   1.453466   2.225865   2.365983   1.556041
    12  H    5.927902   2.082763   2.952012   3.118278   2.257800
    13  C    6.284316   2.452331   3.277941   3.384519   2.424642
    14  C    6.924656   3.329559   3.727086   3.414487   2.410837
    15  C    7.924452   4.546563   4.974942   4.706419   3.779688
    16  C    8.289394   4.990881   5.671851   5.673766   4.758475
    17  C    7.753581   4.450857   5.382254   5.651703   4.765119
    18  C    6.739761   3.214951   4.270817   4.645928   3.787883
    19  C    6.739851   3.368790   3.287244   2.476586   1.535359
    20  H    2.161625   5.981199   5.267499   6.115609   7.430667
    21  H    3.399655   5.767663   4.661185   4.980474   6.420599
    22  H    3.827447   4.006942   2.743217   2.599537   4.025865
    23  H    1.094089   4.603151   4.412604   5.619614   6.621243
    24  H    8.594203   5.385288   5.622509   5.169406   4.313658
    25  H    9.190953   6.049299   6.698747   6.681566   5.789636
    26  H    8.316304   5.246038   6.257454   6.645526   5.797350
    27  H    6.535215   3.236026   4.451129   5.045445   4.303049
    28  H    6.522063   3.721918   3.331703   2.475329   2.171964
    29  H    7.744735   4.324472   4.231156   3.247242   2.189662
    30  H    6.469369   3.129217   2.974422   2.049796   1.097297
                   11         12         13         14         15
    11  C    0.000000
    12  H    1.101611   0.000000
    13  C    1.501438   2.181597   0.000000
    14  C    2.387393   3.209791   1.394987   0.000000
    15  C    3.701638   4.452471   2.411444   1.393341   0.000000
    16  C    4.248862   4.855216   2.758807   2.400993   1.395007
    17  C    3.823228   4.248075   2.389674   2.786395   2.429905
    18  C    2.590977   2.933713   1.391739   2.435549   2.820502
    19  C    2.491871   3.331385   2.403455   1.506947   2.612710
    20  H    7.362751   7.904483   8.177903   8.610252   9.550941
    21  H    6.877859   7.561252   7.729159   7.799997   8.763212
    22  H    4.778423   5.527340   5.657689   5.575619   6.639446
    23  H    6.052599   6.421248   6.807967   7.582448   8.530658
    24  H    4.553846   5.339209   3.408527   2.166954   1.092933
    25  H    5.340512   5.935338   3.851384   3.391978   2.154599
    26  H    4.733883   5.041133   3.384254   3.878388   3.414734
    27  H    2.860557   2.905779   2.160591   3.422503   3.914222
    28  H    3.228045   4.188698   3.158448   2.178358   2.989726
    29  H    3.266519   3.881609   3.163028   2.173989   2.977122
    30  H    2.239311   2.472632   3.227790   3.217724   4.536005
                   16         17         18         19         20
    16  C    0.000000
    17  C    1.397838   0.000000
    18  C    2.422467   1.393398   0.000000
    19  C    3.846396   4.280749   3.727213   0.000000
    20  H   10.025384   9.646379   8.726646   8.237380   0.000000
    21  H    9.549895   9.482361   8.611725   7.061826   2.513176
    22  H    7.594025   7.646817   6.756718   4.644475   4.328536
    23  H    8.740542   8.069083   7.069435   7.555388   2.506957
    24  H    2.163275   3.419567   3.913400   2.901094  10.069857
    25  H    1.092601   2.157263   3.407737   4.755459  10.863936
    26  H    2.159557   1.092080   2.155371   5.371932  10.232980
    27  H    3.423029   2.175518   1.093874   4.561938   8.617123
    28  H    4.274213   4.848180   4.410545   1.101733   7.798652
    29  H    4.269469   4.852619   4.419243   1.101486   9.193708
    30  H    5.538036   5.543573   4.540783   2.208964   8.026070
                   21         22         23         24         25
    21  H    0.000000
    22  H    2.527118   0.000000
    23  H    4.320366   4.920294   0.000000
    24  H    9.065265   6.916460   9.269681   0.000000
    25  H   10.387463   8.490049   9.615928   2.485222   0.000000
    26  H   10.272990   8.570036   8.507646   4.314315   2.479211
    27  H    8.778849   7.089623   6.720654   5.007137   4.322071
    28  H    6.433224   4.071605   7.408906   3.031632   5.080325
    29  H    7.864183   5.377739   8.581530   3.011234   5.074111
    30  H    6.913248   4.491520   7.276600   4.992342   6.552543
                   26         27         28         29         30
    26  H    0.000000
    27  H    2.508056   0.000000
    28  H    5.922009   5.261617   0.000000
    29  H    5.930398   5.277643   1.768536   0.000000
    30  H    6.559287   4.976615   2.901073   2.364269   0.000000
 Stoichiometry    C15H12N2O
 Framework group  C1[X(C15H12N2O)]
 Deg. of freedom    84
 Full point group                 C1      NOp   1
 Largest Abelian subgroup         C1      NOp   1
 Largest concise Abelian subgroup C1      NOp   1
                         Standard orientation:                         
 ---------------------------------------------------------------------
 Center     Atomic      Atomic             Coordinates (Angstroms)
 Number     Number       Type             X           Y           Z
 ---------------------------------------------------------------------
      1          6           0        4.790806   -0.832885    0.701401
      2          6           0        4.409748    0.466812    1.018055
      3          6           0        3.154231    0.917552    0.615227
      4          6           0        2.345594    0.031456   -0.092650
      5          7           0        2.716039   -1.210900   -0.416136
      6          6           0        3.904253   -1.638100   -0.019456
      7          7           0        0.183712   -0.477792   -1.017429
      8          6           0        0.988472    0.384742   -0.530599
      9          8           0        0.554075    1.635196   -0.438061
     10          6           0       -0.821853    1.643976   -0.897655
     11          6           0       -1.063345    0.180841   -1.369017
     12          1           0       -1.229435    0.056910   -2.450960
     13          6           0       -2.215533   -0.307478   -0.539364
     14          6           0       -2.614879    0.662306    0.380435
     15          6           0       -3.648025    0.384182    1.272992
     16          6           0       -4.254251   -0.871535    1.231648
     17          6           0       -3.839601   -1.839581    0.312462
     18          6           0       -2.811203   -1.564414   -0.586559
     19          6           0       -1.808743    1.928137    0.243671
     20          1           0        5.762293   -1.226711    1.005758
     21          1           0        5.078635    1.122636    1.579550
     22          1           0        2.796641    1.922142    0.844963
     23          1           0        4.164874   -2.668003   -0.281004
     24          1           0       -3.976912    1.131936    1.999078
     25          1           0       -5.061501   -1.103083    1.930583
     26          1           0       -4.321423   -2.819568    0.301948
     27          1           0       -2.467172   -2.310822   -1.308418
     28          1           0       -1.254705    2.172649    1.164036
     29          1           0       -2.443780    2.798370    0.014126
     30          1           0       -0.872408    2.386744   -1.703757
 ---------------------------------------------------------------------
 Rotational constants (GHZ):           1.0401892           0.2338666           0.2156356
 Leave Link  202 at Thu Nov  3 08:04:22 2022, MaxMem=  4194304000 cpu:               0.3 elap:               0.1
 (Enter /software/gaussian/G16-A.03/avx/g16/l301.exe)
 Standard basis: def2SVP (5D, 7F)
 Ernie: Thresh=  0.10000D-02 Tol=  0.10000D-05 Strict=F.
 There are   330 symmetry adapted cartesian basis functions of A   symmetry.
 There are   312 symmetry adapted basis functions of A   symmetry.
   312 basis functions,   534 primitive gaussians,   330 cartesian basis functions
    62 alpha electrons       62 beta electrons
       nuclear repulsion energy      1205.1457940073 Hartrees.
 IExCor= 1009 DFT=T Ex+Corr=PBE1PBE ExCW=0 ScaHFX=  0.250000
 ScaDFX=  0.750000  0.750000  1.000000  1.000000 ScalE2=  1.000000  1.000000
 IRadAn=      5 IRanWt=     -1 IRanGd=            0 ICorTp=0 IEmpDi=141
 NAtoms=   30 NActive=   30 NUniq=   30 SFac= 1.00D+00 NAtFMM=   60 NAOKFM=F Big=F
 Integral buffers will be    131072 words long.
 Raffenetti 2 integral format.
 Two-electron integral symmetry is turned on.
 R6Disp:  Grimme-D3(BJ) Dispersion energy=       -0.0337129760 Hartrees.
 Nuclear repulsion after empirical dispersion term =     1205.1120810313 Hartrees.
 Leave Link  301 at Thu Nov  3 08:04:23 2022, MaxMem=  4194304000 cpu:               0.5 elap:               0.1
 (Enter /software/gaussian/G16-A.03/avx/g16/l302.exe)
 NPDir=0 NMtPBC=     1 NCelOv=     1 NCel=       1 NClECP=     1 NCelD=      1
         NCelK=      1 NCelE2=     1 NClLst=     1 CellRange=     0.0.
 One-electron integrals computed using PRISM.
 One-electron integral symmetry used in STVInt
   1 Symmetry operations used in ECPInt.
 ECPInt:  NShTT=   10440 NPrTT=   38496 LenC2=    9493 LenP2D=   24845.
 LDataN:  DoStor=T MaxTD1= 4 Len=   56
 NBasis=   312 RedAO= T EigKep=  2.68D-04  NBF=   312
 NBsUse=   312 1.00D-06 EigRej= -1.00D+00 NBFU=   312
 Precomputing XC quadrature grid using
 IXCGrd= 4 IRadAn=           5 IRanWt=          -1 IRanGd=           0 AccXCQ= 0.00D+00.
 Generated NRdTot=       0 NPtTot=           0 NUsed=           0 NTot=          32
 NSgBfM=   328   328   328   328   328 MxSgAt=    30 MxSgA2=    30.
 Leave Link  302 at Thu Nov  3 08:04:23 2022, MaxMem=  4194304000 cpu:               5.9 elap:               0.8
 (Enter /software/gaussian/G16-A.03/avx/g16/l303.exe)
 DipDrv:  MaxL=1.
 Leave Link  303 at Thu Nov  3 08:04:24 2022, MaxMem=  4194304000 cpu:               1.5 elap:               0.3
 (Enter /software/gaussian/G16-A.03/avx/g16/l401.exe)
 ExpMin= 1.22D-01 ExpMax= 2.27D+03 ExpMxC= 3.41D+02 IAcc=3 IRadAn=         5 AccDes= 0.00D+00
 Harris functional with IExCor= 1009 and IRadAn=       5 diagonalized for initial guess.
 HarFok:  IExCor= 1009 AccDes= 0.00D+00 IRadAn=         5 IDoV= 1 UseB2=F ITyADJ=14
 ICtDFT=  3500011 ScaDFX=  1.000000  1.000000  1.000000  1.000000
 FoFCou: FMM=F IPFlag=           0 FMFlag=      100000 FMFlg1=           0
         NFxFlg=           0 DoJE=T BraDBF=F KetDBF=T FulRan=T
         wScrn=  0.000000 ICntrl=       500 IOpCl=  0 I1Cent=   200000004 NGrid=           0
         NMat0=    1 NMatS0=      1 NMatT0=    0 NMatD0=    1 NMtDS0=    0 NMtDT0=    0
 Petite list used in FoFCou.
 Harris En= -762.285025097062    
 JPrj=0 DoOrth=F DoCkMO=F.
 Leave Link  401 at Thu Nov  3 08:04:27 2022, MaxMem=  4194304000 cpu:              21.5 elap:               3.1
 (Enter /software/gaussian/G16-A.03/avx/g16/l502.exe)
 Integral symmetry usage will be decided dynamically.
 Closed shell SCF:
 Using DIIS extrapolation, IDIIS=  1040.
 NGot=  4194304000 LenX=  4194080022 LenY=  4193970681
 Requested convergence on RMS density matrix=1.00D-08 within 128 cycles.
 Requested convergence on MAX density matrix=1.00D-06.
 Requested convergence on             energy=1.00D-06.
 No special actions if energy rises.
 Fock matrices will be formed incrementally for  20 cycles.
 Integral accuracy reduced to 1.0D-05 until final iterations.

 Cycle   1  Pass 0  IDiag  1:
 FoFJK:  IHMeth= 1 ICntrl=       0 DoSepK=F KAlg= 0 I1Cent=           0 FoldK=F
 IRaf= 850000000 NMat=       1 IRICut=       1 DoRegI=T DoRafI=F ISym2E= 0 IDoP0=0 IntGTp=1.
 FoFCou: FMM=F IPFlag=           0 FMFlag=      100000 FMFlg1=           0
         NFxFlg=           0 DoJE=F BraDBF=F KetDBF=F FulRan=T
         wScrn=  0.000000 ICntrl=         0 IOpCl=  0 I1Cent=           0 NGrid=           0
         NMat0=    1 NMatS0=      1 NMatT0=    0 NMatD0=    1 NMtDS0=    0 NMtDT0=    0
 Symmetry not used in FoFCou.
 E= -761.883709136372    
 DIIS: error= 2.14D-02 at cycle   1 NSaved=   1.
 NSaved= 1 IEnMin= 1 EnMin= -761.883709136372     IErMin= 1 ErrMin= 2.14D-02
 ErrMax= 2.14D-02  0.00D+00 EMaxC= 1.00D-01 BMatC= 2.39D-01 BMatP= 2.39D-01
 IDIUse=3 WtCom= 7.86D-01 WtEn= 2.14D-01
 Coeff-Com:  0.100D+01
 Coeff-En:   0.100D+01
 Coeff:      0.100D+01
 Gap=     0.192 Goal=   None    Shift=    0.000
 GapD=    0.192 DampG=1.000 DampE=0.500 DampFc=0.5000 IDamp=-1.
 Damping current iteration by 5.00D-01
 RMSDP=4.80D-03 MaxDP=1.28D-01              OVMax= 1.92D-01

 Cycle   2  Pass 0  IDiag  1:
 RMSU=  2.34D-03    CP:  9.74D-01
 E= -762.003708347928     Delta-E=       -0.119999211556 Rises=F Damp=T
 DIIS: error= 6.03D-03 at cycle   2 NSaved=   2.
 NSaved= 2 IEnMin= 2 EnMin= -762.003708347928     IErMin= 2 ErrMin= 6.03D-03
 ErrMax= 6.03D-03  0.00D+00 EMaxC= 1.00D-01 BMatC= 2.19D-02 BMatP= 2.39D-01
 IDIUse=3 WtCom= 9.40D-01 WtEn= 6.03D-02
 Coeff-Com:  0.438D-01 0.956D+00
 Coeff-En:   0.463D-01 0.954D+00
 Coeff:      0.439D-01 0.956D+00
 Gap=     0.214 Goal=   None    Shift=    0.000
 RMSDP=1.71D-03 MaxDP=5.19D-02 DE=-1.20D-01 OVMax= 1.81D-01

 Cycle   3  Pass 0  IDiag  1:
 RMSU=  1.67D-03    CP:  9.56D-01  1.03D+00
 E= -762.121669953100     Delta-E=       -0.117961605172 Rises=F Damp=F
 DIIS: error= 1.24D-02 at cycle   3 NSaved=   3.
 NSaved= 3 IEnMin= 3 EnMin= -762.121669953100     IErMin= 2 ErrMin= 6.03D-03
 ErrMax= 1.24D-02  0.00D+00 EMaxC= 1.00D-01 BMatC= 3.16D-02 BMatP= 2.19D-02
 IDIUse=2 WtCom= 0.00D+00 WtEn= 1.00D+00
 Coeff-En:   0.000D+00 0.000D+00 0.100D+01
 Coeff:      0.000D+00 0.000D+00 0.100D+01
 Gap=     0.181 Goal=   None    Shift=    0.000
 RMSDP=2.17D-03 MaxDP=1.06D-01 DE=-1.18D-01 OVMax= 1.81D-01

 Cycle   4  Pass 0  IDiag  1:
 RMSU=  1.36D-03    CP:  9.62D-01  1.42D+00  1.47D-01
 E= -762.007432998368     Delta-E=        0.114236954732 Rises=F Damp=F
 DIIS: error= 2.88D-02 at cycle   4 NSaved=   4.
 NSaved= 4 IEnMin= 3 EnMin= -762.121669953100     IErMin= 2 ErrMin= 6.03D-03
 ErrMax= 2.88D-02  0.00D+00 EMaxC= 1.00D-01 BMatC= 1.56D-01 BMatP= 2.19D-02
 IDIUse=2 WtCom= 0.00D+00 WtEn= 1.00D+00
 Coeff-En:   0.000D+00 0.000D+00 0.777D+00 0.223D+00
 Coeff:      0.000D+00 0.000D+00 0.777D+00 0.223D+00
 Gap=     0.202 Goal=   None    Shift=    0.000
 RMSDP=1.18D-03 MaxDP=5.25D-02 DE= 1.14D-01 OVMax= 9.11D-02

 Cycle   5  Pass 0  IDiag  1:
 RMSU=  2.26D-04    CP:  9.58D-01  1.19D+00  5.78D-01  4.63D-01
 E= -762.140732864880     Delta-E=       -0.133299866512 Rises=F Damp=F
 DIIS: error= 7.63D-03 at cycle   5 NSaved=   5.
 NSaved= 5 IEnMin= 5 EnMin= -762.140732864880     IErMin= 2 ErrMin= 6.03D-03
 ErrMax= 7.63D-03  0.00D+00 EMaxC= 1.00D-01 BMatC= 1.11D-02 BMatP= 2.19D-02
 IDIUse=3 WtCom= 9.24D-01 WtEn= 7.63D-02
 Coeff-Com:  0.373D-02 0.399D-02 0.295D+00-0.737D-01 0.771D+00
 Coeff-En:   0.000D+00 0.000D+00 0.307D+00 0.000D+00 0.693D+00
 Coeff:      0.345D-02 0.368D-02 0.296D+00-0.681D-01 0.765D+00
 Gap=     0.200 Goal=   None    Shift=    0.000
 RMSDP=4.01D-04 MaxDP=1.96D-02 DE=-1.33D-01 OVMax= 3.54D-02

 Cycle   6  Pass 0  IDiag  1:
 RMSU=  7.29D-05    CP:  9.57D-01  1.13D+00  7.35D-01  2.84D-01  8.59D-01
 E= -762.150757575311     Delta-E=       -0.010024710431 Rises=F Damp=F
 DIIS: error= 4.74D-04 at cycle   6 NSaved=   6.
 NSaved= 6 IEnMin= 6 EnMin= -762.150757575311     IErMin= 6 ErrMin= 4.74D-04
 ErrMax= 4.74D-04  0.00D+00 EMaxC= 1.00D-01 BMatC= 6.22D-05 BMatP= 1.11D-02
 IDIUse=3 WtCom= 9.95D-01 WtEn= 4.74D-03
 Coeff-Com:  0.109D-02-0.103D-02 0.131D+00-0.630D-01 0.465D+00 0.466D+00
 Coeff-En:   0.000D+00 0.000D+00 0.000D+00 0.000D+00 0.000D+00 0.100D+01
 Coeff:      0.109D-02-0.102D-02 0.131D+00-0.627D-01 0.463D+00 0.469D+00
 Gap=     0.200 Goal=   None    Shift=    0.000
 RMSDP=3.68D-05 MaxDP=1.25D-03 DE=-1.00D-02 OVMax= 3.54D-03

 Cycle   7  Pass 0  IDiag  1:
 RMSU=  1.58D-05    CP:  9.57D-01  1.13D+00  7.35D-01  2.89D-01  8.87D-01
                    CP:  5.63D-01
 E= -762.150826239081     Delta-E=       -0.000068663770 Rises=F Damp=F
 DIIS: error= 1.49D-04 at cycle   7 NSaved=   7.
 NSaved= 7 IEnMin= 7 EnMin= -762.150826239081     IErMin= 7 ErrMin= 1.49D-04
 ErrMax= 1.49D-04  0.00D+00 EMaxC= 1.00D-01 BMatC= 3.68D-06 BMatP= 6.22D-05
 IDIUse=3 WtCom= 9.99D-01 WtEn= 1.49D-03
 Coeff-Com:  0.461D-03-0.991D-03 0.558D-01-0.315D-01 0.213D+00 0.258D+00
 Coeff-Com:  0.504D+00
 Coeff-En:   0.000D+00 0.000D+00 0.000D+00 0.000D+00 0.000D+00 0.000D+00
 Coeff-En:   0.100D+01
 Coeff:      0.460D-03-0.990D-03 0.558D-01-0.315D-01 0.213D+00 0.258D+00
 Coeff:      0.505D+00
 Gap=     0.200 Goal=   None    Shift=    0.000
 RMSDP=7.43D-06 MaxDP=3.85D-04 DE=-6.87D-05 OVMax= 7.41D-04

 Initial convergence to 1.0D-05 achieved.  Increase integral accuracy.
 Cycle   8  Pass 1  IDiag  1:
 E= -762.150816503728     Delta-E=        0.000009735353 Rises=F Damp=F
 DIIS: error= 9.10D-05 at cycle   1 NSaved=   1.
 NSaved= 1 IEnMin= 1 EnMin= -762.150816503728     IErMin= 1 ErrMin= 9.10D-05
 ErrMax= 9.10D-05  0.00D+00 EMaxC= 1.00D-01 BMatC= 1.94D-06 BMatP= 1.94D-06
 IDIUse=1 WtCom= 1.00D+00 WtEn= 0.00D+00
 Coeff-Com:  0.100D+01
 Coeff:      0.100D+01
 Gap=     0.200 Goal=   None    Shift=    0.000
 RMSDP=7.43D-06 MaxDP=3.85D-04 DE= 9.74D-06 OVMax= 4.07D-04

 Cycle   9  Pass 1  IDiag  1:
 RMSU=  1.03D-04    CP:  1.00D+00
 E= -762.150817660218     Delta-E=       -0.000001156490 Rises=F Damp=F
 DIIS: error= 6.79D-05 at cycle   2 NSaved=   2.
 NSaved= 2 IEnMin= 2 EnMin= -762.150817660218     IErMin= 2 ErrMin= 6.79D-05
 ErrMax= 6.79D-05  0.00D+00 EMaxC= 1.00D-01 BMatC= 1.10D-06 BMatP= 1.94D-06
 IDIUse=1 WtCom= 1.00D+00 WtEn= 0.00D+00
 Coeff-Com:  0.399D+00 0.601D+00
 Coeff:      0.399D+00 0.601D+00
 Gap=     0.200 Goal=   None    Shift=    0.000
 RMSDP=7.25D-06 MaxDP=2.84D-04 DE=-1.16D-06 OVMax= 4.99D-04

 Cycle  10  Pass 1  IDiag  1:
 RMSU=  7.21D-06    CP:  1.00D+00  1.00D+00
 E= -762.150817968554     Delta-E=       -0.000000308336 Rises=F Damp=F
 DIIS: error= 5.55D-05 at cycle   3 NSaved=   3.
 NSaved= 3 IEnMin= 3 EnMin= -762.150817968554     IErMin= 3 ErrMin= 5.55D-05
 ErrMax= 5.55D-05  0.00D+00 EMaxC= 1.00D-01 BMatC= 7.47D-07 BMatP= 1.10D-06
 IDIUse=1 WtCom= 1.00D+00 WtEn= 0.00D+00
 Coeff-Com:  0.136D-01 0.448D+00 0.538D+00
 Coeff:      0.136D-01 0.448D+00 0.538D+00
 Gap=     0.200 Goal=   None    Shift=    0.000
 RMSDP=3.84D-06 MaxDP=1.57D-04 DE=-3.08D-07 OVMax= 3.09D-04

 Cycle  11  Pass 1  IDiag  1:
 RMSU=  1.19D-06    CP:  1.00D+00  1.01D+00  5.22D-01
 E= -762.150818609384     Delta-E=       -0.000000640830 Rises=F Damp=F
 DIIS: error= 1.06D-05 at cycle   4 NSaved=   4.
 NSaved= 4 IEnMin= 4 EnMin= -762.150818609384     IErMin= 4 ErrMin= 1.06D-05
 ErrMax= 1.06D-05  0.00D+00 EMaxC= 1.00D-01 BMatC= 3.89D-08 BMatP= 7.47D-07
 IDIUse=1 WtCom= 1.00D+00 WtEn= 0.00D+00
 Coeff-Com: -0.509D-02 0.268D+00 0.347D+00 0.390D+00
 Coeff:     -0.509D-02 0.268D+00 0.347D+00 0.390D+00
 Gap=     0.200 Goal=   None    Shift=    0.000
 RMSDP=7.13D-07 MaxDP=2.91D-05 DE=-6.41D-07 OVMax= 6.34D-05

 Cycle  12  Pass 1  IDiag  1:
 RMSU=  2.79D-07    CP:  1.00D+00  1.01D+00  5.59D-01  4.94D-01
 E= -762.150818646549     Delta-E=       -0.000000037165 Rises=F Damp=F
 DIIS: error= 1.22D-06 at cycle   5 NSaved=   5.
 NSaved= 5 IEnMin= 5 EnMin= -762.150818646549     IErMin= 5 ErrMin= 1.22D-06
 ErrMax= 1.22D-06  0.00D+00 EMaxC= 1.00D-01 BMatC= 3.37D-10 BMatP= 3.89D-08
 IDIUse=1 WtCom= 1.00D+00 WtEn= 0.00D+00
 Coeff-Com: -0.305D-02 0.144D+00 0.186D+00 0.218D+00 0.456D+00
 Coeff:     -0.305D-02 0.144D+00 0.186D+00 0.218D+00 0.456D+00
 Gap=     0.200 Goal=   None    Shift=    0.000
 RMSDP=8.67D-08 MaxDP=2.80D-06 DE=-3.72D-08 OVMax= 7.09D-06

 Cycle  13  Pass 1  IDiag  1:
 RMSU=  8.11D-08    CP:  1.00D+00  1.01D+00  5.56D-01  4.98D-01  9.32D-01
 E= -762.150818646856     Delta-E=       -0.000000000307 Rises=F Damp=F
 DIIS: error= 4.00D-07 at cycle   6 NSaved=   6.
 NSaved= 6 IEnMin= 6 EnMin= -762.150818646856     IErMin= 6 ErrMin= 4.00D-07
 ErrMax= 4.00D-07  0.00D+00 EMaxC= 1.00D-01 BMatC= 2.60D-11 BMatP= 3.37D-10
 IDIUse=1 WtCom= 1.00D+00 WtEn= 0.00D+00
 Coeff-Com: -0.888D-03 0.386D-01 0.490D-01 0.592D-01 0.237D+00 0.617D+00
 Coeff:     -0.888D-03 0.386D-01 0.490D-01 0.592D-01 0.237D+00 0.617D+00
 Gap=     0.200 Goal=   None    Shift=    0.000
 RMSDP=3.15D-08 MaxDP=9.19D-07 DE=-3.07D-10 OVMax= 3.09D-06

 Cycle  14  Pass 1  IDiag  1:
 RMSU=  2.41D-08    CP:  1.00D+00  1.01D+00  5.54D-01  5.00D-01  9.62D-01
                    CP:  8.43D-01
 E= -762.150818646880     Delta-E=       -0.000000000024 Rises=F Damp=F
 DIIS: error= 9.81D-08 at cycle   7 NSaved=   7.
 NSaved= 7 IEnMin= 7 EnMin= -762.150818646880     IErMin= 7 ErrMin= 9.81D-08
 ErrMax= 9.81D-08  0.00D+00 EMaxC= 1.00D-01 BMatC= 3.71D-12 BMatP= 2.60D-11
 IDIUse=1 WtCom= 1.00D+00 WtEn= 0.00D+00
 Coeff-Com: -0.797D-04 0.204D-02 0.197D-02 0.282D-02 0.647D-01 0.335D+00
 Coeff-Com:  0.594D+00
 Coeff:     -0.797D-04 0.204D-02 0.197D-02 0.282D-02 0.647D-01 0.335D+00
 Coeff:      0.594D+00
 Gap=     0.200 Goal=   None    Shift=    0.000
 RMSDP=8.95D-09 MaxDP=3.06D-07 DE=-2.39D-11 OVMax= 7.40D-07

 SCF Done:  E(RPBE1PBE) =  -762.150818647     A.U. after   14 cycles
            NFock= 14  Conv=0.90D-08     -V/T= 2.0097
 KE= 7.548509286477D+02 PE=-4.180473275368D+03 EE= 1.458359447042D+03
 Leave Link  502 at Thu Nov  3 08:05:21 2022, MaxMem=  4194304000 cpu:             427.5 elap:              54.3
 (Enter /software/gaussian/G16-A.03/avx/g16/l801.exe)
 DoSCS=F DFT=T ScalE2(SS,OS)=  1.000000  1.000000
 Range of M.O.s used for correlation:     1   312
 NBasis=   312 NAE=    62 NBE=    62 NFC=     0 NFV=     0
 NROrb=    312 NOA=    62 NOB=    62 NVA=   250 NVB=   250

 **** Warning!!: The largest alpha MO coefficient is  0.11115650D+02

 Leave Link  801 at Thu Nov  3 08:05:21 2022, MaxMem=  4194304000 cpu:               0.5 elap:               0.1
 (Enter /software/gaussian/G16-A.03/avx/g16/l1101.exe)
 Using compressed storage, NAtomX=    30.
 Will process     31 centers per pass.
   1 Symmetry operations used in ECPInt.
 ECPInt:  NShTT=   10440 NPrTT=   38496 LenC2=    9493 LenP2D=   24845.
 LDataN:  DoStor=T MaxTD1= 5 Len=  102
 R6Disp: Adding Grimme-D3(BJ) dispersion energy 1st derivatives to the gradient.
 Leave Link 1101 at Thu Nov  3 08:05:24 2022, MaxMem=  4194304000 cpu:              18.2 elap:               3.1
 (Enter /software/gaussian/G16-A.03/avx/g16/l1102.exe)
 Symmetrizing basis deriv contribution to polar:
 IMax=3 JMax=2 DiffMx= 0.00D+00
 Leave Link 1102 at Thu Nov  3 08:05:24 2022, MaxMem=  4194304000 cpu:               0.8 elap:               0.2
 (Enter /software/gaussian/G16-A.03/avx/g16/l1110.exe)
 Forming Gx(P) for the SCF density, NAtomX=    30.
 Integral derivatives from FoFJK, PRISM(SPDF).
 Do as many integral derivatives as possible in FoFJK.
 G2DrvN: MDV=    4194301704.
 G2DrvN: will do    31 centers at a time, making    1 passes.
 Calling FoFCou, ICntrl=  3107 FMM=F I1Cent=   0 AccDes= 0.00D+00.
 FoFJK:  IHMeth= 1 ICntrl=    3107 DoSepK=F KAlg= 0 I1Cent=           0 FoldK=F
 IRaf=         0 NMat=       1 IRICut=       1 DoRegI=T DoRafI=F ISym2E= 0 IDoP0=0 IntGTp=1.
 FoFCou: FMM=F IPFlag=           0 FMFlag=      100000 FMFlg1=           0
         NFxFlg=           0 DoJE=F BraDBF=F KetDBF=F FulRan=T
         wScrn=  0.000000 ICntrl=      3107 IOpCl=  0 I1Cent=           0 NGrid=           0
         NMat0=    1 NMatS0=      1 NMatT0=    0 NMatD0=    1 NMtDS0=    0 NMtDT0=    0
 Symmetry not used in FoFCou.
 End of G2Drv F.D. properties file   721 does not exist.
 End of G2Drv F.D. properties file   722 does not exist.
 End of G2Drv F.D. properties file   788 does not exist.
 Leave Link 1110 at Thu Nov  3 08:08:12 2022, MaxMem=  4194304000 cpu:            1303.7 elap:             167.2
 (Enter /software/gaussian/G16-A.03/avx/g16/l1002.exe)
 Minotr:  Closed shell wavefunction.
          IDoAtm=111111111111111111111111111111
          Direct CPHF calculation.
          Differentiating once with respect to electric field.
                with respect to dipole field.
          Differentiating once with respect to nuclear coordinates.
          Requested convergence is 1.0D-08 RMS, and 1.0D-07 maximum.
          Secondary convergence is 1.0D-12 RMS, and 1.0D-12 maximum.
          NewPWx=T KeepS1=F KeepF1=F KeepIn=T MapXYZ=F SortEE=F KeepMc=T.
         9053 words used for storage of precomputed grid.
 Keep R1 ints in memory in canonical form, NReq=1210257944.
 FoFCou: FMM=F IPFlag=           0 FMFlag=           0 FMFlg1=           0
         NFxFlg=           0 DoJE=F BraDBF=F KetDBF=F FulRan=T
         wScrn=  0.000000 ICntrl=       600 IOpCl=  0 I1Cent=           0 NGrid=           0
         NMat0=    1 NMatS0=  48828 NMatT0=    0 NMatD0=    1 NMtDS0=    0 NMtDT0=    0
 Symmetry not used in FoFCou.
 Two-electron integral symmetry not used.
          MDV=    4194304000 using IRadAn=       1.
          Solving linear equations simultaneously, MaxMat=       0.
          There are    93 degrees of freedom in the 1st order CPHF.  IDoFFX=6 NUNeed=     3.
     90 vectors produced by pass  0 Test12= 1.67D-14 1.08D-09 XBig12= 1.94D+02 6.37D+00.
 AX will form    90 AO Fock derivatives at one time.
     90 vectors produced by pass  1 Test12= 1.67D-14 1.08D-09 XBig12= 4.37D+01 1.13D+00.
     90 vectors produced by pass  2 Test12= 1.67D-14 1.08D-09 XBig12= 3.93D-01 5.16D-02.
     90 vectors produced by pass  3 Test12= 1.67D-14 1.08D-09 XBig12= 1.93D-03 3.83D-03.
     90 vectors produced by pass  4 Test12= 1.67D-14 1.08D-09 XBig12= 6.02D-06 1.83D-04.
     85 vectors produced by pass  5 Test12= 1.67D-14 1.08D-09 XBig12= 9.49D-09 8.49D-06.
     28 vectors produced by pass  6 Test12= 1.67D-14 1.08D-09 XBig12= 1.27D-11 2.59D-07.
      3 vectors produced by pass  7 Test12= 1.67D-14 1.08D-09 XBig12= 1.32D-14 7.40D-09.
 InvSVY:  IOpt=1 It=  1 EMax= 2.84D-14
 Solved reduced A of dimension   566 with    93 vectors.
 FullF1:  Do perturbations      1 to       3.
 Isotropic polarizability for W=    0.000000      167.34 Bohr**3.
 End of Minotr F.D. properties file   721 does not exist.
 End of Minotr F.D. properties file   722 does not exist.
 End of Minotr F.D. properties file   788 does not exist.
 Leave Link 1002 at Thu Nov  3 08:11:44 2022, MaxMem=  4194304000 cpu:            1662.5 elap:             211.8
 (Enter /software/gaussian/G16-A.03/avx/g16/l601.exe)
 Copying SCF densities to generalized density rwf, IOpCl= 0 IROHF=0.

 **********************************************************************

            Population analysis using the SCF density.

 **********************************************************************

 Orbital symmetries:
       Occupied  (A) (A) (A) (A) (A) (A) (A) (A) (A) (A) (A) (A)
                 (A) (A) (A) (A) (A) (A) (A) (A) (A) (A) (A) (A)
                 (A) (A) (A) (A) (A) (A) (A) (A) (A) (A) (A) (A)
                 (A) (A) (A) (A) (A) (A) (A) (A) (A) (A) (A) (A)
                 (A) (A) (A) (A) (A) (A) (A) (A) (A) (A) (A) (A)
                 (A) (A)
       Virtual   (A) (A) (A) (A) (A) (A) (A) (A) (A) (A) (A) (A)
                 (A) (A) (A) (A) (A) (A) (A) (A) (A) (A) (A) (A)
                 (A) (A) (A) (A) (A) (A) (A) (A) (A) (A) (A) (A)
                 (A) (A) (A) (A) (A) (A) (A) (A) (A) (A) (A) (A)
                 (A) (A) (A) (A) (A) (A) (A) (A) (A) (A) (A) (A)
                 (A) (A) (A) (A) (A) (A) (A) (A) (A) (A) (A) (A)
                 (A) (A) (A) (A) (A) (A) (A) (A) (A) (A) (A) (A)
                 (A) (A) (A) (A) (A) (A) (A) (A) (A) (A) (A) (A)
                 (A) (A) (A) (A) (A) (A) (A) (A) (A) (A) (A) (A)
                 (A) (A) (A) (A) (A) (A) (A) (A) (A) (A) (A) (A)
                 (A) (A) (A) (A) (A) (A) (A) (A) (A) (A) (A) (A)
                 (A) (A) (A) (A) (A) (A) (A) (A) (A) (A) (A) (A)
                 (A) (A) (A) (A) (A) (A) (A) (A) (A) (A) (A) (A)
                 (A) (A) (A) (A) (A) (A) (A) (A) (A) (A) (A) (A)
                 (A) (A) (A) (A) (A) (A) (A) (A) (A) (A) (A) (A)
                 (A) (A) (A) (A) (A) (A) (A) (A) (A) (A) (A) (A)
                 (A) (A) (A) (A) (A) (A) (A) (A) (A) (A) (A) (A)
                 (A) (A) (A) (A) (A) (A) (A) (A) (A) (A) (A) (A)
                 (A) (A) (A) (A) (A) (A) (A) (A) (A) (A) (A) (A)
                 (A) (A) (A) (A) (A) (A) (A) (A) (A) (A) (A) (A)
                 (A) (A) (A) (A) (A) (A) (A) (A) (A) (A)
 The electronic state is 1-A.
 Alpha  occ. eigenvalues --  -19.24985 -14.38800 -14.35961 -10.31374 -10.29808
 Alpha  occ. eigenvalues --  -10.28330 -10.27390 -10.26594 -10.26310 -10.25485
 Alpha  occ. eigenvalues --  -10.25318 -10.24540 -10.24225 -10.23852 -10.23786
 Alpha  occ. eigenvalues --  -10.23684 -10.23641 -10.23612  -1.12255  -0.97491
 Alpha  occ. eigenvalues --   -0.92222  -0.88771  -0.83616  -0.82799  -0.79789
 Alpha  occ. eigenvalues --   -0.77094  -0.74153  -0.71487  -0.66750  -0.65744
 Alpha  occ. eigenvalues --   -0.63549  -0.60819  -0.59413  -0.58341  -0.54813
 Alpha  occ. eigenvalues --   -0.53335  -0.51377  -0.50631  -0.49568  -0.47718
 Alpha  occ. eigenvalues --   -0.46716  -0.45970  -0.45131  -0.44360  -0.43077
 Alpha  occ. eigenvalues --   -0.42576  -0.42383  -0.41842  -0.41019  -0.38927
 Alpha  occ. eigenvalues --   -0.38530  -0.36736  -0.36365  -0.35253  -0.34913
 Alpha  occ. eigenvalues --   -0.30986  -0.28970  -0.27878  -0.26382  -0.25939
 Alpha  occ. eigenvalues --   -0.25641  -0.24738
 Alpha virt. eigenvalues --   -0.04710  -0.02332  -0.00987   0.00087   0.06431
 Alpha virt. eigenvalues --    0.07372   0.07894   0.08096   0.09883   0.11208
 Alpha virt. eigenvalues --    0.11502   0.12659   0.12868   0.13660   0.14737
 Alpha virt. eigenvalues --    0.15662   0.15945   0.16254   0.16895   0.18085
 Alpha virt. eigenvalues --    0.19099   0.21175   0.22560   0.23271   0.26321
 Alpha virt. eigenvalues --    0.26614   0.27927   0.28366   0.30030   0.30501
 Alpha virt. eigenvalues --    0.32373   0.32831   0.33163   0.33980   0.36286
 Alpha virt. eigenvalues --    0.37183   0.37737   0.39707   0.40696   0.41594
 Alpha virt. eigenvalues --    0.41797   0.43355   0.44547   0.46037   0.46411
 Alpha virt. eigenvalues --    0.47022   0.47429   0.48475   0.49261   0.49635
 Alpha virt. eigenvalues --    0.50054   0.51371   0.51984   0.53063   0.53538
 Alpha virt. eigenvalues --    0.55096   0.55761   0.56423   0.56979   0.59056
 Alpha virt. eigenvalues --    0.59783   0.60640   0.60680   0.61507   0.61968
 Alpha virt. eigenvalues --    0.63603   0.64014   0.64707   0.64891   0.65370
 Alpha virt. eigenvalues --    0.65854   0.66470   0.66832   0.67393   0.67670
 Alpha virt. eigenvalues --    0.68780   0.68868   0.69951   0.70120   0.70918
 Alpha virt. eigenvalues --    0.71270   0.72119   0.72626   0.73627   0.74474
 Alpha virt. eigenvalues --    0.74870   0.75298   0.76944   0.77377   0.77437
 Alpha virt. eigenvalues --    0.77926   0.79499   0.81472   0.83007   0.84429
 Alpha virt. eigenvalues --    0.86825   0.88529   0.88943   0.90993   0.92603
 Alpha virt. eigenvalues --    0.94028   0.97122   0.98622   1.00298   1.01809
 Alpha virt. eigenvalues --    1.04889   1.06397   1.07312   1.10475   1.12693
 Alpha virt. eigenvalues --    1.14511   1.15630   1.18147   1.19383   1.21744
 Alpha virt. eigenvalues --    1.22039   1.24927   1.25089   1.25920   1.26245
 Alpha virt. eigenvalues --    1.27276   1.28200   1.28936   1.30227   1.31761
 Alpha virt. eigenvalues --    1.34960   1.35690   1.37669   1.40014   1.43092
 Alpha virt. eigenvalues --    1.45689   1.47884   1.48558   1.51484   1.51953
 Alpha virt. eigenvalues --    1.54634   1.57100   1.60997   1.62576   1.66398
 Alpha virt. eigenvalues --    1.66962   1.67592   1.69781   1.70674   1.71831
 Alpha virt. eigenvalues --    1.72178   1.72804   1.73306   1.74262   1.76095
 Alpha virt. eigenvalues --    1.76226   1.76644   1.77744   1.78154   1.79160
 Alpha virt. eigenvalues --    1.79650   1.80341   1.80556   1.81153   1.81892
 Alpha virt. eigenvalues --    1.84268   1.84418   1.85853   1.87331   1.90931
 Alpha virt. eigenvalues --    1.92291   1.93066   1.93225   1.94495   1.95416
 Alpha virt. eigenvalues --    1.96403   1.96586   1.97415   1.98349   1.99179
 Alpha virt. eigenvalues --    2.00094   2.01378   2.03708   2.04821   2.05041
 Alpha virt. eigenvalues --    2.05395   2.07641   2.10154   2.10780   2.14039
 Alpha virt. eigenvalues --    2.15912   2.16665   2.17586   2.18452   2.21245
 Alpha virt. eigenvalues --    2.22060   2.24990   2.26018   2.28729   2.29568
 Alpha virt. eigenvalues --    2.30325   2.31913   2.32659   2.33267   2.34057
 Alpha virt. eigenvalues --    2.35723   2.40693   2.41247   2.43487   2.44862
 Alpha virt. eigenvalues --    2.46125   2.47327   2.50001   2.53247   2.56161
 Alpha virt. eigenvalues --    2.56356   2.58750   2.59790   2.63088   2.64004
 Alpha virt. eigenvalues --    2.65241   2.66028   2.68043   2.70458   2.72919
 Alpha virt. eigenvalues --    2.74082   2.75267   2.75533   2.79086   2.81404
 Alpha virt. eigenvalues --    2.83255   2.84835   2.86321   2.88379   2.90516
 Alpha virt. eigenvalues --    2.92820   2.94460   2.97465   2.98297   3.03766
 Alpha virt. eigenvalues --    3.05255   3.05981   3.07209   3.08266   3.09284
 Alpha virt. eigenvalues --    3.13903   3.15315   3.20351   3.24087   3.26209
 Alpha virt. eigenvalues --    3.34541   3.45458   3.63180   3.64886   3.70781
     Molecular Orbital Coefficients:
                          58        59        60        61        62
                           O         O         O         O         O
     Eigenvalues --    -0.27878  -0.26382  -0.25939  -0.25641  -0.24738
   1 1   C  1S         -0.01877   0.00515   0.02054   0.01229   0.00485
   2        2S          0.05111  -0.01273  -0.05338  -0.03143  -0.01194
   3        3S          0.00506  -0.02238  -0.06888  -0.05649  -0.01571
   4        4PX        -0.07562   0.00486   0.08216   0.00176   0.06763
   5        4PY        -0.07107   0.00645   0.07477   0.00723   0.05376
   6        4PZ        -0.06136   0.03787   0.03320   0.11630  -0.10515
   7        5PX        -0.00300  -0.00015   0.03535  -0.00949   0.05019
   8        5PY        -0.08491   0.01001   0.08801   0.01994   0.05285
   9        5PZ        -0.03281   0.02849   0.02503   0.08913  -0.07843
  10        6D 0        0.00136  -0.00046  -0.00020  -0.00157   0.00159
  11        6D+1       -0.00033  -0.00022   0.00099  -0.00076   0.00176
  12        6D-1        0.00153   0.00000  -0.00099  -0.00022  -0.00036
  13        6D+2       -0.00146   0.00058   0.00168   0.00179  -0.00042
  14        6D-2        0.00318  -0.00023  -0.00277  -0.00057  -0.00107
  15 2   C  1S          0.00323   0.00184   0.00100   0.00265   0.00205
  16        2S         -0.00734  -0.00383  -0.00264  -0.00622  -0.00462
  17        3S          0.12340  -0.00714  -0.04885  -0.01889   0.00064
  18        4PX         0.02701   0.00053  -0.00877  -0.00927   0.01830
  19        4PY         0.02339  -0.00998  -0.01963  -0.02318   0.00783
  20        4PZ         0.02484   0.00936  -0.01235   0.02297  -0.02653
  21        5PX        -0.01627  -0.00050  -0.00289  -0.00866   0.00546
  22        5PY        -0.01178  -0.00576   0.00327  -0.01573   0.01772
  23        5PZ        -0.00969   0.00773  -0.00205   0.01823  -0.02296
  24        6D 0        0.00132  -0.00027  -0.00134  -0.00071  -0.00027
  25        6D+1        0.00247   0.00071  -0.00271   0.00259  -0.00474
  26        6D-1        0.00260  -0.00149  -0.00077  -0.00506   0.00557
  27        6D+2        0.00054  -0.00074   0.00103  -0.00295   0.00486
  28        6D-2        0.00630  -0.00058  -0.00514  -0.00189  -0.00114
  29 3   C  1S         -0.02048   0.00124   0.01547   0.00607  -0.00016
  30        2S          0.05291  -0.00544  -0.04582  -0.02023  -0.00198
  31        3S         -0.02806  -0.02348  -0.07317  -0.06399  -0.00718
  32        4PX        -0.07771   0.01080   0.04258   0.04870  -0.04364
  33        4PY        -0.07945   0.01891   0.05719   0.06095  -0.03374
  34        4PZ        -0.06368  -0.01007   0.07352  -0.03829   0.09503
  35        5PX        -0.08817   0.01091   0.03853   0.04921  -0.05551
  36        5PY         0.01194   0.02676   0.04138   0.07059  -0.02821
  37        5PZ        -0.03302  -0.00324   0.06099  -0.01860   0.07546
  38        6D 0        0.00132   0.00088  -0.00171   0.00278  -0.00418
  39        6D+1        0.00127  -0.00010  -0.00179   0.00031  -0.00229
  40        6D-1        0.00027   0.00069   0.00019   0.00182  -0.00119
  41        6D+2        0.00131  -0.00150  -0.00286  -0.00287  -0.00084
  42        6D-2        0.00321  -0.00092  -0.00169  -0.00288   0.00235
  43 4   C  1S          0.02831   0.00163  -0.01442  -0.00260   0.00129
  44        2S         -0.07609  -0.00318   0.03944   0.00753   0.00094
  45        3S         -0.02982  -0.06413  -0.12281  -0.07993  -0.10644
  46        4PX         0.06172   0.03067  -0.01391   0.05146  -0.01931
  47        4PY         0.10672  -0.01761  -0.10402  -0.03016  -0.05065
  48        4PZ         0.06715  -0.02309  -0.02297  -0.08524   0.08916
  49        5PX         0.04659   0.08377   0.12442   0.15143   0.03537
  50        5PY         0.02480  -0.00086  -0.00017   0.02723  -0.03946
  51        5PZ         0.02775   0.01413   0.07146   0.00035   0.08731
  52        6D 0        0.00410  -0.00161  -0.00303  -0.00573   0.00555
  53        6D+1        0.00144  -0.00126  -0.00031  -0.00480   0.00784
  54        6D-1        0.00887  -0.00116  -0.00812  -0.00318  -0.00283
  55        6D+2       -0.00807   0.00143   0.00539   0.00534  -0.00272
  56        6D-2        0.01582  -0.00233  -0.01648  -0.00681  -0.00407
  57 5   N  1S          0.06011  -0.01568  -0.06568  -0.03970  -0.01511
  58        2S          0.12459  -0.03306  -0.14125  -0.08494  -0.03386
  59        3S          0.14351  -0.03441  -0.12578  -0.08087  -0.02515
  60        4PX         0.19342  -0.05187  -0.19553  -0.13949  -0.00885
  61        4PY         0.19142  -0.05236  -0.19185  -0.13320  -0.00671
  62        4PZ         0.16668  -0.02549  -0.17546  -0.05136  -0.10047
  63        5PX        -0.16300   0.03196   0.12907   0.08757  -0.00058
  64        5PY        -0.13358   0.03223   0.13614   0.08760   0.00801
  65        5PZ        -0.12737   0.01666   0.12200   0.03642   0.06451
  66        6D 0        0.00348  -0.00134  -0.00323  -0.00415   0.00247
  67        6D+1       -0.00688   0.00221   0.00764   0.00579   0.00133
  68        6D-1       -0.00722   0.00093   0.00823   0.00131   0.00549
  69        6D+2        0.00164  -0.00031   0.00104  -0.00078   0.00248
  70        6D-2       -0.00374   0.00222   0.00532   0.00543  -0.00080
  71 6   C  1S          0.01878  -0.00454  -0.02064  -0.01226  -0.00473
  72        2S         -0.04204   0.01199   0.05200   0.03171   0.01314
  73        3S          0.01040   0.00649   0.02947   0.02070   0.01280
  74        4PX         0.09661  -0.02432  -0.08397  -0.07060   0.00603
  75        4PY         0.04254  -0.01243  -0.02352  -0.03129   0.01662
  76        4PZ         0.05850  -0.00151  -0.07440   0.00628  -0.06283
  77        5PX        -0.02382   0.00658   0.03759   0.01071   0.02153
  78        5PY         0.02319  -0.00384   0.00400  -0.00615   0.01283
  79        5PZ        -0.00456   0.00961   0.00148   0.03130  -0.02563
  80        6D 0        0.00520   0.00002  -0.00644   0.00124  -0.00724
  81        6D+1        0.00792  -0.00111  -0.00886  -0.00162  -0.00643
  82        6D-1        0.00253  -0.00054  -0.00276  -0.00139  -0.00049
  83        6D+2        0.00811  -0.00285  -0.00871  -0.00733   0.00080
  84        6D-2        0.01548  -0.00452  -0.01548  -0.01179   0.00006
  85 7   N  1S          0.07764   0.00358   0.05966   0.03967   0.00662
  86        2S          0.15878   0.00540   0.12448   0.08262   0.01665
  87        3S          0.20637   0.00181   0.19344   0.07274  -0.03542
  88        4PX        -0.08674  -0.04612  -0.02032  -0.02026  -0.17275
  89        4PY         0.33639   0.09137   0.21290   0.27206   0.02130
  90        4PZ         0.04608  -0.05846   0.11647  -0.14568   0.30549
  91        5PX         0.04389   0.00755  -0.01406  -0.01418   0.12793
  92        5PY        -0.24563  -0.06702  -0.11846  -0.18821  -0.02159
  93        5PZ        -0.03910   0.04003  -0.08298   0.10401  -0.23402
  94        6D 0        0.00729   0.00391   0.00241   0.01113  -0.00644
  95        6D+1       -0.00201   0.00017  -0.00085   0.00141  -0.00361
  96        6D-1       -0.00466   0.00162  -0.00616   0.00522  -0.01543
  97        6D+2        0.01067   0.00316   0.00756   0.00932   0.00157
  98        6D-2        0.00206   0.00317   0.00228   0.00112   0.01023
  99 8   C  1S          0.05803  -0.00177   0.00693   0.01170   0.00214
 100        2S         -0.15054   0.00494  -0.01707  -0.03200  -0.00571
 101        3S         -0.02618   0.09077   0.13643   0.13988   0.09241
 102        4PX        -0.00470  -0.00267   0.11768   0.02963   0.07462
 103        4PY         0.07308  -0.00919   0.04163  -0.01165   0.03104
 104        4PZ         0.01073   0.01469   0.01207   0.10359  -0.16673
 105        5PX        -0.00860   0.05189   0.16621   0.07597   0.09192
 106        5PY        -0.06579  -0.05207  -0.07322  -0.10903  -0.01673
 107        5PZ        -0.02212   0.01985   0.01422   0.07555  -0.10184
 108        6D 0       -0.00370  -0.00349   0.00184  -0.01139   0.01565
 109        6D+1       -0.00636  -0.00438  -0.00220  -0.01168   0.00609
 110        6D-1        0.00589  -0.00274   0.00428  -0.00937   0.02224
 111        6D+2       -0.02212  -0.00684  -0.00864  -0.01245  -0.00652
 112        6D-2       -0.00386   0.00067  -0.00857   0.00125  -0.01327
 113 9   O  1S          0.01311   0.00113  -0.00152   0.00970   0.00412
 114        2S          0.02755   0.00293  -0.00561   0.02218   0.00750
 115        3S          0.08332   0.01107   0.03589   0.05875   0.04139
 116        4PX        -0.00391   0.01577  -0.03963   0.01349  -0.08687
 117        4PY        -0.12252  -0.01882  -0.07720  -0.03600  -0.07346
 118        4PZ        -0.01529  -0.04672   0.03385  -0.13325   0.22794
 119        5PX         0.00124   0.01517  -0.03748   0.02121  -0.08166
 120        5PY        -0.09316  -0.01453  -0.06934  -0.03306  -0.06307
 121        5PZ        -0.00696  -0.03577   0.02691  -0.11079   0.18937
 122        6D 0       -0.00029   0.00059  -0.00089   0.00070  -0.00227
 123        6D+1        0.00114  -0.00003   0.00107   0.00189  -0.00165
 124        6D-1        0.00140   0.00111  -0.00011   0.00171  -0.00192
 125        6D+2       -0.00054  -0.00012   0.00127   0.00094   0.00061
 126        6D-2        0.00379   0.00040   0.00140   0.00213   0.00215
 127 10  C  1S         -0.02205  -0.00487  -0.02032  -0.01431  -0.00590
 128        2S          0.05538   0.00739   0.04522   0.03594   0.01604
 129        3S          0.12474   0.05073   0.15679   0.08280  -0.01502
 130        4PX        -0.00933  -0.00598   0.02260  -0.00546   0.01386
 131        4PY        -0.12908  -0.03030  -0.07613  -0.10375  -0.01774
 132        4PZ        -0.05281   0.00097  -0.04515   0.01009  -0.05216
 133        5PX        -0.04375   0.00343  -0.01688  -0.01180  -0.02601
 134        5PY        -0.10276  -0.04151  -0.09058  -0.08369   0.00261
 135        5PZ        -0.04983  -0.00310  -0.03195  -0.02036  -0.02167
 136        6D 0       -0.00086   0.00205  -0.00020  -0.00343   0.00157
 137        6D+1        0.00280  -0.00085   0.00411  -0.00213   0.00883
 138        6D-1        0.00130   0.00194  -0.00023   0.00379  -0.00361
 139        6D+2        0.00069   0.00103  -0.00072   0.00484  -0.00425
 140        6D-2        0.00053   0.00114   0.00169  -0.00069  -0.00045
 141 11  C  1S          0.02340   0.00251   0.01609   0.01237   0.00083
 142        2S         -0.04856  -0.01121  -0.03032  -0.03856  -0.00129
 143        3S         -0.13536  -0.02768  -0.15976  -0.03128   0.00943
 144        4PX        -0.08382  -0.03192  -0.03594  -0.03808  -0.06145
 145        4PY         0.11839   0.03191   0.05959   0.08491   0.01681
 146        4PZ         0.00973  -0.05488   0.05743  -0.07741   0.06442
 147        5PX        -0.03369  -0.01203  -0.01164  -0.02031   0.04109
 148        5PY         0.00269   0.00526  -0.02011  -0.00619   0.00968
 149        5PZ        -0.03606  -0.03928  -0.03266  -0.02520   0.01148
 150        6D 0       -0.00500   0.00837  -0.01288   0.01018  -0.00447
 151        6D+1       -0.00570  -0.00111  -0.00557   0.00276  -0.01680
 152        6D-1        0.00285  -0.00204   0.00330   0.00029   0.00162
 153        6D+2       -0.01401  -0.01016  -0.00420  -0.01783  -0.00114
 154        6D-2       -0.00349   0.00117  -0.00497  -0.00158   0.00403
 155 12  H  1S         -0.05339   0.06719  -0.11317   0.08443  -0.08219
 156        2S         -0.02181   0.03626  -0.07110   0.06982  -0.05422
 157        3PX        -0.00140   0.00091  -0.00149  -0.00026  -0.00068
 158        3PY         0.00274   0.00211   0.00060   0.00365  -0.00081
 159        3PZ        -0.00186   0.00140  -0.00297   0.00175  -0.00236
 160 13  C  1S          0.00199   0.00621  -0.00443   0.01843  -0.02316
 161        2S         -0.01186  -0.01528   0.00633  -0.05192   0.06371
 162        3S          0.03207  -0.00382   0.06299  -0.04178   0.05642
 163        4PX        -0.04770   0.10266  -0.11698   0.01240   0.18948
 164        4PY         0.01374  -0.07223   0.06987  -0.05618  -0.04084
 165        4PZ        -0.02584   0.14519  -0.13874   0.13562   0.05380
 166        5PX         0.00600   0.08298  -0.04693   0.02515   0.14463
 167        5PY         0.09002  -0.04598   0.12329   0.00158  -0.00924
 168        5PZ         0.00964   0.10157  -0.07904   0.11898   0.02449
 169        6D 0       -0.00199  -0.00307  -0.00718   0.00786   0.00439
 170        6D+1       -0.00029  -0.00512  -0.00172   0.00448  -0.00048
 171        6D-1       -0.00298  -0.00850  -0.00312   0.00440  -0.00140
 172        6D+2       -0.00200  -0.00858  -0.00054   0.00097  -0.00073
 173        6D-2        0.00018  -0.00880  -0.00250   0.00536   0.00680
 174 14  C  1S          0.01034   0.00093   0.00640   0.00366   0.00343
 175        2S         -0.02655  -0.00293  -0.01763  -0.00983  -0.00474
 176        3S         -0.08317  -0.00097  -0.05913  -0.04483  -0.04176
 177        4PX        -0.04414  -0.08173  -0.12035   0.13443   0.09920
 178        4PY        -0.00760   0.02934   0.05923  -0.11309  -0.02919
 179        4PZ        -0.01352  -0.08674  -0.09767   0.12451   0.12944
 180        5PX        -0.04861  -0.06074  -0.10074   0.08291   0.06334
 181        5PY         0.02486   0.02353   0.06833  -0.05867  -0.03752
 182        5PZ         0.00749  -0.05748  -0.05504   0.11161   0.08335
 183        6D 0        0.00244  -0.01551   0.00754  -0.00203  -0.00444
 184        6D+1        0.00099  -0.00023   0.00271  -0.00113  -0.00368
 185        6D-1        0.00095   0.00360   0.00282  -0.00387  -0.00167
 186        6D+2       -0.00055   0.00734   0.00001  -0.00471  -0.00107
 187        6D-2        0.00136  -0.00488   0.00502  -0.00243  -0.00695
 188 15  C  1S         -0.00139   0.00035  -0.00043   0.00076  -0.00171
 189        2S          0.00168  -0.00159  -0.00008  -0.00264   0.00294
 190        3S          0.01337   0.00219   0.00863   0.00012   0.00873
 191        4PX         0.01100  -0.22217   0.01368   0.06771   0.01083
 192        4PY        -0.00037   0.11691  -0.00783  -0.03182  -0.00663
 193        4PZ        -0.00234  -0.21491   0.00439   0.07876  -0.01141
 194        5PX         0.00336  -0.16033   0.00810   0.03934   0.01770
 195        5PY        -0.01881   0.07727  -0.02021  -0.03925   0.00739
 196        5PZ        -0.00044  -0.15240   0.00469   0.05529  -0.01053
 197        6D 0        0.00115   0.00503   0.00444  -0.00548  -0.00596
 198        6D+1       -0.00098   0.00216  -0.00255   0.00112   0.00258
 199        6D-1       -0.00109   0.00355  -0.00656   0.00686   0.00446
 200        6D+2       -0.00137   0.00202  -0.00774   0.00752   0.00742
 201        6D-2       -0.00088   0.00415  -0.00176  -0.00121   0.00359
 202 16  C  1S          0.00164   0.00133  -0.00048   0.00366  -0.00291
 203        2S         -0.00408  -0.00346   0.00102  -0.00887   0.00691
 204        3S         -0.00101  -0.00645   0.00406  -0.01414   0.01898
 205        4PX         0.02311  -0.13377   0.11753  -0.07829  -0.10330
 206        4PY        -0.01572   0.06437  -0.05700   0.03004   0.06292
 207        4PZ         0.03025  -0.13049   0.11823  -0.07360  -0.10112
 208        5PX         0.01633  -0.09524   0.08321  -0.05460  -0.07667
 209        5PY        -0.02565   0.04180  -0.05396   0.01254   0.04724
 210        5PZ         0.01191  -0.09336   0.07686  -0.05671  -0.07194
 211        6D 0       -0.00134  -0.00424  -0.00482   0.00646   0.00438
 212        6D+1       -0.00054  -0.00533  -0.00150   0.00355   0.00120
 213        6D-1       -0.00048  -0.00901  -0.00120   0.00470   0.00092
 214        6D+2        0.00031  -0.00848   0.00041   0.00257   0.00063
 215        6D-2       -0.00063  -0.00898  -0.00323   0.00687   0.00328
 216 17  C  1S          0.00153   0.00123  -0.00036   0.00415  -0.00385
 217        2S         -0.00233  -0.00293   0.00192  -0.00907   0.00792
 218        3S         -0.01763   0.00033  -0.00922  -0.01949   0.02038
 219        4PX         0.02352   0.08675   0.10665  -0.15862  -0.07725
 220        4PY        -0.01844  -0.04844  -0.05366   0.06619   0.05008
 221        4PZ         0.02729   0.09455   0.09925  -0.12914  -0.10560
 222        5PX         0.01670   0.06601   0.07736  -0.11482  -0.05125
 223        5PY        -0.02608  -0.03345  -0.04857   0.04013   0.03604
 224        5PZ         0.00445   0.06379   0.05704  -0.09965  -0.07960
 225        6D 0        0.00096  -0.01572   0.00605  -0.00108  -0.00555
 226        6D+1        0.00053  -0.00103   0.00174  -0.00112  -0.00170
 227        6D-1        0.00014   0.00295   0.00130  -0.00297  -0.00082
 228        6D+2        0.00012   0.00730  -0.00021  -0.00278   0.00081
 229        6D-2        0.00129  -0.00537   0.00427  -0.00169  -0.00424
 230 18  C  1S         -0.00055  -0.00086   0.00018  -0.00081   0.00112
 231        2S         -0.00018   0.00364  -0.00049  -0.00238   0.00238
 232        3S          0.06489  -0.01011   0.05045   0.04804  -0.00629
 233        4PX         0.00496   0.22446  -0.01916  -0.04905   0.01228
 234        4PY         0.00916  -0.10646   0.01176   0.04425  -0.01900
 235        4PZ         0.00389   0.21619  -0.01306  -0.06617   0.03191
 236        5PX         0.02981   0.15638   0.01146  -0.02044   0.01416
 237        5PY         0.04702  -0.07198   0.04259   0.05131   0.00092
 238        5PZ         0.01032   0.14956  -0.00428  -0.04113   0.02205
 239        6D 0        0.00050   0.00533   0.00360  -0.00670  -0.00346
 240        6D+1       -0.00035   0.00264  -0.00287   0.00302   0.00148
 241        6D-1       -0.00159   0.00381  -0.00731   0.00786   0.00368
 242        6D+2       -0.00231   0.00080  -0.00754   0.00602   0.00902
 243        6D-2       -0.00056   0.00452  -0.00244  -0.00014   0.00438
 244 19  C  1S          0.00448  -0.00355   0.00833  -0.00706   0.01778
 245        2S         -0.01132   0.00915  -0.02056   0.01770  -0.04763
 246        3S         -0.02581   0.00775  -0.05038   0.02406  -0.03232
 247        4PX        -0.00314   0.03578   0.00325  -0.02531  -0.08049
 248        4PY         0.02701  -0.01199   0.00428   0.03428   0.03352
 249        4PZ         0.04597   0.02102   0.07118  -0.05075   0.01831
 250        5PX        -0.00055   0.02165  -0.00301  -0.00812  -0.03773
 251        5PY         0.01126  -0.00468   0.00850   0.01600  -0.00286
 252        5PZ         0.04113   0.01906   0.04827  -0.01418   0.01572
 253        6D 0        0.00200   0.00029   0.00217  -0.00124  -0.00281
 254        6D+1        0.00305   0.00207   0.00457  -0.00252  -0.00218
 255        6D-1        0.00412   0.00413   0.00614  -0.00308  -0.00531
 256        6D+2        0.00023   0.00328   0.00451  -0.00692  -0.00426
 257        6D-2       -0.00213   0.00149   0.00321  -0.00892  -0.00426
 258 20  H  1S         -0.05107   0.00913   0.04564   0.02483   0.00844
 259        2S         -0.05193   0.00976   0.04908   0.02726   0.00938
 260        3PX         0.00042  -0.00037   0.00012  -0.00139   0.00182
 261        3PY        -0.00218   0.00017   0.00226   0.00013   0.00174
 262        3PZ        -0.00060   0.00100  -0.00024   0.00322  -0.00392
 263 21  H  1S          0.05846  -0.00525  -0.03986  -0.01822  -0.00099
 264        2S          0.03931  -0.00342  -0.02640  -0.01040  -0.00119
 265        3PX        -0.00052   0.00015   0.00078   0.00012   0.00082
 266        3PY        -0.00080  -0.00015   0.00019  -0.00028   0.00003
 267        3PZ        -0.00044   0.00042   0.00047   0.00115  -0.00081
 268 22  H  1S         -0.05193   0.01402   0.04868   0.03175   0.00811
 269        2S         -0.05604   0.00447   0.03155   0.00790   0.00922
 270        3PX        -0.00218   0.00067   0.00212   0.00232  -0.00105
 271        3PY         0.00058  -0.00014  -0.00090   0.00028  -0.00143
 272        3PZ        -0.00062  -0.00047   0.00177  -0.00159   0.00325
 273 23  H  1S         -0.09052   0.02227   0.08832   0.05257   0.01522
 274        2S         -0.05076   0.01331   0.05521   0.03349   0.00945
 275        3PX         0.00278  -0.00080  -0.00247  -0.00229   0.00040
 276        3PY        -0.00178   0.00015   0.00156   0.00016   0.00092
 277        3PZ         0.00058   0.00023  -0.00146   0.00095  -0.00228
 278 24  H  1S         -0.00103   0.00577  -0.00623   0.01598  -0.01913
 279        2S          0.00495   0.00514   0.00061   0.01531  -0.01336
 280        3PX         0.00040  -0.00732   0.00058   0.00252  -0.00009
 281        3PY         0.00040   0.00377   0.00026  -0.00133   0.00042
 282        3PZ        -0.00008  -0.00740   0.00030   0.00210   0.00010
 283 25  H  1S          0.00457  -0.00014   0.00218  -0.00059   0.00299
 284        2S          0.00369   0.00058   0.00152   0.00146  -0.00029
 285        3PX         0.00098  -0.00443   0.00409  -0.00268  -0.00347
 286        3PY        -0.00016   0.00227  -0.00167   0.00128   0.00207
 287        3PZ         0.00095  -0.00435   0.00405  -0.00246  -0.00366
 288 26  H  1S          0.00444   0.00375   0.00032   0.00902  -0.00719
 289        2S         -0.00026   0.00293  -0.00193   0.00447  -0.00536
 290        3PX         0.00084   0.00288   0.00354  -0.00502  -0.00307
 291        3PY        -0.00033  -0.00142  -0.00173   0.00258   0.00156
 292        3PZ         0.00120   0.00316   0.00368  -0.00434  -0.00341
 293 27  H  1S         -0.00428   0.00525  -0.00676   0.00858  -0.01430
 294        2S          0.01729   0.00879   0.00829   0.02131  -0.00751
 295        3PX        -0.00010   0.00733  -0.00081  -0.00175   0.00040
 296        3PY         0.00006  -0.00338   0.00010   0.00152  -0.00086
 297        3PZ         0.00062   0.00722  -0.00006  -0.00187   0.00099
 298 28  H  1S          0.04475   0.04301   0.07323  -0.06170  -0.04966
 299        2S          0.02445   0.01096   0.05520  -0.06113  -0.01133
 300        3PX        -0.00182   0.00037  -0.00105  -0.00153  -0.00002
 301        3PY         0.00056   0.00015  -0.00010   0.00111   0.00070
 302        3PZ        -0.00061  -0.00140  -0.00119   0.00200   0.00105
 303 29  H  1S          0.00963  -0.03615  -0.03688   0.08641   0.07004
 304        2S          0.01037  -0.01654  -0.02365   0.05894   0.06262
 305        3PX         0.00015  -0.00105  -0.00126   0.00225  -0.00006
 306        3PY        -0.00011   0.00011   0.00022  -0.00118  -0.00102
 307        3PZ         0.00170   0.00074   0.00218  -0.00090   0.00105
 308 30  H  1S         -0.02523  -0.01861   0.00535  -0.07665   0.05053
 309        2S         -0.03199  -0.01209  -0.01434  -0.05282   0.02407
 310        3PX         0.00018  -0.00002   0.00080   0.00003  -0.00083
 311        3PY        -0.00219  -0.00042  -0.00159   0.00017  -0.00192
 312        3PZ        -0.00261  -0.00099  -0.00088  -0.00232  -0.00000
                          63        64        65        66        67
                           V         V         V         V         V
     Eigenvalues --    -0.04710  -0.02332  -0.00987   0.00087   0.06431
   1 1   C  1S          0.00025   0.00070  -0.00135   0.00106  -0.00313
   2        2S         -0.00065  -0.00141   0.00251  -0.00155   0.00799
   3        3S         -0.00805  -0.00013   0.02433  -0.00737   0.00949
   4        4PX        -0.11791   0.02749   0.01167  -0.02181   0.09984
   5        4PY        -0.09513   0.02160   0.01006  -0.01822   0.07306
   6        4PZ         0.25390  -0.05837  -0.02565   0.04528  -0.19113
   7        5PX        -0.15401   0.02870   0.01236  -0.03142   0.18649
   8        5PY        -0.12816   0.02465   0.01499  -0.02512   0.11217
   9        5PZ         0.33648  -0.06080  -0.03866   0.06843  -0.33761
  10        6D 0       -0.00336  -0.02207  -0.00069   0.00124  -0.00390
  11        6D+1        0.00318  -0.00157  -0.00066   0.00113  -0.00621
  12        6D-1       -0.00719  -0.01944   0.00001   0.00002   0.00390
  13        6D+2       -0.00422  -0.00537  -0.00002  -0.00016   0.00298
  14        6D-2        0.00271   0.01393   0.00050  -0.00079   0.00249
  15 2   C  1S         -0.00063   0.00002  -0.00149   0.00250  -0.00710
  16        2S          0.00093   0.00069   0.00233  -0.00465   0.01750
  17        3S          0.01640   0.00123  -0.01890  -0.00965   0.13440
  18        4PX         0.08173   0.11610  -0.00584   0.01170  -0.06869
  19        4PY         0.06767   0.09663  -0.00181   0.00411  -0.05013
  20        4PZ        -0.17816  -0.25280   0.00880  -0.01846   0.16769
  21        5PX         0.10680   0.16328   0.00072   0.01395  -0.11199
  22        5PY         0.09001   0.13986   0.00131   0.00886  -0.08650
  23        5PZ        -0.24491  -0.35352   0.01768  -0.02745   0.26667
  24        6D 0       -0.00183  -0.00648  -0.00002  -0.00015   0.00527
  25        6D+1        0.01070  -0.01431  -0.00191   0.00292  -0.00453
  26        6D-1       -0.01472   0.01106   0.00156  -0.00288   0.00931
  27        6D+2       -0.01061   0.01118   0.00093  -0.00183   0.00499
  28        6D-2        0.00287   0.00194  -0.00092   0.00138  -0.00643
  29 3   C  1S          0.00193   0.00079   0.00101  -0.00195  -0.00176
  30        2S         -0.00757  -0.00310  -0.00213   0.00497   0.00084
  31        3S         -0.03387  -0.00116   0.02717  -0.00679  -0.01663
  32        4PX         0.05559  -0.13580  -0.00531   0.00769   0.02197
  33        4PY         0.04828  -0.11661   0.00032   0.00122   0.03541
  34        4PZ        -0.11214   0.29803   0.02034  -0.03191  -0.03504
  35        5PX         0.05973  -0.20310   0.00923   0.00377   0.00140
  36        5PY         0.06052  -0.16562  -0.02605   0.00887   0.10416
  37        5PZ        -0.11743   0.42269   0.02478  -0.04520  -0.02378
  38        6D 0       -0.01815  -0.00613   0.00202  -0.00319   0.01324
  39        6D+1       -0.01390  -0.00933   0.00154  -0.00252   0.00988
  40        6D-1       -0.00099   0.00521   0.00046  -0.00063   0.00188
  41        6D+2        0.00636   0.00641   0.00043  -0.00050  -0.00156
  42        6D-2        0.00932   0.00250  -0.00045   0.00151  -0.00671
  43 4   C  1S          0.00072   0.00182  -0.00743   0.00585   0.00368
  44        2S         -0.00041  -0.00465   0.01794  -0.01430  -0.00797
  45        3S         -0.01630  -0.04227   0.09121  -0.11694  -0.05714
  46        4PX        -0.11809   0.02815  -0.00619  -0.00456   0.06374
  47        4PY        -0.10421   0.02433   0.01857  -0.02667   0.05745
  48        4PZ         0.26405  -0.05559  -0.03741   0.05728  -0.12967
  49        5PX        -0.11233   0.08075  -0.07409   0.05292   0.13729
  50        5PY        -0.07632   0.03427   0.03159  -0.05689   0.13155
  51        5PZ         0.30652  -0.10800  -0.05995   0.09235  -0.13172
  52        6D 0       -0.00476   0.02375   0.00058  -0.00013  -0.01147
  53        6D+1       -0.01615   0.00177  -0.00041   0.00120  -0.01840
  54        6D-1        0.01258   0.01982  -0.00011  -0.00033   0.00891
  55        6D+2        0.01149   0.00632  -0.00006   0.00042   0.00755
  56        6D-2       -0.00050  -0.01474  -0.00086   0.00226   0.00059
  57 5   N  1S          0.00214   0.00000   0.00135  -0.00206   0.00733
  58        2S          0.00289   0.00011   0.00273  -0.00423   0.01481
  59        3S          0.03963  -0.00353   0.00826  -0.01481   0.08993
  60        4PX        -0.10039  -0.10457   0.00450  -0.00453  -0.01693
  61        4PY        -0.09067  -0.08646   0.00417   0.00076  -0.03159
  62        4PZ         0.21744   0.22038  -0.00443   0.00806   0.03427
  63        5PX         0.10572   0.11610   0.00387   0.00070   0.01550
  64        5PY         0.10730   0.09405   0.00202  -0.00459   0.05019
  65        5PZ        -0.23810  -0.24939   0.01098  -0.01547  -0.04411
  66        6D 0       -0.00432  -0.00159  -0.00000  -0.00004  -0.00167
  67        6D+1       -0.00928   0.00890   0.00084  -0.00194   0.00733
  68        6D-1        0.00713  -0.01236  -0.00163   0.00271  -0.01016
  69        6D+2        0.00682  -0.00869  -0.00174   0.00249  -0.00752
  70        6D-2        0.00167   0.00291  -0.00036  -0.00013   0.00307
  71 6   C  1S          0.00164   0.00041  -0.00027  -0.00003   0.00071
  72        2S         -0.00449  -0.00039  -0.00138   0.00175  -0.00016
  73        3S         -0.00237  -0.00322  -0.00261  -0.00049  -0.00872
  74        4PX         0.01820  -0.14530  -0.00924   0.01692  -0.07291
  75        4PY         0.00976  -0.11535  -0.00857   0.01498  -0.06686
  76        4PZ        -0.02927   0.30775   0.01994  -0.03737   0.17433
  77        5PX         0.03516  -0.17121  -0.01641   0.02485  -0.10631
  78        5PY         0.02705  -0.13710  -0.01293   0.01704  -0.10019
  79        5PZ        -0.06561   0.36562   0.02398  -0.05148   0.26519
  80        6D 0        0.01976   0.00497  -0.00142   0.00273  -0.01061
  81        6D+1        0.01655   0.00877  -0.00070   0.00144  -0.00370
  82        6D-1       -0.00150  -0.00613  -0.00030   0.00075  -0.00575
  83        6D+2       -0.00956  -0.00693   0.00094  -0.00091   0.00066
  84        6D-2       -0.01012  -0.00178   0.00126  -0.00152   0.00528
  85 7   N  1S         -0.00036   0.00097   0.01353  -0.02592   0.00196
  86        2S          0.00388   0.00571   0.02295  -0.05887   0.01224
  87        3S         -0.06413  -0.03736   0.16460  -0.13508  -0.07599
  88        4PX        -0.07235   0.01895   0.06943  -0.06991  -0.10278
  89        4PY        -0.04363   0.01986  -0.03306   0.00913  -0.03601
  90        4PZ         0.22209  -0.06676  -0.01640  -0.00406   0.19493
  91        5PX         0.08434  -0.03535  -0.08746   0.04351   0.17940
  92        5PY         0.03675  -0.02302   0.04500  -0.02604   0.05471
  93        5PZ        -0.22837   0.03265   0.02459   0.00534  -0.22571
  94        6D 0        0.00251  -0.00031  -0.00153  -0.00089   0.00877
  95        6D+1        0.00616  -0.00303   0.00156  -0.00164   0.01148
  96        6D-1       -0.00538   0.00183   0.00087  -0.00147  -0.00040
  97        6D+2       -0.00352   0.00148  -0.00236   0.00283  -0.00492
  98        6D-2        0.00043   0.00023  -0.00135   0.00413  -0.00118
  99 8   C  1S         -0.00055  -0.00070  -0.00189  -0.00683  -0.00445
 100        2S          0.00223  -0.00242   0.01575   0.01903   0.02238
 101        3S          0.02924   0.10317  -0.13724   0.12730  -0.05398
 102        4PX        -0.06651   0.01623  -0.01014   0.00229  -0.13584
 103        4PY        -0.04336   0.01045   0.00775  -0.01510  -0.06889
 104        4PZ         0.19029  -0.04687   0.00910  -0.04240   0.34868
 105        5PX        -0.06274   0.00818  -0.04865   0.08835  -0.07330
 106        5PY        -0.06312  -0.02069   0.04727  -0.05269  -0.12376
 107        5PZ         0.14683  -0.01913  -0.01101  -0.03195   0.42485
 108        6D 0        0.01759  -0.00211  -0.00149   0.00275   0.00751
 109        6D+1        0.02089  -0.00506   0.00134   0.00036   0.00600
 110        6D-1        0.00025   0.00187  -0.00227   0.00045   0.00747
 111        6D+2       -0.00957   0.00264   0.00624  -0.00634  -0.00205
 112        6D-2       -0.00949   0.00228   0.00047  -0.00265  -0.00084
 113 9   O  1S          0.00350  -0.00021   0.00571  -0.00135   0.00143
 114        2S          0.00691  -0.00007   0.00576  -0.00287   0.00391
 115        3S          0.02386  -0.00234   0.07749  -0.00390   0.01237
 116        4PX         0.03831  -0.00198  -0.04302   0.00669   0.05133
 117        4PY         0.01564   0.00454   0.00442  -0.01558   0.02382
 118        4PZ        -0.10141   0.00361  -0.01259   0.01220  -0.11155
 119        5PX         0.03335  -0.01089  -0.06526   0.00616   0.07074
 120        5PY         0.01120   0.00498   0.00257  -0.01233  -0.00510
 121        5PZ        -0.09172   0.01139  -0.01658   0.02104  -0.11261
[...]
 .00012091,0.00039939,-0.00019064,0.00000285,-0.00000038,-0.00000048,0.
 00000389,0.00000186,-0.00000035,-0.00000545,-0.00000337,0.00000500,0.0
 0000168,-0.00000367,-0.00000039,-0.09434786,0.27885553,-0.00001256,0.0
 0000657,0.00000446,0.00000801,-0.00000293,-0.00000574,-0.00003066,-0.0
 0000053,0.00000602,0.00006773,-0.00002074,-0.00001037,-0.00002341,0.00
 001105,0.00000165,0.00000867,-0.00001568,-0.00000124,-0.00015323,-0.00
 021603,-0.00010481,-0.00006984,0.00028873,0.00012836,0.00026103,-0.000
 33060,-0.00004733,-0.00007845,0.00021267,-0.00012697,0.00007959,0.0010
 4276,-0.00022319,-0.00017464,-0.00002896,-0.00014204,-0.00643399,-0.00
 095613,0.00154377,-0.00618701,0.01913189,-0.00263964,-0.04889158,0.092
 29950,-0.08750692,0.00332866,-0.00953973,0.00709350,-0.00405727,-0.001
 81584,0.00369794,0.00014393,-0.00062743,-0.00079922,0.00263210,0.00018
 903,-0.00066319,-0.00000075,-0.00000030,0.00000098,-0.00000242,-0.0000
 0059,0.00000251,-0.00000078,0.00000194,0.00000167,-0.00000108,0.000002
 16,0.00000130,0.05647538,-0.09893349,0.08256487,-0.00001308,0.00001537
 ,0.00000683,0.00001193,-0.00000329,-0.00000590,-0.00003195,-0.00000472
 ,0.00001024,0.00006123,0.00000376,0.00001395,-0.00002718,0.00001192,0.
 00001384,-0.00000127,-0.00002065,0.,-0.00004399,0.00006621,-0.00004342
 ,0.00005111,-0.00006984,-0.00000380,-0.00015429,0.00005309,-0.00007392
 ,-0.00004702,-0.00011960,0.00010363,-0.00045401,-0.00003366,0.00027887
 ,0.00005536,-0.00005069,0.00004731,0.00004199,0.00017679,0.00102403,0.
 00376977,-0.00238369,-0.00346459,-0.00368463,0.00257347,-0.00707229,-0
 .19964533,-0.00417914,-0.15379688,-0.00354017,-0.00314932,-0.00664387,
 0.00341402,0.00207660,-0.00332439,0.00001228,0.00032620,-0.00035730,-0
 .00000372,0.00000023,-0.00000038,-0.00000385,-0.00000201,0.00000032,0.
 00000692,0.00000461,-0.00000435,-0.00000380,0.00000461,-0.00000032,-0.
 00163106,0.00008150,0.00259112,0.20367276,-0.00000205,0.00000499,0.000
 00085,0.00000444,0.00000049,-0.00000181,-0.00000534,-0.00000174,0.0000
 0278,0.00001007,0.00001067,0.00000155,-0.00000463,0.00000475,0.0000029
 1,-0.00000584,-0.00000269,0.00000162,0.00001712,0.00012149,0.00001419,
 0.00004072,-0.00019661,-0.00004977,-0.00019805,0.00017741,0.00002444,0
 .00006009,-0.00029843,-0.00009185,-0.00000093,0.00001686,-0.00002274,-
 0.00001599,0.00001097,-0.00004149,-0.00006644,-0.00139681,0.00000869,-
 0.00194075,-0.00466954,-0.00143003,-0.02016699,0.00397485,-0.01912090,
 -0.00414104,-0.05789367,-0.00339900,0.01975126,0.00487021,0.01874196,0
 .00160159,-0.00429301,0.00183218,-0.00073601,0.00060830,-0.00069478,-0
 .00000058,0.00000059,0.00000014,-0.00000106,-0.00000038,0.00000007,0.0
 0000450,0.00000316,-0.00000241,-0.00000160,0.00000052,0.00000081,0.000
 40141,0.00102587,0.00018766,0.00475374,0.05680940,-0.00000507,0.000005
 45,0.00000184,0.00000692,0.00000217,-0.00000135,-0.00000998,-0.0000038
 7,0.00000552,0.00001718,0.00002000,-0.00003329,-0.00002362,0.00000356,
 0.00000355,0.00000446,-0.00001110,-0.00000055,-0.00006417,-0.00002499,
 0.00007822,0.00009245,-0.00004266,-0.00007076,-0.00011198,-0.00001256,
 0.00011405,0.00013914,-0.00013092,-0.00018700,0.00052365,-0.00008191,-
 0.00032360,-0.00005948,0.00008493,-0.00004063,0.00085899,0.00004881,-0
 .00006543,-0.00337532,-0.00183017,0.00429740,-0.00635140,0.00245561,-0
 .00235122,-0.15387601,-0.00348900,-0.18370154,-0.00746112,-0.00292677,
 -0.00336287,-0.00317788,0.00233897,0.00364990,-0.00035337,0.00034029,0
 .00001570,-0.00000198,0.00000031,0.00000135,-0.00000132,-0.00000131,0.
 00000082,0.00000613,0.00000474,-0.00000181,-0.00000090,0.00000272,0.00
 000102,0.00258174,-0.00012412,-0.00190229,0.16860858,0.00354743,0.1859
 8917,-0.00001728,0.00002019,0.00000664,0.00001212,-0.00000224,-0.00000
 445,-0.00003223,-0.00000085,0.00001205,0.00006369,-0.00001168,-0.00002
 651,-0.00002758,0.00003201,0.00002441,-0.00000542,-0.00003250,0.000000
 67,-0.00010949,-0.00000404,0.00007458,0.00006508,0.00002689,0.00000422
 ,-0.00013007,-0.00011059,0.00002241,-0.00026371,0.00006117,-0.00011154
 ,0.00039134,-0.00098427,-0.00015087,-0.00001225,0.00000030,-0.00001483
 ,0.00046288,0.00058669,-0.00665182,-0.00088826,0.00066498,0.00003098,0
 .00281345,0.00203036,-0.00388803,0.00732900,0.01101431,0.00348054,-0.0
 8734166,-0.09276156,-0.04508033,-0.00319306,-0.02039739,-0.00623107,-0
 .00032772,-0.00003191,0.00039729,-0.00000317,-0.00000042,0.00000015,-0
 .00000349,-0.00000094,0.00000056,0.00000725,0.00000686,-0.00000467,-0.
 00000910,0.00000474,0.00000051,0.00029344,0.00054770,0.00006499,-0.001
 56173,-0.00021049,0.00248132,0.08385330,-0.00000941,0.00001196,0.00000
 410,0.00000905,-0.00000127,-0.00000430,-0.00002258,-0.00000229,0.00000
 768,0.00004073,-0.00000015,-0.00000563,-0.00002284,0.00001146,0.000010
 18,-0.00000013,-0.00001877,0.00000016,-0.00010721,-0.00002267,-0.00000
 180,0.00004764,0.00001327,-0.00002104,-0.00007254,-0.00001450,0.000003
 01,0.00003092,0.00001768,-0.00002406,0.00026003,0.00008069,0.00016086,
 -0.00003715,-0.00000435,-0.00001306,0.00026054,0.00164880,0.00031178,0
 .00071918,0.00029354,0.00069586,0.00261176,-0.00283836,0.00268183,-0.0
 1177947,-0.01648919,-0.01063685,-0.09297002,-0.27652555,-0.08251584,0.
 00221149,0.00365128,0.00215771,-0.00006367,0.00008041,-0.00008296,-0.0
 0000284,0.00000014,0.00000051,-0.00000219,-0.00000153,0.00000082,0.000
 00623,0.00000449,-0.00000180,-0.00000329,0.00000398,0.00000033,-0.0005
 3016,-0.00091284,-0.00045639,0.00008254,0.00097287,-0.00003781,0.09939
 947,0.28941432,-0.00001266,0.00001181,0.00000480,0.00000962,-0.0000010
 3,-0.00000703,-0.00002973,-0.00000242,0.00000821,0.00006317,-0.0000036
 7,-0.00000952,-0.00003139,0.00001786,0.00000346,0.00000458,-0.00002130
 ,0.00000032,-0.00000355,-0.00001425,-0.00002899,0.00000773,0.00009790,
 0.00003427,-0.00002275,-0.00011074,0.00000416,-0.00007406,0.00007605,-
 0.00031008,0.00000392,-0.00094677,0.00024425,-0.00000803,0.00002375,-0
 .00002551,-0.00671659,0.00086756,0.00123559,0.00004240,0.00054138,-0.0
 0091611,-0.00384232,0.00225232,0.00305697,0.00412208,0.01110202,0.0069
 5425,-0.04519218,-0.08255046,-0.07854531,-0.00678758,-0.01951446,-0.00
 203609,0.00038832,0.00000462,-0.00033133,-0.00000177,0.00000001,0.0000
 0149,-0.00000244,-0.00000114,0.00000200,0.00000511,0.00000493,-0.00000
 031,-0.00000337,0.00000307,0.00000260,0.00010577,0.00054073,0.00026626
 ,0.00245696,-0.00035151,-0.00179263,0.05276656,0.08794976,0.07391514,0
 .00001348,-0.00000182,-0.00000737,-0.00000896,-0.00000026,-0.00000337,
 0.00001667,0.00000551,-0.00001309,-0.00001971,-0.00005651,0.00009149,0
 .00006383,0.00001861,-0.00000924,-0.00002947,0.00002516,0.00001148,0.0
 0006797,0.00020226,-0.00037171,-0.00028985,-0.00025060,0.00007885,-0.0
 0017572,0.00045910,0.00000828,0.00024797,-0.00000990,0.00013645,-0.001
 27111,0.00003810,0.00210021,0.00035613,0.00002110,0.00023141,0.0081760
 4,-0.00978006,0.00425868,0.00281339,-0.00236132,-0.00416368,-0.0007500
 7,-0.00047381,0.00014705,0.00080650,-0.00114521,-0.00619789,-0.0025793
 3,0.01935091,-0.00636195,-0.08819824,0.09059747,-0.04939908,0.00011489
 ,-0.00049270,0.00022948,0.00000495,0.00000135,-0.00000263,0.00000356,0
 .00000301,-0.00000117,-0.00000061,-0.00000049,0.00000522,-0.00000251,-
 0.00000688,0.00000102,-0.00055327,0.00007273,0.00064883,-0.00020314,0.
 00088990,-0.00037864,-0.00135016,-0.00008087,0.00271940,0.08282485,0.0
 0001286,-0.00000182,-0.00000775,-0.00000501,0.00000323,-0.00000332,0.0
 0002352,-0.00000107,-0.00001364,-0.00003091,-0.00001230,0.00004542,0.0
 0004904,0.00000921,-0.00000255,-0.00002781,0.00002546,0.00000699,-0.00
 002835,0.00036899,-0.00003357,-0.00020872,-0.00044562,0.00007334,-0.00
 019483,0.00065390,0.00001176,0.00043488,-0.00011591,-0.00001880,0.0012
 7454,0.00083892,0.00057572,-0.00038263,-0.00018921,-0.00056784,0.01147
 543,-0.01706464,0.01176591,-0.00260283,-0.00254948,-0.00236664,-0.0006
 7157,0.00016229,-0.00061189,-0.00046647,0.00162040,-0.00045201,-0.0025
 9002,0.00477600,-0.00253835,0.09036918,-0.26575775,0.09010924,0.000548
 61,-0.00061079,0.00054828,0.00000403,0.00000168,-0.00000054,0.00000419
 ,0.00000169,-0.00000070,0.00000346,0.00000082,0.00000425,-0.00000008,-
 0.00000470,0.00000070,0.00008371,-0.00003362,0.00006097,-0.00015785,0.
 00011141,-0.00014515,0.00024899,0.00061487,0.00017772,-0.09690622,0.27
 795402,0.00001748,-0.00002084,-0.00000435,-0.00001018,0.00000467,0.000
 00872,0.00004019,-0.00000166,-0.00000965,-0.00008242,0.00005592,-0.000
 03862,0.00000596,-0.00003764,-0.00003734,0.00001263,0.00002886,-0.0000
 0428,0.00051148,0.00010034,0.00011711,0.00010775,-0.00020252,-0.000029
 41,0.00004289,0.00005877,0.00004879,0.00012519,0.00004893,-0.00008129,
 0.00172742,-0.00001395,-0.00125954,-0.00017000,0.00020924,-0.00048469,
 0.00356840,-0.00886450,0.00767744,-0.00418788,-0.00183100,0.00365854,0
 .00012252,-0.00056777,-0.00077203,-0.00643680,-0.00094319,0.00146268,-
 0.00601209,0.01862690,-0.00223736,-0.04893527,0.08958770,-0.08709984,0
 .00021383,-0.00040473,0.00013603,0.00000209,0.00000017,0.00000156,0.00
 000322,0.00000022,-0.00000095,-0.00000431,-0.00000495,0.00000136,0.000
 00959,-0.00000328,0.00000003,0.00065873,0.00002163,-0.00064341,-0.0003
 3664,0.00088620,-0.00022985,0.00276953,-0.00020723,-0.00171646,0.05636
 172,-0.09638441,0.08156825,-0.00000076,-0.00002491,-0.00000408,-0.0000
 3067,-0.00001648,0.00002851,-0.00000155,0.00004364,-0.00000316,0.00000
 389,-0.00005243,0.00003307,0.00000816,-0.00000812,-0.00000667,0.000034
 38,0.00000544,-0.00000652,-0.00055914,0.00020071,0.00050262,-0.0003529
 4,0.00148470,0.00000208,0.00218322,-0.00110546,-0.00001248,0.00926897,
 0.01253169,-0.01587417,-0.00175498,0.00005134,-0.00159071,-0.00006782,
 0.00049873,0.00016819,-0.00107647,-0.00017739,-0.00062004,-0.00540335,
 -0.00670552,0.00860668,0.00104065,-0.00033578,-0.00005035,0.00040056,-
 0.00006435,-0.00027051,-0.00013865,-0.00023187,0.00009250,0.00029018,-
 0.00019900,-0.00037261,-0.10697119,-0.07243674,0.09330801,0.00000310,-
 0.00000483,-0.00000309,0.00000169,0.00000407,-0.00000178,-0.00007726,-
 0.00003473,-0.00001590,0.00000316,-0.00000296,-0.00000170,-0.00051792,
 0.00014759,-0.00003521,-0.00001061,-0.00000543,-0.00002428,-0.00001157
 ,0.00002437,0.00000282,-0.00001920,-0.00008569,-0.00005967,0.11363426,
 0.00000367,0.00002914,-0.00000055,0.00003267,0.00000135,-0.00002649,-0
 .00000457,-0.00000116,-0.00000207,0.00001470,0.00010030,-0.00001085,-0
 .00002043,0.00000489,-0.00001173,-0.00002785,-0.00001466,0.00001335,0.
 00035486,0.00031007,-0.00002412,0.00051487,-0.00150262,-0.00012647,-0.
 00192076,0.00205171,-0.00098276,-0.00470217,-0.00638894,0.00627444,-0.
 00023957,-0.00110160,0.00137963,0.00031405,-0.00047690,-0.00001127,-0.
 00136250,-0.00177334,-0.00106015,-0.01095040,-0.01427346,0.01474864,0.
 00174282,0.00116727,0.00098147,0.00056225,-0.00104601,-0.00065756,-0.0
 0034418,0.00030168,-0.00017844,0.00108223,-0.00041871,-0.00058288,-0.0
 7059700,-0.12079365,0.10409675,-0.00000316,0.00000239,0.00000367,-0.00
 000220,-0.00000130,0.00000428,0.00002993,0.00003835,0.00002145,-0.0000
 0593,0.00000358,0.00000457,-0.00060368,0.00020080,0.00025405,-0.000014
 26,-0.00000789,-0.00001909,-0.00013552,0.00000957,0.00009471,-0.000106
 49,-0.00017856,-0.00004479,0.07693926,0.13329635,-0.00000680,-0.000008
 83,0.00000169,-0.00000406,-0.00002137,0.00000344,-0.00002661,0.0000529
 6,0.00000719,0.00003585,0.00001920,-0.00014304,-0.00004251,-0.00001013
 ,0.00000739,0.00003178,-0.00000526,0.00000008,-0.00044353,-0.00007751,
 0.00007818,-0.00039110,0.00090086,0.00073908,0.00254660,-0.00182017,0.
 00239398,0.00980745,0.00912900,-0.01411443,-0.00062489,-0.00065152,-0.
 00156608,-0.00004265,0.00052516,0.00021078,-0.00069881,-0.00099885,-0.
 00086114,-0.00809936,-0.00871009,0.01376485,-0.00020561,-0.00013868,0.
 00000420,0.00058499,0.00046942,-0.00005084,0.00003209,-0.00049956,0.00
 018782,0.00044557,-0.00029091,-0.00045489,0.08961645,0.10322800,-0.176
 21825,0.00000066,-0.00000361,-0.00000074,-0.00000354,0.00000245,0.0000
 0314,-0.00005411,0.00000136,0.00001022,-0.00000067,0.00000016,0.000000
 38,-0.00013872,0.00024588,0.00003482,0.00000834,0.00002692,-0.00002566
 ,0.00002097,0.00001231,-0.00000263,-0.00004822,-0.00011627,-0.00002187
 ,-0.09639723,-0.11048629,0.18661756,-0.00002552,0.00005067,0.00000886,
 0.00004054,-0.00000759,-0.00001899,-0.00007008,0.00000550,0.00001810,0
 .00015365,0.00017663,0.00006074,-0.00010568,0.00003642,0.00007474,-0.0
 0004977,-0.00004877,-0.00000821,0.00009392,0.00069937,0.00029007,0.000
 17698,-0.00171222,-0.00063091,-0.00431717,0.00254871,-0.00224363,-0.00
 966122,0.00950488,0.01156482,-0.00073368,-0.00033884,-0.00125742,0.000
 13331,0.00034312,0.00008319,-0.00124448,-0.00081428,-0.00077791,0.0134
 3842,-0.01098988,-0.00883769,0.00003890,-0.00018619,-0.00010294,-0.000
 01326,0.00056340,0.00057552,0.00023663,-0.00055022,0.00007499,-0.00050
 335,-0.00034545,0.00049232,-0.15714835,0.10531397,0.08183570,-0.000006
 93,0.00000099,0.00000744,-0.00001214,-0.00000348,0.00000653,0.00003334
 ,0.00003937,-0.00000809,-0.00001397,0.00001042,0.00000414,0.00001889,0
 .00028387,-0.00017791,-0.00002877,0.00002632,0.00000883,-0.00000264,0.
 00001230,0.00002046,-0.00005005,-0.00014443,-0.00004621,-0.00864078,0.
 00920398,0.00595084,0.16765108,0.00001224,0.00000410,-0.00000424,0.000
 00287,0.00000415,-0.00000299,0.00002057,-0.00000503,-0.00001033,-0.000
 07584,-0.00000777,0.00006379,0.00004882,-0.00001613,-0.00002265,-0.000
 01648,0.00000952,0.00000159,0.00043732,0.00008544,-0.00000433,0.000074
 27,-0.00054514,0.00011138,-0.00028275,0.00010568,0.00022573,0.00471974
 ,-0.00544726,-0.00516305,0.00058462,-0.00083766,0.00023005,0.00006735,
 -0.00026542,0.00004214,-0.00159864,-0.00162030,-0.00127707,0.01342078,
 -0.01600806,-0.01144017,0.00113340,0.00115715,0.00173172,-0.00072433,-
 0.00109167,0.00066845,-0.00026247,0.00031828,-0.00038811,-0.00050555,-
 0.00037779,0.00118347,0.10718093,-0.14084714,-0.07851572,0.00000125,0.
 00000124,0.,0.00000306,0.00000094,-0.00000060,0.00000808,0.00000628,0.
 00000827,-0.00000036,-0.00000181,-0.00000044,0.00023590,0.00017452,-0.
 00072101,-0.00002929,-0.00001814,-0.00002017,0.00009862,0.00000466,-0.
 00014891,-0.00005556,-0.00018893,-0.00010052,-0.01112772,0.01101491,0.
 00807844,-0.11296148,0.15343705,-0.00000512,0.00001022,0.00000015,0.00
 000077,-0.00000566,0.00000735,0.00000073,0.00000836,0.00000815,0.00004
 066,0.00015131,0.00001585,-0.00006707,0.00004326,0.00006581,-0.0000294
 5,-0.00000359,-0.00000960,0.00000470,0.00055819,0.00040291,-0.00036007
 ,-0.00057253,-0.00017957,-0.00268401,0.00174682,-0.00071231,-0.0132754
 2,0.01359412,0.00963490,-0.00099558,0.00056450,-0.00196579,0.00014274,
 0.00038209,0.00009422,-0.00107303,-0.00007761,-0.00111525,0.00710951,-
 0.00666621,-0.00507131,-0.00005321,-0.00033199,0.00117611,-0.00023765,
 -0.00008760,0.00034503,-0.00000880,-0.00022175,-0.00017268,-0.00028140
 ,-0.00005282,0.00032703,0.08598621,-0.08024894,-0.10824836,-0.00000135
 ,-0.00000121,0.00000224,-0.00000199,-0.00000107,-0.00000047,-0.0000013
 1,-0.00000232,-0.00002069,-0.00000699,0.00000234,0.00000038,-0.0000727
 5,0.00012706,-0.00053326,-0.00002960,-0.00001357,-0.00001512,0.0000017
 5,0.00002170,-0.00001787,-0.00006488,-0.00009355,-0.00000149,0.0135689
 4,-0.01387775,-0.00971665,-0.08715615,0.08547882,0.11428935,-0.0000150
 2,0.00007675,0.00000871,0.00003761,-0.00001654,-0.00002504,-0.00000326
 ,0.00003258,0.00004533,-0.00001763,0.00118072,-0.00042112,-0.00050529,
 0.00015184,-0.00001195,-0.00010164,0.00001746,0.00009427,0.00064084,0.
 00069810,-0.00055622,-0.00226885,-0.00731476,0.00263150,-0.02201997,0.
 01464579,0.03549996,-0.04204264,0.00469115,0.01212624,0.00295897,0.000
 38311,-0.00249331,0.00042056,-0.00007229,-0.00008908,-0.00017669,-0.00
 030239,-0.00037102,-0.00088240,0.00142730,-0.00146597,-0.00047617,-0.0
 0072939,-0.00004003,-0.00011090,0.00012215,-0.00006011,-0.00000186,-0.
 00006951,0.00001912,-0.00006016,-0.00018679,-0.00000922,0.00235156,-0.
 00431822,-0.01748158,-0.00001488,-0.00000042,0.00000143,-0.00002059,-0
 .00000604,0.00000637,0.00008298,0.00005644,0.00000867,-0.00002986,0.00
 001411,0.00002932,0.00005882,0.00000529,0.00002072,-0.00000773,-0.0000
 5793,-0.00005287,-0.00000095,-0.00001188,0.00000954,-0.00000881,-0.000
 02900,-0.00001916,-0.00123738,0.00024539,-0.00185317,0.00061220,-0.000
 40936,-0.00045019,0.06283915,0.00003742,0.00001471,-0.00003463,0.00001
 132,-0.00000173,-0.00000238,0.00006491,0.00003895,-0.00000464,-0.00030
 826,0.00029371,-0.00024936,0.00015658,-0.00008833,0.00001259,-0.000061
 38,0.00007466,0.00001668,0.00248218,-0.00273778,-0.00185498,-0.0004293
 5,-0.00429468,0.00089381,-0.00501351,0.00736950,0.00872947,0.01002026,
 -0.08617073,-0.09798296,0.00166534,-0.00478414,-0.02507569,0.00007773,
 0.00170301,0.00059302,0.00057956,-0.00395220,-0.00013957,0.00038152,-0
 .00184076,0.00131818,0.00031761,0.00070219,-0.00006052,0.00009764,-0.0
 0012492,0.00004744,-0.00006859,-0.00026048,-0.00007051,-0.00091474,0.0
 0031901,-0.00052558,0.00123121,0.00617739,0.01474100,0.00000857,0.0000
 0371,0.00000011,0.00000432,0.00000246,-0.00000426,-0.00000172,0.000004
 70,0.00001542,0.00000315,-0.00000906,0.00000913,-0.00006085,0.00000953
 ,-0.00002262,-0.00001266,0.00005410,0.00004661,-0.00005888,-0.00000252
 ,-0.00009952,0.00004350,0.00001150,0.00000343,0.00068787,-0.00055358,0
 .00114691,-0.00071709,0.00095433,-0.00043062,-0.01022366,0.08708741,0.
 00001072,-0.00004409,-0.00000630,-0.00002777,0.00001118,0.00002437,0.0
 0002794,-0.00001969,-0.00002426,-0.00004783,-0.00029620,0.00003121,0.0
 0016172,-0.00003686,0.00001685,0.00004237,0.00002652,-0.00002528,-0.00
 084441,0.00046412,0.00014655,-0.00043024,0.00330127,-0.00075207,0.0097
 4234,-0.00368845,-0.00373424,0.01933350,-0.09432731,-0.29438060,-0.000
 82150,0.00216910,0.00370501,-0.00010563,-0.00025757,0.00106902,-0.0002
 8619,0.00007064,0.00003961,-0.00109785,0.00171235,-0.00163357,-0.00027
 385,-0.00075681,0.00003378,-0.00015838,0.00005962,-0.00011707,-0.00001
 347,0.00001107,-0.00001166,0.00009866,-0.00005836,0.00005879,0.0005489
 8,-0.00742612,-0.01281253,0.00000502,-0.00000028,-0.00000284,0.0000095
 4,0.00000255,-0.00000650,-0.00003467,-0.00003856,-0.00001113,0.0000085
 9,-0.00000597,-0.00000794,0.00003704,0.00001474,0.00000150,-0.00000636
 ,-0.00006057,-0.00005294,0.00000399,-0.00000985,0.00000612,-0.00000665
 ,-0.00002329,-0.00000808,-0.00096325,0.00022627,-0.00088858,0.00018876
 ,-0.00000351,0.00141092,-0.02510115,0.09898405,0.30793186\\0.00311011,
 -0.00028646,-0.00142565,-0.00024109,0.00018273,0.00010809,0.00173813,0
 .00128229,-0.00071898,0.00029826,-0.00406964,0.00038566,0.00362042,-0.
 00072671,-0.00340482,-0.00336010,0.00643057,0.00177590,0.00461548,-0.0
 1151418,-0.00049167,-0.01653527,-0.02923927,0.00232984,-0.00930205,0.0
 2251290,0.00515916,0.00352212,0.00393130,0.00106456,0.01556144,0.00799
 920,-0.00558839,-0.00199908,0.00103463,0.00131485,0.00119716,-0.000634
 16,0.00227004,-0.00083968,0.00037777,-0.00056997,-0.00000750,-0.000645
 61,-0.00018795,-0.00052111,0.00019826,-0.00074288,-0.00019997,-0.00089
 002,-0.00007417,-0.00058055,0.00224092,-0.00027978,0.00033618,-0.00009
 338,0.00051990,0.00063567,0.00048973,-0.00030436,0.00035111,0.00015041
 ,-0.00003464,0.00000557,0.00024744,0.00014174,0.00132751,-0.00102675,0
 .00032695,-0.00013096,0.00010684,-0.00006386,-0.00019723,-0.00009926,-
 0.00004619,-0.00058939,-0.00016755,-0.00026232,-0.00049439,0.00083870,
 -0.00101559,-0.00011887,-0.00007676,0.00002575,-0.00062019,0.00006703,
 -0.00035078,-0.00058173,0.00137903,0.00013956\\\@

 Writing a WFNX file to "25_lig_b.wfx"


 HIGGLEDY-PIGGLEDY
 NIC'LAUS COPERNICUS
 LOOKED AT THE UNIVERSE,
 SPOKE TO THE THRONG;
 GIVE UP YOUR PTOLOMY,
 RISE UP AND FOLLOW ME,
 HELIOCENTRICALLY
 PTOLEMY'S WRONG.
   -- NANCY L. STARK
 Job cpu time:       0 days  1 hours 21 minutes 57.7 seconds.
 Elapsed time:       0 days  0 hours 10 minutes 29.0 seconds.
 File lengths (MBytes):  RWF=    347 Int=      0 D2E=      0 Chk=      8 Scr=      1
 Normal termination of Gaussian 16 at Thu Nov  3 08:14:51 2022.
