 Entering Gaussian System, Link 0=g16
 Initial command:
 /software/gaussian/G16-A.03/avx/g16/l1.exe "/scratch/lcmd/1361356.slurm/Gau-142383.inp" -scrdir="/scratch/lcmd/1361356.slurm/"
 Entering Link 1 = /software/gaussian/G16-A.03/avx/g16/l1.exe PID=    142385.
  
 Copyright (c) 1988,1990,1992,1993,1995,1998,2003,2009,2016,
            Gaussian, Inc.  All Rights Reserved.
  
 This is part of the Gaussian(R) 16 program.  It is based on
 the Gaussian(R) 09 system (copyright 2009, Gaussian, Inc.),
 the Gaussian(R) 03 system (copyright 2003, Gaussian, Inc.),
 the Gaussian(R) 98 system (copyright 1998, Gaussian, Inc.),
 the Gaussian(R) 94 system (copyright 1995, Gaussian, Inc.),
 the Gaussian 92(TM) system (copyright 1992, Gaussian, Inc.),
 the Gaussian 90(TM) system (copyright 1990, Gaussian, Inc.),
 the Gaussian 88(TM) system (copyright 1988, Gaussian, Inc.),
 the Gaussian 86(TM) system (copyright 1986, Carnegie Mellon
 University), and the Gaussian 82(TM) system (copyright 1983,
 Carnegie Mellon University). Gaussian is a federally registered
 trademark of Gaussian, Inc.
  
 This software contains proprietary and confidential information,
 including trade secrets, belonging to Gaussian, Inc.
  
 This software is provided under written license and may be
 used, copied, transmitted, or stored only in accord with that
 written license.
  
 The following legend is applicable only to US Government
 contracts under FAR:
  
                    RESTRICTED RIGHTS LEGEND
  
 Use, reproduction and disclosure by the US Government is
 subject to restrictions as set forth in subparagraphs (a)
 and (c) of the Commercial Computer Software - Restricted
 Rights clause in FAR 52.227-19.
  
 Gaussian, Inc.
 340 Quinnipiac St., Bldg. 40, Wallingford CT 06492
  
  
 ---------------------------------------------------------------
 Warning -- This program may not be used in any manner that
 competes with the business of Gaussian, Inc. or will provide
 assistance to any competitor of Gaussian, Inc.  The licensee
 of this program is prohibited from giving any competitor of
 Gaussian, Inc. access to this program.  By using this program,
 the user acknowledges that Gaussian, Inc. is engaged in the
 business of creating and licensing software in the field of
 computational chemistry and represents and warrants to the
 licensee that it is not a competitor of Gaussian, Inc. and that
 it will not use this program in any manner prohibited above.
 ---------------------------------------------------------------
  

 Cite this work as:
 Gaussian 16, Revision A.03,
 M. J. Frisch, G. W. Trucks, H. B. Schlegel, G. E. Scuseria, 
 M. A. Robb, J. R. Cheeseman, G. Scalmani, V. Barone, 
 G. A. Petersson, H. Nakatsuji, X. Li, M. Caricato, A. V. Marenich, 
 J. Bloino, B. G. Janesko, R. Gomperts, B. Mennucci, H. P. Hratchian, 
 J. V. Ortiz, A. F. Izmaylov, J. L. Sonnenberg, D. Williams-Young, 
 F. Ding, F. Lipparini, F. Egidi, J. Goings, B. Peng, A. Petrone, 
 T. Henderson, D. Ranasinghe, V. G. Zakrzewski, J. Gao, N. Rega, 
 G. Zheng, W. Liang, M. Hada, M. Ehara, K. Toyota, R. Fukuda, 
 J. Hasegawa, M. Ishida, T. Nakajima, Y. Honda, O. Kitao, H. Nakai, 
 T. Vreven, K. Throssell, J. A. Montgomery, Jr., J. E. Peralta, 
 F. Ogliaro, M. J. Bearpark, J. J. Heyd, E. N. Brothers, K. N. Kudin, 
 V. N. Staroverov, T. A. Keith, R. Kobayashi, J. Normand, 
 K. Raghavachari, A. P. Rendell, J. C. Burant, S. S. Iyengar, 
 J. Tomasi, M. Cossi, J. M. Millam, M. Klene, C. Adamo, R. Cammi, 
 J. W. Ochterski, R. L. Martin, K. Morokuma, O. Farkas, 
 J. B. Foresman, and D. J. Fox, Gaussian, Inc., Wallingford CT, 2016.
 
 ******************************************
 Gaussian 16:  ES64L-G16RevA.03 25-Dec-2016
                 3-Nov-2022 
 ******************************************
 %nprocs=8
 Will use up to    8 processors via shared memory.
 %mem=32000MB
 %chk=26_lig_b.chk
 ----------------------------------------------------------------------
 #p pop=(regular,nbo,savenbos) freq=noraman def2svp empiricaldispersion
 =gd3bj output=wfx pbe1pbe
 ----------------------------------------------------------------------
 1/10=4,30=1,38=1/1,3;
 2/12=2,17=6,18=5,40=1/2;
 3/5=43,7=101,11=2,25=1,30=1,71=2,74=-13,124=41,140=1/1,2,3;
 4//1;
 5/5=2,38=5,98=1/2;
 8/6=4,10=90,11=11/1;
 11/6=1,8=1,9=11,15=111,16=1/1,2,10;
 10/6=1/2;
 6/28=1,40=1,73=1/1,7;
 7/8=1,10=1,25=1/1,2,3,16;
 1/10=4,30=1/3;
 99/6=200/99;
 Leave Link    1 at Thu Nov  3 08:04:22 2022, MaxMem=  4194304000 cpu:               0.4 elap:               0.1
 (Enter /software/gaussian/G16-A.03/avx/g16/l101.exe)
 --------
 26_lig_b
 --------
 Symbolic Z-matrix:
 Charge =  0 Multiplicity = 1
 C                     4.43637  -0.20583   1.92441 
 C                     4.02605   0.88219   1.15464 
 C                     3.11488   0.70531   0.11667 
 C                     2.60743  -0.5684   -0.16383 
 C                     3.00672  -1.65252   0.62335 
 C                     3.92153  -1.47323   1.65978 
 C                     1.57022  -0.70646  -1.25977 
 H                     1.76608   0.03885  -2.044 
 C                     1.352    -2.11931  -1.83321 
 O                     0.13815  -2.58729  -1.19184 
 C                    -0.42008  -1.50431  -0.67273 
 N                     0.2478   -0.41637  -0.70281 
 N                    -2.1504   -0.29017   0.30219 
 C                    -1.76147  -1.51587  -0.07873 
 C                    -2.55274  -2.6446    0.08736 
 C                    -3.80157  -2.47257   0.68805 
 C                    -4.19683  -1.20026   1.08739 
 C                    -3.3342   -0.12083   0.87334 
 H                     5.15354  -0.06494   2.73655 
 H                     4.41489   1.88108   1.36546 
 H                     2.75622   1.55906  -0.4665 
 H                     2.60199  -2.65205   0.44288 
 H                     4.23031  -2.32897   2.26484 
 H                     2.1559   -2.83093  -1.61396 
 H                     1.16336  -2.10458  -2.91676 
 H                    -2.19381  -3.62027  -0.24311 
 H                    -4.45902  -3.3311    0.84223 
 H                    -5.16566  -1.03298   1.56111 
 H                    -3.55922   0.91441   1.15829 
 
 ITRead=  0  0  0  0  0  0  0  0  0  0  0  0  0  0  0  0  0  0  0  0
 ITRead=  0  0  0  0  0  0  0  0  0
 MicOpt= -1 -1 -1 -1 -1 -1 -1 -1 -1 -1 -1 -1 -1 -1 -1 -1 -1 -1 -1 -1
 MicOpt= -1 -1 -1 -1 -1 -1 -1 -1 -1
 NAtoms=     29 NQM=       29 NQMF=       0 NMMI=      0 NMMIF=      0
                NMic=       0 NMicF=      0.
                    Isotopes and Nuclear Properties:
 (Nuclear quadrupole moments (NQMom) in fm**2, nuclear magnetic moments (NMagM)
  in nuclear magnetons)

  Atom         1           2           3           4           5           6           7           8           9          10
 IAtWgt=          12          12          12          12          12          12          12           1          12          16
 AtmWgt=  12.0000000  12.0000000  12.0000000  12.0000000  12.0000000  12.0000000  12.0000000   1.0078250  12.0000000  15.9949146
 NucSpn=           0           0           0           0           0           0           0           1           0           0
 AtZEff=  -0.0000000  -0.0000000  -0.0000000  -0.0000000  -0.0000000  -0.0000000  -0.0000000  -0.0000000  -0.0000000  -0.0000000
 NQMom=    0.0000000   0.0000000   0.0000000   0.0000000   0.0000000   0.0000000   0.0000000   0.0000000   0.0000000   0.0000000
 NMagM=    0.0000000   0.0000000   0.0000000   0.0000000   0.0000000   0.0000000   0.0000000   2.7928460   0.0000000   0.0000000
 AtZNuc=   6.0000000   6.0000000   6.0000000   6.0000000   6.0000000   6.0000000   6.0000000   1.0000000   6.0000000   8.0000000

  Atom        11          12          13          14          15          16          17          18          19          20
 IAtWgt=          12          14          14          12          12          12          12          12           1           1
 AtmWgt=  12.0000000  14.0030740  14.0030740  12.0000000  12.0000000  12.0000000  12.0000000  12.0000000   1.0078250   1.0078250
 NucSpn=           0           2           2           0           0           0           0           0           1           1
 AtZEff=  -0.0000000  -0.0000000  -0.0000000  -0.0000000  -0.0000000  -0.0000000  -0.0000000  -0.0000000  -0.0000000  -0.0000000
 NQMom=    0.0000000   2.0440000   2.0440000   0.0000000   0.0000000   0.0000000   0.0000000   0.0000000   0.0000000   0.0000000
 NMagM=    0.0000000   0.4037610   0.4037610   0.0000000   0.0000000   0.0000000   0.0000000   0.0000000   2.7928460   2.7928460
 AtZNuc=   6.0000000   7.0000000   7.0000000   6.0000000   6.0000000   6.0000000   6.0000000   6.0000000   1.0000000   1.0000000

  Atom        21          22          23          24          25          26          27          28          29
 IAtWgt=           1           1           1           1           1           1           1           1           1
 AtmWgt=   1.0078250   1.0078250   1.0078250   1.0078250   1.0078250   1.0078250   1.0078250   1.0078250   1.0078250
 NucSpn=           1           1           1           1           1           1           1           1           1
 AtZEff=  -0.0000000  -0.0000000  -0.0000000  -0.0000000  -0.0000000  -0.0000000  -0.0000000  -0.0000000  -0.0000000
 NQMom=    0.0000000   0.0000000   0.0000000   0.0000000   0.0000000   0.0000000   0.0000000   0.0000000   0.0000000
 NMagM=    2.7928460   2.7928460   2.7928460   2.7928460   2.7928460   2.7928460   2.7928460   2.7928460   2.7928460
 AtZNuc=   1.0000000   1.0000000   1.0000000   1.0000000   1.0000000   1.0000000   1.0000000   1.0000000   1.0000000
 Leave Link  101 at Thu Nov  3 08:04:22 2022, MaxMem=  4194304000 cpu:               0.7 elap:               0.1
 (Enter /software/gaussian/G16-A.03/avx/g16/l103.exe)

 GradGradGradGradGradGradGradGradGradGradGradGradGradGradGradGradGradGrad
 Berny optimization.
 Initialization pass.
 Trust Radius=3.00D-01 FncErr=1.00D-07 GrdErr=1.00D-07 EigMax=2.50D+02 EigMin=1.00D-04
 Number of steps in this run=      2 maximum allowed number of steps=      2.
 GradGradGradGradGradGradGradGradGradGradGradGradGradGradGradGradGradGrad

 Leave Link  103 at Thu Nov  3 08:04:22 2022, MaxMem=  4194304000 cpu:               0.1 elap:               0.0
 (Enter /software/gaussian/G16-A.03/avx/g16/l202.exe)
                          Input orientation:                          
 ---------------------------------------------------------------------
 Center     Atomic      Atomic             Coordinates (Angstroms)
 Number     Number       Type             X           Y           Z
 ---------------------------------------------------------------------
      1          6           0        4.436370   -0.205830    1.924410
      2          6           0        4.026050    0.882190    1.154640
      3          6           0        3.114880    0.705310    0.116670
      4          6           0        2.607430   -0.568400   -0.163830
      5          6           0        3.006720   -1.652520    0.623350
      6          6           0        3.921530   -1.473230    1.659780
      7          6           0        1.570220   -0.706460   -1.259770
      8          1           0        1.766080    0.038850   -2.044000
      9          6           0        1.352000   -2.119310   -1.833210
     10          8           0        0.138150   -2.587290   -1.191840
     11          6           0       -0.420080   -1.504310   -0.672730
     12          7           0        0.247800   -0.416370   -0.702810
     13          7           0       -2.150400   -0.290170    0.302190
     14          6           0       -1.761470   -1.515870   -0.078730
     15          6           0       -2.552740   -2.644600    0.087360
     16          6           0       -3.801570   -2.472570    0.688050
     17          6           0       -4.196830   -1.200260    1.087390
     18          6           0       -3.334200   -0.120830    0.873340
     19          1           0        5.153540   -0.064940    2.736550
     20          1           0        4.414890    1.881080    1.365460
     21          1           0        2.756220    1.559060   -0.466500
     22          1           0        2.601990   -2.652050    0.442880
     23          1           0        4.230310   -2.328970    2.264840
     24          1           0        2.155900   -2.830930   -1.613960
     25          1           0        1.163360   -2.104580   -2.916760
     26          1           0       -2.193810   -3.620270   -0.243110
     27          1           0       -4.459020   -3.331100    0.842230
     28          1           0       -5.165660   -1.032980    1.561110
     29          1           0       -3.559220    0.914410    1.158290
 ---------------------------------------------------------------------
                    Distance matrix (angstroms):
                    1          2          3          4          5
     1  C    0.000000
     2  C    1.394524   0.000000
     3  C    2.417527   1.392444   0.000000
     4  C    2.799504   2.419723   1.399472   0.000000
     5  C    2.414450   2.783174   2.414081   1.397999   0.000000
     6  C    1.393338   2.411243   2.788890   2.423041   1.393990
     7  C    4.313287   3.792662   2.504727   1.515239   2.550432
     8  H    4.789425   4.006243   2.632855   2.147478   3.393328
     9  C    5.224409   5.008672   3.858530   2.601587   2.998446
    10  O    5.818682   5.714808   4.627562   3.351129   3.520995
    11  C    5.658294   5.366818   4.242819   3.209474   3.666708
    12  N    4.948811   4.405854   3.185885   2.425173   3.301274
    13  N    6.784117   6.344260   5.361769   4.788688   5.343690
    14  C    6.643944   6.384926   5.361960   4.471267   4.821538
    15  C    7.626927   7.540412   6.583667   5.567859   5.672663
    16  C    8.633096   8.528995   7.632999   6.739944   6.857804
    17  C    8.730500   8.482740   7.618044   6.947140   7.232635
    18  C    7.841794   7.433603   6.545662   6.048058   6.528081
    19  H    1.092591   2.161187   3.407813   3.892088   3.405123
    20  H    2.160574   1.092439   2.152194   3.406698   3.875564
    21  H    3.413824   2.167652   1.094355   2.154027   3.400701
    22  H    3.397628   3.876261   3.411940   2.170190   1.093360
    23  H    2.160110   3.403794   3.881453   3.410540   2.156211
    24  H    4.961024   4.994984   4.052125   2.725032   2.667977
    25  H    6.144491   5.804489   4.572265   3.467537   4.016804
    26  H    7.766327   7.804647   6.857279   5.689649   5.627460
    27  H    9.490331   9.478704   8.612956   7.653717   7.655247
    28  H    9.644436   9.397905   8.583438   7.975724   8.249304
    29  H    8.109953   7.585339   6.758129   6.478758   7.070139
                    6          7          8          9         10
     6  C    0.000000
     7  C    3.826273   0.000000
     8  H    4.544264   1.099484   0.000000
     9  C    4.384163   1.540324   2.207612   0.000000
    10  O    4.866912   2.364944   3.205143   1.450446   0.000000
    11  C    4.928605   2.223168   3.006829   2.205721   1.324365
    12  N    4.493893   1.463951   2.076341   2.323159   2.228019
    13  N    6.333326   4.056603   4.577300   4.491380   3.570203
    14  C    5.943124   3.626315   4.327014   3.624367   2.448573
    15  C    6.764672   4.750784   5.513239   4.383094   2.980021
    16  C    7.847880   5.980742   6.691043   5.748115   4.366754
    17  C    8.143090   6.245948   6.848160   6.337513   5.090265
    18  C    7.422472   5.380191   5.877859   5.768865   4.733456
    19  H    2.158834   5.405766   5.859976   6.289265   6.851907
    20  H    3.403149   4.656108   4.694084   5.967906   6.693028
    21  H    3.882499   2.677397   2.404147   4.167749   4.957078
    22  H    2.147475   2.783682   3.758226   2.650825   2.957535
    23  H    1.092581   4.704412   5.499555   5.012249   5.362941
    24  H    3.959567   2.232005   2.927889   1.095778   2.075780
    25  H    5.380597   2.205876   2.391500   1.099947   2.063835
    26  H    6.754862   4.867423   5.684461   4.165821   2.721245
    27  H    8.622858   6.903541   7.644525   6.511096   5.081798
    28  H    9.098383   7.309997   7.886359   7.428419   6.174546
    29  H    7.868541   5.897914   6.275355   6.501739   5.608526
                   11         12         13         14         15
    11  C    0.000000
    12  N    1.276942   0.000000
    13  N    2.327791   2.603328   0.000000
    14  C    1.467071   2.373930   1.341159   0.000000
    15  C    2.535002   3.665024   2.398201   1.388426   0.000000
    16  C    3.771435   4.749721   2.763715   2.380175   1.396424
    17  C    4.177835   4.855310   2.373326   2.718533   2.406078
    18  C    3.577212   3.924579   1.325244   2.307824   2.756421
    19  H    6.690308   6.001582   7.702232   7.605811   8.547491
    20  H    6.244359   5.188512   6.996278   7.195302   8.406140
    21  H    4.417652   3.201615   5.299571   5.478602   6.794305
    22  H    3.419766   3.442830   5.308812   4.539027   5.166981
    23  H    5.561970   5.322159   6.980126   6.484973   7.130975
    24  H    3.046557   3.209539   5.354560   4.408186   5.010040
    25  H    2.811277   2.930849   4.963338   4.117721   4.808925
    26  H    2.794276   4.054351   3.374730   2.154632   1.090859
    27  H    4.684581   5.747778   3.855986   3.379350   2.162178
    28  H    5.266187   5.900092   3.350886   3.809300   3.405379
    29  H    4.365437   4.441629   2.041738   3.266249   3.850512
                   16         17         18         19         20
    16  C    0.000000
    17  C    1.390854   0.000000
    18  C    2.404880   1.398255   0.000000
    19  H    9.496685   9.562327   8.690018   0.000000
    20  H    9.323270   9.150612   8.018617   2.492486   0.000000
    21  H    7.784063   7.640244   6.458360   4.317875   2.492180
    22  H    6.410765   6.981908   6.467667   4.297030   4.968604
    23  H    8.186451   8.583534   8.002123   2.490120   4.308999
    24  H    6.396806   7.093205   6.608517   5.963513   6.015232
    25  H    6.146593   6.751492   6.207106   7.213985   6.692932
    26  H    2.183842   3.411564   3.846171   8.689206   8.747986
    27  H    1.092285   2.160862   3.401767  10.327515  10.304701
    28  H    2.166886   1.091341   2.158539  10.430947  10.015836
    29  H    3.428045   2.209842   1.097065   8.908547   8.035160
                   21         22         23         24         25
    21  H    0.000000
    22  H    4.310940   0.000000
    23  H    4.974931   2.464821   0.000000
    24  H    4.577014   2.112246   4.427215   0.000000
    25  H    4.686495   3.695478   6.025406   1.791649   0.000000
    26  H    7.167856   4.940418   7.016166   4.628419   4.551517
    27  H    8.813973   7.104819   8.861859   7.073910   6.873537
    28  H    8.578232   8.013003   9.510998   8.180399   7.826630
    29  H    6.552885   7.154855   8.510038   7.373977   6.929870
                   26         27         28         29
    26  H    0.000000
    27  H    2.528391   0.000000
    28  H    4.333725   2.509479   0.000000
    29  H    4.938784   4.351309   2.556412   0.000000
 Stoichiometry    C14H12N2O
 Framework group  C1[X(C14H12N2O)]
 Deg. of freedom    81
 Full point group                 C1      NOp   1
 Largest Abelian subgroup         C1      NOp   1
 Largest concise Abelian subgroup C1      NOp   1
                         Standard orientation:                         
 ---------------------------------------------------------------------
 Center     Atomic      Atomic             Coordinates (Angstroms)
 Number     Number       Type             X           Y           Z
 ---------------------------------------------------------------------
      1          6           0       -4.228704   -1.282377    0.953226
      2          6           0       -3.971864   -1.499590   -0.400121
      3          6           0       -2.995408   -0.756637   -1.058493
      4          6           0       -2.267219    0.217408   -0.366034
      5          6           0       -2.514690    0.417611    0.995244
      6          6           0       -3.495063   -0.325264    1.651151
      7          6           0       -1.170473    0.958365   -1.103653
      8          1           0       -1.451793    1.069359   -2.160727
      9          6           0       -0.689523    2.282794   -0.481421
     10          8           0        0.553927    1.940884    0.182450
     11          6           0        0.895697    0.758956   -0.307632
     12          7           0        0.055790    0.159906   -1.060145
     13          7           0        2.347423   -1.019439   -0.692883
     14          6           0        2.189841    0.130350   -0.020676
     15          6           0        3.151620    0.638178    0.842351
     16          6           0        4.323299   -0.103162    1.008431
     17          6           0        4.478357   -1.298298    0.314109
     18          6           0        3.456947   -1.727605   -0.538846
     19          1           0       -4.997311   -1.864705    1.466929
     20          1           0       -4.533520   -2.258112   -0.950221
     21          1           0       -2.758746   -0.947865   -2.109701
     22          1           0       -1.938732    1.151909    1.564906
     23          1           0       -3.683329   -0.156232    2.714033
     24          1           0       -1.371150    2.713430    0.260648
     25          1           0       -0.454573    3.040132   -1.243733
     26          1           0        2.978914    1.580792    1.363528
     27          1           0        5.108248    0.254358    1.678595
     28          1           0        5.381251   -1.901491    0.423498
     29          1           0        3.489931   -2.656284   -1.121959
 ---------------------------------------------------------------------
 Rotational constants (GHZ):           1.0401492           0.2507004           0.2336304
 Leave Link  202 at Thu Nov  3 08:04:22 2022, MaxMem=  4194304000 cpu:               0.1 elap:               0.1
 (Enter /software/gaussian/G16-A.03/avx/g16/l301.exe)
 Standard basis: def2SVP (5D, 7F)
 Ernie: Thresh=  0.10000D-02 Tol=  0.10000D-05 Strict=F.
 There are   315 symmetry adapted cartesian basis functions of A   symmetry.
 There are   298 symmetry adapted basis functions of A   symmetry.
   298 basis functions,   509 primitive gaussians,   315 cartesian basis functions
    59 alpha electrons       59 beta electrons
       nuclear repulsion energy      1092.7171268876 Hartrees.
 IExCor= 1009 DFT=T Ex+Corr=PBE1PBE ExCW=0 ScaHFX=  0.250000
 ScaDFX=  0.750000  0.750000  1.000000  1.000000 ScalE2=  1.000000  1.000000
 IRadAn=      5 IRanWt=     -1 IRanGd=            0 ICorTp=0 IEmpDi=141
 NAtoms=   29 NActive=   29 NUniq=   29 SFac= 1.00D+00 NAtFMM=   60 NAOKFM=F Big=F
 Integral buffers will be    131072 words long.
 Raffenetti 2 integral format.
 Two-electron integral symmetry is turned on.
 R6Disp:  Grimme-D3(BJ) Dispersion energy=       -0.0311533023 Hartrees.
 Nuclear repulsion after empirical dispersion term =     1092.6859735853 Hartrees.
 Leave Link  301 at Thu Nov  3 08:04:22 2022, MaxMem=  4194304000 cpu:               0.6 elap:               0.1
 (Enter /software/gaussian/G16-A.03/avx/g16/l302.exe)
 NPDir=0 NMtPBC=     1 NCelOv=     1 NCel=       1 NClECP=     1 NCelD=      1
         NCelK=      1 NCelE2=     1 NClLst=     1 CellRange=     0.0.
 One-electron integrals computed using PRISM.
 One-electron integral symmetry used in STVInt
   1 Symmetry operations used in ECPInt.
 ECPInt:  NShTT=    9591 NPrTT=   35237 LenC2=    8760 LenP2D=   22826.
 LDataN:  DoStor=T MaxTD1= 4 Len=   56
 NBasis=   298 RedAO= T EigKep=  2.89D-04  NBF=   298
 NBsUse=   298 1.00D-06 EigRej= -1.00D+00 NBFU=   298
 Precomputing XC quadrature grid using
 IXCGrd= 4 IRadAn=           5 IRanWt=          -1 IRanGd=           0 AccXCQ= 0.00D+00.
 Generated NRdTot=       0 NPtTot=           0 NUsed=           0 NTot=          32
 NSgBfM=   313   313   313   313   313 MxSgAt=    29 MxSgA2=    29.
 Leave Link  302 at Thu Nov  3 08:04:23 2022, MaxMem=  4194304000 cpu:               3.9 elap:               0.6
 (Enter /software/gaussian/G16-A.03/avx/g16/l303.exe)
 DipDrv:  MaxL=1.
 Leave Link  303 at Thu Nov  3 08:04:23 2022, MaxMem=  4194304000 cpu:               0.5 elap:               0.1
 (Enter /software/gaussian/G16-A.03/avx/g16/l401.exe)
 ExpMin= 1.22D-01 ExpMax= 2.27D+03 ExpMxC= 3.41D+02 IAcc=3 IRadAn=         5 AccDes= 0.00D+00
 Harris functional with IExCor= 1009 and IRadAn=       5 diagonalized for initial guess.
 HarFok:  IExCor= 1009 AccDes= 0.00D+00 IRadAn=         5 IDoV= 1 UseB2=F ITyADJ=14
 ICtDFT=  3500011 ScaDFX=  1.000000  1.000000  1.000000  1.000000
 FoFCou: FMM=F IPFlag=           0 FMFlag=      100000 FMFlg1=           0
         NFxFlg=           0 DoJE=T BraDBF=F KetDBF=T FulRan=T
         wScrn=  0.000000 ICntrl=       500 IOpCl=  0 I1Cent=   200000004 NGrid=           0
         NMat0=    1 NMatS0=      1 NMatT0=    0 NMatD0=    1 NMtDS0=    0 NMtDT0=    0
 Petite list used in FoFCou.
 Harris En= -724.221335359798    
 JPrj=0 DoOrth=F DoCkMO=F.
 Leave Link  401 at Thu Nov  3 08:04:26 2022, MaxMem=  4194304000 cpu:              19.6 elap:               2.5
 (Enter /software/gaussian/G16-A.03/avx/g16/l502.exe)
 Integral symmetry usage will be decided dynamically.
 Closed shell SCF:
 Using DIIS extrapolation, IDIIS=  1040.
 NGot=  4194304000 LenX=  4194099633 LenY=  4193999967
 Requested convergence on RMS density matrix=1.00D-08 within 128 cycles.
 Requested convergence on MAX density matrix=1.00D-06.
 Requested convergence on             energy=1.00D-06.
 No special actions if energy rises.
 Fock matrices will be formed incrementally for  20 cycles.
 Integral accuracy reduced to 1.0D-05 until final iterations.

 Cycle   1  Pass 0  IDiag  1:
 FoFJK:  IHMeth= 1 ICntrl=       0 DoSepK=F KAlg= 0 I1Cent=           0 FoldK=F
 IRaf= 850000000 NMat=       1 IRICut=       1 DoRegI=T DoRafI=F ISym2E= 0 IDoP0=0 IntGTp=1.
 FoFCou: FMM=F IPFlag=           0 FMFlag=      100000 FMFlg1=           0
         NFxFlg=           0 DoJE=F BraDBF=F KetDBF=F FulRan=T
         wScrn=  0.000000 ICntrl=         0 IOpCl=  0 I1Cent=           0 NGrid=           0
         NMat0=    1 NMatS0=      1 NMatT0=    0 NMatD0=    1 NMtDS0=    0 NMtDT0=    0
 Symmetry not used in FoFCou.
 E= -723.833892259903    
 DIIS: error= 3.79D-02 at cycle   1 NSaved=   1.
 NSaved= 1 IEnMin= 1 EnMin= -723.833892259903     IErMin= 1 ErrMin= 3.79D-02
 ErrMax= 3.79D-02  0.00D+00 EMaxC= 1.00D-01 BMatC= 2.27D-01 BMatP= 2.27D-01
 IDIUse=3 WtCom= 6.21D-01 WtEn= 3.79D-01
 Coeff-Com:  0.100D+01
 Coeff-En:   0.100D+01
 Coeff:      0.100D+01
 Gap=     0.196 Goal=   None    Shift=    0.000
 GapD=    0.196 DampG=1.000 DampE=0.500 DampFc=0.5000 IDamp=-1.
 Damping current iteration by 5.00D-01
 RMSDP=4.93D-03 MaxDP=1.19D-01              OVMax= 1.84D-01

 Cycle   2  Pass 0  IDiag  1:
 RMSU=  2.41D-03    CP:  9.75D-01
 E= -723.947829326659     Delta-E=       -0.113937066756 Rises=F Damp=T
 DIIS: error= 6.36D-03 at cycle   2 NSaved=   2.
 NSaved= 2 IEnMin= 2 EnMin= -723.947829326659     IErMin= 2 ErrMin= 6.36D-03
 ErrMax= 6.36D-03  0.00D+00 EMaxC= 1.00D-01 BMatC= 2.12D-02 BMatP= 2.27D-01
 IDIUse=3 WtCom= 9.36D-01 WtEn= 6.36D-02
 Coeff-Com:  0.502D-01 0.950D+00
 Coeff-En:   0.551D-01 0.945D+00
 Coeff:      0.505D-01 0.949D+00
 Gap=     0.222 Goal=   None    Shift=    0.000
 RMSDP=1.59D-03 MaxDP=4.57D-02 DE=-1.14D-01 OVMax= 1.86D-01

 Cycle   3  Pass 0  IDiag  1:
 RMSU=  1.55D-03    CP:  9.57D-01  9.86D-01
 E= -724.062447172643     Delta-E=       -0.114617845984 Rises=F Damp=F
 DIIS: error= 1.29D-02 at cycle   3 NSaved=   3.
 NSaved= 3 IEnMin= 3 EnMin= -724.062447172643     IErMin= 2 ErrMin= 6.36D-03
 ErrMax= 1.29D-02  0.00D+00 EMaxC= 1.00D-01 BMatC= 2.95D-02 BMatP= 2.12D-02
 IDIUse=2 WtCom= 0.00D+00 WtEn= 1.00D+00
 Coeff-En:   0.000D+00 0.000D+00 0.100D+01
 Coeff:      0.000D+00 0.000D+00 0.100D+01
 Gap=     0.180 Goal=   None    Shift=    0.000
 RMSDP=2.18D-03 MaxDP=9.47D-02 DE=-1.15D-01 OVMax= 2.00D-01

 Cycle   4  Pass 0  IDiag  1:
 RMSU=  1.27D-03    CP:  9.64D-01  1.42D+00  8.40D-02
 E= -723.958810652671     Delta-E=        0.103636519972 Rises=F Damp=F
 DIIS: error= 2.99D-02 at cycle   4 NSaved=   4.
 NSaved= 4 IEnMin= 3 EnMin= -724.062447172643     IErMin= 2 ErrMin= 6.36D-03
 ErrMax= 2.99D-02  0.00D+00 EMaxC= 1.00D-01 BMatC= 1.43D-01 BMatP= 2.12D-02
 IDIUse=2 WtCom= 0.00D+00 WtEn= 1.00D+00
 Coeff-En:   0.000D+00 0.000D+00 0.776D+00 0.224D+00
 Coeff:      0.000D+00 0.000D+00 0.776D+00 0.224D+00
 Gap=     0.199 Goal=   None    Shift=    0.000
 RMSDP=1.20D-03 MaxDP=4.69D-02 DE= 1.04D-01 OVMax= 8.16D-02

 Cycle   5  Pass 0  IDiag  1:
 RMSU=  2.13D-04    CP:  9.60D-01  1.17D+00  5.64D-01  4.71D-01
 E= -724.080288014880     Delta-E=       -0.121477362209 Rises=F Damp=F
 DIIS: error= 7.84D-03 at cycle   5 NSaved=   5.
 NSaved= 5 IEnMin= 5 EnMin= -724.080288014880     IErMin= 2 ErrMin= 6.36D-03
 ErrMax= 7.84D-03  0.00D+00 EMaxC= 1.00D-01 BMatC= 1.01D-02 BMatP= 2.12D-02
 IDIUse=3 WtCom= 9.22D-01 WtEn= 7.84D-02
 Coeff-Com:  0.439D-02 0.305D-02 0.297D+00-0.674D-01 0.763D+00
 Coeff-En:   0.000D+00 0.000D+00 0.302D+00 0.000D+00 0.698D+00
 Coeff:      0.405D-02 0.281D-02 0.298D+00-0.621D-01 0.758D+00
 Gap=     0.202 Goal=   None    Shift=    0.000
 RMSDP=4.01D-04 MaxDP=1.75D-02 DE=-1.21D-01 OVMax= 3.62D-02

 Cycle   6  Pass 0  IDiag  1:
 RMSU=  7.53D-05    CP:  9.58D-01  1.09D+00  7.32D-01  2.91D-01  8.63D-01
 E= -724.089269882531     Delta-E=       -0.008981867651 Rises=F Damp=F
 DIIS: error= 3.83D-04 at cycle   6 NSaved=   6.
 NSaved= 6 IEnMin= 6 EnMin= -724.089269882531     IErMin= 6 ErrMin= 3.83D-04
 ErrMax= 3.83D-04  0.00D+00 EMaxC= 1.00D-01 BMatC= 6.32D-05 BMatP= 1.01D-02
 IDIUse=3 WtCom= 9.96D-01 WtEn= 3.83D-03
 Coeff-Com:  0.130D-02-0.184D-02 0.130D+00-0.612D-01 0.464D+00 0.468D+00
 Coeff-En:   0.000D+00 0.000D+00 0.000D+00 0.000D+00 0.000D+00 0.100D+01
 Coeff:      0.130D-02-0.183D-02 0.130D+00-0.609D-01 0.462D+00 0.470D+00
 Gap=     0.200 Goal=   None    Shift=    0.000
 RMSDP=3.80D-05 MaxDP=1.03D-03 DE=-8.98D-03 OVMax= 3.08D-03

 Cycle   7  Pass 0  IDiag  1:
 RMSU=  1.50D-05    CP:  9.58D-01  1.09D+00  7.29D-01  2.97D-01  8.91D-01
                    CP:  5.62D-01
 E= -724.089339678221     Delta-E=       -0.000069795690 Rises=F Damp=F
 DIIS: error= 9.91D-05 at cycle   7 NSaved=   7.
 NSaved= 7 IEnMin= 7 EnMin= -724.089339678221     IErMin= 7 ErrMin= 9.91D-05
 ErrMax= 9.91D-05  0.00D+00 EMaxC= 1.00D-01 BMatC= 3.33D-06 BMatP= 6.32D-05
 IDIUse=1 WtCom= 1.00D+00 WtEn= 0.00D+00
 Coeff-Com:  0.545D-03-0.133D-02 0.568D-01-0.314D-01 0.218D+00 0.259D+00
 Coeff-Com:  0.499D+00
 Coeff:      0.545D-03-0.133D-02 0.568D-01-0.314D-01 0.218D+00 0.259D+00
 Coeff:      0.499D+00
 Gap=     0.200 Goal=   None    Shift=    0.000
 RMSDP=7.10D-06 MaxDP=2.94D-04 DE=-6.98D-05 OVMax= 6.02D-04

 Initial convergence to 1.0D-05 achieved.  Increase integral accuracy.
 Cycle   8  Pass 1  IDiag  1:
 E= -724.089333771494     Delta-E=        0.000005906728 Rises=F Damp=F
 DIIS: error= 5.84D-05 at cycle   1 NSaved=   1.
 NSaved= 1 IEnMin= 1 EnMin= -724.089333771494     IErMin= 1 ErrMin= 5.84D-05
 ErrMax= 5.84D-05  0.00D+00 EMaxC= 1.00D-01 BMatC= 1.24D-06 BMatP= 1.24D-06
 IDIUse=1 WtCom= 1.00D+00 WtEn= 0.00D+00
 Coeff-Com:  0.100D+01
 Coeff:      0.100D+01
 Gap=     0.200 Goal=   None    Shift=    0.000
 RMSDP=7.10D-06 MaxDP=2.94D-04 DE= 5.91D-06 OVMax= 3.99D-04

 Cycle   9  Pass 1  IDiag  1:
 RMSU=  6.29D-05    CP:  1.00D+00
 E= -724.089334214480     Delta-E=       -0.000000442987 Rises=F Damp=F
 DIIS: error= 5.69D-05 at cycle   2 NSaved=   2.
 NSaved= 2 IEnMin= 2 EnMin= -724.089334214480     IErMin= 2 ErrMin= 5.69D-05
 ErrMax= 5.69D-05  0.00D+00 EMaxC= 1.00D-01 BMatC= 9.52D-07 BMatP= 1.24D-06
 IDIUse=1 WtCom= 1.00D+00 WtEn= 0.00D+00
 Coeff-Com:  0.454D+00 0.546D+00
 Coeff:      0.454D+00 0.546D+00
 Gap=     0.200 Goal=   None    Shift=    0.000
 RMSDP=6.66D-06 MaxDP=2.23D-04 DE=-4.43D-07 OVMax= 4.81D-04

 Cycle  10  Pass 1  IDiag  1:
 RMSU=  6.60D-06    CP:  1.00D+00  9.98D-01
 E= -724.089334678712     Delta-E=       -0.000000464231 Rises=F Damp=F
 DIIS: error= 4.50D-05 at cycle   3 NSaved=   3.
 NSaved= 3 IEnMin= 3 EnMin= -724.089334678712     IErMin= 3 ErrMin= 4.50D-05
 ErrMax= 4.50D-05  0.00D+00 EMaxC= 1.00D-01 BMatC= 4.31D-07 BMatP= 9.52D-07
 IDIUse=1 WtCom= 1.00D+00 WtEn= 0.00D+00
 Coeff-Com:  0.210D-01 0.398D+00 0.581D+00
 Coeff:      0.210D-01 0.398D+00 0.581D+00
 Gap=     0.200 Goal=   None    Shift=    0.000
 RMSDP=3.07D-06 MaxDP=1.16D-04 DE=-4.64D-07 OVMax= 2.71D-04

 Cycle  11  Pass 1  IDiag  1:
 RMSU=  1.02D-06    CP:  1.00D+00  1.01D+00  5.84D-01
 E= -724.089335043032     Delta-E=       -0.000000364320 Rises=F Damp=F
 DIIS: error= 1.03D-05 at cycle   4 NSaved=   4.
 NSaved= 4 IEnMin= 4 EnMin= -724.089335043032     IErMin= 4 ErrMin= 1.03D-05
 ErrMax= 1.03D-05  0.00D+00 EMaxC= 1.00D-01 BMatC= 3.07D-08 BMatP= 4.31D-07
 IDIUse=1 WtCom= 1.00D+00 WtEn= 0.00D+00
 Coeff-Com: -0.480D-02 0.235D+00 0.376D+00 0.394D+00
 Coeff:     -0.480D-02 0.235D+00 0.376D+00 0.394D+00
 Gap=     0.200 Goal=   None    Shift=    0.000
 RMSDP=6.32D-07 MaxDP=2.02D-05 DE=-3.64D-07 OVMax= 5.78D-05

 Cycle  12  Pass 1  IDiag  1:
 RMSU=  2.13D-07    CP:  1.00D+00  1.01D+00  6.18D-01  4.63D-01
 E= -724.089335072152     Delta-E=       -0.000000029121 Rises=F Damp=F
 DIIS: error= 7.73D-07 at cycle   5 NSaved=   5.
 NSaved= 5 IEnMin= 5 EnMin= -724.089335072152     IErMin= 5 ErrMin= 7.73D-07
 ErrMax= 7.73D-07  0.00D+00 EMaxC= 1.00D-01 BMatC= 2.36D-10 BMatP= 3.07D-08
 IDIUse=1 WtCom= 1.00D+00 WtEn= 0.00D+00
 Coeff-Com: -0.291D-02 0.121D+00 0.192D+00 0.211D+00 0.480D+00
 Coeff:     -0.291D-02 0.121D+00 0.192D+00 0.211D+00 0.480D+00
 Gap=     0.200 Goal=   None    Shift=    0.000
 RMSDP=8.10D-08 MaxDP=2.27D-06 DE=-2.91D-08 OVMax= 6.25D-06

 Cycle  13  Pass 1  IDiag  1:
 RMSU=  7.27D-08    CP:  1.00D+00  1.01D+00  6.15D-01  4.64D-01  8.72D-01
 E= -724.089335072363     Delta-E=       -0.000000000210 Rises=F Damp=F
 DIIS: error= 3.58D-07 at cycle   6 NSaved=   6.
 NSaved= 6 IEnMin= 6 EnMin= -724.089335072363     IErMin= 6 ErrMin= 3.58D-07
 ErrMax= 3.58D-07  0.00D+00 EMaxC= 1.00D-01 BMatC= 2.47D-11 BMatP= 2.36D-10
 IDIUse=1 WtCom= 1.00D+00 WtEn= 0.00D+00
 Coeff-Com: -0.950D-03 0.354D-01 0.552D-01 0.629D-01 0.262D+00 0.585D+00
 Coeff:     -0.950D-03 0.354D-01 0.552D-01 0.629D-01 0.262D+00 0.585D+00
 Gap=     0.200 Goal=   None    Shift=    0.000
 RMSDP=2.90D-08 MaxDP=8.02D-07 DE=-2.10D-10 OVMax= 2.99D-06

 Cycle  14  Pass 1  IDiag  1:
 RMSU=  2.22D-08    CP:  1.00D+00  1.01D+00  6.14D-01  4.66D-01  9.07D-01
                    CP:  8.29D-01
 E= -724.089335072382     Delta-E=       -0.000000000020 Rises=F Damp=F
 DIIS: error= 7.70D-08 at cycle   7 NSaved=   7.
 NSaved= 7 IEnMin= 7 EnMin= -724.089335072382     IErMin= 7 ErrMin= 7.70D-08
 ErrMax= 7.70D-08  0.00D+00 EMaxC= 1.00D-01 BMatC= 2.99D-12 BMatP= 2.47D-11
 IDIUse=1 WtCom= 1.00D+00 WtEn= 0.00D+00
 Coeff-Com: -0.106D-03 0.238D-02 0.292D-02 0.398D-02 0.676D-01 0.311D+00
 Coeff-Com:  0.612D+00
 Coeff:     -0.106D-03 0.238D-02 0.292D-02 0.398D-02 0.676D-01 0.311D+00
 Coeff:      0.612D+00
 Gap=     0.200 Goal=   None    Shift=    0.000
 RMSDP=7.92D-09 MaxDP=2.61D-07 DE=-1.96D-11 OVMax= 7.04D-07

 SCF Done:  E(RPBE1PBE) =  -724.089335072     A.U. after   14 cycles
            NFock= 14  Conv=0.79D-08     -V/T= 2.0097
 KE= 7.171471457391D+02 PE=-3.867415504690D+03 EE= 1.333493050293D+03
 Leave Link  502 at Thu Nov  3 08:05:13 2022, MaxMem=  4194304000 cpu:             376.8 elap:              47.1
 (Enter /software/gaussian/G16-A.03/avx/g16/l801.exe)
 DoSCS=F DFT=T ScalE2(SS,OS)=  1.000000  1.000000
 Range of M.O.s used for correlation:     1   298
 NBasis=   298 NAE=    59 NBE=    59 NFC=     0 NFV=     0
 NROrb=    298 NOA=    59 NOB=    59 NVA=   239 NVB=   239

 **** Warning!!: The largest alpha MO coefficient is  0.11379206D+02

 Leave Link  801 at Thu Nov  3 08:05:13 2022, MaxMem=  4194304000 cpu:               0.1 elap:               0.1
 (Enter /software/gaussian/G16-A.03/avx/g16/l1101.exe)
 Using compressed storage, NAtomX=    29.
 Will process     30 centers per pass.
   1 Symmetry operations used in ECPInt.
 ECPInt:  NShTT=    9591 NPrTT=   35237 LenC2=    8760 LenP2D=   22826.
 LDataN:  DoStor=T MaxTD1= 5 Len=  102
 R6Disp: Adding Grimme-D3(BJ) dispersion energy 1st derivatives to the gradient.
 Leave Link 1101 at Thu Nov  3 08:05:14 2022, MaxMem=  4194304000 cpu:               3.5 elap:               0.6
 (Enter /software/gaussian/G16-A.03/avx/g16/l1102.exe)
 Symmetrizing basis deriv contribution to polar:
 IMax=3 JMax=2 DiffMx= 0.00D+00
 Leave Link 1102 at Thu Nov  3 08:05:15 2022, MaxMem=  4194304000 cpu:               0.5 elap:               0.1
 (Enter /software/gaussian/G16-A.03/avx/g16/l1110.exe)
 Forming Gx(P) for the SCF density, NAtomX=    29.
 Integral derivatives from FoFJK, PRISM(SPDF).
 Do as many integral derivatives as possible in FoFJK.
 G2DrvN: MDV=    4194301776.
 G2DrvN: will do    30 centers at a time, making    1 passes.
 Calling FoFCou, ICntrl=  3107 FMM=F I1Cent=   0 AccDes= 0.00D+00.
 FoFJK:  IHMeth= 1 ICntrl=    3107 DoSepK=F KAlg= 0 I1Cent=           0 FoldK=F
 IRaf=         0 NMat=       1 IRICut=       1 DoRegI=T DoRafI=F ISym2E= 0 IDoP0=0 IntGTp=1.
 FoFCou: FMM=F IPFlag=           0 FMFlag=      100000 FMFlg1=           0
         NFxFlg=           0 DoJE=F BraDBF=F KetDBF=F FulRan=T
         wScrn=  0.000000 ICntrl=      3107 IOpCl=  0 I1Cent=           0 NGrid=           0
         NMat0=    1 NMatS0=      1 NMatT0=    0 NMatD0=    1 NMtDS0=    0 NMtDT0=    0
 Symmetry not used in FoFCou.
 End of G2Drv F.D. properties file   721 does not exist.
 End of G2Drv F.D. properties file   722 does not exist.
 End of G2Drv F.D. properties file   788 does not exist.
 Leave Link 1110 at Thu Nov  3 08:07:41 2022, MaxMem=  4194304000 cpu:            1160.6 elap:             145.1
 (Enter /software/gaussian/G16-A.03/avx/g16/l1002.exe)
 Minotr:  Closed shell wavefunction.
          IDoAtm=11111111111111111111111111111
          Direct CPHF calculation.
          Differentiating once with respect to electric field.
                with respect to dipole field.
          Differentiating once with respect to nuclear coordinates.
          Requested convergence is 1.0D-08 RMS, and 1.0D-07 maximum.
          Secondary convergence is 1.0D-12 RMS, and 1.0D-12 maximum.
          NewPWx=T KeepS1=F KeepF1=F KeepIn=T MapXYZ=F SortEE=F KeepMc=T.
         8741 words used for storage of precomputed grid.
 Keep R1 ints in memory in canonical form, NReq=1008209215.
 FoFCou: FMM=F IPFlag=           0 FMFlag=           0 FMFlg1=           0
         NFxFlg=           0 DoJE=F BraDBF=F KetDBF=F FulRan=T
         wScrn=  0.000000 ICntrl=       600 IOpCl=  0 I1Cent=           0 NGrid=           0
         NMat0=    1 NMatS0=  44551 NMatT0=    0 NMatD0=    1 NMtDS0=    0 NMtDT0=    0
 Symmetry not used in FoFCou.
 Two-electron integral symmetry not used.
          MDV=    4194304000 using IRadAn=       1.
          Solving linear equations simultaneously, MaxMat=       0.
          There are    90 degrees of freedom in the 1st order CPHF.  IDoFFX=6 NUNeed=     3.
     87 vectors produced by pass  0 Test12= 1.57D-14 1.11D-09 XBig12= 1.88D+02 7.47D+00.
 AX will form    87 AO Fock derivatives at one time.
     87 vectors produced by pass  1 Test12= 1.57D-14 1.11D-09 XBig12= 3.08D+01 1.22D+00.
     87 vectors produced by pass  2 Test12= 1.57D-14 1.11D-09 XBig12= 3.09D-01 6.28D-02.
     87 vectors produced by pass  3 Test12= 1.57D-14 1.11D-09 XBig12= 1.74D-03 3.77D-03.
     87 vectors produced by pass  4 Test12= 1.57D-14 1.11D-09 XBig12= 4.85D-06 1.84D-04.
     80 vectors produced by pass  5 Test12= 1.57D-14 1.11D-09 XBig12= 7.13D-09 6.86D-06.
     29 vectors produced by pass  6 Test12= 1.57D-14 1.11D-09 XBig12= 8.76D-12 3.06D-07.
      3 vectors produced by pass  7 Test12= 1.57D-14 1.11D-09 XBig12= 8.14D-15 7.67D-09.
 InvSVY:  IOpt=1 It=  1 EMax= 1.60D-14
 Solved reduced A of dimension   547 with    90 vectors.
 FullF1:  Do perturbations      1 to       3.
 Isotropic polarizability for W=    0.000000      159.58 Bohr**3.
 End of Minotr F.D. properties file   721 does not exist.
 End of Minotr F.D. properties file   722 does not exist.
 End of Minotr F.D. properties file   788 does not exist.
 Leave Link 1002 at Thu Nov  3 08:10:44 2022, MaxMem=  4194304000 cpu:            1463.6 elap:             183.0
 (Enter /software/gaussian/G16-A.03/avx/g16/l601.exe)
 Copying SCF densities to generalized density rwf, IOpCl= 0 IROHF=0.

 **********************************************************************

            Population analysis using the SCF density.

 **********************************************************************

 Orbital symmetries:
       Occupied  (A) (A) (A) (A) (A) (A) (A) (A) (A) (A) (A) (A)
                 (A) (A) (A) (A) (A) (A) (A) (A) (A) (A) (A) (A)
                 (A) (A) (A) (A) (A) (A) (A) (A) (A) (A) (A) (A)
                 (A) (A) (A) (A) (A) (A) (A) (A) (A) (A) (A) (A)
                 (A) (A) (A) (A) (A) (A) (A) (A) (A) (A) (A)
       Virtual   (A) (A) (A) (A) (A) (A) (A) (A) (A) (A) (A) (A)
                 (A) (A) (A) (A) (A) (A) (A) (A) (A) (A) (A) (A)
                 (A) (A) (A) (A) (A) (A) (A) (A) (A) (A) (A) (A)
                 (A) (A) (A) (A) (A) (A) (A) (A) (A) (A) (A) (A)
                 (A) (A) (A) (A) (A) (A) (A) (A) (A) (A) (A) (A)
                 (A) (A) (A) (A) (A) (A) (A) (A) (A) (A) (A) (A)
                 (A) (A) (A) (A) (A) (A) (A) (A) (A) (A) (A) (A)
                 (A) (A) (A) (A) (A) (A) (A) (A) (A) (A) (A) (A)
                 (A) (A) (A) (A) (A) (A) (A) (A) (A) (A) (A) (A)
                 (A) (A) (A) (A) (A) (A) (A) (A) (A) (A) (A) (A)
                 (A) (A) (A) (A) (A) (A) (A) (A) (A) (A) (A) (A)
                 (A) (A) (A) (A) (A) (A) (A) (A) (A) (A) (A) (A)
                 (A) (A) (A) (A) (A) (A) (A) (A) (A) (A) (A) (A)
                 (A) (A) (A) (A) (A) (A) (A) (A) (A) (A) (A) (A)
                 (A) (A) (A) (A) (A) (A) (A) (A) (A) (A) (A) (A)
                 (A) (A) (A) (A) (A) (A) (A) (A) (A) (A) (A) (A)
                 (A) (A) (A) (A) (A) (A) (A) (A) (A) (A) (A) (A)
                 (A) (A) (A) (A) (A) (A) (A) (A) (A) (A) (A) (A)
                 (A) (A) (A) (A) (A) (A) (A) (A) (A) (A) (A) (A)
                 (A) (A) (A) (A) (A) (A) (A) (A) (A) (A) (A)
 The electronic state is 1-A.
 Alpha  occ. eigenvalues --  -19.25318 -14.38450 -14.35976 -10.31321 -10.29548
 Alpha  occ. eigenvalues --  -10.28241 -10.27363 -10.26956 -10.26305 -10.25530
 Alpha  occ. eigenvalues --  -10.25313 -10.24402 -10.23842 -10.23792 -10.23700
 Alpha  occ. eigenvalues --  -10.23638 -10.23541  -1.12502  -0.97248  -0.92024
 Alpha  occ. eigenvalues --   -0.87388  -0.82635  -0.81984  -0.78011  -0.76109
 Alpha  occ. eigenvalues --   -0.74709  -0.67333  -0.66409  -0.64443  -0.61990
 Alpha  occ. eigenvalues --   -0.59607  -0.58934  -0.55025  -0.53640  -0.51281
 Alpha  occ. eigenvalues --   -0.50732  -0.49955  -0.47675  -0.46651  -0.46463
 Alpha  occ. eigenvalues --   -0.45389  -0.43752  -0.43530  -0.43008  -0.42130
 Alpha  occ. eigenvalues --   -0.41523  -0.38931  -0.38701  -0.37975  -0.37315
 Alpha  occ. eigenvalues --   -0.36017  -0.34907  -0.30802  -0.29061  -0.28263
 Alpha  occ. eigenvalues --   -0.26553  -0.26174  -0.25168  -0.24725
 Alpha virt. eigenvalues --   -0.04742  -0.02293  -0.00344  -0.00324   0.06377
 Alpha virt. eigenvalues --    0.07248   0.07676   0.08744   0.09736   0.11246
 Alpha virt. eigenvalues --    0.11912   0.12814   0.13464   0.13995   0.14485
 Alpha virt. eigenvalues --    0.15385   0.15974   0.17093   0.18075   0.18607
 Alpha virt. eigenvalues --    0.20609   0.22375   0.23089   0.25507   0.26351
 Alpha virt. eigenvalues --    0.28009   0.29797   0.29982   0.31036   0.31828
 Alpha virt. eigenvalues --    0.32611   0.32754   0.35234   0.36599   0.37068
 Alpha virt. eigenvalues --    0.39120   0.40060   0.41531   0.42442   0.42863
 Alpha virt. eigenvalues --    0.43857   0.44750   0.45943   0.47032   0.47492
 Alpha virt. eigenvalues --    0.47758   0.48921   0.49575   0.50602   0.51285
 Alpha virt. eigenvalues --    0.52454   0.52996   0.53716   0.55078   0.55386
 Alpha virt. eigenvalues --    0.55774   0.57123   0.58924   0.59073   0.60330
 Alpha virt. eigenvalues --    0.61074   0.62439   0.63087   0.63864   0.64708
 Alpha virt. eigenvalues --    0.65044   0.65354   0.65827   0.66081   0.67084
 Alpha virt. eigenvalues --    0.67346   0.67878   0.68779   0.69212   0.71014
 Alpha virt. eigenvalues --    0.71685   0.72124   0.72962   0.73588   0.73873
 Alpha virt. eigenvalues --    0.74845   0.75216   0.75566   0.75872   0.76426
 Alpha virt. eigenvalues --    0.77153   0.78381   0.79870   0.82568   0.84268
 Alpha virt. eigenvalues --    0.86544   0.87018   0.88071   0.90010   0.91182
 Alpha virt. eigenvalues --    0.93732   0.96680   0.99828   1.00464   1.01937
 Alpha virt. eigenvalues --    1.04676   1.05776   1.07072   1.09908   1.12569
 Alpha virt. eigenvalues --    1.14414   1.15502   1.18171   1.19375   1.21478
 Alpha virt. eigenvalues --    1.22222   1.24735   1.25146   1.25587   1.25875
 Alpha virt. eigenvalues --    1.28526   1.28641   1.29914   1.30353   1.31338
 Alpha virt. eigenvalues --    1.33312   1.34824   1.36105   1.37077   1.40382
 Alpha virt. eigenvalues --    1.44691   1.47944   1.51374   1.53303   1.57313
 Alpha virt. eigenvalues --    1.58238   1.63023   1.64313   1.65220   1.67592
 Alpha virt. eigenvalues --    1.68686   1.69155   1.70455   1.71868   1.72144
 Alpha virt. eigenvalues --    1.72795   1.73314   1.75266   1.75601   1.76085
 Alpha virt. eigenvalues --    1.76728   1.77679   1.78221   1.79188   1.79273
 Alpha virt. eigenvalues --    1.79696   1.81123   1.81916   1.82530   1.84181
 Alpha virt. eigenvalues --    1.86519   1.87522   1.89373   1.91962   1.92597
 Alpha virt. eigenvalues --    1.93291   1.94423   1.96009   1.96588   1.97426
 Alpha virt. eigenvalues --    1.98255   1.98941   1.99250   1.99663   2.00949
 Alpha virt. eigenvalues --    2.02765   2.04489   2.07062   2.08328   2.09505
 Alpha virt. eigenvalues --    2.10820   2.13456   2.15076   2.15713   2.17106
 Alpha virt. eigenvalues --    2.17837   2.18787   2.22935   2.26509   2.29412
 Alpha virt. eigenvalues --    2.30247   2.30382   2.31053   2.32733   2.34124
 Alpha virt. eigenvalues --    2.34392   2.36148   2.38417   2.38678   2.41574
 Alpha virt. eigenvalues --    2.43928   2.44516   2.46425   2.51470   2.55210
 Alpha virt. eigenvalues --    2.56491   2.58399   2.59301   2.62280   2.63141
 Alpha virt. eigenvalues --    2.65095   2.66315   2.67997   2.71872   2.72810
 Alpha virt. eigenvalues --    2.73974   2.74733   2.74978   2.77800   2.82185
 Alpha virt. eigenvalues --    2.82922   2.84441   2.87499   2.89263   2.89923
 Alpha virt. eigenvalues --    2.90754   2.92980   2.96737   3.00891   3.04158
 Alpha virt. eigenvalues --    3.06238   3.06908   3.09356   3.10838   3.14779
 Alpha virt. eigenvalues --    3.15095   3.19159   3.26036   3.27544   3.33945
 Alpha virt. eigenvalues --    3.45980   3.64051   3.65501   3.71090
     Molecular Orbital Coefficients:
                          55        56        57        58        59
                           O         O         O         O         O
     Eigenvalues --    -0.28263  -0.26553  -0.26174  -0.25168  -0.24725
   1 1   C  1S         -0.00036  -0.00014  -0.00179  -0.00011  -0.00113
   2        2S         -0.00002   0.00025   0.00434   0.00078   0.00240
   3        3S          0.01501   0.00231   0.01647  -0.00718   0.01483
   4        4PX         0.03408   0.02745   0.20334   0.02831  -0.09540
   5        4PY        -0.03138  -0.02689  -0.20890  -0.03038   0.08857
   6        4PZ         0.01801   0.01262   0.07061   0.00750  -0.02947
   7        5PX         0.02866   0.01970   0.14847   0.01714  -0.06806
   8        5PY        -0.02330  -0.02055  -0.14473  -0.01980   0.07065
   9        5PZ        -0.00537   0.00526   0.04925   0.01640  -0.01189
  10        6D 0       -0.00129  -0.00718  -0.00062  -0.00090  -0.00037
  11        6D+1       -0.00157  -0.01284   0.00059  -0.00155  -0.00053
  12        6D-1        0.00135   0.00968   0.00081   0.00147  -0.00200
  13        6D+2        0.00027  -0.00854   0.00736  -0.00040  -0.00202
  14        6D-2       -0.00034  -0.00399   0.00005  -0.00060   0.00066
  15 2   C  1S          0.00019  -0.00137  -0.00179  -0.00052  -0.00533
  16        2S          0.00133   0.00408   0.00471  -0.00009   0.01088
  17        3S         -0.05337  -0.00018  -0.01781   0.03866   0.01570
  18        4PX         0.03995   0.21778   0.07843   0.03754  -0.01343
  19        4PY        -0.04054  -0.21159  -0.05847  -0.03390   0.05332
  20        4PZ         0.00846   0.07206   0.02019   0.01399  -0.02565
  21        5PX         0.00978   0.15330   0.04634   0.04097  -0.01083
  22        5PY        -0.04079  -0.14771  -0.04745  -0.01439   0.03696
  23        5PZ        -0.00641   0.04843   0.01294   0.01917  -0.01275
  24        6D 0        0.00034  -0.00159   0.00718   0.00090  -0.00216
  25        6D+1        0.00165  -0.00020   0.00794   0.00067  -0.00501
  26        6D-1       -0.00086   0.00385  -0.01181  -0.00111   0.00420
  27        6D+2        0.00042   0.00993  -0.00668   0.00048   0.00353
  28        6D-2        0.00034  -0.00048   0.00313   0.00050  -0.00220
  29 3   C  1S         -0.00119   0.00037   0.00058   0.00060   0.00338
  30        2S          0.00160   0.00254  -0.00179   0.00026  -0.00166
  31        3S          0.09343  -0.01750   0.02641  -0.07651  -0.01976
  32        4PX         0.01277   0.18546  -0.14972   0.00112   0.03805
  33        4PY        -0.00328  -0.18819   0.12322  -0.01049  -0.08425
  34        4PZ         0.01288   0.07494  -0.05944  -0.00379   0.01852
  35        5PX         0.02038   0.12814  -0.10688  -0.01149   0.02114
  36        5PY         0.00701  -0.13200   0.08565  -0.01455  -0.06006
  37        5PZ         0.04816   0.04958  -0.02872  -0.03424   0.02655
  38        6D 0       -0.00128   0.00203  -0.00362   0.00072  -0.00183
  39        6D+1       -0.00038   0.00166  -0.00597  -0.00050   0.00151
  40        6D-1       -0.00070  -0.00611  -0.00037  -0.00092  -0.00264
  41        6D+2       -0.00343  -0.01140  -0.01286  -0.00315   0.00675
  42        6D-2        0.00067   0.00192  -0.00039  -0.00014   0.00274
  43 4   C  1S         -0.00017  -0.00270  -0.01425  -0.00279  -0.02950
  44        2S         -0.01009   0.00731   0.03232   0.01464   0.07940
  45        3S          0.07751   0.01197   0.07057  -0.03834   0.08457
  46        4PX        -0.03550  -0.01738  -0.15888  -0.01575   0.18709
  47        4PY         0.04090   0.02696   0.24768   0.02649  -0.02576
  48        4PZ        -0.03455  -0.01839  -0.10330  -0.00299  -0.02886
  49        5PX         0.03637  -0.01473  -0.09509  -0.05069   0.15311
  50        5PY         0.08729   0.01820   0.19195  -0.02664   0.01150
  51        5PZ         0.03692  -0.00997  -0.07712  -0.05352  -0.06753
  52        6D 0       -0.00330  -0.00749  -0.00185   0.00044  -0.00084
  53        6D+1       -0.00069  -0.01316  -0.00013  -0.00220  -0.00215
  54        6D-1        0.00125   0.00985   0.00158   0.00149  -0.00353
  55        6D+2       -0.00311  -0.00894   0.00806   0.00220  -0.00316
  56        6D-2        0.00036  -0.00377   0.00102  -0.00074   0.00465
  57 5   C  1S          0.00353   0.00089   0.00253  -0.00168   0.00424
  58        2S         -0.00964  -0.00435  -0.00455   0.00442  -0.00141
  59        3S         -0.05191   0.01041  -0.01289   0.05070  -0.04013
  60        4PX        -0.03973  -0.21076  -0.08690  -0.03536   0.03788
  61        4PY         0.03965   0.22037   0.07782   0.03601  -0.06443
  62        4PZ         0.01262  -0.06267  -0.00498  -0.02203   0.04814
  63        5PX        -0.05280  -0.14970  -0.06534  -0.01042   0.03157
  64        5PY         0.02163   0.15408   0.04973   0.02793  -0.05902
  65        5PZ         0.05044  -0.04232  -0.00865  -0.04963  -0.01536
  66        6D 0        0.00001  -0.00154   0.00601   0.00082  -0.00238
  67        6D+1        0.00216  -0.00044   0.00736   0.00007  -0.00743
  68        6D-1       -0.00164   0.00370  -0.01299  -0.00073   0.00161
  69        6D+2       -0.00040   0.00945  -0.00590   0.00099   0.00266
  70        6D-2        0.00098  -0.00103   0.00373   0.00002  -0.00131
  71 6   C  1S         -0.00147   0.00054  -0.00295   0.00063  -0.00595
  72        2S          0.00210  -0.00190   0.00703  -0.00031   0.01224
  73        3S         -0.01576  -0.00333  -0.00324   0.00408   0.03265
  74        4PX         0.00417  -0.18418   0.14383  -0.01136  -0.01895
  75        4PY         0.00185   0.18747  -0.12548   0.01023   0.05992
  76        4PZ        -0.00966  -0.06428   0.03406  -0.00064  -0.03139
  77        5PX        -0.01130  -0.13195   0.10128   0.00015   0.00321
  78        5PY        -0.01440   0.12973  -0.08663   0.01761   0.06022
  79        5PZ        -0.00701  -0.04421   0.02943   0.00393  -0.01919
  80        6D 0       -0.00098   0.00176  -0.00270   0.00037  -0.00099
  81        6D+1       -0.00025   0.00189  -0.00478  -0.00048   0.00234
  82        6D-1       -0.00046  -0.00561   0.00042  -0.00071   0.00026
  83        6D+2       -0.00327  -0.01197  -0.01388  -0.00334   0.00734
  84        6D-2        0.00062   0.00171  -0.00019  -0.00014   0.00115
  85 7   C  1S          0.02644  -0.00151   0.00429  -0.02049  -0.00234
  86        2S         -0.05346   0.00318  -0.00026   0.05095   0.01198
  87        3S         -0.17868  -0.00450  -0.07892   0.12536  -0.05949
  88        4PX        -0.08748   0.00024   0.02126   0.07018  -0.04776
  89        4PY         0.10494  -0.01148  -0.07189  -0.09184  -0.06365
  90        4PZ         0.05856   0.00281   0.06593  -0.03147   0.06652
  91        5PX        -0.04553  -0.00173   0.01806   0.03446   0.05313
  92        5PY         0.00634  -0.01345  -0.02518   0.00947  -0.01832
  93        5PZ        -0.04095  -0.00894   0.00650   0.03347  -0.01616
  94        6D 0       -0.00201  -0.00188  -0.00945  -0.00049  -0.00302
  95        6D+1       -0.00786  -0.00138  -0.00836   0.00600  -0.01437
  96        6D-1        0.00827   0.00050   0.00471  -0.00640   0.00020
  97        6D+2       -0.01253   0.00137   0.01563   0.01439   0.00663
  98        6D-2        0.00131  -0.00005  -0.00415  -0.00176   0.00943
  99 8   H  1S         -0.07447  -0.01148  -0.10867   0.04188  -0.08409
 100        2S         -0.03638  -0.01981  -0.06224   0.01831  -0.06112
 101        3PX        -0.00157   0.00064  -0.00164   0.00097  -0.00129
 102        3PY         0.00276   0.00012  -0.00233  -0.00276  -0.00165
 103        3PZ        -0.00193  -0.00031  -0.00283   0.00094  -0.00211
 104 9   C  1S         -0.02364   0.00385   0.00741   0.02615   0.00439
 105        2S          0.05924  -0.00987  -0.01789  -0.06074  -0.01599
 106        3S          0.13773  -0.00499  -0.00791  -0.16744   0.01824
 107        4PX        -0.01821   0.02011   0.05358   0.00949   0.01821
 108        4PY        -0.10745   0.00485   0.05177   0.10253   0.04352
 109        4PZ        -0.06625  -0.01471  -0.01887   0.03841  -0.03018
 110        5PX        -0.05002   0.00990   0.02463   0.03321  -0.00222
 111        5PY        -0.10047  -0.01296   0.01569   0.10424   0.01134
 112        5PZ        -0.04978  -0.01724  -0.00228   0.03825   0.00758
 113        6D 0       -0.00300   0.00023   0.00041   0.00146   0.00531
 114        6D+1        0.00310   0.00072  -0.00048  -0.00385   0.00039
 115        6D-1       -0.00376  -0.00122  -0.00566   0.00225  -0.00744
 116        6D+2        0.00157  -0.00041  -0.00344  -0.00214  -0.00640
 117        6D-2        0.00146   0.00034  -0.00027  -0.00179  -0.00081
 118 10  O  1S          0.01333  -0.00017  -0.00530  -0.00501  -0.00023
 119        2S          0.02928  -0.00114  -0.01141  -0.01003   0.00075
 120        3S          0.08091   0.00548  -0.02324  -0.06593  -0.01860
 121        4PX        -0.03002  -0.02384  -0.06881   0.04071  -0.10972
 122        4PY        -0.12184  -0.00503  -0.04504   0.07284  -0.10607
 123        4PZ        -0.05615   0.02628   0.09479   0.04677   0.21151
 124        5PX        -0.01242  -0.01990  -0.05459   0.03129  -0.09091
 125        5PY        -0.09574  -0.00546  -0.03935   0.06835  -0.08782
 126        5PZ        -0.04220   0.01836   0.07559   0.04344   0.18320
 127        6D 0        0.00094  -0.00064  -0.00242  -0.00031  -0.00306
 128        6D+1        0.00266   0.00057   0.00062  -0.00205  -0.00160
 129        6D-1        0.00178  -0.00060  -0.00146  -0.00053   0.00000
 130        6D+2        0.00055  -0.00029  -0.00075  -0.00204   0.00023
 131        6D-2        0.00308   0.00024  -0.00001  -0.00125   0.00193
 132 11  C  1S          0.05789  -0.00762  -0.00126  -0.00692  -0.00448
 133        2S         -0.15035   0.02300   0.00434   0.01861   0.01088
 134        3S         -0.00564   0.00541  -0.03456  -0.25412   0.02382
 135        4PX         0.01597   0.01043   0.05684  -0.11527   0.06642
 136        4PY         0.06950  -0.01362   0.02725   0.00109   0.08579
 137        4PZ         0.03921   0.00287  -0.00518  -0.04019  -0.17405
 138        5PX         0.00327   0.02598   0.01452  -0.19311   0.02980
 139        5PY        -0.07114  -0.00960   0.03069   0.16888   0.07229
 140        5PZ        -0.04342   0.00712  -0.01059   0.00569  -0.12118
 141        6D 0        0.00283   0.00112   0.00940  -0.00073   0.02756
 142        6D+1       -0.00666  -0.00016   0.00299   0.00859   0.00587
 143        6D-1        0.01396  -0.00062  -0.00069  -0.00746   0.00596
 144        6D+2       -0.02007   0.00250   0.00740   0.01497   0.00370
 145        6D-2       -0.00050  -0.00189  -0.00881   0.00288  -0.01594
 146 12  N  1S          0.08431  -0.00249   0.01517  -0.06698  -0.01633
 147        2S          0.17417  -0.00514   0.03435  -0.14222  -0.03178
 148        3S          0.22046   0.00220   0.06328  -0.15583  -0.09240
 149        4PX        -0.07109   0.00511   0.04279   0.05843  -0.15314
 150        4PY         0.32408  -0.02020  -0.10458  -0.28893  -0.19642
 151        4PZ         0.18233   0.00216   0.12233  -0.15437   0.27007
 152        5PX         0.02953  -0.00369  -0.01652  -0.00192   0.12446
 153        5PY        -0.22631   0.02001   0.08972   0.17604   0.13220
 154        5PZ        -0.13809   0.00030  -0.08371   0.11098  -0.20899
 155        6D 0        0.00189  -0.00072  -0.00686  -0.00299  -0.01682
 156        6D+1       -0.00173   0.00071  -0.00122  -0.00087  -0.00120
 157        6D-1       -0.01278   0.00059  -0.00141   0.01140  -0.00589
 158        6D+2        0.00871  -0.00036  -0.00294  -0.00954  -0.00487
 159        6D-2        0.00200   0.00045  -0.00178  -0.00508   0.01075
 160 13  N  1S          0.05002  -0.01677  -0.01330   0.08356   0.00287
 161        2S          0.10280  -0.03579  -0.02893   0.17984   0.00595
 162        3S          0.12324  -0.03287  -0.01713   0.16026   0.00912
 163        4PX         0.20053  -0.06271  -0.04073   0.29736   0.05539
 164        4PY         0.09530  -0.02717  -0.00808   0.13049   0.05965
 165        4PZ         0.17204  -0.05197  -0.06781   0.24911  -0.06554
 166        5PX        -0.16715   0.04683   0.03327  -0.19700  -0.03523
 167        5PY        -0.05660   0.01975   0.01249  -0.09317  -0.03676
 168        5PZ        -0.12854   0.03816   0.05041  -0.17261   0.04274
 169        6D 0        0.00110  -0.00038   0.00146   0.00123   0.00592
 170        6D+1       -0.00755   0.00261   0.00148  -0.01317  -0.00105
 171        6D-1       -0.00568   0.00156   0.00218  -0.00728   0.00149
 172        6D+2       -0.00026   0.00066   0.00110  -0.00632   0.00177
 173        6D-2       -0.00186   0.00055  -0.00093  -0.00348  -0.00355
 174 14  C  1S          0.02605  -0.00629  -0.01142   0.01227   0.00007
 175        2S         -0.07024   0.01698   0.02946  -0.03541   0.00158
 176        3S         -0.04495  -0.01302   0.03388   0.18882  -0.00148
 177        4PX         0.06441  -0.01274  -0.05757   0.00331  -0.05199
 178        4PY         0.05622  -0.01665  -0.02837   0.10503  -0.05747
 179        4PZ         0.10174  -0.02374   0.00798   0.06995   0.10017
 180        5PX         0.05702   0.00989  -0.04083  -0.21907  -0.04949
 181        5PY         0.00293  -0.00089   0.00945   0.05242  -0.04486
 182        5PZ         0.05149   0.00079   0.02581  -0.08300   0.07265
 183        6D 0        0.00727  -0.00199  -0.00097   0.00824   0.00523
 184        6D+1        0.00716  -0.00213  -0.00092   0.00861   0.00837
 185        6D-1        0.00501  -0.00133  -0.00260   0.00552  -0.00486
 186        6D+2       -0.00056   0.00028  -0.00173   0.00108  -0.00630
 187        6D-2        0.01379  -0.00403  -0.00589   0.01842  -0.00266
 188 15  C  1S         -0.01858   0.00462   0.00706  -0.01655  -0.00158
 189        2S          0.04732  -0.01292  -0.01834   0.05191   0.00426
 190        3S         -0.03544  -0.00428  -0.01241   0.10872   0.00617
 191        4PX        -0.09179   0.02189   0.01522  -0.06472  -0.05948
 192        4PY        -0.05002   0.01363  -0.00604  -0.04455  -0.06664
 193        4PZ        -0.05547   0.01447   0.04983  -0.07218   0.09157
 194        5PX        -0.07967   0.02019   0.01688  -0.06509  -0.05303
 195        5PY         0.02899  -0.00136  -0.02263  -0.04228  -0.05785
 196        5PZ        -0.00397   0.00703   0.03537  -0.07051   0.07530
 197        6D 0       -0.00000   0.00006  -0.00220  -0.00020  -0.00524
 198        6D+1        0.00152  -0.00041  -0.00124   0.00192  -0.00211
 199        6D-1       -0.00110   0.00052   0.00032  -0.00317   0.00051
 200        6D+2        0.00225  -0.00067   0.00057   0.00438   0.00143
 201        6D-2        0.00246  -0.00036   0.00034  -0.00010   0.00344
 202 16  C  1S          0.00246   0.00006  -0.00196  -0.00470   0.00020
 203        2S         -0.00546  -0.00042   0.00384   0.01159  -0.00053
 204        3S          0.11740  -0.02610  -0.02351   0.06342   0.00169
 205        4PX         0.03075  -0.00499  -0.00411   0.00631   0.02217
 206        4PY         0.01111  -0.00267   0.01124   0.01859   0.02483
 207        4PZ         0.02201  -0.00504  -0.02201   0.01117  -0.03591
 208        5PX        -0.01454   0.00264   0.00570   0.00174   0.01657
 209        5PY        -0.00654   0.00226   0.01070  -0.00115   0.02166
 210        5PZ        -0.01445   0.00169  -0.01226  -0.00273  -0.02829
 211        6D 0        0.00211  -0.00053   0.00069   0.00185   0.00365
 212        6D+1        0.00320  -0.00078  -0.00269   0.00342  -0.00494
 213        6D-1        0.00106  -0.00026   0.00149   0.00033   0.00523
 214        6D+2        0.00362  -0.00084   0.00096   0.00165   0.00676
 215        6D-2        0.00406  -0.00110  -0.00169   0.00440  -0.00080
 216 17  C  1S         -0.01614   0.00518   0.00390  -0.02630  -0.00097
 217        2S          0.04436  -0.01391  -0.01115   0.06829   0.00250
 218        3S         -0.00354  -0.00830  -0.00309   0.09591   0.00866
 219        4PX        -0.06868   0.02036   0.04106  -0.10159   0.06488
 220        4PY        -0.02127   0.00671   0.03351  -0.04105   0.07860
 221        4PZ        -0.08237   0.02165  -0.02302  -0.07940  -0.12750
 222        5PX        -0.00606   0.00559   0.02032  -0.05260   0.05044
 223        5PY        -0.05760   0.01654   0.03509  -0.07725   0.06057
 224        5PZ        -0.06240   0.01856  -0.01610  -0.07718  -0.09923
 225        6D 0        0.00233  -0.00062  -0.00029   0.00165   0.00112
 226        6D+1        0.00134  -0.00022   0.00031   0.00020   0.00169
 227        6D-1        0.00056  -0.00026  -0.00079   0.00139  -0.00113
 228        6D+2       -0.00037   0.00024  -0.00049  -0.00145  -0.00161
 229        6D-2        0.00286  -0.00078  -0.00122   0.00369  -0.00070
 230 18  C  1S          0.01517  -0.00529  -0.00457   0.02593   0.00069
 231        2S         -0.03344   0.01266   0.01067  -0.06625  -0.00175
 232        3S          0.01310   0.00255   0.00167  -0.03925  -0.00272
 233        4PX         0.09915  -0.02899  -0.01607   0.11863   0.03195
 234        4PY         0.01929  -0.00179   0.01182  -0.00980   0.03346
 235        4PZ         0.03981  -0.01150  -0.02934   0.06806  -0.04695
 236        5PX        -0.01437   0.00573   0.00829  -0.04570   0.01200
 237        5PY         0.03371  -0.00601   0.00275   0.00717   0.01653
 238        5PZ        -0.00399   0.00310  -0.00864  -0.01412  -0.02864
 239        6D 0        0.00215  -0.00074  -0.00273   0.00428  -0.00596
 240        6D+1        0.00933  -0.00288  -0.00399   0.01444  -0.00472
 241        6D-1       -0.00458   0.00143   0.00207  -0.00730   0.00282
 242        6D+2        0.01099  -0.00339  -0.00128   0.01698   0.00559
 243        6D-2        0.00819  -0.00244  -0.00068   0.01112   0.00491
 244 19  H  1S          0.00295   0.00170   0.00577  -0.00049   0.01110
 245        2S          0.00338   0.00116   0.00332  -0.00135   0.00657
 246        3PX         0.00114   0.00096   0.00693   0.00099  -0.00289
 247        3PY        -0.00085  -0.00080  -0.00690  -0.00113   0.00325
 248        3PZ         0.00073   0.00045   0.00225   0.00012  -0.00148
 249 20  H  1S          0.00337   0.00085  -0.01134  -0.00265  -0.01553
 250        2S         -0.00127   0.00032  -0.00795   0.00111  -0.00987
 251        3PX         0.00160   0.00713   0.00247   0.00099  -0.00098
 252        3PY        -0.00127  -0.00710  -0.00232  -0.00117   0.00136
 253        3PZ         0.00038   0.00252   0.00042   0.00045  -0.00104
 254 21  H  1S         -0.00993  -0.00233  -0.00459   0.00460  -0.01151
 255        2S          0.00864  -0.00274  -0.00625  -0.00980  -0.01023
 256        3PX         0.00047   0.00612  -0.00505  -0.00010   0.00135
 257        3PY        -0.00039  -0.00621   0.00384  -0.00025  -0.00275
 258        3PZ         0.00055   0.00255  -0.00169  -0.00029   0.00072
 259 22  H  1S          0.00553   0.00245  -0.00680  -0.00283  -0.01435
 260        2S          0.00009  -0.00431   0.00007  -0.00167   0.02801
 261        3PX        -0.00092  -0.00724  -0.00262  -0.00148   0.00130
 262        3PY         0.00104   0.00726   0.00207   0.00137  -0.00305
 263        3PZ        -0.00043  -0.00207  -0.00014  -0.00023   0.00155
 264 23  H  1S         -0.00998  -0.00382  -0.01060   0.00264  -0.01604
 265        2S         -0.00408  -0.00180  -0.00825   0.00027  -0.01588
 266        3PX         0.00028  -0.00610   0.00464  -0.00052  -0.00145
 267        3PY         0.00046   0.00636  -0.00429   0.00015   0.00160
 268        3PZ         0.00020  -0.00206   0.00165  -0.00019  -0.00035
 269 24  H  1S         -0.05599  -0.01816  -0.03681   0.04403  -0.04132
 270        2S         -0.04835   0.01584  -0.00951   0.05301  -0.04840
 271        3PX        -0.00299  -0.00086  -0.00045   0.00150   0.00132
 272        3PY        -0.00197  -0.00004   0.00198   0.00170   0.00286
 273        3PZ         0.00009   0.00061   0.00053  -0.00021   0.00074
 274 25  H  1S          0.00051   0.01614   0.06793   0.01469   0.07983
 275        2S         -0.00623   0.01052   0.04451   0.01984   0.05949
 276        3PX         0.00035   0.00035   0.00054  -0.00033  -0.00139
 277        3PY        -0.00206  -0.00014  -0.00027   0.00156  -0.00110
 278        3PZ        -0.00178   0.00041   0.00188   0.00159   0.00034
 279 26  H  1S         -0.04755   0.01341   0.00934  -0.06130  -0.00308
 280        2S         -0.05393   0.01179   0.01041  -0.03660   0.00106
 281        3PX        -0.00204   0.00068   0.00027  -0.00255  -0.00187
 282        3PY         0.00069  -0.00024  -0.00068   0.00150  -0.00206
 283        3PZ         0.00023   0.00003   0.00118  -0.00069   0.00309
 284 27  H  1S          0.05275  -0.01199  -0.01597   0.03899   0.00282
 285        2S          0.03472  -0.00774  -0.01041   0.02429   0.00162
 286        3PX        -0.00056   0.00016   0.00030  -0.00096   0.00070
 287        3PY        -0.00043   0.00004   0.00055   0.00029   0.00074
 288        3PZ        -0.00066   0.00013  -0.00030  -0.00052  -0.00129
 289 28  H  1S         -0.04738   0.01337   0.01287  -0.05798  -0.00222
 290        2S         -0.04765   0.01416   0.01359  -0.06450  -0.00257
 291        3PX         0.00044  -0.00007   0.00068  -0.00021   0.00237
 292        3PY        -0.00134   0.00040   0.00131  -0.00210   0.00268
 293        3PZ        -0.00161   0.00041  -0.00106  -0.00133  -0.00433
 294 29  H  1S         -0.08119   0.02292   0.01869  -0.10814  -0.00609
 295        2S         -0.04219   0.01315   0.01075  -0.06812  -0.00472
 296        3PX         0.00211  -0.00062  -0.00016   0.00253   0.00117
 297        3PY        -0.00190   0.00052   0.00091  -0.00250   0.00114
 298        3PZ        -0.00092   0.00017  -0.00055   0.00006  -0.00197
                          60        61        62        63        64
                           V         V         V         V         V
     Eigenvalues --    -0.04742  -0.02293  -0.00344  -0.00324   0.06377
   1 1   C  1S         -0.00143   0.00062   0.00057   0.00076   0.01773
   2        2S          0.00269  -0.00110  -0.00040  -0.00094  -0.04342
   3        3S          0.02077  -0.00609   0.00341  -0.00805  -0.14675
   4        4PX        -0.04388   0.02545   0.11592   0.20220  -0.02519
   5        4PY         0.04512  -0.02604  -0.12021  -0.20615   0.07038
   6        4PZ        -0.01644   0.00928   0.03897   0.07199  -0.03177
   7        5PX        -0.05644   0.03499   0.16586   0.28000   0.00956
   8        5PY         0.04593  -0.03007  -0.15640  -0.29218   0.16797
   9        5PZ        -0.03884   0.01854   0.07384   0.09650  -0.06118
  10        6D 0       -0.00010  -0.00001  -0.00906   0.00704  -0.00333
  11        6D+1        0.00010  -0.00018  -0.01674   0.01101  -0.00443
  12        6D-1        0.00036  -0.00022   0.01127  -0.01064  -0.00334
  13        6D+2        0.00098  -0.00081  -0.01660   0.00127   0.00390
  14        6D-2       -0.00021   0.00012  -0.00477   0.00406   0.00311
  15 2   C  1S         -0.00197   0.00066  -0.00003  -0.00202   0.01670
  16        2S          0.00429  -0.00138   0.00011   0.00355  -0.04059
  17        3S         -0.00630  -0.00245  -0.01188   0.02462  -0.30186
  18        4PX         0.01497  -0.00887   0.13038  -0.20500   0.05792
  19        4PY        -0.00923   0.00750  -0.13084   0.21009  -0.01069
  20        4PZ         0.00091  -0.00178   0.04691  -0.07555   0.03226
  21        5PX         0.02669  -0.01562   0.16947  -0.27749   0.06623
  22        5PY        -0.01335   0.00911  -0.18825   0.29420  -0.02527
  23        5PZ        -0.02339   0.00690   0.08055  -0.11275   0.10899
  24        6D 0       -0.00137   0.00092   0.00850   0.00669  -0.00496
  25        6D+1       -0.00300   0.00171   0.00960   0.01003   0.00238
  26        6D-1        0.00308  -0.00187  -0.01608  -0.01088   0.00738
  27        6D+2        0.00271  -0.00145  -0.01711  -0.00158  -0.00114
  28        6D-2       -0.00168   0.00086   0.00481   0.00377   0.00199
  29 3   C  1S         -0.00192   0.00060  -0.00109   0.00024   0.02197
  30        2S          0.01055  -0.00304  -0.00224   0.00409  -0.06160
  31        3S          0.05472  -0.01790   0.03070   0.00384  -0.16250
  32        4PX         0.03615  -0.01859  -0.24297   0.00042  -0.01298
  33        4PY        -0.03836   0.01982   0.24526   0.00100   0.01093
  34        4PZ         0.00524  -0.00342  -0.08683   0.00325   0.05576
  35        5PX         0.06368  -0.03439  -0.35303   0.01332  -0.10782
  36        5PY        -0.02067   0.01578   0.33166   0.01963  -0.01719
  37        5PZ         0.03202  -0.01132  -0.10551   0.01448   0.18971
  38        6D 0       -0.00189   0.00080   0.00351  -0.00017   0.00781
  39        6D+1       -0.00053   0.00057   0.00500   0.00538  -0.00336
  40        6D-1       -0.00091   0.00024  -0.00614   0.00432   0.00096
  41        6D+2       -0.00296   0.00213  -0.00175   0.03057  -0.00600
  42        6D-2        0.00162  -0.00043   0.00184   0.00118  -0.00486
  43 4   C  1S         -0.01776   0.00583   0.00070  -0.00301   0.02395
  44        2S          0.05195  -0.01834   0.00247   0.02049  -0.08550
  45        3S          0.07151  -0.04676  -0.08442  -0.06199   0.00153
  46        4PX         0.00827   0.01083   0.11971   0.22960  -0.08120
  47        4PY         0.05828  -0.03246  -0.11334  -0.21693   0.00968
  48        4PZ        -0.04008   0.01746   0.04106   0.06869   0.02372
  49        5PX         0.02861   0.00427   0.17148   0.30632   0.01783
  50        5PY         0.14496  -0.07069  -0.16078  -0.25711   0.01999
  51        5PZ        -0.00777   0.00609  -0.02127   0.09423  -0.12695
  52        6D 0        0.00098  -0.00032   0.00849  -0.00555  -0.00732
  53        6D+1        0.00025   0.00015   0.01765  -0.01243  -0.00316
  54        6D-1       -0.00156   0.00058  -0.01041   0.01204  -0.00344
  55        6D+2       -0.00481   0.00193   0.01826   0.00057   0.00585
  56        6D-2        0.00232  -0.00062   0.00614  -0.00331   0.00227
  57 5   C  1S          0.00207  -0.00021   0.00037  -0.00065   0.02440
  58        2S         -0.00504   0.00087   0.00402   0.00182  -0.05510
  59        3S         -0.01468   0.00941   0.01507   0.02498  -0.11565
  60        4PX         0.03122  -0.01422   0.12285  -0.20721  -0.03228
  61        4PY        -0.03174   0.01303  -0.13023   0.20837  -0.03360
  62        4PZ         0.02094  -0.00805   0.03843  -0.07494  -0.01933
  63        5PX         0.02235  -0.01682   0.19312  -0.29687  -0.12856
  64        5PY        -0.04136   0.01602  -0.18803   0.28732  -0.14286
  65        5PZ         0.05257  -0.02361  -0.01823  -0.10712  -0.10783
  66        6D 0        0.00095  -0.00088  -0.00755  -0.00712   0.00047
  67        6D+1        0.00000  -0.00090  -0.01074  -0.01133   0.00782
  68        6D-1       -0.00366   0.00213   0.01580   0.01085   0.00070
  69        6D+2       -0.00129   0.00108   0.01831   0.00059  -0.00439
  70        6D-2        0.00096  -0.00066  -0.00457  -0.00361   0.00476
  71 6   C  1S         -0.00329   0.00099  -0.00158  -0.00120   0.01509
  72        2S          0.00642  -0.00185   0.00325   0.00253  -0.03472
  73        3S          0.00940  -0.00812   0.03021   0.00119  -0.30645
  74        4PX         0.02227  -0.01489  -0.24096   0.00687   0.04778
  75        4PY        -0.01060   0.01181   0.25120  -0.00563  -0.04335
  76        4PZ         0.00220  -0.00400  -0.08511   0.00067  -0.02643
  77        5PX         0.01651  -0.01576  -0.31239   0.00567   0.07345
  78        5PY        -0.03040   0.02091   0.37500  -0.01107  -0.06748
  79        5PZ         0.00023  -0.00180  -0.11306   0.00085  -0.03652
  80        6D 0       -0.00061   0.00009  -0.00334  -0.00026   0.00718
  81        6D+1        0.00162  -0.00089  -0.00533  -0.00540   0.00051
  82        6D-1        0.00075  -0.00022   0.00546  -0.00489   0.00079
  83        6D+2        0.00498  -0.00273   0.00059  -0.02979   0.00410
  84        6D-2        0.00026  -0.00018  -0.00203   0.00044  -0.00285
  85 7   C  1S         -0.00093   0.00015   0.00213  -0.00555   0.01357
  86        2S          0.00892  -0.00303  -0.00371   0.01023  -0.00791
  87        3S         -0.05800   0.01718  -0.02361  -0.00850  -0.53662
  88        4PX        -0.00925   0.00212   0.01170   0.00984   0.00129
  89        4PY         0.01027  -0.00214  -0.01202  -0.03286  -0.04293
  90        4PZ         0.00907   0.00002   0.02450  -0.00420   0.09048
  91        5PX         0.01540  -0.01871   0.07398   0.07310   0.00924
  92        5PY         0.01169  -0.01583   0.01956  -0.08748   0.02668
  93        5PZ        -0.07351   0.05156   0.08729  -0.02895   0.22487
  94        6D 0       -0.00382   0.00178   0.00767   0.00751   0.00545
  95        6D+1       -0.01225   0.00415   0.00209   0.00028   0.01349
  96        6D-1        0.00652  -0.00241  -0.00360  -0.00583  -0.00344
  97        6D+2        0.01100  -0.00466  -0.00633  -0.01586  -0.00687
  98        6D-2        0.00287  -0.00044   0.00586   0.01156  -0.00714
  99 8   H  1S         -0.06174   0.02327   0.03184   0.04016   0.05823
 100        2S         -0.11408   0.05633   0.16836   0.04608   0.53603
 101        3PX         0.00153   0.00022  -0.00123   0.00348  -0.00405
 102        3PY        -0.00161   0.00066  -0.00167   0.00044   0.00030
 103        3PZ        -0.00073   0.00009  -0.00060  -0.00146  -0.00176
 104 9   C  1S         -0.00062  -0.00117  -0.01348  -0.00465   0.03742
 105        2S         -0.00276   0.00385   0.03480   0.01110  -0.07354
 106        3S          0.07583  -0.00821   0.04329   0.01280  -0.56077
 107        4PX         0.01590  -0.00589  -0.01370  -0.00711  -0.01605
 108        4PY         0.01194  -0.00672  -0.01309  -0.04177  -0.07900
 109        4PZ         0.01322  -0.00354   0.02522  -0.02326   0.02352
 110        5PX         0.05005  -0.00243   0.01110   0.01283  -0.07411
 111        5PY         0.00541   0.00236   0.03289  -0.10270  -0.22680
 112        5PZ        -0.02154  -0.01737   0.08193  -0.05999   0.10267
 113        6D 0       -0.00540   0.00066   0.00178   0.00245   0.00554
 114        6D+1       -0.00325   0.00043  -0.00198  -0.00195  -0.00062
 115        6D-1        0.00433  -0.00060  -0.00081   0.00002  -0.01115
 116        6D+2        0.00414  -0.00038  -0.00256  -0.00122  -0.00593
 117        6D-2        0.00149   0.00002  -0.00033  -0.00154  -0.00111
 118 10  O  1S         -0.00263   0.00082  -0.00646   0.00390  -0.00073
 119        2S         -0.00312   0.00119  -0.01080   0.00711  -0.00509
 120        3S         -0.02273   0.00991  -0.06098   0.03642  -0.00976
 121        4PX         0.05488  -0.00063   0.03076   0.00794  -0.06107
 122        4PY         0.04577  -0.00027  -0.00469  -0.01605  -0.04642
 123        4PZ        -0.08496   0.00293  -0.00121   0.01754   0.09343
 124        5PX         0.06242  -0.00836   0.03722   0.00784  -0.08813
 125        5PY         0.03583  -0.00269  -0.00616  -0.02030  -0.01364
 126        5PZ        -0.07709   0.00885   0.00901   0.01951   0.11135
 127        6D 0        0.00058   0.00072   0.00003   0.00122   0.00384
 128        6D+1        0.00353  -0.00040  -0.00119  -0.00002  -0.00716
 129        6D-1       -0.00344   0.00057  -0.00022   0.00076   0.00629
 130        6D+2       -0.00434   0.00063   0.00126   0.00097   0.00831
 131        6D-2       -0.00159  -0.00006  -0.00008   0.00117   0.00288
 132 11  C  1S         -0.00014  -0.00031   0.00228  -0.00514   0.00586
 133        2S          0.00134  -0.00087  -0.02288   0.01946  -0.03122
 134        3S          0.00855   0.04945   0.15144   0.04047   0.12378
 135        4PX        -0.08102   0.01726   0.01638   0.00200   0.14317
 136        4PY        -0.08730   0.01824   0.00904  -0.01577   0.15270
 137        4PZ         0.17557  -0.04008  -0.01608  -0.04868  -0.28754
 138        5PX        -0.05992   0.01664   0.00050   0.08449   0.10432
 139        5PY        -0.10478  -0.01115  -0.02296  -0.04314   0.24638
 140        5PZ         0.13411  -0.01688  -0.02294  -0.04954  -0.33752
 141        6D 0        0.01633  -0.00121   0.00322   0.00437  -0.01027
 142        6D+1        0.01720  -0.00418   0.00031   0.00035  -0.00458
 143        6D-1       -0.00790   0.00270   0.00131   0.00060  -0.00277
 144        6D+2       -0.01141   0.00291  -0.00494  -0.00751  -0.00005
 145        6D-2       -0.01152   0.00191   0.00075  -0.00264   0.00337
 146 12  N  1S          0.00442  -0.00184  -0.00952  -0.02911  -0.00406
 147        2S          0.00885  -0.00206  -0.01699  -0.06348  -0.01278
 148        3S          0.01797  -0.02856  -0.13048  -0.17009   0.02531
 149        4PX        -0.07563   0.01713  -0.05260  -0.09063   0.09576
 150        4PY        -0.11661   0.03949   0.01743   0.01563   0.09966
[...]
 001400,-0.00000401,-0.00205064,0.00096339,0.00233490,0.00028566,-0.000
 52419,0.00025326,-0.00056193,0.00015229,0.00052393,-0.00194060,0.00071
 731,0.00255317,0.06363089,0.00999653,-0.01518738,0.01719150,-0.0037303
 8,-0.00366207,-0.00140028,-0.00047103,0.00005245,-0.00087828,-0.001760
 50,0.00153688,-0.00037757,-0.00313180,0.00651586,-0.00458497,0.0610661
 0,-0.23415003,0.12725302,-0.00023842,0.00021747,-0.00020101,0.00000989
 ,0.00001201,-0.00003350,0.00001445,-0.00001827,0.00000131,0.00004173,0
 .00000847,0.00001242,-0.00006488,-0.00004066,0.00004191,0.00010377,0.0
 0003175,-0.00000995,0.00001941,-0.00000392,-0.00001299,-0.00002978,-0.
 00000120,0.00000542,0.00001420,0.00000210,-0.00000842,-0.00000448,0.00
 000050,0.00000151,0.00000745,-0.00000618,-0.00000577,-0.00000024,0.000
 01149,0.00000238,0.00066439,0.00089306,-0.00062827,0.00046615,-0.00085
 112,0.00079188,0.00018980,-0.00002453,-0.00005781,0.00080244,0.0006213
 7,-0.00038997,-0.06397781,0.24406134,0.00089762,-0.00664695,0.00681004
 ,-0.00334372,-0.00074421,0.00338578,0.00026982,-0.00081709,-0.00039345
 ,-0.00635484,-0.00115806,0.00030621,-0.00508809,0.01908467,-0.00761749
 ,-0.05434982,0.12725387,-0.13808451,0.00021432,0.00108176,-0.00015772,
 -0.00015808,0.00003014,-0.00021198,0.00001859,0.00004313,-0.00002998,0
 .00005507,-0.00022790,-0.00001035,-0.00002495,0.00021439,0.00010732,-0
 .00006111,-0.00013244,-0.00006571,-0.00004130,0.00001444,0.00001676,0.
 00007810,-0.00000263,-0.00003295,-0.00003460,0.00000114,0.00001588,0.0
 0000863,-0.00000158,-0.00000485,-0.00001690,0.00000654,0.00000889,0.00
 000976,-0.00001968,-0.00000680,0.00240016,-0.00027483,-0.00127132,-0.0
 0001913,-0.00031327,0.00021628,0.00049620,-0.00002323,-0.00044109,0.00
 253983,-0.00065443,-0.00108337,0.06256507,-0.13670393,0.13856352,-0.00
 004410,0.00004253,-0.00005754,-0.00001708,0.00003247,0.00001527,0.0003
 2378,-0.00006776,0.00001618,-0.00034187,0.00015878,-0.00024261,0.00005
 644,-0.00045153,-0.00126306,-0.00023282,-0.00024958,0.00002863,0.00830
 016,-0.00287998,0.00139646,-0.00007525,-0.00045184,0.00023313,-0.19175
 552,0.13304760,-0.04472974,-0.02712780,0.01580692,0.00436500,-0.003487
 50,-0.00539565,-0.00232012,0.00087669,-0.00101241,-0.00129968,-0.00032
 747,0.00017186,0.00032773,0.00041645,0.00082817,0.00051539,-0.00003520
 ,0.00005416,-0.00000616,0.00003555,-0.00003292,-0.00002385,0.00000152,
 0.00007046,0.00001156,-0.00014145,0.00000872,0.00000023,-0.00001575,-0
 .00001837,0.00000029,-0.00002921,0.00000989,0.00005013,0.00000082,-0.0
 0000871,0.00000350,0.00016930,-0.00018047,-0.00023299,0.00007344,-0.00
 000215,-0.00004133,0.21456661,0.00012616,0.00040051,-0.00004334,0.0002
 8886,-0.00001140,0.00030639,-0.00024622,-0.00033868,-0.00014922,0.0011
 8288,0.00131691,0.00183660,-0.00013488,0.00015327,0.00049717,-0.000440
 43,0.00027685,-0.00031648,0.01726699,-0.01147878,0.00685287,0.00006458
 ,-0.00231604,-0.00123734,0.14149875,-0.17248855,0.04141495,-0.01600278
 ,0.01171149,0.00010993,-0.00256901,-0.00503469,-0.00127122,0.00276849,
 -0.00261502,-0.00242423,0.00019078,-0.00004132,-0.00010450,0.00004155,
 0.00036098,0.00060580,0.00008591,0.00000811,-0.00003892,0.00000551,-0.
 00001419,-0.00002376,0.00008158,0.00001498,-0.00002581,-0.00008634,0.0
 0015331,0.00007283,0.00004623,0.00004634,-0.00000488,0.00002480,0.0000
 0738,-0.00001394,0.00003549,0.00014908,0.00001975,0.00012639,0.0007650
 3,-0.00051053,-0.00001121,-0.00001917,-0.00000049,-0.14359456,0.177782
 40,0.00005450,0.00010906,0.00002276,0.00013847,0.00012033,0.00006468,0
 .00010639,-0.00002643,0.00000227,-0.00006840,0.00101930,0.00028264,-0.
 00041516,-0.00192743,-0.00080332,-0.00013919,0.00028301,-0.00018797,0.
 00792075,-0.00625846,0.00454537,-0.00012511,-0.00108517,-0.00030173,-0
 .05252330,0.04579027,-0.06369506,0.01709870,-0.01192361,0.00267636,0.0
 0334731,0.00054831,-0.00094933,0.00169656,-0.00202057,-0.00153723,0.00
 034308,-0.00016979,-0.00028182,-0.00035654,-0.00055598,-0.00035091,0.0
 0002604,-0.00001895,-0.00000007,-0.00000210,0.00001463,0.00000468,0.00
 002138,-0.00002902,-0.00001209,0.00008660,0.00000647,0.00004921,0.0000
 1930,0.00005281,0.00002129,0.00000374,0.00002552,0.00003490,0.00002138
 ,0.00011862,0.00001607,-0.00029524,0.00011826,-0.00175009,0.00002090,-
 0.00002077,-0.00000130,0.04460737,-0.04403914,0.06610485,-0.00009174,-
 0.00013348,-0.00004661,-0.00015936,-0.00004684,-0.00006305,0.00002009,
 0.00009211,-0.00008163,0.00023439,-0.00095900,-0.00091093,0.00001254,0
 .00014000,-0.00031778,0.00016795,-0.00024842,0.00010256,0.00020999,0.0
 0080426,-0.00283713,0.00039542,-0.00039502,-0.00028132,-0.05831654,0.0
 0626872,-0.06397796,-0.00810491,-0.00140274,0.04114442,0.00067697,-0.0
 0791485,0.00025714,0.00091003,0.00149996,-0.00177755,-0.00017575,0.000
 02115,-0.00012684,-0.00033575,0.00064420,-0.00034472,0.00000339,0.0000
 4755,0.00005455,0.00003625,-0.00001590,-0.00002435,0.00001329,0.000091
 66,0.00000939,-0.00012119,-0.00003444,0.00013733,-0.00003342,-0.000029
 79,-0.00000072,-0.00002457,-0.00001269,-0.00000703,0.00001107,-0.00005
 023,-0.00000550,-0.00016819,-0.00033294,0.00035323,0.00000794,0.000012
 79,-0.00001269,-0.00116218,-0.00076282,-0.02161252,0.06596985,0.000036
 95,0.00000475,-0.00003562,-0.00017227,-0.00030538,0.00017871,-0.000841
 17,0.00027928,-0.00093377,0.00164754,-0.00458429,-0.00105939,-0.000107
 90,-0.00045054,0.00051981,-0.00003872,0.00023295,-0.00008237,-0.008709
 82,0.00203054,-0.02717358,-0.00044576,0.00145005,-0.00001336,0.0055862
 7,-0.04943998,0.00164770,-0.00650569,0.00367080,0.01347209,0.00142104,
 -0.00453281,0.00052145,0.00148289,-0.00001727,-0.00021912,0.00005554,-
 0.00006706,0.00000656,-0.00019365,0.00027785,-0.00025852,-0.00000715,0
 .00004075,0.00004864,0.00003527,-0.00001047,-0.00002237,-0.00000108,0.
 00006113,-0.00000056,-0.00007716,-0.00001983,0.00000342,0.00000175,0.0
 0002609,0.00000049,-0.00007016,-0.00002430,-0.00010008,0.00006891,-0.0
 0004189,-0.00001969,0.00011399,0.00033506,-0.00012534,-0.00003596,0.00
 000504,-0.00001471,0.00406118,0.00120866,0.01987513,0.00268425,0.04985
 030,-0.00002034,-0.00004732,-0.00001961,-0.00008910,-0.00016326,0.0000
 0124,-0.00021060,0.00021022,-0.00049528,0.00061223,-0.00183803,0.00072
 656,0.00009122,-0.00003180,0.00021674,0.00004202,-0.00002409,0.0000149
 2,-0.00418277,0.00173282,-0.00628792,0.00008152,0.00004960,0.00161899,
 -0.05653861,0.00277304,-0.31219498,0.01260463,0.00210130,-0.01384116,-
 0.00151085,0.00444233,0.00079172,-0.00007095,-0.00095245,-0.00028848,0
 .00020724,-0.00006698,0.00007067,-0.00001428,-0.00028071,-0.00014268,0
 .00002953,-0.00001789,-0.00000141,-0.00001897,0.00000571,0.00002358,0.
 00000843,-0.00004447,-0.00002313,0.00004977,0.00003808,-0.00005042,-0.
 00000970,-0.00000481,-0.00001185,-0.00004965,-0.00001082,-0.00003957,0
 .00002615,-0.00002078,-0.00000206,0.00002535,-0.00007010,0.00008676,-0
 .00000772,0.00000918,-0.00001925,-0.00134547,-0.00149342,-0.00395865,0
 .05032263,-0.00625121,0.33386932,0.00001002,0.00000403,0.00001156,0.00
 000258,0.00000818,0.00000423,0.00001803,-0.00000840,0.00002998,0.00000
 515,0.00003061,-0.00004204,0.00000670,-0.00004080,0.00000715,-0.000002
 33,0.00002439,-0.00000903,0.00013817,-0.00006419,0.00013192,-0.0000147
 1,0.00005297,0.00002647,-0.00056475,0.00010482,0.00036452,-0.00007994,
 0.00053441,-0.00009150,0.00018989,-0.00080915,-0.00150210,0.00008286,0
 .00052591,-0.00007054,-0.00018902,-0.00558929,0.00279595,0.01137951,-0
 .01453643,-0.00676745,-0.08584954,0.08461163,0.03611341,-0.00252885,0.
 02485744,0.00686227,-0.00297620,-0.00090604,0.00495186,-0.00156330,-0.
 00017612,0.00048378,0.00000537,0.00000366,0.00000438,0.00000639,0.0000
 0618,0.00000388,-0.00000121,-0.00000092,-0.00000571,-0.00001769,0.0000
 1720,-0.00000919,-0.00000084,-0.00000434,0.00000183,0.00002791,-0.0000
 0020,-0.00000957,0.00006377,0.00002580,-0.00006637,0.08171990,0.000008
 09,0.00000101,0.00001168,0.00000108,0.00000796,0.00000096,0.00001813,-
 0.00000604,0.00003215,-0.00003847,0.00002263,-0.00002905,0.00001210,-0
 .00002472,0.00001099,-0.00000117,0.00001508,-0.00000758,0.00004642,0.0
 0016880,-0.00010967,0.00004422,0.00003513,0.00001089,-0.00054146,0.000
 11029,0.00038165,0.00039599,0.00082876,-0.00003711,0.00127009,-0.00138
 652,-0.00040814,0.00002634,0.00032668,0.00009972,-0.00380088,-0.003891
 90,-0.00026437,0.01213717,-0.01433067,-0.00837639,0.08364197,-0.294552
 23,-0.08198411,-0.00193456,0.00298043,0.00084576,-0.00059463,0.0021160
 3,-0.00078347,-0.00136005,0.00059420,0.00078966,0.00000440,0.00000240,
 0.00000318,0.00000662,0.00000464,0.00000323,-0.00000130,-0.00000343,-0
 .00000642,-0.00001798,0.00002054,-0.00000993,0.00000148,-0.00000254,0.
 00000356,0.00004831,0.00000546,-0.00000571,0.00002742,0.00001832,-0.00
 003821,-0.09001769,0.30649091,-0.00000485,0.00000186,-0.00001049,-0.00
 000281,0.00000245,0.00000874,-0.00000723,-0.00000021,-0.00001750,0.000
 12965,-0.00001075,-0.00003012,-0.00000531,-0.00001217,-0.00002119,0.00
 000160,-0.00000001,-0.00000155,0.00013743,-0.00011886,0.00054790,-0.00
 007763,-0.00000537,0.00000097,0.00010449,0.00003236,-0.00022473,-0.000
 02268,-0.00012709,-0.00023007,-0.00104208,0.00064694,-0.00207077,-0.00
 025956,-0.00021820,-0.00029484,0.00311471,0.00043556,0.00661963,-0.002
 27989,0.00399628,0.00368606,0.03600448,-0.08242543,-0.06866308,0.00232
 281,-0.01140488,0.00029305,0.00501572,-0.00063922,0.00579518,0.0002503
 3,0.00029566,-0.00050727,-0.00000167,-0.00000018,-0.00000071,-0.000002
 28,0.00000006,-0.00000075,0.00000596,0.00000830,-0.00000080,0.00000286
 ,-0.00000478,0.00002623,-0.00001125,0.00000222,-0.00000353,-0.00003178
 ,-0.00000240,0.00002992,0.00002322,0.00001264,-0.00002040,-0.04072425,
 0.08905938,0.05966640,-0.00001014,-0.00000134,-0.00001257,0.00000425,0
 .00000346,-0.00000054,-0.00001095,0.00000592,-0.00001723,0.00001412,0.
 00001795,0.00005727,-0.00001658,-0.00001361,-0.00001799,0.00000611,-0.
 00000455,0.00000147,-0.00000823,-0.00004661,0.00001231,-0.00003780,0.0
 0000361,0.00001656,0.00001796,-0.00000700,-0.00002885,-0.00010609,0.00
 009497,0.00007042,0.00033125,-0.00124993,-0.00041521,-0.00059868,-0.00
 009385,0.00017519,-0.00078244,0.00085553,-0.00125901,-0.00291074,0.001
 69808,0.00548373,-0.01031303,-0.02300691,0.00307367,-0.16052454,-0.138
 38740,0.03109915,0.00950062,0.00902102,-0.00045972,0.00174451,0.001881
 62,0.00353936,-0.00000312,-0.00000081,-0.00000174,-0.00000285,-0.00000
 256,-0.00000266,0.00000365,0.00000620,0.00000275,0.00000501,-0.0000048
 8,0.00001059,-0.00000654,0.00000265,-0.00000493,-0.00001842,0.00000891
 ,0.00000939,-0.00001318,-0.00000891,0.00001268,0.00036511,0.00052948,-
 0.00197910,0.16329786,-0.00000196,-0.00000081,-0.00000182,-0.00000015,
 0.00000163,-0.00000053,-0.00000382,0.00000435,-0.00000135,-0.00000046,
 0.00000447,0.00001211,-0.00000453,-0.00000235,-0.00000171,0.00000085,-
 0.00000258,0.00000049,0.00005971,0.00000522,-0.00001533,-0.00000795,-0
 .00000153,0.00000178,0.00002714,0.00000585,-0.00002937,-0.00008580,0.0
 0000477,0.00004046,0.00032512,0.00024853,-0.00008817,0.00002190,0.0000
 0245,0.00001457,0.00089949,0.00002232,0.00024862,0.00113387,0.00163175
 ,-0.00168158,0.00450456,0.00733168,-0.00165833,-0.13848741,-0.23717525
 ,0.02983798,-0.01873702,-0.01520348,0.00512828,0.00250364,-0.00372002,
 -0.00330620,-0.00000133,-0.00000046,-0.00000132,-0.00000022,-0.0000014
 9,-0.00000119,0.00000278,0.00000177,-0.00000039,0.00000298,-0.00000213
 ,0.00000162,-0.00000060,0.00000135,-0.00000122,-0.00000353,0.00000379,
 0.00000341,-0.00000327,-0.00000267,0.00000461,0.00008580,0.00048895,0.
 00075616,0.14823384,0.24604818,0.00000284,0.00000015,0.00000126,-0.000
 00050,-0.00000135,0.00000140,0.00000219,-0.00000594,0.00000322,0.00000
 815,-0.00000741,-0.00001750,0.00000553,0.00000581,-0.00000114,0.000001
 34,0.00000180,-0.00000058,0.00000978,0.00001376,-0.00000357,0.00001524
 ,0.00000284,-0.00000863,0.00001266,-0.00000162,0.00004191,0.00006015,-
 0.00005831,-0.00002813,-0.00020013,0.00064743,0.00003977,0.00024955,0.
 00007483,-0.00017809,-0.00122655,0.00024509,-0.00326019,0.00541789,-0.
 00186037,0.00562674,0.00766052,0.01093691,0.00330769,0.03111594,0.0297
 6550,-0.05009187,-0.00521861,-0.00760069,0.00623308,0.00364952,-0.0030
 1644,0.00655939,-0.00000019,-0.00000001,0.00000102,0.00000073,0.000001
 29,0.00000151,-0.00000101,-0.00000059,-0.00000127,-0.00000246,0.000002
 24,0.00000171,-0.00000158,0.00000041,0.00000188,0.00000854,-0.00000117
 ,-0.00000458,0.00000375,0.00000363,-0.00000985,-0.00205310,0.00055880,
 -0.00312976,-0.03720667,-0.03036350,0.03853563,-0.00000508,-0.00000307
 ,-0.00000765,0.00000090,0.00000371,-0.00000130,-0.00000514,0.00000239,
 -0.00000856,0.00001660,0.00001566,0.00003007,-0.00001028,-0.00000341,-
 0.00001085,0.00000312,-0.00000379,0.00000284,0.00004187,0.00007046,-0.
 00002318,-0.00001478,-0.00001182,0.00000121,0.00003905,0.00001442,-0.0
 0001503,-0.00014467,0.00001919,0.00008588,-0.00029240,0.00014862,-0.00
 081556,-0.00015372,-0.00010145,0.00022878,-0.00114031,-0.00422330,0.00
 320481,0.00101059,-0.00104132,-0.00074552,0.00277165,0.00085870,0.0027
 7955,-0.00230005,-0.00204437,0.00224483,-0.28509051,0.03710842,0.11987
 244,-0.01070861,0.00865336,0.00741270,-0.00000381,-0.00000064,-0.00000
 224,-0.00000280,-0.00000323,-0.00000153,0.00000518,0.00000589,0.000001
 42,0.00000564,-0.00000560,0.00000522,-0.00000302,0.00000300,-0.0000022
 2,-0.00000947,0.00000988,0.00000501,-0.00001197,-0.00000070,0.00001125
 ,-0.00008424,-0.00023708,0.00013664,-0.00020337,0.00041419,-0.00190369
 ,0.29631627,-0.00000020,0.00000020,-0.00000060,0.00000164,0.00000133,0
 .00000127,-0.00000069,0.00000018,-0.00000052,0.00000752,-0.00000048,0.
 00000309,-0.00000112,-0.00000541,0.00000045,-0.00000054,0.00000168,-0.
 00000063,0.00004362,0.00005972,0.00001242,0.00000507,0.00000175,0.0000
 0251,-0.00006820,0.00003283,0.00002987,-0.00004626,0.00013438,0.000045
 23,0.00000123,-0.00012102,0.00031671,-0.00009472,0.00006656,-0.0000376
 9,-0.00526904,-0.00327315,0.00064693,0.00016739,-0.00224492,-0.0004350
 7,0.00053127,-0.00461426,-0.00247872,0.02581725,0.00126363,-0.01222600
 ,0.03728213,-0.06456840,-0.02166152,-0.02061256,0.01093769,0.01095782,
 -0.00000004,0.00000062,-0.00000005,-0.00000077,-0.00000025,-0.00000016
 ,0.00000142,0.00000134,-0.00000018,-0.00000129,0.00000047,-0.00000039,
 -0.00000001,-0.00000035,-0.00000032,-0.00000267,0.00000795,0.00000681,
 0.00000242,0.00000079,-0.00000053,0.00115216,0.00009986,-0.00055383,0.
 00000441,0.00100916,0.00094079,-0.03975493,0.06087320,0.00000204,-0.00
 000275,0.00000101,-0.00000207,0.00000101,-0.00000483,0.00000915,-0.000
 00327,0.00000700,-0.00001536,0.00002017,-0.00000434,0.00000193,-0.0000
 0187,-0.00000447,0.00000217,0.00000422,-0.00000176,-0.00004251,-0.0000
 2758,-0.00009112,-0.00000565,-0.00000235,-0.00000337,0.00001388,-0.000
 03731,0.00005973,0.00010166,-0.00001849,-0.00002571,-0.00084757,0.0002
 8692,-0.00168443,0.00022090,-0.00004267,0.00036070,0.00287435,0.000272
 27,0.00602473,-0.00050725,0.00011124,0.00005207,0.00273662,-0.00264981
 ,0.00675526,0.00699333,0.00061755,0.00027958,0.11981288,-0.02168275,-0
 .09688393,0.00261549,-0.00247074,0.00065361,-0.00000038,0.00000028,0.0
 0000144,0.00000047,0.00000120,0.00000159,-0.00000285,-0.00000034,0.000
 00159,-0.00000323,0.00000304,0.00000071,-0.00000195,0.00000012,0.00000
 123,0.00000833,-0.00001049,-0.00001525,-0.00000422,0.00000893,-0.00000
 275,0.00038225,0.00007297,0.00013911,-0.00197002,0.00075700,-0.0034694
 6,-0.13122804,0.02428716,0.09004566,-0.00000789,-0.00000365,-0.0000138
 7,0.00000501,-0.00000752,-0.00000678,-0.00000661,0.00001317,-0.0000232
 6,0.00002720,0.00000685,0.00004268,-0.00000955,-0.00000154,-0.00001261
 ,0.00000510,-0.00000518,0.00000201,0.00001172,0.00004696,0.00005782,-0
 .00002824,-0.00000257,0.00001244,0.00000652,0.00007385,-0.00005284,-0.
 00046370,-0.00006924,0.00018045,0.00073233,0.00084511,0.00000965,-0.00
 017748,-0.00024906,0.00003963,-0.01762078,0.03138669,0.01173369,-0.000
 87087,0.00170452,0.00595720,-0.00087793,0.00019801,0.00014014,-0.00130
 164,-0.00324519,0.00315522,0.00895911,-0.01692321,-0.00407036,-0.05804
 842,0.04211469,0.01463558,-0.00000415,-0.00000047,0.00000015,-0.000010
 12,-0.00000371,-0.00000173,-0.00000431,0.00000211,0.00001329,0.0000041
 7,-0.00000868,0.00000733,-0.00000263,0.00000107,-0.00000129,-0.0000275
 8,-0.00000528,0.00002029,-0.00001416,-0.00000527,0.00001072,-0.0001487
 2,0.00032596,-0.00079752,0.00027624,-0.00087784,-0.00040984,-0.0000266
 4,0.00083550,-0.00114436,0.06962403,0.00000784,0.00000262,0.00001159,-
 0.00000338,-0.00000288,0.00000120,0.00001107,-0.00000530,0.00001209,-0
 .00002418,-0.00001506,-0.00004859,0.00001520,0.00000755,0.00001188,-0.
 00000402,0.00000418,-0.00000041,-0.00006940,-0.00005694,-0.00002118,0.
 00002390,0.00000339,-0.00001087,-0.00002006,-0.00002527,0.00005451,0.0
 0017722,-0.00007165,-0.00008833,-0.00025098,0.00014584,0.00006898,0.00
 028917,0.00003556,-0.00009404,0.00938250,0.00176138,-0.00332356,-0.001
 94184,0.00278281,-0.00070924,-0.00029982,0.00028758,0.00029960,-0.0038
 6770,-0.00141997,0.00036117,0.00758015,-0.01209146,-0.00670504,0.04444
 785,-0.31186010,-0.06732703,0.00000514,0.00000048,0.00000278,0.0000040
 4,0.00000459,0.00000224,-0.00000689,-0.00000677,-0.00000179,-0.0000062
 4,0.00000609,-0.00000629,0.00000358,-0.00000373,0.00000333,0.00001107,
 -0.00001467,-0.00001090,0.00000591,0.00000411,-0.00001001,0.00010840,-
 0.00014003,0.00027350,0.00046071,-0.00070344,-0.00028389,0.00010684,0.
 00033492,0.00050634,-0.05614609,0.32103617,0.00000480,0.00000198,0.000
 00233,-0.00000050,0.00000191,0.00000164,0.00000653,-0.00001159,0.00001
 119,0.00000464,-0.00001008,-0.00002829,0.00000900,0.00000165,0.0000055
 6,-0.00000198,0.00000405,-0.00000321,-0.00000048,-0.00001019,0.0000634
 1,0.00001438,0.00000284,-0.00000557,-0.00005836,-0.00003204,-0.0000200
 0,0.00019840,0.00005219,-0.00019797,-0.00027007,-0.00047608,0.00044884
 ,0.00011226,0.00009673,0.00002795,0.00778366,-0.01326886,-0.00968352,0
 .00542496,-0.00243336,0.00870726,0.00015435,0.00010817,-0.00067259,0.0
 0298427,0.00019230,0.00536917,0.00008538,0.00461594,0.00718059,0.01527
 380,-0.06654488,-0.06119634,-0.00000036,0.00000076,0.00000095,0.000001
 93,0.00000138,0.00000315,0.00000094,-0.00000087,-0.00000382,-0.0000038
 5,0.00000475,-0.00000209,-0.00000055,0.00000024,0.00000185,0.00000658,
 -0.00000501,-0.00000561,0.00002433,0.00001049,-0.00001104,-0.00082460,
 0.00017557,-0.00158566,-0.00018832,0.00034493,-0.00015159,-0.00125730,
 0.00014512,-0.00219361,-0.02948384,0.07703195,0.05393703\\-0.00030475,
 0.00033987,-0.00026569,0.00035314,-0.00185846,0.00073466,0.00059272,0.
 00349745,-0.00207484,0.00142647,-0.00033082,0.00292940,-0.00094964,-0.
 00080301,-0.00005837,0.00006108,-0.00084770,0.00025228,0.01464777,0.00
 879014,-0.00290352,-0.00343246,0.00168583,0.00183487,0.00185187,0.0049
 7577,-0.00116540,-0.01093643,0.01804613,0.00953019,-0.00979422,-0.0312
 1416,-0.00251746,-0.00320660,-0.00546271,-0.00280745,0.00597748,-0.000
 14090,-0.00317840,0.00471276,-0.01232276,-0.00369821,0.00220954,0.0030
 0090,-0.00032117,-0.00132464,0.00046628,0.00071222,0.00616189,-0.00288
 158,-0.00317194,-0.01251787,0.00963653,0.00698137,-0.00006125,-0.00018
 769,0.00007579,-0.00042053,-0.00010867,-0.00047781,-0.00201589,0.00048
 595,-0.00004247,0.00042621,-0.00077733,0.00035020,-0.00001948,-0.00001
 802,-0.00014809,-0.00023769,0.00146326,0.00085529,-0.00066641,-0.00017
 115,0.00072995,0.00056431,0.00082320,-0.00007261,0.00033901,-0.0000881
 4,-0.00020294,0.00126129,0.00131274,-0.00041642,0.00530233,0.00268904,
 -0.00146342\\\@

 Writing a WFNX file to "26_lig_b.wfx"


 A BIRD IN THE HAND IS SAFER THAN ONE OVERHEAD.

                       -- NEWTON'S SEVENTH LAW
 Job cpu time:       0 days  1 hours 12 minutes 14.5 seconds.
 Elapsed time:       0 days  0 hours  9 minutes  2.6 seconds.
 File lengths (MBytes):  RWF=    307 Int=      0 D2E=      0 Chk=      7 Scr=      1
 Normal termination of Gaussian 16 at Thu Nov  3 08:13:29 2022.
