 Entering Gaussian System, Link 0=g16
 Initial command:
 /software/gaussian/G16-A.03/avx/g16/l1.exe "/scratch/lcmd/1361357.slurm/Gau-142381.inp" -scrdir="/scratch/lcmd/1361357.slurm/"
 Entering Link 1 = /software/gaussian/G16-A.03/avx/g16/l1.exe PID=    142384.
  
 Copyright (c) 1988,1990,1992,1993,1995,1998,2003,2009,2016,
            Gaussian, Inc.  All Rights Reserved.
  
 This is part of the Gaussian(R) 16 program.  It is based on
 the Gaussian(R) 09 system (copyright 2009, Gaussian, Inc.),
 the Gaussian(R) 03 system (copyright 2003, Gaussian, Inc.),
 the Gaussian(R) 98 system (copyright 1998, Gaussian, Inc.),
 the Gaussian(R) 94 system (copyright 1995, Gaussian, Inc.),
 the Gaussian 92(TM) system (copyright 1992, Gaussian, Inc.),
 the Gaussian 90(TM) system (copyright 1990, Gaussian, Inc.),
 the Gaussian 88(TM) system (copyright 1988, Gaussian, Inc.),
 the Gaussian 86(TM) system (copyright 1986, Carnegie Mellon
 University), and the Gaussian 82(TM) system (copyright 1983,
 Carnegie Mellon University). Gaussian is a federally registered
 trademark of Gaussian, Inc.
  
 This software contains proprietary and confidential information,
 including trade secrets, belonging to Gaussian, Inc.
  
 This software is provided under written license and may be
 used, copied, transmitted, or stored only in accord with that
 written license.
  
 The following legend is applicable only to US Government
 contracts under FAR:
  
                    RESTRICTED RIGHTS LEGEND
  
 Use, reproduction and disclosure by the US Government is
 subject to restrictions as set forth in subparagraphs (a)
 and (c) of the Commercial Computer Software - Restricted
 Rights clause in FAR 52.227-19.
  
 Gaussian, Inc.
 340 Quinnipiac St., Bldg. 40, Wallingford CT 06492
  
  
 ---------------------------------------------------------------
 Warning -- This program may not be used in any manner that
 competes with the business of Gaussian, Inc. or will provide
 assistance to any competitor of Gaussian, Inc.  The licensee
 of this program is prohibited from giving any competitor of
 Gaussian, Inc. access to this program.  By using this program,
 the user acknowledges that Gaussian, Inc. is engaged in the
 business of creating and licensing software in the field of
 computational chemistry and represents and warrants to the
 licensee that it is not a competitor of Gaussian, Inc. and that
 it will not use this program in any manner prohibited above.
 ---------------------------------------------------------------
  

 Cite this work as:
 Gaussian 16, Revision A.03,
 M. J. Frisch, G. W. Trucks, H. B. Schlegel, G. E. Scuseria, 
 M. A. Robb, J. R. Cheeseman, G. Scalmani, V. Barone, 
 G. A. Petersson, H. Nakatsuji, X. Li, M. Caricato, A. V. Marenich, 
 J. Bloino, B. G. Janesko, R. Gomperts, B. Mennucci, H. P. Hratchian, 
 J. V. Ortiz, A. F. Izmaylov, J. L. Sonnenberg, D. Williams-Young, 
 F. Ding, F. Lipparini, F. Egidi, J. Goings, B. Peng, A. Petrone, 
 T. Henderson, D. Ranasinghe, V. G. Zakrzewski, J. Gao, N. Rega, 
 G. Zheng, W. Liang, M. Hada, M. Ehara, K. Toyota, R. Fukuda, 
 J. Hasegawa, M. Ishida, T. Nakajima, Y. Honda, O. Kitao, H. Nakai, 
 T. Vreven, K. Throssell, J. A. Montgomery, Jr., J. E. Peralta, 
 F. Ogliaro, M. J. Bearpark, J. J. Heyd, E. N. Brothers, K. N. Kudin, 
 V. N. Staroverov, T. A. Keith, R. Kobayashi, J. Normand, 
 K. Raghavachari, A. P. Rendell, J. C. Burant, S. S. Iyengar, 
 J. Tomasi, M. Cossi, J. M. Millam, M. Klene, C. Adamo, R. Cammi, 
 J. W. Ochterski, R. L. Martin, K. Morokuma, O. Farkas, 
 J. B. Foresman, and D. J. Fox, Gaussian, Inc., Wallingford CT, 2016.
 
 ******************************************
 Gaussian 16:  ES64L-G16RevA.03 25-Dec-2016
                 3-Nov-2022 
 ******************************************
 %nprocs=8
 Will use up to    8 processors via shared memory.
 %mem=32000MB
 %chk=27_lig_b.chk
 ----------------------------------------------------------------------
 #p pop=(regular,nbo,savenbos) freq=noraman def2svp empiricaldispersion
 =gd3bj output=wfx pbe1pbe
 ----------------------------------------------------------------------
 1/10=4,30=1,38=1/1,3;
 2/12=2,17=6,18=5,40=1/2;
 3/5=43,7=101,11=2,25=1,30=1,71=2,74=-13,124=41,140=1/1,2,3;
 4//1;
 5/5=2,38=5,98=1/2;
 8/6=4,10=90,11=11/1;
 11/6=1,8=1,9=11,15=111,16=1/1,2,10;
 10/6=1/2;
 6/28=1,40=1,73=1/1,7;
 7/8=1,10=1,25=1/1,2,3,16;
 1/10=4,30=1/3;
 99/6=200/99;
 Leave Link    1 at Thu Nov  3 08:04:22 2022, MaxMem=  4194304000 cpu:               0.6 elap:               0.1
 (Enter /software/gaussian/G16-A.03/avx/g16/l101.exe)
 --------
 27_lig_b
 --------
 Symbolic Z-matrix:
 Charge =  0 Multiplicity = 1
 C                    -0.78666   3.46244   0.99395 
 C                     0.00006   2.58575   0.00006 
 C                    -0.99493   1.75377  -0.76166 
 N                    -1.14028   0.48701  -0.78259 
 C                    -2.38155   0.18077  -1.52056 
 H                    -2.15091  -0.6329   -2.22222 
 C                    -2.65503   1.51222  -2.22322 
 O                    -1.87122   2.46375  -1.47624 
 C                    -3.42121  -0.2818   -0.52239 
 C                    -4.24354   0.62639   0.15384 
 C                    -5.14116   0.1811    1.12189 
 C                    -5.21727  -1.1763    1.43055 
 C                    -4.39016  -2.08341   0.77058 
 C                    -3.49538  -1.64159  -0.20154 
 N                     1.14037   0.48699   0.78271 
 C                     0.99512   1.75376   0.76168 
 O                     1.87155   2.46373   1.47609 
 C                     2.65536   1.51219   2.22309 
 C                     2.38173   0.18073   1.52052 
 H                     2.15117  -0.63291   2.22225 
 C                     3.42124  -0.2819    0.52221 
 C                     3.49523  -1.64168   0.20129 
 C                     4.38984  -2.08356  -0.77096 
 C                     5.21697  -1.17651  -1.43099 
 C                     5.14104   0.18088  -1.12225 
 C                     4.24359   0.62623  -0.15407 
 C                     0.78668   3.46269  -0.99368 
 H                    -1.36434   2.83808   1.69144 
 H                    -1.48129   4.11228   0.44599 
 H                    -0.08846   4.08371   1.56979 
 H                    -3.70364   1.83116  -2.20293 
 H                    -2.28879   1.52028  -3.26089 
 H                    -4.18587   1.69651  -0.0651 
 H                    -5.78221   0.89869   1.63966 
 H                    -5.91895  -1.5259    2.19161 
 H                    -4.43413  -3.14663   1.01689 
 H                    -2.82048  -2.34371  -0.7002 
 H                     2.28917   1.52034   3.26078 
 H                     3.70398   1.83106   2.20271 
 H                     2.82033  -2.34377   0.70001 
 H                     4.43366  -3.14678  -1.01732 
 H                     5.91851  -1.52615  -2.19215 
 H                     5.78211   0.89843  -1.64006 
 H                     4.18606   1.69634   0.06491 
 H                     0.08841   4.08396  -1.56942 
 H                     1.36442   2.8385   -1.69128 
 H                     1.48123   4.11251  -0.44562 
 
 ITRead=  0  0  0  0  0  0  0  0  0  0  0  0  0  0  0  0  0  0  0  0
 ITRead=  0  0  0  0  0  0  0  0  0  0  0  0  0  0  0  0  0  0  0  0
 ITRead=  0  0  0  0  0  0  0
 MicOpt= -1 -1 -1 -1 -1 -1 -1 -1 -1 -1 -1 -1 -1 -1 -1 -1 -1 -1 -1 -1
 MicOpt= -1 -1 -1 -1 -1 -1 -1 -1 -1 -1 -1 -1 -1 -1 -1 -1 -1 -1 -1 -1
 MicOpt= -1 -1 -1 -1 -1 -1 -1
 NAtoms=     47 NQM=       47 NQMF=       0 NMMI=      0 NMMIF=      0
                NMic=       0 NMicF=      0.
                    Isotopes and Nuclear Properties:
 (Nuclear quadrupole moments (NQMom) in fm**2, nuclear magnetic moments (NMagM)
  in nuclear magnetons)

  Atom         1           2           3           4           5           6           7           8           9          10
 IAtWgt=          12          12          12          14          12           1          12          16          12          12
 AtmWgt=  12.0000000  12.0000000  12.0000000  14.0030740  12.0000000   1.0078250  12.0000000  15.9949146  12.0000000  12.0000000
 NucSpn=           0           0           0           2           0           1           0           0           0           0
 AtZEff=  -0.0000000  -0.0000000  -0.0000000  -0.0000000  -0.0000000  -0.0000000  -0.0000000  -0.0000000  -0.0000000  -0.0000000
 NQMom=    0.0000000   0.0000000   0.0000000   2.0440000   0.0000000   0.0000000   0.0000000   0.0000000   0.0000000   0.0000000
 NMagM=    0.0000000   0.0000000   0.0000000   0.4037610   0.0000000   2.7928460   0.0000000   0.0000000   0.0000000   0.0000000
 AtZNuc=   6.0000000   6.0000000   6.0000000   7.0000000   6.0000000   1.0000000   6.0000000   8.0000000   6.0000000   6.0000000

  Atom        11          12          13          14          15          16          17          18          19          20
 IAtWgt=          12          12          12          12          14          12          16          12          12           1
 AtmWgt=  12.0000000  12.0000000  12.0000000  12.0000000  14.0030740  12.0000000  15.9949146  12.0000000  12.0000000   1.0078250
 NucSpn=           0           0           0           0           2           0           0           0           0           1
 AtZEff=  -0.0000000  -0.0000000  -0.0000000  -0.0000000  -0.0000000  -0.0000000  -0.0000000  -0.0000000  -0.0000000  -0.0000000
 NQMom=    0.0000000   0.0000000   0.0000000   0.0000000   2.0440000   0.0000000   0.0000000   0.0000000   0.0000000   0.0000000
 NMagM=    0.0000000   0.0000000   0.0000000   0.0000000   0.4037610   0.0000000   0.0000000   0.0000000   0.0000000   2.7928460
 AtZNuc=   6.0000000   6.0000000   6.0000000   6.0000000   7.0000000   6.0000000   8.0000000   6.0000000   6.0000000   1.0000000

  Atom        21          22          23          24          25          26          27          28          29          30
 IAtWgt=          12          12          12          12          12          12          12           1           1           1
 AtmWgt=  12.0000000  12.0000000  12.0000000  12.0000000  12.0000000  12.0000000  12.0000000   1.0078250   1.0078250   1.0078250
 NucSpn=           0           0           0           0           0           0           0           1           1           1
 AtZEff=  -0.0000000  -0.0000000  -0.0000000  -0.0000000  -0.0000000  -0.0000000  -0.0000000  -0.0000000  -0.0000000  -0.0000000
 NQMom=    0.0000000   0.0000000   0.0000000   0.0000000   0.0000000   0.0000000   0.0000000   0.0000000   0.0000000   0.0000000
 NMagM=    0.0000000   0.0000000   0.0000000   0.0000000   0.0000000   0.0000000   0.0000000   2.7928460   2.7928460   2.7928460
 AtZNuc=   6.0000000   6.0000000   6.0000000   6.0000000   6.0000000   6.0000000   6.0000000   1.0000000   1.0000000   1.0000000

  Atom        31          32          33          34          35          36          37          38          39          40
 IAtWgt=           1           1           1           1           1           1           1           1           1           1
 AtmWgt=   1.0078250   1.0078250   1.0078250   1.0078250   1.0078250   1.0078250   1.0078250   1.0078250   1.0078250   1.0078250
 NucSpn=           1           1           1           1           1           1           1           1           1           1
 AtZEff=  -0.0000000  -0.0000000  -0.0000000  -0.0000000  -0.0000000  -0.0000000  -0.0000000  -0.0000000  -0.0000000  -0.0000000
 NQMom=    0.0000000   0.0000000   0.0000000   0.0000000   0.0000000   0.0000000   0.0000000   0.0000000   0.0000000   0.0000000
 NMagM=    2.7928460   2.7928460   2.7928460   2.7928460   2.7928460   2.7928460   2.7928460   2.7928460   2.7928460   2.7928460
 AtZNuc=   1.0000000   1.0000000   1.0000000   1.0000000   1.0000000   1.0000000   1.0000000   1.0000000   1.0000000   1.0000000

  Atom        41          42          43          44          45          46          47
 IAtWgt=           1           1           1           1           1           1           1
 AtmWgt=   1.0078250   1.0078250   1.0078250   1.0078250   1.0078250   1.0078250   1.0078250
 NucSpn=           1           1           1           1           1           1           1
 AtZEff=  -0.0000000  -0.0000000  -0.0000000  -0.0000000  -0.0000000  -0.0000000  -0.0000000
 NQMom=    0.0000000   0.0000000   0.0000000   0.0000000   0.0000000   0.0000000   0.0000000
 NMagM=    2.7928460   2.7928460   2.7928460   2.7928460   2.7928460   2.7928460   2.7928460
 AtZNuc=   1.0000000   1.0000000   1.0000000   1.0000000   1.0000000   1.0000000   1.0000000
 Leave Link  101 at Thu Nov  3 08:04:22 2022, MaxMem=  4194304000 cpu:               1.0 elap:               0.2
 (Enter /software/gaussian/G16-A.03/avx/g16/l103.exe)

 GradGradGradGradGradGradGradGradGradGradGradGradGradGradGradGradGradGrad
 Berny optimization.
 Initialization pass.
 Trust Radius=3.00D-01 FncErr=1.00D-07 GrdErr=1.00D-07 EigMax=2.50D+02 EigMin=1.00D-04
 Number of steps in this run=      2 maximum allowed number of steps=      2.
 GradGradGradGradGradGradGradGradGradGradGradGradGradGradGradGradGradGrad

 Leave Link  103 at Thu Nov  3 08:04:22 2022, MaxMem=  4194304000 cpu:               0.6 elap:               0.1
 (Enter /software/gaussian/G16-A.03/avx/g16/l202.exe)
                          Input orientation:                          
 ---------------------------------------------------------------------
 Center     Atomic      Atomic             Coordinates (Angstroms)
 Number     Number       Type             X           Y           Z
 ---------------------------------------------------------------------
      1          6           0       -0.786660    3.462440    0.993950
      2          6           0        0.000060    2.585750    0.000060
      3          6           0       -0.994930    1.753770   -0.761660
      4          7           0       -1.140280    0.487010   -0.782590
      5          6           0       -2.381550    0.180770   -1.520560
      6          1           0       -2.150910   -0.632900   -2.222220
      7          6           0       -2.655030    1.512220   -2.223220
      8          8           0       -1.871220    2.463750   -1.476240
      9          6           0       -3.421210   -0.281800   -0.522390
     10          6           0       -4.243540    0.626390    0.153840
     11          6           0       -5.141160    0.181100    1.121890
     12          6           0       -5.217270   -1.176300    1.430550
     13          6           0       -4.390160   -2.083410    0.770580
     14          6           0       -3.495380   -1.641590   -0.201540
     15          7           0        1.140370    0.486990    0.782710
     16          6           0        0.995120    1.753760    0.761680
     17          8           0        1.871550    2.463730    1.476090
     18          6           0        2.655360    1.512190    2.223090
     19          6           0        2.381730    0.180730    1.520520
     20          1           0        2.151170   -0.632910    2.222250
     21          6           0        3.421240   -0.281900    0.522210
     22          6           0        3.495230   -1.641680    0.201290
     23          6           0        4.389840   -2.083560   -0.770960
     24          6           0        5.216970   -1.176510   -1.430990
     25          6           0        5.141040    0.180880   -1.122250
     26          6           0        4.243590    0.626230   -0.154070
     27          6           0        0.786680    3.462690   -0.993680
     28          1           0       -1.364340    2.838080    1.691440
     29          1           0       -1.481290    4.112280    0.445990
     30          1           0       -0.088460    4.083710    1.569790
     31          1           0       -3.703640    1.831160   -2.202930
     32          1           0       -2.288790    1.520280   -3.260890
     33          1           0       -4.185870    1.696510   -0.065100
     34          1           0       -5.782210    0.898690    1.639660
     35          1           0       -5.918950   -1.525900    2.191610
     36          1           0       -4.434130   -3.146630    1.016890
     37          1           0       -2.820480   -2.343710   -0.700200
     38          1           0        2.289170    1.520340    3.260780
     39          1           0        3.703980    1.831060    2.202710
     40          1           0        2.820330   -2.343770    0.700010
     41          1           0        4.433660   -3.146780   -1.017320
     42          1           0        5.918510   -1.526150   -2.192150
     43          1           0        5.782110    0.898430   -1.640060
     44          1           0        4.186060    1.696340    0.064910
     45          1           0        0.088410    4.083960   -1.569420
     46          1           0        1.364420    2.838500   -1.691280
     47          1           0        1.481230    4.112510   -0.445620
 ---------------------------------------------------------------------
                    Distance matrix (angstroms):
                    1          2          3          4          5
     1  C    0.000000
     2  C    1.541211   0.000000
     3  C    2.458678   1.504132   0.000000
     4  N    3.483436   2.513489   1.275243   0.000000
     5  C    4.431229   3.710563   2.230016   1.476189   0.000000
     6  H    5.383004   4.463733   3.027494   2.085211   1.098900
     7  C    4.200518   3.625596   2.224958   2.328291   1.530125
     8  O    2.876715   2.386637   1.335133   2.218766   2.339743
     9  C    4.822808   4.494540   3.176103   2.421036   1.513673
    10  C    4.549614   4.676631   3.558454   3.244465   2.543462
    11  C    5.453919   5.785584   4.817912   4.441584   3.820732
    12  C    6.429528   6.589374   5.587419   4.928127   4.311844
    13  C    6.617519   6.455137   5.347831   4.425055   3.796096
    14  C    5.900634   5.489002   4.253758   3.227236   2.510264
    15  N    3.551249   2.513492   2.923921   2.766140   4.219330
    16  C    2.479572   1.504133   2.506165   2.923929   4.368617
    17  O    2.880271   2.386635   3.705169   4.252079   5.681609
    18  C    4.142676   3.625605   4.721410   4.948938   6.415455
    19  C    4.591905   3.710562   4.368596   4.219322   5.651283
    20  H    5.187625   4.463762   4.949536   4.595316   5.934328
    21  C    5.652348   4.494500   5.029397   4.806370   6.169226
    22  C    6.709317   5.488886   5.711207   5.194930   6.389259
    23  C    7.789042   6.455006   6.612181   6.098376   7.179193
    24  C    7.965159   6.589283   6.900887   6.603207   7.719309
    25  C    7.098209   5.785556   6.344615   6.297941   7.533128
    26  C    5.887737   4.676646   5.392829   5.422221   6.779248
    27  C    2.534970   1.541205   2.479592   3.551395   4.591980
    28  H    1.100014   2.187698   2.707377   3.420315   4.291032
    29  H    1.097754   2.173372   2.693981   3.842952   4.487155
    30  H    1.097748   2.171583   3.418474   4.424508   5.481010
    31  H    4.624920   4.374925   3.069260   3.224115   2.222012
    32  H    4.912438   4.124058   2.823959   2.920393   2.198099
    33  H    3.974258   4.279837   3.266584   3.354594   2.769730
    34  H    5.652015   6.242524   5.423610   5.252075   4.697541
    35  H    7.256606   7.532811   6.612413   5.977739   5.404269
    36  H    7.548799   7.318208   6.245419   5.224071   4.660829
    37  H    6.381061   5.722358   4.486173   3.292846   2.690474
    38  H    4.286141   4.124005   5.198060   5.401642   6.816985
    39  H    4.928321   4.374957   5.556367   5.846823   7.322559
    40  H    6.841700   5.722239   5.786408   5.088993   6.193851
    41  H    8.659026   7.318044   7.317810   6.657953   7.600850
    42  H    8.944080   7.532699   7.784589   7.474369   8.500330
    43  H    7.527343   6.242527   6.887050   6.987418   8.196015
    44  H    5.358187   4.279936   5.246825   5.527263   6.924173
    45  H    2.779011   2.171568   2.693675   3.881601   4.619305
    46  H    3.496699   2.187691   2.758145   3.553695   4.596190
    47  H    2.763743   2.173359   3.434371   4.486660   5.615616
                    6          7          8          9         10
     6  H    0.000000
     7  C    2.203560   0.000000
     8  O    3.197492   1.441439   0.000000
     9  C    2.150896   2.588119   3.293986   0.000000
    10  C    3.407429   2.993071   3.414814   1.399401   0.000000
    11  C    4.559305   4.375212   4.759546   2.424079   1.393243
    12  C    4.800060   5.209918   5.735455   2.799989   2.414090
    13  C    4.009373   4.990197   5.663031   2.420007   2.782963
    14  C    2.628346   3.839257   4.595277   1.399098   2.414492
    15  N    4.595246   4.948916   4.252071   4.806489   5.422305
    16  C    4.949476   4.721394   3.705169   5.029544   5.392958
    17  O    6.280669   5.922853   4.767030   6.288495   6.520620
    18  C    6.889298   6.926032   5.922874   6.905126   7.256808
    19  C    5.934216   6.415404   5.681579   6.169403   6.779427
    20  H    6.185564   6.889365   6.280745   6.221555   6.837870
    21  C    6.221250   6.904876   6.288285   6.921727   7.727195
    22  C    6.226551   7.324686   6.961857   7.085911   8.064425
    23  C    6.855070   8.041697   7.770220   8.020014   9.095842
    24  C    7.430156   8.356152   7.968436   8.731793   9.760296
    25  C    7.419212   7.985193   7.382994   8.595698   9.481415
    26  C    6.837564   7.256536   6.520392   7.727182   8.492714
    27  C    5.187736   4.142640   2.880135   5.652403   5.887658
    28  H    5.289908   4.329936   3.229744   4.343433   3.942788
    29  H    5.484931   3.906745   2.562160   4.899897   4.457220
    30  H    6.393704   5.252311   3.883401   5.877254   5.587725
    31  H    2.912548   1.096229   2.070268   2.714513   2.701357
    32  H    2.394584   1.100434   2.061426   3.468321   4.034906
    33  H    3.770992   2.652342   2.817371   2.169684   1.093809
    34  H    5.517810   5.007746   5.239665   3.412087   2.156227
    35  H    5.871752   6.274876   6.764211   3.892594   3.404682
    36  H    4.692949   5.947133   6.652862   3.406265   3.875159
    37  H    2.385737   4.149116   4.961351   2.154986   3.402349
    38  H    7.376587   7.383728   6.374812   7.082974   7.288932
    39  H    7.741501   7.754194   6.709532   7.915724   8.295310
    40  H    6.014959   7.307086   7.061087   6.686016   7.682344
    41  H    7.150380   8.567964   8.452228   8.375682   9.534266
    42  H    8.118765   9.096057   8.781328   9.569058  10.649148
    43  H    8.100413   8.479513   7.813483   9.345760  10.188510
    44  H    7.128360   7.215951   6.297198   7.882164   8.497697
    45  H    5.262079   3.816774   2.544388   5.698558   5.804327
    46  H    4.968909   4.265906   3.264360   5.831366   6.304531
    47  H    6.234394   5.199040   3.875501   6.584054   6.729441
                   11         12         13         14         15
    11  C    0.000000
    12  C    1.394130   0.000000
    13  C    2.411519   1.393743   0.000000
    14  C    2.789670   2.417668   1.393145   0.000000
    15  N    6.298113   6.603470   6.098677   5.195169   0.000000
    16  C    6.344836   6.901190   6.612503   5.711461   1.275244
    17  O    7.383357   7.968893   7.770665   6.962186   2.218761
    18  C    7.985622   8.356698   8.042231   7.325078   2.328288
    19  C    7.533444   7.719743   7.179640   6.389582   1.476189
    20  H    7.419669   7.430745   6.855676   6.227015   2.085226
    21  C    8.595852   8.732061   8.020293   7.086057   2.421037
    22  C    8.874529   8.811090   7.918244   7.002207   3.227174
    23  C    9.977551   9.897794   8.914300   7.918098   4.425005
    24  C   10.754123  10.819509   9.897794   8.810953   4.928120
    25  C   10.524248  10.754223   9.977654   8.874506   4.441614
    26  C    9.481548   9.760533   9.096085   8.064547   3.244521
    27  C    7.098152   7.965208   7.789192   6.709486   3.483597
    28  H    4.652773   5.570312   5.850182   5.309628   3.553447
    29  H    5.413471   6.549503   6.852259   6.130487   4.486559
    30  H    6.400059   7.347910   7.561530   6.893749   3.881483
    31  H    3.980401   4.953591   4.963560   4.013593   5.846817
    32  H    5.397979   6.152816   5.801301   4.562116   5.401623
    33  H    2.148951   3.399087   3.876582   3.411496   5.527255
    34  H    1.092688   2.160664   3.403825   3.882349   6.987559
    35  H    2.159423   1.092606   2.160403   3.407968   7.474672
    36  H    3.403631   2.160237   1.092263   2.151969   6.658309
    37  H    3.883328   3.412850   2.166759   1.094132   5.089226
    38  H    7.847179   8.183413   7.987588   7.446239   2.920340
    39  H    9.062397   9.446118   9.104349   8.346886   3.224131
    40  H    8.362911   8.154734   7.215534   6.418258   3.292766
    41  H   10.359932  10.149646   9.065712   8.111767   5.223998
    42  H   11.671070  11.715458  10.740437   9.622743   5.977721
    43  H   11.289852  11.606873  10.870954   9.725886   5.252128
    44  H    9.508427   9.926714   9.398725   8.379576   3.354697
    45  H    7.058602   8.051111   7.973057   6.891775   4.424628
    46  H    7.569562   8.317637   7.962484   6.775558   3.420588
    47  H    7.859333   8.738503   8.622168   7.611563   3.843095
                   16         17         18         19         20
    16  C    0.000000
    17  O    1.335129   0.000000
    18  C    2.224966   1.441456   0.000000
    19  C    2.230011   2.339732   1.530119   0.000000
    20  H    3.027525   3.197518   2.203557   1.098905   0.000000
    21  C    3.176053   3.293920   2.588112   1.513681   2.150912
    22  C    4.253657   4.595198   3.839265   2.510265   2.628382
    23  C    5.347722   5.662938   4.990208   3.796103   4.009406
    24  C    5.587334   5.735355   5.209919   4.311855   4.800083
    25  C    4.817862   4.759447   4.375190   3.820736   4.559304
    26  C    3.558438   3.414733   2.993040   2.543471   3.407426
    27  C    2.458694   2.876565   4.200479   4.431326   5.383120
    28  H    2.758125   3.264582   4.265985   4.596060   4.968736
    29  H    3.434368   3.875611   5.199079   5.615570   6.234316
    30  H    2.693669   2.544554   3.816813   4.619255   5.261953
    31  H    5.556370   6.709551   7.754242   7.322549   7.741619
    32  H    5.198043   6.374755   7.383679   6.816893   7.376605
    33  H    5.246856   6.297319   7.216108   6.924244   7.128551
    34  H    6.887249   7.813843   8.479939   8.196315   8.100847
    35  H    7.784936   8.781857   9.096690   8.500837   8.119434
    36  H    7.318177   8.452728   8.568570   7.601376   7.151074
    37  H    5.786636   7.061364   7.307422   6.194141   6.015385
    38  H    2.823925   2.061434   1.100437   2.198096   2.394593
    39  H    3.069278   2.070277   1.096220   2.222008   2.912516
    40  H    4.486084   4.961304   4.149146   2.690485   2.385798
    41  H    6.245293   6.652768   5.947151   4.660834   4.692986
    42  H    6.612314   6.764097   6.274871   5.404273   5.871768
    43  H    5.423580   5.239564   5.007714   4.697547   5.517804
    44  H    3.266632   2.817317   2.652300   2.769744   3.770981
    45  H    3.418477   3.883280   5.252272   5.481081   6.393794
    46  H    2.707408   3.229530   4.329886   4.291191   5.290121
    47  H    2.693989   2.561990   3.906694   4.487260   5.485012
                   21         22         23         24         25
    21  C    0.000000
    22  C    1.399095   0.000000
    23  C    2.420011   1.393146   0.000000
    24  C    2.799993   2.417666   1.393744   0.000000
    25  C    2.424072   2.789655   2.411513   1.394128   0.000000
    26  C    1.399398   2.414485   2.782967   2.414097   1.393243
    27  C    4.822943   5.900745   6.617647   6.429688   5.454105
    28  H    5.831222   6.775265   7.962195   8.317460   7.569513
    29  H    6.584028   7.611418   8.622040   8.738480   7.859423
    30  H    5.698594   6.891714   7.973048   8.051222   7.058812
    31  H    7.915512   8.346533   9.103845   9.445594   9.061990
    32  H    7.082665   7.445775   7.986959   8.182765   7.846665
    33  H    7.882079   8.379366   9.398402   9.926394   9.508204
    34  H    9.345907   9.725908  10.870856  11.606778  11.289853
    35  H    9.569409   9.622971  10.740529  11.715546  11.671253
    36  H    8.376051   8.112017   9.065813  10.149740  10.360122
    37  H    6.686136   6.418234   7.215359   8.154570   8.362863
    38  H    3.468345   4.562174   5.801365   6.152863   5.397987
    39  H    2.714521   4.013625   4.963604   4.953624   3.980401
    40  H    2.154997   1.094140   2.166754   3.412849   3.883321
    41  H    3.406271   2.151973   1.092268   2.160246   3.403633
    42  H    3.892591   3.407960   2.160398   1.092598   2.159421
    43  H    3.412081   3.882338   3.403824   2.160664   1.092692
    44  H    2.169679   3.411484   3.876577   3.399082   2.148943
    45  H    5.877364   6.893823   7.561623   7.348050   6.400239
    46  H    4.343609   5.309820   5.850370   5.570476   4.652913
    47  H    4.900120   6.130693   6.852528   6.549843   5.413848
                   26         27         28         29         30
    26  C    0.000000
    27  C    4.549800   0.000000
    28  H    6.304527   3.496698   0.000000
    29  H    6.729552   2.763748   1.785612   0.000000
    30  H    5.804526   2.779013   1.787250   1.789893   0.000000
    31  H    8.295068   4.928199   4.653206   4.142357   5.690072
    32  H    7.288597   4.286224   5.207377   4.594723   5.894751
    33  H    8.497600   5.357976   3.514206   3.662228   5.016010
    34  H   10.188639   7.527210   4.825090   5.499993   6.524417
    35  H   10.649465   8.944136   6.327635   7.384381   8.114740
    36  H    9.534592   8.659236   6.759836   7.857287   8.453896
    37  H    7.682440   6.841931   5.889926   6.692308   7.343604
    38  H    4.034897   4.912294   4.188962   5.371924   3.883740
    39  H    2.701334   4.624907   5.192625   5.931025   4.456189
    40  H    3.402355   6.381167   6.733941   7.762026   7.108451
    41  H    3.875169   7.548915   8.762005   9.477440   8.911941
    42  H    3.404683   7.256758   9.336417   9.669990   9.039160
    43  H    2.156224   5.652217   8.119907   8.212029   7.410313
    44  H    1.093800   3.974467   5.895431   6.172588   5.122082
    45  H    5.587901   1.097740   3.780993   2.554728   3.144189
    46  H    3.942940   1.100019   4.346139   3.780014   3.781003
    47  H    4.457553   1.097741   3.780009   3.093783   2.554728
                   31         32         33         34         35
    31  H    0.000000
    32  H    1.793802   0.000000
    33  H    2.195676   3.720624   0.000000
    34  H    4.467152   6.050268   2.468000   0.000000
    35  H    5.957301   7.224059   4.298864   2.490378   0.000000
    36  H    5.973211   6.684455   4.968736   4.309266   2.492273
    37  H    4.524125   4.665860   4.311730   4.975937   4.316468
    38  H    8.115572   7.968055   7.281391   8.256007   8.820200
    39  H    8.618729   8.115467   8.210408   9.548515  10.191667
    40  H    8.271595   7.531449   8.123798   9.241222   8.903303
    41  H    9.612555   8.485658   9.932798  11.304396  10.959061
    42  H   10.191046   8.819451  10.817041  12.548684  12.623106
    43  H    9.548102   8.255496  10.123145  12.020402  12.548860
    44  H    8.210277   7.281183   8.372939  10.123364  10.817435
    45  H    4.456017   3.883891   5.121754   7.410015   9.039040
    46  H    5.192471   4.188952   5.895280   8.119873   9.336611
    47  H    5.930900   5.372006   6.172348   8.211857   9.670021
                   36         37         38         39         40
    36  H    0.000000
    37  H    2.489366   0.000000
    38  H    8.486366   7.531850   0.000000
    39  H    9.613137   8.271890   1.793808   0.000000
    40  H    7.305627   5.811998   4.665943   4.524174   0.000000
    41  H    9.098116   7.305343   6.684533   5.973267   2.489354
    42  H   10.959062   8.903048   7.224102   5.957331   4.316458
    43  H   11.304577   9.241178   6.050259   4.467136   4.975935
    44  H    9.933192   8.123977   3.720585   2.195618   4.311735
    45  H    8.912003   7.108595   5.894601   5.690068   7.343665
    46  H    8.762371   6.734310   5.207265   4.653132   5.890150
    47  H    9.477633   7.762235   4.594509   4.142377   6.692474
                   41         42         43         44         45
    41  H    0.000000
    42  H    2.492277   0.000000
    43  H    4.309274   2.490381   0.000000
    44  H    4.968736   4.298854   2.467987   0.000000
    45  H    8.453970   8.114875   6.524631   5.016224   0.000000
    46  H    6.760032   6.327778   4.825192   3.514311   1.787239
    47  H    7.857543   7.384735   5.500415   3.662598   1.789885
                   46         47
    46  H    0.000000
    47  H    1.785613   0.000000
 Stoichiometry    C21H22N2O2
 Framework group  C1[X(C21H22N2O2)]
 Deg. of freedom   135
 Full point group                 C1      NOp   1
 Largest Abelian subgroup         C1      NOp   1
 Largest concise Abelian subgroup C1      NOp   1
                         Standard orientation:                         
 ---------------------------------------------------------------------
 Center     Atomic      Atomic             Coordinates (Angstroms)
 Number     Number       Type             X           Y           Z
 ---------------------------------------------------------------------
      1          6           0        0.799675    2.839982   -0.983321
      2          6           0       -0.000031    1.963200    0.000068
      3          6           0        0.984868    1.131138    0.774704
      4          7           0        1.129924   -0.135625    0.797416
      5          6           0        2.361396   -0.441945    1.551590
      6          1           0        2.121559   -1.255683    2.250082
      7          6           0        2.625634    0.889434    2.257911
      8          8           0        1.851704    1.841042    1.500798
      9          6           0        3.414070   -0.904424    0.567111
     10          6           0        4.245212    0.003827   -0.098174
     11          6           0        5.155463   -0.441374   -1.054399
     12          6           0        5.235611   -1.798744   -1.362167
     13          6           0        4.399903   -2.705914   -0.713202
     14          6           0        3.492439   -2.264183    0.247129
     15          7           0       -1.129978   -0.135476   -0.797693
     16          6           0       -0.985010    1.131291   -0.774633
     17          8           0       -1.851980    1.841337   -1.500419
     18          6           0       -2.625920    0.889875   -2.257739
     19          6           0       -2.361545   -0.441655   -1.551768
     20          1           0       -2.121796   -1.255228   -2.250490
     21          6           0       -3.414075   -0.904377   -0.567238
     22          6           0       -3.492280   -2.264188   -0.247450
     23          6           0       -4.399580   -2.706157    0.712927
     24          6           0       -5.235300   -1.799166    1.362129
     25          6           0       -5.155316   -0.441747    1.054546
     26          6           0       -4.245229    0.003692    0.098276
     27          6           0       -0.799626    2.840047    0.983480
     28          1           0        1.386460    2.215687   -1.673228
     29          1           0        1.487055    3.489764   -0.426224
     30          1           0        0.109100    3.461313   -1.568218
     31          1           0        3.674422    1.208369    2.251422
     32          1           0        2.245801    0.897395    3.290684
     33          1           0        4.184678    1.073926    0.120095
     34          1           0        5.803259    0.276263   -1.563638
     35          1           0        5.947222   -2.148274   -2.113983
     36          1           0        4.447097   -3.769110   -0.959018
     37          1           0        2.811046   -2.966348    0.736816
     38          1           0       -2.246137    0.898125   -3.290531
     39          1           0       -3.674715    1.208750   -2.251098
     40          1           0       -2.810894   -2.966233   -0.737335
     41          1           0       -4.446637   -3.769401    0.958586
     42          1           0       -5.946775   -2.148876    2.113978
     43          1           0       -5.803125    0.275757    1.563965
     44          1           0       -4.184823    1.073824   -0.119825
     45          1           0       -0.108972    3.461256    1.568400
     46          1           0       -1.386478    2.215793    1.673373
     47          1           0       -1.486917    3.489926    0.426412
 ---------------------------------------------------------------------
 Rotational constants (GHZ):           0.3612753           0.1262087           0.1132590
 Leave Link  202 at Thu Nov  3 08:04:23 2022, MaxMem=  4194304000 cpu:               0.7 elap:               0.2
 (Enter /software/gaussian/G16-A.03/avx/g16/l301.exe)
 Standard basis: def2SVP (5D, 7F)
 Ernie: Thresh=  0.10000D-02 Tol=  0.10000D-05 Strict=F.
 There are   485 symmetry adapted cartesian basis functions of A   symmetry.
 There are   460 symmetry adapted basis functions of A   symmetry.
   460 basis functions,   779 primitive gaussians,   485 cartesian basis functions
    89 alpha electrons       89 beta electrons
       nuclear repulsion energy      2134.3563877018 Hartrees.
 IExCor= 1009 DFT=T Ex+Corr=PBE1PBE ExCW=0 ScaHFX=  0.250000
 ScaDFX=  0.750000  0.750000  1.000000  1.000000 ScalE2=  1.000000  1.000000
 IRadAn=      5 IRanWt=     -1 IRanGd=            0 ICorTp=0 IEmpDi=141
 NAtoms=   47 NActive=   47 NUniq=   47 SFac= 1.00D+00 NAtFMM=   60 NAOKFM=F Big=F
 Integral buffers will be    131072 words long.
 Raffenetti 2 integral format.
 Two-electron integral symmetry is turned on.
 R6Disp:  Grimme-D3(BJ) Dispersion energy=       -0.0540499643 Hartrees.
 Nuclear repulsion after empirical dispersion term =     2134.3023377375 Hartrees.
 Leave Link  301 at Thu Nov  3 08:04:23 2022, MaxMem=  4194304000 cpu:               0.8 elap:               0.1
 (Enter /software/gaussian/G16-A.03/avx/g16/l302.exe)
 NPDir=0 NMtPBC=     1 NCelOv=     1 NCel=       1 NClECP=     1 NCelD=      1
         NCelK=      1 NCelE2=     1 NClLst=     1 CellRange=     0.0.
 One-electron integrals computed using PRISM.
 One-electron integral symmetry used in STVInt
   1 Symmetry operations used in ECPInt.
 ECPInt:  NShTT=   23436 NPrTT=   84646 LenC2=   20370 LenP2D=   49718.
 LDataN:  DoStor=T MaxTD1= 4 Len=   56
 NBasis=   460 RedAO= T EigKep=  2.87D-04  NBF=   460
 NBsUse=   460 1.00D-06 EigRej= -1.00D+00 NBFU=   460
 Precomputing XC quadrature grid using
 IXCGrd= 4 IRadAn=           5 IRanWt=          -1 IRanGd=           0 AccXCQ= 0.00D+00.
 Generated NRdTot=       0 NPtTot=           0 NUsed=           0 NTot=          32
 NSgBfM=   479   479   479   479   479 MxSgAt=    47 MxSgA2=    47.
 Leave Link  302 at Thu Nov  3 08:04:24 2022, MaxMem=  4194304000 cpu:               8.4 elap:               1.1
 (Enter /software/gaussian/G16-A.03/avx/g16/l303.exe)
 DipDrv:  MaxL=1.
 Leave Link  303 at Thu Nov  3 08:04:24 2022, MaxMem=  4194304000 cpu:               1.9 elap:               0.3
 (Enter /software/gaussian/G16-A.03/avx/g16/l401.exe)
 ExpMin= 1.22D-01 ExpMax= 2.27D+03 ExpMxC= 3.41D+02 IAcc=3 IRadAn=         5 AccDes= 0.00D+00
 Harris functional with IExCor= 1009 and IRadAn=       5 diagonalized for initial guess.
 HarFok:  IExCor= 1009 AccDes= 0.00D+00 IRadAn=         5 IDoV= 1 UseB2=F ITyADJ=14
 ICtDFT=  3500011 ScaDFX=  1.000000  1.000000  1.000000  1.000000
 FoFCou: FMM=F IPFlag=           0 FMFlag=      100000 FMFlg1=           0
         NFxFlg=           0 DoJE=T BraDBF=F KetDBF=T FulRan=T
         wScrn=  0.000000 ICntrl=       500 IOpCl=  0 I1Cent=   200000004 NGrid=           0
         NMat0=    1 NMatS0=      1 NMatT0=    0 NMatD0=    1 NMtDS0=    0 NMtDT0=    0
 Petite list used in FoFCou.
 Harris En= -1071.68087034497    
 JPrj=0 DoOrth=F DoCkMO=F.
 Leave Link  401 at Thu Nov  3 08:04:30 2022, MaxMem=  4194304000 cpu:              43.0 elap:               5.7
 (Enter /software/gaussian/G16-A.03/avx/g16/l502.exe)
 Integral symmetry usage will be decided dynamically.
 Closed shell SCF:
 Using DIIS extrapolation, IDIIS=  1040.
 NGot=  4194304000 LenX=  4193824455 LenY=  4193588745
 Requested convergence on RMS density matrix=1.00D-08 within 128 cycles.
 Requested convergence on MAX density matrix=1.00D-06.
 Requested convergence on             energy=1.00D-06.
 No special actions if energy rises.
 Fock matrices will be formed incrementally for  20 cycles.
 Integral accuracy reduced to 1.0D-05 until final iterations.

 Cycle   1  Pass 0  IDiag  1:
 FoFJK:  IHMeth= 1 ICntrl=       0 DoSepK=F KAlg= 0 I1Cent=           0 FoldK=F
 IRaf= 790000000 NMat=       1 IRICut=       1 DoRegI=T DoRafI=F ISym2E= 0 IDoP0=0 IntGTp=1.
 FoFCou: FMM=F IPFlag=           0 FMFlag=      100000 FMFlg1=           0
         NFxFlg=           0 DoJE=F BraDBF=F KetDBF=F FulRan=T
         wScrn=  0.000000 ICntrl=         0 IOpCl=  0 I1Cent=           0 NGrid=           0
         NMat0=    1 NMatS0=      1 NMatT0=    0 NMatD0=    1 NMtDS0=    0 NMtDT0=    0
 Symmetry not used in FoFCou.
 E= -1071.00637032808    
 DIIS: error= 3.19D-02 at cycle   1 NSaved=   1.
 NSaved= 1 IEnMin= 1 EnMin= -1071.00637032808     IErMin= 1 ErrMin= 3.19D-02
 ErrMax= 3.19D-02  0.00D+00 EMaxC= 1.00D-01 BMatC= 4.00D-01 BMatP= 4.00D-01
 IDIUse=3 WtCom= 6.81D-01 WtEn= 3.19D-01
 Coeff-Com:  0.100D+01
 Coeff-En:   0.100D+01
 Coeff:      0.100D+01
 Gap=     0.272 Goal=   None    Shift=    0.000
 GapD=    0.272 DampG=1.000 DampE=0.500 DampFc=0.5000 IDamp=-1.
 Damping current iteration by 5.00D-01
 RMSDP=4.39D-03 MaxDP=2.39D-01              OVMax= 2.12D-01

 Cycle   2  Pass 0  IDiag  1:
 RMSU=  2.16D-03    CP:  9.76D-01
 E= -1071.20309777451     Delta-E=       -0.196727446430 Rises=F Damp=T
 DIIS: error= 6.20D-03 at cycle   2 NSaved=   2.
 NSaved= 2 IEnMin= 2 EnMin= -1071.20309777451     IErMin= 2 ErrMin= 6.20D-03
 ErrMax= 6.20D-03  0.00D+00 EMaxC= 1.00D-01 BMatC= 3.29D-02 BMatP= 4.00D-01
 IDIUse=3 WtCom= 9.38D-01 WtEn= 6.20D-02
 Coeff-Com:  0.574D-01 0.943D+00
 Coeff-En:   0.749D-01 0.925D+00
 Coeff:      0.584D-01 0.942D+00
 Gap=     0.272 Goal=   None    Shift=    0.000
 RMSDP=1.39D-03 MaxDP=5.41D-02 DE=-1.97D-01 OVMax= 1.99D-01

 Cycle   3  Pass 0  IDiag  1:
 RMSU=  1.33D-03    CP:  9.56D-01  8.87D-01
 E= -1071.40469820829     Delta-E=       -0.201600433774 Rises=F Damp=F
 DIIS: error= 1.24D-02 at cycle   3 NSaved=   3.
 NSaved= 3 IEnMin= 3 EnMin= -1071.40469820829     IErMin= 2 ErrMin= 6.20D-03
 ErrMax= 1.24D-02  0.00D+00 EMaxC= 1.00D-01 BMatC= 4.87D-02 BMatP= 3.29D-02
 IDIUse=2 WtCom= 0.00D+00 WtEn= 1.00D+00
 Coeff-En:   0.000D+00 0.000D+00 0.100D+01
 Coeff:      0.000D+00 0.000D+00 0.100D+01
 Gap=     0.238 Goal=   None    Shift=    0.000
 RMSDP=2.06D-03 MaxDP=1.40D-01 DE=-2.02D-01 OVMax= 1.94D-01

 Cycle   4  Pass 0  IDiag  1:
 RMSU=  1.12D-03    CP:  9.66D-01  1.43D+00  5.13D-02
 E= -1071.21976994579     Delta-E=        0.184928262498 Rises=F Damp=F
 DIIS: error= 2.64D-02 at cycle   4 NSaved=   4.
 NSaved= 4 IEnMin= 3 EnMin= -1071.40469820829     IErMin= 2 ErrMin= 6.20D-03
 ErrMax= 2.64D-02  0.00D+00 EMaxC= 1.00D-01 BMatC= 2.54D-01 BMatP= 3.29D-02
 IDIUse=2 WtCom= 0.00D+00 WtEn= 1.00D+00
 Coeff-En:   0.000D+00 0.000D+00 0.784D+00 0.216D+00
 Coeff:      0.000D+00 0.000D+00 0.784D+00 0.216D+00
 Gap=     0.218 Goal=   None    Shift=    0.000
 RMSDP=1.13D-03 MaxDP=8.94D-02 DE= 1.85D-01 OVMax= 1.04D-01

 Cycle   5  Pass 0  IDiag  1:
 RMSU=  1.68D-04    CP:  9.60D-01  1.12D+00  5.61D-01  4.82D-01
 E= -1071.43151386585     Delta-E=       -0.211743920059 Rises=F Damp=F
 DIIS: error= 7.56D-03 at cycle   5 NSaved=   5.
 NSaved= 5 IEnMin= 5 EnMin= -1071.43151386585     IErMin= 2 ErrMin= 6.20D-03
 ErrMax= 7.56D-03  0.00D+00 EMaxC= 1.00D-01 BMatC= 1.91D-02 BMatP= 3.29D-02
 IDIUse=3 WtCom= 9.24D-01 WtEn= 7.56D-02
 Coeff-Com:  0.936D-03 0.101D-01 0.282D+00-0.102D+00 0.808D+00
 Coeff-En:   0.000D+00 0.000D+00 0.329D+00 0.000D+00 0.671D+00
 Coeff:      0.865D-03 0.934D-02 0.286D+00-0.939D-01 0.798D+00
 Gap=     0.234 Goal=   None    Shift=    0.000
 RMSDP=3.92D-04 MaxDP=2.75D-02 DE=-2.12D-01 OVMax= 3.97D-02

 Cycle   6  Pass 0  IDiag  1:
 RMSU=  4.69D-05    CP:  9.58D-01  1.02D+00  7.39D-01  2.93D-01  9.59D-01
 E= -1071.44841417958     Delta-E=       -0.016900313735 Rises=F Damp=F
 DIIS: error= 3.88D-04 at cycle   6 NSaved=   6.
 NSaved= 6 IEnMin= 6 EnMin= -1071.44841417958     IErMin= 6 ErrMin= 3.88D-04
 ErrMax= 3.88D-04  0.00D+00 EMaxC= 1.00D-01 BMatC= 5.40D-05 BMatP= 1.91D-02
 IDIUse=3 WtCom= 9.96D-01 WtEn= 3.88D-03
 Coeff-Com: -0.173D-03 0.226D-02 0.128D+00-0.691D-01 0.457D+00 0.482D+00
 Coeff-En:   0.000D+00 0.000D+00 0.000D+00 0.000D+00 0.000D+00 0.100D+01
 Coeff:     -0.172D-03 0.225D-02 0.127D+00-0.688D-01 0.456D+00 0.484D+00
 Gap=     0.233 Goal=   None    Shift=    0.000
 RMSDP=2.82D-05 MaxDP=1.64D-03 DE=-1.69D-02 OVMax= 1.98D-03

 Cycle   7  Pass 0  IDiag  1:
 RMSU=  1.40D-05    CP:  9.58D-01  1.02D+00  7.37D-01  2.98D-01  9.45D-01
                    CP:  5.49D-01
 E= -1071.44846783051     Delta-E=       -0.000053650928 Rises=F Damp=F
 DIIS: error= 9.86D-05 at cycle   7 NSaved=   7.
 NSaved= 7 IEnMin= 7 EnMin= -1071.44846783051     IErMin= 7 ErrMin= 9.86D-05
 ErrMax= 9.86D-05  0.00D+00 EMaxC= 1.00D-01 BMatC= 3.91D-06 BMatP= 5.40D-05
 IDIUse=1 WtCom= 1.00D+00 WtEn= 0.00D+00
 Coeff-Com: -0.440D-04-0.330D-04 0.437D-01-0.269D-01 0.166D+00 0.257D+00
 Coeff-Com:  0.560D+00
 Coeff:     -0.440D-04-0.330D-04 0.437D-01-0.269D-01 0.166D+00 0.257D+00
 Coeff:      0.560D+00
 Gap=     0.233 Goal=   None    Shift=    0.000
 RMSDP=6.53D-06 MaxDP=2.68D-04 DE=-5.37D-05 OVMax= 4.73D-04

 Initial convergence to 1.0D-05 achieved.  Increase integral accuracy.
 Cycle   8  Pass 1  IDiag  1:
 E= -1071.44842436959     Delta-E=        0.000043460921 Rises=F Damp=F
 DIIS: error= 1.74D-04 at cycle   1 NSaved=   1.
 NSaved= 1 IEnMin= 1 EnMin= -1071.44842436959     IErMin= 1 ErrMin= 1.74D-04
 ErrMax= 1.74D-04  0.00D+00 EMaxC= 1.00D-01 BMatC= 3.91D-06 BMatP= 3.91D-06
 IDIUse=3 WtCom= 9.98D-01 WtEn= 1.74D-03
 Coeff-Com:  0.100D+01
 Coeff-En:   0.100D+01
 Coeff:      0.100D+01
 Gap=     0.233 Goal=   None    Shift=    0.000
 RMSDP=6.53D-06 MaxDP=2.68D-04 DE= 4.35D-05 OVMax= 4.75D-04

 Cycle   9  Pass 1  IDiag  1:
 RMSU=  1.13D-04    CP:  1.00D+00
 E= -1071.44842797435     Delta-E=       -0.000003604763 Rises=F Damp=F
 DIIS: error= 3.45D-05 at cycle   2 NSaved=   2.
 NSaved= 2 IEnMin= 2 EnMin= -1071.44842797435     IErMin= 2 ErrMin= 3.45D-05
 ErrMax= 3.45D-05  0.00D+00 EMaxC= 1.00D-01 BMatC= 8.59D-07 BMatP= 3.91D-06
 IDIUse=1 WtCom= 1.00D+00 WtEn= 0.00D+00
 Coeff-Com:  0.229D+00 0.771D+00
 Coeff:      0.229D+00 0.771D+00
 Gap=     0.233 Goal=   None    Shift=    0.000
 RMSDP=6.26D-06 MaxDP=4.54D-04 DE=-3.60D-06 OVMax= 5.17D-04

 Cycle  10  Pass 1  IDiag  1:
 RMSU=  6.13D-06    CP:  1.00D+00  1.01D+00
 E= -1071.44842743675     Delta-E=        0.000000537606 Rises=F Damp=F
 DIIS: error= 5.35D-05 at cycle   3 NSaved=   3.
 NSaved= 3 IEnMin= 2 EnMin= -1071.44842797435     IErMin= 2 ErrMin= 3.45D-05
 ErrMax= 5.35D-05  0.00D+00 EMaxC= 1.00D-01 BMatC= 1.42D-06 BMatP= 8.59D-07
 IDIUse=1 WtCom= 1.00D+00 WtEn= 0.00D+00
 Coeff-Com:  0.635D-02 0.562D+00 0.432D+00
 Coeff:      0.635D-02 0.562D+00 0.432D+00
 Gap=     0.233 Goal=   None    Shift=    0.000
 RMSDP=3.85D-06 MaxDP=2.41D-04 DE= 5.38D-07 OVMax= 3.46D-04

 Cycle  11  Pass 1  IDiag  1:
 RMSU=  1.05D-06    CP:  1.00D+00  1.02D+00  4.19D-01
 E= -1071.44842874373     Delta-E=       -0.000001306987 Rises=F Damp=F
 DIIS: error= 1.09D-05 at cycle   4 NSaved=   4.
 NSaved= 4 IEnMin= 4 EnMin= -1071.44842874373     IErMin= 4 ErrMin= 1.09D-05
 ErrMax= 1.09D-05  0.00D+00 EMaxC= 1.00D-01 BMatC= 5.44D-08 BMatP= 8.59D-07
 IDIUse=1 WtCom= 1.00D+00 WtEn= 0.00D+00
 Coeff-Com: -0.511D-02 0.329D+00 0.276D+00 0.401D+00
 Coeff:     -0.511D-02 0.329D+00 0.276D+00 0.401D+00
 Gap=     0.233 Goal=   None    Shift=    0.000
 RMSDP=5.66D-07 MaxDP=2.23D-05 DE=-1.31D-06 OVMax= 4.53D-05

 Cycle  12  Pass 1  IDiag  1:
 RMSU=  3.02D-07    CP:  1.00D+00  1.02D+00  4.40D-01  5.63D-01
 E= -1071.44842879156     Delta-E=       -0.000000047822 Rises=F Damp=F
 DIIS: error= 8.79D-07 at cycle   5 NSaved=   5.
 NSaved= 5 IEnMin= 5 EnMin= -1071.44842879156     IErMin= 5 ErrMin= 8.79D-07
 ErrMax= 8.79D-07  0.00D+00 EMaxC= 1.00D-01 BMatC= 4.07D-10 BMatP= 5.44D-08
 IDIUse=1 WtCom= 1.00D+00 WtEn= 0.00D+00
 Coeff-Com: -0.287D-02 0.172D+00 0.145D+00 0.220D+00 0.466D+00
 Coeff:     -0.287D-02 0.172D+00 0.145D+00 0.220D+00 0.466D+00
 Gap=     0.233 Goal=   None    Shift=    0.000
 RMSDP=6.91D-08 MaxDP=3.07D-06 DE=-4.78D-08 OVMax= 5.70D-06

 Cycle  13  Pass 1  IDiag  1:
 RMSU=  6.70D-08    CP:  1.00D+00  1.02D+00  4.39D-01  5.60D-01  9.74D-01
 E= -1071.44842879196     Delta-E=       -0.000000000402 Rises=F Damp=F
 DIIS: error= 2.71D-07 at cycle   6 NSaved=   6.
 NSaved= 6 IEnMin= 6 EnMin= -1071.44842879196     IErMin= 6 ErrMin= 2.71D-07
 ErrMax= 2.71D-07  0.00D+00 EMaxC= 1.00D-01 BMatC= 2.19D-11 BMatP= 4.07D-10
 IDIUse=1 WtCom= 1.00D+00 WtEn= 0.00D+00
 Coeff-Com: -0.718D-03 0.403D-01 0.338D-01 0.551D-01 0.210D+00 0.662D+00
 Coeff:     -0.718D-03 0.403D-01 0.338D-01 0.551D-01 0.210D+00 0.662D+00
 Gap=     0.233 Goal=   None    Shift=    0.000
 RMSDP=2.04D-08 MaxDP=5.84D-07 DE=-4.02D-10 OVMax= 1.73D-06

 Cycle  14  Pass 1  IDiag  1:
 RMSU=  1.57D-08    CP:  1.00D+00  1.02D+00  4.39D-01  5.65D-01  9.93D-01
                    CP:  8.64D-01
 E= -1071.44842879200     Delta-E=       -0.000000000039 Rises=F Damp=F
 DIIS: error= 1.02D-07 at cycle   7 NSaved=   7.
 NSaved= 7 IEnMin= 7 EnMin= -1071.44842879200     IErMin= 7 ErrMin= 1.02D-07
 ErrMax= 1.02D-07  0.00D+00 EMaxC= 1.00D-01 BMatC= 5.86D-12 BMatP= 2.19D-11
 IDIUse=1 WtCom= 1.00D+00 WtEn= 0.00D+00
 Coeff-Com:  0.135D-04-0.234D-02-0.209D-02-0.381D-03 0.524D-01 0.394D+00
 Coeff-Com:  0.558D+00
 Coeff:      0.135D-04-0.234D-02-0.209D-02-0.381D-03 0.524D-01 0.394D+00
 Coeff:      0.558D+00
 Gap=     0.233 Goal=   None    Shift=    0.000
 RMSDP=1.03D-08 MaxDP=5.70D-07 DE=-3.91D-11 OVMax= 5.82D-07

 Cycle  15  Pass 1  IDiag  1:
 RMSU=  4.68D-09    CP:  1.00D+00  1.02D+00  4.38D-01  5.67D-01  1.00D+00
                    CP:  9.13D-01  6.06D-01
 E= -1071.44842879197     Delta-E=        0.000000000024 Rises=F Damp=F
 DIIS: error= 1.23D-08 at cycle   8 NSaved=   8.
 NSaved= 8 IEnMin= 7 EnMin= -1071.44842879200     IErMin= 8 ErrMin= 1.23D-08
 ErrMax= 1.23D-08  0.00D+00 EMaxC= 1.00D-01 BMatC= 1.32D-13 BMatP= 5.86D-12
 IDIUse=1 WtCom= 1.00D+00 WtEn= 0.00D+00
 Coeff-Com:  0.402D-04-0.289D-02-0.249D-02-0.273D-02 0.102D-01 0.126D+00
 Coeff-Com:  0.226D+00 0.646D+00
 Coeff:      0.402D-04-0.289D-02-0.249D-02-0.273D-02 0.102D-01 0.126D+00
 Coeff:      0.226D+00 0.646D+00
 Gap=     0.233 Goal=   None    Shift=    0.000
 RMSDP=1.36D-09 MaxDP=4.25D-08 DE= 2.41D-11 OVMax= 7.93D-08

 SCF Done:  E(RPBE1PBE) =  -1071.44842879     A.U. after   15 cycles
            NFock= 15  Conv=0.14D-08     -V/T= 2.0100
 KE= 1.060875644362D+03 PE=-6.757761233372D+03 EE= 2.491134822480D+03
 Leave Link  502 at Thu Nov  3 08:06:57 2022, MaxMem=  4194304000 cpu:            1159.1 elap:             146.7
 (Enter /software/gaussian/G16-A.03/avx/g16/l801.exe)
 DoSCS=F DFT=T ScalE2(SS,OS)=  1.000000  1.000000
 Range of M.O.s used for correlation:     1   460
 NBasis=   460 NAE=    89 NBE=    89 NFC=     0 NFV=     0
 NROrb=    460 NOA=    89 NOB=    89 NVA=   371 NVB=   371

 **** Warning!!: The largest alpha MO coefficient is  0.10237513D+02

 Leave Link  801 at Thu Nov  3 08:06:57 2022, MaxMem=  4194304000 cpu:               0.4 elap:               0.1
 (Enter /software/gaussian/G16-A.03/avx/g16/l1101.exe)
 Using compressed storage, NAtomX=    47.
 Will process     48 centers per pass.
   1 Symmetry operations used in ECPInt.
 ECPInt:  NShTT=   23436 NPrTT=   84646 LenC2=   20370 LenP2D=   49718.
 LDataN:  DoStor=T MaxTD1= 5 Len=  102
 R6Disp: Adding Grimme-D3(BJ) dispersion energy 1st derivatives to the gradient.
 Leave Link 1101 at Thu Nov  3 08:07:01 2022, MaxMem=  4194304000 cpu:              30.0 elap:               4.5
 (Enter /software/gaussian/G16-A.03/avx/g16/l1102.exe)
 Symmetrizing basis deriv contribution to polar:
 IMax=3 JMax=2 DiffMx= 0.00D+00
 Leave Link 1102 at Thu Nov  3 08:07:02 2022, MaxMem=  4194304000 cpu:               0.9 elap:               0.2
 (Enter /software/gaussian/G16-A.03/avx/g16/l1110.exe)
 Forming Gx(P) for the SCF density, NAtomX=    47.
 Integral derivatives from FoFJK, PRISM(SPDF).
 Do as many integral derivatives as possible in FoFJK.
 G2DrvN: MDV=    4194300480.
 G2DrvN: will do    48 centers at a time, making    1 passes.
 Calling FoFCou, ICntrl=  3107 FMM=F I1Cent=   0 AccDes= 0.00D+00.
 FoFJK:  IHMeth= 1 ICntrl=    3107 DoSepK=F KAlg= 0 I1Cent=           0 FoldK=F
 IRaf=         0 NMat=       1 IRICut=       1 DoRegI=T DoRafI=F ISym2E= 0 IDoP0=0 IntGTp=1.
 FoFCou: FMM=F IPFlag=           0 FMFlag=      100000 FMFlg1=           0
         NFxFlg=           0 DoJE=F BraDBF=F KetDBF=F FulRan=T
         wScrn=  0.000000 ICntrl=      3107 IOpCl=  0 I1Cent=           0 NGrid=           0
         NMat0=    1 NMatS0=      1 NMatT0=    0 NMatD0=    1 NMtDS0=    0 NMtDT0=    0
 Symmetry not used in FoFCou.
 End of G2Drv F.D. properties file   721 does not exist.
 End of G2Drv F.D. properties file   722 does not exist.
 End of G2Drv F.D. properties file   788 does not exist.
 Leave Link 1110 at Thu Nov  3 08:15:37 2022, MaxMem=  4194304000 cpu:            4109.3 elap:             515.1
 (Enter /software/gaussian/G16-A.03/avx/g16/l1002.exe)
 Minotr:  Closed shell wavefunction.
          IDoAtm=11111111111111111111111111111111111111111111111
          Direct CPHF calculation.
          Differentiating once with respect to electric field.
                with respect to dipole field.
          Differentiating once with respect to nuclear coordinates.
          Requested convergence is 1.0D-08 RMS, and 1.0D-07 maximum.
          Secondary convergence is 1.0D-12 RMS, and 1.0D-12 maximum.
          NewPWx=T KeepS1=F KeepF1=F KeepIn=T MapXYZ=F SortEE=F KeepMc=T.
        14273 words used for storage of precomputed grid.
 Two-electron integrals replicated using symmetry.
          MDV=    4194304000 using IRadAn=       1.
          Solving linear equations simultaneously, MaxMat=     384.
 FoF2E skips out because all densities are zero.
 CalDSu exits because no D1Ps are significant.
 FoFJK:  IHMeth= 1 ICntrl=       0 DoSepK=F KAlg= 0 I1Cent=           0 FoldK=F
 IRaf= 760000000 NMat=     141 IRICut=     352 DoRegI=T DoRafI=T ISym2E= 2 IDoP0=3 IntGTp=3.
 FoFCou: FMM=F IPFlag=           0 FMFlag=      100000 FMFlg1=           0
         NFxFlg=           0 DoJE=F BraDBF=F KetDBF=F FulRan=T
         wScrn=  0.000000 ICntrl=         0 IOpCl=  0 I1Cent=           0 NGrid=           0
         NMat0=  141 NMatS0=    141 NMatT0=    0 NMatD0=  141 NMtDS0=    0 NMtDT0=    0
 Integrals replicated using symmetry in FoFCou.
 Raff kept on since  70.38% of shell-pairs survive, threshold=   0.20 IRatSp=70.
          There are   144 degrees of freedom in the 1st order CPHF.  IDoFFX=6 NUNeed=     3.
    141 vectors produced by pass  0 Test12= 3.30D-14 1.00D-09 XBig12= 2.58D+02 4.83D+00.
 AX will form   141 AO Fock derivatives at one time.
    141 vectors produced by pass  1 Test12= 3.30D-14 1.00D-09 XBig12= 7.42D+01 1.26D+00.
    141 vectors produced by pass  2 Test12= 3.30D-14 1.00D-09 XBig12= 6.21D-01 9.70D-02.
    141 vectors produced by pass  3 Test12= 3.30D-14 1.00D-09 XBig12= 3.38D-03 5.41D-03.
    141 vectors produced by pass  4 Test12= 3.30D-14 1.00D-09 XBig12= 9.91D-06 3.55D-04.
    111 vectors produced by pass  5 Test12= 3.30D-14 1.00D-09 XBig12= 1.55D-08 9.89D-06.
     27 vectors produced by pass  6 Test12= 3.30D-14 1.00D-09 XBig12= 1.74D-11 3.12D-07.
      3 vectors produced by pass  7 Test12= 3.30D-14 1.00D-09 XBig12= 1.92D-14 1.17D-08.
      1 vectors produced by pass  8 Test12= 3.30D-14 1.00D-09 XBig12= 1.20D-15 3.03D-09.
 InvSVY:  IOpt=1 It=  1 EMax= 1.07D-14
 Solved reduced A of dimension   847 with   144 vectors.
 FullF1:  Do perturbations      1 to       3.
 Isotropic polarizability for W=    0.000000      226.66 Bohr**3.
 End of Minotr F.D. properties file   721 does not exist.
 End of Minotr F.D. properties file   722 does not exist.
 End of Minotr F.D. properties file   788 does not exist.
 Leave Link 1002 at Thu Nov  3 08:31:49 2022, MaxMem=  4194304000 cpu:            7713.2 elap:             972.0
 (Enter /software/gaussian/G16-A.03/avx/g16/l601.exe)
 Copying SCF densities to generalized density rwf, IOpCl= 0 IROHF=0.

 **********************************************************************

            Population analysis using the SCF density.

 **********************************************************************

 Orbital symmetries:
       Occupied  (A) (A) (A) (A) (A) (A) (A) (A) (A) (A) (A) (A)
                 (A) (A) (A) (A) (A) (A) (A) (A) (A) (A) (A) (A)
                 (A) (A) (A) (A) (A) (A) (A) (A) (A) (A) (A) (A)
                 (A) (A) (A) (A) (A) (A) (A) (A) (A) (A) (A) (A)
                 (A) (A) (A) (A) (A) (A) (A) (A) (A) (A) (A) (A)
                 (A) (A) (A) (A) (A) (A) (A) (A) (A) (A) (A) (A)
                 (A) (A) (A) (A) (A) (A) (A) (A) (A) (A) (A) (A)
                 (A) (A) (A) (A) (A)
       Virtual   (A) (A) (A) (A) (A) (A) (A) (A) (A) (A) (A) (A)
                 (A) (A) (A) (A) (A) (A) (A) (A) (A) (A) (A) (A)
                 (A) (A) (A) (A) (A) (A) (A) (A) (A) (A) (A) (A)
                 (A) (A) (A) (A) (A) (A) (A) (A) (A) (A) (A) (A)
                 (A) (A) (A) (A) (A) (A) (A) (A) (A) (A) (A) (A)
                 (A) (A) (A) (A) (A) (A) (A) (A) (A) (A) (A) (A)
                 (A) (A) (A) (A) (A) (A) (A) (A) (A) (A) (A) (A)
                 (A) (A) (A) (A) (A) (A) (A) (A) (A) (A) (A) (A)
                 (A) (A) (A) (A) (A) (A) (A) (A) (A) (A) (A) (A)
                 (A) (A) (A) (A) (A) (A) (A) (A) (A) (A) (A) (A)
                 (A) (A) (A) (A) (A) (A) (A) (A) (A) (A) (A) (A)
                 (A) (A) (A) (A) (A) (A) (A) (A) (A) (A) (A) (A)
                 (A) (A) (A) (A) (A) (A) (A) (A) (A) (A) (A) (A)
                 (A) (A) (A) (A) (A) (A) (A) (A) (A) (A) (A) (A)
                 (A) (A) (A) (A) (A) (A) (A) (A) (A) (A) (A) (A)
                 (A) (A) (A) (A) (A) (A) (A) (A) (A) (A) (A) (A)
                 (A) (A) (A) (A) (A) (A) (A) (A) (A) (A) (A) (A)
                 (A) (A) (A) (A) (A) (A) (A) (A) (A) (A) (A) (A)
                 (A) (A) (A) (A) (A) (A) (A) (A) (A) (A) (A) (A)
                 (A) (A) (A) (A) (A) (A) (A) (A) (A) (A) (A) (A)
                 (A) (A) (A) (A) (A) (A) (A) (A) (A) (A) (A) (A)
                 (A) (A) (A) (A) (A) (A) (A) (A) (A) (A) (A) (A)
                 (A) (A) (A) (A) (A) (A) (A) (A) (A) (A) (A) (A)
                 (A) (A) (A) (A) (A) (A) (A) (A) (A) (A) (A) (A)
                 (A) (A) (A) (A) (A) (A) (A) (A) (A) (A) (A) (A)
                 (A) (A) (A) (A) (A) (A) (A) (A) (A) (A) (A) (A)
                 (A) (A) (A) (A) (A) (A) (A) (A) (A) (A) (A) (A)
                 (A) (A) (A) (A) (A) (A) (A) (A) (A) (A) (A) (A)
                 (A) (A) (A) (A) (A) (A) (A) (A) (A) (A) (A) (A)
                 (A) (A) (A) (A) (A) (A) (A) (A) (A) (A) (A) (A)
                 (A) (A) (A) (A) (A) (A) (A) (A) (A) (A) (A)
 The electronic state is 1-A.
 Alpha  occ. eigenvalues --  -19.24519 -19.24513 -14.35426 -14.35422 -10.31114
 Alpha  occ. eigenvalues --  -10.31113 -10.29005 -10.29004 -10.27145 -10.26550
 Alpha  occ. eigenvalues --  -10.26549 -10.24200 -10.24200 -10.23717 -10.23717
 Alpha  occ. eigenvalues --  -10.23661 -10.23660 -10.23594 -10.23594 -10.23538
 Alpha  occ. eigenvalues --  -10.23537 -10.23419 -10.23419 -10.23264 -10.23263
 Alpha  occ. eigenvalues --   -1.11926  -1.11708  -0.91739  -0.90949  -0.87594
 Alpha  occ. eigenvalues --   -0.87041  -0.85593  -0.79732  -0.78442  -0.75986
 Alpha  occ. eigenvalues --   -0.75972  -0.74960  -0.73894  -0.70720  -0.66487
 Alpha  occ. eigenvalues --   -0.65958  -0.64415  -0.62026  -0.61843  -0.60245
 Alpha  occ. eigenvalues --   -0.59541  -0.59002  -0.54940  -0.53939  -0.53381
 Alpha  occ. eigenvalues --   -0.52147  -0.50666  -0.50273  -0.48699  -0.47470
 Alpha  occ. eigenvalues --   -0.46686  -0.46485  -0.46372  -0.45762  -0.44944
 Alpha  occ. eigenvalues --   -0.44127  -0.44099  -0.43872  -0.43054  -0.42939
 Alpha  occ. eigenvalues --   -0.42280  -0.41858  -0.40795  -0.38375  -0.38356
 Alpha  occ. eigenvalues --   -0.37980  -0.37505  -0.37304  -0.37014  -0.36560
 Alpha  occ. eigenvalues --   -0.35937  -0.35738  -0.35333  -0.34936  -0.34675
 Alpha  occ. eigenvalues --   -0.34428  -0.28487  -0.26515  -0.26426  -0.26334
 Alpha  occ. eigenvalues --   -0.26009  -0.25224  -0.24739  -0.24043
 Alpha virt. eigenvalues --   -0.00756  -0.00716  -0.00234  -0.00211   0.03911
 Alpha virt. eigenvalues --    0.03985   0.06502   0.07450   0.08387   0.08859
 Alpha virt. eigenvalues --    0.09230   0.09724   0.10671   0.12292   0.12393
 Alpha virt. eigenvalues --    0.12443   0.12826   0.13156   0.13407   0.13453
 Alpha virt. eigenvalues --    0.14390   0.14587   0.14672   0.15083   0.15996
 Alpha virt. eigenvalues --    0.16311   0.17125   0.17620   0.18203   0.18280
 Alpha virt. eigenvalues --    0.18490   0.19037   0.19889   0.20439   0.21468
 Alpha virt. eigenvalues --    0.23379   0.23483   0.24685   0.25772   0.26029
 Alpha virt. eigenvalues --    0.26369   0.29872   0.30062   0.30372   0.31343
 Alpha virt. eigenvalues --    0.31434   0.31561   0.32130   0.33830   0.35303
 Alpha virt. eigenvalues --    0.36168   0.36677   0.36897   0.37601   0.39396
 Alpha virt. eigenvalues --    0.40435   0.41235   0.41956   0.42689   0.43094
 Alpha virt. eigenvalues --    0.43288   0.44279   0.44419   0.45202   0.45230
 Alpha virt. eigenvalues --    0.47628   0.47640   0.48340   0.48477   0.49949
 Alpha virt. eigenvalues --    0.50062   0.51164   0.51165   0.51439   0.51556
 Alpha virt. eigenvalues --    0.51727   0.52891   0.53269   0.53425   0.53458
 Alpha virt. eigenvalues --    0.53955   0.54981   0.54993   0.56792   0.56840
 Alpha virt. eigenvalues --    0.58834   0.59286   0.60088   0.60298   0.61458
 Alpha virt. eigenvalues --    0.61743   0.62620   0.62907   0.62908   0.64034
 Alpha virt. eigenvalues --    0.64601   0.64827   0.65082   0.65265   0.65770
 Alpha virt. eigenvalues --    0.66052   0.66369   0.67212   0.67232   0.67368
 Alpha virt. eigenvalues --    0.67831   0.67980   0.67991   0.68334   0.68729
 Alpha virt. eigenvalues --    0.68992   0.69094   0.69901   0.70057   0.70389
 Alpha virt. eigenvalues --    0.70799   0.72100   0.72347   0.72462   0.72709
 Alpha virt. eigenvalues --    0.73344   0.73974   0.74753   0.74919   0.75515
 Alpha virt. eigenvalues --    0.76466   0.76549   0.76834   0.77028   0.77178
 Alpha virt. eigenvalues --    0.77540   0.78770   0.79246   0.81247   0.81495
 Alpha virt. eigenvalues --    0.82439   0.82504   0.84257   0.84878   0.86953
 Alpha virt. eigenvalues --    0.87166   0.87841   0.88870   0.92397   0.93030
 Alpha virt. eigenvalues --    0.93119   0.94813   0.96359   0.96487   0.97381
 Alpha virt. eigenvalues --    1.01229   1.02346   1.02794   1.05327   1.06895
 Alpha virt. eigenvalues --    1.08378   1.08384   1.09110   1.10120   1.12222
 Alpha virt. eigenvalues --    1.12228   1.12882   1.13570   1.17149   1.20999
 Alpha virt. eigenvalues --    1.21555   1.21878   1.23631   1.23904   1.24991
 Alpha virt. eigenvalues --    1.25733   1.25863   1.26178   1.27904   1.28579
 Alpha virt. eigenvalues --    1.28718   1.30185   1.30450   1.30488   1.31593
 Alpha virt. eigenvalues --    1.32447   1.33075   1.33510   1.33640   1.37295
 Alpha virt. eigenvalues --    1.37511   1.38172   1.40252   1.42569   1.45542
 Alpha virt. eigenvalues --    1.47111   1.50777   1.51347   1.53677   1.55347
 Alpha virt. eigenvalues --    1.56720   1.57787   1.59457   1.59886   1.60453
 Alpha virt. eigenvalues --    1.62095   1.62655   1.65081   1.65444   1.65566
 Alpha virt. eigenvalues --    1.67084   1.67611   1.67772   1.69195   1.69271
 Alpha virt. eigenvalues --    1.70516   1.71363   1.72574   1.72749   1.73608
 Alpha virt. eigenvalues --    1.73843   1.74914   1.75265   1.75673   1.76548
 Alpha virt. eigenvalues --    1.76607   1.76982   1.77777   1.77809   1.78307
 Alpha virt. eigenvalues --    1.78787   1.79063   1.79733   1.79892   1.81074
 Alpha virt. eigenvalues --    1.81505   1.81867   1.82134   1.82361   1.83152
 Alpha virt. eigenvalues --    1.83379   1.84523   1.85444   1.86384   1.86399
 Alpha virt. eigenvalues --    1.86758   1.87858   1.89336   1.89608   1.89860
 Alpha virt. eigenvalues --    1.90636   1.91411   1.91734   1.93333   1.94729
 Alpha virt. eigenvalues --    1.95660   1.96189   1.96261   1.97555   1.97875
 Alpha virt. eigenvalues --    1.98751   1.98814   1.99318   1.99381   2.01011
 Alpha virt. eigenvalues --    2.01311   2.03080   2.03269   2.04838   2.05503
 Alpha virt. eigenvalues --    2.06240   2.07988   2.09172   2.09257   2.09925
 Alpha virt. eigenvalues --    2.11086   2.11654   2.15031   2.15244   2.15824
 Alpha virt. eigenvalues --    2.15886   2.16033   2.17624   2.18329   2.18945
 Alpha virt. eigenvalues --    2.21212   2.21610   2.24982   2.26438   2.26493
 Alpha virt. eigenvalues --    2.28806   2.29672   2.30758   2.30960   2.31580
 Alpha virt. eigenvalues --    2.31695   2.32752   2.32850   2.34403   2.35571
 Alpha virt. eigenvalues --    2.36107   2.36233   2.38670   2.39221   2.39745
 Alpha virt. eigenvalues --    2.40755   2.41260   2.42467   2.45189   2.48531
 Alpha virt. eigenvalues --    2.49878   2.52271   2.53575   2.53688   2.56567
 Alpha virt. eigenvalues --    2.56621   2.57687   2.60899   2.62449   2.62819
 Alpha virt. eigenvalues --    2.65137   2.65293   2.65746   2.66325   2.66368
 Alpha virt. eigenvalues --    2.67586   2.70486   2.71112   2.72508   2.74500
 Alpha virt. eigenvalues --    2.74860   2.74863   2.75215   2.77078   2.79157
 Alpha virt. eigenvalues --    2.79282   2.84152   2.84754   2.84879   2.85749
 Alpha virt. eigenvalues --    2.87140   2.88144   2.88716   2.89640   2.89683
 Alpha virt. eigenvalues --    2.90783   2.90915   2.93376   2.94982   2.96177
 Alpha virt. eigenvalues --    2.96339   2.97952   3.00536   3.00819   3.03925
 Alpha virt. eigenvalues --    3.04632   3.04663   3.05633   3.06834   3.06861
 Alpha virt. eigenvalues --    3.11261   3.11315   3.15270   3.15294   3.18319
 Alpha virt. eigenvalues --    3.20455   3.27676   3.27691   3.29106   3.30230
 Alpha virt. eigenvalues --    3.40287   3.47055   3.64552   3.65656   3.65777
 Alpha virt. eigenvalues --    3.66501
     Molecular Orbital Coefficients:
                          85        86        87        88        89
                           O         O         O         O         O
     Eigenvalues --    -0.26334  -0.26009  -0.25224  -0.24739  -0.24043
   1 1   C  1S         -0.00353   0.00287   0.01052   0.00004  -0.00090
   2        2S          0.00203  -0.00715  -0.01430   0.00022  -0.00059
   3        3S          0.06574  -0.01638  -0.12076   0.00842   0.02663
   4        4PX        -0.01394   0.00242   0.02879   0.00777  -0.01700
   5        4PY        -0.02663   0.01868   0.05470   0.00145  -0.00551
   6        4PZ         0.01400  -0.01776  -0.03614   0.00533  -0.01207
   7        5PX        -0.01511   0.01145   0.02703  -0.00847  -0.01964
   8        5PY        -0.04731   0.01811   0.08311  -0.00020  -0.01253
   9        5PZ         0.02081  -0.00972  -0.03812  -0.00441  -0.01456
  10        6D 0        0.00042  -0.00048  -0.00012   0.00003   0.00143
  11        6D+1       -0.00050   0.00144   0.00149   0.00011   0.00017
  12        6D-1       -0.00111  -0.00028   0.00148  -0.00100  -0.00200
  13        6D+2       -0.00016  -0.00056  -0.00004  -0.00011  -0.00074
  14        6D-2        0.00032  -0.00002  -0.00144  -0.00111  -0.00232
  15 2   C  1S          0.00000  -0.00966  -0.00000   0.00174   0.00000
  16        2S         -0.00000   0.01505   0.00000  -0.00155   0.00000
  17        3S         -0.00002   0.16262   0.00002  -0.07536  -0.00003
  18        4PX         0.03128   0.00000  -0.03164  -0.00001   0.06035
  19        4PY         0.00001  -0.05270  -0.00001   0.00220  -0.00000
  20        4PZ        -0.00755  -0.00000   0.04906  -0.00001   0.04493
  21        5PX        -0.00186   0.00001   0.03221  -0.00004   0.04426
  22        5PY         0.00003  -0.07105  -0.00004   0.01595   0.00001
  23        5PZ         0.05244   0.00002  -0.04143  -0.00004   0.05143
  24        6D 0       -0.00000   0.00105   0.00000  -0.00703  -0.00000
  25        6D+1       -0.00000   0.00305   0.00000  -0.00173  -0.00000
  26        6D-1       -0.00328  -0.00000   0.00767   0.00000  -0.00253
  27        6D+2       -0.00000  -0.00010   0.00000   0.00482   0.00000
  28        6D-2        0.00244   0.00000  -0.00564   0.00000  -0.00207
  29 3   C  1S          0.00813  -0.00262   0.00535   0.00432  -0.03454
  30        2S         -0.02157   0.00716  -0.01360  -0.01146   0.09077
  31        3S         -0.01283  -0.06910  -0.02594   0.00231  -0.00082
  32        4PX        -0.04095  -0.02812   0.08527   0.10503   0.00356
  33        4PY         0.03394   0.02362   0.02347   0.02092  -0.05687
  34        4PZ         0.04507   0.02097  -0.10625  -0.13351   0.00742
  35        5PX        -0.02205   0.01749   0.05123   0.04793   0.04383
  36        5PY        -0.01528   0.00892   0.02353   0.02408   0.03828
  37        5PZ         0.03422   0.04561  -0.08351  -0.11073   0.05088
  38        6D 0       -0.00369  -0.00325   0.00424   0.00671  -0.00216
  39        6D+1        0.00035   0.00080   0.00082   0.00093  -0.00185
  40        6D-1       -0.01041  -0.01100   0.01742   0.01881  -0.01703
  41        6D+2        0.00150   0.00330  -0.00066  -0.00205   0.00034
  42        6D-2        0.00844   0.00065  -0.01308  -0.01271  -0.01814
  43 4   N  1S          0.02261   0.00627   0.01436   0.01143  -0.07936
  44        2S          0.05026   0.01470   0.02812   0.02182  -0.16813
  45        3S          0.04847   0.03375   0.09025   0.07074  -0.21018
  46        4PX         0.07610  -0.01568  -0.14314  -0.15070  -0.20817
  47        4PY         0.07112   0.01960   0.01624   0.00980  -0.22160
  48        4PZ        -0.10616  -0.12758   0.17873   0.21940  -0.20125
  49        5PX        -0.05738   0.00113   0.12123   0.12015   0.11704
  50        5PY        -0.04646   0.00251  -0.00494  -0.00474   0.16380
  51        5PZ         0.08285   0.08821  -0.12386  -0.14797   0.12661
  52        6D 0        0.00309   0.00169  -0.00273  -0.00435  -0.00335
  53        6D+1        0.00029   0.00344   0.00149   0.00038   0.01056
  54        6D-1        0.00421   0.00432  -0.01061  -0.01261   0.00940
  55        6D+2        0.00207   0.00116   0.00168   0.00184  -0.00096
  56        6D-2       -0.00495  -0.00101   0.00799   0.00910   0.01033
  57 5   C  1S          0.00785   0.00194   0.00228   0.00077  -0.02604
  58        2S         -0.01263   0.00166  -0.00493  -0.00585   0.05768
  59        3S         -0.06686  -0.03721  -0.01290   0.03798   0.19122
  60        4PX         0.03040  -0.01189  -0.04060  -0.04097  -0.11566
  61        4PY         0.00803   0.00356   0.01347   0.01430  -0.01846
  62        4PZ        -0.06067  -0.07611   0.04778   0.06684  -0.08239
  63        5PX        -0.01243  -0.02248   0.03104   0.04748  -0.01933
  64        5PY         0.00066   0.00327  -0.01572  -0.00823   0.08572
  65        5PZ        -0.01408  -0.01745   0.01586   0.00432  -0.03839
  66        6D 0       -0.00714  -0.00891   0.00054   0.00322  -0.00416
  67        6D+1       -0.00157   0.00069   0.00914   0.00961  -0.00126
  68        6D-1        0.00346  -0.00008  -0.00552  -0.00578  -0.01031
  69        6D+2        0.00914   0.01053  -0.00273  -0.00568   0.00248
  70        6D-2       -0.00332  -0.00709   0.00127   0.00303  -0.01478
  71 6   H  1S         -0.07920  -0.06849   0.03906   0.05923   0.03105
  72        2S         -0.03918  -0.04195   0.02716   0.04283   0.01531
  73        3PX         0.00011  -0.00047  -0.00010  -0.00011  -0.00150
  74        3PY        -0.00283  -0.00275   0.00138   0.00234  -0.00068
  75        3PZ         0.00023  -0.00046   0.00002   0.00018  -0.00325
  76 7   C  1S          0.00065   0.00906  -0.00042  -0.00301   0.02423
  77        2S         -0.00135  -0.02170   0.00372   0.01072  -0.06057
  78        3S          0.01094  -0.02758  -0.00077  -0.00699  -0.17274
  79        4PX        -0.03296  -0.03016   0.01226   0.02217   0.02189
  80        4PY         0.01576   0.04180  -0.00013  -0.00927   0.09681
  81        4PZ         0.03387   0.04885  -0.03032  -0.04553   0.05716
  82        5PX        -0.00188  -0.00764  -0.01160  -0.01260  -0.00136
  83        5PY         0.00465   0.02530  -0.00689  -0.00924   0.11506
  84        5PZ         0.00558   0.01516  -0.00710  -0.00331   0.05807
  85        6D 0        0.00665   0.00584  -0.00687  -0.00954   0.00016
  86        6D+1       -0.00145  -0.00136   0.00213   0.00263  -0.00054
  87        6D-1       -0.00135  -0.00075   0.00264   0.00337   0.00090
  88        6D+2       -0.00022   0.00039   0.00142   0.00171   0.00167
  89        6D-2        0.00006   0.00076  -0.00302  -0.00365   0.00582
  90 8   O  1S         -0.00163  -0.00371   0.00019   0.00073  -0.01347
  91        2S         -0.00352  -0.00808   0.00049   0.00135  -0.03011
  92        3S         -0.00136  -0.02012   0.00524   0.01252  -0.07796
  93        4PX         0.08540   0.08366  -0.11986  -0.16023   0.05842
  94        4PY        -0.02014   0.00417  -0.01450  -0.01458   0.10638
  95        4PZ        -0.10444  -0.07935   0.13954   0.18253   0.02321
  96        5PX         0.06672   0.06558  -0.10083  -0.13258   0.05646
  97        5PY        -0.01482   0.00349  -0.01472  -0.01578   0.07870
  98        5PZ        -0.08656  -0.06453   0.11745   0.15234   0.02033
  99        6D 0        0.00074   0.00147   0.00031   0.00036   0.00195
 100        6D+1        0.00052   0.00089   0.00046   0.00041   0.00110
 101        6D-1        0.00157   0.00159  -0.00241  -0.00327   0.00090
 102        6D+2       -0.00049   0.00002  -0.00055  -0.00068   0.00269
 103        6D-2       -0.00178  -0.00140   0.00171   0.00244   0.00025
 104 9   C  1S         -0.01293  -0.01114   0.01809   0.02211  -0.00521
 105        2S          0.02928   0.02616  -0.05057  -0.05986   0.02461
 106        3S          0.06171   0.05126  -0.02722  -0.06383  -0.07598
 107        4PX         0.06002   0.11327   0.16195   0.13518   0.01464
 108        4PY         0.00585  -0.00563  -0.04716  -0.04731   0.00626
 109        4PZ         0.15063   0.18999   0.06015   0.00920   0.03106
 110        5PX         0.02989   0.06949   0.12436   0.11928   0.01784
 111        5PY         0.01489  -0.00490  -0.00614  -0.01695  -0.10259
 112        5PZ         0.12191   0.14670   0.01717  -0.03159   0.01984
 113        6D 0       -0.00084  -0.00433  -0.00434  -0.00328  -0.00316
 114        6D+1       -0.00205  -0.00102   0.00255   0.00307  -0.00125
 115        6D-1       -0.00463  -0.00046  -0.00250  -0.00263  -0.00095
 116        6D+2       -0.00093   0.00253   0.00128   0.00055   0.00199
 117        6D-2       -0.00726  -0.00320  -0.00021   0.00054  -0.00053
 118 10  C  1S          0.00254   0.00191  -0.00225  -0.00288  -0.00113
 119        2S         -0.00269  -0.00278  -0.00124  -0.00058   0.00490
 120        3S         -0.03050  -0.01116   0.02815   0.03919   0.06109
 121        4PX        -0.01861   0.07977   0.04786   0.02627   0.02816
 122        4PY         0.00944  -0.00707  -0.01080  -0.00864  -0.01053
 123        4PZ        -0.04936   0.05973   0.07892   0.06225   0.03413
 124        5PX        -0.01942   0.04957   0.06274   0.04843  -0.01884
 125        5PY        -0.00232  -0.01465   0.01735   0.02411  -0.03059
 126        5PZ        -0.02997   0.04701   0.03362   0.02202   0.05689
 127        6D 0        0.01103   0.00970   0.00471   0.00232   0.00076
 128        6D+1       -0.00176  -0.00182   0.00124   0.00171  -0.00107
 129        6D-1       -0.00185  -0.00397  -0.00303  -0.00194  -0.00118
 130        6D+2       -0.00440  -0.00467  -0.00625  -0.00511   0.00041
 131        6D-2       -0.00028  -0.00236  -0.00179  -0.00117  -0.00043
 132 11  C  1S         -0.00331  -0.00230   0.00372   0.00442  -0.00007
 133        2S          0.00757   0.00546  -0.00805  -0.00921   0.00190
 134        3S          0.01026   0.00344  -0.03161  -0.03495   0.00884
 135        4PX        -0.14761  -0.09169  -0.03533  -0.01412   0.00030
 136        4PY         0.02815   0.01784   0.00171  -0.00260   0.00133
 137        4PZ        -0.12513  -0.07454  -0.06560  -0.04882   0.00079
 138        5PX        -0.10528  -0.06425  -0.01646  -0.00023  -0.00309
 139        5PY         0.02585   0.01896  -0.01497  -0.01982   0.02133
 140        5PZ        -0.08561  -0.05133  -0.05803  -0.04791   0.00857
 141        6D 0       -0.00037   0.00551   0.00467   0.00323   0.00218
 142        6D+1        0.00066   0.00111   0.00082   0.00057   0.00031
 143        6D-1        0.00436   0.00689   0.00401   0.00227   0.00140
 144        6D+2        0.00136  -0.00101  -0.00091  -0.00060  -0.00064
 145        6D-2        0.00277   0.00651   0.00604   0.00442   0.00198
 146 12  C  1S         -0.00106  -0.00112   0.00035   0.00067  -0.00012
 147        2S          0.00250   0.00278  -0.00087  -0.00158   0.00125
 148        3S          0.01029   0.01011  -0.00337  -0.00641  -0.00357
 149        4PX        -0.09713  -0.14629  -0.10946  -0.07286  -0.03273
 150        4PY         0.01494   0.02407   0.02176   0.01584   0.00369
 151        4PZ        -0.10319  -0.15229  -0.10657  -0.06895  -0.03311
 152        5PX        -0.06931  -0.10479  -0.08467  -0.05871  -0.01519
 153        5PY         0.01612   0.02206   0.00607   0.00041   0.01250
 154        5PZ        -0.07147  -0.10720  -0.07393  -0.04741  -0.03083
 155        6D 0       -0.00087  -0.00343  -0.00302  -0.00212  -0.00088
 156        6D+1       -0.00142  -0.00047   0.00031   0.00039   0.00016
 157        6D-1       -0.00593  -0.00117  -0.00092  -0.00073   0.00083
 158        6D+2       -0.00097   0.00200   0.00068   0.00012   0.00078
 159        6D-2       -0.00666  -0.00246  -0.00048   0.00001   0.00052
 160 13  C  1S         -0.00201  -0.00182   0.00340   0.00405  -0.00068
 161        2S          0.00477   0.00456  -0.00674  -0.00827   0.00020
 162        3S         -0.01208  -0.00790  -0.02018  -0.01621   0.05014
 163        4PX         0.02760  -0.06725  -0.03377  -0.01484  -0.02787
 164        4PY         0.00039   0.01817   0.00121  -0.00383   0.00761
 165        4PZ         0.04771  -0.05342  -0.06182  -0.04664  -0.02528
 166        5PX         0.02689  -0.04227  -0.02722  -0.01565  -0.02720
 167        5PY        -0.00634   0.00868  -0.00522  -0.00699   0.02540
 168        5PZ         0.02748  -0.04193  -0.04024  -0.02813  -0.01393
 169        6D 0        0.01031   0.00948   0.00640   0.00415   0.00162
 170        6D+1       -0.00082  -0.00121  -0.00011   0.00021  -0.00072
 171        6D-1       -0.00241  -0.00436  -0.00237  -0.00121  -0.00101
 172        6D+2       -0.00513  -0.00559  -0.00539  -0.00408  -0.00092
 173        6D-2        0.00076  -0.00138  -0.00142  -0.00108  -0.00053
 174 14  C  1S          0.00150   0.00124  -0.00254  -0.00316   0.00035
 175        2S         -0.00431  -0.00300   0.00190   0.00332   0.00037
 176        3S          0.02312   0.00794   0.03063   0.02275  -0.09243
 177        4PX         0.13813   0.09063   0.05596   0.03542   0.00925
 178        4PY        -0.04452  -0.03372   0.00476   0.01377  -0.00956
[...]
 09,0.00011105,0.00089989,0.00030158,-0.00160918,0.00023792,-0.00267272
 ,0.04201260,0.00001622,-0.00000655,0.00001398,-0.00002412,0.00005299,-
 0.00001553,-0.00005189,-0.00007233,-0.00002867,0.00003258,0.00004960,0
 .00002331,-0.00000598,-0.00001866,-0.00000578,0.00000532,0.00000429,0.
 00000554,-0.00000803,-0.00001443,-0.00001311,0.00003968,0.00003679,0.0
 0002882,-0.00000363,-0.00000168,0.00001200,0.00000437,0.00000204,-0.00
 000086,-0.00000167,0.00000221,0.00000281,0.00000200,0.00000180,-0.0000
 0141,-0.00000153,0.00000033,0.00000006,0.00000758,-0.00000540,-0.00000
 651,-0.00006481,0.00026371,0.00019394,-0.00078669,-0.00035979,-0.00005
 060,0.00060175,0.00033466,-0.00043433,0.00008936,0.00027063,-0.0007400
 9,0.00123565,-0.00082891,-0.00093797,-0.00000827,0.00009054,0.00004569
 ,0.00270494,-0.01427803,-0.00605184,-0.00314873,-0.00048197,0.00208624
 ,-0.00019706,0.00067850,0.00043191,0.00109482,0.00155810,-0.00186240,-
 0.00202191,-0.00558340,0.00064423,0.01264502,-0.32871212,-0.05657561,0
 .00001758,0.00003456,0.00012393,-0.00000283,-0.00000315,-0.00000833,0.
 00000727,-0.00000477,0.00000145,-0.00000616,0.00002058,0.00000094,0.00
 000364,-0.00000061,0.00000247,0.00000050,0.00000211,0.00000256,-0.0000
 0358,0.00000221,-0.00000061,-0.00000102,-0.00000004,-0.00000078,0.0000
 0003,0.00000019,-0.00000066,0.00000196,0.00000185,-0.00000175,0.000000
 23,-0.00000076,0.00000287,0.00042677,0.00014779,0.00004223,0.00025005,
 0.00050875,0.00029432,0.00019884,-0.00078856,-0.00032181,0.00011038,-0
 .00008055,0.00003802,-0.00013056,-0.00036054,0.00001604,0.00037317,0.0
 0076353,0.00036457,-0.01341170,0.34680088,0.00000537,0.00006091,-0.000
 04819,0.00002181,-0.00011875,0.00000384,0.00002422,0.00001575,0.000013
 00,0.00000206,-0.00000359,-0.00003675,-0.00000975,0.00000894,0.0000081
 1,-0.00000092,-0.00000231,0.00000017,-0.00001433,0.00000331,0.00000532
 ,-0.00002802,0.00001486,-0.00004447,-0.00000476,-0.00000153,0.00000089
 ,0.00000097,-0.00000063,-0.00000299,-0.00000087,-0.00000010,-0.0000014
 6,0.00000067,0.00000075,-0.00000258,-0.00000022,-0.00000003,-0.0000013
 7,0.00000006,0.00000179,-0.00000151,-0.00049277,-0.00003074,0.00006950
 ,0.00041786,0.00037479,0.00049172,-0.00058984,-0.00018134,-0.00051567,
 0.00203329,0.00041653,-0.00089222,-0.00188062,0.00029551,-0.00155656,0
 .00000238,-0.00018650,-0.00007749,-0.00163102,0.01335567,0.00692819,0.
 00514978,0.00151177,0.00202778,0.00012023,0.00035235,-0.00104526,0.006
 30979,-0.00131712,0.00081542,0.00046318,-0.02182339,0.00012909,0.01275
 900,-0.05578707,-0.05880434,-0.00007381,0.00008372,0.00009839,0.000024
 77,-0.00000779,-0.00001673,-0.00002289,0.00000771,0.00000123,0.0000101
 1,-0.00003059,0.00000679,0.00000021,-0.00000096,-0.00000239,-0.0000027
 8,-0.00000111,-0.00000752,-0.00000035,0.00000061,0.00000245,0.00000167
 ,-0.00000046,0.00000031,0.00000147,0.00000049,0.00000008,0.00000065,0.
 00000096,0.00000046,-0.00000014,-0.00000095,0.00000109,-0.00035443,0.0
 0001866,0.00003026,0.00006621,-0.00029678,-0.00141828,0.00004941,0.000
 80068,0.00037066,-0.00056532,0.00006589,-0.00049481,0.00006109,-0.0010
 0516,-0.00012068,-0.00259541,0.00061972,-0.00159025,-0.01920392,0.0628
 0432,0.05578180,0.00120681,-0.00051504,-0.00028432,0.01022700,-0.01060
 527,0.01115809,0.00111835,-0.00047830,0.00006100,-0.00006864,0.0002880
 1,-0.00009208,-0.00007109,0.00003036,0.00009710,0.00002761,0.00003778,
 0.00000157,-0.00032809,-0.00015103,-0.00035262,-0.00130978,-0.00083826
 ,0.00016302,-0.00004893,-0.00000542,0.00003773,0.00001848,-0.00000640,
 -0.00001233,-0.00000681,0.00001032,0.00000480,0.00000847,0.00000535,-0
 .00000975,0.00000123,0.00000301,-0.00000085,0.00002174,-0.00000308,-0.
 00001912,0.00068467,-0.00051515,0.00037946,-0.00332775,-0.00193994,0.0
 0138072,0.00055975,0.00066185,-0.00010773,0.00020687,-0.00013775,0.000
 06450,0.00024100,-0.00006596,-0.00034177,-0.00001793,0.00001238,0.0000
 0218,0.00006726,0.00001632,0.00016186,0.00002135,0.00000371,-0.0000158
 5,-0.00000802,0.00002206,-0.00000752,0.00001688,-0.00001394,-0.0000118
 8,0.00000194,0.00003958,-0.00004077,-0.00001521,-0.00010898,-0.0000605
 3,-0.16374220,0.10600603,-0.09697071,0.00005588,-0.00008183,-0.0001627
 0,-0.00010799,0.00028772,-0.00001116,-0.00006968,0.00012033,-0.0000157
 5,0.00003239,0.00001350,0.00003270,0.00004507,0.00004325,0.00004311,-0
 .00001879,0.00000616,0.00001010,0.00000343,-0.00000242,-0.00000324,0.0
 0000308,0.00000304,-0.00000349,0.00000255,0.00000561,-0.00000389,-0.00
 000302,-0.00000503,0.00000319,-0.00001571,0.00002603,-0.00002637,0.000
 01454,-0.00000093,0.00002640,0.00000483,0.00000795,0.00000916,0.000001
 66,0.00000065,-0.00000338,-0.00000005,0.00000761,0.00000487,0.00001147
 ,-0.00000481,-0.00000554,0.00005917,0.00002732,0.00005777,0.17325472,0
 .00042151,0.00063390,-0.00138689,0.01098368,-0.01174507,0.01016378,0.0
 0270273,-0.00158210,0.00186609,-0.00034555,0.00055675,-0.00027554,-0.0
 0004387,0.00008538,0.00017173,0.00002035,0.00006514,-0.00002364,-0.000
 59493,-0.00037206,-0.00076806,-0.00011148,0.00121635,-0.00081775,-0.00
 010447,0.00000399,0.00003570,0.00003550,-0.00002031,-0.00002850,-0.000
 01560,0.00001771,0.00000502,0.00001551,0.00001080,-0.00002110,0.000001
 77,0.00000939,-0.00000467,0.00003971,-0.00000620,-0.00004563,0.0003437
 5,-0.00020824,0.00086389,-0.00391647,-0.00164744,0.00116422,0.00015188
 ,0.00058721,-0.00040588,0.00026703,-0.00012942,-0.00004659,0.00020525,
 0.00000290,-0.00052734,0.00000369,-0.00000034,0.00003237,0.00007433,0.
 00006307,0.00021891,0.00004678,0.00001295,-0.00004075,-0.00002288,0.00
 000910,-0.00000750,0.00002405,0.00000035,-0.00002452,-0.00001397,-0.00
 000795,-0.00000232,0.00002794,-0.00004319,-0.00004183,0.10315967,-0.13
 436400,0.08143851,-0.00012601,-0.00004969,-0.00021487,-0.00018765,0.00
 058119,0.00028394,-0.00012035,0.00004605,-0.00002871,0.00007945,0.0000
 5692,0.00003285,-0.00004352,-0.00001778,0.00003697,-0.00003315,0.00002
 059,0.00003059,0.00000953,-0.00000282,-0.00000503,0.00000670,0.0000055
 2,-0.00000410,0.00000819,0.00001056,-0.00000555,-0.00000092,-0.0000074
 8,0.00001057,-0.00001980,0.00001858,-0.00002535,0.00002334,-0.00001064
 ,0.00002548,-0.00000125,0.00000768,0.00001480,0.00000773,-0.00001210,-
 0.00000571,0.00000947,-0.00000346,-0.00000230,0.00000763,0.00000202,-0
 .00000987,-0.00000848,-0.00002950,0.00000725,-0.10984146,0.14266560,-0
 .00159104,0.00020290,0.00082763,-0.01279754,0.01135117,-0.01185396,-0.
 00093064,-0.00002251,-0.00011261,0.00000401,-0.00004318,0.00008777,0.0
 0001756,-0.00012297,-0.00006232,-0.00000380,-0.00003291,0.00002143,0.0
 0016267,0.00003233,0.00042441,-0.00054874,-0.00098149,-0.00014119,-0.0
 0000416,-0.00000120,0.00000764,-0.00000441,0.00002548,-0.00001159,-0.0
 0000084,-0.00000770,-0.00000203,0.00000198,0.00000034,-0.00000091,0.00
 000003,-0.00000649,0.00000206,0.00000264,-0.00000134,0.00000180,-0.000
 76212,0.00079983,-0.00061143,0.00358117,0.00097264,-0.00155955,-0.0003
 3648,0.00048480,-0.00015485,0.00027179,-0.00011665,0.00012338,-0.00016
 821,0.00005867,0.00039474,-0.00000922,0.00002780,-0.00000770,-0.000035
 14,0.00002469,-0.00020202,-0.00004492,-0.00001425,0.00003200,0.0000041
 8,-0.00001724,0.00001546,-0.00002902,0.00002336,0.00003042,0.00001887,
 -0.00000661,0.00003330,-0.00001539,0.00005289,0.00005876,-0.09444715,0
 .08176245,-0.12202432,0.00013400,-0.00020154,0.00037633,0.00080846,-0.
 00033638,-0.00028063,-0.00001576,0.00002872,-0.00010991,-0.00001357,-0
 .00001430,-0.00001577,-0.00000986,-0.00004039,-0.00007149,0.00000904,-
 0.00000093,0.00000680,0.00000508,0.00000180,-0.00000252,-0.00000050,-0
 .00000108,0.00000055,-0.00000154,-0.00000225,-0.00000067,-0.00000090,-
 0.00000442,-0.00000267,-0.00003835,0.00006202,-0.00004976,-0.00004082,
 0.00000314,-0.00002784,-0.00000182,-0.00001311,-0.00001129,-0.00000424
 ,0.00000601,0.00000857,-0.00000572,0.00000044,-0.00000040,-0.00002075,
 -0.00000014,0.00000820,-0.00001525,-0.00002664,-0.00006972,0.10065270,
 -0.09171945,0.13007390,-0.00130877,-0.00283199,0.00195031,-0.00881601,
 0.00876503,0.00818741,0.00049597,0.00166426,0.00101378,0.00013455,-0.0
 0042899,-0.00039132,-0.00014337,-0.00007027,-0.00000323,-0.00000126,-0
 .00001559,0.00002610,-0.00008429,-0.00003397,0.00019355,-0.00020340,-0
 .00015630,-0.00049052,-0.00003567,-0.00000888,0.00004257,0.00000963,0.
 00002953,-0.00002594,-0.00000642,-0.00000429,-0.00000779,0.00001083,0.
 00000823,-0.00001457,-0.00000139,-0.00000436,-0.00000481,0.00002071,-0
 .00000539,-0.00001474,0.00029634,-0.00033096,-0.00020125,0.00000741,0.
 00092073,-0.00081725,-0.00002131,-0.00015910,0.00005550,-0.00003284,0.
 00005748,0.00004933,-0.00000787,-0.00004555,0.00009043,0.00001372,0.00
 000257,0.00002405,0.00008754,-0.00000520,-0.00004779,-0.00001576,-0.00
 001833,-0.00001444,-0.00000403,-0.00002649,-0.00000585,-0.00001137,-0.
 00000204,0.00000837,-0.00002270,-0.00000594,0.00007765,0.00005716,-0.0
 0001546,0.00006531,-0.12180063,0.08334529,0.08985217,-0.00012118,0.000
 65513,0.00091314,0.00033319,-0.00025735,-0.00022266,0.00005587,0.00012
 599,0.00013398,0.00001690,-0.00001770,-0.00003069,-0.00004600,-0.00001
 176,-0.00008521,0.00000406,0.00000283,0.00002477,0.00001269,0.00000040
 ,-0.00000422,0.00000415,0.00000114,-0.00000060,0.00000340,0.00000367,-
 0.00000309,-0.00000126,-0.00000922,0.00000618,0.00000445,-0.00001594,0
 .00000553,0.00000083,-0.00001101,-0.00001094,-0.00000037,-0.00001252,0
 .00000671,0.00000209,-0.00000853,0.00000220,0.00000509,-0.00000794,-0.
 00000527,-0.00002085,0.00000740,0.00000373,-0.00002597,-0.00003369,-0.
 00006881,-0.00864205,0.00921285,0.01341286,0.12780723,-0.00200143,-0.0
 0231229,0.00252270,-0.01073107,0.01076121,0.01308864,-0.00004339,0.001
 66218,0.00032208,0.00039085,-0.00004280,-0.00014988,-0.00007649,-0.000
 00233,-0.00000046,0.00001494,0.00001069,0.00001932,-0.00002338,0.00001
 714,-0.00010426,0.00014818,-0.00004639,0.00008689,-0.00000152,-0.00000
 689,0.00003815,0.00000697,0.00001366,-0.00000615,-0.00000354,-0.000001
 76,-0.00000174,0.00000522,0.00000611,-0.00000633,0.00000095,-0.0000042
 7,-0.00000289,0.00001008,-0.00000437,-0.00000282,0.00002455,0.00005352
 ,-0.00054941,-0.00037255,0.00170544,0.00049099,-0.00021782,-0.00011591
 ,-0.00015071,0.00008626,0.00003276,0.00004034,0.00007999,-0.00004352,0
 .00002577,-0.00001923,0.00000919,-0.00001169,-0.00000150,-0.00004566,-
 0.00004197,-0.00002638,-0.00001632,0.00002664,0.00000124,-0.00001446,-
 0.00000111,-0.00001006,0.00000410,0.00000739,0.00003162,-0.00001608,-0
 .00003937,-0.00002517,0.00010473,0.00007090,0.08550634,-0.14133630,-0.
 10347563,-0.00065540,0.00089128,0.00084957,-0.00021046,-0.00006017,-0.
 00004790,0.00008187,-0.00004973,0.00020152,0.00000042,-0.00001879,0.00
 001150,0.00001623,0.00002397,0.00002714,-0.00000179,-0.00000315,0.0000
 0780,0.00000483,-0.00000095,-0.00000198,0.00000162,0.00000055,-0.00000
 138,0.00000033,0.00000204,-0.00000252,-0.00000254,-0.00000483,0.000000
 99,-0.00000861,0.00000446,-0.00001064,-0.00001187,-0.00001856,-0.00001
 556,0.00000232,-0.00001069,-0.00000027,-0.00000228,0.00000037,0.000002
 85,-0.00000346,0.00000173,0.00000040,-0.00002634,0.00000606,0.00001121
 ,-0.00001965,-0.00000746,-0.00007665,0.00602592,-0.00879651,-0.0115301
 5,-0.08866071,0.14686031,0.00213999,0.00365618,-0.00225750,0.00846434,
 -0.01110824,-0.01254957,-0.00095778,-0.00114249,0.00004438,-0.00006220
 ,0.00044018,0.00034335,0.00008621,0.00002621,-0.00007764,-0.00000462,0
 .00001171,-0.00000790,0.00002091,-0.00007625,-0.00000670,0.00016181,0.
 00015637,0.00001221,0.00003380,-0.00000135,-0.00000124,0.00001333,-0.0
 0000779,0.00000697,-0.00000326,0.00000581,0.00001292,-0.00000104,0.000
 00246,0.00000157,0.00000013,0.00000276,-0.00000325,0.00000054,-0.00000
 529,-0.00000424,-0.00050978,0.00052325,0.00042035,0.00138937,-0.002108
 31,0.00007184,-0.00039368,0.00023616,-0.00005129,-0.00000967,0.0000717
 4,-0.00011043,-0.00001075,0.00006513,-0.00021483,0.00000217,-0.0000058
 2,0.00002226,0.00008094,0.00005793,-0.00002402,-0.00000815,0.00000164,
 -0.00002046,-0.00000670,-0.00003047,-0.00000058,-0.00001373,-0.0000001
 9,-0.00000828,-0.00004067,-0.00004603,0.00009496,0.00007043,0.00010920
 ,0.00005275,0.08960685,-0.10050518,-0.15557030,0.00091310,-0.00084923,
 -0.00058703,0.00003520,-0.00007523,0.00008742,-0.00016275,0.00021478,0
 .00037638,0.00001033,0.00002032,-0.00000481,0.00000228,0.00000125,0.00
 000527,-0.00001150,0.00000834,-0.00001674,-0.00000769,-0.00000167,0.00
 000006,0.00000020,0.00000115,-0.00000181,0.00000178,0.00000346,-0.0000
 0042,0.00000086,0.00000384,0.00000424,-0.00000340,-0.00001277,0.000032
 74,-0.00000714,0.00000344,-0.00002730,-0.00000691,-0.00001524,0.000001
 16,0.00000469,-0.00001206,0.00000173,0.00000904,-0.00001595,-0.0000097
 3,-0.00000765,0.00001198,0.00000056,-0.00008405,-0.00008792,-0.0001073
 4,-0.00890298,0.01010151,0.01196842,-0.10072807,0.10710137,0.16652464,
 0.00050229,-0.00005122,-0.00145035,-0.01062167,-0.00868731,-0.00788160
 ,-0.00047054,-0.00059128,0.00275731,-0.00075642,-0.00069439,-0.0003205
 0,0.00024766,-0.00021634,-0.00032212,-0.00013383,-0.00006009,-0.000052
 95,0.00014287,0.00015608,0.00032140,-0.00026175,-0.00069370,0.00004255
 ,0.00008458,0.00004679,-0.00007518,-0.00001557,-0.00001652,0.00003186,
 0.00000964,-0.00000498,-0.00000200,-0.00001575,-0.00000815,0.00001947,
 0.00000151,0.00000398,-0.00000071,-0.00002721,0.00000661,0.00003001,0.
 00005886,0.00001041,-0.00003024,-0.00028282,0.00010556,-0.00052857,-0.
 00035903,0.00107484,-0.00069864,0.00032284,0.00002417,0.00001377,-0.00
 000215,0.00004309,-0.00001780,-0.00000773,0.00000954,0.00001074,0.0000
 3830,-0.00000270,-0.00001937,-0.00001635,-0.00000922,0.00001073,0.0000
 0079,-0.00000600,-0.00000110,0.00000029,-0.00000240,-0.00000734,-0.000
 00238,-0.00002674,0.00000343,0.00002050,0.00007281,0.00005329,-0.15809
 923,-0.10455806,-0.09015470,0.00033313,0.00021046,0.00003523,-0.000161
 69,-0.00004649,-0.00001412,-0.00010798,0.00018744,0.00080841,-0.000043
 04,-0.00000620,-0.00004207,-0.00002510,-0.00003122,-0.00005585,0.00001
 639,-0.00000726,-0.00002289,-0.00001241,0.00000138,0.00000681,-0.00000
 501,-0.00000326,0.00000357,-0.00000366,-0.00000665,0.00000547,0.000003
 13,0.00001257,-0.00000448,-0.00003414,0.00002239,-0.00001967,-0.000015
 75,-0.00000391,-0.00000574,-0.00000234,-0.00000436,-0.00000203,-0.0000
 0098,-0.00000271,0.00000082,0.00000192,-0.00000517,-0.00000306,-0.0000
 0251,0.00000798,0.00000656,-0.00004737,0.00001682,-0.00004303,-0.01011
 645,-0.01233821,-0.00718915,0.01199098,0.01071593,0.00889582,0.1678752
 0,0.00130394,0.00068707,-0.00084501,-0.01174068,-0.01185302,-0.0083931
 8,-0.00011103,-0.00143705,0.00413033,-0.00088268,-0.00028421,-0.000197
 22,0.00032770,-0.00011208,-0.00035890,-0.00015446,-0.00000884,-0.00011
 334,-0.00008195,-0.00016377,-0.00021049,0.00038682,0.00053496,-0.00022
 079,0.00007642,0.00006733,-0.00010308,-0.00001763,-0.00003885,0.000025
 99,0.00000735,0.00000154,-0.00000200,-0.00001681,-0.00001038,0.0000208
 7,0.00000676,0.00000556,0.00000359,-0.00003093,0.00001596,0.00002418,0
 .00034024,0.00046062,0.00029957,-0.00246816,-0.00148539,-0.00216077,0.
 00070330,0.00110572,-0.00006890,0.00084045,-0.00033512,0.00046746,-0.0
 0005603,0.00004279,0.00000452,0.00000890,0.00006335,0.00003515,0.00001
 148,0.00003485,0.00000290,-0.00001067,0.00000376,0.00002478,-0.0000007
 9,0.00002733,0.00000999,-0.00001039,0.00001056,0.00002649,0.00002440,0
 .00007106,-0.00002167,-0.00008209,-0.00017850,-0.00005999,-0.10373674,
 -0.14304642,-0.08525160,0.00025743,-0.00006015,0.00007523,0.00004649,0
 .00005189,0.00013360,-0.00028779,0.00058118,0.00033659,-0.00000978,0.0
 0004471,-0.00000045,-0.00002264,-0.00004890,0.00000087,0.00001090,-0.0
 0000478,-0.00000771,-0.00000977,0.00000201,0.00000699,-0.00000647,-0.0
 0000269,0.00000370,-0.00000587,-0.00000980,0.00000657,0.00000342,0.000
 01165,-0.00001092,-0.00006969,0.00012035,-0.00014421,-0.00004187,0.000
 00868,0.00002345,0.00000196,0.00000899,-0.00000921,-0.00000767,0.00001
 431,0.00000254,-0.00000873,0.00001444,0.00000750,0.00000296,-0.0000127
 1,-0.00000441,0.00013260,0.00001055,0.00005060,0.01160913,0.01236656,0
 .00934385,-0.01158704,-0.00919131,-0.00673073,0.11535570,0.15191618,-0
 .00009531,0.00053146,0.00167985,0.01548288,0.01334683,0.00958879,0.000
 79622,0.00235015,-0.00424138,0.00071781,0.00065355,0.00065249,-0.00022
 155,0.00019874,0.00042552,0.00015251,0.00002585,0.00009977,0.00014571,
 0.00016830,0.00010158,0.00000850,-0.00054929,0.00048075,-0.00006746,-0
 .00005523,0.00002917,0.00000773,0.00002160,-0.00001037,0.00000086,-0.0
 0000433,-0.00000228,0.00000650,0.00000169,-0.00000876,-0.00000466,-0.0
 0000316,0.00000190,0.00000650,-0.00000555,-0.00000727,-0.00009561,-0.0
 0022080,-0.00002107,0.00044951,0.00036399,0.00120814,-0.00008967,0.000
 57544,-0.00098138,-0.00036350,0.00013126,-0.00037284,0.00002973,-0.000
 02430,-0.00002161,-0.00000163,-0.00003084,-0.00002321,-0.00005572,0.00
 001606,0.00006111,0.00003748,0.00001376,-0.00002728,0.00000150,0.00001
 016,0.00000051,0.00001622,-0.00000402,-0.00001203,-0.00001927,-0.00000
 287,0.00000282,0.00003100,-0.00004004,-0.00005304,-0.09281861,-0.08816
 172,-0.11926543,-0.00022260,0.00004784,0.00008742,-0.00001412,-0.00013
 357,-0.00005795,-0.00001115,-0.00028384,-0.00028057,-0.00000580,-0.000
 03420,0.00001398,0.00005121,0.00004592,0.00005537,0.00000038,-0.000001
 45,0.00000123,0.00000534,0.00000037,-0.00000242,0.00000187,0.00000022,
 -0.00000020,0.00000209,0.00000227,-0.00000176,-0.00000020,-0.00000484,
 0.00000360,0.00002417,-0.00003118,0.00004510,0.00002769,-0.00001705,0.
 00003020,-0.00000074,0.00001117,0.00000269,0.00000288,-0.00000179,-0.0
 0000543,0.00000142,-0.00000019,-0.00000075,0.00001715,-0.00000719,-0.0
 0001205,-0.00001297,-0.00000901,0.00007208,-0.00688570,-0.01001470,-0.
 00711640,-0.01294656,-0.00872271,-0.00842277,0.09590799,0.08984726,0.1
 2630417\\-0.00125651,-0.00064180,0.00144525,0.00000010,0.00012410,-0.0
 0000265,-0.00061426,0.03029880,-0.00231514,-0.00333539,-0.00074786,-0.
 00862366,-0.01380109,-0.00914203,-0.00616494,0.00357782,-0.00006691,0.
 00211781,-0.00029318,-0.00592019,-0.00117729,0.01685008,-0.01363241,0.
 01358255,-0.00188162,0.00018078,0.00268566,0.00051144,0.00098100,0.000
 41024,-0.00032631,0.00097409,0.00015779,0.00058012,-0.00042850,-0.0004
 4567,-0.00128259,0.00158619,0.00079159,0.00110543,-0.00378979,-0.00169
 713,0.00333563,-0.00074516,0.00862451,0.00061774,0.03030025,0.00231359
 ,-0.01685897,-0.01363258,-0.01358563,0.00030595,-0.00592300,0.00118245
 ,0.01379748,-0.00913822,0.00616103,-0.00357820,-0.00006926,-0.00211401
 ,0.00188522,0.00017941,-0.00269012,-0.00110304,-0.00377990,0.00169517,
 0.00128222,0.00158728,-0.00079164,-0.00057493,-0.00042813,0.00044153,0
 .00032184,0.00096947,-0.00015540,-0.00051130,0.00098647,-0.00040647,0.
 00125876,-0.00063095,-0.00144092,-0.00019110,0.00028605,0.00021940,0.0
 0047470,-0.00037380,-0.00010167,0.00001777,-0.00034061,-0.00048268,0.0
 0065465,-0.00106957,0.00092087,0.00042120,0.00053351,0.00083088,-0.000
 77579,0.00061553,0.00017772,-0.00000819,0.00002408,-0.00012123,0.00003
 871,0.00019412,0.00007834,0.00062625,0.00038113,-0.00041703,0.00154169
 ,0.00003535,0.00000291,-0.00042270,0.00053371,-0.00082930,-0.00065955,
 -0.00107172,-0.00092092,-0.00154350,0.00003044,-0.00000030,-0.00062620
 ,0.00037755,0.00041633,-0.00004226,0.00019509,-0.00007490,0.00000986,0
 .00002611,0.00012029,0.00077583,0.00060989,-0.00017936,-0.00001517,-0.
 00034373,0.00048481,0.00019111,0.00028343,-0.00022121,-0.00047978,-0.0
 0037771,0.00009851\\\@

 Writing a WFNX file to "27_lig_b.wfx"


 IT IS A CAPITAL MISTAKE TO THEORIZE BEFORE ONE HAS
 DATA.  INSENSIBLY ONE BEGINS TO TWIST FACTS TO SUIT
 THEORIES RATHER THAN THEORIES TO SUIT FACTS.

                                         -- SHERLOCK HOLMES
 Job cpu time:       0 days  4 hours 41 minutes 23.5 seconds.
 Elapsed time:       0 days  0 hours 35 minutes 33.4 seconds.
 File lengths (MBytes):  RWF=   1084 Int=      0 D2E=      0 Chk=     16 Scr=      1
 Normal termination of Gaussian 16 at Thu Nov  3 08:39:57 2022.
