 Entering Gaussian System, Link 0=g16
 Initial command:
 /software/gaussian/G16-A.03/avx/g16/l1.exe "/scratch/lcmd/1361358.slurm/Gau-150100.inp" -scrdir="/scratch/lcmd/1361358.slurm/"
 Entering Link 1 = /software/gaussian/G16-A.03/avx/g16/l1.exe PID=    150101.
  
 Copyright (c) 1988,1990,1992,1993,1995,1998,2003,2009,2016,
            Gaussian, Inc.  All Rights Reserved.
  
 This is part of the Gaussian(R) 16 program.  It is based on
 the Gaussian(R) 09 system (copyright 2009, Gaussian, Inc.),
 the Gaussian(R) 03 system (copyright 2003, Gaussian, Inc.),
 the Gaussian(R) 98 system (copyright 1998, Gaussian, Inc.),
 the Gaussian(R) 94 system (copyright 1995, Gaussian, Inc.),
 the Gaussian 92(TM) system (copyright 1992, Gaussian, Inc.),
 the Gaussian 90(TM) system (copyright 1990, Gaussian, Inc.),
 the Gaussian 88(TM) system (copyright 1988, Gaussian, Inc.),
 the Gaussian 86(TM) system (copyright 1986, Carnegie Mellon
 University), and the Gaussian 82(TM) system (copyright 1983,
 Carnegie Mellon University). Gaussian is a federally registered
 trademark of Gaussian, Inc.
  
 This software contains proprietary and confidential information,
 including trade secrets, belonging to Gaussian, Inc.
  
 This software is provided under written license and may be
 used, copied, transmitted, or stored only in accord with that
 written license.
  
 The following legend is applicable only to US Government
 contracts under FAR:
  
                    RESTRICTED RIGHTS LEGEND
  
 Use, reproduction and disclosure by the US Government is
 subject to restrictions as set forth in subparagraphs (a)
 and (c) of the Commercial Computer Software - Restricted
 Rights clause in FAR 52.227-19.
  
 Gaussian, Inc.
 340 Quinnipiac St., Bldg. 40, Wallingford CT 06492
  
  
 ---------------------------------------------------------------
 Warning -- This program may not be used in any manner that
 competes with the business of Gaussian, Inc. or will provide
 assistance to any competitor of Gaussian, Inc.  The licensee
 of this program is prohibited from giving any competitor of
 Gaussian, Inc. access to this program.  By using this program,
 the user acknowledges that Gaussian, Inc. is engaged in the
 business of creating and licensing software in the field of
 computational chemistry and represents and warrants to the
 licensee that it is not a competitor of Gaussian, Inc. and that
 it will not use this program in any manner prohibited above.
 ---------------------------------------------------------------
  

 Cite this work as:
 Gaussian 16, Revision A.03,
 M. J. Frisch, G. W. Trucks, H. B. Schlegel, G. E. Scuseria, 
 M. A. Robb, J. R. Cheeseman, G. Scalmani, V. Barone, 
 G. A. Petersson, H. Nakatsuji, X. Li, M. Caricato, A. V. Marenich, 
 J. Bloino, B. G. Janesko, R. Gomperts, B. Mennucci, H. P. Hratchian, 
 J. V. Ortiz, A. F. Izmaylov, J. L. Sonnenberg, D. Williams-Young, 
 F. Ding, F. Lipparini, F. Egidi, J. Goings, B. Peng, A. Petrone, 
 T. Henderson, D. Ranasinghe, V. G. Zakrzewski, J. Gao, N. Rega, 
 G. Zheng, W. Liang, M. Hada, M. Ehara, K. Toyota, R. Fukuda, 
 J. Hasegawa, M. Ishida, T. Nakajima, Y. Honda, O. Kitao, H. Nakai, 
 T. Vreven, K. Throssell, J. A. Montgomery, Jr., J. E. Peralta, 
 F. Ogliaro, M. J. Bearpark, J. J. Heyd, E. N. Brothers, K. N. Kudin, 
 V. N. Staroverov, T. A. Keith, R. Kobayashi, J. Normand, 
 K. Raghavachari, A. P. Rendell, J. C. Burant, S. S. Iyengar, 
 J. Tomasi, M. Cossi, J. M. Millam, M. Klene, C. Adamo, R. Cammi, 
 J. W. Ochterski, R. L. Martin, K. Morokuma, O. Farkas, 
 J. B. Foresman, and D. J. Fox, Gaussian, Inc., Wallingford CT, 2016.
 
 ******************************************
 Gaussian 16:  ES64L-G16RevA.03 25-Dec-2016
                 3-Nov-2022 
 ******************************************
 %nprocs=8
 Will use up to    8 processors via shared memory.
 %mem=32000MB
 %chk=28_lig_b.chk
 ----------------------------------------------------------------------
 #p pop=(regular,nbo,savenbos) freq=noraman def2svp empiricaldispersion
 =gd3bj output=wfx pbe1pbe
 ----------------------------------------------------------------------
 1/10=4,30=1,38=1/1,3;
 2/12=2,17=6,18=5,40=1/2;
 3/5=43,7=101,11=2,25=1,30=1,71=2,74=-13,124=41,140=1/1,2,3;
 4//1;
 5/5=2,38=5,98=1/2;
 8/6=4,10=90,11=11/1;
 11/6=1,8=1,9=11,15=111,16=1/1,2,10;
 10/6=1/2;
 6/28=1,40=1,73=1/1,7;
 7/8=1,10=1,25=1/1,2,3,16;
 1/10=4,30=1/3;
 99/6=200/99;
 Leave Link    1 at Thu Nov  3 08:04:22 2022, MaxMem=  4194304000 cpu:               0.7 elap:               0.1
 (Enter /software/gaussian/G16-A.03/avx/g16/l101.exe)
 --------
 28_lig_b
 --------
 Symbolic Z-matrix:
 Charge =  0 Multiplicity = 1
 C                    -0.45393   3.29167   1.1815 
 C                    -0.0001    2.41081   0.0005 
 C                    -1.18177   1.58312  -0.4266 
 N                    -1.36883   0.3249   -0.32516 
 C                    -2.74984   0.02655  -0.7229 
 H                    -2.70569  -0.79855  -1.44975 
 C                    -3.18146   1.34928  -1.37177 
 O                    -2.18676   2.29453  -0.9342 
 C                    -3.60897  -0.43103   0.48257 
 C                    -3.70199   0.66704   1.54314 
 C                    -5.00278  -0.77386  -0.04885 
 C                    -2.99495  -1.68559   1.10782 
 N                     1.36905   0.32501   0.32517 
 C                     1.18203   1.58324   0.4265 
 O                     2.18731   2.29478   0.93335 
 C                     3.18236   1.34966   1.37038 
 C                     2.75031   0.02676   0.72212 
 H                     2.70659  -0.79813   1.44925 
 C                     3.60867  -0.43119  -0.48375 
 C                     5.00291  -0.77356   0.04682 
 C                     2.99439  -1.68611  -1.108 
 C                     3.70072   0.66646  -1.54484 
 C                     0.45316   3.29382  -1.17907 
 H                    -0.75769   2.6732    2.03858 
 H                    -1.30733   3.91033   0.87479 
 H                     0.37224   3.943     1.49421 
 H                    -4.16318   1.71696  -1.04919 
 H                    -3.15036   1.3181   -2.47123 
 H                    -4.31605   0.3229    2.38913 
 H                    -4.16165   1.59297   1.16186 
 H                    -2.70654   0.91312   1.94406 
 H                    -5.64457  -1.12939   0.77138 
 H                    -4.94918  -1.57377  -0.80366 
 H                    -5.5071    0.0936   -0.50443 
 H                    -3.66982  -2.08659   1.87996 
 H                    -2.02954  -1.4812    1.59668 
 H                    -2.81397  -2.46704   0.3556 
 H                     3.15211   1.31872   2.46987 
 H                     4.16383   1.7173    1.04696 
 H                     4.94998  -1.57314   0.80202 
 H                     5.50744   0.09417   0.50164 
 H                     5.64415  -1.12938  -0.77372 
 H                     2.81395  -2.46721  -0.35529 
 H                     3.66882  -2.08744  -1.88035 
 H                     2.02866  -1.48209  -1.59637 
 H                     4.16048   1.59263  -1.16426 
 H                     2.70493   0.91219  -1.94513 
 H                     4.31424   0.32209  -2.39113 
 H                    -0.37348   3.94498  -1.4909 
 H                     0.75752   2.67694  -2.03708 
 H                     1.30605   3.91265  -0.8713 
 
 ITRead=  0  0  0  0  0  0  0  0  0  0  0  0  0  0  0  0  0  0  0  0
 ITRead=  0  0  0  0  0  0  0  0  0  0  0  0  0  0  0  0  0  0  0  0
 ITRead=  0  0  0  0  0  0  0  0  0  0  0
 MicOpt= -1 -1 -1 -1 -1 -1 -1 -1 -1 -1 -1 -1 -1 -1 -1 -1 -1 -1 -1 -1
 MicOpt= -1 -1 -1 -1 -1 -1 -1 -1 -1 -1 -1 -1 -1 -1 -1 -1 -1 -1 -1 -1
 MicOpt= -1 -1 -1 -1 -1 -1 -1 -1 -1 -1 -1
 NAtoms=     51 NQM=       51 NQMF=       0 NMMI=      0 NMMIF=      0
                NMic=       0 NMicF=      0.
                    Isotopes and Nuclear Properties:
 (Nuclear quadrupole moments (NQMom) in fm**2, nuclear magnetic moments (NMagM)
  in nuclear magnetons)

  Atom         1           2           3           4           5           6           7           8           9          10
 IAtWgt=          12          12          12          14          12           1          12          16          12          12
 AtmWgt=  12.0000000  12.0000000  12.0000000  14.0030740  12.0000000   1.0078250  12.0000000  15.9949146  12.0000000  12.0000000
 NucSpn=           0           0           0           2           0           1           0           0           0           0
 AtZEff=  -0.0000000  -0.0000000  -0.0000000  -0.0000000  -0.0000000  -0.0000000  -0.0000000  -0.0000000  -0.0000000  -0.0000000
 NQMom=    0.0000000   0.0000000   0.0000000   2.0440000   0.0000000   0.0000000   0.0000000   0.0000000   0.0000000   0.0000000
 NMagM=    0.0000000   0.0000000   0.0000000   0.4037610   0.0000000   2.7928460   0.0000000   0.0000000   0.0000000   0.0000000
 AtZNuc=   6.0000000   6.0000000   6.0000000   7.0000000   6.0000000   1.0000000   6.0000000   8.0000000   6.0000000   6.0000000

  Atom        11          12          13          14          15          16          17          18          19          20
 IAtWgt=          12          12          14          12          16          12          12           1          12          12
 AtmWgt=  12.0000000  12.0000000  14.0030740  12.0000000  15.9949146  12.0000000  12.0000000   1.0078250  12.0000000  12.0000000
 NucSpn=           0           0           2           0           0           0           0           1           0           0
 AtZEff=  -0.0000000  -0.0000000  -0.0000000  -0.0000000  -0.0000000  -0.0000000  -0.0000000  -0.0000000  -0.0000000  -0.0000000
 NQMom=    0.0000000   0.0000000   2.0440000   0.0000000   0.0000000   0.0000000   0.0000000   0.0000000   0.0000000   0.0000000
 NMagM=    0.0000000   0.0000000   0.4037610   0.0000000   0.0000000   0.0000000   0.0000000   2.7928460   0.0000000   0.0000000
 AtZNuc=   6.0000000   6.0000000   7.0000000   6.0000000   8.0000000   6.0000000   6.0000000   1.0000000   6.0000000   6.0000000

  Atom        21          22          23          24          25          26          27          28          29          30
 IAtWgt=          12          12          12           1           1           1           1           1           1           1
 AtmWgt=  12.0000000  12.0000000  12.0000000   1.0078250   1.0078250   1.0078250   1.0078250   1.0078250   1.0078250   1.0078250
 NucSpn=           0           0           0           1           1           1           1           1           1           1
 AtZEff=  -0.0000000  -0.0000000  -0.0000000  -0.0000000  -0.0000000  -0.0000000  -0.0000000  -0.0000000  -0.0000000  -0.0000000
 NQMom=    0.0000000   0.0000000   0.0000000   0.0000000   0.0000000   0.0000000   0.0000000   0.0000000   0.0000000   0.0000000
 NMagM=    0.0000000   0.0000000   0.0000000   2.7928460   2.7928460   2.7928460   2.7928460   2.7928460   2.7928460   2.7928460
 AtZNuc=   6.0000000   6.0000000   6.0000000   1.0000000   1.0000000   1.0000000   1.0000000   1.0000000   1.0000000   1.0000000

  Atom        31          32          33          34          35          36          37          38          39          40
 IAtWgt=           1           1           1           1           1           1           1           1           1           1
 AtmWgt=   1.0078250   1.0078250   1.0078250   1.0078250   1.0078250   1.0078250   1.0078250   1.0078250   1.0078250   1.0078250
 NucSpn=           1           1           1           1           1           1           1           1           1           1
 AtZEff=  -0.0000000  -0.0000000  -0.0000000  -0.0000000  -0.0000000  -0.0000000  -0.0000000  -0.0000000  -0.0000000  -0.0000000
 NQMom=    0.0000000   0.0000000   0.0000000   0.0000000   0.0000000   0.0000000   0.0000000   0.0000000   0.0000000   0.0000000
 NMagM=    2.7928460   2.7928460   2.7928460   2.7928460   2.7928460   2.7928460   2.7928460   2.7928460   2.7928460   2.7928460
 AtZNuc=   1.0000000   1.0000000   1.0000000   1.0000000   1.0000000   1.0000000   1.0000000   1.0000000   1.0000000   1.0000000

  Atom        41          42          43          44          45          46          47          48          49          50
 IAtWgt=           1           1           1           1           1           1           1           1           1           1
 AtmWgt=   1.0078250   1.0078250   1.0078250   1.0078250   1.0078250   1.0078250   1.0078250   1.0078250   1.0078250   1.0078250
 NucSpn=           1           1           1           1           1           1           1           1           1           1
 AtZEff=  -0.0000000  -0.0000000  -0.0000000  -0.0000000  -0.0000000  -0.0000000  -0.0000000  -0.0000000  -0.0000000  -0.0000000
 NQMom=    0.0000000   0.0000000   0.0000000   0.0000000   0.0000000   0.0000000   0.0000000   0.0000000   0.0000000   0.0000000
 NMagM=    2.7928460   2.7928460   2.7928460   2.7928460   2.7928460   2.7928460   2.7928460   2.7928460   2.7928460   2.7928460
 AtZNuc=   1.0000000   1.0000000   1.0000000   1.0000000   1.0000000   1.0000000   1.0000000   1.0000000   1.0000000   1.0000000

  Atom        51
 IAtWgt=           1
 AtmWgt=   1.0078250
 NucSpn=           1
 AtZEff=  -0.0000000
 NQMom=    0.0000000
 NMagM=    2.7928460
 AtZNuc=   1.0000000
 Leave Link  101 at Thu Nov  3 08:04:22 2022, MaxMem=  4194304000 cpu:               1.8 elap:               0.2
 (Enter /software/gaussian/G16-A.03/avx/g16/l103.exe)

 GradGradGradGradGradGradGradGradGradGradGradGradGradGradGradGradGradGrad
 Berny optimization.
 Initialization pass.
 Trust Radius=3.00D-01 FncErr=1.00D-07 GrdErr=1.00D-07 EigMax=2.50D+02 EigMin=1.00D-04
 Number of steps in this run=      2 maximum allowed number of steps=      2.
 GradGradGradGradGradGradGradGradGradGradGradGradGradGradGradGradGradGrad

 Leave Link  103 at Thu Nov  3 08:04:22 2022, MaxMem=  4194304000 cpu:               0.3 elap:               0.1
 (Enter /software/gaussian/G16-A.03/avx/g16/l202.exe)
 Stoichiometry    C17H30N2O2
 Framework group  C1[X(C17H30N2O2)]
 Deg. of freedom   147
 Full point group                 C1      NOp   1
 Largest Abelian subgroup         C1      NOp   1
 Largest concise Abelian subgroup C1      NOp   1
                         Standard orientation:                         
 ---------------------------------------------------------------------
 Center     Atomic      Atomic             Coordinates (Angstroms)
 Number     Number       Type             X           Y           Z
 ---------------------------------------------------------------------
      1          6           0        0.492844    2.563954   -1.164983
      2          6           0        0.000073    1.682611   -0.000059
      3          6           0        1.166922    0.854737    0.465684
      4          7           0        1.357254   -0.403442    0.369990
      5          6           0        2.724305   -0.701966    0.813222
      6          1           0        2.656061   -1.527365    1.537867
      7          6           0        3.134143    0.620494    1.476605
      8          8           0        2.154507    1.565931    1.006652
      9          6           0        3.622973   -1.159056   -0.363258
     10          6           0        3.751134   -0.060550   -1.419704
     11          6           0        4.998380   -1.502115    0.213987
     12          6           0        3.030051   -2.413354   -1.009059
     13          7           0       -1.357534   -0.403045   -0.370849
     14          6           0       -1.167262    0.855225   -0.465398
     15          8           0       -2.155171    1.566981   -1.005040
     16          6           0       -3.135162    0.622048   -1.475244
     17          6           0       -2.724856   -0.701121   -0.813546
     18          1           0       -2.657022   -1.525712   -1.539164
     19          6           0       -3.622762   -1.159562    0.362983
     20          6           0       -4.998623   -1.501703   -0.213709
     21          6           0       -3.029531   -2.414743    1.006759
     22          6           0       -3.749985   -0.062348    1.420885
     23          6           0       -0.492092    2.565139    1.164182
     24          1           0        0.824886    1.945835   -2.011764
     25          1           0        1.335590    3.182482   -0.829864
     26          1           0       -0.322497    3.215419   -1.504672
     27          1           0        4.126026    0.988299    1.186936
     28          1           0        3.066570    0.588861    2.574414
     29          1           0        4.392935   -0.404346   -2.244990
     30          1           0        4.197880    0.865220   -1.022997
     31          1           0        2.769537    0.185702   -1.853340
     32          1           0        5.667041   -1.857311   -0.584637
     33          1           0        4.919763   -2.302335    0.966273
     34          1           0        5.487296   -0.634846    0.686411
     35          1           0        3.730178   -2.814041   -1.758540
     36          1           0        2.081396   -2.208756   -1.529606
     37          1           0        2.824210   -3.195112   -0.263582
     38          1           0       -3.068437    0.591561   -2.573137
     39          1           0       -4.126828    0.989562   -1.184424
     40          1           0       -4.920652   -2.300973   -0.967066
     41          1           0       -5.487785   -0.633782   -0.684666
     42          1           0       -5.666740   -1.857857    0.584950
     43          1           0       -2.824203   -3.195534    0.260131
     44          1           0       -3.729220   -2.816386    1.756135
     45          1           0       -2.080543   -2.210931    1.526996
     46          1           0       -4.196867    0.863982    1.025637
     47          1           0       -2.768031    0.183210    1.854105
     48          1           0       -4.391253   -0.407062    2.246205
     49          1           0        0.323739    3.216165    1.503544
     50          1           0       -0.824757    1.947908    2.011364
     51          1           0       -1.334301    3.184102    0.828530
 ---------------------------------------------------------------------
 Rotational constants (GHZ):           0.5316917           0.1803105           0.1590429
 Leave Link  202 at Thu Nov  3 08:04:23 2022, MaxMem=  4194304000 cpu:               0.3 elap:               0.1
 (Enter /software/gaussian/G16-A.03/avx/g16/l301.exe)
 Standard basis: def2SVP (5D, 7F)
 Ernie: Thresh=  0.10000D-02 Tol=  0.10000D-05 Strict=F.
 There are   465 symmetry adapted cartesian basis functions of A   symmetry.
 There are   444 symmetry adapted basis functions of A   symmetry.
   444 basis functions,   735 primitive gaussians,   465 cartesian basis functions
    81 alpha electrons       81 beta electrons
       nuclear repulsion energy      1885.7907641743 Hartrees.
 IExCor= 1009 DFT=T Ex+Corr=PBE1PBE ExCW=0 ScaHFX=  0.250000
 ScaDFX=  0.750000  0.750000  1.000000  1.000000 ScalE2=  1.000000  1.000000
 IRadAn=      5 IRanWt=     -1 IRanGd=            0 ICorTp=0 IEmpDi=141
 NAtoms=   51 NActive=   51 NUniq=   51 SFac= 1.00D+00 NAtFMM=   60 NAOKFM=F Big=F
 Integral buffers will be    131072 words long.
 Raffenetti 2 integral format.
 Two-electron integral symmetry is turned on.
 R6Disp:  Grimme-D3(BJ) Dispersion energy=       -0.0547196347 Hartrees.
 Nuclear repulsion after empirical dispersion term =     1885.7360445396 Hartrees.
 Leave Link  301 at Thu Nov  3 08:04:23 2022, MaxMem=  4194304000 cpu:               0.9 elap:               0.2
 (Enter /software/gaussian/G16-A.03/avx/g16/l302.exe)
 NPDir=0 NMtPBC=     1 NCelOv=     1 NCel=       1 NClECP=     1 NCelD=      1
         NCelK=      1 NCelE2=     1 NClLst=     1 CellRange=     0.0.
 One-electron integrals computed using PRISM.
 One-electron integral symmetry used in STVInt
   1 Symmetry operations used in ECPInt.
 ECPInt:  NShTT=   23436 NPrTT=   81366 LenC2=   21080 LenP2D=   51474.
 LDataN:  DoStor=T MaxTD1= 4 Len=   56
 NBasis=   444 RedAO= T EigKep=  5.64D-04  NBF=   444
 NBsUse=   444 1.00D-06 EigRej= -1.00D+00 NBFU=   444
 Precomputing XC quadrature grid using
 IXCGrd= 4 IRadAn=           5 IRanWt=          -1 IRanGd=           0 AccXCQ= 0.00D+00.
 Generated NRdTot=       0 NPtTot=           0 NUsed=           0 NTot=          32
 NSgBfM=   461   461   461   461   461 MxSgAt=    51 MxSgA2=    51.
 Leave Link  302 at Thu Nov  3 08:04:24 2022, MaxMem=  4194304000 cpu:               9.1 elap:               1.2
 (Enter /software/gaussian/G16-A.03/avx/g16/l303.exe)
 DipDrv:  MaxL=1.
 Leave Link  303 at Thu Nov  3 08:04:24 2022, MaxMem=  4194304000 cpu:               2.1 elap:               0.4
 (Enter /software/gaussian/G16-A.03/avx/g16/l401.exe)
 ExpMin= 1.22D-01 ExpMax= 2.27D+03 ExpMxC= 3.41D+02 IAcc=3 IRadAn=         5 AccDes= 0.00D+00
 Harris functional with IExCor= 1009 and IRadAn=       5 diagonalized for initial guess.
 HarFok:  IExCor= 1009 AccDes= 0.00D+00 IRadAn=         5 IDoV= 1 UseB2=F ITyADJ=14
 ICtDFT=  3500011 ScaDFX=  1.000000  1.000000  1.000000  1.000000
 FoFCou: FMM=F IPFlag=           0 FMFlag=      100000 FMFlg1=           0
         NFxFlg=           0 DoJE=T BraDBF=F KetDBF=T FulRan=T
         wScrn=  0.000000 ICntrl=       500 IOpCl=  0 I1Cent=   200000004 NGrid=           0
         NMat0=    1 NMatS0=      1 NMatT0=    0 NMatD0=    1 NMtDS0=    0 NMtDT0=    0
 Petite list used in FoFCou.
 Harris En= -924.403077549348    
 JPrj=0 DoOrth=F DoCkMO=F.
 Leave Link  401 at Thu Nov  3 08:04:31 2022, MaxMem=  4194304000 cpu:              50.5 elap:               6.4
 (Enter /software/gaussian/G16-A.03/avx/g16/l502.exe)
 Integral symmetry usage will be decided dynamically.
 Closed shell SCF:
 Using DIIS extrapolation, IDIIS=  1040.
 NGot=  4194304000 LenX=  4193862627 LenY=  4193645937
 Requested convergence on RMS density matrix=1.00D-08 within 128 cycles.
 Requested convergence on MAX density matrix=1.00D-06.
 Requested convergence on             energy=1.00D-06.
 No special actions if energy rises.
 Fock matrices will be formed incrementally for  20 cycles.
 Integral accuracy reduced to 1.0D-05 until final iterations.

 Cycle   1  Pass 0  IDiag  1:
 FoFJK:  IHMeth= 1 ICntrl=       0 DoSepK=F KAlg= 0 I1Cent=           0 FoldK=F
 IRaf= 830000000 NMat=       1 IRICut=       1 DoRegI=T DoRafI=F ISym2E= 0 IDoP0=0 IntGTp=1.
 FoFCou: FMM=F IPFlag=           0 FMFlag=      100000 FMFlg1=           0
         NFxFlg=           0 DoJE=F BraDBF=F KetDBF=F FulRan=T
         wScrn=  0.000000 ICntrl=         0 IOpCl=  0 I1Cent=           0 NGrid=           0
         NMat0=    1 NMatS0=      1 NMatT0=    0 NMatD0=    1 NMtDS0=    0 NMtDT0=    0
 Symmetry not used in FoFCou.
 E= -923.582860476539    
 DIIS: error= 2.86D-02 at cycle   1 NSaved=   1.
 NSaved= 1 IEnMin= 1 EnMin= -923.582860476539     IErMin= 1 ErrMin= 2.86D-02
 ErrMax= 2.86D-02  0.00D+00 EMaxC= 1.00D-01 BMatC= 5.06D-01 BMatP= 5.06D-01
 IDIUse=3 WtCom= 7.14D-01 WtEn= 2.86D-01
 Coeff-Com:  0.100D+01
 Coeff-En:   0.100D+01
 Coeff:      0.100D+01
 Gap=     0.258 Goal=   None    Shift=    0.000
 GapD=    0.258 DampG=1.000 DampE=0.500 DampFc=0.5000 IDamp=-1.
 Damping current iteration by 5.00D-01
 RMSDP=4.28D-03 MaxDP=2.54D-01              OVMax= 2.30D-01

 Cycle   2  Pass 0  IDiag  1:
 RMSU=  2.13D-03    CP:  9.85D-01
 E= -923.810441076713     Delta-E=       -0.227580600174 Rises=F Damp=T
 DIIS: error= 7.27D-03 at cycle   2 NSaved=   2.
 NSaved= 2 IEnMin= 2 EnMin= -923.810441076713     IErMin= 2 ErrMin= 7.27D-03
 ErrMax= 7.27D-03  0.00D+00 EMaxC= 1.00D-01 BMatC= 3.76D-02 BMatP= 5.06D-01
 IDIUse=3 WtCom= 9.27D-01 WtEn= 7.27D-02
 Coeff-Com:  0.974D-01 0.903D+00
 Coeff-En:   0.161D+00 0.839D+00
 Coeff:      0.102D+00 0.898D+00
 Gap=     0.307 Goal=   None    Shift=    0.000
 RMSDP=1.35D-03 MaxDP=4.90D-02 DE=-2.28D-01 OVMax= 2.09D-01

 Cycle   3  Pass 0  IDiag  1:
 RMSU=  1.25D-03    CP:  9.80D-01  7.56D-01
 E= -924.081352107009     Delta-E=       -0.270911030296 Rises=F Damp=F
 DIIS: error= 1.32D-02 at cycle   3 NSaved=   3.
 NSaved= 3 IEnMin= 3 EnMin= -924.081352107009     IErMin= 2 ErrMin= 7.27D-03
 ErrMax= 1.32D-02  0.00D+00 EMaxC= 1.00D-01 BMatC= 4.99D-02 BMatP= 3.76D-02
 IDIUse=2 WtCom= 0.00D+00 WtEn= 1.00D+00
 Coeff-En:   0.000D+00 0.000D+00 0.100D+01
 Coeff:      0.000D+00 0.000D+00 0.100D+01
 Gap=     0.262 Goal=   None    Shift=    0.000
 RMSDP=1.91D-03 MaxDP=1.31D-01 DE=-2.71D-01 OVMax= 2.05D-01

 Cycle   4  Pass 0  IDiag  1:
 RMSU=  1.13D-03    CP:  9.88D-01  1.20D+00  2.77D-02
 E= -923.903798197957     Delta-E=        0.177553909053 Rises=F Damp=F
 DIIS: error= 2.77D-02 at cycle   4 NSaved=   4.
 NSaved= 4 IEnMin= 3 EnMin= -924.081352107009     IErMin= 2 ErrMin= 7.27D-03
 ErrMax= 2.77D-02  0.00D+00 EMaxC= 1.00D-01 BMatC= 2.48D-01 BMatP= 3.76D-02
 IDIUse=2 WtCom= 0.00D+00 WtEn= 1.00D+00
 Coeff-En:   0.000D+00 0.000D+00 0.777D+00 0.223D+00
 Coeff:      0.000D+00 0.000D+00 0.777D+00 0.223D+00
 Gap=     0.254 Goal=   None    Shift=    0.000
 RMSDP=1.03D-03 MaxDP=8.72D-02 DE= 1.78D-01 OVMax= 1.10D-01

 Cycle   5  Pass 0  IDiag  1:
 RMSU=  1.59D-04    CP:  9.83D-01  9.36D-01  5.02D-01  4.60D-01
 E= -924.111392078656     Delta-E=       -0.207593880699 Rises=F Damp=F
 DIIS: error= 7.51D-03 at cycle   5 NSaved=   5.
 NSaved= 5 IEnMin= 5 EnMin= -924.111392078656     IErMin= 2 ErrMin= 7.27D-03
 ErrMax= 7.51D-03  0.00D+00 EMaxC= 1.00D-01 BMatC= 1.71D-02 BMatP= 3.76D-02
 IDIUse=3 WtCom= 9.25D-01 WtEn= 7.51D-02
 Coeff-Com: -0.763D-03 0.102D-01 0.299D+00-0.697D-01 0.761D+00
 Coeff-En:   0.000D+00 0.000D+00 0.303D+00 0.000D+00 0.697D+00
 Coeff:     -0.706D-03 0.947D-02 0.299D+00-0.645D-01 0.756D+00
 Gap=     0.272 Goal=   None    Shift=    0.000
 RMSDP=3.46D-04 MaxDP=2.35D-02 DE=-2.08D-01 OVMax= 3.86D-02

 Cycle   6  Pass 0  IDiag  1:
 RMSU=  3.71D-05    CP:  9.82D-01  8.59D-01  6.82D-01  2.83D-01  8.16D-01
 E= -924.126753023627     Delta-E=       -0.015360944971 Rises=F Damp=F
 DIIS: error= 2.42D-04 at cycle   6 NSaved=   6.
 NSaved= 6 IEnMin= 6 EnMin= -924.126753023627     IErMin= 6 ErrMin= 2.42D-04
 ErrMax= 2.42D-04  0.00D+00 EMaxC= 1.00D-01 BMatC= 4.04D-05 BMatP= 1.71D-02
 IDIUse=3 WtCom= 9.98D-01 WtEn= 2.42D-03
 Coeff-Com: -0.170D-02 0.258D-02 0.100D+00-0.501D-01 0.367D+00 0.581D+00
 Coeff-En:   0.000D+00 0.000D+00 0.000D+00 0.000D+00 0.000D+00 0.100D+01
 Coeff:     -0.170D-02 0.257D-02 0.100D+00-0.500D-01 0.367D+00 0.583D+00
 Gap=     0.272 Goal=   None    Shift=    0.000
 RMSDP=1.68D-05 MaxDP=1.29D-03 DE=-1.54D-02 OVMax= 1.02D-03

 Cycle   7  Pass 0  IDiag  1:
 RMSU=  9.04D-06    CP:  9.82D-01  8.62D-01  6.78D-01  2.86D-01  8.51D-01
                    CP:  7.41D-01
 E= -924.126789873798     Delta-E=       -0.000036850171 Rises=F Damp=F
 DIIS: error= 5.99D-05 at cycle   7 NSaved=   7.
 NSaved= 7 IEnMin= 7 EnMin= -924.126789873798     IErMin= 7 ErrMin= 5.99D-05
 ErrMax= 5.99D-05  0.00D+00 EMaxC= 1.00D-01 BMatC= 1.52D-06 BMatP= 4.04D-05
 IDIUse=1 WtCom= 1.00D+00 WtEn= 0.00D+00
 Coeff-Com: -0.731D-03 0.844D-03 0.339D-01-0.208D-01 0.137D+00 0.251D+00
 Coeff-Com:  0.599D+00
 Coeff:     -0.731D-03 0.844D-03 0.339D-01-0.208D-01 0.137D+00 0.251D+00
 Coeff:      0.599D+00
 Gap=     0.272 Goal=   None    Shift=    0.000
 RMSDP=4.56D-06 MaxDP=3.82D-04 DE=-3.69D-05 OVMax= 1.71D-04

 Initial convergence to 1.0D-05 achieved.  Increase integral accuracy.
 Cycle   8  Pass 1  IDiag  1:
 E= -924.126820852557     Delta-E=       -0.000030978759 Rises=F Damp=F
 DIIS: error= 1.00D-04 at cycle   1 NSaved=   1.
 NSaved= 1 IEnMin= 1 EnMin= -924.126820852557     IErMin= 1 ErrMin= 1.00D-04
 ErrMax= 1.00D-04  0.00D+00 EMaxC= 1.00D-01 BMatC= 1.82D-06 BMatP= 1.82D-06
 IDIUse=3 WtCom= 9.99D-01 WtEn= 1.00D-03
 Coeff-Com:  0.100D+01
 Coeff-En:   0.100D+01
 Coeff:      0.100D+01
 Gap=     0.272 Goal=   None    Shift=    0.000
 RMSDP=4.56D-06 MaxDP=3.82D-04 DE=-3.10D-05 OVMax= 2.53D-04

 Cycle   9  Pass 1  IDiag  1:
 RMSU=  4.46D-05    CP:  1.00D+00
 E= -924.126822409050     Delta-E=       -0.000001556493 Rises=F Damp=F
 DIIS: error= 3.66D-05 at cycle   2 NSaved=   2.
 NSaved= 2 IEnMin= 2 EnMin= -924.126822409050     IErMin= 2 ErrMin= 3.66D-05
 ErrMax= 3.66D-05  0.00D+00 EMaxC= 1.00D-01 BMatC= 5.47D-07 BMatP= 1.82D-06
 IDIUse=1 WtCom= 1.00D+00 WtEn= 0.00D+00
 Coeff-Com:  0.284D+00 0.716D+00
 Coeff:      0.284D+00 0.716D+00
 Gap=     0.272 Goal=   None    Shift=    0.000
 RMSDP=4.00D-06 MaxDP=4.77D-04 DE=-1.56D-06 OVMax= 3.21D-04

 Cycle  10  Pass 1  IDiag  1:
 RMSU=  3.95D-06    CP:  1.00D+00  1.00D+00
 E= -924.126822392976     Delta-E=        0.000000016074 Rises=F Damp=F
 DIIS: error= 3.86D-05 at cycle   3 NSaved=   3.
 NSaved= 3 IEnMin= 2 EnMin= -924.126822409050     IErMin= 2 ErrMin= 3.66D-05
 ErrMax= 3.86D-05  0.00D+00 EMaxC= 1.00D-01 BMatC= 5.49D-07 BMatP= 5.47D-07
 IDIUse=1 WtCom= 1.00D+00 WtEn= 0.00D+00
 Coeff-Com:  0.458D-02 0.500D+00 0.496D+00
 Coeff:      0.458D-02 0.500D+00 0.496D+00
 Gap=     0.272 Goal=   None    Shift=    0.000
 RMSDP=2.28D-06 MaxDP=2.26D-04 DE= 1.61D-08 OVMax= 2.17D-04

 Cycle  11  Pass 1  IDiag  1:
 RMSU=  6.85D-07    CP:  1.00D+00  1.02D+00  4.74D-01
 E= -924.126822851101     Delta-E=       -0.000000458125 Rises=F Damp=F
 DIIS: error= 1.10D-05 at cycle   4 NSaved=   4.
 NSaved= 4 IEnMin= 4 EnMin= -924.126822851101     IErMin= 4 ErrMin= 1.10D-05
 ErrMax= 1.10D-05  0.00D+00 EMaxC= 1.00D-01 BMatC= 3.10D-08 BMatP= 5.47D-07
 IDIUse=1 WtCom= 1.00D+00 WtEn= 0.00D+00
 Coeff-Com: -0.567D-02 0.314D+00 0.332D+00 0.360D+00
 Coeff:     -0.567D-02 0.314D+00 0.332D+00 0.360D+00
 Gap=     0.272 Goal=   None    Shift=    0.000
 RMSDP=4.27D-07 MaxDP=2.09D-05 DE=-4.58D-07 OVMax= 4.42D-05

 Cycle  12  Pass 1  IDiag  1:
 RMSU=  1.61D-07    CP:  1.00D+00  1.02D+00  5.02D-01  4.46D-01
 E= -924.126822876269     Delta-E=       -0.000000025168 Rises=F Damp=F
 DIIS: error= 4.24D-07 at cycle   5 NSaved=   5.
 NSaved= 5 IEnMin= 5 EnMin= -924.126822876269     IErMin= 5 ErrMin= 4.24D-07
 ErrMax= 4.24D-07  0.00D+00 EMaxC= 1.00D-01 BMatC= 1.34D-10 BMatP= 3.10D-08
 IDIUse=1 WtCom= 1.00D+00 WtEn= 0.00D+00
 Coeff-Com: -0.268D-02 0.134D+00 0.142D+00 0.167D+00 0.559D+00
 Coeff:     -0.268D-02 0.134D+00 0.142D+00 0.167D+00 0.559D+00
 Gap=     0.272 Goal=   None    Shift=    0.000
 RMSDP=4.03D-08 MaxDP=2.93D-06 DE=-2.52D-08 OVMax= 1.78D-06

 Cycle  13  Pass 1  IDiag  1:
 RMSU=  3.73D-08    CP:  1.00D+00  1.02D+00  5.00D-01  4.60D-01  9.73D-01
 E= -924.126822876368     Delta-E=       -0.000000000099 Rises=F Damp=F
 DIIS: error= 6.95D-08 at cycle   6 NSaved=   6.
 NSaved= 6 IEnMin= 6 EnMin= -924.126822876368     IErMin= 6 ErrMin= 6.95D-08
 ErrMax= 6.95D-08  0.00D+00 EMaxC= 1.00D-01 BMatC= 6.34D-12 BMatP= 1.34D-10
 IDIUse=1 WtCom= 1.00D+00 WtEn= 0.00D+00
 Coeff-Com: -0.146D-03 0.376D-02 0.415D-02 0.104D-01 0.182D+00 0.800D+00
 Coeff:     -0.146D-03 0.376D-02 0.415D-02 0.104D-01 0.182D+00 0.800D+00
 Gap=     0.272 Goal=   None    Shift=    0.000
 RMSDP=1.17D-08 MaxDP=3.93D-07 DE=-9.91D-11 OVMax= 3.96D-07

 Cycle  14  Pass 1  IDiag  1:
 RMSU=  7.07D-09    CP:  1.00D+00  1.02D+00  5.00D-01  4.65D-01  1.02D+00
                    CP:  9.24D-01
 E= -924.126822876390     Delta-E=       -0.000000000022 Rises=F Damp=F
 DIIS: error= 3.36D-08 at cycle   7 NSaved=   7.
 NSaved= 7 IEnMin= 7 EnMin= -924.126822876390     IErMin= 7 ErrMin= 3.36D-08
 ErrMax= 3.36D-08  0.00D+00 EMaxC= 1.00D-01 BMatC= 7.65D-13 BMatP= 6.34D-12
 IDIUse=1 WtCom= 1.00D+00 WtEn= 0.00D+00
 Coeff-Com:  0.556D-04-0.447D-02-0.459D-02-0.279D-02 0.602D-01 0.383D+00
 Coeff-Com:  0.569D+00
 Coeff:      0.556D-04-0.447D-02-0.459D-02-0.279D-02 0.602D-01 0.383D+00
 Coeff:      0.569D+00
 Gap=     0.272 Goal=   None    Shift=    0.000
 RMSDP=3.66D-09 MaxDP=1.32D-07 DE=-2.18D-11 OVMax= 1.56D-07

 SCF Done:  E(RPBE1PBE) =  -924.126822876     A.U. after   14 cycles
            NFock= 14  Conv=0.37D-08     -V/T= 2.0106
 KE= 9.144253879217D+02 PE=-5.917126820412D+03 EE= 2.192838565074D+03
 Leave Link  502 at Thu Nov  3 08:07:17 2022, MaxMem=  4194304000 cpu:            1327.8 elap:             166.1
 (Enter /software/gaussian/G16-A.03/avx/g16/l801.exe)
 DoSCS=F DFT=T ScalE2(SS,OS)=  1.000000  1.000000
 Range of M.O.s used for correlation:     1   444
 NBasis=   444 NAE=    81 NBE=    81 NFC=     0 NFV=     0
 NROrb=    444 NOA=    81 NOB=    81 NVA=   363 NVB=   363

 **** Warning!!: The largest alpha MO coefficient is  0.15930203D+02

 Leave Link  801 at Thu Nov  3 08:07:17 2022, MaxMem=  4194304000 cpu:               0.3 elap:               0.1
 (Enter /software/gaussian/G16-A.03/avx/g16/l1101.exe)
 Using compressed storage, NAtomX=    51.
 Will process     52 centers per pass.
   1 Symmetry operations used in ECPInt.
 ECPInt:  NShTT=   23436 NPrTT=   81366 LenC2=   21080 LenP2D=   51474.
 LDataN:  DoStor=T MaxTD1= 5 Len=  102
 R6Disp: Adding Grimme-D3(BJ) dispersion energy 1st derivatives to the gradient.
 Leave Link 1101 at Thu Nov  3 08:07:20 2022, MaxMem=  4194304000 cpu:              15.7 elap:               2.2
 (Enter /software/gaussian/G16-A.03/avx/g16/l1102.exe)
 Symmetrizing basis deriv contribution to polar:
 IMax=3 JMax=2 DiffMx= 0.00D+00
 Leave Link 1102 at Thu Nov  3 08:07:21 2022, MaxMem=  4194304000 cpu:               1.0 elap:               0.2
 (Enter /software/gaussian/G16-A.03/avx/g16/l1110.exe)
 Forming Gx(P) for the SCF density, NAtomX=    51.
 Integral derivatives from FoFJK, PRISM(SPDF).
 Do as many integral derivatives as possible in FoFJK.
 G2DrvN: MDV=    4194300192.
 G2DrvN: will do    52 centers at a time, making    1 passes.
 Calling FoFCou, ICntrl=  3107 FMM=F I1Cent=   0 AccDes= 0.00D+00.
 FoFJK:  IHMeth= 1 ICntrl=    3107 DoSepK=F KAlg= 0 I1Cent=           0 FoldK=F
 IRaf=         0 NMat=       1 IRICut=       1 DoRegI=T DoRafI=F ISym2E= 0 IDoP0=0 IntGTp=1.
 FoFCou: FMM=F IPFlag=           0 FMFlag=      100000 FMFlg1=           0
         NFxFlg=           0 DoJE=F BraDBF=F KetDBF=F FulRan=T
         wScrn=  0.000000 ICntrl=      3107 IOpCl=  0 I1Cent=           0 NGrid=           0
         NMat0=    1 NMatS0=      1 NMatT0=    0 NMatD0=    1 NMtDS0=    0 NMtDT0=    0
 Symmetry not used in FoFCou.
 End of G2Drv F.D. properties file   721 does not exist.
 End of G2Drv F.D. properties file   722 does not exist.
 End of G2Drv F.D. properties file   788 does not exist.
 Leave Link 1110 at Thu Nov  3 08:18:28 2022, MaxMem=  4194304000 cpu:            5302.0 elap:             666.3
 (Enter /software/gaussian/G16-A.03/avx/g16/l1002.exe)
 Minotr:  Closed shell wavefunction.
          IDoAtm=11111111111111111111111111111111111111111111111111
          IDoAtm=1
          Direct CPHF calculation.
          Differentiating once with respect to electric field.
                with respect to dipole field.
          Differentiating once with respect to nuclear coordinates.
          Requested convergence is 1.0D-08 RMS, and 1.0D-07 maximum.
          Secondary convergence is 1.0D-12 RMS, and 1.0D-12 maximum.
          NewPWx=T KeepS1=F KeepF1=F KeepIn=T MapXYZ=F SortEE=F KeepMc=T.
        15451 words used for storage of precomputed grid.
 Two-electron integrals replicated using symmetry.
          MDV=    4194304000 using IRadAn=       1.
          Solving linear equations simultaneously, MaxMat=     384.
 FoF2E skips out because all densities are zero.
 CalDSu exits because no D1Ps are significant.
 FoFJK:  IHMeth= 1 ICntrl=       0 DoSepK=F KAlg= 0 I1Cent=           0 FoldK=F
 IRaf= 800000000 NMat=     153 IRICut=     382 DoRegI=T DoRafI=T ISym2E= 2 IDoP0=3 IntGTp=3.
 FoFCou: FMM=F IPFlag=           0 FMFlag=      100000 FMFlg1=           0
         NFxFlg=           0 DoJE=F BraDBF=F KetDBF=F FulRan=T
         wScrn=  0.000000 ICntrl=         0 IOpCl=  0 I1Cent=           0 NGrid=           0
         NMat0=  153 NMatS0=    153 NMatT0=    0 NMatD0=  153 NMtDS0=    0 NMtDT0=    0
 Integrals replicated using symmetry in FoFCou.
 Raff kept on since  75.46% of shell-pairs survive, threshold=   0.20 IRatSp=75.
          There are   156 degrees of freedom in the 1st order CPHF.  IDoFFX=6 NUNeed=     3.
    153 vectors produced by pass  0 Test12= 2.94D-14 1.00D-09 XBig12= 1.47D+02 4.54D+00.
 AX will form   153 AO Fock derivatives at one time.
    153 vectors produced by pass  1 Test12= 2.94D-14 1.00D-09 XBig12= 4.87D+01 1.56D+00.
    153 vectors produced by pass  2 Test12= 2.94D-14 1.00D-09 XBig12= 4.64D-01 7.49D-02.
    153 vectors produced by pass  3 Test12= 2.94D-14 1.00D-09 XBig12= 1.58D-03 2.90D-03.
    153 vectors produced by pass  4 Test12= 2.94D-14 1.00D-09 XBig12= 3.45D-06 2.23D-04.
     88 vectors produced by pass  5 Test12= 2.94D-14 1.00D-09 XBig12= 3.80D-09 7.81D-06.
     12 vectors produced by pass  6 Test12= 2.94D-14 1.00D-09 XBig12= 3.82D-12 1.77D-07.
      3 vectors produced by pass  7 Test12= 2.94D-14 1.00D-09 XBig12= 3.86D-15 4.93D-09.
 InvSVY:  IOpt=1 It=  1 EMax= 5.33D-15
 Solved reduced A of dimension   868 with   156 vectors.
 FullF1:  Do perturbations      1 to       3.
 Isotropic polarizability for W=    0.000000      195.80 Bohr**3.
 End of Minotr F.D. properties file   721 does not exist.
 End of Minotr F.D. properties file   722 does not exist.
 End of Minotr F.D. properties file   788 does not exist.
 Leave Link 1002 at Thu Nov  3 08:38:58 2022, MaxMem=  4194304000 cpu:            9798.8 elap:            1229.6
 (Enter /software/gaussian/G16-A.03/avx/g16/l601.exe)
 Copying SCF densities to generalized density rwf, IOpCl= 0 IROHF=0.

 **********************************************************************

            Population analysis using the SCF density.

 **********************************************************************

 Orbital symmetries:
       Occupied  (A) (A) (A) (A) (A) (A) (A) (A) (A) (A) (A) (A)
                 (A) (A) (A) (A) (A) (A) (A) (A) (A) (A) (A) (A)
                 (A) (A) (A) (A) (A) (A) (A) (A) (A) (A) (A) (A)
                 (A) (A) (A) (A) (A) (A) (A) (A) (A) (A) (A) (A)
                 (A) (A) (A) (A) (A) (A) (A) (A) (A) (A) (A) (A)
                 (A) (A) (A) (A) (A) (A) (A) (A) (A) (A) (A) (A)
                 (A) (A) (A) (A) (A) (A) (A) (A) (A)
       Virtual   (A) (A) (A) (A) (A) (A) (A) (A) (A) (A) (A) (A)
                 (A) (A) (A) (A) (A) (A) (A) (A) (A) (A) (A) (A)
                 (A) (A) (A) (A) (A) (A) (A) (A) (A) (A) (A) (A)
                 (A) (A) (A) (A) (A) (A) (A) (A) (A) (A) (A) (A)
                 (A) (A) (A) (A) (A) (A) (A) (A) (A) (A) (A) (A)
                 (A) (A) (A) (A) (A) (A) (A) (A) (A) (A) (A) (A)
                 (A) (A) (A) (A) (A) (A) (A) (A) (A) (A) (A) (A)
                 (A) (A) (A) (A) (A) (A) (A) (A) (A) (A) (A) (A)
                 (A) (A) (A) (A) (A) (A) (A) (A) (A) (A) (A) (A)
                 (A) (A) (A) (A) (A) (A) (A) (A) (A) (A) (A) (A)
                 (A) (A) (A) (A) (A) (A) (A) (A) (A) (A) (A) (A)
                 (A) (A) (A) (A) (A) (A) (A) (A) (A) (A) (A) (A)
                 (A) (A) (A) (A) (A) (A) (A) (A) (A) (A) (A) (A)
                 (A) (A) (A) (A) (A) (A) (A) (A) (A) (A) (A) (A)
                 (A) (A) (A) (A) (A) (A) (A) (A) (A) (A) (A) (A)
                 (A) (A) (A) (A) (A) (A) (A) (A) (A) (A) (A) (A)
                 (A) (A) (A) (A) (A) (A) (A) (A) (A) (A) (A) (A)
                 (A) (A) (A) (A) (A) (A) (A) (A) (A) (A) (A) (A)
                 (A) (A) (A) (A) (A) (A) (A) (A) (A) (A) (A) (A)
                 (A) (A) (A) (A) (A) (A) (A) (A) (A) (A) (A) (A)
                 (A) (A) (A) (A) (A) (A) (A) (A) (A) (A) (A) (A)
                 (A) (A) (A) (A) (A) (A) (A) (A) (A) (A) (A) (A)
                 (A) (A) (A) (A) (A) (A) (A) (A) (A) (A) (A) (A)
                 (A) (A) (A) (A) (A) (A) (A) (A) (A) (A) (A) (A)
                 (A) (A) (A) (A) (A) (A) (A) (A) (A) (A) (A) (A)
                 (A) (A) (A) (A) (A) (A) (A) (A) (A) (A) (A) (A)
                 (A) (A) (A) (A) (A) (A) (A) (A) (A) (A) (A) (A)
                 (A) (A) (A) (A) (A) (A) (A) (A) (A) (A) (A) (A)
                 (A) (A) (A) (A) (A) (A) (A) (A) (A) (A) (A) (A)
                 (A) (A) (A) (A) (A) (A) (A) (A) (A) (A) (A) (A)
                 (A) (A) (A)
 The electronic state is 1-A.
 Alpha  occ. eigenvalues --  -19.24216 -19.24211 -14.35079 -14.35075 -10.30991
 Alpha  occ. eigenvalues --  -10.30990 -10.28509 -10.28509 -10.26986 -10.25626
 Alpha  occ. eigenvalues --  -10.25626 -10.24227 -10.24227 -10.23197 -10.23195
 Alpha  occ. eigenvalues --  -10.22333 -10.22333 -10.21848 -10.21847 -10.21104
 Alpha  occ. eigenvalues --  -10.21103  -1.11714  -1.11494  -0.91341  -0.90521
 Alpha  occ. eigenvalues --   -0.86249  -0.83249  -0.82472  -0.76660  -0.74728
 Alpha  occ. eigenvalues --   -0.70657  -0.69667  -0.69651  -0.69031  -0.68944
 Alpha  occ. eigenvalues --   -0.65655  -0.64908  -0.63844  -0.59698  -0.55736
 Alpha  occ. eigenvalues --   -0.55066  -0.53746  -0.51962  -0.51233  -0.51202
 Alpha  occ. eigenvalues --   -0.49239  -0.47260  -0.46899  -0.45453  -0.45425
 Alpha  occ. eigenvalues --   -0.44970  -0.44782  -0.44389  -0.43916  -0.43063
 Alpha  occ. eigenvalues --   -0.41930  -0.41488  -0.40717  -0.39381  -0.39226
 Alpha  occ. eigenvalues --   -0.38858  -0.38808  -0.37813  -0.37231  -0.36921
 Alpha  occ. eigenvalues --   -0.36772  -0.36496  -0.36472  -0.36211  -0.35243
 Alpha  occ. eigenvalues --   -0.34519  -0.34182  -0.34172  -0.33356  -0.33250
 Alpha  occ. eigenvalues --   -0.32849  -0.32715  -0.27847  -0.25048  -0.24399
 Alpha  occ. eigenvalues --   -0.24033
 Alpha virt. eigenvalues --    0.03195   0.03389   0.05715   0.06477   0.07965
 Alpha virt. eigenvalues --    0.09320   0.09549   0.09685   0.10059   0.10575
 Alpha virt. eigenvalues --    0.11222   0.11410   0.12170   0.12352   0.12552
 Alpha virt. eigenvalues --    0.14123   0.14137   0.14363   0.14788   0.15396
 Alpha virt. eigenvalues --    0.16159   0.16373   0.16558   0.16851   0.17549
 Alpha virt. eigenvalues --    0.17605   0.18101   0.18801   0.18926   0.19472
 Alpha virt. eigenvalues --    0.19561   0.20203   0.20560   0.20847   0.21426
 Alpha virt. eigenvalues --    0.22111   0.22154   0.22553   0.23301   0.24513
 Alpha virt. eigenvalues --    0.24989   0.25337   0.25406   0.25882   0.26330
 Alpha virt. eigenvalues --    0.26730   0.28056   0.28065   0.29894   0.32573
 Alpha virt. eigenvalues --    0.34680   0.36725   0.38710   0.40254   0.40742
 Alpha virt. eigenvalues --    0.41426   0.42162   0.42619   0.42962   0.44313
 Alpha virt. eigenvalues --    0.44416   0.44580   0.45277   0.49895   0.50249
 Alpha virt. eigenvalues --    0.50251   0.51549   0.52447   0.52823   0.53481
 Alpha virt. eigenvalues --    0.53628   0.55271   0.55634   0.57141   0.57710
 Alpha virt. eigenvalues --    0.57815   0.58541   0.59626   0.60037   0.60211
 Alpha virt. eigenvalues --    0.60928   0.62074   0.62333   0.63725   0.64262
 Alpha virt. eigenvalues --    0.64461   0.64706   0.65057   0.65156   0.65547
 Alpha virt. eigenvalues --    0.65977   0.66130   0.66669   0.66770   0.67178
 Alpha virt. eigenvalues --    0.67433   0.68083   0.68268   0.68374   0.68558
 Alpha virt. eigenvalues --    0.68879   0.69720   0.69773   0.69980   0.70344
 Alpha virt. eigenvalues --    0.70397   0.71024   0.71665   0.71778   0.71880
 Alpha virt. eigenvalues --    0.72480   0.72707   0.72892   0.73316   0.73925
 Alpha virt. eigenvalues --    0.74101   0.74606   0.74770   0.74914   0.75289
 Alpha virt. eigenvalues --    0.75352   0.75498   0.76292   0.77164   0.77742
 Alpha virt. eigenvalues --    0.78157   0.79042   0.79374   0.80401   0.82116
 Alpha virt. eigenvalues --    0.82375   0.84889   0.84965   0.87127   0.88103
 Alpha virt. eigenvalues --    0.88293   0.89224   0.90612   0.91598   0.94788
 Alpha virt. eigenvalues --    0.96198   0.98195   0.99181   1.02317   1.04291
 Alpha virt. eigenvalues --    1.04976   1.06413   1.06741   1.09761   1.10529
 Alpha virt. eigenvalues --    1.11014   1.13393   1.13722   1.14634   1.15482
 Alpha virt. eigenvalues --    1.16304   1.18213   1.18713   1.19980   1.20669
 Alpha virt. eigenvalues --    1.21867   1.22507   1.24351   1.25634   1.27746
 Alpha virt. eigenvalues --    1.29430   1.30398   1.30979   1.32410   1.34260
 Alpha virt. eigenvalues --    1.35730   1.38317   1.39526   1.39543   1.42024
 Alpha virt. eigenvalues --    1.45272   1.45469   1.48202   1.48986   1.52081
 Alpha virt. eigenvalues --    1.52538   1.53716   1.54796   1.55800   1.56191
 Alpha virt. eigenvalues --    1.56295   1.57443   1.57695   1.58106   1.58169
 Alpha virt. eigenvalues --    1.58657   1.60210   1.60441   1.60925   1.61866
 Alpha virt. eigenvalues --    1.63533   1.64960   1.65403   1.66052   1.66537
 Alpha virt. eigenvalues --    1.67609   1.68589   1.68826   1.69545   1.72603
 Alpha virt. eigenvalues --    1.73367   1.75704   1.76072   1.76887   1.77400
 Alpha virt. eigenvalues --    1.77665   1.78707   1.78940   1.78953   1.79884
 Alpha virt. eigenvalues --    1.80737   1.81043   1.81557   1.82444   1.82482
 Alpha virt. eigenvalues --    1.82775   1.83212   1.83748   1.84428   1.85649
 Alpha virt. eigenvalues --    1.85891   1.86090   1.86195   1.86741   1.87304
 Alpha virt. eigenvalues --    1.87513   1.88501   1.88676   1.88744   1.88893
 Alpha virt. eigenvalues --    1.89570   1.90012   1.90880   1.91648   1.92534
 Alpha virt. eigenvalues --    1.92977   1.93270   1.93839   1.94252   1.96205
 Alpha virt. eigenvalues --    1.96296   1.96812   1.96895   1.98611   1.98979
 Alpha virt. eigenvalues --    1.99160   1.99616   1.99934   2.01280   2.02283
 Alpha virt. eigenvalues --    2.02862   2.03024   2.06452   2.07433   2.07502
 Alpha virt. eigenvalues --    2.07881   2.09213   2.10441   2.12116   2.12672
 Alpha virt. eigenvalues --    2.16520   2.18844   2.19028   2.20417   2.20965
 Alpha virt. eigenvalues --    2.22354   2.22708   2.23954   2.24186   2.25811
 Alpha virt. eigenvalues --    2.27292   2.27672   2.30140   2.31629   2.32366
 Alpha virt. eigenvalues --    2.32789   2.34706   2.36812   2.38875   2.39183
 Alpha virt. eigenvalues --    2.40695   2.41226   2.42765   2.42786   2.43529
 Alpha virt. eigenvalues --    2.43802   2.44598   2.45706   2.46115   2.47173
 Alpha virt. eigenvalues --    2.48628   2.51702   2.52979   2.53691   2.54734
 Alpha virt. eigenvalues --    2.54818   2.56895   2.57996   2.62541   2.64373
 Alpha virt. eigenvalues --    2.64571   2.65012   2.66054   2.66218   2.67729
 Alpha virt. eigenvalues --    2.67843   2.68135   2.68605   2.70054   2.71342
 Alpha virt. eigenvalues --    2.71686   2.74258   2.75545   2.76773   2.82739
 Alpha virt. eigenvalues --    2.83722   2.86027   2.86266   2.87698   2.88886
 Alpha virt. eigenvalues --    2.89088   2.89980   2.90412   2.91041   2.91699
 Alpha virt. eigenvalues --    2.93114   2.93228   2.93459   2.93739   2.94529
 Alpha virt. eigenvalues --    2.95082   2.96958   2.97475   2.97649   2.99337
 Alpha virt. eigenvalues --    2.99649   3.00062   3.00777   3.03682   3.05680
 Alpha virt. eigenvalues --    3.06085   3.06251   3.06625   3.06770   3.07806
 Alpha virt. eigenvalues --    3.08109   3.11924   3.12197   3.15322   3.15721
 Alpha virt. eigenvalues --    3.18997   3.21240   3.31750   3.35149   3.41132
 Alpha virt. eigenvalues --    3.47840   3.65729   3.67809
     Molecular Orbital Coefficients:
                          77        78        79        80        81
                           O         O         O         O         O
     Eigenvalues --    -0.32715  -0.27847  -0.25048  -0.24399  -0.24033
   1 1   C  1S         -0.00334   0.00697   0.01048   0.00045  -0.00136
   2        2S          0.00792  -0.01563  -0.01231  -0.00331   0.00318
   3        3S          0.00465  -0.03912  -0.14009   0.03072   0.00129
   4        4PX        -0.05186   0.01079   0.02185   0.00920   0.01602
   5        4PY        -0.00503   0.03327   0.06035   0.00211  -0.00855
   6        4PZ         0.01073  -0.01627  -0.03973   0.00820   0.01548
   7        5PX        -0.02793   0.00595   0.03174  -0.01135   0.01691
   8        5PY        -0.00200   0.02550   0.09791  -0.00579  -0.01052
   9        5PZ         0.00511  -0.00423  -0.04743   0.00223   0.01426
  10        6D 0        0.00034  -0.00181  -0.00120  -0.00011  -0.00079
  11        6D+1        0.00060   0.00162   0.00079   0.00017  -0.00121
  12        6D-1       -0.00240  -0.00014   0.00227  -0.00054   0.00094
  13        6D+2       -0.00072   0.00005   0.00056   0.00012   0.00061
  14        6D-2       -0.00217   0.00003  -0.00071  -0.00120   0.00288
  15 2   C  1S         -0.00000  -0.01409  -0.00000   0.00543  -0.00000
  16        2S          0.00001   0.01616  -0.00000  -0.00764  -0.00001
  17        3S         -0.00004   0.32365   0.00010  -0.11940   0.00023
  18        4PX         0.04769  -0.00003  -0.04307  -0.00008  -0.06141
  19        4PY         0.00002  -0.08914  -0.00004   0.01258   0.00001
  20        4PZ        -0.01655   0.00002   0.04557  -0.00003  -0.03491
  21        5PX         0.01299  -0.00009  -0.01541  -0.00028  -0.04669
  22        5PY         0.00003  -0.17412  -0.00029   0.02194  -0.00003
  23        5PZ        -0.01506   0.00007  -0.09292  -0.00011  -0.02147
  24        6D 0        0.00000  -0.00366  -0.00001  -0.00463   0.00001
  25        6D+1       -0.00000   0.00164   0.00001  -0.00577   0.00001
  26        6D-1       -0.00318  -0.00000   0.00954   0.00000  -0.00041
  27        6D+2       -0.00000   0.00009   0.00000   0.00405  -0.00000
  28        6D-2       -0.00198   0.00000  -0.00246   0.00000   0.00334
  29 3   C  1S          0.00845  -0.03915   0.00726   0.00402   0.03501
  30        2S         -0.02360   0.10150  -0.01914  -0.01110  -0.09063
  31        3S         -0.00955  -0.11853  -0.00878   0.02379  -0.01667
  32        4PX        -0.06106   0.00375   0.06239   0.06499  -0.02413
  33        4PY         0.00684  -0.06959   0.01994   0.02593   0.05731
  34        4PZ        -0.00673  -0.02172  -0.12663  -0.14931   0.03146
  35        5PX        -0.01645   0.11759   0.01125   0.01292  -0.06416
  36        5PY         0.03253   0.01445   0.03245   0.02128  -0.04159
  37        5PZ         0.01029   0.04573  -0.10342  -0.11593  -0.01351
  38        6D 0       -0.00001   0.00064   0.00840   0.00941   0.00068
  39        6D+1       -0.00063  -0.00273   0.00246   0.00289   0.00334
  40        6D-1       -0.00295  -0.00692   0.02492   0.02236   0.00625
  41        6D+2       -0.00457   0.00060   0.00093  -0.00042  -0.00055
  42        6D-2       -0.00331  -0.02112  -0.00665  -0.00679   0.02386
  43 4   N  1S          0.00213  -0.06329   0.00963   0.00746   0.08035
  44        2S          0.00185  -0.13046   0.01582   0.01195   0.17029
  45        3S          0.04448  -0.15247   0.07561   0.05197   0.20395
  46        4PX        -0.01106  -0.24068  -0.05826  -0.06714   0.26575
  47        4PY         0.00204  -0.21221  -0.00981  -0.01513   0.23380
  48        4PZ        -0.03026  -0.10957   0.26323   0.26648   0.10037
  49        5PX         0.00890   0.15087   0.06328   0.06703  -0.16196
  50        5PY         0.00942   0.16371   0.01282   0.00721  -0.16952
  51        5PZ         0.01814   0.06618  -0.19379  -0.18845  -0.06387
  52        6D 0        0.00092  -0.00605  -0.00376  -0.00463   0.00779
  53        6D+1        0.00230   0.00588  -0.00106  -0.00197  -0.00792
  54        6D-1        0.00225   0.00444  -0.01360  -0.01429  -0.00432
  55        6D+2        0.00300  -0.00339  -0.00132  -0.00084  -0.00068
  56        6D-2        0.00162   0.00961   0.00451   0.00510  -0.01316
  57 5   C  1S         -0.00004  -0.01865   0.00552   0.00408   0.02535
  58        2S          0.00864   0.04378  -0.01658  -0.01376  -0.05854
  59        3S         -0.05780   0.05360   0.00048   0.01722  -0.10704
  60        4PX        -0.01647  -0.12344  -0.02104  -0.02243   0.13622
  61        4PY         0.13588  -0.03182   0.00582   0.00715   0.01857
  62        4PZ         0.03644  -0.01907   0.11427   0.10988   0.02617
  63        5PX        -0.01004  -0.04149   0.03533   0.04294   0.03786
  64        5PY         0.03911   0.01987  -0.01490  -0.00501  -0.06316
  65        5PZ         0.03672   0.01146   0.02960   0.01774   0.00297
  66        6D 0       -0.00418  -0.00342   0.00231   0.00239   0.00285
  67        6D+1        0.00328  -0.00041   0.01168   0.01207   0.00057
  68        6D-1        0.00987  -0.00842  -0.00661  -0.00668   0.00877
  69        6D+2       -0.00210   0.00256  -0.00752  -0.00764  -0.00016
  70        6D-2       -0.00120  -0.01344   0.00441   0.00401   0.01599
  71 6   H  1S         -0.09017   0.05234   0.09130   0.09151  -0.05524
  72        2S         -0.05620   0.01613   0.06101   0.06739  -0.02904
  73        3PX        -0.00099  -0.00144   0.00026   0.00010   0.00175
  74        3PY        -0.00012   0.00053   0.00326   0.00338  -0.00036
  75        3PZ         0.00376  -0.00200   0.00036   0.00026   0.00240
  76 7   C  1S         -0.00923   0.02358  -0.00610  -0.00633  -0.02349
  77        2S          0.02074  -0.05800   0.01558   0.01804   0.05841
  78        3S          0.06593  -0.09854   0.02577   0.01074   0.14229
  79        4PX        -0.03831   0.05508   0.01815   0.01679  -0.04279
  80        4PY        -0.11617   0.09386  -0.02510  -0.02095  -0.09442
  81        4PZ        -0.04630   0.03797  -0.07110  -0.07173  -0.03789
  82        5PX        -0.03118   0.02197  -0.00692  -0.00619  -0.01271
  83        5PY        -0.05328   0.08534  -0.02388  -0.01804  -0.10018
  84        5PZ        -0.03919   0.03654  -0.02057  -0.01190  -0.04788
  85        6D 0       -0.00125  -0.00205  -0.01022  -0.01089   0.00178
  86        6D+1       -0.00048  -0.00194  -0.00281  -0.00332   0.00114
  87        6D-1        0.00413   0.00001   0.00340   0.00397  -0.00063
  88        6D+2       -0.00381   0.00069   0.00223   0.00240  -0.00126
  89        6D-2        0.00356   0.00442  -0.00115  -0.00148  -0.00563
  90 8   O  1S          0.01196  -0.00878   0.00320   0.00191   0.01315
  91        2S          0.02488  -0.02033   0.00678   0.00425   0.02936
  92        3S          0.01320  -0.06071   0.02046   0.01622   0.07913
  93        4PX        -0.00114   0.03030  -0.11551  -0.12008  -0.03067
  94        4PY         0.11989   0.10383  -0.03601  -0.03404  -0.10294
  95        4PZ         0.02855   0.06536   0.20751   0.22972  -0.06914
  96        5PX        -0.00390   0.02544  -0.09696  -0.09919  -0.03392
  97        5PY         0.08777   0.08010  -0.03216  -0.02997  -0.07539
  98        5PZ         0.01965   0.05066   0.17208   0.19051  -0.05735
  99        6D 0        0.00094   0.00127  -0.00120  -0.00083  -0.00133
 100        6D+1       -0.00148   0.00084  -0.00032   0.00017  -0.00115
 101        6D-1       -0.00180  -0.00052  -0.00342  -0.00399   0.00033
 102        6D+2        0.00170   0.00352  -0.00092  -0.00087  -0.00297
 103        6D-2       -0.00150   0.00144   0.00169   0.00161  -0.00110
 104 9   C  1S         -0.00369  -0.00028   0.01982   0.02047   0.00006
 105        2S          0.00857   0.00213  -0.04512  -0.04629  -0.00316
 106        3S          0.03431   0.00973  -0.13431  -0.15433  -0.00163
 107        4PX        -0.01544   0.04019   0.07670   0.07741  -0.02599
 108        4PY        -0.22130   0.00609  -0.04217  -0.04287   0.00195
 109        4PZ         0.00273   0.00564  -0.10129  -0.09789   0.00192
 110        5PX        -0.01795   0.01381   0.03646   0.03898  -0.01158
 111        5PY        -0.07387  -0.04121  -0.02061  -0.02523   0.07130
 112        5PZ        -0.00245   0.02720  -0.08827  -0.08854  -0.01976
 113        6D 0       -0.00582  -0.00141  -0.00178  -0.00185   0.00196
 114        6D+1        0.00762   0.00069   0.00363   0.00359  -0.00025
 115        6D-1        0.01074  -0.00276  -0.00298  -0.00292   0.00238
 116        6D+2       -0.00008   0.00356  -0.00109  -0.00085  -0.00322
 117        6D-2        0.00396  -0.00068   0.00198   0.00190   0.00035
 118 10  C  1S          0.01916  -0.00083  -0.00089  -0.00055  -0.00001
 119        2S         -0.04402   0.00048   0.00296   0.00139   0.00089
 120        3S         -0.07177   0.05049   0.00355   0.01569  -0.06248
 121        4PX         0.00812  -0.01516   0.01022   0.00987   0.00602
 122        4PY         0.16460  -0.00555  -0.01313  -0.01143   0.00287
 123        4PZ        -0.06735  -0.00103   0.03788   0.03429   0.00044
 124        5PX         0.00667  -0.01147   0.02092   0.01750   0.00192
 125        5PY         0.08749  -0.01378  -0.01448  -0.01349   0.01592
 126        5PZ        -0.04993   0.00695   0.03661   0.03335  -0.01128
 127        6D 0       -0.00607   0.00024  -0.00283  -0.00286  -0.00023
 128        6D+1        0.00342   0.00105   0.00181   0.00187  -0.00024
 129        6D-1        0.00547  -0.00100  -0.00017  -0.00011   0.00065
 130        6D+2       -0.00145   0.00067  -0.00180  -0.00154  -0.00041
 131        6D-2        0.00266  -0.00125  -0.00019  -0.00037   0.00083
 132 11  C  1S         -0.00702  -0.00789  -0.00005  -0.00056   0.00658
 133        2S          0.01615   0.01832   0.00103   0.00136  -0.01730
 134        3S          0.02890   0.00574   0.02311   0.02971   0.00772
 135        4PX        -0.01952  -0.04123  -0.02763  -0.02900   0.02897
 136        4PY         0.08451   0.00692   0.00470   0.00481  -0.00937
 137        4PZ        -0.00674  -0.01514   0.00124  -0.00082   0.00769
 138        5PX        -0.01238  -0.01577  -0.03574  -0.03889   0.00255
 139        5PY         0.03834   0.01067   0.00717   0.00716  -0.01626
 140        5PZ        -0.00561  -0.01412  -0.00585  -0.00980   0.00846
 141        6D 0       -0.00218   0.00003   0.00165   0.00163  -0.00010
 142        6D+1        0.00404   0.00119   0.00340   0.00335  -0.00133
 143        6D-1        0.00617  -0.00143  -0.00126  -0.00125   0.00118
 144        6D+2        0.00275   0.00027  -0.00141  -0.00128   0.00027
 145        6D-2        0.00626  -0.00087   0.00179   0.00168   0.00014
 146 12  C  1S         -0.02471   0.00034  -0.00121  -0.00143   0.00088
 147        2S          0.05736  -0.00303   0.00366   0.00187  -0.00436
 148        3S          0.07160   0.00584   0.00133   0.02245   0.04026
 149        4PX         0.03094  -0.05214   0.00965   0.00673   0.03491
 150        4PY         0.18838  -0.00699   0.01976   0.01994   0.00272
 151        4PZ         0.04962  -0.02259   0.02637   0.02338   0.01452
 152        5PX         0.01853  -0.04372   0.01718   0.00618   0.02308
 153        5PY         0.09381  -0.01538   0.01848   0.02111   0.02089
 154        5PZ         0.02870  -0.04376   0.03160   0.02427   0.03209
 155        6D 0       -0.00127  -0.00018  -0.00182  -0.00185   0.00002
 156        6D+1        0.00618   0.00239   0.00082   0.00117  -0.00141
 157        6D-1        0.00598  -0.00147  -0.00222  -0.00221   0.00107
 158        6D+2        0.00128   0.00173   0.00033   0.00072  -0.00056
 159        6D-2        0.00352   0.00008   0.00227   0.00208  -0.00048
 160 13  N  1S         -0.00213  -0.06330  -0.00962   0.00732  -0.08036
 161        2S         -0.00185  -0.13049  -0.01581   0.01166  -0.17030
 162        3S         -0.04447  -0.15251  -0.07555   0.05157  -0.20403
 163        4PX        -0.01112   0.24078  -0.05816   0.06738   0.26568
 164        4PY        -0.00203  -0.21234   0.00958  -0.01524  -0.23385
 165        4PZ        -0.03023   0.10924   0.26342  -0.26620   0.10040
 166        5PX         0.00892  -0.15091   0.06326  -0.06711  -0.16186
 167        5PY        -0.00943   0.16379  -0.01263   0.00730   0.16956
 168        5PZ         0.01810  -0.06594  -0.19393   0.18828  -0.06389
 169        6D 0       -0.00092  -0.00606   0.00373  -0.00461  -0.00780
 170        6D+1       -0.00230   0.00586   0.00106  -0.00196   0.00791
 171        6D-1        0.00225  -0.00442  -0.01362   0.01429  -0.00433
 172        6D+2       -0.00300  -0.00339   0.00131  -0.00082   0.00068
 173        6D-2        0.00162  -0.00962   0.00451  -0.00510  -0.01317
 174 14  C  1S         -0.00844  -0.03916  -0.00728   0.00393  -0.03501
 175        2S          0.02359   0.10151   0.01920  -0.01086   0.09063
 176        3S          0.00959  -0.11853   0.00852   0.02352   0.01655
 177        4PX        -0.06108  -0.00373   0.06241  -0.06483  -0.02399
 178        4PY        -0.00687  -0.06961  -0.01978   0.02571  -0.05738
 179        4PZ        -0.00675   0.02165  -0.12676   0.14938   0.03113
 180        5PX        -0.01642  -0.11766   0.01100  -0.01311  -0.06419
 181        5PY        -0.03255   0.01450  -0.03231   0.02110   0.04153
 182        5PZ         0.01024  -0.04564  -0.10359   0.11581  -0.01366
 183        6D 0        0.00001   0.00066  -0.00836   0.00936  -0.00069
 184        6D+1        0.00063  -0.00271  -0.00248   0.00290  -0.00332
 185        6D-1       -0.00296   0.00691   0.02495  -0.02235   0.00627
 186        6D+2        0.00457   0.00061  -0.00091  -0.00045   0.00056
 187        6D-2       -0.00332   0.02113  -0.00663   0.00681   0.02386
 188 15  O  1S         -0.01196  -0.00879  -0.00321   0.00188  -0.01315
 189        2S         -0.02487  -0.02034  -0.00680   0.00416  -0.02936
 190        3S         -0.01320  -0.06074  -0.02053   0.01603  -0.07916
 191        4PX        -0.00108  -0.03034  -0.11547   0.11977  -0.03092
 192        4PY        -0.11992   0.10389   0.03581  -0.03364   0.10305
 193        4PZ         0.02838  -0.06525   0.20777  -0.22983  -0.06859
 194        5PX        -0.00386  -0.02548  -0.09693   0.09894  -0.03413
 195        5PY        -0.08779   0.08015   0.03199  -0.02964   0.07550
 196        5PZ         0.01952  -0.05058   0.17229  -0.19060  -0.05690
 197        6D 0       -0.00094   0.00127   0.00120  -0.00082   0.00133
 198        6D+1        0.00148   0.00084   0.00033   0.00017   0.00114
 199        6D-1       -0.00180   0.00051  -0.00342   0.00400   0.00032
 200        6D+2       -0.00170   0.00352   0.00092  -0.00086   0.00297
 201        6D-2       -0.00151  -0.00144   0.00170  -0.00161  -0.00110
 202 16  C  1S          0.00923   0.02359   0.00610  -0.00629   0.02350
 203        2S         -0.02076  -0.05801  -0.01555   0.01794  -0.05843
 204        3S         -0.06592  -0.09855  -0.02579   0.01051  -0.14231
 205        4PX        -0.03838  -0.05511   0.01814  -0.01679  -0.04278
 206        4PY         0.11623   0.09393   0.02518  -0.02081   0.09449
 207        4PZ        -0.04613  -0.03784  -0.07112   0.07162  -0.03788
 208        5PX        -0.03122  -0.02201  -0.00695   0.00618  -0.01276
 209        5PY         0.05333   0.08540   0.02391  -0.01785   0.10026
 210        5PZ        -0.03911  -0.03643  -0.02055   0.01179  -0.04778
 211        6D 0        0.00125  -0.00205   0.01022  -0.01089  -0.00176
 212        6D+1        0.00048  -0.00195   0.00283  -0.00333  -0.00114
 213        6D-1        0.00412  -0.00000   0.00339  -0.00396  -0.00062
 214        6D+2        0.00381   0.00068  -0.00223   0.00240   0.00126
 215        6D-2        0.00356  -0.00441  -0.00115   0.00147  -0.00563
 216 17  C  1S          0.00004  -0.01865  -0.00553   0.00404  -0.02536
 217        2S         -0.00862   0.04379   0.01660  -0.01365   0.05856
 218        3S          0.05777   0.05358  -0.00050   0.01740   0.10701
 219        4PX        -0.01648   0.12347  -0.02099   0.02259   0.13619
 220        4PY        -0.13594  -0.03185  -0.00593   0.00722  -0.01861
 221        4PZ         0.03632   0.01898   0.11434  -0.10977   0.02625
 222        5PX        -0.01004   0.04151   0.03538  -0.04285   0.03794
 223        5PY        -0.03917   0.01987   0.01486  -0.00492   0.06314
 224        5PZ         0.03668  -0.01148   0.02959  -0.01769   0.00304
 225        6D 0        0.00420  -0.00340  -0.00231   0.00239  -0.00284
 226        6D+1       -0.00328  -0.00041  -0.01169   0.01206  -0.00057
 227        6D-1        0.00986   0.00841  -0.00662   0.00670   0.00876
 228        6D+2        0.00211   0.00257   0.00750  -0.00762   0.00018
 229        6D-2       -0.00119   0.01345   0.00442  -0.00399   0.01600
 230 18  H  1S          0.09018   0.05234  -0.09137   0.09157   0.05508
 231        2S          0.05621   0.01612  -0.06108   0.06740   0.02891
 232        3PX        -0.00099   0.00144   0.00026  -0.00010   0.00175
 233        3PY         0.00011   0.00053  -0.00326   0.00338   0.00035
 234        3PZ         0.00376   0.00200   0.00036  -0.00025   0.00240
 235 19  C  1S          0.00369  -0.00029  -0.01983   0.02045  -0.00009
 236        2S         -0.00858   0.00214   0.04513  -0.04625   0.00324
 237        3S         -0.03427   0.00978   0.13442  -0.15428   0.00190
 238        4PX        -0.01540  -0.04019   0.07667  -0.07735  -0.02586
 239        4PY         0.22133   0.00611   0.04230  -0.04296  -0.00188
 240        4PZ         0.00298  -0.00563  -0.10136   0.09783   0.00177
 241        5PX        -0.01794  -0.01383   0.03643  -0.03893  -0.01154
 242        5PY         0.07390  -0.04116   0.02076  -0.02544  -0.07121
 243        5PZ        -0.00237  -0.02728  -0.08832   0.08844  -0.01998
 244        6D 0        0.00585  -0.00140   0.00178  -0.00185  -0.00195
 245        6D+1       -0.00761   0.00068  -0.00363   0.00359   0.00024
 246        6D-1        0.01073   0.00276  -0.00299   0.00293   0.00237
 247        6D+2        0.00009   0.00357   0.00108  -0.00084   0.00322
 248        6D-2        0.00398   0.00068   0.00198  -0.00190   0.00035
 249 20  C  1S          0.00702  -0.00790   0.00005  -0.00057  -0.00657
 250        2S         -0.01615   0.01832  -0.00103   0.00139   0.01729
 251        3S         -0.02892   0.00572  -0.02310   0.02969  -0.00779
 252        4PX        -0.01954   0.04125  -0.02765   0.02904   0.02893
 253        4PY        -0.08452   0.00689  -0.00469   0.00481   0.00935
 254        4PZ        -0.00681   0.01512   0.00126   0.00082   0.00768
 255        5PX        -0.01240   0.01577  -0.03577   0.03889   0.00248
 256        5PY        -0.03834   0.01065  -0.00715   0.00716   0.01623
 257        5PZ        -0.00564   0.01413  -0.00583   0.00980   0.00845
 258        6D 0        0.00220   0.00003  -0.00164   0.00163   0.00009
 259        6D+1       -0.00403   0.00119  -0.00340   0.00335   0.00133
 260        6D-1        0.00616   0.00143  -0.00126   0.00125   0.00117
 261        6D+2       -0.00275   0.00027   0.00141  -0.00128  -0.00027
 262        6D-2        0.00627   0.00087   0.00179  -0.00169   0.00015
 263 21  C  1S          0.02472   0.00035   0.00121  -0.00143  -0.00088
 264        2S         -0.05738  -0.00304  -0.00366   0.00187   0.00435
 265        3S         -0.07161   0.00584  -0.00135   0.02241  -0.04032
 266        4PX         0.03095   0.05215   0.00966  -0.00666   0.03491
 267        4PY        -0.18848  -0.00702  -0.01981   0.01996  -0.00278
 268        4PZ         0.04939   0.02256   0.02634  -0.02329   0.01453
 269        5PX         0.01854   0.04374   0.01718  -0.00613   0.02309
 270        5PY        -0.09386  -0.01544  -0.01854   0.02110  -0.02096
 271        5PZ         0.02858   0.04372   0.03156  -0.02415   0.03206
 272        6D 0        0.00129  -0.00018   0.00181  -0.00185  -0.00002
 273        6D+1       -0.00618   0.00238  -0.00082   0.00116   0.00141
 274        6D-1        0.00598   0.00146  -0.00223   0.00221   0.00107
 275        6D+2       -0.00128   0.00173  -0.00033   0.00073   0.00056
 276        6D-2        0.00353  -0.00008   0.00227  -0.00208  -0.00048
 277 22  C  1S         -0.01916  -0.00083   0.00089  -0.00055   0.00001
 278        2S          0.04402   0.00047  -0.00296   0.00137  -0.00090
 279        3S          0.07175   0.05053  -0.00351   0.01585   0.06243
 280        4PX         0.00807   0.01517   0.01028  -0.00989   0.00604
 281        4PY        -0.16453  -0.00554   0.01310  -0.01139  -0.00285
 282        4PZ        -0.06753   0.00103   0.03792  -0.03428   0.00049
 283        5PX         0.00662   0.01148   0.02102  -0.01749   0.00194
 284        5PY        -0.08743  -0.01377   0.01445  -0.01346  -0.01587
 285        5PZ        -0.05002  -0.00695   0.03668  -0.03336  -0.01123
 286        6D 0        0.00608   0.00024   0.00283  -0.00286   0.00023
 287        6D+1       -0.00341   0.00105  -0.00180   0.00187   0.00024
 288        6D-1        0.00545   0.00100  -0.00018   0.00012   0.00064
 289        6D+2        0.00146   0.00068   0.00180  -0.00153   0.00041
 290        6D-2        0.00266   0.00125  -0.00019   0.00037   0.00083
 291 23  C  1S          0.00334   0.00698  -0.01046   0.00044   0.00136
 292        2S         -0.00791  -0.01562   0.01223  -0.00329  -0.00317
 293        3S         -0.00463  -0.03936   0.14023   0.03073  -0.00141
 294        4PX        -0.05196  -0.01077   0.02185  -0.00917   0.01606
 295        4PY         0.00502   0.03332  -0.06025   0.00211   0.00853
 296        4PZ         0.01065   0.01624  -0.03967  -0.00820   0.01549
 297        5PX        -0.02799  -0.00591   0.03169   0.01151   0.01697
 298        5PY         0.00199   0.02558  -0.09789  -0.00579   0.01054
 299        5PZ         0.00508   0.00421  -0.04747  -0.00218   0.01427
 300        6D 0       -0.00033  -0.00181   0.00119  -0.00011   0.00079
 301        6D+1       -0.00060   0.00162  -0.00078   0.00017   0.00121
 302        6D-1       -0.00240   0.00014   0.00227   0.00054   0.00094
 303        6D+2        0.00072   0.00005  -0.00056   0.00012  -0.00061
 304        6D-2       -0.00218  -0.00003  -0.00071   0.00120   0.00288
 305 24  H  1S         -0.01696  -0.01566   0.00496  -0.00444  -0.00156
 306        2S         -0.00671  -0.00440   0.03734  -0.00423  -0.00292
 307        3PX        -0.00105   0.00066   0.00016   0.00178   0.00020
 308        3PY        -0.00070   0.00090  -0.00074  -0.00041  -0.00012
 309        3PZ        -0.00060  -0.00115   0.00026   0.00068   0.00012
 310 25  H  1S         -0.03422   0.01862   0.02457   0.00397   0.01917
 311        2S         -0.00695   0.01769  -0.00810  -0.01783   0.01160
 312        3PX         0.00026  -0.00052  -0.00081  -0.00072  -0.00017
 313        3PY         0.00054   0.00024   0.00126   0.00076  -0.00061
 314        3PZ         0.00143  -0.00054  -0.00158  -0.00097  -0.00003
 315 26  H  1S          0.03347   0.01564   0.01775  -0.00353  -0.02338
 316        2S          0.00482   0.02475  -0.00145   0.00633  -0.00264
 317        3PX         0.00095   0.00034   0.00135  -0.00100  -0.00077
 318        3PY        -0.00046  -0.00016   0.00131  -0.00007  -0.00016
 319        3PZ         0.00059  -0.00003  -0.00040   0.00005   0.00023
 320 27  H  1S         -0.03850   0.05207   0.05597   0.05848  -0.04699
 321        2S         -0.01553   0.04932   0.04141   0.04504  -0.06093
 322        3PX         0.00262  -0.00121  -0.00065  -0.00073   0.00098
 323        3PY        -0.00209   0.00163  -0.00265  -0.00268  -0.00198
 324        3PZ        -0.00259   0.00190  -0.00146  -0.00169  -0.00179
 325 28  H  1S         -0.03062  -0.00190  -0.09433  -0.09795   0.00042
 326        2S         -0.01693   0.00541  -0.06942  -0.07409  -0.00681
 327        3PX        -0.00131   0.00161  -0.00019  -0.00048  -0.00146
 328        3PY        -0.00257   0.00228   0.00022   0.00042  -0.00244
 329        3PZ         0.00106   0.00042   0.00194   0.00188  -0.00036
 330 29  H  1S         -0.02547  -0.00843  -0.02681  -0.02530   0.00513
 331        2S         -0.01293  -0.01008  -0.02606  -0.02651   0.01060
 332        3PX         0.00096  -0.00019   0.00106   0.00111  -0.00002
 333        3PY         0.00412  -0.00018  -0.00078  -0.00075   0.00001
 334        3PZ        -0.00187  -0.00053  -0.00005   0.00000   0.00065
 335 30  H  1S          0.10360  -0.01100   0.01590   0.01522   0.00532
 336        2S          0.06548  -0.00836  -0.00413  -0.00616   0.00773
 337        3PX        -0.00209  -0.00036   0.00066   0.00076   0.00037
 338        3PY        -0.00068   0.00039  -0.00026  -0.00031  -0.00031
 339        3PZ        -0.00359   0.00036   0.00094   0.00094  -0.00029
 340 31  H  1S          0.03195   0.01436  -0.00613  -0.00439  -0.00618
 341        2S          0.01860  -0.00287   0.03203   0.02369   0.00676
 342        3PX         0.00207   0.00041  -0.00260  -0.00293  -0.00023
 343        3PY         0.00387   0.00020  -0.00048  -0.00030  -0.00057
 344        3PZ        -0.00013  -0.00005   0.00289   0.00277   0.00008
 345 32  H  1S         -0.03194  -0.01078  -0.02900  -0.02814   0.01213
 346        2S         -0.02440  -0.01252  -0.02516  -0.02609   0.01432
 347        3PX         0.00088  -0.00090  -0.00012  -0.00011   0.00076
 348        3PY         0.00257  -0.00011  -0.00023  -0.00021   0.00013
 349        3PZ        -0.00127  -0.00060  -0.00085  -0.00082   0.00054
 350 33  H  1S         -0.06949  -0.00082   0.00928   0.00830  -0.00078
 351        2S         -0.05109   0.00793   0.01456   0.01349  -0.01073
 352        3PX        -0.00057  -0.00105  -0.00108  -0.00104   0.00089
 353        3PY         0.00034   0.00014   0.00035   0.00036  -0.00017
 354        3PZ         0.00240  -0.00023   0.00053   0.00056   0.00019
 355 34  H  1S          0.07571  -0.01097   0.00332   0.00244   0.00068
 356        2S          0.04722  -0.01116   0.01711   0.01782   0.00747
 357        3PX        -0.00175  -0.00103  -0.00115  -0.00121   0.00100
 358        3PY        -0.00042   0.00075   0.00088   0.00084  -0.00047
 359        3PZ        -0.00178   0.00002   0.00065   0.00064   0.00010
 360 35  H  1S         -0.05805  -0.02155  -0.02622  -0.02638   0.01627
 361        2S         -0.04230  -0.01762  -0.02302  -0.02388   0.01424
 362        3PX         0.00252  -0.00056   0.00096   0.00106   0.00064
 363        3PY         0.00380  -0.00019   0.00010   0.00012  -0.00003
 364        3PZ        -0.00159  -0.00093  -0.00025  -0.00008   0.00096
 365 36  H  1S          0.01785   0.04631  -0.00375  -0.00032  -0.03088
 366        2S          0.00630  -0.03290   0.02904   0.00670  -0.00058
 367        3PX         0.00114   0.00113  -0.00095  -0.00149  -0.00223
 368        3PY         0.00419  -0.00162   0.00185   0.00193   0.00171
 369        3PZ         0.00087  -0.00128   0.00173   0.00128   0.00092
 370 37  H  1S         -0.08649   0.00034   0.01165   0.00988  -0.00129
 371        2S         -0.05958   0.00157   0.01169   0.01060  -0.00421
 372        3PX        -0.00079  -0.00116  -0.00018   0.00003   0.00108
 373        3PY         0.00132   0.00023   0.00071   0.00073  -0.00015
 374        3PZ         0.00405   0.00001   0.00073   0.00075  -0.00003
 375 38  H  1S          0.03060  -0.00189   0.09439  -0.09790  -0.00024
 376        2S          0.01691   0.00542   0.06947  -0.07404   0.00695
 377        3PX        -0.00131  -0.00161  -0.00018   0.00047  -0.00147
 378        3PY         0.00257   0.00228  -0.00022   0.00042   0.00244
 379        3PZ         0.00106  -0.00042   0.00194  -0.00188  -0.00036
 380 39  H  1S          0.03854   0.05208  -0.05604   0.05854   0.04688
 381        2S          0.01555   0.04932  -0.04147   0.04511   0.06084
 382        3PX         0.00262   0.00121  -0.00065   0.00073   0.00098
 383        3PY         0.00209   0.00163   0.00265  -0.00268   0.00199
 384        3PZ        -0.00259  -0.00190  -0.00145   0.00168  -0.00179
 385 40  H  1S          0.06948  -0.00082  -0.00930   0.00830   0.00077
 386        2S          0.05109   0.00793  -0.01457   0.01351   0.01071
 387        3PX        -0.00057   0.00105  -0.00108   0.00104   0.00089
 388        3PY        -0.00034   0.00014  -0.00035   0.00036   0.00017
 389        3PZ         0.00240   0.00023   0.00053  -0.00056   0.00019
 390 41  H  1S         -0.07573  -0.01097  -0.00331   0.00243  -0.00069
 391        2S         -0.04723  -0.01116  -0.01712   0.01780  -0.00749
 392        3PX        -0.00176   0.00103  -0.00115   0.00121   0.00099
 393        3PY         0.00042   0.00075  -0.00088   0.00084   0.00047
 394        3PZ        -0.00178  -0.00002   0.00065  -0.00064   0.00010
 395 42  H  1S          0.03196  -0.01078   0.02902  -0.02814  -0.01209
 396        2S          0.02441  -0.01252   0.02517  -0.02610  -0.01428
 397        3PX         0.00088   0.00090  -0.00012   0.00011   0.00076
 398        3PY        -0.00257  -0.00011   0.00023  -0.00021  -0.00013
 399        3PZ        -0.00128   0.00060  -0.00085   0.00082   0.00054
 400 43  H  1S          0.08647   0.00033  -0.01166   0.00987   0.00127
 401        2S          0.05957   0.00157  -0.01170   0.01060   0.00419
 402        3PX        -0.00079   0.00116  -0.00018  -0.00003   0.00108
 403        3PY        -0.00132   0.00023  -0.00071   0.00073   0.00015
 404        3PZ         0.00405  -0.00001   0.00073  -0.00075  -0.00003
 405 44  H  1S          0.05809  -0.02154   0.02625  -0.02640  -0.01621
 406        2S          0.04232  -0.01762   0.02304  -0.02390  -0.01418
 407        3PX         0.00252   0.00056   0.00096  -0.00106   0.00064
 408        3PY        -0.00380  -0.00019  -0.00010   0.00012   0.00003
 409        3PZ        -0.00160   0.00093  -0.00025   0.00009   0.00095
 410 45  H  1S         -0.01785   0.04631   0.00374  -0.00026   0.03087
 411        2S         -0.00631  -0.03290  -0.02903   0.00667   0.00060
 412        3PX         0.00114  -0.00113  -0.00095   0.00149  -0.00224
 413        3PY        -0.00419  -0.00163  -0.00185   0.00193  -0.00171
 414        3PZ         0.00087   0.00128   0.00172  -0.00127   0.00092
 415 46  H  1S         -0.10362  -0.01101  -0.01591   0.01520  -0.00534
 416        2S         -0.06549  -0.00837   0.00415  -0.00618  -0.00773
 417        3PX        -0.00209   0.00036   0.00066  -0.00076   0.00038
 418        3PY         0.00068   0.00039   0.00026  -0.00030   0.00031
 419        3PZ        -0.00359  -0.00036   0.00094  -0.00094  -0.00029
 420 47  H  1S         -0.03192   0.01437   0.00616  -0.00438   0.00618
 421        2S         -0.01860  -0.00293  -0.03215   0.02360  -0.00680
 422        3PX         0.00207  -0.00041  -0.00260   0.00292  -0.00024
 423        3PY        -0.00387   0.00020   0.00048  -0.00029   0.00057
 424        3PZ        -0.00014   0.00005   0.00290  -0.00277   0.00009
 425 48  H  1S          0.02549  -0.00843   0.02681  -0.02529  -0.00508
 426        2S          0.01294  -0.01008   0.02606  -0.02650  -0.01055
 427        3PX         0.00096   0.00019   0.00106  -0.00111  -0.00002
 428        3PY        -0.00412  -0.00018   0.00078  -0.00075  -0.00001
 429        3PZ        -0.00187   0.00053  -0.00005  -0.00000   0.00065
 430 49  H  1S         -0.03359   0.01565  -0.01766  -0.00352   0.02339
 431        2S         -0.00486   0.02477   0.00143   0.00620   0.00259
 432        3PX         0.00096  -0.00034   0.00134   0.00099  -0.00077
 433        3PY         0.00046  -0.00016  -0.00130  -0.00007   0.00016
 434        3PZ         0.00059   0.00003  -0.00040  -0.00005   0.00023
 435 50  H  1S          0.01698  -0.01567  -0.00508  -0.00444   0.00158
 436        2S          0.00670  -0.00429  -0.03725  -0.00421   0.00295
 437        3PX        -0.00106  -0.00066   0.00017  -0.00178   0.00020
 438        3PY         0.00070   0.00090   0.00074  -0.00040   0.00012
 439        3PZ        -0.00061   0.00115   0.00026  -0.00068   0.00012
 440 51  H  1S          0.03428   0.01864  -0.02454   0.00396  -0.01919
 441        2S          0.00696   0.01774   0.00806  -0.01774  -0.01151
 442        3PX         0.00026   0.00052  -0.00082   0.00072  -0.00017
 443        3PY        -0.00054   0.00023  -0.00126   0.00076   0.00061
 444        3PZ         0.00143   0.00054  -0.00157   0.00097  -0.00003
                          82        83        84        85        86
                           V         V         V         V         V
     Eigenvalues --     0.03195   0.03389   0.05715   0.06477   0.07965
   1 1   C  1S          0.00233  -0.05882  -0.04528  -0.01864  -0.05874
   2        2S         -0.00279   0.13379   0.07774   0.03497   0.10445
   3        3S         -0.03310   0.64708   0.71638   0.32004   0.94856
   4        4PX        -0.02213  -0.03902   0.01968   0.01829   0.02703
   5        4PY        -0.00052  -0.10207   0.01454  -0.01878   0.03105
   6        4PZ         0.02302   0.08560  -0.04599  -0.00177  -0.05368
[...]
 -0.00754009,-0.01842419,0.00231132,-0.00298992,-0.00471508,-0.05423578
 ,0.07884442,0.00003809,-0.00002833,0.00004181,-0.00002900,0.00000837,-
 0.00004485,-0.00009579,-0.00004279,-0.00004560,0.00006084,0.00004087,0
 .00003224,-0.00001556,-0.00002410,-0.00000806,0.00000562,0.00000654,0.
 00000378,-0.00001149,-0.00001892,-0.00001436,0.00008298,0.00001227,0.0
 0004085,0.00000304,0.00000031,0.00000799,-0.00000540,0.00000024,-0.000
 00340,0.00000104,-0.00000039,-0.00000487,-0.00000591,-0.00000499,-0.00
 000632,-0.00036845,-0.00009426,0.00067240,-0.00025025,0.00007816,0.000
 14464,0.00014485,-0.00022736,-0.00022819,-0.00000270,0.00055584,0.0003
 0437,-0.00104032,0.00444337,-0.00225417,0.00092262,-0.00030036,-0.0011
 9178,0.01260470,-0.00799816,-0.01801395,0.00095116,-0.00127068,0.00063
 060,-0.00043304,-0.00141111,0.00073630,0.11795152,-0.06886207,-0.20414
 449,0.00004272,-0.00002932,-0.00006876,-0.00001368,0.00000578,0.000006
 28,0.00001732,-0.00001747,-0.00001071,-0.00001233,0.00002495,0.0000017
 3,0.00000607,-0.00000134,0.00000168,0.00000363,0.00000293,0.00000693,0
 .00000270,0.00000240,-0.00000196,-0.00000080,-0.00000043,0.00000210,0.
 00000084,0.00000105,0.00000544,0.00000276,0.00000165,-0.00000203,-0.00
 000057,0.00000204,0.00000243,-0.00000004,-0.00000185,0.00000122,0.0000
 0451,0.00000151,-0.00000198,-0.00000221,-0.00000260,0.00000527,-0.0000
 0002,0.00000086,0.00000324,0.00002010,-0.00004592,-0.00003202,0.000005
 13,-0.00001725,0.00032073,-0.00013899,0.00006032,0.00047556,0.00001815
 ,0.00001147,-0.00007870,-0.00084217,0.00060483,0.00004823,-0.00033953,
 -0.00000833,0.00016987,0.00003842,0.00065083,0.00051470,-0.00001821,0.
 00008329,-0.00000606,0.00593157,-0.00200311,-0.00795843,-0.00699305,0.
 00440751,0.00933472,-0.12824246,0.07139047,0.22053362,0.00068869,-0.00
 046328,-0.00013982,0.00761060,-0.00699639,0.00470357,0.00081999,-0.000
 36206,-0.00026635,-0.00007812,0.00027909,-0.00005348,-0.00006433,0.000
 00319,0.00007150,0.00002668,0.00003007,0.00000348,-0.00037699,-0.00018
 132,-0.00008385,-0.00160235,-0.00127565,0.00048448,-0.00003194,-0.0000
 1173,0.00003713,0.00002280,0.00000362,-0.00001086,0.00000770,-0.000000
 54,-0.00002052,0.00001709,-0.00000406,-0.00001443,0.00047262,-0.000305
 87,0.00004097,-0.00173610,-0.00148087,0.00129980,0.00041135,0.00072678
 ,-0.00018440,0.00026531,-0.00014656,0.00000361,0.00006163,-0.00000422,
 -0.00026102,-0.00001187,0.00001556,0.00000074,0.00005341,-0.00001689,0
 .00010276,0.00003595,0.00000659,-0.00005779,0.00000218,0.00001437,-0.0
 0001491,0.00005266,-0.00000634,0.00004911,-0.21007522,0.13025601,-0.06
 132941,0.00007549,-0.00014632,-0.00005279,0.00010040,0.00014058,-0.000
 12866,-0.00010365,0.00014400,-0.00006585,0.00003270,0.00000224,0.00001
 569,0.00004828,0.00003346,0.00001138,0.00000588,0.00000677,-0.00001233
 ,-0.00001088,0.00000434,0.00000961,-0.00000250,0.00000557,0.00001073,0
 .00000941,0.00000762,-0.00000615,-0.00000472,0.00000042,0.00000252,-0.
 00001126,-0.00000049,0.00000097,0.00000578,0.00000991,-0.00001006,-0.0
 0000100,-0.00000446,0.00000835,-0.00000227,-0.00000264,0.00000354,-0.0
 0003041,0.00003936,-0.00002719,0.00001187,-0.00000128,0.00002014,-0.00
 001123,0.00000988,-0.00000899,0.00000390,-0.00000158,0.00000272,0.0000
 1707,-0.00000679,0.00000836,0.00000247,0.00001267,-0.00000162,-0.00000
 194,-0.00000309,0.00000129,-0.00000274,-0.00000419,0.00000185,0.000075
 99,0.00000389,0.00001662,-0.00006165,-0.00007672,-0.00006327,-0.000030
 17,0.00004727,-0.00001034,0.22208662,0.00008526,0.00071686,-0.00154392
 ,0.01344712,-0.01208603,0.00606014,0.00318397,-0.00159663,0.00101811,-
 0.00044029,0.00066160,-0.00016585,0.00002424,0.00010846,0.00013572,0.0
 0001339,0.00007290,-0.00002745,-0.00088129,-0.00034812,-0.00060793,-0.
 00033722,0.00122430,-0.00074734,-0.00007669,-0.00000241,0.00005716,0.0
 0005347,-0.00000084,-0.00001816,0.00001335,-0.00000225,-0.00002973,0.0
 0004921,-0.00000310,-0.00002684,0.00053591,-0.00019214,0.00071479,-0.0
 0343032,-0.00180549,0.00221958,0.00012108,0.00057462,-0.00040119,0.000
 23590,-0.00012165,-0.00012667,0.00002757,0.00001870,-0.00064903,0.0000
 2167,-0.00000177,0.00004491,0.00020977,0.00003518,0.00027637,0.0000199
 3,-0.00006658,-0.00011979,0.00001409,0.00003424,-0.00000494,-0.0001366
 3,-0.00003422,-0.00006843,0.12714612,-0.14337737,0.04497808,-0.0001957
 6,-0.00005354,-0.00019613,-0.00014464,0.00058357,0.00037524,-0.0001440
 6,0.00004666,0.00003199,0.00009222,0.00004523,0.00001003,-0.00001294,-
 0.00000885,0.00005073,0.00000888,0.00001478,-0.00002498,-0.00003145,0.
 00001833,0.00001745,-0.00000356,0.00000347,0.00001457,0.00001360,0.000
 01420,-0.00001347,-0.00000699,-0.00000155,0.00000493,-0.00003134,0.000
 00608,-0.00000085,0.00000149,0.00002160,-0.00002202,0.00000149,-0.0000
 0593,-0.00000068,0.00000157,-0.00000129,0.00000782,-0.00002769,0.00002
 427,-0.00001027,0.00003094,-0.00001286,0.00001807,0.00000324,-0.000004
 58,0.00001170,-0.00001008,0.00000931,0.00000306,0.00005153,-0.00001951
 ,-0.00000008,0.00000028,-0.00000239,0.00001134,0.00001628,-0.00001765,
 -0.00001629,0.00000246,0.00002467,0.00001945,0.00002856,0.00000353,0.0
 0002124,-0.00002363,0.00003334,0.00006326,0.00005798,0.00000110,-0.000
 00662,-0.13709841,0.15227973,-0.00156023,0.00037491,0.00140309,-0.0186
 2132,0.01473761,-0.00905685,-0.00104597,0.00003202,0.00018039,0.000036
 63,-0.00008014,0.00009651,-0.00000292,-0.00013982,-0.00006816,-0.00000
 377,-0.00003965,0.00001840,0.00034673,0.00004496,0.00035701,-0.0002028
 0,-0.00067230,-0.00015640,-0.00000005,0.00002009,0.00000646,-0.0000082
 2,-0.00000274,-0.00000126,0.00000323,-0.00000721,-0.00000548,-0.000012
 48,-0.00000525,-0.00001106,-0.00105371,0.00093857,-0.00037839,0.003698
 32,0.00158597,-0.00305465,-0.00051798,0.00026321,-0.00008093,0.0002178
 0,-0.00009020,0.00005641,-0.00006096,0.00000230,0.00064348,-0.00000614
 ,0.00002278,-0.00000706,-0.00004840,0.00002917,-0.00029788,-0.00007255
 ,-0.00001878,0.00017772,-0.00003591,-0.00003037,0.00004269,-0.00019573
 ,-0.00003985,-0.00008887,-0.05897315,0.04436436,-0.06671979,0.00019483
 ,-0.00017538,0.00036989,0.00071106,-0.00031357,-0.00045625,-0.00006599
 ,-0.00003182,-0.00011580,-0.00002203,-0.00001265,-0.00000928,-0.000043
 08,-0.00005442,-0.00006065,-0.00000238,-0.00000884,0.00000168,0.000023
 82,-0.00000459,0.00000540,-0.00001598,0.00002056,-0.00000436,0.0000006
 5,0.00000074,0.00000129,-0.00000182,-0.00000526,-0.00000370,0.00000659
 ,-0.00000048,0.00000461,0.00000417,-0.00000041,0.00000323,-0.00000657,
 0.00000138,0.00000815,-0.00000038,-0.00000655,-0.00000243,-0.00004895,
 0.00004935,-0.00002622,-0.00006468,0.00000292,-0.00002379,0.00003141,-
 0.00001621,0.00001172,0.00001418,-0.00000042,-0.00000770,-0.00005692,0
 .00002918,-0.00000658,0.00000465,-0.00002386,0.00000040,-0.00001079,0.
 00002465,0.00001920,0.00001510,0.00000326,-0.00002453,-0.00002274,0.00
 000477,-0.00002272,0.00006495,0.00015090,0.00006038,0.00005799,-0.0000
 3775,0.00004954,0.06322217,-0.05252881,0.07210284,-0.00024351,-0.00172
 252,0.00144604,-0.00422373,0.00506083,0.00597674,0.00062389,0.00101044
 ,0.00095573,-0.00001169,-0.00018845,-0.00021734,-0.00010540,-0.0000431
 3,0.00000344,0.00000492,-0.00000891,0.00001967,-0.00007045,-0.00008862
 ,0.00013068,-0.00021739,0.00004009,-0.00048295,-0.00002677,-0.00000732
 ,0.00005256,0.00003451,0.00001230,-0.00001688,0.00001315,0.00000102,-0
 .00003335,0.00002077,-0.00000643,-0.00001796,0.00007772,-0.00012538,-0
 .00008396,0.00006667,0.00023719,-0.00075932,-0.00020325,0.00000189,0.0
 0004921,0.00003659,0.00004554,0.00000141,0.00001939,-0.00006610,0.0000
 0964,0.00000933,0.00000059,0.00003412,0.00012079,0.00009356,-0.0001242
 2,-0.00004802,-0.00006841,0.00006433,0.00001710,-0.00000995,0.00005473
 ,-0.00032031,-0.00005470,-0.00004638,-0.06745179,0.04331978,0.05828370
 ,0.00032625,0.00039603,0.00065494,0.00026983,-0.00024767,-0.00028800,0
 .00007525,0.00019558,0.00019491,0.00002095,-0.00000402,-0.00003047,-0.
 00006398,-0.00001690,-0.00005908,0.00000520,-0.00000145,-0.00001367,0.
 00000237,0.00000532,0.00001054,-0.00000933,0.00001845,0.00001315,0.000
 01375,0.00000802,-0.00000438,-0.00000667,-0.00000632,-0.00000009,-0.00
 001041,0.00000152,0.00000327,0.00000561,0.00001132,-0.00000993,-0.0000
 0352,-0.00000385,0.00000953,-0.00000067,-0.00000647,0.00000324,-0.0000
 0841,-0.00000988,0.00000641,-0.00000899,-0.00002011,-0.00002220,0.0000
 2945,-0.00001835,0.00002698,-0.00000356,0.00000534,-0.00000693,-0.0000
 0735,0.00000912,-0.00000759,-0.00000737,-0.00003104,0.00000568,-0.0000
 0074,0.00000574,-0.00000377,0.00001262,0.00000573,-0.00000283,-0.00006
 293,-0.00001571,-0.00003405,0.00005319,0.00038398,0.00007188,0.0000712
 5,-0.00004996,0.00001699,-0.00476866,0.01155321,0.01900806,0.06748665,
 -0.00110670,-0.00225434,0.00297282,-0.00552574,0.01061067,0.01606495,-
 0.00003144,0.00168108,0.00016318,0.00033355,-0.00007573,-0.00023130,-0
 .00008214,0.00001478,0.00001445,0.00002318,0.00001272,0.00001806,-0.00
 004145,0.00002674,-0.00009622,0.00014701,-0.00003930,0.00017051,-0.000
 00280,-0.00000845,0.00003557,0.00001945,0.00000484,-0.00000403,0.00000
 668,0.00000068,-0.00002433,0.00000468,-0.00000478,-0.00000867,-0.00015
 506,0.00012013,-0.00035686,-0.00036643,0.00151454,0.00044759,-0.000093
 22,-0.00004806,-0.00019448,0.00007717,0.00002771,0.00001608,0.00004069
 ,-0.00003862,0.00004160,-0.00002438,0.00000899,-0.00000532,0.00001305,
 0.00001186,-0.00010232,-0.00001142,0.00000170,0.00003168,0.00001357,-0
 .00001399,0.00002406,0.00016860,-0.00023857,0.00007319,0.04436804,-0.1
 3912534,-0.12596970,-0.00039748,0.00087235,0.00097813,-0.00022544,-0.0
 0005321,0.00003465,0.00014665,-0.00005385,0.00017504,0.00000521,-0.000
 01563,0.00001048,0.00002712,0.00002542,0.00001533,0.00000327,-0.000000
 23,-0.00000579,-0.00000029,-0.00000295,0.00000363,-0.00000036,0.000018
 25,0.00001269,0.00000995,0.00000361,0.00000011,-0.00000461,0.00000004,
 0.00000015,-0.00000028,-0.00000303,0.00000139,0.00000610,0.00000437,-0
 .00000482,-0.00000290,-0.00000356,0.00001192,-0.00000273,-0.00000337,0
 .00000129,-0.00000990,-0.00000144,-0.00000534,-0.00001794,-0.00001498,
 -0.00001092,0.00000194,-0.00000623,0.00000512,-0.00000068,-0.00000316,
 -0.00000884,-0.00001458,0.00001085,0.00000373,-0.00000832,-0.00000903,
 -0.00000630,-0.00001542,0.00001204,0.00000477,0.00000117,-0.00000190,-
 0.00001326,-0.00012585,0.00002228,-0.00007003,0.00036971,0.00003026,-0
 .00002300,-0.00002684,-0.00001054,0.00000595,0.00199819,-0.00920508,-0
 .01387559,-0.04631455,0.14500752,0.00137347,0.00430222,-0.00336838,0.0
 0517839,-0.01310692,-0.01697363,-0.00116678,-0.00152579,0.00012689,0.0
 0006865,0.00059313,0.00041354,0.00010702,0.00003044,-0.00012919,-0.000
 00532,0.00001938,-0.00000861,0.00005264,-0.00004470,-0.00008257,0.0003
 2463,0.00017405,0.00012796,0.00006217,-0.00002130,-0.00001535,-0.00004
 500,0.00001034,-0.00000782,-0.00000433,0.00001710,0.00000769,-0.000005
 39,0.00000051,0.00001795,-0.00044627,0.00065393,0.00059725,0.00132610,
 -0.00243981,-0.00006544,-0.00040813,0.00041510,0.00006992,0.00008934,-
 0.00000848,-0.00009360,-0.00003904,0.00005093,-0.00023154,0.00000052,-
 0.00000046,0.00003382,0.00016443,0.00005777,-0.00005068,-0.00005241,-0
 .00009299,0.00005884,-0.00002424,0.00000213,0.00005052,-0.00029197,-0.
 00009810,-0.00023685,0.05819076,-0.12273076,-0.21145591,0.00065514,-0.
 00097450,-0.00105599,-0.00000426,-0.00000322,0.00015253,-0.00005274,0.
 00019564,0.00037059,0.00000332,0.00002121,0.00000252,0.00002785,0.0000
 0151,0.00002618,0.00000973,0.00000809,0.00000629,-0.00001407,0.0000036
 6,-0.00000822,0.00001639,-0.00004130,0.00000957,-0.00000124,-0.0000016
 7,-0.00000097,0.00000677,0.00000710,0.00000801,-0.00000275,-0.00000032
 ,-0.00000407,-0.00000331,-0.00000334,0.00000132,0.00000712,-0.00000606
 ,-0.00001193,0.00000390,0.00001249,0.00000592,-0.00001907,0.00001335,0
 .00002533,-0.00002603,-0.00000412,-0.00002575,0.00003788,-0.00002844,0
 .00003052,0.00000520,0.00001435,-0.00000498,-0.00000352,0.00000922,-0.
 00000932,0.00000275,-0.00003714,0.00001371,0.00001248,0.00000618,0.000
 00154,0.00001453,0.00002379,0.00000034,-0.00007044,0.00001305,-0.00002
 361,0.00005233,0.00023629,0.00030249,0.00016745,-0.00008828,0.00004261
 ,-0.00288613,0.00632593,0.00821244,-0.06559765,0.13091252,0.22854036,0
 .00007820,0.00006500,-0.00093893,-0.00658942,-0.00396982,-0.00280918,0
 .00025137,0.00028227,0.00122430,-0.00056618,-0.00050092,0.00002642,0.0
 0015484,-0.00016371,-0.00015932,-0.00008400,-0.00005471,0.00000013,0.0
 0030361,0.00020460,0.00031006,-0.00025860,-0.00090709,0.00020387,0.000
 03242,0.00001581,-0.00006329,-0.00002447,-0.00000508,0.00001921,-0.000
 01431,0.00000082,0.00003939,-0.00001661,0.00001040,0.00002317,0.000038
 58,-0.00003748,-0.00001819,-0.00022255,0.00021268,-0.00024281,-0.00051
 096,0.00113709,-0.00077000,0.00020134,0.00003568,-0.00012302,-0.000030
 76,0.00002970,-0.00002912,-0.00000124,-0.00000277,0.00000555,0.0000226
 7,0.00001305,-0.00000913,0.00000276,-0.00000608,-0.00001384,0.00000282
 ,-0.00000014,0.00001350,0.00004029,-0.00000262,0.00001133,-0.21744593,
 -0.12378800,-0.06315177,0.00026962,0.00022555,-0.00000412,-0.00009648,
 -0.00008227,0.00000732,0.00010022,0.00014334,0.00071186,-0.00005715,-0
 .00001527,-0.00002394,-0.00002358,-0.00001555,-0.00003376,-0.00000959,
 -0.00000492,0.00001731,0.00000655,-0.00000373,-0.00001537,0.00001282,-
 0.00001561,-0.00002220,-0.00001763,-0.00001069,0.00000774,0.00000889,0
 .00000257,-0.00000076,0.00001220,0.00000157,-0.00000304,-0.00001141,-0
 .00001392,0.00001346,0.00000323,0.00000753,-0.00001706,0.00000211,0.00
 000634,-0.00000455,-0.00002968,0.00001562,0.00000234,-0.00001073,-0.00
 000477,0.00000342,-0.00000048,-0.00000345,0.00000328,-0.00000223,0.000
 00409,-0.00000170,0.00000694,-0.00000253,-0.00000145,-0.00000694,-0.00
 000407,-0.00000151,0.00000680,-0.00000156,-0.00000264,-0.00000366,0.00
 000209,0.00001125,-0.00007575,0.00001609,-0.00001528,0.00004869,-0.000
 00713,0.00002745,0.00000959,-0.00002394,-0.00000507,-0.01400449,-0.014
 03278,-0.00487775,0.00846767,0.00682401,0.00320913,0.23003061,0.001016
 33,0.00060890,-0.00113123,-0.01433313,-0.01168457,-0.00438437,0.001140
 57,-0.00134740,0.00407797,-0.00101102,-0.00030219,-0.00001235,0.000300
 51,-0.00016597,-0.00040818,-0.00019081,-0.00001267,-0.00008250,-0.0001
 2933,-0.00012423,-0.00019736,0.00037465,0.00055899,-0.00026610,0.00003
 864,0.00006701,-0.00008388,-0.00000787,-0.00003204,0.00003614,-0.00000
 926,-0.00001627,0.00005823,-0.00001906,0.00001666,0.00001766,0.0004688
 2,0.00043146,0.00012928,-0.00298677,-0.00152424,-0.00128388,0.00068569
 ,0.00114695,-0.00020117,0.00090240,-0.00033229,0.00018629,-0.00005301,
 0.00002271,0.00008301,0.00001482,0.00006399,0.00001951,-0.00001365,-0.
 00003865,0.00003246,0.00000964,0.00002939,0.00000677,-0.00004989,0.000
 01259,-0.00003487,-0.00009109,0.00000644,0.00001040,-0.12205331,-0.133
 79741,-0.04687408,0.00024850,-0.00005282,0.00000295,0.00008230,0.00005
 006,0.00008909,-0.00014079,0.00058398,0.00031625,-0.00001122,0.0000371
 9,0.00000078,-0.00001843,-0.00004596,0.00000514,-0.00002167,0.00000209
 ,0.00001747,0.00000215,-0.00000005,-0.00000785,0.00000555,-0.00000980,
 -0.00004146,-0.00002777,-0.00000939,0.00000635,0.00000809,0.00000454,-
 0.00000503,0.00000739,0.00000478,-0.00000463,-0.00001415,-0.00001666,0
 .00001404,-0.00000290,0.00002080,-0.00002277,-0.00000002,0.00000219,-0
 .00001113,-0.00011059,0.00011788,-0.00011353,-0.00003458,-0.00000252,0
 .00004476,-0.00000663,0.00001465,-0.00001821,0.00002769,-0.00000125,0.
 00000892,-0.00001026,0.00000611,0.00001217,0.00000805,0.00002387,-0.00
 000660,-0.00000092,0.00001086,0.00001735,-0.00000408,-0.00000676,0.000
 00290,0.00022544,0.00000815,0.00004853,-0.00011914,-0.00009169,-0.0000
 9682,-0.00003443,0.00008212,0.00001396,0.01480028,0.01239511,0.0055192
 7,-0.01328640,-0.00880805,-0.00287373,0.13442468,0.14209340,0.00039177
 ,0.00057756,0.00193308,0.02090994,0.01444834,0.00544476,-0.00056160,0.
 00241577,-0.00496284,0.00118326,0.00078883,0.00044641,-0.00020953,0.00
 030180,0.00048962,0.00021199,0.00004726,0.00006578,0.00009843,0.000096
 63,-0.00003548,0.00012602,-0.00033428,0.00049768,-0.00004514,-0.000041
 50,0.00005174,0.00000756,0.00001053,-0.00002207,0.00000552,0.00000756,
 -0.00003322,0.00000745,-0.00001096,-0.00001310,-0.00015054,-0.00025645
 ,-0.00001324,0.00096841,0.00048019,0.00114650,-0.00012581,0.00011450,-
 0.00062981,-0.00058291,0.00011514,-0.00018730,0.00004266,-0.00000507,-
 0.00005278,-0.00000337,-0.00003571,-0.00002868,-0.00002703,-0.00001900
 ,0.00013504,0.00002428,0.00001154,-0.00004314,0.00000807,0.00001916,-0
 .00004944,-0.00000805,0.00005739,-0.00004943,-0.06583758,-0.04921598,-
 0.06941255,-0.00028733,-0.00003510,0.00015243,0.00000741,-0.00008894,-
 0.00007040,-0.00012814,-0.00037381,-0.00045607,0.00001565,-0.00002301,
 0.00002438,0.00006965,0.00004491,0.00004576,0.00001131,-0.00000460,-0.
 00001067,0.00000499,-0.00000175,0.00000589,-0.00001803,0.00001437,0.00
 002730,0.00001627,0.00000414,-0.00000361,-0.00000591,-0.00000526,-0.00
 000152,-0.00000074,-0.00000366,0.00000323,0.00000936,0.00000971,-0.000
 00639,0.00000062,-0.00001159,0.00001682,0.00000038,-0.00000397,0.00000
 507,0.00006120,-0.00004577,0.00004315,0.00004374,-0.00000325,0.0000193
 1,-0.00000846,0.00000756,-0.00000510,-0.00001319,-0.00000192,0.0000071
 0,0.00001467,-0.00001522,-0.00000525,0.00000929,0.00001410,0.00000691,
 0.00000436,-0.00001608,-0.00001122,0.00000047,0.00001038,0.00000382,0.
 00008725,-0.00000944,0.00007994,-0.00012710,-0.00006541,-0.00003080,-0
 .00000139,0.00001397,-0.00002021,-0.00442289,-0.00513417,-0.00314218,-
 0.01924455,-0.01123352,-0.00539225,0.06746732,0.04738411,0.07403704\\-
 0.00112029,-0.00069804,0.00175099,0.00000679,-0.00022429,0.00000118,-0
 .00168098,0.03099046,-0.00445254,-0.00347923,-0.00175565,-0.00839930,-
 0.01630973,-0.00942069,-0.00374494,0.00394593,0.00055401,0.00132760,-0
 .00115987,-0.00606773,-0.00039293,0.01865480,-0.01314370,0.01072470,-0
 .00009255,0.00012475,0.00317474,-0.00034956,0.00041264,-0.00103574,0.0
 0061949,0.00020650,-0.00197447,-0.00293617,-0.00138784,-0.00314802,0.0
 0347963,-0.00175102,0.00839343,0.00168381,0.03098991,0.00444200,-0.018
 65808,-0.01314305,-0.01071109,0.00115271,-0.00606822,0.00039789,0.0163
 1211,-0.00941813,0.00372895,-0.00394760,0.00055049,-0.00132025,0.00009
 700,0.00011651,-0.00317708,-0.00062050,0.00021296,0.00198110,0.0029356
 1,-0.00137865,0.00314986,0.00034647,0.00041318,0.00103527,0.00112055,-
 0.00069987,-0.00175018,-0.00008794,0.00030590,0.00020579,0.00043656,-0
 .00028950,-0.00018777,-0.00006751,-0.00039235,-0.00056431,0.00091480,-
 0.00097576,0.00073119,0.00075386,0.00042563,0.00065230,0.00076345,0.00
 020192,-0.00020494,-0.00041252,0.00054637,0.00028753,0.00011017,-0.000
 05639,0.00130368,0.00077512,0.00030772,-0.00002540,0.00029432,0.000179
 07,0.00045173,-0.00050255,0.00019675,-0.00001901,0.00101378,0.00143119
 ,0.00082691,0.00019722,-0.00260403,0.00323191,0.00154714,0.00101757,0.
 00085705,-0.00075434,0.00042477,-0.00065180,-0.00091022,-0.00097439,-0
 .00073307,-0.00029409,0.00018106,-0.00045461,0.00050168,0.00019484,0.0
 0001841,-0.00077452,0.00030590,0.00002369,-0.00154907,0.00101789,-0.00
 085889,-0.00101532,0.00143003,-0.00082473,-0.00019560,-0.00260955,-0.0
 0322944,0.00041213,0.00054646,-0.00028803,-0.00010975,-0.00005647,-0.0
 0130342,-0.00076281,0.00020117,0.00020517,0.00006344,-0.00038919,0.000
 56149,0.00008687,0.00030868,-0.00020150,-0.00043467,-0.00028983,0.0001
 8890\\\@

 Writing a WFNX file to "28_lig_b.wfx"


 WHAT THE SLIME CONTAINS, THE GLOWING REVEALS
 BY THE FLAME'S BRIGHT HUE WHEN YOU IGNITE IT.
   --  LEONARD THURNEYSSER, 1531-1596
 DESCRIBING HIS FLAME PHOTOLYSIS ANALYTIC METHOD
 Job cpu time:       0 days  5 hours 57 minutes 53.3 seconds.
 Elapsed time:       0 days  0 hours 44 minutes 57.0 seconds.
 File lengths (MBytes):  RWF=   1052 Int=      0 D2E=      0 Chk=     15 Scr=      1
 Normal termination of Gaussian 16 at Thu Nov  3 08:49:25 2022.
