 Entering Gaussian System, Link 0=g16
 Initial command:
 /software/gaussian/G16-A.03/avx/g16/l1.exe "/scratch/lcmd/1361360.slurm/Gau-201228.inp" -scrdir="/scratch/lcmd/1361360.slurm/"
 Entering Link 1 = /software/gaussian/G16-A.03/avx/g16/l1.exe PID=    201230.
  
 Copyright (c) 1988,1990,1992,1993,1995,1998,2003,2009,2016,
            Gaussian, Inc.  All Rights Reserved.
  
 This is part of the Gaussian(R) 16 program.  It is based on
 the Gaussian(R) 09 system (copyright 2009, Gaussian, Inc.),
 the Gaussian(R) 03 system (copyright 2003, Gaussian, Inc.),
 the Gaussian(R) 98 system (copyright 1998, Gaussian, Inc.),
 the Gaussian(R) 94 system (copyright 1995, Gaussian, Inc.),
 the Gaussian 92(TM) system (copyright 1992, Gaussian, Inc.),
 the Gaussian 90(TM) system (copyright 1990, Gaussian, Inc.),
 the Gaussian 88(TM) system (copyright 1988, Gaussian, Inc.),
 the Gaussian 86(TM) system (copyright 1986, Carnegie Mellon
 University), and the Gaussian 82(TM) system (copyright 1983,
 Carnegie Mellon University). Gaussian is a federally registered
 trademark of Gaussian, Inc.
  
 This software contains proprietary and confidential information,
 including trade secrets, belonging to Gaussian, Inc.
  
 This software is provided under written license and may be
 used, copied, transmitted, or stored only in accord with that
 written license.
  
 The following legend is applicable only to US Government
 contracts under FAR:
  
                    RESTRICTED RIGHTS LEGEND
  
 Use, reproduction and disclosure by the US Government is
 subject to restrictions as set forth in subparagraphs (a)
 and (c) of the Commercial Computer Software - Restricted
 Rights clause in FAR 52.227-19.
  
 Gaussian, Inc.
 340 Quinnipiac St., Bldg. 40, Wallingford CT 06492
  
  
 ---------------------------------------------------------------
 Warning -- This program may not be used in any manner that
 competes with the business of Gaussian, Inc. or will provide
 assistance to any competitor of Gaussian, Inc.  The licensee
 of this program is prohibited from giving any competitor of
 Gaussian, Inc. access to this program.  By using this program,
 the user acknowledges that Gaussian, Inc. is engaged in the
 business of creating and licensing software in the field of
 computational chemistry and represents and warrants to the
 licensee that it is not a competitor of Gaussian, Inc. and that
 it will not use this program in any manner prohibited above.
 ---------------------------------------------------------------
  

 Cite this work as:
 Gaussian 16, Revision A.03,
 M. J. Frisch, G. W. Trucks, H. B. Schlegel, G. E. Scuseria, 
 M. A. Robb, J. R. Cheeseman, G. Scalmani, V. Barone, 
 G. A. Petersson, H. Nakatsuji, X. Li, M. Caricato, A. V. Marenich, 
 J. Bloino, B. G. Janesko, R. Gomperts, B. Mennucci, H. P. Hratchian, 
 J. V. Ortiz, A. F. Izmaylov, J. L. Sonnenberg, D. Williams-Young, 
 F. Ding, F. Lipparini, F. Egidi, J. Goings, B. Peng, A. Petrone, 
 T. Henderson, D. Ranasinghe, V. G. Zakrzewski, J. Gao, N. Rega, 
 G. Zheng, W. Liang, M. Hada, M. Ehara, K. Toyota, R. Fukuda, 
 J. Hasegawa, M. Ishida, T. Nakajima, Y. Honda, O. Kitao, H. Nakai, 
 T. Vreven, K. Throssell, J. A. Montgomery, Jr., J. E. Peralta, 
 F. Ogliaro, M. J. Bearpark, J. J. Heyd, E. N. Brothers, K. N. Kudin, 
 V. N. Staroverov, T. A. Keith, R. Kobayashi, J. Normand, 
 K. Raghavachari, A. P. Rendell, J. C. Burant, S. S. Iyengar, 
 J. Tomasi, M. Cossi, J. M. Millam, M. Klene, C. Adamo, R. Cammi, 
 J. W. Ochterski, R. L. Martin, K. Morokuma, O. Farkas, 
 J. B. Foresman, and D. J. Fox, Gaussian, Inc., Wallingford CT, 2016.
 
 ******************************************
 Gaussian 16:  ES64L-G16RevA.03 25-Dec-2016
                 3-Nov-2022 
 ******************************************
 %nprocs=8
 Will use up to    8 processors via shared memory.
 %mem=32000MB
 %chk=30_lig_b.chk
 ----------------------------------------------------------------------
 #p pop=(regular,nbo,savenbos) freq=noraman def2svp empiricaldispersion
 =gd3bj output=wfx pbe1pbe
 ----------------------------------------------------------------------
 1/10=4,30=1,38=1/1,3;
 2/12=2,17=6,18=5,40=1/2;
 3/5=43,7=101,11=2,25=1,30=1,71=2,74=-13,124=41,140=1/1,2,3;
 4//1;
 5/5=2,38=5,98=1/2;
 8/6=4,10=90,11=11/1;
 11/6=1,8=1,9=11,15=111,16=1/1,2,10;
 10/6=1/2;
 6/28=1,40=1,73=1/1,7;
 7/8=1,10=1,25=1/1,2,3,16;
 1/10=4,30=1/3;
 99/6=200/99;
 Leave Link    1 at Thu Nov  3 08:04:22 2022, MaxMem=  4194304000 cpu:               0.4 elap:               0.1
 (Enter /software/gaussian/G16-A.03/avx/g16/l101.exe)
 --------
 30_lig_b
 --------
 Symbolic Z-matrix:
 Charge =  0 Multiplicity = 1
 C                    -4.77617  -1.24227   0.12227 
 C                    -3.32911  -0.89902   0.44967 
 C                    -2.7428    0.01694  -0.63262 
 H                    -2.74672  -0.5462   -1.57877 
 C                    -3.39413   1.40636  -0.76953 
 O                    -2.32356   2.33348  -0.50922 
 C                    -1.22315   1.6164   -0.28522 
 N                    -1.34636   0.3498   -0.34536 
 N                     1.34603   0.34931   0.34591 
 C                     1.22329   1.61596   0.28556 
 C                     0.00037   2.44514  -0.00052 
 C                     0.28728   3.32387  -1.23413 
 C                    -0.28582   3.32636   1.23144 
 O                     2.32376   2.33268   0.51033 
 C                     3.39356   1.40525   0.77276 
 C                     2.74221   0.01604   0.634 
 H                     2.74534  -0.54807   1.57956 
 C                     3.32919  -0.89891  -0.4488 
 C                     3.16569  -0.33405  -1.85299 
 C                     4.7756   -1.24367  -0.12009 
 C                    -3.16344  -0.33614   1.85441 
 H                    -5.16776  -1.9821    0.83581 
 H                    -4.86471  -1.67391  -0.88672 
 H                    -5.43569  -0.3591    0.17645 
 H                    -2.73745  -1.82747   0.37278 
 H                    -4.18878   1.59523  -0.03332 
 H                    -3.78319   1.61356  -1.77574 
 H                     0.49974   2.70201  -2.11623 
 H                     1.1569    3.96427  -1.03806 
 H                    -0.58547   3.95407  -1.44923 
 H                    -0.49878   2.7063    2.11469 
 H                    -1.15494   3.96705   1.03421 
 H                     0.58742   3.95625   1.44539 
 H                     3.78028   1.61203   1.77997 
 H                     4.18997   1.59421   0.0385 
 H                     2.7368   -1.82706  -0.37382 
 H                     3.67392   0.63811  -1.97681 
 H                     2.10354  -0.20636  -2.11188 
 H                     3.59769  -1.02236  -2.59427 
 H                     5.4358   -0.36087  -0.17214 
 H                     5.16758  -1.98271  -0.83424 
 H                     4.86255  -1.67685   0.88836 
 H                    -3.67048   0.6364    1.98008 
 H                    -2.10086  -0.20997   2.11226 
 H                    -3.59537  -1.02496   2.59526 
 
 ITRead=  0  0  0  0  0  0  0  0  0  0  0  0  0  0  0  0  0  0  0  0
 ITRead=  0  0  0  0  0  0  0  0  0  0  0  0  0  0  0  0  0  0  0  0
 ITRead=  0  0  0  0  0
 MicOpt= -1 -1 -1 -1 -1 -1 -1 -1 -1 -1 -1 -1 -1 -1 -1 -1 -1 -1 -1 -1
 MicOpt= -1 -1 -1 -1 -1 -1 -1 -1 -1 -1 -1 -1 -1 -1 -1 -1 -1 -1 -1 -1
 MicOpt= -1 -1 -1 -1 -1
 NAtoms=     45 NQM=       45 NQMF=       0 NMMI=      0 NMMIF=      0
                NMic=       0 NMicF=      0.
                    Isotopes and Nuclear Properties:
 (Nuclear quadrupole moments (NQMom) in fm**2, nuclear magnetic moments (NMagM)
  in nuclear magnetons)

  Atom         1           2           3           4           5           6           7           8           9          10
 IAtWgt=          12          12          12           1          12          16          12          14          14          12
 AtmWgt=  12.0000000  12.0000000  12.0000000   1.0078250  12.0000000  15.9949146  12.0000000  14.0030740  14.0030740  12.0000000
 NucSpn=           0           0           0           1           0           0           0           2           2           0
 AtZEff=  -0.0000000  -0.0000000  -0.0000000  -0.0000000  -0.0000000  -0.0000000  -0.0000000  -0.0000000  -0.0000000  -0.0000000
 NQMom=    0.0000000   0.0000000   0.0000000   0.0000000   0.0000000   0.0000000   0.0000000   2.0440000   2.0440000   0.0000000
 NMagM=    0.0000000   0.0000000   0.0000000   2.7928460   0.0000000   0.0000000   0.0000000   0.4037610   0.4037610   0.0000000
 AtZNuc=   6.0000000   6.0000000   6.0000000   1.0000000   6.0000000   8.0000000   6.0000000   7.0000000   7.0000000   6.0000000

  Atom        11          12          13          14          15          16          17          18          19          20
 IAtWgt=          12          12          12          16          12          12           1          12          12          12
 AtmWgt=  12.0000000  12.0000000  12.0000000  15.9949146  12.0000000  12.0000000   1.0078250  12.0000000  12.0000000  12.0000000
 NucSpn=           0           0           0           0           0           0           1           0           0           0
 AtZEff=  -0.0000000  -0.0000000  -0.0000000  -0.0000000  -0.0000000  -0.0000000  -0.0000000  -0.0000000  -0.0000000  -0.0000000
 NQMom=    0.0000000   0.0000000   0.0000000   0.0000000   0.0000000   0.0000000   0.0000000   0.0000000   0.0000000   0.0000000
 NMagM=    0.0000000   0.0000000   0.0000000   0.0000000   0.0000000   0.0000000   2.7928460   0.0000000   0.0000000   0.0000000
 AtZNuc=   6.0000000   6.0000000   6.0000000   8.0000000   6.0000000   6.0000000   1.0000000   6.0000000   6.0000000   6.0000000

  Atom        21          22          23          24          25          26          27          28          29          30
 IAtWgt=          12           1           1           1           1           1           1           1           1           1
 AtmWgt=  12.0000000   1.0078250   1.0078250   1.0078250   1.0078250   1.0078250   1.0078250   1.0078250   1.0078250   1.0078250
 NucSpn=           0           1           1           1           1           1           1           1           1           1
 AtZEff=  -0.0000000  -0.0000000  -0.0000000  -0.0000000  -0.0000000  -0.0000000  -0.0000000  -0.0000000  -0.0000000  -0.0000000
 NQMom=    0.0000000   0.0000000   0.0000000   0.0000000   0.0000000   0.0000000   0.0000000   0.0000000   0.0000000   0.0000000
 NMagM=    0.0000000   2.7928460   2.7928460   2.7928460   2.7928460   2.7928460   2.7928460   2.7928460   2.7928460   2.7928460
 AtZNuc=   6.0000000   1.0000000   1.0000000   1.0000000   1.0000000   1.0000000   1.0000000   1.0000000   1.0000000   1.0000000

  Atom        31          32          33          34          35          36          37          38          39          40
 IAtWgt=           1           1           1           1           1           1           1           1           1           1
 AtmWgt=   1.0078250   1.0078250   1.0078250   1.0078250   1.0078250   1.0078250   1.0078250   1.0078250   1.0078250   1.0078250
 NucSpn=           1           1           1           1           1           1           1           1           1           1
 AtZEff=  -0.0000000  -0.0000000  -0.0000000  -0.0000000  -0.0000000  -0.0000000  -0.0000000  -0.0000000  -0.0000000  -0.0000000
 NQMom=    0.0000000   0.0000000   0.0000000   0.0000000   0.0000000   0.0000000   0.0000000   0.0000000   0.0000000   0.0000000
 NMagM=    2.7928460   2.7928460   2.7928460   2.7928460   2.7928460   2.7928460   2.7928460   2.7928460   2.7928460   2.7928460
 AtZNuc=   1.0000000   1.0000000   1.0000000   1.0000000   1.0000000   1.0000000   1.0000000   1.0000000   1.0000000   1.0000000

  Atom        41          42          43          44          45
 IAtWgt=           1           1           1           1           1
 AtmWgt=   1.0078250   1.0078250   1.0078250   1.0078250   1.0078250
 NucSpn=           1           1           1           1           1
 AtZEff=  -0.0000000  -0.0000000  -0.0000000  -0.0000000  -0.0000000
 NQMom=    0.0000000   0.0000000   0.0000000   0.0000000   0.0000000
 NMagM=    2.7928460   2.7928460   2.7928460   2.7928460   2.7928460
 AtZNuc=   1.0000000   1.0000000   1.0000000   1.0000000   1.0000000
 Leave Link  101 at Thu Nov  3 08:04:22 2022, MaxMem=  4194304000 cpu:               1.0 elap:               0.1
 (Enter /software/gaussian/G16-A.03/avx/g16/l103.exe)

 GradGradGradGradGradGradGradGradGradGradGradGradGradGradGradGradGradGrad
 Berny optimization.
 Initialization pass.
 Trust Radius=3.00D-01 FncErr=1.00D-07 GrdErr=1.00D-07 EigMax=2.50D+02 EigMin=1.00D-04
 Number of steps in this run=      2 maximum allowed number of steps=      2.
 GradGradGradGradGradGradGradGradGradGradGradGradGradGradGradGradGradGrad

 Leave Link  103 at Thu Nov  3 08:04:22 2022, MaxMem=  4194304000 cpu:               0.3 elap:               0.1
 (Enter /software/gaussian/G16-A.03/avx/g16/l202.exe)
                          Input orientation:                          
 ---------------------------------------------------------------------
 Center     Atomic      Atomic             Coordinates (Angstroms)
 Number     Number       Type             X           Y           Z
 ---------------------------------------------------------------------
      1          6           0       -4.776170   -1.242270    0.122270
      2          6           0       -3.329110   -0.899020    0.449670
      3          6           0       -2.742800    0.016940   -0.632620
      4          1           0       -2.746720   -0.546200   -1.578770
      5          6           0       -3.394130    1.406360   -0.769530
      6          8           0       -2.323560    2.333480   -0.509220
      7          6           0       -1.223150    1.616400   -0.285220
      8          7           0       -1.346360    0.349800   -0.345360
      9          7           0        1.346030    0.349310    0.345910
     10          6           0        1.223290    1.615960    0.285560
     11          6           0        0.000370    2.445140   -0.000520
     12          6           0        0.287280    3.323870   -1.234130
     13          6           0       -0.285820    3.326360    1.231440
     14          8           0        2.323760    2.332680    0.510330
     15          6           0        3.393560    1.405250    0.772760
     16          6           0        2.742210    0.016040    0.634000
     17          1           0        2.745340   -0.548070    1.579560
     18          6           0        3.329190   -0.898910   -0.448800
     19          6           0        3.165690   -0.334050   -1.852990
     20          6           0        4.775600   -1.243670   -0.120090
     21          6           0       -3.163440   -0.336140    1.854410
     22          1           0       -5.167760   -1.982100    0.835810
     23          1           0       -4.864710   -1.673910   -0.886720
     24          1           0       -5.435690   -0.359100    0.176450
     25          1           0       -2.737450   -1.827470    0.372780
     26          1           0       -4.188780    1.595230   -0.033320
     27          1           0       -3.783190    1.613560   -1.775740
     28          1           0        0.499740    2.702010   -2.116230
     29          1           0        1.156900    3.964270   -1.038060
     30          1           0       -0.585470    3.954070   -1.449230
     31          1           0       -0.498780    2.706300    2.114690
     32          1           0       -1.154940    3.967050    1.034210
     33          1           0        0.587420    3.956250    1.445390
     34          1           0        3.780280    1.612030    1.779970
     35          1           0        4.189970    1.594210    0.038500
     36          1           0        2.736800   -1.827060   -0.373820
     37          1           0        3.673920    0.638110   -1.976810
     38          1           0        2.103540   -0.206360   -2.111880
     39          1           0        3.597690   -1.022360   -2.594270
     40          1           0        5.435800   -0.360870   -0.172140
     41          1           0        5.167580   -1.982710   -0.834240
     42          1           0        4.862550   -1.676850    0.888360
     43          1           0       -3.670480    0.636400    1.980080
     44          1           0       -2.100860   -0.209970    2.112260
     45          1           0       -3.595370   -1.024960    2.595260
 ---------------------------------------------------------------------
                    Distance matrix (angstroms):
                    1          2          3          4          5
     1  C    0.000000
     2  C    1.522824   0.000000
     3  C    2.508000   1.534306   0.000000
     4  H    2.738013   2.139680   1.101064   0.000000
     5  C    3.117785   2.608726   1.540605   2.210543   0.000000
     6  O    4.381788   3.518474   2.357403   3.100896   1.439942
     7  C    4.578427   3.361914   2.233449   2.944720   2.234240
     8  N    3.810113   2.474454   1.464021   2.070054   2.342990
     9  N    6.329650   4.840044   4.217407   4.610524   4.983039
    10  C    6.647531   5.203499   4.373761   4.889953   4.741067
    11  C    6.035512   4.740413   3.717618   4.357234   3.632227
    12  C    6.951833   5.809153   4.525371   4.929642   4.176778
    13  C    6.501222   5.265607   4.523686   5.380523   4.165558
    14  O    7.958635   6.511720   5.686740   6.193711   5.932148
    15  C    8.612606   7.113954   6.446504   6.858636   6.960704
    16  C    7.640108   6.142657   5.629357   5.944814   6.446515
    17  H    7.692771   6.188599   5.944128   6.335438   6.857923
    18  C    8.132704   6.718646   6.143422   6.190147   7.114785
    19  C    8.234055   6.914034   6.043406   5.922567   6.872711
    20  C    9.554844   8.132019   7.640560   7.694122   8.613299
    21  C    2.534221   1.522358   2.546944   3.464752   3.158257
    22  H    1.099923   2.168594   3.468844   3.708563   4.147836
    23  H    1.101006   2.178178   2.725077   2.497307   3.415319
    24  H    1.103581   2.191767   2.836839   3.216576   2.860017
    25  H    2.135789   1.103627   2.100644   2.334585   3.491956
    26  H    2.901834   2.682088   2.222840   3.008933   1.099612
    27  H    3.569904   3.386989   2.222235   2.403670   1.098525
    28  H    6.957259   5.849047   4.463717   4.623768   4.319089
    29  H    7.978455   6.781535   5.563583   5.989571   5.227512
    30  H    6.858099   5.889471   4.563104   4.994018   3.852452
    31  H    6.152805   4.876617   4.451516   5.410512   4.288545
    32  H    6.409521   5.361655   4.571979   5.452601   3.850271
    33  H    7.585734   6.316986   5.561174   6.366639   5.221164
    34  H    9.171032   7.656272   7.135508   7.651197   7.616719
    35  H    9.404483   7.932328   7.141532   7.437378   7.629336
    36  H    7.552007   6.191499   5.787342   5.758602   6.942614
    37  H    8.907636   7.569214   6.585362   6.541074   7.211454
    38  H    7.307185   6.046073   5.071990   4.891290   5.884483
    39  H    8.806218   7.567122   6.717889   6.442787   7.623248
    40  H   10.254164   8.803403   8.200261   8.304612   9.024835
    41  H   10.017052   8.661209   8.161701   8.077997   9.208304
    42  H    9.678878   8.240192   7.938744   8.078743   8.968141
    43  H    2.864159   2.194585   2.840866   3.862291   2.868721
    44  H    3.490414   2.178897   2.828063   3.762165   3.548209
    45  H    2.749035   2.165713   3.497376   4.286251   4.156155
                    6          7          8          9         10
     6  O    0.000000
     7  C    1.332397   0.000000
     8  N    2.217376   1.273999   0.000000
     9  N    4.258412   2.933348   2.779716   0.000000
    10  C    3.704950   2.512142   2.933313   1.274013   0.000000
    11  C    2.381574   1.504947   2.514567   2.514621   1.504963
    12  C    2.884935   2.469268   3.507675   3.530649   2.470330
    13  C    2.857987   2.470386   3.531424   3.508550   2.469326
    14  O    4.757843   3.704933   4.258380   2.217374   1.332383
    15  C    5.932162   4.741088   4.983072   2.342987   2.234241
    16  C    5.686783   4.373808   4.217457   1.464030   2.233444
    17  H    6.193551   4.889913   4.610151   2.070085   2.945182
    18  C    6.511957   5.203589   4.840531   2.474377   3.361350
    19  C    6.249264   5.052136   4.806162   2.934843   3.485520
    20  C    7.958988   6.647727   6.329952   3.810078   4.578312
    21  C    3.663198   3.486424   2.934499   4.804241   5.051276
    22  H    5.340675   5.455810   4.629905   6.935772   7.354885
    23  H    4.760160   4.944583   4.094784   6.647262   7.018634
    24  H    4.171988   4.675600   4.182995   6.820725   6.946566
    25  H    4.273492   3.819203   2.681671   4.627516   5.249026
    26  H    2.061684   2.976384   3.118945   5.685970   5.421496
    27  H    2.062251   2.962341   3.095354   5.692857   5.414223
    28  H    3.269452   2.738521   3.475192   3.509065   2.733427
    29  H    3.879787   3.426937   4.450903   3.875446   2.696468
    30  H    2.555560   2.688170   3.845549   4.466264   3.427516
    31  H    3.217720   2.733526   3.510460   3.476681   2.738628
    32  H    2.533061   2.696498   3.876126   4.451590   3.426964
    33  H    3.863637   3.427546   4.466853   3.846344   2.688214
    34  H    6.558791   5.412887   5.691458   3.094602   2.961668
    35  H    6.578191   5.422836   5.687430   3.119659   2.977029
    36  H    6.552532   5.248473   4.627281   2.681201   3.818361
    37  H    6.402958   5.272554   5.286583   3.301137   3.475643
    38  H    5.349628   4.210226   3.915574   2.631221   3.137421
    39  H    7.118307   5.961146   5.602147   3.949191   4.570769
    40  H    8.220755   6.947230   6.821492   4.183175   4.675745
    41  H    8.651723   7.355029   6.936211   4.629829   5.455438
    42  H    8.347224   7.018442   6.646799   4.094568   4.944712
    43  H    3.300135   3.475832   3.300204   5.283778   5.270666
    44  H    3.659357   3.139094   2.631066   3.913290   4.209611
    45  H    4.747043   4.571802   3.949083   5.600502   5.960592
                   11         12         13         14         15
    11  C    0.000000
    12  C    1.541518   0.000000
    13  C    1.541486   2.531301   0.000000
    14  O    2.381545   2.858820   2.883974   0.000000
    15  C    3.632227   4.166256   4.175989   1.439954   0.000000
    16  C    3.717638   4.523089   4.525938   2.357375   1.540589
    17  H    4.357846   5.380598   4.931564   3.101565   2.210560
    18  C    4.739691   5.263253   5.808994   3.517669   2.608736
    19  C    4.601608   4.695595   5.901291   3.661363   3.157792
    20  C    6.035266   6.499886   6.951962   4.381692   3.118332
    21  C    4.602823   5.902730   4.699223   6.248081   6.869982
    22  H    6.856345   7.886408   7.222853   8.651366   9.207297
    23  H    6.435909   7.186202   7.103206   8.347372   8.968507
    24  H    6.119300   6.950280   6.420030   8.219867   9.023534
    25  H    5.088242   6.186069   5.771460   6.552985   6.942604
    26  H    4.274623   4.946236   4.453036   6.576668   7.627433
    27  H    4.261251   4.448284   4.920204   6.560342   7.618660
    28  H    2.188968   1.099977   3.494826   3.219048   4.289760
    29  H    2.172972   1.097631   2.763874   2.534001   3.851013
    30  H    2.172289   1.097776   2.769441   3.864246   5.221724
    31  H    2.188942   3.494836   1.099980   3.268072   4.317849
    32  H    2.172928   2.763882   1.097612   3.879042   5.226856
    33  H    2.172265   2.769443   1.097763   2.554446   3.851552
    34  H    4.260509   4.921000   4.446682   2.062225   1.098536
    35  H    4.275319   4.454470   4.945316   2.061723   1.099597
    36  H    5.087150   5.768220   6.186342   4.272676   3.491963
    37  H    4.545993   4.385682   5.761866   3.298540   2.868317
    38  H    3.988937   4.065928   5.419127   3.656666   3.547194
    39  H    5.629548   5.630143   6.973455   4.745285   4.155942
    40  H    6.119399   6.419688   6.950010   4.172022   2.860552
    41  H    6.855728   7.220598   7.886243   5.340203   4.148237
    42  H    6.435970   7.102483   7.187178   4.760745   3.416231
    43  H    4.546367   5.763463   4.387741   6.400660   7.207594
    44  H    3.991067   5.421214   4.071344   5.348692   5.881483
    45  H    5.631076   6.975064   5.634458   7.117358   7.620536
                   16         17         18         19         20
    16  C    0.000000
    17  H    1.101051   0.000000
    18  C    1.534319   2.139676   0.000000
    19  C    2.546962   3.464809   1.522350   0.000000
    20  C    2.508026   2.737631   1.522830   2.534198   0.000000
    21  C    6.040706   5.918964   6.911999   7.335033   8.231076
    22  H    8.160938   8.076308   8.661506   8.910225  10.016458
    23  H    7.939380   8.078547   8.242111   8.198550   9.680310
    24  H    8.199276   8.302631   8.803718   8.837590  10.253821
    25  H    5.787352   5.757966   6.192038   6.483164   7.551799
    26  H    7.139873   7.434860   7.931786   7.818027   9.403563
    27  H    7.137210   7.651953   7.658931   7.217069   9.173757
    28  H    4.450491   5.409677   4.873678   4.048981   6.151093
    29  H    4.571380   5.453099   5.358786   4.814032   6.407831
    30  H    5.560700   6.366877   6.314811   5.711584   7.584470
    31  H    4.464746   4.626187   5.849989   6.197947   6.958131
    32  H    5.564030   5.991319   6.781173   6.745608   7.978428
    33  H    4.563631   4.996351   5.888789   5.994453   6.857897
    34  H    2.222166   2.403601   3.387583   4.166935   3.571542
    35  H    2.222892   3.008519   2.682173   2.888784   2.902012
    36  H    2.100654   2.334862   1.103635   2.144987   2.135750
    37  H    2.841018   3.862260   2.194558   1.103958   2.863949
    38  H    2.827935   3.762367   2.178917   1.100678   3.490436
    39  H    3.497406   4.286293   2.165727   1.099950   2.749185
    40  H    2.836785   3.215909   2.191765   2.824779   1.103589
    41  H    3.468883   3.708351   2.168609   2.786305   1.099927
    42  H    2.725145   2.496894   2.178160   3.492484   1.100989
    43  H    6.581745   6.536523   7.566506   7.897305   8.904024
    44  H    5.068694   4.887099   6.043104   6.593569   7.303261
    45  H    6.715292   6.439229   7.565165   8.122575   8.803073
                   21         22         23         24         25
    21  C    0.000000
    22  H    2.786401   0.000000
    23  H    3.492527   1.775931   0.000000
    24  H    2.824747   1.772194   1.784678   0.000000
    25  H    2.144938   2.478853   2.476925   3.078174   0.000000
    26  H    2.888778   3.809341   3.445642   2.327701   3.739806
    27  H    4.166942   4.654675   3.573164   3.230045   4.189319
    28  H    6.198002   7.923130   7.031194   7.060886   6.098423
    29  H    6.747240   8.880993   8.250561   7.976767   7.120441
    30  H    5.997155   7.839445   7.092424   6.691106   6.432491
    31  H    4.052727   6.739140   6.874303   6.125890   5.347987
    32  H    4.819154   7.178751   7.019458   6.146230   6.043036
    33  H    5.714968   8.292025   8.176990   7.517334   6.756972
    34  H    7.212223   9.688995   9.625201   9.559850   7.502743
    35  H    7.816420  10.049518   9.670774   9.822819   7.733614
    36  H    6.480793   7.998082   7.620333   8.321496   5.524928
    37  H    7.897905   9.641143   8.913021   9.413605   7.259843
    38  H    6.594648   8.044497   7.225734   7.880341   5.677739
    39  H    8.122471   9.461483   8.657509   9.471999   7.041703
    40  H    8.834843  10.774035  10.408420  10.877077   8.321651
    41  H    8.907633  10.469399  10.037179  10.774365   7.998156
    42  H    8.194344  10.035091   9.887897  10.406586   7.618957
    43  H    1.103955   3.226103   3.870692   2.712944   3.086197
    44  H    1.100673   3.765056   4.333113   3.858846   2.459135
    45  H    1.099952   2.546408   3.762518   3.111397   2.513855
                   26         27         28         29         30
    26  H    0.000000
    27  H    1.789097   0.000000
    28  H    5.248399   4.432172   0.000000
    29  H    5.932803   5.520371   1.785388   0.000000
    30  H    4.533516   3.976180   1.786120   1.790256   0.000000
    31  H    4.411862   5.207387   4.347154   3.776718   3.777032
    32  H    3.996165   4.510259   3.776713   3.104660   2.547928
    33  H    5.529293   5.913215   3.777028   2.547920   3.123220
    34  H    8.172773   8.357581   5.208683   4.511812   5.913768
    35  H    8.379058   8.176987   4.414508   3.996959   5.530561
    36  H    7.732507   7.504233   5.343492   6.039603   6.753921
    37  H    8.155690   7.523325   3.788739   4.275510   5.423683
    38  H    6.867272   6.170793   3.321266   4.409464   4.997905
    39  H    8.604613   7.880067   4.867931   5.765911   6.601121
    40  H    9.822329   9.563456   6.125799   6.145375   7.517005
    41  H   10.049109   9.692052   6.736381   7.175909   8.289822
    42  H    9.668639   9.626684   6.872851   7.018915   8.176338
    43  H    2.289491   3.882490   6.199777   6.594504   5.681935
    44  H    3.495951   4.612162   5.755248   6.161314   5.685055
    45  H    3.758585   5.109081   7.270376   7.789576   7.085770
                   31         32         33         34         35
    31  H    0.000000
    32  H    1.785350   0.000000
    33  H    1.786104   1.790252   0.000000
    34  H    4.429426   5.518938   3.975131   0.000000
    35  H    5.247064   5.932105   4.531770   1.789101   0.000000
    36  H    6.100247   7.120386   6.432421   4.189869   3.739893
    37  H    6.199130   6.592873   5.678731   3.882426   2.289522
    38  H    5.754959   6.158971   5.681559   4.611344   3.495622
    39  H    7.270370   7.787655   7.082876   5.109533   3.758818
    40  H    7.060904   7.976467   6.690345   3.231689   2.327831
    41  H    7.924054   8.880597   7.838739   4.656270   3.809429
    42  H    7.032763   8.251367   7.093577   3.575333   3.445934
    43  H    3.789761   4.279701   5.425588   7.517029   8.153147
    44  H    3.327356   4.416385   5.002895   6.165866   6.865136
    45  H    4.872588   5.771719   6.605330   7.875191   8.602825
                   36         37         38         39         40
    36  H    0.000000
    37  H    3.086233   0.000000
    38  H    2.459378   1.788146   0.000000
    39  H    2.513776   1.773197   1.769475   0.000000
    40  H    3.078147   2.712751   3.858811   3.111741   0.000000
    41  H    2.478892   3.225707   3.765119   2.546474   1.772197
    42  H    2.476787   3.870540   4.333119   3.762571   1.784679
    43  H    7.256908   8.342493   7.126969   8.746568   9.410151
    44  H    5.674375   7.126557   5.959895   7.435380   7.876706
    45  H    7.039544   8.747125   7.436723   8.869687   9.468978
                   41         42         43         44         45
    41  H    0.000000
    42  H    1.775935   0.000000
    43  H    9.638020   8.908175   0.000000
    44  H    8.040814   7.220717   1.788161   0.000000
    45  H    9.458755   8.653027   1.773191   1.769480   0.000000
 Stoichiometry    C15H26N2O2
 Framework group  C1[X(C15H26N2O2)]
 Deg. of freedom   129
 Full point group                 C1      NOp   1
 Largest Abelian subgroup         C1      NOp   1
 Largest concise Abelian subgroup C1      NOp   1
                         Standard orientation:                         
 ---------------------------------------------------------------------
 Center     Atomic      Atomic             Coordinates (Angstroms)
 Number     Number       Type             X           Y           Z
 ---------------------------------------------------------------------
      1          6           0        4.777177   -2.045370    0.076590
      2          6           0        3.344875   -1.702288   -0.310447
      3          6           0        2.714457   -0.785640    0.746163
      4          1           0        2.679309   -1.348191    1.692018
      5          6           0        3.359655    0.603849    0.908967
      6          8           0        2.300783    1.530833    0.604133
      7          6           0        1.210516    0.813642    0.335368
      8          7           0        1.331075   -0.452924    0.401326
      9          7           0       -1.330502   -0.453776   -0.400437
     10          6           0       -1.210292    0.812908   -0.335861
     11          6           0       -0.000174    1.642235   -0.000084
     12          6           0       -0.337692    2.521740    1.220093
     13          6           0        0.336645    2.522682   -1.219733
     14          8           0       -2.300515    1.529516   -0.606287
     15          6           0       -3.358624    0.601950   -0.912056
     16          6           0       -2.713624   -0.787190   -0.745679
     17          1           0       -2.677768   -1.351888   -1.690213
     18          6           0       -3.344825   -1.701451    0.312549
     19          6           0       -3.239370   -1.135722    1.721938
     20          6           0       -4.776459   -2.046379   -0.075343
     21          6           0        3.237331   -1.140277   -1.721175
     22          1           0        5.197835   -2.785654   -0.619727
     23          1           0        4.823991   -2.476385    1.088641
     24          1           0        5.438416   -1.162251    0.049118
     25          1           0        2.750499   -2.630675   -0.257458
     26          1           0        4.184012    0.792241    0.206052
     27          1           0        3.706880    0.811665    1.930243
     28          1           0       -0.586396    1.900434    2.093062
     29          1           0       -1.198449    3.162040    0.987914
     30          1           0        0.525472    3.152051    1.470627
     31          1           0        0.585833    1.902067   -2.093060
     32          1           0        1.196920    3.163472   -0.987211
     33          1           0       -0.526992    3.152461   -1.469920
     34          1           0       -3.703449    0.808113   -1.934492
     35          1           0       -4.184640    0.791387   -0.211397
     36          1           0       -2.749893   -2.629663    0.262649
     37          1           0       -3.752226   -0.163473    1.824081
     38          1           0       -2.188799   -1.007898    2.024351
     39          1           0       -3.701621   -1.823560    2.445190
     40          1           0       -5.438200   -1.163531   -0.051124
     41          1           0       -5.197607   -2.784965    0.622485
     42          1           0       -4.821750   -2.480184   -1.086253
     43          1           0        3.749174   -0.167829   -1.826422
     44          1           0        2.186301   -1.014241   -2.022724
     45          1           0        3.699424   -1.829569   -2.443147
 ---------------------------------------------------------------------
 Rotational constants (GHZ):           0.6063591           0.2182181           0.1865559
 Leave Link  202 at Thu Nov  3 08:04:22 2022, MaxMem=  4194304000 cpu:               0.1 elap:               0.1
 (Enter /software/gaussian/G16-A.03/avx/g16/l301.exe)
 Standard basis: def2SVP (5D, 7F)
 Ernie: Thresh=  0.10000D-02 Tol=  0.10000D-05 Strict=F.
 There are   415 symmetry adapted cartesian basis functions of A   symmetry.
 There are   396 symmetry adapted basis functions of A   symmetry.
   396 basis functions,   657 primitive gaussians,   415 cartesian basis functions
    73 alpha electrons       73 beta electrons
       nuclear repulsion energy      1578.1426173153 Hartrees.
 IExCor= 1009 DFT=T Ex+Corr=PBE1PBE ExCW=0 ScaHFX=  0.250000
 ScaDFX=  0.750000  0.750000  1.000000  1.000000 ScalE2=  1.000000  1.000000
 IRadAn=      5 IRanWt=     -1 IRanGd=            0 ICorTp=0 IEmpDi=141
 NAtoms=   45 NActive=   45 NUniq=   45 SFac= 1.00D+00 NAtFMM=   60 NAOKFM=F Big=F
 Integral buffers will be    131072 words long.
 Raffenetti 2 integral format.
 Two-electron integral symmetry is turned on.
 R6Disp:  Grimme-D3(BJ) Dispersion energy=       -0.0452998694 Hartrees.
 Nuclear repulsion after empirical dispersion term =     1578.0973174459 Hartrees.
 Leave Link  301 at Thu Nov  3 08:04:22 2022, MaxMem=  4194304000 cpu:               0.6 elap:               0.1
 (Enter /software/gaussian/G16-A.03/avx/g16/l302.exe)
 NPDir=0 NMtPBC=     1 NCelOv=     1 NCel=       1 NClECP=     1 NCelD=      1
         NCelK=      1 NCelE2=     1 NClLst=     1 CellRange=     0.0.
 One-electron integrals computed using PRISM.
 One-electron integral symmetry used in STVInt
   1 Symmetry operations used in ECPInt.
 ECPInt:  NShTT=   18528 NPrTT=   64586 LenC2=   16789 LenP2D=   41470.
 LDataN:  DoStor=T MaxTD1= 4 Len=   56
 NBasis=   396 RedAO= T EigKep=  5.89D-04  NBF=   396
 NBsUse=   396 1.00D-06 EigRej= -1.00D+00 NBFU=   396
 Precomputing XC quadrature grid using
 IXCGrd= 4 IRadAn=           5 IRanWt=          -1 IRanGd=           0 AccXCQ= 0.00D+00.
 Generated NRdTot=       0 NPtTot=           0 NUsed=           0 NTot=          32
 NSgBfM=   412   412   412   412   412 MxSgAt=    45 MxSgA2=    45.
 Leave Link  302 at Thu Nov  3 08:04:23 2022, MaxMem=  4194304000 cpu:               7.4 elap:               1.0
 (Enter /software/gaussian/G16-A.03/avx/g16/l303.exe)
 DipDrv:  MaxL=1.
 Leave Link  303 at Thu Nov  3 08:04:24 2022, MaxMem=  4194304000 cpu:               0.6 elap:               0.1
 (Enter /software/gaussian/G16-A.03/avx/g16/l401.exe)
 ExpMin= 1.22D-01 ExpMax= 2.27D+03 ExpMxC= 3.41D+02 IAcc=3 IRadAn=         5 AccDes= 0.00D+00
 Harris functional with IExCor= 1009 and IRadAn=       5 diagonalized for initial guess.
 HarFok:  IExCor= 1009 AccDes= 0.00D+00 IRadAn=         5 IDoV= 1 UseB2=F ITyADJ=14
 ICtDFT=  3500011 ScaDFX=  1.000000  1.000000  1.000000  1.000000
 FoFCou: FMM=F IPFlag=           0 FMFlag=      100000 FMFlg1=           0
         NFxFlg=           0 DoJE=T BraDBF=F KetDBF=T FulRan=T
         wScrn=  0.000000 ICntrl=       500 IOpCl=  0 I1Cent=   200000004 NGrid=           0
         NMat0=    1 NMatS0=      1 NMatT0=    0 NMatD0=    1 NMtDS0=    0 NMtDT0=    0
 Petite list used in FoFCou.
 Harris En= -845.883308986573    
 JPrj=0 DoOrth=F DoCkMO=F.
 Leave Link  401 at Thu Nov  3 08:04:29 2022, MaxMem=  4194304000 cpu:              40.6 elap:               5.1
 (Enter /software/gaussian/G16-A.03/avx/g16/l502.exe)
 Integral symmetry usage will be decided dynamically.
 Closed shell SCF:
 Using DIIS extrapolation, IDIIS=  1040.
 NGot=  4194304000 LenX=  4193951585 LenY=  4193778919
 Requested convergence on RMS density matrix=1.00D-08 within 128 cycles.
 Requested convergence on MAX density matrix=1.00D-06.
 Requested convergence on             energy=1.00D-06.
 No special actions if energy rises.
 Fock matrices will be formed incrementally for  20 cycles.
 Integral accuracy reduced to 1.0D-05 until final iterations.

 Cycle   1  Pass 0  IDiag  1:
 FoFJK:  IHMeth= 1 ICntrl=       0 DoSepK=F KAlg= 0 I1Cent=           0 FoldK=F
 IRaf= 840000000 NMat=       1 IRICut=       1 DoRegI=T DoRafI=F ISym2E= 0 IDoP0=0 IntGTp=1.
 FoFCou: FMM=F IPFlag=           0 FMFlag=      100000 FMFlg1=           0
         NFxFlg=           0 DoJE=F BraDBF=F KetDBF=F FulRan=T
         wScrn=  0.000000 ICntrl=         0 IOpCl=  0 I1Cent=           0 NGrid=           0
         NMat0=    1 NMatS0=      1 NMatT0=    0 NMatD0=    1 NMtDS0=    0 NMtDT0=    0
 Symmetry not used in FoFCou.
 E= -845.177706255865    
 DIIS: error= 2.15D-02 at cycle   1 NSaved=   1.
 NSaved= 1 IEnMin= 1 EnMin= -845.177706255865     IErMin= 1 ErrMin= 2.15D-02
 ErrMax= 2.15D-02  0.00D+00 EMaxC= 1.00D-01 BMatC= 4.33D-01 BMatP= 4.33D-01
 IDIUse=3 WtCom= 7.85D-01 WtEn= 2.15D-01
 Coeff-Com:  0.100D+01
 Coeff-En:   0.100D+01
 Coeff:      0.100D+01
 Gap=     0.262 Goal=   None    Shift=    0.000
 GapD=    0.262 DampG=1.000 DampE=0.500 DampFc=0.5000 IDamp=-1.
 Damping current iteration by 5.00D-01
 RMSDP=4.45D-03 MaxDP=2.40D-01              OVMax= 2.43D-01

 Cycle   2  Pass 0  IDiag  1:
 RMSU=  2.21D-03    CP:  9.87D-01
 E= -845.372947729195     Delta-E=       -0.195241473330 Rises=F Damp=T
 DIIS: error= 6.42D-03 at cycle   2 NSaved=   2.
 NSaved= 2 IEnMin= 2 EnMin= -845.372947729195     IErMin= 2 ErrMin= 6.42D-03
 ErrMax= 6.42D-03  0.00D+00 EMaxC= 1.00D-01 BMatC= 3.37D-02 BMatP= 4.33D-01
 IDIUse=3 WtCom= 9.36D-01 WtEn= 6.42D-02
 Coeff-Com:  0.959D-01 0.904D+00
 Coeff-En:   0.154D+00 0.846D+00
 Coeff:      0.996D-01 0.900D+00
 Gap=     0.311 Goal=   None    Shift=    0.000
 RMSDP=1.36D-03 MaxDP=5.02D-02 DE=-1.95D-01 OVMax= 2.05D-01

 Cycle   3  Pass 0  IDiag  1:
 RMSU=  1.27D-03    CP:  9.81D-01  7.84D-01
 E= -845.601857429458     Delta-E=       -0.228909700263 Rises=F Damp=F
 DIIS: error= 1.11D-02 at cycle   3 NSaved=   3.
 NSaved= 3 IEnMin= 3 EnMin= -845.601857429458     IErMin= 2 ErrMin= 6.42D-03
 ErrMax= 1.11D-02  0.00D+00 EMaxC= 1.00D-01 BMatC= 4.47D-02 BMatP= 3.37D-02
 IDIUse=2 WtCom= 0.00D+00 WtEn= 1.00D+00
 Coeff-En:   0.000D+00 0.000D+00 0.100D+01
 Coeff:      0.000D+00 0.000D+00 0.100D+01
 Gap=     0.266 Goal=   None    Shift=    0.000
 RMSDP=1.98D-03 MaxDP=1.11D-01 DE=-2.29D-01 OVMax= 2.09D-01

 Cycle   4  Pass 0  IDiag  1:
 RMSU=  1.13D-03    CP:  9.89D-01  1.23D+00 -7.43D-03
 E= -845.443386087336     Delta-E=        0.158471342122 Rises=F Damp=F
 DIIS: error= 2.51D-02 at cycle   4 NSaved=   4.
 NSaved= 4 IEnMin= 3 EnMin= -845.601857429458     IErMin= 2 ErrMin= 6.42D-03
 ErrMax= 2.51D-02  0.00D+00 EMaxC= 1.00D-01 BMatC= 2.22D-01 BMatP= 3.37D-02
 IDIUse=2 WtCom= 0.00D+00 WtEn= 1.00D+00
 Coeff-En:   0.000D+00 0.000D+00 0.777D+00 0.223D+00
 Coeff:      0.000D+00 0.000D+00 0.777D+00 0.223D+00
 Gap=     0.257 Goal=   None    Shift=    0.000
 RMSDP=1.06D-03 MaxDP=7.42D-02 DE= 1.58D-01 OVMax= 1.06D-01

 Cycle   5  Pass 0  IDiag  1:
 RMSU=  1.56D-04    CP:  9.85D-01  9.63D-01  4.84D-01  4.74D-01
 E= -845.628542819652     Delta-E=       -0.185156732316 Rises=F Damp=F
 DIIS: error= 6.51D-03 at cycle   5 NSaved=   5.
 NSaved= 5 IEnMin= 5 EnMin= -845.628542819652     IErMin= 2 ErrMin= 6.42D-03
 ErrMax= 6.51D-03  0.00D+00 EMaxC= 1.00D-01 BMatC= 1.55D-02 BMatP= 3.37D-02
 IDIUse=3 WtCom= 9.35D-01 WtEn= 6.51D-02
 Coeff-Com: -0.203D-02 0.122D-01 0.272D+00-0.986D-01 0.817D+00
 Coeff-En:   0.000D+00 0.000D+00 0.304D+00 0.000D+00 0.696D+00
 Coeff:     -0.190D-02 0.114D-01 0.274D+00-0.922D-01 0.809D+00
 Gap=     0.275 Goal=   None    Shift=    0.000
 RMSDP=3.58D-04 MaxDP=2.02D-02 DE=-1.85D-01 OVMax= 3.72D-02

 Cycle   6  Pass 0  IDiag  1:
 RMSU=  3.56D-05    CP:  9.83D-01  8.88D-01  6.69D-01  2.92D-01  8.35D-01
 E= -845.642335435070     Delta-E=       -0.013792615418 Rises=F Damp=F
 DIIS: error= 1.39D-04 at cycle   6 NSaved=   6.
 NSaved= 6 IEnMin= 6 EnMin= -845.642335435070     IErMin= 6 ErrMin= 1.39D-04
 ErrMax= 1.39D-04  0.00D+00 EMaxC= 1.00D-01 BMatC= 2.33D-05 BMatP= 1.55D-02
 IDIUse=3 WtCom= 9.99D-01 WtEn= 1.39D-03
 Coeff-Com: -0.176D-02 0.367D-02 0.101D+00-0.564D-01 0.387D+00 0.567D+00
 Coeff-En:   0.000D+00 0.000D+00 0.000D+00 0.000D+00 0.000D+00 0.100D+01
 Coeff:     -0.175D-02 0.366D-02 0.101D+00-0.563D-01 0.386D+00 0.568D+00
 Gap=     0.275 Goal=   None    Shift=    0.000
 RMSDP=1.50D-05 MaxDP=9.39D-04 DE=-1.38D-02 OVMax= 8.06D-04

 Cycle   7  Pass 0  IDiag  1:
 RMSU=  8.01D-06    CP:  9.83D-01  8.90D-01  6.66D-01  2.95D-01  8.68D-01
                    CP:  7.32D-01
 E= -845.642356576122     Delta-E=       -0.000021141052 Rises=F Damp=F
 DIIS: error= 5.63D-05 at cycle   7 NSaved=   7.
 NSaved= 7 IEnMin= 7 EnMin= -845.642356576122     IErMin= 7 ErrMin= 5.63D-05
 ErrMax= 5.63D-05  0.00D+00 EMaxC= 1.00D-01 BMatC= 1.13D-06 BMatP= 2.33D-05
 IDIUse=1 WtCom= 1.00D+00 WtEn= 0.00D+00
 Coeff-Com: -0.585D-03 0.730D-03 0.287D-01-0.191D-01 0.120D+00 0.231D+00
 Coeff-Com:  0.640D+00
 Coeff:     -0.585D-03 0.730D-03 0.287D-01-0.191D-01 0.120D+00 0.231D+00
 Coeff:      0.640D+00
 Gap=     0.275 Goal=   None    Shift=    0.000
 RMSDP=4.21D-06 MaxDP=2.50D-04 DE=-2.11D-05 OVMax= 1.71D-04

 Initial convergence to 1.0D-05 achieved.  Increase integral accuracy.
 Cycle   8  Pass 1  IDiag  1:
 E= -845.642376829636     Delta-E=       -0.000020253514 Rises=F Damp=F
 DIIS: error= 1.16D-04 at cycle   1 NSaved=   1.
 NSaved= 1 IEnMin= 1 EnMin= -845.642376829636     IErMin= 1 ErrMin= 1.16D-04
 ErrMax= 1.16D-04  0.00D+00 EMaxC= 1.00D-01 BMatC= 1.31D-06 BMatP= 1.31D-06
 IDIUse=3 WtCom= 9.99D-01 WtEn= 1.16D-03
 Coeff-Com:  0.100D+01
 Coeff-En:   0.100D+01
 Coeff:      0.100D+01
 Gap=     0.275 Goal=   None    Shift=    0.000
 RMSDP=4.21D-06 MaxDP=2.50D-04 DE=-2.03D-05 OVMax= 2.30D-04

 Cycle   9  Pass 1  IDiag  1:
 RMSU=  4.05D-05    CP:  1.00D+00
 E= -845.642377964838     Delta-E=       -0.000001135202 Rises=F Damp=F
 DIIS: error= 2.70D-05 at cycle   2 NSaved=   2.
 NSaved= 2 IEnMin= 2 EnMin= -845.642377964838     IErMin= 2 ErrMin= 2.70D-05
 ErrMax= 2.70D-05  0.00D+00 EMaxC= 1.00D-01 BMatC= 3.18D-07 BMatP= 1.31D-06
 IDIUse=1 WtCom= 1.00D+00 WtEn= 0.00D+00
 Coeff-Com:  0.250D+00 0.750D+00
 Coeff:      0.250D+00 0.750D+00
 Gap=     0.275 Goal=   None    Shift=    0.000
 RMSDP=3.36D-06 MaxDP=3.33D-04 DE=-1.14D-06 OVMax= 2.41D-04

 Cycle  10  Pass 1  IDiag  1:
 RMSU=  3.31D-06    CP:  1.00D+00  1.00D+00
 E= -845.642377927008     Delta-E=        0.000000037830 Rises=F Damp=F
 DIIS: error= 3.07D-05 at cycle   3 NSaved=   3.
 NSaved= 3 IEnMin= 2 EnMin= -845.642377964838     IErMin= 2 ErrMin= 2.70D-05
 ErrMax= 3.07D-05  0.00D+00 EMaxC= 1.00D-01 BMatC= 3.54D-07 BMatP= 3.18D-07
 IDIUse=1 WtCom= 1.00D+00 WtEn= 0.00D+00
 Coeff-Com:  0.170D-02 0.513D+00 0.485D+00
 Coeff:      0.170D-02 0.513D+00 0.485D+00
 Gap=     0.275 Goal=   None    Shift=    0.000
 RMSDP=2.05D-06 MaxDP=1.96D-04 DE= 3.78D-08 OVMax= 1.69D-04

 Cycle  11  Pass 1  IDiag  1:
 RMSU=  6.51D-07    CP:  1.00D+00  1.02D+00  4.46D-01
 E= -845.642378218691     Delta-E=       -0.000000291683 Rises=F Damp=F
 DIIS: error= 8.26D-06 at cycle   4 NSaved=   4.
 NSaved= 4 IEnMin= 4 EnMin= -845.642378218691     IErMin= 4 ErrMin= 8.26D-06
 ErrMax= 8.26D-06  0.00D+00 EMaxC= 1.00D-01 BMatC= 1.83D-08 BMatP= 3.18D-07
 IDIUse=1 WtCom= 1.00D+00 WtEn= 0.00D+00
 Coeff-Com: -0.581D-02 0.323D+00 0.324D+00 0.359D+00
 Coeff:     -0.581D-02 0.323D+00 0.324D+00 0.359D+00
 Gap=     0.275 Goal=   None    Shift=    0.000
 RMSDP=3.76D-07 MaxDP=1.61D-05 DE=-2.92D-07 OVMax= 3.63D-05

 Cycle  12  Pass 1  IDiag  1:
 RMSU=  1.68D-07    CP:  1.00D+00  1.02D+00  4.75D-01  5.05D-01
 E= -845.642378233932     Delta-E=       -0.000000015241 Rises=F Damp=F
 DIIS: error= 4.87D-07 at cycle   5 NSaved=   5.
 NSaved= 5 IEnMin= 5 EnMin= -845.642378233932     IErMin= 5 ErrMin= 4.87D-07
 ErrMax= 4.87D-07  0.00D+00 EMaxC= 1.00D-01 BMatC= 1.22D-10 BMatP= 1.83D-08
 IDIUse=1 WtCom= 1.00D+00 WtEn= 0.00D+00
 Coeff-Com: -0.279D-02 0.139D+00 0.140D+00 0.171D+00 0.552D+00
 Coeff:     -0.279D-02 0.139D+00 0.140D+00 0.171D+00 0.552D+00
 Gap=     0.275 Goal=   None    Shift=    0.000
 RMSDP=3.77D-08 MaxDP=2.94D-06 DE=-1.52D-08 OVMax= 1.64D-06

 Cycle  13  Pass 1  IDiag  1:
 RMSU=  3.58D-08    CP:  1.00D+00  1.02D+00  4.73D-01  5.12D-01  1.02D+00
 E= -845.642378234025     Delta-E=       -0.000000000093 Rises=F Damp=F
 DIIS: error= 7.40D-08 at cycle   6 NSaved=   6.
 NSaved= 6 IEnMin= 6 EnMin= -845.642378234025     IErMin= 6 ErrMin= 7.40D-08
 ErrMax= 7.40D-08  0.00D+00 EMaxC= 1.00D-01 BMatC= 5.83D-12 BMatP= 1.22D-10
 IDIUse=1 WtCom= 1.00D+00 WtEn= 0.00D+00
 Coeff-Com: -0.155D-03 0.379D-02 0.363D-02 0.125D-01 0.178D+00 0.802D+00
 Coeff:     -0.155D-03 0.379D-02 0.363D-02 0.125D-01 0.178D+00 0.802D+00
 Gap=     0.275 Goal=   None    Shift=    0.000
 RMSDP=1.36D-08 MaxDP=6.58D-07 DE=-9.32D-11 OVMax= 4.62D-07

 Cycle  14  Pass 1  IDiag  1:
 RMSU=  9.08D-09    CP:  1.00D+00  1.02D+00  4.72D-01  5.17D-01  1.06D+00
                    CP:  9.23D-01
 E= -845.642378234034     Delta-E=       -0.000000000009 Rises=F Damp=F
 DIIS: error= 4.01D-08 at cycle   7 NSaved=   7.
 NSaved= 7 IEnMin= 7 EnMin= -845.642378234034     IErMin= 7 ErrMin= 4.01D-08
 ErrMax= 4.01D-08  0.00D+00 EMaxC= 1.00D-01 BMatC= 8.65D-13 BMatP= 5.83D-12
 IDIUse=1 WtCom= 1.00D+00 WtEn= 0.00D+00
 Coeff-Com:  0.886D-04-0.633D-02-0.651D-02-0.345D-02 0.501D-01 0.388D+00
 Coeff-Com:  0.578D+00
 Coeff:      0.886D-04-0.633D-02-0.651D-02-0.345D-02 0.501D-01 0.388D+00
 Coeff:      0.578D+00
 Gap=     0.275 Goal=   None    Shift=    0.000
 RMSDP=5.08D-09 MaxDP=1.63D-07 DE=-9.09D-12 OVMax= 1.97D-07

 SCF Done:  E(RPBE1PBE) =  -845.642378234     A.U. after   14 cycles
            NFock= 14  Conv=0.51D-08     -V/T= 2.0103
 KE= 8.370150435579D+02 PE=-5.120884380806D+03 EE= 1.860129641568D+03
 Leave Link  502 at Thu Nov  3 08:06:29 2022, MaxMem=  4194304000 cpu:             962.9 elap:             120.4
 (Enter /software/gaussian/G16-A.03/avx/g16/l801.exe)
 DoSCS=F DFT=T ScalE2(SS,OS)=  1.000000  1.000000
 Range of M.O.s used for correlation:     1   396
 NBasis=   396 NAE=    73 NBE=    73 NFC=     0 NFV=     0
 NROrb=    396 NOA=    73 NOB=    73 NVA=   323 NVB=   323

 **** Warning!!: The largest alpha MO coefficient is  0.14860644D+02

 Leave Link  801 at Thu Nov  3 08:06:30 2022, MaxMem=  4194304000 cpu:               0.2 elap:               0.1
 (Enter /software/gaussian/G16-A.03/avx/g16/l1101.exe)
 Using compressed storage, NAtomX=    45.
 Will process     46 centers per pass.
   1 Symmetry operations used in ECPInt.
 ECPInt:  NShTT=   18528 NPrTT=   64586 LenC2=   16789 LenP2D=   41470.
 LDataN:  DoStor=T MaxTD1= 5 Len=  102
 R6Disp: Adding Grimme-D3(BJ) dispersion energy 1st derivatives to the gradient.
 Leave Link 1101 at Thu Nov  3 08:06:32 2022, MaxMem=  4194304000 cpu:               8.0 elap:               1.2
 (Enter /software/gaussian/G16-A.03/avx/g16/l1102.exe)
 Symmetrizing basis deriv contribution to polar:
 IMax=3 JMax=2 DiffMx= 0.00D+00
 Leave Link 1102 at Thu Nov  3 08:06:32 2022, MaxMem=  4194304000 cpu:               0.5 elap:               0.1
 (Enter /software/gaussian/G16-A.03/avx/g16/l1110.exe)
 Forming Gx(P) for the SCF density, NAtomX=    45.
 Integral derivatives from FoFJK, PRISM(SPDF).
 Do as many integral derivatives as possible in FoFJK.
 G2DrvN: MDV=    4194300624.
 G2DrvN: will do    46 centers at a time, making    1 passes.
 Calling FoFCou, ICntrl=  3107 FMM=F I1Cent=   0 AccDes= 0.00D+00.
 FoFJK:  IHMeth= 1 ICntrl=    3107 DoSepK=F KAlg= 0 I1Cent=           0 FoldK=F
 IRaf=         0 NMat=       1 IRICut=       1 DoRegI=T DoRafI=F ISym2E= 0 IDoP0=0 IntGTp=1.
 FoFCou: FMM=F IPFlag=           0 FMFlag=      100000 FMFlg1=           0
         NFxFlg=           0 DoJE=F BraDBF=F KetDBF=F FulRan=T
         wScrn=  0.000000 ICntrl=      3107 IOpCl=  0 I1Cent=           0 NGrid=           0
         NMat0=    1 NMatS0=      1 NMatT0=    0 NMatD0=    1 NMtDS0=    0 NMtDT0=    0
 Symmetry not used in FoFCou.
 End of G2Drv F.D. properties file   721 does not exist.
 End of G2Drv F.D. properties file   722 does not exist.
 End of G2Drv F.D. properties file   788 does not exist.
 Leave Link 1110 at Thu Nov  3 08:14:05 2022, MaxMem=  4194304000 cpu:            3615.8 elap:             452.0
 (Enter /software/gaussian/G16-A.03/avx/g16/l1002.exe)
 Minotr:  Closed shell wavefunction.
          IDoAtm=111111111111111111111111111111111111111111111
          Direct CPHF calculation.
          Differentiating once with respect to electric field.
                with respect to dipole field.
          Differentiating once with respect to nuclear coordinates.
          Requested convergence is 1.0D-08 RMS, and 1.0D-07 maximum.
          Secondary convergence is 1.0D-12 RMS, and 1.0D-12 maximum.
          NewPWx=T KeepS1=F KeepF1=F KeepIn=T MapXYZ=F SortEE=F KeepMc=T.
        13635 words used for storage of precomputed grid.
 Keep R1 ints in memory in canonical form, NReq=3125507630.
 FoFCou: FMM=F IPFlag=           0 FMFlag=           0 FMFlg1=           0
         NFxFlg=           0 DoJE=F BraDBF=F KetDBF=F FulRan=T
         wScrn=  0.000000 ICntrl=       600 IOpCl=  0 I1Cent=           0 NGrid=           0
         NMat0=    1 NMatS0=  78606 NMatT0=    0 NMatD0=    1 NMtDS0=    0 NMtDT0=    0
 Symmetry not used in FoFCou.
 Two-electron integral symmetry not used.
          MDV=    4194304000 using IRadAn=       1.
          Solving linear equations simultaneously, MaxMat=       0.
          There are   138 degrees of freedom in the 1st order CPHF.  IDoFFX=6 NUNeed=     3.
    135 vectors produced by pass  0 Test12= 2.36D-14 1.00D-09 XBig12= 1.34D+02 4.73D+00.
 AX will form   135 AO Fock derivatives at one time.
    135 vectors produced by pass  1 Test12= 2.36D-14 1.00D-09 XBig12= 4.61D+01 1.46D+00.
    135 vectors produced by pass  2 Test12= 2.36D-14 1.00D-09 XBig12= 4.79D-01 7.73D-02.
    135 vectors produced by pass  3 Test12= 2.36D-14 1.00D-09 XBig12= 1.61D-03 4.09D-03.
    135 vectors produced by pass  4 Test12= 2.36D-14 1.00D-09 XBig12= 2.99D-06 2.32D-04.
     83 vectors produced by pass  5 Test12= 2.36D-14 1.00D-09 XBig12= 3.14D-09 6.34D-06.
     12 vectors produced by pass  6 Test12= 2.36D-14 1.00D-09 XBig12= 3.13D-12 1.57D-07.
      3 vectors produced by pass  7 Test12= 2.36D-14 1.00D-09 XBig12= 3.15D-15 5.06D-09.
 InvSVY:  IOpt=1 It=  1 EMax= 1.24D-14
 Solved reduced A of dimension   773 with   138 vectors.
 FullF1:  Do perturbations      1 to       3.
 Isotropic polarizability for W=    0.000000      174.50 Bohr**3.
 End of Minotr F.D. properties file   721 does not exist.
 End of Minotr F.D. properties file   722 does not exist.
 End of Minotr F.D. properties file   788 does not exist.
 Leave Link 1002 at Thu Nov  3 08:23:13 2022, MaxMem=  4194304000 cpu:            4377.2 elap:             547.3
 (Enter /software/gaussian/G16-A.03/avx/g16/l601.exe)
 Copying SCF densities to generalized density rwf, IOpCl= 0 IROHF=0.

 **********************************************************************

            Population analysis using the SCF density.

 **********************************************************************

 Orbital symmetries:
       Occupied  (A) (A) (A) (A) (A) (A) (A) (A) (A) (A) (A) (A)
                 (A) (A) (A) (A) (A) (A) (A) (A) (A) (A) (A) (A)
                 (A) (A) (A) (A) (A) (A) (A) (A) (A) (A) (A) (A)
                 (A) (A) (A) (A) (A) (A) (A) (A) (A) (A) (A) (A)
                 (A) (A) (A) (A) (A) (A) (A) (A) (A) (A) (A) (A)
                 (A) (A) (A) (A) (A) (A) (A) (A) (A) (A) (A) (A)
                 (A)
       Virtual   (A) (A) (A) (A) (A) (A) (A) (A) (A) (A) (A) (A)
                 (A) (A) (A) (A) (A) (A) (A) (A) (A) (A) (A) (A)
                 (A) (A) (A) (A) (A) (A) (A) (A) (A) (A) (A) (A)
                 (A) (A) (A) (A) (A) (A) (A) (A) (A) (A) (A) (A)
                 (A) (A) (A) (A) (A) (A) (A) (A) (A) (A) (A) (A)
                 (A) (A) (A) (A) (A) (A) (A) (A) (A) (A) (A) (A)
                 (A) (A) (A) (A) (A) (A) (A) (A) (A) (A) (A) (A)
                 (A) (A) (A) (A) (A) (A) (A) (A) (A) (A) (A) (A)
                 (A) (A) (A) (A) (A) (A) (A) (A) (A) (A) (A) (A)
                 (A) (A) (A) (A) (A) (A) (A) (A) (A) (A) (A) (A)
                 (A) (A) (A) (A) (A) (A) (A) (A) (A) (A) (A) (A)
                 (A) (A) (A) (A) (A) (A) (A) (A) (A) (A) (A) (A)
                 (A) (A) (A) (A) (A) (A) (A) (A) (A) (A) (A) (A)
                 (A) (A) (A) (A) (A) (A) (A) (A) (A) (A) (A) (A)
                 (A) (A) (A) (A) (A) (A) (A) (A) (A) (A) (A) (A)
                 (A) (A) (A) (A) (A) (A) (A) (A) (A) (A) (A) (A)
                 (A) (A) (A) (A) (A) (A) (A) (A) (A) (A) (A) (A)
                 (A) (A) (A) (A) (A) (A) (A) (A) (A) (A) (A) (A)
                 (A) (A) (A) (A) (A) (A) (A) (A) (A) (A) (A) (A)
                 (A) (A) (A) (A) (A) (A) (A) (A) (A) (A) (A) (A)
                 (A) (A) (A) (A) (A) (A) (A) (A) (A) (A) (A) (A)
                 (A) (A) (A) (A) (A) (A) (A) (A) (A) (A) (A) (A)
                 (A) (A) (A) (A) (A) (A) (A) (A) (A) (A) (A) (A)
                 (A) (A) (A) (A) (A) (A) (A) (A) (A) (A) (A) (A)
                 (A) (A) (A) (A) (A) (A) (A) (A) (A) (A) (A) (A)
                 (A) (A) (A) (A) (A) (A) (A) (A) (A) (A) (A) (A)
                 (A) (A) (A) (A) (A) (A) (A) (A) (A) (A) (A)
 The electronic state is 1-A.
 Alpha  occ. eigenvalues --  -19.24057 -19.24051 -14.34932 -14.34928 -10.30849
 Alpha  occ. eigenvalues --  -10.30848 -10.28438 -10.28437 -10.26883 -10.25550
 Alpha  occ. eigenvalues --  -10.25549 -10.23185 -10.23184 -10.23085 -10.23082
 Alpha  occ. eigenvalues --  -10.22428 -10.22428 -10.21594 -10.21592  -1.11492
 Alpha  occ. eigenvalues --   -1.11270  -0.91265  -0.90370  -0.85936  -0.81873
 Alpha  occ. eigenvalues --   -0.81051  -0.75950  -0.74181  -0.70525  -0.69401
 Alpha  occ. eigenvalues --   -0.69392  -0.66305  -0.65587  -0.63920  -0.60036
 Alpha  occ. eigenvalues --   -0.57418  -0.56331  -0.53806  -0.52336  -0.51447
 Alpha  occ. eigenvalues --   -0.50966  -0.48603  -0.47135  -0.46303  -0.45781
 Alpha  occ. eigenvalues --   -0.45672  -0.44601  -0.44046  -0.43703  -0.43610
 Alpha  occ. eigenvalues --   -0.43233  -0.40898  -0.39858  -0.39691  -0.39091
 Alpha  occ. eigenvalues --   -0.38859  -0.38007  -0.37714  -0.37470  -0.36792
 Alpha  occ. eigenvalues --   -0.36365  -0.35662  -0.34830  -0.34729  -0.34533
 Alpha  occ. eigenvalues --   -0.34275  -0.33903  -0.32457  -0.32325  -0.28025
 Alpha  occ. eigenvalues --   -0.24975  -0.24278  -0.23805
 Alpha virt. eigenvalues --    0.03669   0.03704   0.05903   0.06698   0.07707
 Alpha virt. eigenvalues --    0.09041   0.09225   0.09759   0.10636   0.10726
 Alpha virt. eigenvalues --    0.11850   0.12328   0.12590   0.13636   0.13644
 Alpha virt. eigenvalues --    0.14369   0.14632   0.15386   0.15621   0.15725
 Alpha virt. eigenvalues --    0.16126   0.16422   0.16777   0.17070   0.18340
 Alpha virt. eigenvalues --    0.18471   0.19371   0.19754   0.19797   0.20048
 Alpha virt. eigenvalues --    0.20191   0.21040   0.21698   0.22391   0.22607
 Alpha virt. eigenvalues --    0.23331   0.25409   0.25720   0.26170   0.26211
 Alpha virt. eigenvalues --    0.28568   0.29028   0.31229   0.32652   0.35451
 Alpha virt. eigenvalues --    0.36813   0.39802   0.41161   0.41504   0.41863
 Alpha virt. eigenvalues --    0.42054   0.43033   0.44087   0.45062   0.45929
 Alpha virt. eigenvalues --    0.45971   0.46134   0.48358   0.49104   0.51024
 Alpha virt. eigenvalues --    0.51081   0.52735   0.54215   0.54649   0.54901
 Alpha virt. eigenvalues --    0.57477   0.58234   0.59241   0.59389   0.60191
 Alpha virt. eigenvalues --    0.61031   0.61622   0.61646   0.62412   0.62579
 Alpha virt. eigenvalues --    0.62819   0.62894   0.63560   0.64246   0.64898
 Alpha virt. eigenvalues --    0.65171   0.65485   0.66036   0.66660   0.67083
 Alpha virt. eigenvalues --    0.67189   0.67803   0.67828   0.67853   0.68230
 Alpha virt. eigenvalues --    0.68518   0.68767   0.69207   0.69910   0.70522
 Alpha virt. eigenvalues --    0.70577   0.70703   0.70988   0.71500   0.71674
 Alpha virt. eigenvalues --    0.71700   0.72329   0.72529   0.73139   0.73656
 Alpha virt. eigenvalues --    0.73763   0.74096   0.74217   0.74880   0.76602
 Alpha virt. eigenvalues --    0.76714   0.77291   0.77850   0.78469   0.80454
 Alpha virt. eigenvalues --    0.81828   0.82071   0.83037   0.83801   0.85788
 Alpha virt. eigenvalues --    0.86398   0.88872   0.88890   0.93358   0.95270
 Alpha virt. eigenvalues --    0.99287   0.99936   1.01019   1.02701   1.02715
 Alpha virt. eigenvalues --    1.07316   1.08541   1.08704   1.09908   1.10238
 Alpha virt. eigenvalues --    1.10839   1.11427   1.13717   1.13923   1.15507
 Alpha virt. eigenvalues --    1.15758   1.18170   1.21595   1.23935   1.25822
 Alpha virt. eigenvalues --    1.26417   1.26673   1.27829   1.30139   1.32715
 Alpha virt. eigenvalues --    1.33491   1.33844   1.36191   1.39028   1.40075
 Alpha virt. eigenvalues --    1.43171   1.43996   1.45842   1.46217   1.51591
 Alpha virt. eigenvalues --    1.51715   1.51809   1.54565   1.54643   1.55349
 Alpha virt. eigenvalues --    1.55468   1.56084   1.56454   1.56859   1.59009
 Alpha virt. eigenvalues --    1.60514   1.61154   1.61526   1.62766   1.64687
 Alpha virt. eigenvalues --    1.65584   1.65945   1.67970   1.68149   1.69538
 Alpha virt. eigenvalues --    1.70617   1.71760   1.72578   1.73394   1.75096
 Alpha virt. eigenvalues --    1.75684   1.76975   1.77386   1.77685   1.78845
 Alpha virt. eigenvalues --    1.79675   1.79941   1.80085   1.81076   1.81744
 Alpha virt. eigenvalues --    1.81955   1.81991   1.82577   1.82922   1.83366
 Alpha virt. eigenvalues --    1.83744   1.83802   1.85172   1.85471   1.86318
 Alpha virt. eigenvalues --    1.86966   1.87742   1.88512   1.88717   1.90297
 Alpha virt. eigenvalues --    1.90506   1.90665   1.91819   1.92552   1.94606
 Alpha virt. eigenvalues --    1.94668   1.95325   1.95608   1.96681   1.96942
 Alpha virt. eigenvalues --    1.97426   1.97963   1.98319   1.99697   1.99852
 Alpha virt. eigenvalues --    2.00059   2.00541   2.04121   2.05753   2.05830
 Alpha virt. eigenvalues --    2.06586   2.06657   2.09349   2.09594   2.10823
 Alpha virt. eigenvalues --    2.13012   2.13270   2.16698   2.20517   2.20941
 Alpha virt. eigenvalues --    2.21185   2.23601   2.24602   2.26918   2.28070
 Alpha virt. eigenvalues --    2.30088   2.30785   2.31369   2.31839   2.33527
 Alpha virt. eigenvalues --    2.34753   2.37378   2.38391   2.39910   2.40605
 Alpha virt. eigenvalues --    2.42253   2.42570   2.43365   2.43466   2.43551
 Alpha virt. eigenvalues --    2.44436   2.45269   2.50691   2.52305   2.52452
 Alpha virt. eigenvalues --    2.53872   2.54646   2.56168   2.56663   2.60335
 Alpha virt. eigenvalues --    2.60500   2.63030   2.65329   2.66384   2.67031
 Alpha virt. eigenvalues --    2.68449   2.68902   2.69917   2.71341   2.71817
 Alpha virt. eigenvalues --    2.73938   2.75783   2.76744   2.82229   2.83457
 Alpha virt. eigenvalues --    2.84542   2.85765   2.87172   2.87836   2.88204
 Alpha virt. eigenvalues --    2.88530   2.91495   2.92768   2.93130   2.94118
 Alpha virt. eigenvalues --    2.94308   2.94640   2.96314   2.96645   2.97011
 Alpha virt. eigenvalues --    2.98133   3.01617   3.02248   3.03515   3.03721
 Alpha virt. eigenvalues --    3.04607   3.05079   3.06507   3.06559   3.08310
 Alpha virt. eigenvalues --    3.08866   3.09408   3.09773   3.12990   3.13489
 Alpha virt. eigenvalues --    3.17997   3.20253   3.31057   3.33112   3.40899
 Alpha virt. eigenvalues --    3.48036   3.65599   3.68001
     Molecular Orbital Coefficients:
                          69        70        71        72        73
                           O         O         O         O         O
     Eigenvalues --    -0.32325  -0.28025  -0.24975  -0.24278  -0.23805
   1 1   C  1S          0.00537  -0.00442  -0.00110  -0.00095   0.00369
   2        2S         -0.01426   0.01147   0.00401   0.00250  -0.01132
   3        3S         -0.00218  -0.02651  -0.00179   0.00694   0.04033
   4        4PX         0.05492  -0.01696  -0.02817  -0.02778   0.00694
   5        4PY         0.09118   0.00565   0.01331   0.01178  -0.00658
   6        4PZ         0.01168  -0.00772   0.00501   0.00322   0.00282
   7        5PX         0.01785   0.00528  -0.02668  -0.03062  -0.01804
   8        5PY         0.03063   0.00469   0.01142   0.01218  -0.00250
   9        5PZ         0.00683  -0.00869  -0.00140  -0.00449   0.00466
  10        6D 0       -0.00459  -0.00025   0.00144   0.00131   0.00026
  11        6D+1        0.00074  -0.00001   0.00289   0.00278   0.00011
  12        6D-1        0.00046  -0.00030  -0.00167  -0.00146   0.00046
  13        6D+2        0.00177   0.00026   0.00035   0.00038  -0.00014
  14        6D-2        0.01104  -0.00081   0.00235   0.00232   0.00026
  15 2   C  1S          0.00265  -0.00615   0.01859   0.01986   0.00920
  16        2S         -0.01011   0.01572  -0.04219  -0.04528  -0.02518
  17        3S         -0.00892   0.03721  -0.11767  -0.14193  -0.05628
  18        4PX        -0.07799   0.00873   0.04877   0.04900   0.00692
  19        4PY        -0.19955   0.02302  -0.06751  -0.06907  -0.02059
  20        4PZ         0.00987   0.01936  -0.07828  -0.07669  -0.02412
  21        5PX        -0.03389   0.02271   0.02982   0.03123  -0.01822
  22        5PY        -0.08064  -0.01858  -0.06410  -0.06508   0.02454
  23        5PZ        -0.00571   0.03682  -0.04324  -0.04812  -0.05456
  24        6D 0       -0.01011   0.00033   0.00061   0.00058   0.00028
  25        6D+1        0.00085  -0.00116   0.00100   0.00114   0.00167
  26        6D-1       -0.00200  -0.00045  -0.00382  -0.00369   0.00042
  27        6D+2       -0.00456   0.00212   0.00225   0.00212  -0.00159
  28        6D-2        0.01103  -0.00308   0.00123   0.00143   0.00294
  29 3   C  1S          0.00301  -0.02201  -0.00031   0.00220   0.02786
  30        2S         -0.00150   0.05102  -0.00392  -0.01041  -0.06668
  31        3S         -0.04252   0.09023   0.02299   0.02198  -0.11761
  32        4PX        -0.00441  -0.11829  -0.04397  -0.02918   0.12965
  33        4PY         0.16435  -0.03552   0.00514   0.00660   0.01650
  34        4PZ         0.02453  -0.02898   0.10035   0.09969   0.04230
  35        5PX        -0.00953  -0.03397   0.00794   0.01528   0.04048
  36        5PY         0.04573   0.02810  -0.01017  -0.01766  -0.07293
  37        5PZ         0.02003  -0.01277   0.01830   0.00451   0.02120
  38        6D 0       -0.00713   0.00017   0.00547   0.00554   0.00064
  39        6D+1        0.00428   0.00012   0.00958   0.01008   0.00128
  40        6D-1        0.00401  -0.00398  -0.01124  -0.01094   0.00297
  41        6D+2       -0.00658   0.00169  -0.00255  -0.00261   0.00062
  42        6D-2        0.00364  -0.01604   0.00112   0.00283   0.01848
  43 4   H  1S         -0.07035   0.02958   0.11905   0.11587  -0.01684
  44        2S         -0.04085   0.00146   0.07653   0.08207   0.00248
  45        3PX        -0.00011  -0.00156   0.00064   0.00090   0.00211
  46        3PY         0.00179  -0.00093   0.00278   0.00301   0.00163
  47        3PZ         0.00373  -0.00187  -0.00179  -0.00153   0.00200
  48 5   C  1S         -0.00974   0.02470   0.00436   0.00191  -0.02409
  49        2S          0.02122  -0.05923  -0.01178  -0.00556   0.05923
  50        3S          0.08022  -0.11941  -0.01326  -0.00085   0.15401
  51        4PX        -0.06197   0.06929   0.02277   0.01760  -0.05486
  52        4PY        -0.13713   0.10443   0.01088   0.00018  -0.10277
  53        4PZ         0.00580   0.01546  -0.06638  -0.06817  -0.01956
  54        5PX        -0.05013   0.04250  -0.00372  -0.00799  -0.03641
  55        5PY        -0.07025   0.10170   0.00886  -0.00135  -0.11785
  56        5PZ        -0.00669   0.01281  -0.01074  -0.00495  -0.01391
  57        6D 0       -0.00141   0.00200  -0.00511  -0.00567  -0.00227
  58        6D+1        0.00009  -0.00121  -0.00976  -0.01037  -0.00008
  59        6D-1        0.00035   0.00049   0.00114   0.00171  -0.00067
  60        6D+2       -0.00509   0.00012   0.00271   0.00282  -0.00077
  61        6D-2        0.00607   0.00284  -0.00010  -0.00073  -0.00462
  62 6   O  1S          0.01484  -0.00922  -0.00124   0.00026   0.01399
  63        2S          0.03032  -0.02135  -0.00221   0.00068   0.03126
  64        3S          0.02311  -0.06105  -0.01155   0.00067   0.08310
  65        4PX         0.01812   0.05481  -0.05430  -0.06671  -0.06260
  66        4PY         0.14548   0.10770   0.01688   0.00589  -0.10779
  67        4PZ        -0.02326   0.01073   0.23920   0.25938   0.01439
  68        5PX         0.00973   0.04412  -0.04466  -0.05682  -0.05830
  69        5PY         0.10661   0.08222   0.01323   0.00505  -0.07875
  70        5PZ        -0.01779   0.00849   0.19740   0.21360   0.01064
  71        6D 0        0.00256   0.00116  -0.00002   0.00011  -0.00082
  72        6D+1       -0.00016   0.00046  -0.00066  -0.00023  -0.00052
  73        6D-1        0.00005   0.00048  -0.00388  -0.00436  -0.00079
  74        6D+2        0.00120   0.00387   0.00060   0.00010  -0.00344
  75        6D-2       -0.00245   0.00113   0.00114   0.00125  -0.00086
  76 7   C  1S          0.00850  -0.04033  -0.00485  -0.00019   0.03560
  77        2S         -0.02277   0.10313   0.01281   0.00017  -0.09231
  78        3S         -0.01902  -0.10366  -0.01067  -0.00636  -0.01322
  79        4PX        -0.05793  -0.00565   0.03610   0.04382  -0.00404
  80        4PY        -0.00533  -0.07324  -0.01158  -0.00686   0.05980
  81        4PZ        -0.02082   0.00106  -0.14011  -0.16132  -0.02177
  82        5PX        -0.01030   0.12028   0.02948   0.02378  -0.06587
  83        5PY         0.03486   0.00948   0.01074  -0.00109  -0.03517
  84        5PZ        -0.00962   0.03092  -0.09368  -0.11024  -0.02928
  85        6D 0       -0.00046   0.00172   0.00205   0.00245  -0.00084
  86        6D+1       -0.00222  -0.00051   0.00575   0.00720   0.00069
  87        6D-1       -0.00224  -0.00587   0.02530   0.02362   0.00931
  88        6D+2       -0.00484  -0.00076  -0.00207  -0.00248   0.00123
  89        6D-2       -0.00400  -0.02162  -0.00898  -0.00602   0.02337
  90 8   N  1S         -0.00255  -0.06428  -0.01037  -0.00224   0.08133
  91        2S         -0.00803  -0.13094  -0.02433  -0.00713   0.17160
  92        3S          0.02731  -0.17262  -0.00114   0.01202   0.21879
  93        4PX        -0.01730  -0.25942  -0.09695  -0.07028   0.27238
  94        4PY        -0.02074  -0.21404  -0.02080   0.00229   0.23173
  95        4PZ        -0.01026  -0.06417   0.25229   0.26630   0.09814
  96        5PX         0.00875   0.15995   0.07805   0.05816  -0.16156
  97        5PY         0.02520   0.16306   0.01925  -0.00032  -0.16767
  98        5PZ         0.00422   0.03631  -0.19264  -0.19319  -0.06167
  99        6D 0       -0.00082  -0.00787  -0.00153  -0.00119   0.00923
 100        6D+1        0.00157   0.00274  -0.00190  -0.00367  -0.00533
 101        6D-1        0.00111   0.00206  -0.01424  -0.01534  -0.00464
 102        6D+2        0.00273  -0.00202   0.00119   0.00149  -0.00240
 103        6D-2        0.00310   0.01046   0.00503   0.00399  -0.01321
 104 9   N  1S          0.00247  -0.06429   0.01034  -0.00219  -0.08133
 105        2S          0.00785  -0.13097   0.02430  -0.00704  -0.17160
 106        3S         -0.02723  -0.17265   0.00084   0.01227  -0.21879
 107        4PX        -0.01675   0.25947  -0.09708   0.07029   0.27236
 108        4PY         0.02025  -0.21394   0.02104   0.00209  -0.23153
 109        4PZ        -0.01028   0.06457   0.25230  -0.26622   0.09849
 110        5PX         0.00845  -0.16000   0.07817  -0.05826  -0.16157
 111        5PY        -0.02474   0.16301  -0.01945  -0.00019   0.16754
 112        5PZ         0.00428  -0.03661  -0.19264   0.19309  -0.06191
 113        6D 0        0.00080  -0.00786   0.00157  -0.00122  -0.00921
 114        6D+1       -0.00156   0.00277   0.00189  -0.00367   0.00536
 115        6D-1        0.00111  -0.00209  -0.01424   0.01533  -0.00465
 116        6D+2       -0.00270  -0.00201  -0.00118   0.00148   0.00241
 117        6D-2        0.00304  -0.01046   0.00504  -0.00400  -0.01320
 118 10  C  1S         -0.00836  -0.04033   0.00487  -0.00014  -0.03560
 119        2S          0.02241   0.10314  -0.01285   0.00003   0.09229
 120        3S          0.01851  -0.10361   0.01095  -0.00617   0.01327
 121        4PX        -0.05749   0.00568   0.03615  -0.04401  -0.00405
 122        4PY         0.00503  -0.07325   0.01138  -0.00670  -0.05984
 123        4PZ        -0.02048  -0.00094  -0.14017   0.16123  -0.02158
 124        5PX        -0.01034  -0.12024   0.02962  -0.02357  -0.06584
 125        5PY        -0.03467   0.00944  -0.01094  -0.00089   0.03512
 126        5PZ        -0.00941  -0.03100  -0.09368   0.11029  -0.02930
 127        6D 0        0.00047   0.00171  -0.00211   0.00251   0.00082
 128        6D+1        0.00220  -0.00055  -0.00575   0.00720  -0.00072
 129        6D-1       -0.00222   0.00589   0.02530  -0.02361   0.00931
 130        6D+2        0.00479  -0.00078   0.00206  -0.00247  -0.00125
 131        6D-2       -0.00393   0.02162  -0.00900   0.00603   0.02336
 132 11  C  1S         -0.00001  -0.01419  -0.00001  -0.00016   0.00000
 133        2S         -0.00001   0.01755   0.00002  -0.00016  -0.00000
 134        3S          0.00015   0.31646   0.00007  -0.00295  -0.00003
 135        4PX         0.02759   0.00003  -0.00792   0.00007  -0.07151
 136        4PY        -0.00013  -0.09076   0.00002   0.00232  -0.00001
 137        4PZ         0.01628  -0.00002   0.05912   0.00003  -0.01330
 138        5PX         0.00142   0.00009   0.03054   0.00027  -0.05831
 139        5PY        -0.00014  -0.16718   0.00022   0.00389   0.00001
 140        5PZ         0.01719  -0.00006  -0.08259   0.00005  -0.02433
 141        6D 0       -0.00001  -0.00329   0.00001  -0.00374  -0.00000
 142        6D+1        0.00000   0.00184  -0.00001  -0.00747  -0.00001
 143        6D-1       -0.00014   0.00000   0.00927  -0.00000   0.00192
 144        6D+2       -0.00000  -0.00014  -0.00001   0.00177  -0.00000
 145        6D-2       -0.00288  -0.00000  -0.00326  -0.00001   0.00270
 146 12  C  1S         -0.00168   0.00678  -0.01035  -0.00052  -0.00115
 147        2S          0.00437  -0.01441   0.01182   0.00109   0.00192
 148        3S         -0.00295  -0.04477   0.14814   0.00174   0.01058
 149        4PX        -0.03968  -0.00505   0.01009  -0.01223   0.02165
 150        4PY        -0.00273   0.03335  -0.06098  -0.00223  -0.00661
 151        4PZ        -0.01654   0.01939  -0.04456  -0.00388   0.00048
 152        5PX        -0.02439  -0.00079   0.00944   0.00719   0.02484
 153        5PY         0.00371   0.02619  -0.10136  -0.00190  -0.00977
 154        5PZ        -0.00589   0.00646  -0.05542   0.00281  -0.00118
 155        6D 0       -0.00032  -0.00219   0.00109   0.00024   0.00081
 156        6D+1       -0.00080   0.00120  -0.00091  -0.00014   0.00130
 157        6D-1       -0.00056   0.00019   0.00221   0.00025   0.00110
 158        6D+2        0.00006   0.00018  -0.00052  -0.00008  -0.00042
 159        6D-2       -0.00259  -0.00008  -0.00083   0.00117   0.00285
 160 13  C  1S          0.00174   0.00679   0.01032  -0.00051   0.00114
 161        2S         -0.00448  -0.01440  -0.01173   0.00109  -0.00190
 162        3S          0.00259  -0.04495  -0.14839   0.00166  -0.01064
 163        4PX        -0.03995   0.00503   0.01003   0.01225   0.02167
 164        4PY         0.00272   0.03338   0.06089  -0.00221   0.00661
 165        4PZ        -0.01670  -0.01935  -0.04452   0.00386   0.00050
 166        5PX        -0.02452   0.00077   0.00938  -0.00734   0.02489
 167        5PY        -0.00384   0.02624   0.10138  -0.00187   0.00979
 168        5PZ        -0.00591  -0.00647  -0.05544  -0.00286  -0.00115
 169        6D 0        0.00032  -0.00219  -0.00108   0.00024  -0.00081
 170        6D+1        0.00080   0.00120   0.00090  -0.00013  -0.00130
 171        6D-1       -0.00057  -0.00018   0.00222  -0.00024   0.00110
 172        6D+2       -0.00005   0.00018   0.00052  -0.00008   0.00042
 173        6D-2       -0.00261   0.00008  -0.00083  -0.00117   0.00285
 174 14  O  1S         -0.01467  -0.00922   0.00125   0.00028  -0.01398
 175        2S         -0.02999  -0.02135   0.00223   0.00072  -0.03125
 176        3S         -0.02278  -0.06105   0.01153   0.00087  -0.08310
 177        4PX         0.01800  -0.05483  -0.05457   0.06706  -0.06260
 178        4PY        -0.14368   0.10771  -0.01669   0.00569   0.10778
 179        4PZ        -0.02278  -0.01092   0.23924  -0.25921   0.01406
 180        5PX         0.00972  -0.04414  -0.04489   0.05710  -0.05830
 181        5PY        -0.10529   0.08222  -0.01305   0.00485   0.07875
 182        5PZ        -0.01743  -0.00862   0.19743  -0.21346   0.01039
 183        6D 0       -0.00252   0.00116   0.00002   0.00011   0.00083
 184        6D+1        0.00017   0.00046   0.00066  -0.00023   0.00052
 185        6D-1        0.00004  -0.00048  -0.00389   0.00436  -0.00079
 186        6D+2       -0.00119   0.00387  -0.00059   0.00010   0.00344
 187        6D-2       -0.00242  -0.00112   0.00115  -0.00126  -0.00086
 188 15  C  1S          0.00966   0.02470  -0.00431   0.00187   0.02410
 189        2S         -0.02106  -0.05924   0.01166  -0.00545  -0.05924
 190        3S         -0.07936  -0.11945   0.01323  -0.00078  -0.15402
 191        4PX        -0.06140  -0.06928   0.02276  -0.01762  -0.05485
 192        4PY         0.13559   0.10438  -0.01081   0.00005   0.10273
 193        4PZ         0.00537  -0.01572  -0.06636   0.06812  -0.01976
 194        5PX        -0.04957  -0.04247  -0.00372   0.00799  -0.03637
 195        5PY         0.06948   0.10168  -0.00881  -0.00146   0.11780
 196        5PZ        -0.00685  -0.01308  -0.01072   0.00494  -0.01420
 197        6D 0        0.00139   0.00199   0.00516  -0.00572   0.00227
 198        6D+1       -0.00009  -0.00122   0.00974  -0.01033   0.00007
 199        6D-1        0.00037  -0.00047   0.00115  -0.00172  -0.00066
 200        6D+2        0.00504   0.00012  -0.00271   0.00283   0.00078
 201        6D-2        0.00599  -0.00284  -0.00010   0.00073  -0.00463
 202 16  C  1S         -0.00296  -0.02200   0.00032   0.00220  -0.02785
 203        2S          0.00145   0.05100   0.00388  -0.01041   0.06666
 204        3S          0.04213   0.09035  -0.02303   0.02199   0.11771
 205        4PX        -0.00420   0.11833  -0.04399   0.02912   0.12965
 206        4PY        -0.16236  -0.03543  -0.00514   0.00660  -0.01641
 207        4PZ         0.02444   0.02903   0.10041  -0.09969   0.04232
 208        5PX        -0.00939   0.03394   0.00807  -0.01546   0.04044
 209        5PY        -0.04514   0.02814   0.01015  -0.01759   0.07294
 210        5PZ         0.01989   0.01273   0.01834  -0.00451   0.02111
 211        6D 0        0.00702   0.00016  -0.00543   0.00550  -0.00064
 212        6D+1       -0.00423   0.00010  -0.00958   0.01008  -0.00130
 213        6D-1        0.00402   0.00401  -0.01125   0.01094   0.00299
 214        6D+2        0.00650   0.00168   0.00258  -0.00264  -0.00063
 215        6D-2        0.00360   0.01604   0.00113  -0.00284   0.01847
 216 17  H  1S          0.06968   0.02970  -0.11899   0.11572   0.01700
 217        2S          0.04044   0.00153  -0.07647   0.08196  -0.00236
 218        3PX        -0.00011   0.00156   0.00064  -0.00090   0.00211
 219        3PY        -0.00176  -0.00092  -0.00278   0.00302  -0.00162
 220        3PZ         0.00370   0.00188  -0.00178   0.00152   0.00201
 221 18  C  1S         -0.00261  -0.00614  -0.01862   0.01988  -0.00918
 222        2S          0.00999   0.01570   0.04225  -0.04532   0.02514
 223        3S          0.00863   0.03699   0.11786  -0.14202   0.05596
 224        4PX        -0.07723  -0.00873   0.04887  -0.04905   0.00690
 225        4PY         0.19706   0.02286   0.06748  -0.06900   0.02043
 226        4PZ         0.00928  -0.01931  -0.07849   0.07685  -0.02406
 227        5PX        -0.03360  -0.02267   0.02977  -0.03115  -0.01820
 228        5PY         0.07953  -0.01886   0.06402  -0.06497  -0.02485
 229        5PZ        -0.00585  -0.03674  -0.04351   0.04839  -0.05448
 230        6D 0        0.01000   0.00033  -0.00059   0.00056  -0.00028
 231        6D+1       -0.00088  -0.00117  -0.00100   0.00115  -0.00168
 232        6D-1       -0.00189   0.00047  -0.00383   0.00370   0.00043
 233        6D+2        0.00450   0.00212  -0.00224   0.00210   0.00159
 234        6D-2        0.01090   0.00307   0.00123  -0.00143   0.00293
 235 19  C  1S         -0.01203  -0.00254  -0.00134   0.00130  -0.00166
 236        2S          0.02902   0.00260   0.00259  -0.00612   0.00554
 237        3S          0.03432   0.06649  -0.01476   0.04454   0.04036
 238        4PX         0.04022   0.02852   0.01774  -0.01462   0.01868
 239        4PY        -0.11362  -0.00698   0.00958  -0.00901  -0.00177
 240        4PZ        -0.05068   0.00674   0.03552  -0.03255   0.00954
[...]
 85,0.00001918,-0.00001769,-0.00004397,0.00002247,-0.00001372,0.0000172
 6,0.00004254,-0.00020577,0.00002519,-0.00017718,0.00002092,0.00023341,
 0.00115739,0.00044179,-0.00154364,-0.00029848,-0.00007376,0.00087995,-
 0.00041812,0.01256103,-0.02936529,-0.00635756,0.00109567,-0.00000171,-
 0.04697670,0.00599011,-0.01473245,-0.00000588,-0.00000404,0.00000148,-
 0.00000132,-0.00000031,0.00000023,0.00000181,0.00000155,0.00000200,0.0
 0000116,-0.00000073,-0.00000012,-0.00000062,-0.00000175,-0.00000309,-0
 .00000030,0.00000201,0.00000105,0.00000370,-0.00000166,0.00000211,0.00
 001017,-0.00000638,0.00001901,-0.00000302,0.00000478,-0.00000106,-0.00
 000225,-0.00000163,0.00001980,-0.00000593,0.00000340,0.00000612,0.0000
 0583,-0.00000839,-0.00000682,-0.00000364,0.00000801,0.00000142,0.00005
 080,0.00004881,-0.00001998,-0.00003547,-0.00004846,-0.00006017,0.00099
 817,-0.00052152,-0.00002720,0.00000490,0.00022208,0.00003469,-0.000210
 52,0.00084055,-0.00178947,0.00000463,-0.00024572,0.00016021,0.00089749
 ,-0.00533524,0.01720448,-0.00032051,-0.00520781,0.00932139,0.05108852,
 0.00000056,-0.00000194,-0.00000029,-0.00000552,0.00000492,0.00000145,-
 0.00000117,0.00000890,0.00000768,-0.00000560,-0.00000261,-0.00000452,0
 .00000200,0.00000438,0.00000333,-0.00001506,-0.00001812,-0.00000546,0.
 00003073,0.00003995,0.00001002,-0.00001643,-0.00003086,-0.00002662,-0.
 00012602,0.00028552,-0.00037835,-0.00012983,-0.00008550,-0.00005806,0.
 00000998,0.00001237,0.00005005,-0.00001206,0.00000307,0.00002121,-0.00
 002341,0.00001283,-0.00001382,0.00006784,0.00004035,-0.00013643,-0.000
 10827,-0.00034158,0.00028039,-0.00053458,-0.00010866,0.00133548,0.0003
 4268,0.00010000,-0.00052792,-0.00046673,-0.00414155,0.00560350,0.00209
 654,0.00050185,-0.00032660,0.00677501,-0.08855051,0.09903601,0.0000040
 6,-0.00000010,-0.00000058,-0.00000075,0.00000033,0.00000057,-0.0000015
 6,-0.00000030,-0.00000214,0.00000099,-0.00000068,0.00000016,0.00000082
 ,-0.00000214,0.00000058,-0.00000019,-0.00000075,-0.00000080,-0.0000024
 6,0.00000032,-0.00000120,-0.00000492,-0.00000136,-0.00001129,-0.000000
 16,-0.00000092,0.00000506,0.00000170,0.00000293,-0.00001077,0.00000731
 ,-0.00000027,-0.00000377,-0.00000355,0.00000824,0.00000534,0.00000246,
 -0.00000821,0.00000159,0.00009265,-0.00014223,-0.00016048,0.00009117,0
 .00020733,0.00001810,0.00005960,0.00047744,-0.00055328,-0.00015094,0.0
 0029564,-0.00036310,-0.00002955,0.00022278,0.00066136,-0.00012287,0.00
 008317,0.00027392,0.00322153,-0.00840874,0.02280278,-0.00207879,0.0092
 5915,-0.01978157,-0.00896722,0.09027560,-0.00000009,-0.00000362,0.0000
 0626,-0.00000058,0.00000960,-0.00000793,0.00002349,0.00001368,-0.00000
 862,0.00000139,0.00000075,-0.00000005,0.00001713,0.00001202,0.00000087
 ,-0.00005392,-0.00000412,-0.00000988,0.00005876,-0.00000595,0.00000696
 ,-0.00004529,-0.00001389,0.00003260,-0.00022012,-0.00002786,0.00036655
 ,0.00004733,-0.00027193,0.00002673,0.00001913,-0.00000643,-0.00004637,
 -0.00002282,-0.00000144,-0.00002536,-0.00000347,-0.00000738,-0.0000093
 6,0.00008923,0.00006419,0.00005908,0.00001289,0.00014786,-0.00015259,0
 .00102652,-0.00070130,0.00053470,-0.00030839,0.00036853,0.00046691,0.0
 0088052,0.00127482,-0.00587259,-0.00253620,-0.00017146,0.00074816,-0.0
 1617430,0.09916391,-0.27691453,-0.00000230,-0.00000562,0.00000421,-0.0
 0000502,-0.00000331,0.00000280,0.00000199,0.00000214,-0.00000044,0.000
 00121,0.00000066,-0.00000094,0.00000195,-0.00000015,-0.00000229,-0.000
 00638,0.00000240,0.00000267,-0.00000019,-0.00000229,-0.00000141,0.0000
 1330,-0.00000211,0.00001774,0.00000332,-0.00001000,0.00000104,-0.00000
 499,0.00001060,0.00000239,-0.00000035,-0.00000239,0.00000479,-0.000002
 83,0.00000544,0.00000099,0.00000351,-0.00000340,-0.00000329,-0.0000045
 9,0.00007603,0.00008805,-0.00011797,-0.00000795,0.00002368,-0.00023382
 ,-0.00023147,0.00015081,0.00012093,0.00002573,0.00003103,0.00010745,0.
 00046225,-0.00048570,0.00015046,0.00000672,0.00047307,-0.00029702,-0.0
 0160357,0.00053048,-0.00194722,0.00918919,-0.01603385,0.01940868,-0.10
 775131,0.29599671,0.00101361,-0.00099706,0.00035927,0.00020365,-0.0039
 5674,0.00111910,0.00031811,0.00129899,-0.00039139,-0.00009718,-0.00010
 870,0.00010898,0.00022833,-0.00006212,-0.00021203,0.00039382,-0.000619
 71,-0.00001596,-0.00077231,0.00061280,0.00005103,-0.00018261,-0.000531
 83,0.00010432,0.00003502,-0.00015514,0.00008982,-0.00006436,0.00025457
 ,-0.00003205,-0.00002085,0.00003016,0.00007517,0.00001827,-0.00003655,
 -0.00002608,0.00006537,-0.00002652,0.00015302,-0.00000179,-0.00013762,
 -0.00002507,-0.00002528,0.00001704,-0.00000103,0.00001167,0.00001541,-
 0.00001491,0.00003016,-0.00000654,0.00001621,0.00001677,0.00001497,0.0
 0000597,-0.00000369,-0.00000299,-0.00000355,0.00000066,-0.00000720,-0.
 00000520,-0.10380718,0.10881269,0.01095873,-0.00000240,-0.00004628,-0.
 00000608,0.00000492,0.00015180,0.00012102,0.00017643,0.00035475,0.0000
 0668,0.00088300,-0.00034783,-0.00064258,0.00029983,0.00003935,-0.00006
 385,0.00013170,-0.00004767,-0.00009834,0.00000322,0.00000521,-0.000025
 81,-0.00000189,0.00000197,0.00000597,-0.00000098,-0.00001497,0.0000184
 1,-0.00012206,0.00005929,-0.00009833,-0.00001528,-0.00008961,0.0000353
 9,0.00003721,0.00002223,-0.00007318,0.00000184,-0.00000064,-0.00000038
 ,0.00000214,-0.00000417,0.00000080,0.00000014,-0.00001168,-0.00000504,
 -0.00000532,-0.00000400,0.00000306,0.00000065,0.00000671,0.00000317,0.
 00000318,-0.00000178,-0.00000025,-0.00000523,-0.00000206,0.00000107,0.
 00000274,-0.00000094,-0.00000057,0.00000266,0.00000079,0.00000313,0.10
 565783,0.00065067,0.00038639,0.00053449,0.00543689,-0.01001693,-0.0009
 7271,-0.00073875,-0.00037716,0.00084310,0.00004682,0.00006257,-0.00009
 054,0.00059310,-0.00006790,0.00066942,-0.00020177,0.00045035,-0.000002
 54,0.00048615,-0.00056429,-0.00011867,0.00005805,0.00053832,-0.0001293
 6,0.00000207,0.00004672,-0.00000580,-0.00002123,-0.00007761,-0.0000033
 5,-0.00003397,0.00001882,-0.00001718,0.00000963,0.00000651,0.00001572,
 0.00001160,0.00000187,-0.00002180,0.00003154,0.00004591,0.00001110,-0.
 00000065,-0.00000055,-0.00000365,-0.00000649,-0.00000389,0.00000061,-0
 .00000636,-0.00000106,-0.00000474,-0.00000872,-0.00001112,-0.00000135,
 -0.00000124,0.00000324,0.00000165,-0.00000062,0.00000373,0.00000140,0.
 10889412,-0.25229312,-0.02308737,0.00008259,-0.00006444,-0.00000504,-0
 .00022200,0.00029513,-0.00002546,-0.00067021,0.00004972,-0.00037671,-0
 .00096870,0.00023890,-0.00235090,-0.00025556,0.00027057,0.00033409,-0.
 00033579,0.00014017,0.00017811,-0.00000187,-0.00000400,0.00000777,0.00
 000339,0.00000672,-0.00000480,-0.00000258,0.00000349,-0.00000437,0.000
 03428,-0.00000702,0.00000703,-0.00000268,0.00001590,-0.00000706,-0.000
 00455,0.00000297,0.00001557,0.00000184,0.00000064,0.00000287,0.0000015
 6,0.00000027,-0.00000113,-0.00000070,0.00000798,0.00000045,0.00000400,
 0.00000386,-0.00000061,-0.00000065,-0.00000523,0.00000136,-0.00000148,
 -0.00000116,0.00000036,0.00000375,0.00000286,-0.00000036,-0.00000112,-
 0.00000090,-0.00000013,-0.00000118,-0.00000139,-0.00000031,-0.11955801
 ,0.27197262,0.00124513,0.00041224,0.00129180,0.01527147,-0.02772069,-0
 .00142245,0.00026012,-0.00059679,0.00153504,-0.00031066,0.00017166,0.0
 0028175,0.00101122,0.00044603,-0.00096773,-0.00076788,0.00028571,0.000
 07075,0.00076534,-0.00040028,0.00005826,-0.00001346,0.00042581,-0.0000
 5136,-0.00004653,0.00002661,0.00000762,0.00005594,-0.00002931,0.000013
 17,-0.00001200,0.00006328,-0.00000638,-0.00001389,-0.00002427,-0.00002
 458,-0.00000436,-0.00002396,0.00002266,-0.00006073,0.00001084,-0.00002
 011,0.00001239,-0.00001025,0.00000729,0.00001306,-0.00001124,-0.000003
 38,-0.00000014,0.00000183,-0.00000141,-0.00000416,-0.00001046,-0.00000
 419,-0.00000020,0.00000469,0.00000249,0.00000032,0.00000451,0.00000371
 ,0.01112711,-0.02324978,-0.04851153,-0.00009825,0.00007367,-0.00005759
 ,0.00003445,0.00036320,0.00003114,-0.00069267,0.00032175,0.00016476,-0
 .00100938,-0.00226101,-0.00571618,-0.00071719,0.00074863,-0.00073103,-
 0.00025317,-0.00003797,0.00026225,0.00000549,0.00000307,-0.00000328,-0
 .00001110,-0.00000557,0.00000631,0.00000797,0.00002075,-0.00000430,-0.
 00000778,0.00001749,0.00000777,0.00000864,0.00002296,0.00001572,-0.000
 01182,-0.00000119,-0.00001019,-0.00000379,0.00000187,-0.00000291,-0.00
 000510,-0.00000088,0.00000054,-0.00000001,0.00000196,-0.00000233,0.000
 00307,0.00000061,-0.00000066,0.00000082,-0.00000556,-0.00000423,-0.000
 00378,0.00000175,0.00000297,0.00000130,-0.00000078,0.00000008,-0.00000
 322,0.00000176,0.00000152,0.00000097,-0.00000062,-0.00000099,-0.012568
 93,0.02708192,0.05242568,0.00104398,-0.00058417,-0.00083007,-0.0010360
 2,0.00004703,-0.00002023,-0.00062787,-0.00052312,0.00013534,0.00000232
 ,0.00007501,-0.00007450,-0.00038222,-0.00010876,-0.00023033,0.00022784
 ,0.00029598,-0.00010675,-0.00026288,0.00022878,0.00063473,0.00004239,-
 0.00041173,0.00132912,0.00003622,0.00015025,-0.00018260,0.00000681,-0.
 00033545,0.00001705,0.00006908,-0.00004020,-0.00000193,-0.00004479,0.0
 0001908,0.00001534,-0.00003970,0.00006945,-0.00014330,0.00010821,0.000
 14415,0.00007044,-0.00001278,0.00001501,-0.00000889,-0.00005109,0.0000
 5554,-0.00003464,-0.00000668,-0.00000769,0.00001042,0.00000105,0.00000
 158,0.00000405,0.00000150,-0.00000229,-0.00000072,-0.00000006,-0.00000
 123,-0.00000610,-0.30733513,-0.02908609,-0.06132181,0.00009296,0.00014
 169,0.00011408,-0.00021290,0.00002917,0.00010680,0.00017800,0.00000240
 ,0.00015815,0.00059806,-0.00000218,-0.00016836,0.00006750,-0.00008005,
 -0.00006165,0.00003851,0.00000694,-0.00003206,0.00000013,-0.00000338,0
 .00001377,0.00000141,-0.00001357,-0.00000057,0.00000064,0.00000636,-0.
 00001218,0.00009967,-0.00001901,0.00004426,-0.00000183,0.00002835,-0.0
 0001404,-0.00001044,-0.00001463,0.00004137,0.00000620,0.00000051,0.000
 00347,0.00000579,0.00000417,-0.00000054,-0.00000116,0.00000249,-0.0000
 0128,0.00000064,0.00000064,0.00000083,0.00000116,-0.00000164,0.0000031
 3,0.00000055,-0.00000058,-0.00000148,0.00000098,0.00000082,0.00000016,
 0.00000241,-0.00000100,-0.00000044,0.00000016,-0.00000041,0.00000193,-
 0.01005000,-0.00321592,-0.00216626,0.32699936,0.00012022,-0.00063326,-
 0.00273339,-0.01202392,-0.00292257,-0.00180578,0.00023563,0.00015557,0
 .00044012,-0.00010397,-0.00007541,-0.00001244,0.00057591,-0.00019287,0
 .00008330,-0.00015536,-0.00004765,0.00000762,0.00007043,-0.00056017,0.
 00050669,-0.00005858,0.00006398,0.00021578,0.00009320,-0.00021056,0.00
 007976,-0.00015857,0.00020187,-0.00001909,-0.00008983,0.00001574,0.000
 05530,0.00003905,-0.00003417,-0.00000656,0.00006400,-0.00005268,0.0002
 5904,0.00002867,-0.00014243,-0.00001756,-0.00003713,0.00002493,0.00000
 104,-0.00000678,0.00004226,-0.00003937,0.00003758,-0.00000321,0.000025
 46,0.00003017,0.00002690,0.00001182,-0.00000542,-0.00000780,-0.0000061
 0,0.00000031,-0.00001280,-0.00001184,-0.02800046,-0.05006655,-0.006838
 50,0.00040007,0.00020656,0.00000818,-0.00083840,0.00022459,-0.00046049
 ,-0.00029583,0.00011525,-0.00011470,-0.00053965,0.00014771,0.00027195,
 -0.00015508,0.00011281,-0.00005438,-0.00012395,-0.00001167,0.00006337,
 -0.00000166,0.00000453,-0.00002645,-0.00000055,0.00001467,-0.00000561,
 0.00000092,-0.00000396,0.00000872,-0.00008404,-0.00007095,-0.00017650,
 0.00000696,-0.00001009,-0.00002035,0.00002410,0.00005664,-0.00008566,0
 .00000232,-0.00000139,0.00000072,0.00000464,-0.00000406,-0.00000036,-0
 .00000164,-0.00001644,-0.00000918,-0.00000673,-0.00000523,0.00000557,0
 .00000165,0.00000873,0.00000658,0.00000452,-0.00000260,-0.00000103,-0.
 00000734,-0.00000253,0.00000184,0.00000550,-0.00000178,-0.00000080,0.0
 0000431,0.00000114,0.00000609,0.02710035,0.00463802,0.00633494,0.03300
 323,0.05123841,0.00102659,-0.00204930,-0.00593595,-0.02985695,-0.00218
 722,-0.00494507,-0.00142053,-0.00015857,0.00114558,0.00004616,-0.00021
 828,0.00024423,-0.00039912,-0.00028194,-0.00030547,0.00128468,-0.00079
 092,0.00003657,0.00000381,0.00238171,-0.00043036,-0.00012818,-0.000370
 18,0.00056150,-0.00016526,-0.00001435,0.00008035,0.00028410,0.00019734
 ,0.00003655,0.00013170,0.00012615,0.00012939,-0.00008195,-0.00004989,-
 0.00010761,-0.00010115,-0.00003449,0.00003856,-0.00028329,-0.00007674,
 -0.00010235,0.00005485,-0.00005845,0.00002763,0.00009350,-0.00011562,0
 .00006121,-0.00001919,0.00002645,-0.00002121,-0.00001094,-0.00000954,-
 0.00002432,0.00000685,0.00000576,0.00000610,0.00000074,0.00000678,0.00
 002151,-0.05856548,-0.00702857,-0.05872722,0.00009033,-0.00017259,0.00
 014706,-0.00179123,-0.00065929,-0.00048498,0.00019455,0.00016721,0.000
 01542,0.00020392,-0.00008137,0.00108781,0.00006873,-0.00012513,0.00001
 231,0.00006565,0.00000630,0.00003625,0.00001792,0.00001852,-0.00001685
 ,-0.00001947,-0.00004498,0.00003593,0.00001379,0.00001123,0.00000334,0
 .00001317,0.00003680,0.00005729,0.00001758,0.00001600,0.00000352,-0.00
 001251,-0.00004117,-0.00001982,-0.00002129,-0.00000182,-0.00001302,-0.
 00002119,-0.00000350,0.00000036,0.00000845,-0.00000566,0.00000256,0.00
 000315,-0.00000138,-0.00000422,0.00000310,-0.00000649,-0.00002403,-0.0
 0001170,0.00000892,0.00000647,-0.00000044,-0.00000313,-0.00000195,-0.0
 0001127,0.00000737,0.00000433,-0.00000049,0.00000046,-0.00000828,0.003
 08002,0.00078400,-0.00069279,0.06568516,0.00965021,0.06338365,0.000609
 39,0.00074532,-0.00086290,-0.00014450,0.00288850,-0.00355292,-0.000462
 90,-0.00017723,-0.00120335,0.00023675,0.00001592,-0.00014695,-0.000223
 59,-0.00021395,-0.00018297,0.00047749,-0.00030458,-0.00018396,-0.00034
 374,0.00108260,0.00018791,0.00006715,-0.00049262,0.00102946,-0.0001026
 3,0.00005018,0.00002843,0.00016270,0.00003206,0.00001608,0.00009049,0.
 00001718,0.00000524,-0.00004598,-0.00000871,-0.00003631,-0.00004525,0.
 00002545,-0.00006064,-0.00011868,0.00000854,-0.00003430,0.00002861,-0.
 00002795,0.00000917,0.00004736,-0.00005705,0.00003177,-0.00001293,0.00
 000726,-0.00001547,-0.00001218,-0.00001545,-0.00001202,0.00000366,0.00
 000590,0.00000478,0.00000069,0.00000646,0.00001342,-0.08795585,-0.0703
 1087,0.07355722,0.00017300,-0.00026046,0.00001820,0.00000536,0.0001225
 9,0.00015107,-0.00002634,0.00009070,-0.00004116,-0.00003942,-0.0001125
 7,0.00038818,0.00015144,-0.00015083,0.00021266,0.00011665,-0.00003792,
 -0.00004205,0.00000665,0.00000495,0.00000079,-0.00000727,-0.00002224,0
 .00001374,0.00000526,0.00000473,-0.00000007,0.00002260,0.00003675,0.00
 005502,0.00000119,-0.00000448,0.00001378,-0.00000446,-0.00003269,0.000
 01252,-0.00000784,-0.00000051,-0.00000501,-0.00000931,-0.00000057,0.00
 000043,0.00000489,0.00000260,0.00000457,0.00000319,0.00000147,-0.00000
 377,0.00000054,-0.00000448,-0.00001172,-0.00000540,0.00000365,0.000003
 22,0.00000211,0.00000022,-0.00000157,-0.00000654,0.00000307,0.00000223
 ,-0.00000225,-0.00000037,-0.00000643,0.00563548,0.00991073,-0.01103836
 ,-0.00955796,-0.01915884,0.02052314,0.09128238,0.00038173,0.00056065,-
 0.00030026,0.00537182,0.00809670,-0.01016424,-0.00052635,-0.00098137,-
 0.00277275,0.00028171,0.00040995,-0.00053916,0.00016110,0.00003286,-0.
 00007796,-0.00023498,0.00019479,-0.00000842,0.00051276,-0.00006529,0.0
 0000282,-0.00021626,-0.00004070,0.00040896,-0.00006320,0.00003333,0.00
 000104,0.00010395,-0.00002835,0.00002246,0.00002898,0.00002800,-0.0000
 3152,-0.00002027,-0.00000025,-0.00001437,-0.00003978,-0.00000265,-0.00
 006114,-0.00009223,0.00001871,-0.00002068,0.00002913,-0.00002080,0.000
 01112,0.00002747,-0.00002139,0.00000898,-0.00000665,0.00000612,-0.0000
 0571,-0.00000212,-0.00000509,-0.00000813,0.00000107,0.00000293,0.00000
 271,0.00000048,0.00000291,0.00000812,-0.07014674,-0.15710069,0.1183726
 7,0.00007415,0.00011774,0.00026186,0.00024560,0.00008322,-0.00000771,-
 0.00007819,-0.00012242,0.00011835,0.00025348,0.00068185,0.00049692,-0.
 00032653,0.00025049,-0.00012196,-0.00018108,0.00003390,0.00015175,0.00
 000268,0.00000213,0.00000651,-0.00000763,-0.00000834,0.00000400,0.0000
 0677,0.00001441,-0.00000803,0.00005649,0.00000080,0.00006128,0.0000125
 8,0.00004671,-0.00000645,-0.00002435,-0.00001696,0.00002570,-0.0000059
 6,0.00000038,-0.00000519,-0.00000806,0.00000018,0.00000132,0.00000240,
 -0.00000162,0.00000101,0.00000178,-0.00000116,-0.00000175,0.00000058,-
 0.00000257,-0.00000893,-0.00000365,0.00000379,0.00000297,-0.00000020,-
 0.00000201,-0.00000068,-0.00000414,0.00000326,0.00000200,0.00000039,0.
 00000023,-0.00000333,-0.01202071,-0.01571648,0.01754110,0.00012445,-0.
 00220747,0.00113935,0.07632754,0.16571955,0.00107170,0.00123469,0.0013
 4865,0.01167991,0.02036708,-0.01989901,-0.00133525,-0.00423227,-0.0048
 5013,0.00080026,0.00106339,-0.00143924,0.00021425,-0.00064457,0.000070
 00,-0.00011461,0.00037579,-0.00012423,0.00003606,-0.00040064,0.0002141
 8,-0.00058774,-0.00011626,0.00059595,0.00006775,-0.00006034,0.00005049
 ,-0.00011287,0.00005995,-0.00002941,-0.00006268,0.00000989,-0.00005011
 ,0.00005370,0.00002483,0.00003907,0.00005654,0.00002882,-0.00005862,0.
 00008361,-0.00002505,0.00001964,-0.00001494,0.00001785,-0.00000724,-0.
 00001309,0.00003071,-0.00001490,0.00001112,-0.00000557,0.00000990,0.00
 000724,0.00000937,0.00000217,-0.00000872,-0.00000097,-0.00000209,-0.00
 000121,-0.00000409,-0.00000410,0.07260566,0.11661381,-0.16550798,-0.00
 087528,-0.00066549,0.00004170,0.00016093,-0.00027458,0.00047259,-0.000
 09841,-0.00000522,-0.00004994,0.00032126,-0.00016903,0.00088460,-0.000
 06698,0.00005136,0.00024313,-0.00007424,0.00005937,0.00002936,-0.00001
 354,-0.00000656,0.00000860,0.00001260,0.00002235,-0.00001555,-0.000009
 81,-0.00001992,0.00000269,0.00001917,-0.00000420,0.00002589,-0.0000044
 8,-0.00000844,-0.00001345,-0.00000251,0.00001684,0.00003676,0.00000625
 ,0.00000009,0.00000473,0.00000523,-0.00000087,-0.00000061,-0.00000346,
 -0.00000050,-0.00000325,-0.00000025,-0.00000036,0.00000297,-0.00000146
 ,0.00000100,0.00000648,0.00000321,-0.00000297,-0.00000168,-0.00000085,
 0.00000053,0.00000072,0.00000349,-0.00000200,-0.00000259,0.00000218,-0
 .00000008,0.00000519,-0.00200974,-0.00325510,0.00202633,-0.00296884,-0
 .00559799,0.00468001,-0.07884112,-0.12448466,0.18125231\\0.00051335,0.
 00101435,-0.00175125,-0.00006174,-0.00110339,0.00307714,-0.01527826,-0
 .01051126,-0.00501099,0.00373026,-0.00091373,0.00243669,-0.00114950,-0
 .00543888,0.00028903,0.02057027,-0.01370880,0.00385190,-0.00264069,0.0
 3057943,0.00033504,-0.00614596,0.00087326,-0.00143680,0.00614567,0.000
 85325,0.00145202,0.00266215,0.03058622,-0.00034050,-0.00000682,-0.0001
 1588,0.00000216,0.00048288,-0.00074330,-0.00193971,-0.00048283,-0.0007
 3363,0.00193668,-0.02058667,-0.01370486,-0.00386801,0.00115217,-0.0054
 4015,-0.00028009,0.01527472,-0.01050435,0.00501979,-0.00372962,-0.0009
 1291,-0.00244180,0.00005648,-0.00108706,-0.00308617,0.00075311,0.00156
 391,0.00132760,-0.00051647,0.00099671,0.00176508,-0.00075050,0.0015766
 7,-0.00132478,0.00093594,0.00031748,-0.00019616,0.00058729,-0.00033318
 ,0.00051564,-0.00054584,0.00026164,0.00024366,-0.00034088,-0.00026917,
 -0.00237794,0.00105908,-0.00038621,0.00009338,0.00100533,-0.00029215,0
 .00037168,0.00003512,0.00027286,-0.00026098,-0.00040062,-0.00031348,0.
 00033045,0.00020732,-0.00032265,0.00045228,-0.00003577,0.00027203,0.00
 025867,0.00040661,-0.00031899,-0.00032888,-0.00021056,-0.00032368,-0.0
 0045265,-0.00100668,-0.00028865,-0.00037414,-0.00105863,-0.00039015,-0
 .00009396,0.00034275,-0.00028084,0.00238002,0.00030710,0.00054111,-0.0
 0061078,-0.00031658,-0.00126913,-0.00237303,-0.00130362,0.00024424,0.0
 0048551,0.00054725,0.00026516,-0.00024394,-0.00093402,0.00031710,0.000
 19353,-0.00058878,-0.00032866,-0.00052491,-0.00030593,0.00053777,0.000
 61308,0.00031758,-0.00128149,0.00237323,0.00130455,0.00024346,-0.00048
 681\\\@

 Writing a WFNX file to "30_lig_b.wfx"


 SIGN SEEN IN A RESTAURANT-
 WE RESERVE THE RIGHT TO SERVE REFUSE TO ANYONE.
 Job cpu time:       0 days  3 hours 30 minutes  7.5 seconds.
 Elapsed time:       0 days  0 hours 26 minutes 16.6 seconds.
 File lengths (MBytes):  RWF=    754 Int=      0 D2E=      0 Chk=     12 Scr=      1
 Normal termination of Gaussian 16 at Thu Nov  3 08:30:45 2022.
