 Entering Gaussian System, Link 0=g16
 Initial command:
 /software/gaussian/G16-A.03/avx/g16/l1.exe "/scratch/lcmd/1380807.slurm/Gau-6930.inp" -scrdir="/scratch/lcmd/1380807.slurm/"
 Entering Link 1 = /software/gaussian/G16-A.03/avx/g16/l1.exe PID=      6933.
  
 Copyright (c) 1988,1990,1992,1993,1995,1998,2003,2009,2016,
            Gaussian, Inc.  All Rights Reserved.
  
 This is part of the Gaussian(R) 16 program.  It is based on
 the Gaussian(R) 09 system (copyright 2009, Gaussian, Inc.),
 the Gaussian(R) 03 system (copyright 2003, Gaussian, Inc.),
 the Gaussian(R) 98 system (copyright 1998, Gaussian, Inc.),
 the Gaussian(R) 94 system (copyright 1995, Gaussian, Inc.),
 the Gaussian 92(TM) system (copyright 1992, Gaussian, Inc.),
 the Gaussian 90(TM) system (copyright 1990, Gaussian, Inc.),
 the Gaussian 88(TM) system (copyright 1988, Gaussian, Inc.),
 the Gaussian 86(TM) system (copyright 1986, Carnegie Mellon
 University), and the Gaussian 82(TM) system (copyright 1983,
 Carnegie Mellon University). Gaussian is a federally registered
 trademark of Gaussian, Inc.
  
 This software contains proprietary and confidential information,
 including trade secrets, belonging to Gaussian, Inc.
  
 This software is provided under written license and may be
 used, copied, transmitted, or stored only in accord with that
 written license.
  
 The following legend is applicable only to US Government
 contracts under FAR:
  
                    RESTRICTED RIGHTS LEGEND
  
 Use, reproduction and disclosure by the US Government is
 subject to restrictions as set forth in subparagraphs (a)
 and (c) of the Commercial Computer Software - Restricted
 Rights clause in FAR 52.227-19.
  
 Gaussian, Inc.
 340 Quinnipiac St., Bldg. 40, Wallingford CT 06492
  
  
 ---------------------------------------------------------------
 Warning -- This program may not be used in any manner that
 competes with the business of Gaussian, Inc. or will provide
 assistance to any competitor of Gaussian, Inc.  The licensee
 of this program is prohibited from giving any competitor of
 Gaussian, Inc. access to this program.  By using this program,
 the user acknowledges that Gaussian, Inc. is engaged in the
 business of creating and licensing software in the field of
 computational chemistry and represents and warrants to the
 licensee that it is not a competitor of Gaussian, Inc. and that
 it will not use this program in any manner prohibited above.
 ---------------------------------------------------------------
  

 Cite this work as:
 Gaussian 16, Revision A.03,
 M. J. Frisch, G. W. Trucks, H. B. Schlegel, G. E. Scuseria, 
 M. A. Robb, J. R. Cheeseman, G. Scalmani, V. Barone, 
 G. A. Petersson, H. Nakatsuji, X. Li, M. Caricato, A. V. Marenich, 
 J. Bloino, B. G. Janesko, R. Gomperts, B. Mennucci, H. P. Hratchian, 
 J. V. Ortiz, A. F. Izmaylov, J. L. Sonnenberg, D. Williams-Young, 
 F. Ding, F. Lipparini, F. Egidi, J. Goings, B. Peng, A. Petrone, 
 T. Henderson, D. Ranasinghe, V. G. Zakrzewski, J. Gao, N. Rega, 
 G. Zheng, W. Liang, M. Hada, M. Ehara, K. Toyota, R. Fukuda, 
 J. Hasegawa, M. Ishida, T. Nakajima, Y. Honda, O. Kitao, H. Nakai, 
 T. Vreven, K. Throssell, J. A. Montgomery, Jr., J. E. Peralta, 
 F. Ogliaro, M. J. Bearpark, J. J. Heyd, E. N. Brothers, K. N. Kudin, 
 V. N. Staroverov, T. A. Keith, R. Kobayashi, J. Normand, 
 K. Raghavachari, A. P. Rendell, J. C. Burant, S. S. Iyengar, 
 J. Tomasi, M. Cossi, J. M. Millam, M. Klene, C. Adamo, R. Cammi, 
 J. W. Ochterski, R. L. Martin, K. Morokuma, O. Farkas, 
 J. B. Foresman, and D. J. Fox, Gaussian, Inc., Wallingford CT, 2016.
 
 ******************************************
 Gaussian 16:  ES64L-G16RevA.03 25-Dec-2016
                 8-Dec-2022 
 ******************************************
 %nprocs=8
 Will use up to    8 processors via shared memory.
 %mem=32000MB
 %chk=03_lig.chk
 ----------------------------------------------------------------------
 #p pop=(regular,nbo,savenbos) freq=noraman def2svp empiricaldispersion
 =gd3bj output=wfx pbe1pbe
 ----------------------------------------------------------------------
 1/10=4,30=1,38=1/1,3;
 2/12=2,17=6,18=5,40=1/2;
 3/5=43,7=101,11=2,25=1,30=1,71=2,74=-13,124=41,140=1/1,2,3;
 4//1;
 5/5=2,38=5,98=1/2;
 8/6=4,10=90,11=11/1;
 11/6=1,8=1,9=11,15=111,16=1/1,2,10;
 10/6=1/2;
 6/28=1,40=1,73=1/1,7;
 7/8=1,10=1,25=1/1,2,3,16;
 1/10=4,30=1/3;
 99/6=200/99;
 Leave Link    1 at Thu Dec  8 09:05:35 2022, MaxMem=  4194304000 cpu:               0.4 elap:               0.1
 (Enter /software/gaussian/G16-A.03/avx/g16/l101.exe)
 ------
 03_lig
 ------
 Symbolic Z-matrix:
 Charge =  0 Multiplicity = 1
 C                    -0.45996   2.34868   0.04012 
 H                     0.02107   2.32783   1.03834 
 C                     0.67353   2.10921  -0.98137 
 H                     0.18598   1.97976  -1.96672 
 C                     1.64085   3.28522  -1.03171 
 C                     0.91522   4.60849  -1.24157 
 C                    -0.1555    4.82979  -0.18308 
 C                    -1.15662   3.68171  -0.17518 
 N                     1.28177   0.82681  -0.6505 
 C                     2.51752   0.59141  -0.82949 
 C                     3.14237  -0.67693  -0.42932 
 C                     2.6156   -1.94366  -0.73081 
 C                     3.22303  -3.10914  -0.27415 
 C                     4.38018  -3.02335   0.49219 
 C                     4.94336  -1.78677   0.7926 
 C                     4.32566  -0.63349   0.32604 
 Cl                    5.01165   0.90283   0.73315 
 Cl                    1.19687  -2.09524  -1.70981 
 N                    -1.28969   1.16399  -0.01557 
 C                    -2.55503   1.18778  -0.0763 
 C                    -3.33682  -0.05209  -0.21752 
 C                    -4.36079  -0.33111   0.69661 
 C                    -5.10292  -1.50446   0.63836 
 C                    -4.83264  -2.41964  -0.37379 
 C                    -3.84186  -2.16564  -1.31593 
 C                    -3.10037  -0.99266  -1.23071 
 Cl                   -1.8901   -0.70963  -2.43775 
 Cl                   -4.67357   0.80535   1.96724 
 H                     2.37757   3.13868  -1.83699 
 H                     2.20253   3.30621  -0.08105 
 H                     0.44727   4.61625  -2.24214 
 H                     1.64445   5.43326  -1.23454 
 H                    -0.67843   5.78319  -0.35495 
 H                     0.31972   4.90719   0.81021 
 H                    -1.69938   3.6578   -1.13793 
 H                    -1.90953   3.83729   0.61371 
 H                     3.19392   1.35653  -1.23528 
 H                     2.77484  -4.07226  -0.51902 
 H                     4.85091  -3.9363    0.86276 
 H                     5.84584  -1.705     1.39889 
 H                    -3.1266    2.1281   -0.01769 
 H                    -5.87181  -1.69391   1.38783 
 H                    -5.40319  -3.34914  -0.42824 
 H                    -3.6235   -2.87728  -2.11231 
 
 ITRead=  0  0  0  0  0  0  0  0  0  0  0  0  0  0  0  0  0  0  0  0
 ITRead=  0  0  0  0  0  0  0  0  0  0  0  0  0  0  0  0  0  0  0  0
 ITRead=  0  0  0  0
 MicOpt= -1 -1 -1 -1 -1 -1 -1 -1 -1 -1 -1 -1 -1 -1 -1 -1 -1 -1 -1 -1
 MicOpt= -1 -1 -1 -1 -1 -1 -1 -1 -1 -1 -1 -1 -1 -1 -1 -1 -1 -1 -1 -1
 MicOpt= -1 -1 -1 -1
 NAtoms=     44 NQM=       44 NQMF=       0 NMMI=      0 NMMIF=      0
                NMic=       0 NMicF=      0.
                    Isotopes and Nuclear Properties:
 (Nuclear quadrupole moments (NQMom) in fm**2, nuclear magnetic moments (NMagM)
  in nuclear magnetons)

  Atom         1           2           3           4           5           6           7           8           9          10
 IAtWgt=          12           1          12           1          12          12          12          12          14          12
 AtmWgt=  12.0000000   1.0078250  12.0000000   1.0078250  12.0000000  12.0000000  12.0000000  12.0000000  14.0030740  12.0000000
 NucSpn=           0           1           0           1           0           0           0           0           2           0
 AtZEff=  -0.0000000  -0.0000000  -0.0000000  -0.0000000  -0.0000000  -0.0000000  -0.0000000  -0.0000000  -0.0000000  -0.0000000
 NQMom=    0.0000000   0.0000000   0.0000000   0.0000000   0.0000000   0.0000000   0.0000000   0.0000000   2.0440000   0.0000000
 NMagM=    0.0000000   2.7928460   0.0000000   2.7928460   0.0000000   0.0000000   0.0000000   0.0000000   0.4037610   0.0000000
 AtZNuc=   6.0000000   1.0000000   6.0000000   1.0000000   6.0000000   6.0000000   6.0000000   6.0000000   7.0000000   6.0000000

  Atom        11          12          13          14          15          16          17          18          19          20
 IAtWgt=          12          12          12          12          12          12          35          35          14          12
 AtmWgt=  12.0000000  12.0000000  12.0000000  12.0000000  12.0000000  12.0000000  34.9688527  34.9688527  14.0030740  12.0000000
 NucSpn=           0           0           0           0           0           0           3           3           2           0
 AtZEff=  -0.0000000  -0.0000000  -0.0000000  -0.0000000  -0.0000000  -0.0000000  -0.0000000  -0.0000000  -0.0000000  -0.0000000
 NQMom=    0.0000000   0.0000000   0.0000000   0.0000000   0.0000000   0.0000000  -8.1650000  -8.1650000   2.0440000   0.0000000
 NMagM=    0.0000000   0.0000000   0.0000000   0.0000000   0.0000000   0.0000000   0.8218740   0.8218740   0.4037610   0.0000000
 AtZNuc=   6.0000000   6.0000000   6.0000000   6.0000000   6.0000000   6.0000000  17.0000000  17.0000000   7.0000000   6.0000000

  Atom        21          22          23          24          25          26          27          28          29          30
 IAtWgt=          12          12          12          12          12          12          35          35           1           1
 AtmWgt=  12.0000000  12.0000000  12.0000000  12.0000000  12.0000000  12.0000000  34.9688527  34.9688527   1.0078250   1.0078250
 NucSpn=           0           0           0           0           0           0           3           3           1           1
 AtZEff=  -0.0000000  -0.0000000  -0.0000000  -0.0000000  -0.0000000  -0.0000000  -0.0000000  -0.0000000  -0.0000000  -0.0000000
 NQMom=    0.0000000   0.0000000   0.0000000   0.0000000   0.0000000   0.0000000  -8.1650000  -8.1650000   0.0000000   0.0000000
 NMagM=    0.0000000   0.0000000   0.0000000   0.0000000   0.0000000   0.0000000   0.8218740   0.8218740   2.7928460   2.7928460
 AtZNuc=   6.0000000   6.0000000   6.0000000   6.0000000   6.0000000   6.0000000  17.0000000  17.0000000   1.0000000   1.0000000

  Atom        31          32          33          34          35          36          37          38          39          40
 IAtWgt=           1           1           1           1           1           1           1           1           1           1
 AtmWgt=   1.0078250   1.0078250   1.0078250   1.0078250   1.0078250   1.0078250   1.0078250   1.0078250   1.0078250   1.0078250
 NucSpn=           1           1           1           1           1           1           1           1           1           1
 AtZEff=  -0.0000000  -0.0000000  -0.0000000  -0.0000000  -0.0000000  -0.0000000  -0.0000000  -0.0000000  -0.0000000  -0.0000000
 NQMom=    0.0000000   0.0000000   0.0000000   0.0000000   0.0000000   0.0000000   0.0000000   0.0000000   0.0000000   0.0000000
 NMagM=    2.7928460   2.7928460   2.7928460   2.7928460   2.7928460   2.7928460   2.7928460   2.7928460   2.7928460   2.7928460
 AtZNuc=   1.0000000   1.0000000   1.0000000   1.0000000   1.0000000   1.0000000   1.0000000   1.0000000   1.0000000   1.0000000

  Atom        41          42          43          44
 IAtWgt=           1           1           1           1
 AtmWgt=   1.0078250   1.0078250   1.0078250   1.0078250
 NucSpn=           1           1           1           1
 AtZEff=  -0.0000000  -0.0000000  -0.0000000  -0.0000000
 NQMom=    0.0000000   0.0000000   0.0000000   0.0000000
 NMagM=    2.7928460   2.7928460   2.7928460   2.7928460
 AtZNuc=   1.0000000   1.0000000   1.0000000   1.0000000
 Leave Link  101 at Thu Dec  8 09:05:35 2022, MaxMem=  4194304000 cpu:               1.2 elap:               0.2
 (Enter /software/gaussian/G16-A.03/avx/g16/l103.exe)

 GradGradGradGradGradGradGradGradGradGradGradGradGradGradGradGradGradGrad
 Berny optimization.
 Initialization pass.
 Trust Radius=3.00D-01 FncErr=1.00D-07 GrdErr=1.00D-07 EigMax=2.50D+02 EigMin=1.00D-04
 Number of steps in this run=      2 maximum allowed number of steps=      2.
 GradGradGradGradGradGradGradGradGradGradGradGradGradGradGradGradGradGrad

 Leave Link  103 at Thu Dec  8 09:05:35 2022, MaxMem=  4194304000 cpu:               0.3 elap:               0.1
 (Enter /software/gaussian/G16-A.03/avx/g16/l202.exe)
                          Input orientation:                          
 ---------------------------------------------------------------------
 Center     Atomic      Atomic             Coordinates (Angstroms)
 Number     Number       Type             X           Y           Z
 ---------------------------------------------------------------------
      1          6           0       -0.459960    2.348680    0.040120
      2          1           0        0.021070    2.327830    1.038340
      3          6           0        0.673530    2.109210   -0.981370
      4          1           0        0.185980    1.979760   -1.966720
      5          6           0        1.640850    3.285220   -1.031710
      6          6           0        0.915220    4.608490   -1.241570
      7          6           0       -0.155500    4.829790   -0.183080
      8          6           0       -1.156620    3.681710   -0.175180
      9          7           0        1.281770    0.826810   -0.650500
     10          6           0        2.517520    0.591410   -0.829490
     11          6           0        3.142370   -0.676930   -0.429320
     12          6           0        2.615600   -1.943660   -0.730810
     13          6           0        3.223030   -3.109140   -0.274150
     14          6           0        4.380180   -3.023350    0.492190
     15          6           0        4.943360   -1.786770    0.792600
     16          6           0        4.325660   -0.633490    0.326040
     17         17           0        5.011650    0.902830    0.733150
     18         17           0        1.196870   -2.095240   -1.709810
     19          7           0       -1.289690    1.163990   -0.015570
     20          6           0       -2.555030    1.187780   -0.076300
     21          6           0       -3.336820   -0.052090   -0.217520
     22          6           0       -4.360790   -0.331110    0.696610
     23          6           0       -5.102920   -1.504460    0.638360
     24          6           0       -4.832640   -2.419640   -0.373790
     25          6           0       -3.841860   -2.165640   -1.315930
     26          6           0       -3.100370   -0.992660   -1.230710
     27         17           0       -1.890100   -0.709630   -2.437750
     28         17           0       -4.673570    0.805350    1.967240
     29          1           0        2.377570    3.138680   -1.836990
     30          1           0        2.202530    3.306210   -0.081050
     31          1           0        0.447270    4.616250   -2.242140
     32          1           0        1.644450    5.433260   -1.234540
     33          1           0       -0.678430    5.783190   -0.354950
     34          1           0        0.319720    4.907190    0.810210
     35          1           0       -1.699380    3.657800   -1.137930
     36          1           0       -1.909530    3.837290    0.613710
     37          1           0        3.193920    1.356530   -1.235280
     38          1           0        2.774840   -4.072260   -0.519020
     39          1           0        4.850910   -3.936300    0.862760
     40          1           0        5.845840   -1.705000    1.398890
     41          1           0       -3.126600    2.128100   -0.017690
     42          1           0       -5.871810   -1.693910    1.387830
     43          1           0       -5.403190   -3.349140   -0.428240
     44          1           0       -3.623500   -2.877280   -2.112310
 ---------------------------------------------------------------------
                    Distance matrix (angstroms):
                    1          2          3          4          5
     1  C    0.000000
     2  H    1.108272   0.000000
     3  C    1.544535   2.133712   0.000000
     4  H    2.140268   3.029642   1.106967   0.000000
     5  C    2.537583   2.797390   1.523562   2.166822   0.000000
     6  C    2.939488   3.346476   2.524385   2.822739   1.523688
     7  C    2.509666   2.789776   2.954000   3.379445   2.516494
     8  C    1.519427   2.166235   2.544042   2.812263   2.952403
     9  N    2.413849   2.587394   1.457388   2.064579   2.513571
    10  C    3.565054   3.568782   2.393133   2.942259   2.840080
    11  C    4.727734   4.574399   3.763311   4.261671   4.279728
    12  C    5.336439   5.301613   4.501130   4.777421   5.327463
    13  C    6.591736   6.444829   5.850751   6.163227   6.630613
    14  C    7.245000   6.923529   6.500293   6.976293   7.044449
    15  C    6.845732   6.420223   6.046245   6.665828   6.321373
    16  C    5.645994   5.273166   4.750766   5.405809   4.940443
    17  Cl   5.701692   5.199005   4.818113   5.633486   4.489188
    18  Cl   5.055271   5.338388   4.299059   4.206367   5.441166
    19  N    1.447427   2.045322   2.383368   2.578773   3.757688
    20  C    2.398033   3.029592   3.477324   3.422580   4.787220
    21  C    3.755849   4.303095   4.619263   4.426989   6.047954
    22  C    4.777942   5.136870   5.840818   5.753830   7.216967
    23  C    6.063139   6.411061   7.003536   6.848262   8.438519
    24  C    6.482941   6.934773   7.155246   6.861391   8.653575
    25  C    5.801311   6.376213   6.226959   5.816473   7.736457
    26  C    4.444246   5.090936   4.891430   4.491891   6.388977
    27  Cl   4.187887   4.996192   4.079105   3.429985   5.513926
    28  Cl   4.883663   5.021996   6.243863   6.361643   7.417234
    29  H    3.492738   3.805009   2.166944   2.482537   1.101229
    30  H    2.832031   2.639892   2.140380   3.062955   1.104391
    31  H    3.342701   4.022445   2.815312   2.663683   2.159031
    32  H    3.945622   4.176726   3.472188   3.819671   2.157598
    33  H    3.464054   3.790788   3.964635   4.220318   3.475186
    34  H    2.783328   2.606594   3.341202   4.037211   2.787264
    35  H    2.153546   3.076511   2.837841   2.656557   3.362623
    36  H    2.155509   2.487166   3.493242   3.807913   3.951884
    37  H    3.995228   4.022406   2.642605   3.157709   2.484615
    38  H    7.211452   7.139312   6.545215   6.739805   7.461990
    39  H    8.269404   7.911859   7.576246   8.047813   8.126737
    40  H    7.618510   7.093776   6.853220   7.545780   6.963624
    41  H    2.676372   3.326096   3.920462   3.846285   5.009565
    42  H    6.888177   7.143009   7.932106   7.838729   9.331986
    43  H    7.557780   7.987580   8.186945   7.874193   9.695226
    44  H    6.477005   7.092437   6.678965   6.174477   8.176643
                    6          7          8          9         10
     6  C    0.000000
     7  C    1.521781   0.000000
     8  C    2.507714   1.523283   0.000000
     9  N    3.845104   4.278794   3.784459   0.000000
    10  C    4.344434   5.052400   4.845346   1.270641   0.000000
    11  C    5.792721   6.423437   6.127287   2.402496   1.469442
    12  C    6.788434   7.338844   6.795819   3.075883   2.538885
    13  C    8.113181   8.628405   8.081261   4.404751   3.807915
    14  C    8.559022   9.093965   8.721202   5.072437   4.275843
    15  C    7.827075   8.410065   8.249280   4.724466   3.764521
    16  C    6.447236   7.084308   6.994824   3.514452   2.470830
    17  Cl   5.866189   6.554383   6.826038   3.978979   2.959647
    18  Cl   6.725962   7.219131   6.423952   3.109296   3.120444
    19  N    4.269577   3.840903   2.526281   2.670062   3.935119
    20  C    5.010164   4.362727   2.860946   3.896285   5.162724
    21  C    6.391364   5.827069   4.323925   4.721367   5.921309
    22  C    7.482812   6.715148   5.208594   5.915570   7.105714
    23  C    8.781817   8.079261   6.567457   6.918110   8.038555
    24  C    9.120611   8.629383   7.125941   6.928349   7.956063
    25  C    8.277933   7.988031   6.534778   5.970690   6.948357
    26  C    6.891877   6.608382   5.171271   4.780195   5.850722
    27  Cl   6.130503   6.227162   4.994105   3.951667   4.868914
    28  Cl   7.482975   6.421289   5.023181   6.505313   7.718759
    29  H    2.157159   3.465792   3.942968   2.820156   2.742850
    30  H    2.167927   2.809272   3.381383   2.705457   2.833641
    31  H    1.104617   2.156075   2.778156   4.193991   4.741398
    32  H    1.100941   2.170153   3.469318   4.657469   4.936581
    33  H    2.169271   1.100894   2.162684   5.338112   6.115052
    34  H    2.157230   1.103834   2.156936   4.439450   5.113208
    35  H    2.784005   2.160756   1.105463   4.139970   5.223038
    36  H    3.466414   2.167153   1.101556   4.565700   5.676032
    37  H    3.970864   4.938550   5.045540   2.068547   1.098904
    38  H    8.907058   9.377966   8.700497   5.123225   4.681071
    39  H    9.640088  10.149003   9.757142   6.141330   5.367362
    40  H    8.434643   9.012336   8.973783   5.607209   4.617022
    41  H    4.897604   4.019194   2.513827   4.639777   5.905635
    42  H    9.627968   8.814909   7.319379   7.853822   8.973297
    43  H   10.193512   9.720764   8.217679   7.885217   8.855878
    44  H    8.797438   8.668788   7.270373   6.318136   7.168651
                   11         12         13         14         15
    11  C    0.000000
    12  C    1.404631   0.000000
    13  C    2.438489   1.391349   0.000000
    14  C    2.808388   2.403165   1.390551   0.000000
    15  C    2.443031   2.786370   2.417882   1.391599   0.000000
    16  C    1.404504   2.399538   2.775764   2.396249   1.388988
    17  Cl   2.709462   3.998342   4.506630   3.983931   2.691124
    18  Cl   2.726945   1.730379   2.682245   3.980409   4.515905
    19  N    4.816984   5.041859   6.220221   7.066758   6.943417
    20  C    6.005176   6.080273   7.203377   8.133507   8.113494
    21  C    6.512694   6.266802   7.237430   8.299648   8.520026
    22  C    7.595046   7.301223   8.134750   9.148470   9.417822
    23  C    8.355211   7.851310   8.528137   9.605081  10.051429
    24  C    8.163388   7.471968   8.085738   9.273103   9.865656
    25  C    7.195957   6.487714   7.203344   8.462086   9.042651
    26  C    6.301882   5.816065   6.736459   7.940448   8.332226
    27  Cl   5.418544   4.973712   6.048381   7.297552   7.634891
    28  Cl   8.308404   8.244303   9.094138   9.940076  10.029168
    29  H    4.138277   5.206772   6.495577   6.885212   6.144760
    30  H    4.107310   5.306030   6.498879   6.718191   5.849261
    31  H    6.210285   7.072354   8.441533   9.017085   8.391849
    32  H    6.342442   7.457602   8.739958   9.054285   8.192737
    33  H    7.505811   8.408098   9.710893  10.191287   9.498720
    34  H    6.378572   7.387825   8.594568   8.915264   8.135567
    35  H    6.537167   7.082454   8.412355   9.179113   8.803197
    36  H    6.854764   7.463506   8.682417   9.308254   8.867026
    37  H    2.187964   3.388244   4.568022   4.855380   4.129549
    38  H    3.416342   2.145029   1.090154   2.167919   3.412666
    39  H    3.900266   3.392151   2.150988   1.091965   2.152661
    40  H    3.421700   3.876471   3.413181   2.169864   1.090295
    41  H    6.880234   7.075354   8.234820   9.118616   9.005944
    42  H    9.251580   8.751408   9.353137  10.376554  10.831935
    43  H    8.953620   8.146651   8.630934   9.831971  10.534825
    44  H    7.311019   6.458061   7.092783   8.418055   9.111466
                   16         17         18         19         20
    16  C    0.000000
    17  Cl   1.731069   0.000000
    18  Cl   4.008831   5.432221   0.000000
    19  N    5.905911   6.351037   4.435765   0.000000
    20  C    7.129011   7.615186   5.246268   1.267020   0.000000
    21  C    7.703706   8.456512   5.191891   2.389639   1.472554
    22  C    8.699607   9.453390   6.307979   3.489152   2.482979
    23  C    9.473872  10.397526   6.749095   4.699891   3.775002
    24  C    9.357059  10.448644   6.184268   5.052051   4.276621
    25  C    8.470651   9.591604   5.054592   4.392146   3.799742
    26  C    7.595946   8.558884   4.462229   3.066964   2.526732
    27  Cl   6.802941   7.764585   3.461097   3.120561   3.101410
    28  Cl   9.260126   9.764014   7.509739   3.938376   2.968252
    29  H    4.764769   4.306161   5.366949   4.545962   5.588970
    30  H    4.493845   3.785540   5.730608   4.097438   5.207893
    31  H    7.014074   6.593588   6.774170   4.460128   5.045699
    32  H    6.813938   5.977845   7.556753   5.321817   6.082865
    33  H    8.165687   7.574885   8.211093   4.671812   4.971626
    34  H    6.854277   6.168877   7.493592   4.157362   4.783733
    35  H    7.540523   7.491911   6.466280   2.765253   2.821382
    36  H    7.677775   7.518514   7.088256   2.815445   2.812950
    37  H    2.771053   2.717481   4.015981   4.650540   5.867038
    38  H    3.865787   5.596675   2.795814   6.647720   7.501436
    39  H    3.387109   4.843533   4.833180   8.030653   9.054611
    40  H    2.147112   2.817776   5.606177   7.819692   9.006607
    41  H    7.954917   8.264149   6.276326   2.074548   1.101966
    42  H   10.307293  11.208094   7.728045   5.579691   4.631290
    43  H   10.128880  11.309154   6.839260   6.120418   5.368382
    44  H    8.612159   9.846405   4.899955   5.116136   4.670297
                   21         22         23         24         25
    21  C    0.000000
    22  C    1.400714   0.000000
    23  C    2.441520   1.389568   0.000000
    24  C    2.804851   2.393816   1.391062   0.000000
    25  C    2.434885   2.772202   2.417991   1.390607   0.000000
    26  C    1.402546   2.396011   2.786677   2.402362   1.390306
    27  Cl   2.730344   4.008965   4.518453   3.980277   2.681010
    28  Cl   2.700978   1.733169   2.699164   3.988268   4.505300
    29  H    6.742251   7.991500   9.145700   9.220792   8.190765
    30  H    6.479290   7.544006   8.776656   9.075498   8.246255
    31  H    6.341279   7.498671   8.750142   8.992882   8.077656
    32  H    7.479067   8.545186   9.857318  10.215754   9.372807
    33  H    6.413768   7.214584   8.583276   9.194794   8.608988
    34  H    6.246677   7.025658   8.399036   9.034993   8.477272
    35  H    4.158323   5.134203   6.433368   6.880153   6.207605
    36  H    4.225562   4.836435   6.223555   6.976310   6.594890
    37  H    6.758003   7.978344   8.974037   8.912199   7.868570
    38  H    7.321547   8.148078   8.366136   7.786270   6.931882
    39  H    9.126501   9.893453  10.249045   9.879294   9.134888
    40  H    9.469221  10.322600  10.976974  10.848181  10.071443
    41  H    2.199398   2.842739   4.187091   4.870248   4.542381
    42  H    3.420365   2.148998   1.090316   2.170222   3.413729
    43  H    3.896771   3.385320   2.151893   1.091999   2.150911
    44  H    3.413812   3.862203   3.411672   2.166542   1.090107
                   26         27         28         29         30
    26  C    0.000000
    27  Cl   1.732572   0.000000
    28  Cl   3.991827   5.426491   0.000000
    29  H    6.887915   5.777838   8.344769   0.000000
    30  H    6.922626   6.199244   7.598062   1.772577   0.000000
    31  H    6.713316   5.819498   7.646231   2.464431   3.076923
    32  H    7.987852   7.188592   8.460870   2.483044   2.483210
    33  H    7.248786   6.925526   6.792098   4.304534   3.809249
    34  H    7.118328   6.854284   6.564812   3.790784   2.627252
    35  H    4.857794   4.560740   5.159880   4.168896   4.057772
    36  H    5.305507   5.475972   4.320257   4.987305   4.204019
    37  H    6.718393   5.618026   8.512187   2.050498   2.473126
    38  H    6.671471   6.062217   9.243992   7.341153   7.413581
    39  H    8.733298   8.169821  10.696674   7.966267   7.769083
    40  H    9.351839   8.692257  10.829721   6.779458   6.369942
    41  H    3.348320   3.929165   2.843014   5.884472   5.458167
    42  H    3.876775   5.608733   2.831571  10.089879   9.610087
    43  H    3.391156   4.831868   4.850820  10.228226  10.112428
    44  H    2.145385   2.794511   5.595278   8.501789   8.735227
                   31         32         33         34         35
    31  H    0.000000
    32  H    1.765220   0.000000
    33  H    2.488059   2.508366   0.000000
    34  H    3.068836   2.492521   1.766714   0.000000
    35  H    2.597309   3.787188   2.484488   3.071317   0.000000
    36  H    3.783803   4.312067   2.498087   2.480495   1.773308
    37  H    4.379912   4.361260   5.946881   5.005221   5.408300
    38  H    9.158435   9.599201  10.444227   9.403456   8.952962
    39  H   10.108341  10.122683  11.248329   9.936889  10.226408
    40  H    9.075233   8.691455  10.085388   8.637454   9.598199
    41  H    4.889950   5.930238   4.412138   4.503985   2.373158
    42  H    9.639791  10.684921   9.269062   9.068804   7.240817
    43  H   10.048162  11.289371  10.282421  10.121879   7.957328
    44  H    8.528834   9.878606   9.314800   9.202613   6.881782
                   36         37         38         39         40
    36  H    0.000000
    37  H    5.968093   0.000000
    38  H    9.262148   5.491850   0.000000
    39  H   10.305061   5.929708   2.497572   0.000000
    40  H    9.564479   4.831614   4.325892   2.501204   0.000000
    41  H    2.191177   6.482809   8.574543  10.059463   9.859211
    42  H    6.847854   9.918334   9.168270  10.967257  11.717660
    43  H    8.058294   9.833867   8.210440  10.351715  11.514438
    44  H    7.446766   8.072889   6.701142   9.043682  10.167161
                   41         42         43         44
    41  H    0.000000
    42  H    4.911153   0.000000
    43  H    5.945719   2.501500   0.000000
    44  H    5.448685   4.325071   2.495203   0.000000
 Stoichiometry    C20H18Cl4N2
 Framework group  C1[X(C20H18Cl4N2)]
 Deg. of freedom   126
 Full point group                 C1      NOp   1
 Largest Abelian subgroup         C1      NOp   1
 Largest concise Abelian subgroup C1      NOp   1
                         Standard orientation:                         
 ---------------------------------------------------------------------
 Center     Atomic      Atomic             Coordinates (Angstroms)
 Number     Number       Type             X           Y           Z
 ---------------------------------------------------------------------
      1          6           0       -0.499841    2.153295    0.214849
      2          1           0       -0.037029    2.217029    1.219842
      3          6           0        0.659474    1.881631   -0.768906
      4          1           0        0.194681    1.668706   -1.750745
      5          6           0        1.589721    3.082646   -0.884863
      6          6           0        0.826453    4.363700   -1.197823
      7          6           0       -0.270245    4.621862   -0.174875
      8          6           0       -1.234368    3.444662   -0.103741
      9          7           0        1.301884    0.645781   -0.339997
     10          6           0        2.547601    0.439498   -0.482004
     11          6           0        3.204875   -0.777019    0.015325
     12          6           0        2.724300   -2.078164   -0.206160
     13          6           0        3.359849   -3.188810    0.340097
     14          6           0        4.499247   -3.012404    1.117457
     15          6           0        5.017184   -1.740195    1.340552
     16          6           0        4.371944   -0.642733    0.785097
     17         17           0        5.001105    0.939731    1.095841
     18         17           0        1.329543   -2.343420   -1.195354
     19          7           0       -1.290345    0.940869    0.227896
     20          6           0       -2.554455    0.918693    0.144984
     21          6           0       -3.293709   -0.353055    0.077329
     22          6           0       -4.325114   -0.602144    0.991746
     23          6           0       -5.028390   -1.800551    1.002886
     24          6           0       -4.710412   -2.773774    0.061196
     25          6           0       -3.710859   -2.552653   -0.879967
     26          6           0       -3.008712   -1.352781   -0.864190
     27         17           0       -1.785816   -1.113699   -2.068005
     28         17           0       -4.697397    0.608093    2.175218
     29          1           0        2.345565    2.905431   -1.665889
     30          1           0        2.132684    3.187485    0.071108
     31          1           0        0.377171    4.287184   -2.204038
     32          1           0        1.528862    5.210594   -1.236088
     33          1           0       -0.819909    5.543420   -0.420977
     34          1           0        0.183732    4.783028    0.818291
     35          1           0       -1.758106    3.336703   -1.071259
     36          1           0       -2.006373    3.629229    0.660046
     37          1           0        3.206783    1.196778   -0.928767
     38          1           0        2.947106   -4.180744    0.155316
     39          1           0        4.991767   -3.881684    1.558095
     40          1           0        5.905187   -1.587204    1.954384
     41          1           0       -3.156594    1.841460    0.128889
     42          1           0       -5.804673   -1.963248    1.751019
     43          1           0       -5.250040   -3.723123    0.062019
     44          1           0       -3.455241   -3.309800   -1.621400
 ---------------------------------------------------------------------
 Rotational constants (GHZ):           0.2020730           0.0980137           0.0773896
 Leave Link  202 at Thu Dec  8 09:05:35 2022, MaxMem=  4194304000 cpu:               0.1 elap:               0.0
 (Enter /software/gaussian/G16-A.03/avx/g16/l301.exe)
 Standard basis: def2SVP (5D, 7F)
 Ernie: Thresh=  0.10000D-02 Tol=  0.10000D-05 Strict=F.
 There are   496 symmetry adapted cartesian basis functions of A   symmetry.
 There are   470 symmetry adapted basis functions of A   symmetry.
   470 basis functions,   824 primitive gaussians,   496 cartesian basis functions
   110 alpha electrons      110 beta electrons
       nuclear repulsion energy      2891.4149251016 Hartrees.
 IExCor= 1009 DFT=T Ex+Corr=PBE1PBE ExCW=0 ScaHFX=  0.250000
 ScaDFX=  0.750000  0.750000  1.000000  1.000000 ScalE2=  1.000000  1.000000
 IRadAn=      5 IRanWt=     -1 IRanGd=            0 ICorTp=0 IEmpDi=141
 NAtoms=   44 NActive=   44 NUniq=   44 SFac= 1.00D+00 NAtFMM=   60 NAOKFM=F Big=F
 Integral buffers will be    131072 words long.
 Raffenetti 2 integral format.
 Two-electron integral symmetry is turned on.
 R6Disp:  Grimme-D3(BJ) Dispersion energy=       -0.0604947510 Hartrees.
 Nuclear repulsion after empirical dispersion term =     2891.3544303506 Hartrees.
 Leave Link  301 at Thu Dec  8 09:05:35 2022, MaxMem=  4194304000 cpu:               0.6 elap:               0.1
 (Enter /software/gaussian/G16-A.03/avx/g16/l302.exe)
 NPDir=0 NMtPBC=     1 NCelOv=     1 NCel=       1 NClECP=     1 NCelD=      1
         NCelK=      1 NCelE2=     1 NClLst=     1 CellRange=     0.0.
 One-electron integrals computed using PRISM.
 One-electron integral symmetry used in STVInt
   1 Symmetry operations used in ECPInt.
 ECPInt:  NShTT=   23871 NPrTT=   91383 LenC2=   19997 LenP2D=   49991.
 LDataN:  DoStor=T MaxTD1= 4 Len=   56
 NBasis=   470 RedAO= T EigKep=  2.21D-04  NBF=   470
 NBsUse=   470 1.00D-06 EigRej= -1.00D+00 NBFU=   470
 Precomputing XC quadrature grid using
 IXCGrd= 4 IRadAn=           5 IRanWt=          -1 IRanGd=           0 AccXCQ= 0.00D+00.
 Generated NRdTot=       0 NPtTot=           0 NUsed=           0 NTot=          32
 NSgBfM=   481   481   481   481   481 MxSgAt=    44 MxSgA2=    44.
 Leave Link  302 at Thu Dec  8 09:05:37 2022, MaxMem=  4194304000 cpu:               8.6 elap:               1.1
 (Enter /software/gaussian/G16-A.03/avx/g16/l303.exe)
 DipDrv:  MaxL=1.
 Leave Link  303 at Thu Dec  8 09:05:37 2022, MaxMem=  4194304000 cpu:               0.7 elap:               0.1
 (Enter /software/gaussian/G16-A.03/avx/g16/l401.exe)
 ExpMin= 1.22D-01 ExpMax= 1.04D+04 ExpMxC= 1.57D+03 IAcc=3 IRadAn=         5 AccDes= 0.00D+00
 Harris functional with IExCor= 1009 and IRadAn=       5 diagonalized for initial guess.
 HarFok:  IExCor= 1009 AccDes= 0.00D+00 IRadAn=         5 IDoV= 1 UseB2=F ITyADJ=14
 ICtDFT=  3500011 ScaDFX=  1.000000  1.000000  1.000000  1.000000
 FoFCou: FMM=F IPFlag=           0 FMFlag=      100000 FMFlg1=           0
         NFxFlg=           0 DoJE=T BraDBF=F KetDBF=T FulRan=T
         wScrn=  0.000000 ICntrl=       500 IOpCl=  0 I1Cent=   200000004 NGrid=           0
         NMat0=    1 NMatS0=      1 NMatT0=    0 NMatD0=    1 NMtDS0=    0 NMtDT0=    0
 Petite list used in FoFCou.
 Harris En= -2720.22572935242    
 JPrj=0 DoOrth=F DoCkMO=F.
 Leave Link  401 at Thu Dec  8 09:05:42 2022, MaxMem=  4194304000 cpu:              42.2 elap:               5.3
 (Enter /software/gaussian/G16-A.03/avx/g16/l502.exe)
 Integral symmetry usage will be decided dynamically.
 Closed shell SCF:
 Using DIIS extrapolation, IDIIS=  1040.
 NGot=  4194304000 LenX=  4193802800 LenY=  4193556288
 Requested convergence on RMS density matrix=1.00D-08 within 128 cycles.
 Requested convergence on MAX density matrix=1.00D-06.
 Requested convergence on             energy=1.00D-06.
 No special actions if energy rises.
 Fock matrices will be formed incrementally for  20 cycles.
 Integral accuracy reduced to 1.0D-05 until final iterations.

 Cycle   1  Pass 0  IDiag  1:
 FoFJK:  IHMeth= 1 ICntrl=       0 DoSepK=F KAlg= 0 I1Cent=           0 FoldK=F
 IRaf= 760000000 NMat=       1 IRICut=       1 DoRegI=T DoRafI=F ISym2E= 0 IDoP0=0 IntGTp=1.
 FoFCou: FMM=F IPFlag=           0 FMFlag=      100000 FMFlg1=           0
         NFxFlg=           0 DoJE=F BraDBF=F KetDBF=F FulRan=T
         wScrn=  0.000000 ICntrl=         0 IOpCl=  0 I1Cent=           0 NGrid=           0
         NMat0=    1 NMatS0=      1 NMatT0=    0 NMatD0=    1 NMtDS0=    0 NMtDT0=    0
 Symmetry not used in FoFCou.
 E= -2719.86757735052    
 DIIS: error= 1.92D-02 at cycle   1 NSaved=   1.
 NSaved= 1 IEnMin= 1 EnMin= -2719.86757735052     IErMin= 1 ErrMin= 1.92D-02
 ErrMax= 1.92D-02  0.00D+00 EMaxC= 1.00D-01 BMatC= 5.23D-01 BMatP= 5.23D-01
 IDIUse=3 WtCom= 8.08D-01 WtEn= 1.92D-01
 Coeff-Com:  0.100D+01
 Coeff-En:   0.100D+01
 Coeff:      0.100D+01
 Gap=     0.339 Goal=   None    Shift=    0.000
 GapD=    0.339 DampG=1.000 DampE=0.500 DampFc=0.5000 IDamp=-1.
 Damping current iteration by 5.00D-01
 RMSDP=4.77D-03 MaxDP=1.23D-01              OVMax= 3.37D-01

 Cycle   2  Pass 0  IDiag  1:
 RMSU=  2.34D-03    CP:  9.78D-01
 E= -2720.10671509801     Delta-E=       -0.239137747491 Rises=F Damp=T
 DIIS: error= 5.86D-03 at cycle   2 NSaved=   2.
 NSaved= 2 IEnMin= 2 EnMin= -2720.10671509801     IErMin= 2 ErrMin= 5.86D-03
 ErrMax= 5.86D-03  0.00D+00 EMaxC= 1.00D-01 BMatC= 3.74D-02 BMatP= 5.23D-01
 IDIUse=3 WtCom= 9.41D-01 WtEn= 5.86D-02
 Coeff-Com:  0.103D+00 0.897D+00
 Coeff-En:   0.190D+00 0.810D+00
 Coeff:      0.108D+00 0.892D+00
 Gap=     0.271 Goal=   None    Shift=    0.000
 RMSDP=1.45D-03 MaxDP=4.89D-02 DE=-2.39D-01 OVMax= 1.91D-01

 Cycle   3  Pass 0  IDiag  1:
 RMSU=  1.42D-03    CP:  9.67D-01  9.08D-01
 E= -2720.43334433223     Delta-E=       -0.326629234220 Rises=F Damp=F
 DIIS: error= 4.03D-03 at cycle   3 NSaved=   3.
 NSaved= 3 IEnMin= 3 EnMin= -2720.43334433223     IErMin= 3 ErrMin= 4.03D-03
 ErrMax= 4.03D-03  0.00D+00 EMaxC= 1.00D-01 BMatC= 1.68D-02 BMatP= 3.74D-02
 IDIUse=3 WtCom= 9.60D-01 WtEn= 4.03D-02
 Coeff-Com:  0.759D-02 0.374D+00 0.619D+00
 Coeff-En:   0.000D+00 0.000D+00 0.100D+01
 Coeff:      0.729D-02 0.359D+00 0.634D+00
 Gap=     0.180 Goal=   None    Shift=    0.000
 RMSDP=5.69D-04 MaxDP=3.42D-02 DE=-3.27D-01 OVMax= 4.41D-02

 Cycle   4  Pass 0  IDiag  1:
 RMSU=  5.38D-04    CP:  9.68D-01  9.42D-01  8.84D-01
 E= -2720.43833018139     Delta-E=       -0.004985849169 Rises=F Damp=F
 DIIS: error= 3.69D-03 at cycle   4 NSaved=   4.
 NSaved= 4 IEnMin= 4 EnMin= -2720.43833018139     IErMin= 4 ErrMin= 3.69D-03
 ErrMax= 3.69D-03  0.00D+00 EMaxC= 1.00D-01 BMatC= 1.25D-02 BMatP= 1.68D-02
 IDIUse=3 WtCom= 9.63D-01 WtEn= 3.69D-02
 Coeff-Com: -0.116D-01 0.909D-01 0.459D+00 0.461D+00
 Coeff-En:   0.000D+00 0.000D+00 0.432D+00 0.568D+00
 Coeff:     -0.112D-01 0.876D-01 0.458D+00 0.465D+00
 Gap=     0.191 Goal=   None    Shift=    0.000
 RMSDP=3.11D-04 MaxDP=1.57D-02 DE=-4.99D-03 OVMax= 2.26D-02

 Cycle   5  Pass 0  IDiag  1:
 RMSU=  1.69D-04    CP:  9.67D-01  9.45D-01  9.12D-01  5.22D-01
 E= -2720.45016859093     Delta-E=       -0.011838409540 Rises=F Damp=F
 DIIS: error= 5.11D-04 at cycle   5 NSaved=   5.
 NSaved= 5 IEnMin= 5 EnMin= -2720.45016859093     IErMin= 5 ErrMin= 5.11D-04
 ErrMax= 5.11D-04  0.00D+00 EMaxC= 1.00D-01 BMatC= 3.64D-04 BMatP= 1.25D-02
 IDIUse=3 WtCom= 9.95D-01 WtEn= 5.11D-03
 Coeff-Com: -0.503D-02 0.134D-01 0.176D+00 0.231D+00 0.585D+00
 Coeff-En:   0.000D+00 0.000D+00 0.000D+00 0.000D+00 0.100D+01
 Coeff:     -0.501D-02 0.134D-01 0.175D+00 0.230D+00 0.587D+00
 Gap=     0.187 Goal=   None    Shift=    0.000
 RMSDP=7.57D-05 MaxDP=3.30D-03 DE=-1.18D-02 OVMax= 5.54D-03

 Cycle   6  Pass 0  IDiag  1:
 RMSU=  4.31D-05    CP:  9.67D-01  9.44D-01  9.27D-01  5.46D-01  6.64D-01
 E= -2720.45049549973     Delta-E=       -0.000326908796 Rises=F Damp=F
 DIIS: error= 2.08D-04 at cycle   6 NSaved=   6.
 NSaved= 6 IEnMin= 6 EnMin= -2720.45049549973     IErMin= 6 ErrMin= 2.08D-04
 ErrMax= 2.08D-04  0.00D+00 EMaxC= 1.00D-01 BMatC= 4.58D-05 BMatP= 3.64D-04
 IDIUse=3 WtCom= 9.98D-01 WtEn= 2.08D-03
 Coeff-Com: -0.170D-02-0.563D-03 0.621D-01 0.922D-01 0.332D+00 0.516D+00
 Coeff-En:   0.000D+00 0.000D+00 0.000D+00 0.000D+00 0.390D-01 0.961D+00
 Coeff:     -0.170D-02-0.562D-03 0.619D-01 0.920D-01 0.331D+00 0.517D+00
 Gap=     0.188 Goal=   None    Shift=    0.000
 RMSDP=2.55D-05 MaxDP=9.71D-04 DE=-3.27D-04 OVMax= 2.24D-03

 Cycle   7  Pass 0  IDiag  1:
 RMSU=  1.47D-05    CP:  9.67D-01  9.43D-01  9.29D-01  5.55D-01  7.03D-01
                    CP:  5.67D-01
 E= -2720.45054322859     Delta-E=       -0.000047728859 Rises=F Damp=F
 DIIS: error= 7.26D-05 at cycle   7 NSaved=   7.
 NSaved= 7 IEnMin= 7 EnMin= -2720.45054322859     IErMin= 7 ErrMin= 7.26D-05
 ErrMax= 7.26D-05  0.00D+00 EMaxC= 1.00D-01 BMatC= 4.34D-06 BMatP= 4.58D-05
 IDIUse=1 WtCom= 1.00D+00 WtEn= 0.00D+00
 Coeff-Com: -0.317D-03-0.175D-02 0.184D-01 0.295D-01 0.129D+00 0.282D+00
 Coeff-Com:  0.543D+00
 Coeff:     -0.317D-03-0.175D-02 0.184D-01 0.295D-01 0.129D+00 0.282D+00
 Coeff:      0.543D+00
 Gap=     0.188 Goal=   None    Shift=    0.000
 RMSDP=6.89D-06 MaxDP=3.16D-04 DE=-4.77D-05 OVMax= 7.28D-04

 Initial convergence to 1.0D-05 achieved.  Increase integral accuracy.
 Cycle   8  Pass 1  IDiag  1:
 E= -2720.45054620164     Delta-E=       -0.000002973054 Rises=F Damp=F
 DIIS: error= 1.54D-04 at cycle   1 NSaved=   1.
 NSaved= 1 IEnMin= 1 EnMin= -2720.45054620164     IErMin= 1 ErrMin= 1.54D-04
 ErrMax= 1.54D-04  0.00D+00 EMaxC= 1.00D-01 BMatC= 6.22D-06 BMatP= 6.22D-06
 IDIUse=3 WtCom= 9.98D-01 WtEn= 1.54D-03
 Coeff-Com:  0.100D+01
 Coeff-En:   0.100D+01
 Coeff:      0.100D+01
 Gap=     0.188 Goal=   None    Shift=    0.000
 RMSDP=6.89D-06 MaxDP=3.16D-04 DE=-2.97D-06 OVMax= 4.86D-04

 Cycle   9  Pass 1  IDiag  1:
 RMSU=  1.39D-04    CP:  1.00D+00
 E= -2720.45055214257     Delta-E=       -0.000005940924 Rises=F Damp=F
 DIIS: error= 4.74D-05 at cycle   2 NSaved=   2.
 NSaved= 2 IEnMin= 2 EnMin= -2720.45055214257     IErMin= 2 ErrMin= 4.74D-05
 ErrMax= 4.74D-05  0.00D+00 EMaxC= 1.00D-01 BMatC= 1.18D-06 BMatP= 6.22D-06
 IDIUse=1 WtCom= 1.00D+00 WtEn= 0.00D+00
 Coeff-Com:  0.207D+00 0.793D+00
 Coeff:      0.207D+00 0.793D+00
 Gap=     0.188 Goal=   None    Shift=    0.000
 RMSDP=6.70D-06 MaxDP=2.44D-04 DE=-5.94D-06 OVMax= 5.14D-04

 Cycle  10  Pass 1  IDiag  1:
 RMSU=  6.58D-06    CP:  1.00D+00  1.01D+00
 E= -2720.45055142831     Delta-E=        0.000000714258 Rises=F Damp=F
 DIIS: error= 6.02D-05 at cycle   3 NSaved=   3.
 NSaved= 3 IEnMin= 2 EnMin= -2720.45055214257     IErMin= 2 ErrMin= 4.74D-05
 ErrMax= 6.02D-05  0.00D+00 EMaxC= 1.00D-01 BMatC= 1.86D-06 BMatP= 1.18D-06
 IDIUse=1 WtCom= 1.00D+00 WtEn= 0.00D+00
 Coeff-Com: -0.269D-02 0.558D+00 0.445D+00
 Coeff:     -0.269D-02 0.558D+00 0.445D+00
 Gap=     0.188 Goal=   None    Shift=    0.000
 RMSDP=3.92D-06 MaxDP=1.60D-04 DE= 7.14D-07 OVMax= 3.16D-04

 Cycle  11  Pass 1  IDiag  1:
 RMSU=  9.05D-07    CP:  1.00D+00  1.01D+00  4.28D-01
 E= -2720.45055332641     Delta-E=       -0.000001898102 Rises=F Damp=F
 DIIS: error= 4.97D-06 at cycle   4 NSaved=   4.
 NSaved= 4 IEnMin= 4 EnMin= -2720.45055332641     IErMin= 4 ErrMin= 4.97D-06
 ErrMax= 4.97D-06  0.00D+00 EMaxC= 1.00D-01 BMatC= 2.55D-08 BMatP= 1.18D-06
 IDIUse=1 WtCom= 1.00D+00 WtEn= 0.00D+00
 Coeff-Com: -0.461D-02 0.323D+00 0.268D+00 0.414D+00
 Coeff:     -0.461D-02 0.323D+00 0.268D+00 0.414D+00
 Gap=     0.188 Goal=   None    Shift=    0.000
 RMSDP=5.09D-07 MaxDP=2.11D-05 DE=-1.90D-06 OVMax= 3.91D-05

 Cycle  12  Pass 1  IDiag  1:
 RMSU=  3.08D-07    CP:  1.00D+00  1.01D+00  4.37D-01  5.60D-01
 E= -2720.45055335237     Delta-E=       -0.000000025957 Rises=F Damp=F
 DIIS: error= 1.02D-06 at cycle   5 NSaved=   5.
 NSaved= 5 IEnMin= 5 EnMin= -2720.45055335237     IErMin= 5 ErrMin= 1.02D-06
 ErrMax= 1.02D-06  0.00D+00 EMaxC= 1.00D-01 BMatC= 8.31D-10 BMatP= 2.55D-08
 IDIUse=1 WtCom= 1.00D+00 WtEn= 0.00D+00
 Coeff-Com: -0.264D-02 0.169D+00 0.141D+00 0.246D+00 0.447D+00
 Coeff:     -0.264D-02 0.169D+00 0.141D+00 0.246D+00 0.447D+00
 Gap=     0.188 Goal=   None    Shift=    0.000
 RMSDP=9.22D-08 MaxDP=3.93D-06 DE=-2.60D-08 OVMax= 6.21D-06

 Cycle  13  Pass 1  IDiag  1:
 RMSU=  7.43D-08    CP:  1.00D+00  1.01D+00  4.41D-01  5.76D-01  8.53D-01
 E= -2720.45055335311     Delta-E=       -0.000000000742 Rises=F Damp=F
 DIIS: error= 3.06D-07 at cycle   6 NSaved=   6.
 NSaved= 6 IEnMin= 6 EnMin= -2720.45055335311     IErMin= 6 ErrMin= 3.06D-07
 ErrMax= 3.06D-07  0.00D+00 EMaxC= 1.00D-01 BMatC= 7.10D-11 BMatP= 8.31D-10
 IDIUse=1 WtCom= 1.00D+00 WtEn= 0.00D+00
 Coeff-Com: -0.627D-03 0.356D-01 0.298D-01 0.648D-01 0.234D+00 0.636D+00
 Coeff:     -0.627D-03 0.356D-01 0.298D-01 0.648D-01 0.234D+00 0.636D+00
 Gap=     0.188 Goal=   None    Shift=    0.000
 RMSDP=3.24D-08 MaxDP=1.31D-06 DE=-7.42D-10 OVMax= 3.18D-06

 Cycle  14  Pass 1  IDiag  1:
 RMSU=  2.70D-08    CP:  1.00D+00  1.01D+00  4.41D-01  5.83D-01  8.74D-01
                    CP:  8.05D-01
 E= -2720.45055335322     Delta-E=       -0.000000000106 Rises=F Damp=F
 DIIS: error= 1.03D-07 at cycle   7 NSaved=   7.
 NSaved= 7 IEnMin= 7 EnMin= -2720.45055335322     IErMin= 7 ErrMin= 1.03D-07
 ErrMax= 1.03D-07  0.00D+00 EMaxC= 1.00D-01 BMatC= 1.35D-11 BMatP= 7.10D-11
 IDIUse=1 WtCom= 1.00D+00 WtEn= 0.00D+00
 Coeff-Com:  0.104D-03-0.880D-02-0.725D-02-0.507D-02 0.369D-01 0.344D+00
 Coeff-Com:  0.640D+00
 Coeff:      0.104D-03-0.880D-02-0.725D-02-0.507D-02 0.369D-01 0.344D+00
 Coeff:      0.640D+00
 Gap=     0.188 Goal=   None    Shift=    0.000
 RMSDP=1.39D-08 MaxDP=5.16D-07 DE=-1.06D-10 OVMax= 1.28D-06

 Cycle  15  Pass 1  IDiag  1:
 RMSU=  1.04D-08    CP:  1.00D+00  1.01D+00  4.41D-01  5.86D-01  8.88D-01
                    CP:  8.60D-01  7.66D-01
 E= -2720.45055335320     Delta-E=        0.000000000020 Rises=F Damp=F
 DIIS: error= 2.74D-08 at cycle   8 NSaved=   8.
 NSaved= 8 IEnMin= 7 EnMin= -2720.45055335322     IErMin= 8 ErrMin= 2.74D-08
 ErrMax= 2.74D-08  0.00D+00 EMaxC= 1.00D-01 BMatC= 1.58D-12 BMatP= 1.35D-11
 IDIUse=1 WtCom= 1.00D+00 WtEn= 0.00D+00
 Coeff-Com:  0.131D-03-0.914D-02-0.757D-02-0.101D-01-0.912D-02 0.119D+00
 Coeff-Com:  0.351D+00 0.566D+00
 Coeff:      0.131D-03-0.914D-02-0.757D-02-0.101D-01-0.912D-02 0.119D+00
 Coeff:      0.351D+00 0.566D+00
 Gap=     0.188 Goal=   None    Shift=    0.000
 RMSDP=3.88D-09 MaxDP=2.33D-07 DE= 2.00D-11 OVMax= 3.23D-07

 SCF Done:  E(RPBE1PBE) =  -2720.45055335     A.U. after   15 cycles
            NFock= 15  Conv=0.39D-08     -V/T= 2.0045
 KE= 2.708263986818D+03 PE=-1.219931101409D+04 EE= 3.879242043567D+03
 Leave Link  502 at Thu Dec  8 09:08:08 2022, MaxMem=  4194304000 cpu:            1167.1 elap:             145.9
 (Enter /software/gaussian/G16-A.03/avx/g16/l801.exe)
 DoSCS=F DFT=T ScalE2(SS,OS)=  1.000000  1.000000
 Range of M.O.s used for correlation:     1   470
 NBasis=   470 NAE=   110 NBE=   110 NFC=     0 NFV=     0
 NROrb=    470 NOA=   110 NOB=   110 NVA=   360 NVB=   360

 **** Warning!!: The largest alpha MO coefficient is  0.13636726D+02

 Leave Link  801 at Thu Dec  8 09:08:08 2022, MaxMem=  4194304000 cpu:               0.2 elap:               0.0
 (Enter /software/gaussian/G16-A.03/avx/g16/l1101.exe)
 Using compressed storage, NAtomX=    44.
 Will process     45 centers per pass.
   1 Symmetry operations used in ECPInt.
 ECPInt:  NShTT=   23871 NPrTT=   91383 LenC2=   19997 LenP2D=   49991.
 LDataN:  DoStor=T MaxTD1= 5 Len=  102
 R6Disp: Adding Grimme-D3(BJ) dispersion energy 1st derivatives to the gradient.
 Leave Link 1101 at Thu Dec  8 09:08:09 2022, MaxMem=  4194304000 cpu:              10.1 elap:               1.3
 (Enter /software/gaussian/G16-A.03/avx/g16/l1102.exe)
 Symmetrizing basis deriv contribution to polar:
 IMax=3 JMax=2 DiffMx= 0.00D+00
 Leave Link 1102 at Thu Dec  8 09:08:09 2022, MaxMem=  4194304000 cpu:               0.6 elap:               0.1
 (Enter /software/gaussian/G16-A.03/avx/g16/l1110.exe)
 Forming Gx(P) for the SCF density, NAtomX=    44.
 Integral derivatives from FoFJK, PRISM(SPDF).
 Do as many integral derivatives as possible in FoFJK.
 G2DrvN: MDV=    4194300696.
 G2DrvN: will do    45 centers at a time, making    1 passes.
 Calling FoFCou, ICntrl=  3107 FMM=F I1Cent=   0 AccDes= 0.00D+00.
 FoFJK:  IHMeth= 1 ICntrl=    3107 DoSepK=F KAlg= 0 I1Cent=           0 FoldK=F
 IRaf=         0 NMat=       1 IRICut=       1 DoRegI=T DoRafI=F ISym2E= 0 IDoP0=0 IntGTp=1.
 FoFCou: FMM=F IPFlag=           0 FMFlag=      100000 FMFlg1=           0
         NFxFlg=           0 DoJE=F BraDBF=F KetDBF=F FulRan=T
         wScrn=  0.000000 ICntrl=      3107 IOpCl=  0 I1Cent=           0 NGrid=           0
         NMat0=    1 NMatS0=      1 NMatT0=    0 NMatD0=    1 NMtDS0=    0 NMtDT0=    0
 Symmetry not used in FoFCou.
 End of G2Drv F.D. properties file   721 does not exist.
 End of G2Drv F.D. properties file   722 does not exist.
 End of G2Drv F.D. properties file   788 does not exist.
 Leave Link 1110 at Thu Dec  8 09:16:13 2022, MaxMem=  4194304000 cpu:            3870.4 elap:             483.8
 (Enter /software/gaussian/G16-A.03/avx/g16/l1002.exe)
 Minotr:  Closed shell wavefunction.
          IDoAtm=11111111111111111111111111111111111111111111
          Direct CPHF calculation.
          Differentiating once with respect to electric field.
                with respect to dipole field.
          Differentiating once with respect to nuclear coordinates.
          Requested convergence is 1.0D-08 RMS, and 1.0D-07 maximum.
          Secondary convergence is 1.0D-12 RMS, and 1.0D-12 maximum.
          NewPWx=T KeepS1=F KeepF1=F KeepIn=T MapXYZ=F SortEE=F KeepMc=T.
        13316 words used for storage of precomputed grid.
 Two-electron integrals replicated using symmetry.
          MDV=    4194304000 using IRadAn=       1.
          Solving linear equations simultaneously, MaxMat=     384.
 FoF2E skips out because all densities are zero.
 CalDSu exits because no D1Ps are significant.
 FoFJK:  IHMeth= 1 ICntrl=       0 DoSepK=F KAlg= 0 I1Cent=           0 FoldK=F
 IRaf= 720000000 NMat=     132 IRICut=     330 DoRegI=T DoRafI=T ISym2E= 2 IDoP0=3 IntGTp=3.
 FoFCou: FMM=F IPFlag=           0 FMFlag=      100000 FMFlg1=           0
         NFxFlg=           0 DoJE=F BraDBF=F KetDBF=F FulRan=T
         wScrn=  0.000000 ICntrl=         0 IOpCl=  0 I1Cent=           0 NGrid=           0
         NMat0=  132 NMatS0=    132 NMatT0=    0 NMatD0=  132 NMtDS0=    0 NMtDT0=    0
 Integrals replicated using symmetry in FoFCou.
 Raff kept on since  66.24% of shell-pairs survive, threshold=   0.20 IRatSp=66.
          There are   135 degrees of freedom in the 1st order CPHF.  IDoFFX=6 NUNeed=     3.
    132 vectors produced by pass  0 Test12= 3.96D-14 1.00D-09 XBig12= 2.78D+02 5.84D+00.
 AX will form   132 AO Fock derivatives at one time.
    132 vectors produced by pass  1 Test12= 3.96D-14 1.00D-09 XBig12= 4.67D+01 1.15D+00.
    132 vectors produced by pass  2 Test12= 3.96D-14 1.00D-09 XBig12= 8.00D-01 1.03D-01.
    132 vectors produced by pass  3 Test12= 3.96D-14 1.00D-09 XBig12= 5.82D-03 6.23D-03.
    132 vectors produced by pass  4 Test12= 3.96D-14 1.00D-09 XBig12= 1.59D-05 3.39D-04.
    115 vectors produced by pass  5 Test12= 3.96D-14 1.00D-09 XBig12= 2.40D-08 8.20D-06.
     46 vectors produced by pass  6 Test12= 3.96D-14 1.00D-09 XBig12= 3.67D-11 3.19D-07.
      3 vectors produced by pass  7 Test12= 3.96D-14 1.00D-09 XBig12= 4.58D-14 1.19D-08.
      2 vectors produced by pass  8 Test12= 3.96D-14 1.00D-09 XBig12= 3.79D-16 1.85D-09.
 InvSVY:  IOpt=1 It=  1 EMax= 1.42D-14
 Solved reduced A of dimension   826 with   135 vectors.
 FullF1:  Do perturbations      1 to       3.
 Isotropic polarizability for W=    0.000000      267.70 Bohr**3.
 End of Minotr F.D. properties file   721 does not exist.
 End of Minotr F.D. properties file   722 does not exist.
 End of Minotr F.D. properties file   788 does not exist.
 Leave Link 1002 at Thu Dec  8 09:34:11 2022, MaxMem=  4194304000 cpu:            8621.6 elap:            1077.8
 (Enter /software/gaussian/G16-A.03/avx/g16/l601.exe)
 Copying SCF densities to generalized density rwf, IOpCl= 0 IROHF=0.

 **********************************************************************

            Population analysis using the SCF density.

 **********************************************************************

 Orbital symmetries:
       Occupied  (A) (A) (A) (A) (A) (A) (A) (A) (A) (A) (A) (A)
                 (A) (A) (A) (A) (A) (A) (A) (A) (A) (A) (A) (A)
                 (A) (A) (A) (A) (A) (A) (A) (A) (A) (A) (A) (A)
                 (A) (A) (A) (A) (A) (A) (A) (A) (A) (A) (A) (A)
                 (A) (A) (A) (A) (A) (A) (A) (A) (A) (A) (A) (A)
                 (A) (A) (A) (A) (A) (A) (A) (A) (A) (A) (A) (A)
                 (A) (A) (A) (A) (A) (A) (A) (A) (A) (A) (A) (A)
                 (A) (A) (A) (A) (A) (A) (A) (A) (A) (A) (A) (A)
                 (A) (A) (A) (A) (A) (A) (A) (A) (A) (A) (A) (A)
                 (A) (A)
       Virtual   (A) (A) (A) (A) (A) (A) (A) (A) (A) (A) (A) (A)
                 (A) (A) (A) (A) (A) (A) (A) (A) (A) (A) (A) (A)
                 (A) (A) (A) (A) (A) (A) (A) (A) (A) (A) (A) (A)
                 (A) (A) (A) (A) (A) (A) (A) (A) (A) (A) (A) (A)
                 (A) (A) (A) (A) (A) (A) (A) (A) (A) (A) (A) (A)
                 (A) (A) (A) (A) (A) (A) (A) (A) (A) (A) (A) (A)
                 (A) (A) (A) (A) (A) (A) (A) (A) (A) (A) (A) (A)
                 (A) (A) (A) (A) (A) (A) (A) (A) (A) (A) (A) (A)
                 (A) (A) (A) (A) (A) (A) (A) (A) (A) (A) (A) (A)
                 (A) (A) (A) (A) (A) (A) (A) (A) (A) (A) (A) (A)
                 (A) (A) (A) (A) (A) (A) (A) (A) (A) (A) (A) (A)
                 (A) (A) (A) (A) (A) (A) (A) (A) (A) (A) (A) (A)
                 (A) (A) (A) (A) (A) (A) (A) (A) (A) (A) (A) (A)
                 (A) (A) (A) (A) (A) (A) (A) (A) (A) (A) (A) (A)
                 (A) (A) (A) (A) (A) (A) (A) (A) (A) (A) (A) (A)
                 (A) (A) (A) (A) (A) (A) (A) (A) (A) (A) (A) (A)
                 (A) (A) (A) (A) (A) (A) (A) (A) (A) (A) (A) (A)
                 (A) (A) (A) (A) (A) (A) (A) (A) (A) (A) (A) (A)
                 (A) (A) (A) (A) (A) (A) (A) (A) (A) (A) (A) (A)
                 (A) (A) (A) (A) (A) (A) (A) (A) (A) (A) (A) (A)
                 (A) (A) (A) (A) (A) (A) (A) (A) (A) (A) (A) (A)
                 (A) (A) (A) (A) (A) (A) (A) (A) (A) (A) (A) (A)
                 (A) (A) (A) (A) (A) (A) (A) (A) (A) (A) (A) (A)
                 (A) (A) (A) (A) (A) (A) (A) (A) (A) (A) (A) (A)
                 (A) (A) (A) (A) (A) (A) (A) (A) (A) (A) (A) (A)
                 (A) (A) (A) (A) (A) (A) (A) (A) (A) (A) (A) (A)
                 (A) (A) (A) (A) (A) (A) (A) (A) (A) (A) (A) (A)
                 (A) (A) (A) (A) (A) (A) (A) (A) (A) (A) (A) (A)
                 (A) (A) (A) (A) (A) (A) (A) (A) (A) (A) (A) (A)
                 (A) (A) (A) (A) (A) (A) (A) (A) (A) (A) (A) (A)
 The electronic state is 1-A.
 Alpha  occ. eigenvalues -- -101.69072-101.68914-101.67842-101.67355 -14.37847
 Alpha  occ. eigenvalues --  -14.37770 -10.30658 -10.30612 -10.30458 -10.30334
 Alpha  occ. eigenvalues --  -10.27567 -10.27513 -10.26477 -10.26455 -10.26225
 Alpha  occ. eigenvalues --  -10.26102 -10.25805 -10.25788 -10.25539 -10.25499
 Alpha  occ. eigenvalues --  -10.25360 -10.25285 -10.23369 -10.23357 -10.23254
 Alpha  occ. eigenvalues --  -10.23252  -9.54267  -9.54108  -9.53025  -9.52554
 Alpha  occ. eigenvalues --   -7.28388  -7.28231  -7.27426  -7.27389  -7.27266
 Alpha  occ. eigenvalues --   -7.27229  -7.27168  -7.26703  -7.26186  -7.26120
 Alpha  occ. eigenvalues --   -7.25712  -7.25640  -0.95749  -0.94505  -0.93035
 Alpha  occ. eigenvalues --   -0.91788  -0.89905  -0.89754  -0.84930  -0.84736
 Alpha  occ. eigenvalues --   -0.84629  -0.79471  -0.78876  -0.75704  -0.75155
 Alpha  occ. eigenvalues --   -0.75040  -0.74971  -0.67733  -0.66815  -0.63896
 Alpha  occ. eigenvalues --   -0.62553  -0.62144  -0.61906  -0.58898  -0.57630
 Alpha  occ. eigenvalues --   -0.56738  -0.53308  -0.52949  -0.52662  -0.51576
 Alpha  occ. eigenvalues --   -0.50432  -0.49211  -0.48443  -0.47851  -0.47090
 Alpha  occ. eigenvalues --   -0.46693  -0.46303  -0.45521  -0.45365  -0.45079
 Alpha  occ. eigenvalues --   -0.43754  -0.42895  -0.42470  -0.41627  -0.41004
 Alpha  occ. eigenvalues --   -0.39599  -0.39358  -0.39320  -0.38874  -0.37962
 Alpha  occ. eigenvalues --   -0.37687  -0.37639  -0.36708  -0.35435  -0.34018
 Alpha  occ. eigenvalues --   -0.33795  -0.33596  -0.33434  -0.33280  -0.33208
 Alpha  occ. eigenvalues --   -0.32601  -0.31939  -0.31074  -0.30414  -0.26685
 Alpha  occ. eigenvalues --   -0.26323  -0.25991  -0.25528  -0.25162  -0.23125
 Alpha virt. eigenvalues --   -0.04310  -0.03757  -0.02005  -0.01932   0.01922
 Alpha virt. eigenvalues --    0.02574   0.03353   0.03675   0.06482   0.07745
 Alpha virt. eigenvalues --    0.08332   0.08573   0.09370   0.09852   0.10087
 Alpha virt. eigenvalues --    0.10977   0.12428   0.12515   0.13913   0.14089
 Alpha virt. eigenvalues --    0.14362   0.14502   0.15114   0.15161   0.15256
 Alpha virt. eigenvalues --    0.15436   0.15644   0.15711   0.16975   0.19000
 Alpha virt. eigenvalues --    0.21528   0.22334   0.23456   0.24775   0.25773
 Alpha virt. eigenvalues --    0.25924   0.26138   0.26312   0.28158   0.28483
 Alpha virt. eigenvalues --    0.28663   0.28868   0.29131   0.29603   0.29998
 Alpha virt. eigenvalues --    0.30393   0.31525   0.31699   0.34169   0.34766
 Alpha virt. eigenvalues --    0.35306   0.36004   0.37456   0.38023   0.40058
 Alpha virt. eigenvalues --    0.40182   0.41617   0.41740   0.42913   0.43869
 Alpha virt. eigenvalues --    0.44737   0.45395   0.45567   0.46388   0.46785
 Alpha virt. eigenvalues --    0.47446   0.47611   0.47989   0.48646   0.48771
 Alpha virt. eigenvalues --    0.48988   0.49351   0.49794   0.50492   0.51293
 Alpha virt. eigenvalues --    0.53946   0.54073   0.54374   0.54434   0.55803
 Alpha virt. eigenvalues --    0.56474   0.58459   0.58773   0.58980   0.59986
 Alpha virt. eigenvalues --    0.60105   0.60492   0.60757   0.61456   0.61825
 Alpha virt. eigenvalues --    0.62106   0.62934   0.63565   0.64401   0.64636
 Alpha virt. eigenvalues --    0.64825   0.64994   0.65222   0.65783   0.66536
 Alpha virt. eigenvalues --    0.66657   0.66867   0.67231   0.67688   0.67892
 Alpha virt. eigenvalues --    0.68171   0.68606   0.68853   0.69101   0.69388
 Alpha virt. eigenvalues --    0.69595   0.70204   0.70231   0.70857   0.71112
 Alpha virt. eigenvalues --    0.71511   0.71870   0.72149   0.72599   0.72764
 Alpha virt. eigenvalues --    0.73034   0.73502   0.73769   0.74561   0.74704
 Alpha virt. eigenvalues --    0.75255   0.75469   0.75561   0.76510   0.76983
 Alpha virt. eigenvalues --    0.78398   0.78880   0.79338   0.79473   0.79864
 Alpha virt. eigenvalues --    0.80197   0.80712   0.81111   0.81518   0.82477
 Alpha virt. eigenvalues --    0.82641   0.82699   0.83431   0.83749   0.84201
 Alpha virt. eigenvalues --    0.84775   0.86187   0.87510   0.88545   0.89051
 Alpha virt. eigenvalues --    0.89166   0.89718   0.90793   0.91331   0.93048
 Alpha virt. eigenvalues --    0.94632   0.96582   0.97319   0.97955   0.98760
 Alpha virt. eigenvalues --    0.99887   1.00949   1.01360   1.02465   1.03132
 Alpha virt. eigenvalues --    1.03645   1.04131   1.05640   1.07186   1.10294
 Alpha virt. eigenvalues --    1.11167   1.12219   1.14132   1.15129   1.16090
 Alpha virt. eigenvalues --    1.16775   1.17876   1.20662   1.20710   1.20899
 Alpha virt. eigenvalues --    1.21574   1.22326   1.23639   1.24381   1.25018
 Alpha virt. eigenvalues --    1.26121   1.26416   1.26578   1.26873   1.27356
 Alpha virt. eigenvalues --    1.27841   1.28405   1.29168   1.29929   1.30292
 Alpha virt. eigenvalues --    1.32089   1.33373   1.35146   1.39800   1.40574
 Alpha virt. eigenvalues --    1.42429   1.43342   1.44067   1.44362   1.45135
 Alpha virt. eigenvalues --    1.46415   1.47535   1.48753   1.49661   1.51062
 Alpha virt. eigenvalues --    1.53616   1.53845   1.55378   1.56937   1.57781
 Alpha virt. eigenvalues --    1.58046   1.58505   1.64522   1.65206   1.67636
 Alpha virt. eigenvalues --    1.67750   1.71688   1.71831   1.71987   1.72220
 Alpha virt. eigenvalues --    1.72615   1.72666   1.73704   1.74024   1.75705
 Alpha virt. eigenvalues --    1.76074   1.76234   1.77069   1.77669   1.78318
 Alpha virt. eigenvalues --    1.79009   1.79462   1.80386   1.81117   1.82123
 Alpha virt. eigenvalues --    1.82483   1.83497   1.83966   1.84268   1.84487
 Alpha virt. eigenvalues --    1.84912   1.86141   1.86658   1.87159   1.87421
 Alpha virt. eigenvalues --    1.87997   1.89115   1.89639   1.90804   1.91544
 Alpha virt. eigenvalues --    1.91930   1.93827   1.94258   1.94882   1.95433
 Alpha virt. eigenvalues --    1.96033   1.97300   1.97646   1.98018   1.98643
 Alpha virt. eigenvalues --    1.99368   2.01809   2.02406   2.05035   2.05579
 Alpha virt. eigenvalues --    2.06761   2.06995   2.07946   2.08686   2.09178
 Alpha virt. eigenvalues --    2.09633   2.11523   2.13626   2.16240   2.17815
 Alpha virt. eigenvalues --    2.18532   2.19231   2.19645   2.20063   2.21246
 Alpha virt. eigenvalues --    2.22195   2.22627   2.23661   2.24103   2.25549
 Alpha virt. eigenvalues --    2.27117   2.28419   2.28847   2.29032   2.29703
 Alpha virt. eigenvalues --    2.29971   2.30534   2.31668   2.32568   2.33292
 Alpha virt. eigenvalues --    2.36391   2.36997   2.44639   2.45136   2.45953
 Alpha virt. eigenvalues --    2.46980   2.47812   2.48128   2.48646   2.52858
 Alpha virt. eigenvalues --    2.54115   2.54327   2.57111   2.57195   2.58529
 Alpha virt. eigenvalues --    2.59725   2.61173   2.62211   2.62486   2.64324
 Alpha virt. eigenvalues --    2.64982   2.66365   2.66733   2.67161   2.67774
 Alpha virt. eigenvalues --    2.72149   2.74243   2.74987   2.79457   2.79830
 Alpha virt. eigenvalues --    2.79896   2.80340   2.81633   2.84055   2.84533
 Alpha virt. eigenvalues --    2.88424   2.89043   2.90375   2.91883   2.92599
 Alpha virt. eigenvalues --    2.94051   2.95788   2.97778   2.97857   2.98232
 Alpha virt. eigenvalues --    3.00046   3.02091   3.03693   3.05346   3.10121
 Alpha virt. eigenvalues --    3.11602   3.13801   3.14022   3.16456   3.27946
 Alpha virt. eigenvalues --    3.30516   3.39434   3.41859   3.53810   3.53904
     Molecular Orbital Coefficients:
                         106       107       108       109       110
                           O         O         O         O         O
     Eigenvalues --    -0.26323  -0.25991  -0.25528  -0.25162  -0.23125
   1 1   C  1S          0.00047  -0.00938  -0.00205   0.02909   0.00290
   2        2S         -0.00101   0.02100   0.00465  -0.07006  -0.00908
   3        3S         -0.03235   0.05596  -0.00564  -0.12395   0.07022
   4        4PX        -0.02531   0.02389  -0.01615  -0.06358   0.05442
   5        4PY        -0.03507  -0.03735  -0.03926   0.12420   0.11038
   6        4PZ         0.03879  -0.02422   0.02435   0.07443  -0.03678
   7        5PX        -0.03940   0.01387  -0.02605   0.01575   0.05233
   8        5PY        -0.01293  -0.00495  -0.01174   0.00115   0.03637
   9        5PZ         0.01156  -0.02026   0.00342   0.04326  -0.04437
  10        6D 0        0.00254  -0.00040   0.00124  -0.00026   0.00036
  11        6D+1        0.00264  -0.00215   0.00159   0.00801   0.00093
  12        6D-1        0.00270   0.00101   0.00219  -0.00178   0.00022
  13        6D+2        0.00196   0.00384   0.00287  -0.01365  -0.01335
  14        6D-2        0.00219   0.00144   0.00290  -0.00468  -0.01266
  15 2   H  1S          0.03895  -0.00798   0.02632   0.02452  -0.01729
  16        2S          0.04168  -0.01901   0.02502   0.04956  -0.01994
  17        3PX         0.00002   0.00060   0.00003  -0.00306   0.00000
  18        3PY        -0.00085  -0.00046  -0.00073   0.00276   0.00252
  19        3PZ        -0.00104  -0.00021  -0.00075   0.00101   0.00001
  20 3   C  1S          0.00033  -0.00928  -0.00095   0.03236  -0.00491
  21        2S         -0.00568   0.02614  -0.00011  -0.07720   0.01543
  22        3S          0.02506   0.00732   0.02202  -0.14422  -0.06544
  23        4PX        -0.01997  -0.01446  -0.00997   0.07938   0.03108
  24        4PY        -0.02464  -0.02497  -0.00758   0.09443  -0.12138
  25        4PZ        -0.05450   0.04529  -0.02459  -0.11803   0.01464
  26        5PX        -0.00696   0.00798   0.00547   0.00205   0.03194
  27        5PY         0.02083  -0.00378   0.01707   0.00690  -0.05697
  28        5PZ        -0.00095   0.01533   0.00468  -0.06957  -0.03434
  29        6D 0        0.00650  -0.00141   0.00351   0.00001  -0.00280
  30        6D+1        0.00627  -0.00289   0.00281   0.00459   0.00278
  31        6D-1       -0.00346   0.00154  -0.00204  -0.00268   0.00389
  32        6D+2        0.00553   0.00157   0.00270  -0.01051   0.00847
  33        6D-2        0.00004  -0.00307   0.00097   0.01195  -0.01476
  34 4   H  1S          0.08309  -0.02544   0.04061   0.02367   0.00425
  35        2S          0.06021  -0.01727   0.03222   0.03254  -0.00596
  36        3PX         0.00066  -0.00088   0.00016   0.00278  -0.00050
  37        3PY         0.00154  -0.00098   0.00092   0.00178  -0.00276
  38        3PZ         0.00241   0.00020   0.00130  -0.00211   0.00058
  39 5   C  1S          0.00636   0.00296   0.00282  -0.01565   0.01079
  40        2S         -0.01326  -0.00441  -0.00703   0.03109  -0.02529
  41        3S         -0.07108  -0.03605  -0.02872   0.14789  -0.02792
  42        4PX         0.02766   0.01830   0.01211  -0.08872   0.05489
  43        4PY         0.02629   0.01595   0.00616  -0.07894   0.09857
  44        4PZ        -0.01056  -0.00894  -0.00373   0.03494  -0.02010
  45        5PX         0.02994   0.01734   0.01715  -0.08521   0.04385
  46        5PY         0.00525   0.01002   0.00776  -0.05920   0.04044
  47        5PZ        -0.02594  -0.00145  -0.01134   0.01854   0.00352
  48        6D 0        0.00073   0.00027   0.00041  -0.00171   0.00073
  49        6D+1        0.00187  -0.00169   0.00094   0.00399   0.00018
  50        6D-1        0.00155  -0.00072   0.00086   0.00151  -0.00135
  51        6D+2       -0.00038   0.00028  -0.00012  -0.00137  -0.00283
  52        6D-2       -0.00054  -0.00103  -0.00016   0.00386  -0.00378
  53 6   C  1S         -0.00144  -0.00277  -0.00088   0.00887  -0.00571
  54        2S          0.00354   0.00580   0.00239  -0.01961   0.01463
  55        3S          0.02166   0.01811   0.00240  -0.05936   0.02265
  56        4PX        -0.00227  -0.00873  -0.00196   0.03106   0.00473
  57        4PY        -0.00520  -0.00910   0.00194   0.03401  -0.05948
  58        4PZ         0.01423   0.00394   0.00742  -0.01865   0.00356
  59        5PX         0.00839  -0.00025   0.00246   0.00433   0.02055
  60        5PY        -0.01027  -0.00980  -0.00137   0.03457  -0.04301
  61        5PZ         0.01359   0.00221   0.00564  -0.01463  -0.00938
  62        6D 0       -0.00013   0.00061   0.00004  -0.00210   0.00021
  63        6D+1       -0.00028  -0.00031  -0.00026   0.00112   0.00092
  64        6D-1        0.00006   0.00017  -0.00009  -0.00096   0.00110
  65        6D+2        0.00149   0.00084   0.00073  -0.00400   0.00235
  66        6D-2       -0.00046  -0.00082   0.00034   0.00344  -0.00576
  67 7   C  1S         -0.00539  -0.00206  -0.00402   0.00862   0.00499
  68        2S          0.01222   0.00416   0.00932  -0.01937  -0.01284
  69        3S          0.02552   0.02285   0.02258  -0.05257  -0.01200
  70        4PX        -0.00270   0.00798  -0.00406  -0.03039   0.01874
  71        4PY        -0.02574  -0.01017  -0.02348   0.03512   0.05563
  72        4PZ        -0.00844  -0.00042  -0.00229   0.00570  -0.01815
  73        5PX        -0.00771  -0.00125  -0.00664  -0.00259   0.02837
  74        5PY        -0.01684  -0.01156  -0.01657   0.03024   0.03315
  75        5PZ        -0.00556  -0.00242  -0.00293   0.00403  -0.01935
  76        6D 0        0.00004   0.00044   0.00010  -0.00177  -0.00056
  77        6D+1       -0.00035  -0.00039  -0.00029   0.00129   0.00017
  78        6D-1        0.00052   0.00062   0.00045  -0.00226  -0.00054
  79        6D+2        0.00131   0.00128   0.00138  -0.00444  -0.00425
  80        6D-2        0.00097   0.00037   0.00112  -0.00108  -0.00464
  81 8   C  1S          0.00521   0.00407   0.00514  -0.01360  -0.01176
  82        2S         -0.01105  -0.00754  -0.01050   0.02623   0.02818
  83        3S         -0.03470  -0.04894  -0.03932   0.15230   0.03133
  84        4PX        -0.00461  -0.02232  -0.00858   0.07535   0.03612
  85        4PY         0.03504   0.02595   0.03698  -0.08521  -0.10795
  86        4PZ        -0.00297  -0.00131  -0.00492   0.00543   0.02544
  87        5PX        -0.00774  -0.02517  -0.01212   0.07276   0.03084
  88        5PY         0.01735   0.01561   0.02128  -0.07427  -0.05031
  89        5PZ         0.00480  -0.00015   0.00223   0.01947   0.02369
  90        6D 0        0.00068   0.00009   0.00045  -0.00058  -0.00056
  91        6D+1        0.00015  -0.00122   0.00000   0.00428   0.00033
  92        6D-1       -0.00084   0.00094  -0.00033  -0.00305  -0.00036
  93        6D+2       -0.00056   0.00053  -0.00046  -0.00164   0.00208
  94        6D-2        0.00209   0.00039   0.00192  -0.00157  -0.00452
  95 9   N  1S          0.00116  -0.01524   0.00227   0.05024  -0.06305
  96        2S          0.00478  -0.02842   0.00414   0.09766  -0.13177
  97        3S         -0.00837  -0.06774   0.01350   0.20440  -0.18650
  98        4PX        -0.08252  -0.02491  -0.03485   0.16160  -0.20514
  99        4PY        -0.07962  -0.03371  -0.02870   0.18241  -0.27514
 100        4PZ        -0.14670   0.07805  -0.07538  -0.14089   0.13209
 101        5PX         0.04590   0.01709   0.02503  -0.11090   0.12732
 102        5PY         0.06775   0.02817   0.02146  -0.12955   0.19903
 103        5PZ         0.09934  -0.05482   0.05152   0.10484  -0.09297
 104        6D 0       -0.00399  -0.00007  -0.00207   0.00417  -0.00599
 105        6D+1        0.00737  -0.00357   0.00362   0.00608  -0.00396
 106        6D-1        0.00133  -0.00169   0.00121   0.00420  -0.00827
 107        6D+2        0.00070  -0.00070   0.00002   0.00091   0.00005
 108        6D-2        0.00466  -0.00091   0.00182  -0.00143   0.00911
 109 10  C  1S          0.00045  -0.00557   0.00096   0.01875  -0.02149
 110        2S         -0.00222   0.01336  -0.00002  -0.05572   0.06355
 111        3S          0.05099   0.01211  -0.02605   0.03281  -0.05958
 112        4PX        -0.01270  -0.02221  -0.00395   0.09235  -0.08442
 113        4PY         0.02725  -0.02389   0.00879   0.05198  -0.02379
 114        4PZ         0.10787  -0.02701   0.04848  -0.00089   0.06885
 115        5PX         0.01251  -0.02006   0.00179   0.04388  -0.03870
 116        5PY         0.01811  -0.00931   0.00090  -0.00862   0.07857
 117        5PZ         0.09407  -0.03162   0.04703   0.02699   0.00794
 118        6D 0       -0.00365   0.00000  -0.00138   0.00206  -0.00236
 119        6D+1       -0.01073   0.00540  -0.00525  -0.00947   0.00926
 120        6D-1        0.00924  -0.00245   0.00518  -0.00024   0.00173
 121        6D+2        0.00155  -0.00102   0.00071   0.00251  -0.00504
 122        6D-2       -0.01170  -0.00111  -0.00533   0.01527  -0.02357
 123 11  C  1S          0.00062  -0.00291   0.00115   0.01382  -0.01991
 124        2S         -0.00581   0.00969  -0.00528  -0.04034   0.05608
 125        3S          0.04829  -0.03675  -0.00337  -0.01822   0.04842
 126        4PX         0.13391  -0.04507   0.07192   0.03673  -0.03286
 127        4PY        -0.00265   0.02205  -0.00330  -0.06227   0.07740
 128        4PZ        -0.22225   0.05470  -0.11570   0.01252  -0.05421
 129        5PX         0.10887  -0.03615   0.05554   0.06264  -0.07327
 130        5PY        -0.05414   0.03607  -0.00237  -0.05463   0.10562
 131        5PZ        -0.15178   0.03322  -0.09019   0.04064  -0.08830
 132        6D 0       -0.01073  -0.00146   0.00358  -0.00181  -0.00067
 133        6D+1       -0.00643  -0.00048   0.00184  -0.00249   0.00054
 134        6D-1        0.00256  -0.00505   0.00880  -0.00053   0.00281
 135        6D+2        0.00340   0.00271  -0.00483  -0.00073  -0.00107
 136        6D-2       -0.00178   0.00200  -0.00597   0.00218  -0.00332
 137 12  C  1S         -0.00302   0.00321   0.00072  -0.00080  -0.00103
 138        2S          0.00775  -0.00669  -0.00274  -0.00300   0.00842
 139        3S         -0.03644   0.00455   0.00500   0.00768   0.01823
 140        4PX         0.00948  -0.06751   0.14975   0.00820   0.00872
 141        4PY        -0.00151  -0.00334  -0.01988   0.02921  -0.02558
 142        4PZ        -0.00967   0.11306  -0.19087   0.01027  -0.02297
 143        5PX        -0.02100  -0.02984   0.08392  -0.00553   0.03163
 144        5PY        -0.02370   0.02592  -0.00377   0.02273  -0.00908
 145        5PZ        -0.02562   0.07625  -0.11834   0.00836  -0.00871
 146        6D 0        0.00269   0.00509  -0.01176   0.00120  -0.00154
 147        6D+1       -0.00118   0.00184  -0.00523   0.00018  -0.00120
 148        6D-1       -0.01664  -0.00088  -0.00196   0.00136  -0.00428
 149        6D+2        0.00168  -0.00364   0.00667   0.00032  -0.00050
 150        6D-2        0.00816  -0.00105  -0.00279   0.00279  -0.00268
 151 13  C  1S         -0.00259  -0.00327  -0.00322   0.00493  -0.00679
 152        2S          0.00672   0.00791   0.00790  -0.01061   0.01518
 153        3S          0.03442   0.01340   0.01784  -0.01215   0.01245
 154        4PX        -0.14251  -0.05778   0.09581  -0.00622  -0.01184
 155        4PY         0.02179   0.01640  -0.01071  -0.01457   0.01712
 156        4PZ         0.18631   0.06670  -0.15946   0.02711  -0.01435
 157        5PX        -0.08171  -0.04810   0.07885  -0.00538  -0.00706
 158        5PY         0.02226   0.00884  -0.00845  -0.00651   0.00157
 159        5PZ         0.15158   0.04458  -0.11031   0.01233  -0.00092
 160        6D 0        0.00673  -0.00418   0.00709   0.00002   0.00141
 161        6D+1        0.00274  -0.00129   0.00166  -0.00024   0.00057
 162        6D-1        0.00161   0.00333  -0.00708   0.00078  -0.00110
 163        6D+2       -0.00473   0.00168  -0.00361  -0.00117   0.00003
 164        6D-2       -0.00010  -0.00330   0.00568   0.00069  -0.00022
 165 14  C  1S          0.00048   0.00120   0.00161   0.00007   0.00023
 166        2S         -0.00134  -0.00249  -0.00405   0.00010  -0.00074
 167        3S         -0.03701   0.00485  -0.01081  -0.01082   0.01908
 168        4PX        -0.11338   0.03341  -0.04176  -0.00671  -0.00834
 169        4PY         0.02107  -0.00689   0.00796   0.00549   0.00034
 170        4PZ         0.17414  -0.04039   0.07591   0.00998   0.02130
 171        5PX        -0.07089   0.02098  -0.02775  -0.00876  -0.00285
 172        5PY         0.01323  -0.00452   0.00810  -0.00342   0.01198
 173        5PZ         0.12752  -0.02982   0.05299   0.00704   0.01570
 174        6D 0       -0.00836  -0.00409   0.00853  -0.00107   0.00036
 175        6D+1       -0.00413  -0.00242   0.00494  -0.00051   0.00009
 176        6D-1       -0.00340  -0.00500   0.00887  -0.00021   0.00002
 177        6D+2        0.00504   0.00339  -0.00709   0.00078  -0.00066
 178        6D-2        0.00089   0.00231  -0.00559   0.00091  -0.00106
 179 15  C  1S         -0.00195  -0.00065  -0.00043   0.00341  -0.00539
 180        2S          0.00513   0.00149   0.00148  -0.00866   0.01330
 181        3S          0.01813  -0.00226  -0.01033  -0.00292  -0.00813
 182        4PX         0.02696   0.07575  -0.14971   0.01311  -0.01997
 183        4PY        -0.00202  -0.00830   0.02471  -0.01461   0.01807
 184        4PZ        -0.05271  -0.10882   0.20570  -0.00757   0.00467
 185        5PX         0.01184   0.05970  -0.10729  -0.00039   0.00188
 186        5PY        -0.00428  -0.00650   0.01531  -0.01905   0.02468
 187        5PZ        -0.03814  -0.07801   0.15587  -0.00980   0.01170
 188        6D 0        0.00495   0.00225  -0.00439   0.00060  -0.00017
 189        6D+1       -0.00011   0.00095  -0.00215   0.00050  -0.00105
 190        6D-1       -0.01245   0.00016  -0.00018  -0.00070  -0.00129
 191        6D+2       -0.00088  -0.00151   0.00212   0.00033  -0.00106
 192        6D-2        0.00910  -0.00013  -0.00064   0.00091   0.00062
 193 16  C  1S          0.00219  -0.00215   0.00188   0.00316   0.00086
 194        2S         -0.00588   0.00523  -0.00494  -0.00904  -0.00056
 195        3S         -0.02508   0.02536   0.00387  -0.05487   0.06149
 196        4PX         0.16406   0.02971  -0.05416   0.00685   0.02855
 197        4PY        -0.02127  -0.00369   0.00555  -0.00198  -0.00077
 198        4PZ        -0.21275  -0.04500   0.09586  -0.02556   0.00523
 199        5PX         0.11597   0.00803  -0.03370   0.04115  -0.02456
 200        5PY         0.00487  -0.00919  -0.00225   0.00570  -0.02163
 201        5PZ        -0.13350  -0.03204   0.06142   0.00268  -0.01846
 202        6D 0        0.00846  -0.00552   0.01051   0.00028   0.00100
 203        6D+1        0.00499  -0.00191   0.00369   0.00020   0.00083
 204        6D-1        0.00629   0.00334  -0.00763   0.00291  -0.00283
 205        6D+2       -0.00621   0.00243  -0.00472  -0.00035  -0.00025
 206        6D-2       -0.00513  -0.00394   0.00592   0.00237  -0.00355
 207 17  Cl 1S         -0.00009   0.00019  -0.00007  -0.00050   0.00035
 208        2S          0.00055  -0.00128   0.00048   0.00331  -0.00230
 209        3S          0.00045   0.00212  -0.00045  -0.00628   0.00378
 210        4S         -0.00913   0.00225  -0.00025  -0.00238   0.00759
 211        5PX        -0.06479  -0.01777   0.02808   0.00305  -0.00624
 212        5PY         0.00835   0.00607  -0.00312  -0.01317   0.01346
 213        5PZ         0.09639   0.01739  -0.04146   0.02128  -0.01035
[...]
 7435,0.13133133,0.00540261,0.00390925,-0.00009847,0.00006984,0.0000089
 8,-0.00002900,0.00013756,0.00033484,-0.00003782,-0.00000308,0.00004130
 ,-0.00000056,-0.00005829,0.00007776,0.00005542,0.00005779,0.00028469,0
 .00005331,0.00048831,-0.00063814,-0.00010709,-0.00070945,-0.00083470,0
 .00048624,-0.00075525,-0.00000737,0.00011588,0.00023723,-0.00036085,0.
 00014545,-0.00000749,-0.00000894,-0.00001789,-0.00001345,-0.00003863,-
 0.00001760,-0.00000314,0.00000067,-0.00000006,-0.00000493,0.00000942,-
 0.00000358,-0.00001187,0.00000264,-0.00000376,0.00005556,0.00006014,0.
 00002899,-0.00002648,-0.00001826,-0.00001803,-0.00001608,0.00000864,0.
 00000110,-0.03335287,0.03341683,0.00003901,-0.11226263,0.10222566,0.00
 703938,0.00835922,-0.01342083,-0.00125994,0.00034945,-0.00026379,-0.00
 063290,-0.00013507,0.00031747,-0.00041115,-0.00001776,-0.00024985,0.00
 002607,-0.00030305,0.00017661,-0.00075200,-0.00175562,-0.00138477,0.00
 081569,0.00057434,0.00008220,-0.00011218,-0.00070137,-0.00037289,0.001
 28087,-0.00002709,-0.00005428,-0.00000299,0.00000523,-0.00000302,0.000
 01301,0.00000035,-0.00001913,0.00000827,0.00010430,-0.00004606,-0.0000
 7006,-0.00009409,-0.00010392,0.00000189,0.00011991,0.00013108,0.000042
 46,-0.00016061,-0.00055361,0.00054002,0.00013599,-0.00108156,-0.000733
 68,-0.00017992,0.00000190,0.00005722,0.00000083,0.00000241,-0.00000202
 ,-0.00000199,0.00000221,-0.00000150,-0.00000248,0.00000240,-0.00000352
 ,0.13456676,-0.00333959,-0.00044157,0.00122018,0.00017502,-0.00005810,
 0.00009796,0.00006661,-0.00042335,0.00011337,0.00000654,-0.00002186,-0
 .00000776,-0.00002331,-0.00001042,-0.00002163,-0.00004086,0.00001365,0
 .00004726,-0.00069175,0.00071607,-0.00043701,-0.00142842,-0.00004374,0
 .00054021,0.00026519,-0.00002029,-0.00001475,-0.00007197,0.00009363,-0
 .00004369,0.00002721,0.00001876,0.00003314,-0.00007342,-0.00001106,-0.
 00006328,0.00003026,-0.00000200,0.00001909,-0.00000584,-0.00000867,-0.
 00000252,0.00001393,0.00000697,0.00000726,-0.00002973,-0.00004112,-0.0
 0001551,0.00001794,0.00002180,0.00001212,0.00003542,0.00002168,0.00003
 837,0.01179361,0.00564557,-0.00262432,0.10660737,-0.24775056,-0.012243
 25,0.01009376,-0.01907552,-0.00322649,0.00107182,-0.00138805,-0.003372
 16,-0.00041237,0.00015587,0.00015126,0.00008376,-0.00007912,-0.0000046
 1,-0.00012760,-0.00019340,-0.00103816,-0.00238712,-0.00188565,0.002865
 14,0.00055431,0.00012467,-0.00036742,0.00005644,0.00186543,0.00112530,
 0.00000590,0.00000214,-0.00000351,-0.00000234,-0.00000588,-0.00000060,
 0.00000375,0.00000366,-0.00001757,0.00000793,0.00000058,-0.00000820,0.
 00013872,0.00016948,-0.00000592,-0.00007692,-0.00006911,0.00000991,-0.
 00016584,-0.00068937,-0.00022515,-0.00041073,-0.00111251,0.00010259,0.
 00005087,-0.00000279,-0.00002896,-0.00000462,0.00000287,-0.00000088,0.
 00000265,-0.00000161,0.00000189,0.00000200,-0.00000050,0.00000126,-0.1
 2154901,0.26480246,-0.00028323,0.00118477,-0.00963175,-0.00123145,-0.0
 0106250,-0.00006170,0.00023170,0.00099382,0.00046233,0.00017106,0.0000
 8074,-0.00018679,0.00005534,0.00000290,-0.00019740,0.00006068,0.000113
 46,0.00004178,-0.00007862,-0.00005568,-0.00062935,0.00032706,0.0001649
 1,-0.00021440,0.00002890,-0.00060834,-0.00034793,0.00002662,0.00002038
 ,0.00006155,-0.00002607,-0.00005195,-0.00007783,0.00000889,-0.00000476
 ,0.00002300,-0.00001574,0.00000582,-0.00001488,-0.00000101,0.00001458,
 -0.00000597,-0.00001112,-0.00000134,-0.00000281,0.00000707,0.00003717,
 0.00000212,-0.00000255,-0.00000385,-0.00000531,0.00000933,-0.00001447,
 -0.00001523,-0.00451768,-0.00089330,0.03165589,0.01054622,-0.01165998,
 -0.04862037,-0.00055327,-0.00657897,0.00701188,0.00063485,-0.00063466,
 -0.00036643,-0.00027262,-0.00036899,-0.00033795,0.00001470,0.00008027,
 0.00000613,-0.00051393,-0.00021257,0.00002630,-0.00032942,0.00075672,0
 .00059945,0.00046289,0.00026806,-0.00005422,0.00164907,0.00114360,-0.0
 0157192,-0.00001383,0.00002619,0.00001477,-0.00003006,-0.00002538,-0.0
 0001005,0.00001008,0.00001350,-0.00003150,0.00002489,-0.00001944,-0.00
 001918,0.00007029,0.00002535,0.00005211,-0.00007991,-0.00010687,0.0000
 3386,0.00029975,0.00083682,-0.00037570,-0.00015069,-0.00077903,0.00006
 745,-0.00001710,0.00002899,0.00011428,-0.00000192,0.00000207,0.0000045
 1,-0.00000312,0.00000171,0.00000050,-0.00000384,0.00000223,0.,-0.00648
 817,0.01735824,0.02261704,0.00001922,0.00005881,-0.00007827,-0.0000317
 2,-0.00003941,-0.00000221,0.00001765,-0.00002535,-0.00001218,0.0000029
 0,0.00000544,-0.00000422,-0.00000817,0.00001109,0.00000690,0.00000097,
 0.00000131,-0.00000224,0.00000993,-0.00000229,0.00000033,-0.00003199,-
 0.00000851,0.00000573,-0.00001503,0.00000955,0.00000009,0.00000872,-0.
 00001321,0.00000579,-0.00000061,-0.00000145,-0.00000268,0.00000170,-0.
 00000159,0.00000278,-0.00000098,0.00000066,-0.00000382,-0.00000113,0.0
 0000232,-0.00000325,-0.00000109,0.00000296,-0.00000178,0.00000149,-0.0
 0000201,0.00000002,-0.00000001,0.00000358,-0.00000055,0.00000252,-0.00
 000059,-0.00000185,-0.00024427,-0.00013722,-0.00000212,0.00012835,0.00
 045478,0.00061329,0.00191564,-0.00446752,0.00094681,-0.00720743,0.0000
 0899,0.01167272,-0.19474576,-0.04437236,0.15134945,0.00061364,-0.00229
 939,0.00134330,0.00411712,-0.00101510,0.00263849,-0.00009000,0.0001015
 0,-0.00082135,-0.00022778,0.00023078,-0.00018912,-0.00070482,0.0016224
 0,-0.00123052,-0.00000437,-0.00000421,0.00000194,-0.00000053,-0.000001
 50,-0.00000142,0.00000049,0.00000066,-0.00000093,-0.00000160,-0.000000
 94,0.00000088,-0.00000238,-0.00000523,0.00000203,-0.00000313,-0.000000
 68,-0.00000102,0.00000333,0.00000376,-0.00000465,0.00000134,0.00000018
 ,0.00000387,-0.00000200,0.00000098,0.00000168,-0.00000147,0.00000107,0
 .00000318,-0.00000193,0.00000062,0.00000084,-0.00000118,0.00000015,0.0
 0000079,0.00000407,-0.00007415,-0.00003385,0.19812204,-0.00002041,0.00
 002463,-0.00022786,-0.00004525,-0.00006241,0.00000365,0.00002918,-0.00
 000385,-0.00002174,0.00000311,0.00000271,0.00000067,-0.00000668,0.0000
 0745,0.00000620,-0.00000077,0.00000481,-0.00000366,0.00001424,-0.00000
 853,-0.00000148,-0.00004415,0.00000167,0.00000025,-0.00001022,-0.00000
 184,0.00000658,0.00000680,-0.00000530,0.00000077,0.00000244,-0.0000015
 5,0.00000153,-0.00001444,-0.00000305,-0.00001196,0.00000459,0.00000074
 ,0.00000410,-0.00000127,-0.00000016,0.00000010,0.00000080,-0.00000029,
 0.00000090,0.00000186,0.00000520,0.00000099,-0.00000126,-0.00000164,-0
 .00000070,0.00000297,0.00000222,0.00000647,-0.00034246,-0.00037957,0.0
 0017521,-0.00076387,0.00076411,0.00089940,-0.00349611,-0.00307271,-0.0
 0226109,-0.01810843,-0.00092060,0.01804508,-0.04308341,-0.06054229,0.0
 3061572,0.01519149,0.00790107,-0.01407042,-0.00134625,-0.00111578,-0.0
 0461975,0.00015459,-0.00129135,-0.00055513,0.00025202,0.00000296,0.000
 12687,0.00102040,0.00036695,0.00140948,-0.00000459,-0.00000471,0.00000
 142,0.00000072,-0.00000045,0.00000073,0.00000138,0.00000018,0.00000075
 ,-0.00000054,-0.00000227,0.00000028,-0.00000330,-0.00001107,0.00000370
 ,-0.00000189,0.00000145,0.00000092,0.00000574,0.00000365,0.00000039,0.
 00000361,-0.00000512,-0.00000072,-0.00000372,-0.00000055,0.00000098,-0
 .00000005,0.00000074,-0.00000205,0.00000123,0.00000005,0.,0.,0.0000004
 2,-0.00000034,0.00003935,-0.00012909,-0.00003574,0.04860619,0.05829070
 ,-0.00002729,0.00001555,-0.00003306,-0.00001193,-0.00000957,-0.0000010
 1,-0.00000367,0.00000111,0.00000158,0.00000012,-0.00000380,0.00000055,
 0.00000158,-0.00000243,-0.00000223,0.00000110,-0.00000041,0.00000223,-
 0.00000324,0.00000045,-0.00000131,0.00000912,0.00000814,0.00000573,0.0
 0000744,0.00000479,-0.00000298,-0.00000652,-0.00000093,0.00000067,0.00
 000492,0.00000172,0.00000348,-0.00001379,-0.00000020,-0.00001185,0.000
 00521,-0.00000063,0.00000269,-0.00000150,-0.00000050,-0.00000182,0.000
 00208,0.00000158,0.00000052,-0.00000387,-0.00000556,-0.00000218,0.0000
 0293,0.00000375,0.00000142,0.00000706,0.00000042,0.00000655,0.00006809
 ,0.00002544,-0.00002139,-0.00009145,-0.00003657,0.00027901,0.00136719,
 -0.00194845,0.00255331,-0.00258438,-0.00333480,0.00331442,0.15262426,0
 .03198192,-0.18812030,0.01462380,0.00637915,-0.00882605,0.00234244,-0.
 00492522,0.00044061,-0.00087474,-0.00040349,-0.00017112,-0.00017898,0.
 00028952,-0.00011368,-0.00164587,0.00073543,-0.00037967,0.00000184,0.0
 0000112,-0.00000023,0.00000007,0.00000056,0.00000009,-0.00000084,-0.00
 000072,-0.00000110,0.00000129,0.00000159,-0.00000022,0.00000086,0.0000
 0406,-0.00000034,-0.00000002,-0.00000021,-0.00000034,-0.00000018,-0.00
 000154,-0.00000075,0.00000022,-0.00000197,0.00000044,0.00000192,0.0000
 0088,-0.00000096,-0.00000176,0.00000107,0.00000050,-0.00000003,-0.0000
 0013,0.00000076,-0.00000027,0.00000022,0.00000064,0.00006720,0.0000372
 6,-0.00002794,-0.16435260,-0.03053700,0.19224914,0.00001616,0.00001425
 ,0.00004056,-0.00000091,-0.00000311,-0.00000416,0.00000774,-0.00001406
 ,0.00001655,0.00000656,0.00002006,-0.00001430,-0.00000754,0.00000887,-
 0.00000630,0.00000109,0.00000112,0.00000103,0.00000416,0.00000004,0.00
 000045,-0.00000850,-0.00000550,0.00000664,-0.00002120,0.00000090,-0.00
 000696,0.00002019,-0.00001510,0.00000870,-0.00000243,-0.00000093,-0.00
 000539,0.00001375,0.00001119,0.00001710,-0.00001202,-0.00000635,-0.000
 01218,-0.00000135,0.00000648,-0.00000410,-0.00000270,0.00000483,-0.000
 00173,0.00000319,-0.00000353,0.00000045,0.00000009,0.00000649,-0.00000
 018,0.00000344,-0.00001604,-0.00001166,-0.00006150,-0.00006386,-0.0000
 3050,-0.00018959,0.00020731,-0.00025812,-0.00057464,0.00067860,-0.0001
 0268,0.00351657,-0.00083966,0.00324080,0.00697702,0.00657761,0.0018396
 3,-0.12819065,-0.13550918,0.00004953,-0.00617203,-0.01897712,-0.002679
 30,0.00120606,-0.00190164,0.00528171,-0.00070908,-0.00064483,0.0002994
 8,0.00007177,0.00042892,0.00035079,-0.00000153,-0.00000149,0.00000203,
 -0.00000321,-0.00000420,-0.00000194,0.00000029,0.00000189,-0.00000162,
 -0.00000149,-0.00000140,-0.00000017,-0.00000063,-0.00000260,0.00000080
 ,-0.00000214,-0.00000046,-0.00000156,-0.00000149,0.00000192,-0.0000031
 0,0.00000053,-0.00000030,0.00000020,-0.00000224,0.00000235,0.00000383,
 -0.00000356,0.00000011,0.00000399,-0.00000362,0.00000025,-0.00000054,-
 0.00000063,0.00000033,0.00000037,0.00002091,-0.00000035,0.00004267,-0.
 00166757,0.00132788,-0.00203368,0.12713106,0.00001643,0.00001871,-0.00
 004276,-0.00000346,-0.00001145,-0.00000151,0.00002037,0.00000531,-0.00
 000133,-0.00000085,0.00000645,-0.00000163,-0.00000085,0.00000265,0.000
 00194,-0.00000130,-0.00000081,-0.00000328,0.00000323,0.00000388,0.0000
 0292,-0.00000223,-0.00000541,-0.00000362,-0.00001559,-0.00000247,0.000
 00207,0.00001278,-0.00000353,0.00000113,-0.00000582,-0.00000289,-0.000
 00494,0.00001703,0.00000464,0.00001648,-0.00000815,0.00000049,-0.00000
 530,0.00000132,0.00000196,0.00000082,-0.00000293,-0.00000087,-0.000001
 22,0.00000580,0.00000660,0.00000284,-0.00000387,-0.00000360,-0.0000020
 6,-0.00000547,-0.00000809,-0.00000981,0.00000649,0.00003122,0.00000796
 ,0.00014403,-0.00011932,0.00019185,0.00069048,0.00022105,0.00017275,-0
 .00037598,0.00072124,-0.00423877,-0.01181366,-0.01159492,0.00142247,-0
 .13563823,-0.26474548,-0.01750888,-0.00081369,-0.00039016,-0.00265203,
 -0.00194855,0.00272249,-0.00090063,-0.00006478,-0.00009159,0.00002534,
 -0.00024896,-0.00079165,-0.00038745,-0.00000240,-0.00000083,0.00000129
 ,0.00000029,-0.00000091,-0.00000078,0.00000102,0.00000124,0.00000077,-
 0.00000293,-0.00000224,0.00000074,-0.00000033,-0.00000412,0.00000068,-
 0.00000071,0.00000041,-0.00000020,-0.00000018,0.00000144,0.,-0.0000010
 0,0.00000613,0.00000152,-0.00000286,-0.00000074,0.00000173,0.00000142,
 -0.00000072,0.00000020,-0.00000059,0.00000050,-0.00000069,-0.00000015,
 -0.00000024,-0.00000048,-0.00000217,-0.00000141,-0.00003262,0.00153515
 ,-0.00012397,0.00145138,0.14702471,0.27451602,-0.00000138,-0.00000068,
 0.00001260,0.00000054,-0.00000271,0.00000035,-0.00000696,-0.00002021,-
 0.00002309,-0.00000136,-0.00001289,0.00000391,-0.00000512,0.00000341,0
 .00000601,0.00000202,-0.00000183,-0.00000146,0.00000035,0.00000163,0.0
 0000184,0.00000275,-0.00000186,-0.00000510,0.00000128,0.00001494,0.000
 01138,-0.00000653,-0.00000473,0.00000032,0.00000574,0.00000278,0.00000
 391,-0.00002018,-0.00001138,-0.00001836,0.00001024,0.00000173,0.000004
 68,-0.00000165,-0.00000228,-0.00000209,0.00000256,0.00000291,0.0000007
 1,-0.00000454,-0.00000758,-0.00000235,0.00000328,0.00000585,0.00000178
 ,0.00000331,0.00001500,0.00000963,-0.00008412,-0.00002245,0.00004120,-
 0.00019742,0.00016618,-0.00014879,0.00018987,-0.00004120,-0.00118783,0
 .00328993,-0.00404437,-0.00002848,-0.01207763,-0.01934066,0.00328923,0
 .00011669,-0.01747994,-0.05171417,0.01140472,0.01827830,0.00531662,0.0
 0492996,-0.00112467,0.00035229,0.00077586,0.00061701,-0.00043107,-0.00
 028701,-0.00104740,-0.00041736,-0.00000252,-0.00000146,0.00000080,0.00
 000129,0.00000101,0.00000031,-0.00000036,-0.00000081,0.00000035,-0.000
 00093,0.00000157,0.00000111,-0.00000065,0.00000118,0.00000013,0.000000
 39,-0.00000016,0.00000005,0.00000107,-0.00000155,0.00000012,-0.0000016
 4,0.00000413,0.00000350,0.00000076,-0.00000011,-0.00000275,-0.00000155
 ,0.00000148,0.00000214,-0.00000019,0.00000007,0.00000134,-0.00000026,-
 0.00000004,0.00000062,0.00003146,0.00005475,-0.00000195,-0.00194117,0.
 00169349,-0.00077600,-0.00387658,0.02119584,0.04657739,0.00000157,0.00
 000207,0.00004454,-0.00000023,-0.00001115,0.00000002,0.00002438,-0.000
 05966,-0.00004969,-0.00000890,-0.00000996,0.00000835,-0.00001305,0.000
 01252,0.00001855,0.00000425,-0.00000360,-0.00000321,0.00000375,0.00000
 343,0.00000040,-0.00001973,-0.00000358,0.00000483,-0.00001652,0.000052
 56,0.00002080,-0.00000030,-0.00003367,0.00000845,0.00004857,0.00001235
 ,0.00003261,-0.00015045,-0.00000049,-0.00013035,0.00004566,-0.00000592
 ,0.00002950,-0.00001515,-0.00000482,-0.00001014,0.00001666,0.00001523,
 0.00000990,-0.00002091,-0.00002731,-0.00001144,0.00001715,0.00002934,0
 .00001014,0.00007646,0.00000322,0.00007291,-0.00001605,0.00006917,-0.0
 0002253,0.00050508,-0.00042635,-0.00045105,0.00064836,-0.00409336,0.00
 201981,-0.00097586,-0.00034763,-0.00005936,0.00033123,-0.00344284,0.00
 496180,0.00027260,0.01504849,0.01517962,-0.05726299,0.03379932,0.05088
 176,0.00532956,-0.01204557,-0.01187404,-0.00080325,0.00074057,-0.00178
 841,-0.00018265,0.00025168,-0.00021474,-0.00000672,-0.00000621,0.00000
 299,0.00000348,0.00000143,-0.00000081,-0.00000083,-0.00000095,0.000000
 33,-0.00000202,0.00000386,0.00000215,-0.00000350,0.00000026,0.00000112
 ,-0.00000123,-0.00000130,-0.00000008,0.00000450,-0.00000241,-0.0000056
 0,-0.00000178,0.00000885,0.00001022,-0.00000118,0.00000323,-0.00000685
 ,-0.00001122,0.00000809,-0.00000388,0.00000347,-0.00000110,0.00000277,
 0.00000079,0.00000175,0.00000080,-0.00008619,-0.00019508,-0.00002286,0
 .00002585,0.00062846,0.00069586,-0.00135830,0.00148714,-0.00225433,0.0
 5359565,0.00000694,0.00004698,0.00007008,-0.00000663,-0.00002543,-0.00
 000056,0.00000142,-0.00007565,-0.00008312,-0.00000033,-0.00002433,0.00
 001598,-0.00001785,0.00001415,0.00003037,-0.00000125,-0.00000165,-0.00
 001177,0.00001187,0.00000472,0.00000502,-0.00003930,-0.00001361,-0.000
 00353,-0.00000703,0.00003222,0.00003877,-0.00000553,-0.00000998,-0.000
 00426,0.00001807,0.00000385,0.00001485,-0.00006585,-0.00002542,-0.0000
 6422,0.00003041,0.00000727,0.00002254,-0.00000502,-0.00000822,-0.00000
 048,0.00000716,0.00000310,0.00000441,-0.00000735,-0.00000478,-0.000003
 11,0.00000411,0.00000589,0.00000285,0.00001015,0.00002587,0.00003710,-
 0.00022856,0.00005297,0.00011328,0.00086719,-0.00009436,-0.00084617,-0
 .00485338,-0.00226092,-0.00078432,-0.00061210,-0.00042655,0.00099828,-
 0.00302053,0.00219248,-0.00021602,-0.00243447,0.00794385,0.00637432,0.
 03171048,-0.17960751,-0.14730777,0.00692533,-0.01145876,-0.01901328,0.
 00157148,0.00021463,0.00038277,0.00023727,-0.00000800,0.00013843,-0.00
 001251,-0.00000898,0.00000169,0.00000458,0.00000262,0.00000206,0.00000
 193,-0.00000135,0.00000419,-0.00000364,0.00000015,0.00000329,-0.000004
 28,-0.00000838,0.00000134,-0.00000131,0.00000023,0.00000161,0.00000740
 ,-0.00000230,-0.00000252,-0.00000076,0.00001181,0.00001372,-0.00000344
 ,-0.00000356,-0.00000730,0.00000020,0.00000326,-0.00000323,0.00000399,
 -0.00000006,0.00000169,0.00000049,0.00000023,-0.00000034,-0.00012465,-
 0.00019856,-0.00001185,-0.00019023,0.00030642,0.00026702,0.00168562,-0
 .00036502,0.00110772,-0.03146008,0.18376071,0.00004046,-0.00001952,0.0
 0001384,0.00000138,0.00000010,-0.00000134,0.00002118,-0.00002329,-0.00
 000868,-0.00000393,0.00000621,-0.00000461,-0.00000715,0.00000990,0.000
 00218,0.00000391,-0.00000156,-0.00000017,0.00000425,0.00000057,-0.0000
 0031,-0.00001442,-0.00001076,0.00000413,-0.00002032,0.00002853,0.00000
 246,0.00001082,-0.00002571,0.00001043,0.00001756,0.00000565,0.00000931
 ,-0.00004908,0.00000747,-0.00005307,0.00000979,-0.00000942,0.00000141,
 -0.00000825,0.00000352,-0.00000792,0.00000594,0.00001043,0.00000320,-0
 .00000746,-0.00001567,-0.00000359,0.00000764,0.00001752,0.00000416,0.0
 0003746,-0.00000976,0.00003322,-0.00015689,0.00009006,-0.00008110,0.00
 031885,0.00005179,0.00022974,0.00165086,-0.00123934,0.00262531,-0.0000
 2630,0.00106487,-0.00001573,0.00521641,-0.00012303,0.00091160,0.001296
 47,-0.01372940,-0.00863287,0.04971719,-0.14835439,-0.20708633,0.002498
 83,0.00129265,0.00137129,-0.00103855,0.00160663,-0.00039196,-0.0002906
 4,0.00006950,-0.00014818,-0.00000155,-0.00000210,0.00000237,-0.0000001
 9,-0.00000177,-0.00000203,-0.00000083,0.00000092,-0.00000115,-0.000002
 04,0.00000115,0.00000078,-0.00000204,-0.00000120,0.00000091,-0.0000017
 3,-0.00000130,-0.00000129,0.00000106,0.00000061,-0.00000329,-0.0000012
 1,0.00000335,0.00000417,-0.00000077,0.00000435,-0.00000040,-0.00000963
 ,0.00000425,0.00000370,-0.00000149,-0.00000037,0.00000095,-0.00000009,
 0.00000102,0.00000080,-0.00004497,-0.00006321,0.00001360,0.00009087,-0
 .00065699,-0.00036779,-0.00215056,0.00129727,-0.00088348,-0.05711085,0
 .15871048,0.21244571\\0.00745890,0.01200476,0.00223876,0.00041965,-0.0
 0121680,0.00078211,-0.01010979,0.00936434,-0.00408344,0.00022701,0.000
 14646,-0.00025625,0.00314877,-0.00274073,0.00205791,-0.00168406,-0.000
 67358,-0.00065148,0.00124742,-0.00049097,0.00105668,-0.00205188,-0.002
 29940,-0.00161357,-0.00631242,0.00339376,0.00286549,0.01782539,-0.0151
 2345,0.00141288,-0.00124912,0.00182473,-0.00150091,0.00394485,-0.00188
 930,0.00173028,-0.00120768,0.00063633,-0.00083527,-0.00070502,0.000872
 27,-0.00043785,-0.00150445,0.00147126,-0.00112683,0.00284963,0.0029982
 8,0.00160874,-0.00193157,-0.00183957,-0.00117116,-0.00163852,0.0003641
 7,-0.00172805,0.00725861,0.00354355,-0.00002533,-0.01625975,-0.0127204
 5,-0.00036115,-0.00010251,0.00101745,-0.00180980,-0.00077893,0.0008942
 7,0.00093028,0.00151668,0.00068741,-0.00039502,0.00100388,0.00125752,-
 0.00005582,0.00089380,0.00227682,-0.00061013,-0.00357106,-0.00158839,0
 .00160825,0.00179104,0.00038615,-0.00061237,0.00122616,-0.00018667,-0.
 00100741,-0.00042483,0.00020610,-0.00031406,-0.00052543,-0.00067952,0.
 00013855,0.00012920,0.00012143,-0.00005398,0.00010852,-0.00094684,0.00
 013775,-0.00015265,-0.00071405,-0.00010225,-0.00032058,-0.00017822,-0.
 00028467,-0.00024711,0.00039000,-0.00030509,0.00071045,-0.00035190,0.0
 0017646,-0.00640791,-0.00004714,0.00127665,-0.00026739,0.00030887,0.00
 036078,-0.00033606,0.00009964,0.00003949,-0.00044200,0.00022771,0.0001
 0731,0.00550344,-0.00093081,0.00017932,0.00038484,0.00007593,0.0000691
 1,0.00029002,0.00003273,0.00010094,0.00029248,0.00001585,0.00046412\\\
 @

 Writing a WFNX file to "03_lig.wfx"


 YOU WILL NEVER "FIND" TIME FOR ANYTHING.
 IF YOU WANT TIME, YOU MUST MAKE IT.

                        -- CHARLES BIXTON
 Job cpu time:       0 days  4 hours 58 minutes  6.3 seconds.
 Elapsed time:       0 days  0 hours 37 minutes 16.1 seconds.
 File lengths (MBytes):  RWF=   1215 Int=      0 D2E=      0 Chk=     16 Scr=      1
 Normal termination of Gaussian 16 at Thu Dec  8 09:42:54 2022.
