 Entering Gaussian System, Link 0=g16
 Initial command:
 /software/gaussian/G16-A.03/avx/g16/l1.exe "/scratch/lcmd/1380808.slurm/Gau-6936.inp" -scrdir="/scratch/lcmd/1380808.slurm/"
 Entering Link 1 = /software/gaussian/G16-A.03/avx/g16/l1.exe PID=      6944.
  
 Copyright (c) 1988,1990,1992,1993,1995,1998,2003,2009,2016,
            Gaussian, Inc.  All Rights Reserved.
  
 This is part of the Gaussian(R) 16 program.  It is based on
 the Gaussian(R) 09 system (copyright 2009, Gaussian, Inc.),
 the Gaussian(R) 03 system (copyright 2003, Gaussian, Inc.),
 the Gaussian(R) 98 system (copyright 1998, Gaussian, Inc.),
 the Gaussian(R) 94 system (copyright 1995, Gaussian, Inc.),
 the Gaussian 92(TM) system (copyright 1992, Gaussian, Inc.),
 the Gaussian 90(TM) system (copyright 1990, Gaussian, Inc.),
 the Gaussian 88(TM) system (copyright 1988, Gaussian, Inc.),
 the Gaussian 86(TM) system (copyright 1986, Carnegie Mellon
 University), and the Gaussian 82(TM) system (copyright 1983,
 Carnegie Mellon University). Gaussian is a federally registered
 trademark of Gaussian, Inc.
  
 This software contains proprietary and confidential information,
 including trade secrets, belonging to Gaussian, Inc.
  
 This software is provided under written license and may be
 used, copied, transmitted, or stored only in accord with that
 written license.
  
 The following legend is applicable only to US Government
 contracts under FAR:
  
                    RESTRICTED RIGHTS LEGEND
  
 Use, reproduction and disclosure by the US Government is
 subject to restrictions as set forth in subparagraphs (a)
 and (c) of the Commercial Computer Software - Restricted
 Rights clause in FAR 52.227-19.
  
 Gaussian, Inc.
 340 Quinnipiac St., Bldg. 40, Wallingford CT 06492
  
  
 ---------------------------------------------------------------
 Warning -- This program may not be used in any manner that
 competes with the business of Gaussian, Inc. or will provide
 assistance to any competitor of Gaussian, Inc.  The licensee
 of this program is prohibited from giving any competitor of
 Gaussian, Inc. access to this program.  By using this program,
 the user acknowledges that Gaussian, Inc. is engaged in the
 business of creating and licensing software in the field of
 computational chemistry and represents and warrants to the
 licensee that it is not a competitor of Gaussian, Inc. and that
 it will not use this program in any manner prohibited above.
 ---------------------------------------------------------------
  

 Cite this work as:
 Gaussian 16, Revision A.03,
 M. J. Frisch, G. W. Trucks, H. B. Schlegel, G. E. Scuseria, 
 M. A. Robb, J. R. Cheeseman, G. Scalmani, V. Barone, 
 G. A. Petersson, H. Nakatsuji, X. Li, M. Caricato, A. V. Marenich, 
 J. Bloino, B. G. Janesko, R. Gomperts, B. Mennucci, H. P. Hratchian, 
 J. V. Ortiz, A. F. Izmaylov, J. L. Sonnenberg, D. Williams-Young, 
 F. Ding, F. Lipparini, F. Egidi, J. Goings, B. Peng, A. Petrone, 
 T. Henderson, D. Ranasinghe, V. G. Zakrzewski, J. Gao, N. Rega, 
 G. Zheng, W. Liang, M. Hada, M. Ehara, K. Toyota, R. Fukuda, 
 J. Hasegawa, M. Ishida, T. Nakajima, Y. Honda, O. Kitao, H. Nakai, 
 T. Vreven, K. Throssell, J. A. Montgomery, Jr., J. E. Peralta, 
 F. Ogliaro, M. J. Bearpark, J. J. Heyd, E. N. Brothers, K. N. Kudin, 
 V. N. Staroverov, T. A. Keith, R. Kobayashi, J. Normand, 
 K. Raghavachari, A. P. Rendell, J. C. Burant, S. S. Iyengar, 
 J. Tomasi, M. Cossi, J. M. Millam, M. Klene, C. Adamo, R. Cammi, 
 J. W. Ochterski, R. L. Martin, K. Morokuma, O. Farkas, 
 J. B. Foresman, and D. J. Fox, Gaussian, Inc., Wallingford CT, 2016.
 
 ******************************************
 Gaussian 16:  ES64L-G16RevA.03 25-Dec-2016
                 8-Dec-2022 
 ******************************************
 %nprocs=8
 Will use up to    8 processors via shared memory.
 %mem=32000MB
 %chk=04_lig.chk
 ----------------------------------------------------------------------
 #p pop=(regular,nbo,savenbos) freq=noraman def2svp empiricaldispersion
 =gd3bj output=wfx pbe1pbe
 ----------------------------------------------------------------------
 1/10=4,30=1,38=1/1,3;
 2/12=2,17=6,18=5,40=1/2;
 3/5=43,7=101,11=2,25=1,30=1,71=2,74=-13,124=41,140=1/1,2,3;
 4//1;
 5/5=2,38=5,98=1/2;
 8/6=4,10=90,11=11/1;
 11/6=1,8=1,9=11,15=111,16=1/1,2,10;
 10/6=1/2;
 6/28=1,40=1,73=1/1,7;
 7/8=1,10=1,25=1/1,2,3,16;
 1/10=4,30=1/3;
 99/6=200/99;
 Leave Link    1 at Thu Dec  8 09:05:35 2022, MaxMem=  4194304000 cpu:               0.4 elap:               0.1
 (Enter /software/gaussian/G16-A.03/avx/g16/l101.exe)
 ------
 04_lig
 ------
 Symbolic Z-matrix:
 Charge =  0 Multiplicity = 1
 C                    -0.7064    2.19015   0.34901 
 H                    -0.3907    2.19215   1.4104 
 C                     0.59345   2.19235  -0.48086 
 H                     0.30111   2.14442  -1.5487 
 C                     1.37509   3.48142  -0.22204 
 C                     0.53828   4.7259   -0.48037 
 C                    -0.7457    4.70221   0.33697 
 C                    -1.54195   3.43096   0.07018 
 N                     1.36602   1.00697  -0.15656 
 C                     2.47399   0.78122  -0.74137 
 C                     3.30923  -0.38616  -0.46691 
 C                     3.11423  -1.1784    0.67535 
 C                     3.90821  -2.29855   0.88407 
 C                     4.9036   -2.63834  -0.03508 
 C                     5.11386  -1.84616  -1.16274 
 C                     4.32415  -0.71975  -1.37281 
 N                    -1.37825   0.91636   0.18325 
 C                    -2.59451   0.79473  -0.17411 
 C                    -3.29832  -0.4844   -0.24714 
 C                    -2.93502  -1.56854   0.56507 
 C                    -3.61666  -2.77424   0.45564 
 C                    -4.66164  -2.91005  -0.45897 
 C                    -5.04444  -1.82808  -1.25173 
 C                    -4.37474  -0.61487  -1.13485 
 H                     2.28142   3.49326  -0.84669 
 H                     1.71687   3.46333   0.82755 
 H                     0.28747   4.78303  -1.55465 
 H                     1.12712   5.62757  -0.25022 
 H                    -1.36437   5.58568   0.11551 
 H                    -0.49754   4.75551   1.41134 
 H                    -1.87454   3.42214  -0.98382 
 H                    -2.45048   3.41571   0.6934 
 H                     2.85612   1.46696  -1.5203 
 H                     2.35309  -0.90165   1.41208 
 H                     3.75058  -2.91102   1.77458 
 H                     5.52279  -3.52287   0.13298 
 H                     5.89429  -2.10812  -1.88058 
 H                     4.48185  -0.09738  -2.25813 
 H                    -3.18474   1.68395  -0.44691 
 H                    -2.14725  -1.44914   1.31598 
 H                    -3.33176  -3.61402   1.09287 
 H                    -5.18989  -3.86259  -0.54576 
 H                    -5.86902  -1.93095  -1.96051 
 H                    -4.67224   0.23712  -1.75254 
 
 ITRead=  0  0  0  0  0  0  0  0  0  0  0  0  0  0  0  0  0  0  0  0
 ITRead=  0  0  0  0  0  0  0  0  0  0  0  0  0  0  0  0  0  0  0  0
 ITRead=  0  0  0  0
 MicOpt= -1 -1 -1 -1 -1 -1 -1 -1 -1 -1 -1 -1 -1 -1 -1 -1 -1 -1 -1 -1
 MicOpt= -1 -1 -1 -1 -1 -1 -1 -1 -1 -1 -1 -1 -1 -1 -1 -1 -1 -1 -1 -1
 MicOpt= -1 -1 -1 -1
 NAtoms=     44 NQM=       44 NQMF=       0 NMMI=      0 NMMIF=      0
                NMic=       0 NMicF=      0.
                    Isotopes and Nuclear Properties:
 (Nuclear quadrupole moments (NQMom) in fm**2, nuclear magnetic moments (NMagM)
  in nuclear magnetons)

  Atom         1           2           3           4           5           6           7           8           9          10
 IAtWgt=          12           1          12           1          12          12          12          12          14          12
 AtmWgt=  12.0000000   1.0078250  12.0000000   1.0078250  12.0000000  12.0000000  12.0000000  12.0000000  14.0030740  12.0000000
 NucSpn=           0           1           0           1           0           0           0           0           2           0
 AtZEff=  -0.0000000  -0.0000000  -0.0000000  -0.0000000  -0.0000000  -0.0000000  -0.0000000  -0.0000000  -0.0000000  -0.0000000
 NQMom=    0.0000000   0.0000000   0.0000000   0.0000000   0.0000000   0.0000000   0.0000000   0.0000000   2.0440000   0.0000000
 NMagM=    0.0000000   2.7928460   0.0000000   2.7928460   0.0000000   0.0000000   0.0000000   0.0000000   0.4037610   0.0000000
 AtZNuc=   6.0000000   1.0000000   6.0000000   1.0000000   6.0000000   6.0000000   6.0000000   6.0000000   7.0000000   6.0000000

  Atom        11          12          13          14          15          16          17          18          19          20
 IAtWgt=          12          12          12          12          12          12          14          12          12          12
 AtmWgt=  12.0000000  12.0000000  12.0000000  12.0000000  12.0000000  12.0000000  14.0030740  12.0000000  12.0000000  12.0000000
 NucSpn=           0           0           0           0           0           0           2           0           0           0
 AtZEff=  -0.0000000  -0.0000000  -0.0000000  -0.0000000  -0.0000000  -0.0000000  -0.0000000  -0.0000000  -0.0000000  -0.0000000
 NQMom=    0.0000000   0.0000000   0.0000000   0.0000000   0.0000000   0.0000000   2.0440000   0.0000000   0.0000000   0.0000000
 NMagM=    0.0000000   0.0000000   0.0000000   0.0000000   0.0000000   0.0000000   0.4037610   0.0000000   0.0000000   0.0000000
 AtZNuc=   6.0000000   6.0000000   6.0000000   6.0000000   6.0000000   6.0000000   7.0000000   6.0000000   6.0000000   6.0000000

  Atom        21          22          23          24          25          26          27          28          29          30
 IAtWgt=          12          12          12          12           1           1           1           1           1           1
 AtmWgt=  12.0000000  12.0000000  12.0000000  12.0000000   1.0078250   1.0078250   1.0078250   1.0078250   1.0078250   1.0078250
 NucSpn=           0           0           0           0           1           1           1           1           1           1
 AtZEff=  -0.0000000  -0.0000000  -0.0000000  -0.0000000  -0.0000000  -0.0000000  -0.0000000  -0.0000000  -0.0000000  -0.0000000
 NQMom=    0.0000000   0.0000000   0.0000000   0.0000000   0.0000000   0.0000000   0.0000000   0.0000000   0.0000000   0.0000000
 NMagM=    0.0000000   0.0000000   0.0000000   0.0000000   2.7928460   2.7928460   2.7928460   2.7928460   2.7928460   2.7928460
 AtZNuc=   6.0000000   6.0000000   6.0000000   6.0000000   1.0000000   1.0000000   1.0000000   1.0000000   1.0000000   1.0000000

  Atom        31          32          33          34          35          36          37          38          39          40
 IAtWgt=           1           1           1           1           1           1           1           1           1           1
 AtmWgt=   1.0078250   1.0078250   1.0078250   1.0078250   1.0078250   1.0078250   1.0078250   1.0078250   1.0078250   1.0078250
 NucSpn=           1           1           1           1           1           1           1           1           1           1
 AtZEff=  -0.0000000  -0.0000000  -0.0000000  -0.0000000  -0.0000000  -0.0000000  -0.0000000  -0.0000000  -0.0000000  -0.0000000
 NQMom=    0.0000000   0.0000000   0.0000000   0.0000000   0.0000000   0.0000000   0.0000000   0.0000000   0.0000000   0.0000000
 NMagM=    2.7928460   2.7928460   2.7928460   2.7928460   2.7928460   2.7928460   2.7928460   2.7928460   2.7928460   2.7928460
 AtZNuc=   1.0000000   1.0000000   1.0000000   1.0000000   1.0000000   1.0000000   1.0000000   1.0000000   1.0000000   1.0000000

  Atom        41          42          43          44
 IAtWgt=           1           1           1           1
 AtmWgt=   1.0078250   1.0078250   1.0078250   1.0078250
 NucSpn=           1           1           1           1
 AtZEff=  -0.0000000  -0.0000000  -0.0000000  -0.0000000
 NQMom=    0.0000000   0.0000000   0.0000000   0.0000000
 NMagM=    2.7928460   2.7928460   2.7928460   2.7928460
 AtZNuc=   1.0000000   1.0000000   1.0000000   1.0000000
 Leave Link  101 at Thu Dec  8 09:05:35 2022, MaxMem=  4194304000 cpu:               1.0 elap:               0.1
 (Enter /software/gaussian/G16-A.03/avx/g16/l103.exe)

 GradGradGradGradGradGradGradGradGradGradGradGradGradGradGradGradGradGrad
 Berny optimization.
 Initialization pass.
 Trust Radius=3.00D-01 FncErr=1.00D-07 GrdErr=1.00D-07 EigMax=2.50D+02 EigMin=1.00D-04
 Number of steps in this run=      2 maximum allowed number of steps=      2.
 GradGradGradGradGradGradGradGradGradGradGradGradGradGradGradGradGradGrad

 Leave Link  103 at Thu Dec  8 09:05:35 2022, MaxMem=  4194304000 cpu:               0.3 elap:               0.1
 (Enter /software/gaussian/G16-A.03/avx/g16/l202.exe)
                          Input orientation:                          
 ---------------------------------------------------------------------
 Center     Atomic      Atomic             Coordinates (Angstroms)
 Number     Number       Type             X           Y           Z
 ---------------------------------------------------------------------
      1          6           0       -0.706400    2.190150    0.349010
      2          1           0       -0.390700    2.192150    1.410400
      3          6           0        0.593450    2.192350   -0.480860
      4          1           0        0.301110    2.144420   -1.548700
      5          6           0        1.375090    3.481420   -0.222040
      6          6           0        0.538280    4.725900   -0.480370
      7          6           0       -0.745700    4.702210    0.336970
      8          6           0       -1.541950    3.430960    0.070180
      9          7           0        1.366020    1.006970   -0.156560
     10          6           0        2.473990    0.781220   -0.741370
     11          6           0        3.309230   -0.386160   -0.466910
     12          6           0        3.114230   -1.178400    0.675350
     13          6           0        3.908210   -2.298550    0.884070
     14          6           0        4.903600   -2.638340   -0.035080
     15          6           0        5.113860   -1.846160   -1.162740
     16          6           0        4.324150   -0.719750   -1.372810
     17          7           0       -1.378250    0.916360    0.183250
     18          6           0       -2.594510    0.794730   -0.174110
     19          6           0       -3.298320   -0.484400   -0.247140
     20          6           0       -2.935020   -1.568540    0.565070
     21          6           0       -3.616660   -2.774240    0.455640
     22          6           0       -4.661640   -2.910050   -0.458970
     23          6           0       -5.044440   -1.828080   -1.251730
     24          6           0       -4.374740   -0.614870   -1.134850
     25          1           0        2.281420    3.493260   -0.846690
     26          1           0        1.716870    3.463330    0.827550
     27          1           0        0.287470    4.783030   -1.554650
     28          1           0        1.127120    5.627570   -0.250220
     29          1           0       -1.364370    5.585680    0.115510
     30          1           0       -0.497540    4.755510    1.411340
     31          1           0       -1.874540    3.422140   -0.983820
     32          1           0       -2.450480    3.415710    0.693400
     33          1           0        2.856120    1.466960   -1.520300
     34          1           0        2.353090   -0.901650    1.412080
     35          1           0        3.750580   -2.911020    1.774580
     36          1           0        5.522790   -3.522870    0.132980
     37          1           0        5.894290   -2.108120   -1.880580
     38          1           0        4.481850   -0.097380   -2.258130
     39          1           0       -3.184740    1.683950   -0.446910
     40          1           0       -2.147250   -1.449140    1.315980
     41          1           0       -3.331760   -3.614020    1.092870
     42          1           0       -5.189890   -3.862590   -0.545760
     43          1           0       -5.869020   -1.930950   -1.960510
     44          1           0       -4.672240    0.237120   -1.752540
 ---------------------------------------------------------------------
                    Distance matrix (angstroms):
                    1          2          3          4          5
     1  C    0.000000
     2  H    1.107348   0.000000
     3  C    1.542173   2.131998   0.000000
     4  H    2.149063   3.039268   1.108171   0.000000
     5  C    2.515169   2.728570   1.529592   2.168186   0.000000
     6  C    2.943999   3.295133   2.534151   2.803858   1.521748
     7  C    2.512396   2.752940   2.959994   3.345721   2.510094
     8  C    1.521677   2.157827   2.529374   2.769987   2.932075
     9  N    2.439352   2.635542   1.451606   2.089469   2.475333
    10  C    3.645393   3.850622   2.365499   2.689145   2.961142
    11  C    4.840287   4.884819   3.744912   4.077118   4.331170
    12  C    5.104002   4.917869   4.364987   4.888883   5.054091
    13  C    6.459825   6.238913   5.746203   6.218482   6.406889
    14  C    7.411743   7.311133   6.489351   6.807992   7.066597
    15  C    7.242418   7.295833   6.099888   6.263885   6.576202
    16  C    6.061239   6.201228   4.816017   4.941585   5.260328
    17  N    1.449621   2.027016   2.440654   2.707034   3.784795
    18  C    2.405371   3.052906   3.494356   3.477898   4.793571
    19  C    3.771825   4.285512   4.729217   4.643345   6.129365
    20  C    4.375063   4.618543   5.261973   5.359723   6.685708
    21  C    5.755532   5.998618   6.577923   6.599963   8.031818
    22  C    6.504521   6.911434   7.324680   7.166873   8.794836
    23  C    6.125939   6.701230   6.967345   6.666622   8.394130
    24  C    4.850433   5.498203   5.743788   5.445046   7.118522
    25  H    3.472011   3.731966   2.162277   2.496761   1.100801
    26  H    2.778889   2.529321   2.142288   3.064386   1.103984
    27  H    3.366708   3.995509   2.821041   2.638652   2.157071
    28  H    3.941666   4.106525   3.484069   3.807975   2.160612
    29  H    3.466565   3.760428   3.962752   4.169615   3.470806
    30  H    2.784464   2.565586   3.367561   4.027092   2.792486
    31  H    2.158422   3.073588   2.802914   2.585558   3.338251
    32  H    2.159263   2.500776   3.484395   3.770204   3.934124
    33  H    4.087649   4.433593   2.593511   2.643451   2.817264
    34  H    4.477703   4.135213   4.031425   4.717561   4.778926
    35  H    6.922345   6.582186   6.410840   6.964231   7.105824
    36  H    8.455062   8.322417   7.572247   7.887469   8.147977
    37  H    8.186288   8.296021   6.967938   7.034053   7.376780
    38  H    6.240826   6.514737   4.849867   4.796618   5.158045
    39  H    2.651772   3.393306   3.812393   3.684715   4.906477
    40  H    4.031812   4.043931   4.899033   5.207162   6.251624
    41  H    6.413597   6.516308   7.183163   7.303100   8.615608
    42  H    7.585378   7.969860   8.373382   8.200069   9.855873
    43  H    6.997856   7.640352   7.807335   7.405993   9.208320
    44  H    4.894765   5.670795   5.759131   5.330437   7.031224
                    6          7          8          9         10
     6  C    0.000000
     7  C    1.522239   0.000000
     8  C    2.511440   1.523571   0.000000
     9  N    3.823669   4.284592   3.792549   0.000000
    10  C    4.401772   5.186847   4.879294   1.273013   0.000000
    11  C    5.814766   6.555928   6.196194   2.411056   1.461414
    12  C    6.544613   7.042381   6.579699   2.919615   2.501422
    13  C    7.909553   8.424300   7.949462   4.297918   3.766169
    14  C    8.572417   9.270204   8.853959   5.081094   4.253850
    15  C    8.037010   8.914299   8.583000   4.816540   3.748279
    16  C    6.692112   7.617373   7.329512   3.634743   2.464695
    17  N    4.315794   3.841407   2.522458   2.766713   3.963955
    18  C    5.036096   4.352896   2.849082   3.966252   5.100163
    19  C    6.474652   5.810161   4.302972   4.897801   5.930061
    20  C    7.264760   6.645860   5.213498   5.064874   6.040327
    21  C    8.625065   8.009607   6.554198   6.284858   7.153331
    22  C    9.238363   8.597361   7.086669   7.194941   8.038808
    23  C    8.643866   7.977958   6.455415   7.094428   7.974691
    24  C    7.286284   6.603599   5.083851   6.045142   7.000643
    25  H    2.166132   3.467862   3.932263   2.737859   2.720907
    26  H    2.166521   2.799954   3.345828   2.669321   3.198196
    27  H    1.104648   2.156896   2.795522   4.168520   4.632146
    28  H    1.101231   2.169917   3.471554   4.627720   5.053949
    29  H    2.171260   1.101052   2.162500   5.337943   6.208872
    30  H    2.156935   1.103945   2.154979   4.470203   5.409171
    31  H    2.788360   2.158088   1.105265   4.125365   5.093423
    32  H    3.467999   2.165271   1.101845   4.592399   5.766239
    33  H    4.132133   5.185499   5.072469   2.071660   1.105891
    34  H    6.208399   6.493197   5.978590   2.660408   2.735693
    35  H    8.586397   8.957931   8.434249   4.976552   4.646754
    36  H    9.657316  10.343477   9.913135   6.154837   5.346481
    37  H    8.794957   9.766657   9.475470   5.760318   4.620015
    38  H    6.478905   7.556314   7.359102   3.917216   2.665333
    39  H    4.807854   3.958949   2.453199   4.609991   5.737844
    40  H    6.969223   6.384505   5.072847   4.532540   5.528386
    41  H    9.327731   8.741783   7.340372   6.706993   7.509281
    42  H   10.323680   9.689470   8.178186   8.175821   8.963163
    43  H    9.357241   8.690549   7.183127   8.014450   8.857087
    44  H    6.994075   6.302444   4.829248   6.292885   7.237894
                   11         12         13         14         15
    11  C    0.000000
    12  C    1.403719   0.000000
    13  C    2.416849   1.388778   0.000000
    14  C    2.792993   2.416191   1.396816   0.000000
    15  C    2.423318   2.796962   2.418198   1.394050   0.000000
    16  C    1.400714   2.422648   2.785520   2.409621   1.391607
    17  N    4.908333   4.981221   6.226833   7.221163   7.182667
    18  C    6.027801   6.099552   7.278289   8.247845   8.207963
    19  C    6.611934   6.515629   7.516971   8.482683   8.570734
    20  C    6.438452   6.062821   6.889446   7.934016   8.236921
    21  C    7.383900   6.920972   7.552053   8.535462   8.927624
    22  C    8.360912   8.046704   8.695977   9.578482   9.858375
    23  C    8.513453   8.408306   9.215906  10.054862  10.158706
    24  C    7.716336   7.725222   8.690114   9.559891   9.568196
    25  H    4.031194   4.983431   6.259955   6.717965   6.052438
    26  H    4.362317   4.849890   6.164773   6.937561   6.609953
    27  H    6.085617   6.964346   8.319008   8.870991   8.209372
    28  H    6.401055   7.150281   8.476111   9.090289   8.519591
    29  H    7.605565   8.131670   9.515874  10.341404   9.941511
    30  H    6.667540   6.985546   8.333571   9.270030   9.038570
    31  H    6.453047   6.986103   8.345987   9.141811   8.753555
    32  H    6.998199   7.216105   8.551144   9.553256   9.399562
    33  H    2.179218   3.447525   4.589875   4.821985   4.025171
    34  H    2.170377   1.094850   2.156043   3.408147   3.891484
    35  H    3.404994   2.148306   1.092234   2.163025   3.408857
    36  H    3.885700   3.404683   2.161010   1.092719   2.158117
    37  H    3.412645   3.889202   3.409409   2.160664   1.092240
    38  H    2.160301   3.412374   3.879128   3.402397   2.158135
    39  H    6.815967   7.009247   8.242679   9.180035   9.046593
    40  H    5.837962   5.307248   6.129979   7.276953   7.682799
    41  H    7.546837   6.903431   7.361469   8.369312   8.918610
    42  H    9.182964   8.812173   9.341630  10.180281  10.517315
    43  H    9.426425   9.392171  10.189259  10.966176  11.012142
    44  H    8.108341   8.278132   9.327672  10.144686  10.022758
                   16         17         18         19         20
    16  C    0.000000
    17  N    6.133151   0.000000
    18  C    7.183202   1.273495   0.000000
    19  C    7.708733   2.415374   1.461799   0.000000
    20  C    7.561175   2.957034   2.499476   1.402509   0.000000
    21  C    8.403608   4.324951   3.765491   2.416321   1.389360
    22  C    9.293919   5.082766   4.252007   2.790572   2.414441
    23  C    9.434698   4.799174   3.747340   2.421490   2.796029
    24  C    8.702776   3.614001   2.465606   1.401332   2.423223
    25  H    4.711582   4.592861   5.613299   6.878571   7.404467
    26  H    5.397930   4.059796   5.168438   6.472377   6.857747
    27  H    6.827037   4.554784   5.110600   6.504867   7.431023
    28  H    7.195115   5.353529   6.100218   7.545907   8.303594
    29  H    8.621647   4.669832   4.954829   6.381030   7.338386
    30  H    7.808883   4.125885   4.753810   6.168596   6.830160
    31  H    7.465275   2.808432   2.842054   4.222665   5.332032
    32  H    8.201638   2.767071   2.764571   4.100525   5.009391
    33  H    2.637909   4.597296   5.654510   6.580720   6.862968
    34  H    3.416691   4.328751   5.465569   5.904705   5.396876
    35  H    3.877720   6.594397   7.601983   7.724172   6.925490
    36  H    3.400239   8.205708   9.199268   9.337493   8.691413
    37  H    2.156558   8.142279   9.132267   9.476744   9.177639
    38  H    1.093620   6.428746   7.430604   8.045179   8.071229
    39  H    7.938419   2.061481   1.101591   2.180493   3.415429
    40  H    7.045610   2.733135   2.730451   2.167725   1.094853
    41  H    8.548060   5.016767   4.646058   3.404595   2.149410
    42  H   10.053776   6.156169   5.344600   3.883218   3.403094
    43  H   10.281688   5.733227   4.619845   3.411252   3.888220
    44  H    9.055100   3.880595   2.668208   2.162054   3.413159
                   21         22         23         24         25
    21  C    0.000000
    22  C    1.395328   0.000000
    23  C    2.418447   1.394870   0.000000
    24  C    2.786974   2.409767   1.390697   0.000000
    25  H    8.704307   9.452978   9.063605   7.827147   0.000000
    26  H    8.215360   9.108265   8.833897   7.588837   1.767114
    27  H    8.740471   9.212909   8.498694   7.144911   2.478013
    28  H    9.674301  10.317183   9.730257   8.367861   2.498692
    29  H    8.664685   9.131235   8.389046   7.005180   4.312289
    30  H    8.206059   8.921805   8.432669   7.096249   3.796656
    31  H    6.595616   6.938301   6.138799   4.750922   4.158830
    32  H    6.303331   6.799443   6.165184   4.826059   4.976823
    33  H    7.986801   8.763638   8.564360   7.534449   2.211317
    34  H    6.329241   7.532658   7.916919   7.199499   4.941904
    35  H    7.485622   8.703688   9.363957   8.930729   7.074199
    36  H    9.175734  10.220008  10.791482  10.393506   7.790527
    37  H    9.816303  10.681373  10.960369  10.403792   6.745162
    38  H    8.950754   9.734038   9.734391   8.942524   4.441481
    39  H    4.569093   4.825579   4.054698   2.678420   5.771684
    40  H    2.157601   3.406885   3.889787   3.415302   6.979798
    41  H    1.091998   2.161565   3.408813   3.878846   9.261917
    42  H    2.159250   1.092663   2.158421   3.399880  10.489021
    43  H    3.409112   2.161256   1.092192   2.155610   9.853544
    44  H    3.880541   3.402663   2.157405   1.093588   7.731520
                   26         27         28         29         30
    26  H    0.000000
    27  H    3.075658   0.000000
    28  H    2.488640   1.766295   0.000000
    29  H    3.808597   2.482389   2.518538   0.000000
    30  H    2.629477   3.068240   2.482094   1.766282   0.000000
    31  H    4.022559   2.617662   3.796321   2.479860   3.067702
    32  H    4.169781   3.797323   4.310680   2.494466   2.474768
    33  H    3.285694   4.194695   4.681156   6.119826   5.536796
    34  H    4.449663   6.736754   6.848135   7.588547   6.334789
    35  H    6.757602   9.070574   9.159142  10.055304   8.772351
    36  H    7.985890   9.962161  10.158706  11.419236  10.315530
    37  H    7.471671   8.889916   9.231732  10.764157   9.939902
    38  H    5.463075   6.473493   6.932602   8.491739   7.861926
    39  H    5.368074   4.784101   5.846620   4.342069   4.484263
    40  H    6.269159   7.280681   7.953258   7.179326   6.420928
    41  H    8.697583   9.519382  10.348550   9.458347   8.842130
    42  H   10.161615  10.284264  11.404170  10.214778  10.006000
    43  H    9.716855   9.118367  10.440416   9.005635   9.215797
    44  H    7.608286   6.730764   8.058939   6.560389   6.917666
                   31         32         33         34         35
    31  H    0.000000
    32  H    1.773363   0.000000
    33  H    5.146813   6.071087   0.000000
    34  H    6.504487   6.498491   3.802921   0.000000
    35  H    8.908404   8.924663   5.551847   2.474258   0.000000
    36  H   10.207884  10.584470   5.894308   4.307423   2.491975
    37  H    9.578240  10.333115   4.705473   4.983701   4.312811
    38  H    7.376624   8.313274   2.373721   4.318438   4.971325
    39  H    2.241919   2.199645   6.139319   6.388171   8.610890
    40  H    5.393776   4.913890   6.448398   4.534539   6.093587
    41  H    7.479551   7.096008   8.422284   6.306851   7.149719
    42  H    8.015656   7.874867   9.700109   8.336477   9.285552
    43  H    6.750212   6.878694   9.373774   8.946335  10.365719
    44  H    4.308411   4.585005   7.631687   7.788895   9.658947
                   36         37         38         39         40
    36  H    0.000000
    37  H    2.488765   0.000000
    38  H    4.305223   2.486082   0.000000
    39  H   10.162102   9.943037   8.076525   0.000000
    40  H    8.033017   8.678630   7.651567   3.741713   0.000000
    41  H    8.906894   9.809645   9.200460   5.519151   2.477811
    42  H   10.739535  11.301281  10.519105   5.898687   4.306794
    43  H   11.691460  11.764916  10.516229   4.750142   4.981877
    44  H   11.028660  10.824422   9.174142   2.451661   4.316812
                   41         42         43         44
    41  H    0.000000
    42  H    2.489888   0.000000
    43  H    4.312023   2.488768   0.000000
    44  H    4.972376   4.304870   2.485168   0.000000
 Stoichiometry    C20H22N2
 Framework group  C1[X(C20H22N2)]
 Deg. of freedom   126
 Full point group                 C1      NOp   1
 Largest Abelian subgroup         C1      NOp   1
 Largest concise Abelian subgroup C1      NOp   1
                         Standard orientation:                         
 ---------------------------------------------------------------------
 Center     Atomic      Atomic             Coordinates (Angstroms)
 Number     Number       Type             X           Y           Z
 ---------------------------------------------------------------------
      1          6           0        0.712739    1.849655   -0.553848
      2          1           0        0.399310    1.860799   -1.615855
      3          6           0       -0.588875    1.847292    0.273252
      4          1           0       -0.298896    1.790207    1.341285
      5          6           0       -1.367827    3.139725    0.023251
      6          6           0       -0.529513    4.380666    0.293454
      7          6           0        0.756169    4.361466   -0.521325
      8          6           0        1.549743    3.086763   -0.263179
      9          7           0       -1.362710    0.665876   -0.062302
     10          6           0       -2.472299    0.437239    0.518302
     11          6           0       -3.308881   -0.726477    0.232600
     12          6           0       -3.112752   -1.509744   -0.915640
     13          6           0       -3.908137   -2.626834   -1.135134
     14          6           0       -4.906048   -2.972409   -0.220888
     15          6           0       -5.117405   -2.189059    0.912719
     16          6           0       -4.326283   -1.065713    1.133605
     17          7           0        1.382125    0.573440   -0.397013
     18          6           0        2.597417    0.446881   -0.038072
     19          6           0        3.298952   -0.833974    0.026061
     20          6           0        2.935595   -1.910877   -0.795696
     21          6           0        3.615004   -3.118563   -0.694614
     22          6           0        4.657802   -3.263539    0.221078
     23          6           0        5.040698   -2.188682    1.023409
     24          6           0        4.373257   -0.973445    0.914964
     25          1           0       -2.275468    3.148009    0.646052
     26          1           0       -1.707394    3.130727   -1.027175
     27          1           0       -0.280903    4.428655    1.368692
     28          1           0       -1.116368    5.285158    0.069384
     29          1           0        1.375825    5.242073   -0.291386
     30          1           0        0.510392    4.423900   -1.595751
     31          1           0        1.880066    3.068831    0.791418
     32          1           0        2.459575    3.075053   -0.884573
     33          1           0       -2.854956    1.117271    1.301963
     34          1           0       -2.349584   -1.228295   -1.648481
     35          1           0       -3.749619   -3.232318   -2.030252
     36          1           0       -5.526340   -3.854510   -0.397439
     37          1           0       -5.899799   -2.455532    1.626750
     38          1           0       -4.484844   -0.450287    2.023613
     39          1           0        3.188533    1.332869    0.243192
     40          1           0        2.149629   -1.784069   -1.547281
     41          1           0        3.330077   -3.952666   -1.339246
     42          1           0        5.184289   -4.217634    0.301251
     43          1           0        5.863591   -2.298680    1.733078
     44          1           0        4.670846   -0.126996    1.540183
 ---------------------------------------------------------------------
 Rotational constants (GHZ):           0.2795396           0.1625177           0.1090311
 Leave Link  202 at Thu Dec  8 09:05:35 2022, MaxMem=  4194304000 cpu:               0.1 elap:               0.0
 (Enter /software/gaussian/G16-A.03/avx/g16/l301.exe)
 Standard basis: def2SVP (5D, 7F)
 Ernie: Thresh=  0.10000D-02 Tol=  0.10000D-05 Strict=F.
 There are   440 symmetry adapted cartesian basis functions of A   symmetry.
 There are   418 symmetry adapted basis functions of A   symmetry.
   418 basis functions,   704 primitive gaussians,   440 cartesian basis functions
    78 alpha electrons       78 beta electrons
       nuclear repulsion energy      1608.5360020544 Hartrees.
 IExCor= 1009 DFT=T Ex+Corr=PBE1PBE ExCW=0 ScaHFX=  0.250000
 ScaDFX=  0.750000  0.750000  1.000000  1.000000 ScalE2=  1.000000  1.000000
 IRadAn=      5 IRanWt=     -1 IRanGd=            0 ICorTp=0 IEmpDi=141
 NAtoms=   44 NActive=   44 NUniq=   44 SFac= 1.00D+00 NAtFMM=   60 NAOKFM=F Big=F
 Integral buffers will be    131072 words long.
 Raffenetti 2 integral format.
 Two-electron integral symmetry is turned on.
 R6Disp:  Grimme-D3(BJ) Dispersion energy=       -0.0471307917 Hartrees.
 Nuclear repulsion after empirical dispersion term =     1608.4888712628 Hartrees.
 Leave Link  301 at Thu Dec  8 09:05:35 2022, MaxMem=  4194304000 cpu:               0.6 elap:               0.1
 (Enter /software/gaussian/G16-A.03/avx/g16/l302.exe)
 NPDir=0 NMtPBC=     1 NCelOv=     1 NCel=       1 NClECP=     1 NCelD=      1
         NCelK=      1 NCelE2=     1 NClLst=     1 CellRange=     0.0.
 One-electron integrals computed using PRISM.
 One-electron integral symmetry used in STVInt
   1 Symmetry operations used in ECPInt.
 ECPInt:  NShTT=   19701 NPrTT=   70477 LenC2=   16729 LenP2D=   41020.
 LDataN:  DoStor=T MaxTD1= 4 Len=   56
 NBasis=   418 RedAO= T EigKep=  2.95D-04  NBF=   418
 NBsUse=   418 1.00D-06 EigRej= -1.00D+00 NBFU=   418
 Precomputing XC quadrature grid using
 IXCGrd= 4 IRadAn=           5 IRanWt=          -1 IRanGd=           0 AccXCQ= 0.00D+00.
 Generated NRdTot=       0 NPtTot=           0 NUsed=           0 NTot=          32
 NSgBfM=   428   428   428   428   428 MxSgAt=    44 MxSgA2=    44.
 Leave Link  302 at Thu Dec  8 09:05:36 2022, MaxMem=  4194304000 cpu:               7.3 elap:               0.9
 (Enter /software/gaussian/G16-A.03/avx/g16/l303.exe)
 DipDrv:  MaxL=1.
 Leave Link  303 at Thu Dec  8 09:05:37 2022, MaxMem=  4194304000 cpu:               0.7 elap:               0.1
 (Enter /software/gaussian/G16-A.03/avx/g16/l401.exe)
 ExpMin= 1.22D-01 ExpMax= 1.71D+03 ExpMxC= 2.58D+02 IAcc=3 IRadAn=         5 AccDes= 0.00D+00
 Harris functional with IExCor= 1009 and IRadAn=       5 diagonalized for initial guess.
 HarFok:  IExCor= 1009 AccDes= 0.00D+00 IRadAn=         5 IDoV= 1 UseB2=F ITyADJ=14
 ICtDFT=  3500011 ScaDFX=  1.000000  1.000000  1.000000  1.000000
 FoFCou: FMM=F IPFlag=           0 FMFlag=      100000 FMFlg1=           0
         NFxFlg=           0 DoJE=T BraDBF=F KetDBF=T FulRan=T
         wScrn=  0.000000 ICntrl=       500 IOpCl=  0 I1Cent=   200000004 NGrid=           0
         NMat0=    1 NMatS0=      1 NMatT0=    0 NMatD0=    1 NMtDS0=    0 NMtDT0=    0
 Petite list used in FoFCou.
 Harris En= -883.454423887307    
 JPrj=0 DoOrth=F DoCkMO=F.
 Leave Link  401 at Thu Dec  8 09:05:41 2022, MaxMem=  4194304000 cpu:              37.2 elap:               4.7
 (Enter /software/gaussian/G16-A.03/avx/g16/l502.exe)
 Integral symmetry usage will be decided dynamically.
 Closed shell SCF:
 Using DIIS extrapolation, IDIIS=  1040.
 NGot=  4194304000 LenX=  4193908488 LenY=  4193714447
 Requested convergence on RMS density matrix=1.00D-08 within 128 cycles.
 Requested convergence on MAX density matrix=1.00D-06.
 Requested convergence on             energy=1.00D-06.
 No special actions if energy rises.
 Fock matrices will be formed incrementally for  20 cycles.
 Integral accuracy reduced to 1.0D-05 until final iterations.

 Cycle   1  Pass 0  IDiag  1:
 FoFJK:  IHMeth= 1 ICntrl=       0 DoSepK=F KAlg= 0 I1Cent=           0 FoldK=F
 IRaf= 770000000 NMat=       1 IRICut=       1 DoRegI=T DoRafI=F ISym2E= 0 IDoP0=0 IntGTp=1.
 FoFCou: FMM=F IPFlag=           0 FMFlag=      100000 FMFlg1=           0
         NFxFlg=           0 DoJE=F BraDBF=F KetDBF=F FulRan=T
         wScrn=  0.000000 ICntrl=         0 IOpCl=  0 I1Cent=           0 NGrid=           0
         NMat0=    1 NMatS0=      1 NMatT0=    0 NMatD0=    1 NMtDS0=    0 NMtDT0=    0
 Symmetry not used in FoFCou.
 E= -882.818368002945    
 DIIS: error= 3.54D-02 at cycle   1 NSaved=   1.
 NSaved= 1 IEnMin= 1 EnMin= -882.818368002945     IErMin= 1 ErrMin= 3.54D-02
 ErrMax= 3.54D-02  0.00D+00 EMaxC= 1.00D-01 BMatC= 3.45D-01 BMatP= 3.45D-01
 IDIUse=3 WtCom= 6.46D-01 WtEn= 3.54D-01
 Coeff-Com:  0.100D+01
 Coeff-En:   0.100D+01
 Coeff:      0.100D+01
 Gap=     0.194 Goal=   None    Shift=    0.000
 GapD=    0.194 DampG=1.000 DampE=0.500 DampFc=0.5000 IDamp=-1.
 Damping current iteration by 5.00D-01
 RMSDP=4.04D-03 MaxDP=1.21D-01              OVMax= 1.58D-01

 Cycle   2  Pass 0  IDiag  1:
 RMSU=  1.92D-03    CP:  9.62D-01
 E= -883.012190463878     Delta-E=       -0.193822460933 Rises=F Damp=T
 DIIS: error= 4.54D-03 at cycle   2 NSaved=   2.
 NSaved= 2 IEnMin= 2 EnMin= -883.012190463878     IErMin= 2 ErrMin= 4.54D-03
 ErrMax= 4.54D-03  0.00D+00 EMaxC= 1.00D-01 BMatC= 2.07D-02 BMatP= 3.45D-01
 IDIUse=3 WtCom= 9.55D-01 WtEn= 4.54D-02
 Coeff-Com:  0.133D-01 0.987D+00
 Coeff-En:   0.000D+00 0.100D+01
 Coeff:      0.127D-01 0.987D+00
 Gap=     0.201 Goal=   None    Shift=    0.000
 RMSDP=1.18D-03 MaxDP=3.48D-02 DE=-1.94D-01 OVMax= 8.59D-02

 Cycle   3  Pass 0  IDiag  1:
 RMSU=  1.13D-03    CP:  9.45D-01  1.10D+00
 E= -883.214564767345     Delta-E=       -0.202374303467 Rises=F Damp=F
 DIIS: error= 4.42D-03 at cycle   3 NSaved=   3.
 NSaved= 3 IEnMin= 3 EnMin= -883.214564767345     IErMin= 3 ErrMin= 4.42D-03
 ErrMax= 4.42D-03  0.00D+00 EMaxC= 1.00D-01 BMatC= 1.43D-02 BMatP= 2.07D-02
 IDIUse=3 WtCom= 9.56D-01 WtEn= 4.42D-02
 Coeff-Com: -0.401D-01 0.459D+00 0.582D+00
 Coeff-En:   0.000D+00 0.000D+00 0.100D+01
 Coeff:     -0.384D-01 0.438D+00 0.600D+00
 Gap=     0.185 Goal=   None    Shift=    0.000
 RMSDP=5.30D-04 MaxDP=2.62D-02 DE=-2.02D-01 OVMax= 3.72D-02

 Cycle   4  Pass 0  IDiag  1:
 RMSU=  4.45D-04    CP:  9.46D-01  1.15D+00  7.60D-01
 E= -883.222195414659     Delta-E=       -0.007630647315 Rises=F Damp=F
 DIIS: error= 3.15D-03 at cycle   4 NSaved=   4.
 NSaved= 4 IEnMin= 4 EnMin= -883.222195414659     IErMin= 4 ErrMin= 3.15D-03
 ErrMax= 3.15D-03  0.00D+00 EMaxC= 1.00D-01 BMatC= 6.66D-03 BMatP= 1.43D-02
 IDIUse=3 WtCom= 9.69D-01 WtEn= 3.15D-02
 Coeff-Com: -0.266D-01 0.152D+00 0.413D+00 0.461D+00
 Coeff-En:   0.000D+00 0.000D+00 0.340D+00 0.660D+00
 Coeff:     -0.257D-01 0.148D+00 0.411D+00 0.467D+00
 Gap=     0.194 Goal=   None    Shift=    0.000
 RMSDP=2.68D-04 MaxDP=1.59D-02 DE=-7.63D-03 OVMax= 2.03D-02

 Cycle   5  Pass 0  IDiag  1:
 RMSU=  1.67D-04    CP:  9.44D-01  1.14D+00  8.26D-01  5.68D-01
 E= -883.228342125229     Delta-E=       -0.006146710570 Rises=F Damp=F
 DIIS: error= 6.68D-04 at cycle   5 NSaved=   5.
 NSaved= 5 IEnMin= 5 EnMin= -883.228342125229     IErMin= 5 ErrMin= 6.68D-04
 ErrMax= 6.68D-04  0.00D+00 EMaxC= 1.00D-01 BMatC= 3.67D-04 BMatP= 6.66D-03
 IDIUse=3 WtCom= 9.93D-01 WtEn= 6.68D-03
 Coeff-Com: -0.104D-01 0.339D-01 0.163D+00 0.258D+00 0.555D+00
 Coeff-En:   0.000D+00 0.000D+00 0.000D+00 0.000D+00 0.100D+01
 Coeff:     -0.103D-01 0.337D-01 0.162D+00 0.256D+00 0.558D+00
 Gap=     0.191 Goal=   None    Shift=    0.000
 RMSDP=7.49D-05 MaxDP=3.04D-03 DE=-6.15D-03 OVMax= 4.50D-03

 Cycle   6  Pass 0  IDiag  1:
 RMSU=  4.28D-05    CP:  9.44D-01  1.15D+00  8.31D-01  5.91D-01  6.57D-01
 E= -883.228665249634     Delta-E=       -0.000323124405 Rises=F Damp=F
 DIIS: error= 1.53D-04 at cycle   6 NSaved=   6.
 NSaved= 6 IEnMin= 6 EnMin= -883.228665249634     IErMin= 6 ErrMin= 1.53D-04
 ErrMax= 1.53D-04  0.00D+00 EMaxC= 1.00D-01 BMatC= 2.71D-05 BMatP= 3.67D-04
 IDIUse=3 WtCom= 9.98D-01 WtEn= 1.53D-03
 Coeff-Com: -0.322D-02 0.569D-02 0.477D-01 0.901D-01 0.290D+00 0.570D+00
 Coeff-En:   0.000D+00 0.000D+00 0.000D+00 0.000D+00 0.000D+00 0.100D+01
 Coeff:     -0.322D-02 0.569D-02 0.476D-01 0.900D-01 0.290D+00 0.570D+00
 Gap=     0.192 Goal=   None    Shift=    0.000
 RMSDP=2.01D-05 MaxDP=7.36D-04 DE=-3.23D-04 OVMax= 1.30D-03

 Cycle   7  Pass 0  IDiag  1:
 RMSU=  8.24D-06    CP:  9.44D-01  1.15D+00  8.33D-01  5.97D-01  6.99D-01
                    CP:  6.24D-01
 E= -883.228692669035     Delta-E=       -0.000027419402 Rises=F Damp=F
 DIIS: error= 5.71D-05 at cycle   7 NSaved=   7.
 NSaved= 7 IEnMin= 7 EnMin= -883.228692669035     IErMin= 7 ErrMin= 5.71D-05
 ErrMax= 5.71D-05  0.00D+00 EMaxC= 1.00D-01 BMatC= 1.64D-06 BMatP= 2.71D-05
 IDIUse=1 WtCom= 1.00D+00 WtEn= 0.00D+00
 Coeff-Com: -0.128D-02 0.144D-02 0.183D-01 0.366D-01 0.132D+00 0.304D+00
 Coeff-Com:  0.509D+00
 Coeff:     -0.128D-02 0.144D-02 0.183D-01 0.366D-01 0.132D+00 0.304D+00
 Coeff:      0.509D+00
 Gap=     0.192 Goal=   None    Shift=    0.000
 RMSDP=4.21D-06 MaxDP=1.93D-04 DE=-2.74D-05 OVMax= 4.47D-04

 Initial convergence to 1.0D-05 achieved.  Increase integral accuracy.
 Cycle   8  Pass 1  IDiag  1:
 E= -883.228809066778     Delta-E=       -0.000116397742 Rises=F Damp=F
 DIIS: error= 1.24D-04 at cycle   1 NSaved=   1.
 NSaved= 1 IEnMin= 1 EnMin= -883.228809066778     IErMin= 1 ErrMin= 1.24D-04
 ErrMax= 1.24D-04  0.00D+00 EMaxC= 1.00D-01 BMatC= 3.03D-06 BMatP= 3.03D-06
 IDIUse=3 WtCom= 9.99D-01 WtEn= 1.24D-03
 Coeff-Com:  0.100D+01
 Coeff-En:   0.100D+01
 Coeff:      0.100D+01
 Gap=     0.192 Goal=   None    Shift=    0.000
 RMSDP=4.21D-06 MaxDP=1.93D-04 DE=-1.16D-04 OVMax= 3.75D-04

 Cycle   9  Pass 1  IDiag  1:
 RMSU=  8.52D-05    CP:  1.00D+00
 E= -883.228811928536     Delta-E=       -0.000002861759 Rises=F Damp=F
 DIIS: error= 4.01D-05 at cycle   2 NSaved=   2.
 NSaved= 2 IEnMin= 2 EnMin= -883.228811928536     IErMin= 2 ErrMin= 4.01D-05
 ErrMax= 4.01D-05  0.00D+00 EMaxC= 1.00D-01 BMatC= 4.67D-07 BMatP= 3.03D-06
 IDIUse=1 WtCom= 1.00D+00 WtEn= 0.00D+00
 Coeff-Com:  0.174D+00 0.826D+00
 Coeff:      0.174D+00 0.826D+00
 Gap=     0.192 Goal=   None    Shift=    0.000
 RMSDP=4.90D-06 MaxDP=1.49D-04 DE=-2.86D-06 OVMax= 5.11D-04

 Cycle  10  Pass 1  IDiag  1:
 RMSU=  4.79D-06    CP:  1.00D+00  1.01D+00
 E= -883.228811434966     Delta-E=        0.000000493570 Rises=F Damp=F
 DIIS: error= 5.41D-05 at cycle   3 NSaved=   3.
 NSaved= 3 IEnMin= 2 EnMin= -883.228811928536     IErMin= 2 ErrMin= 4.01D-05
 ErrMax= 5.41D-05  0.00D+00 EMaxC= 1.00D-01 BMatC= 8.84D-07 BMatP= 4.67D-07
 IDIUse=1 WtCom= 1.00D+00 WtEn= 0.00D+00
 Coeff-Com: -0.695D-02 0.582D+00 0.425D+00
 Coeff:     -0.695D-02 0.582D+00 0.425D+00
 Gap=     0.192 Goal=   None    Shift=    0.000
 RMSDP=2.89D-06 MaxDP=8.68D-05 DE= 4.94D-07 OVMax= 3.04D-04

 Cycle  11  Pass 1  IDiag  1:
 RMSU=  4.66D-07    CP:  1.00D+00  1.02D+00  4.08D-01
 E= -883.228812477423     Delta-E=       -0.000001042457 Rises=F Damp=F
 DIIS: error= 1.84D-06 at cycle   4 NSaved=   4.
 NSaved= 4 IEnMin= 4 EnMin= -883.228812477423     IErMin= 4 ErrMin= 1.84D-06
 ErrMax= 1.84D-06  0.00D+00 EMaxC= 1.00D-01 BMatC= 3.16D-09 BMatP= 4.67D-07
 IDIUse=1 WtCom= 1.00D+00 WtEn= 0.00D+00
 Coeff-Com: -0.481D-02 0.332D+00 0.245D+00 0.428D+00
 Coeff:     -0.481D-02 0.332D+00 0.245D+00 0.428D+00
 Gap=     0.192 Goal=   None    Shift=    0.000
 RMSDP=2.07D-07 MaxDP=8.68D-06 DE=-1.04D-06 OVMax= 1.33D-05

 Cycle  12  Pass 1  IDiag  1:
 RMSU=  1.46D-07    CP:  1.00D+00  1.02D+00  4.20D-01  7.07D-01
 E= -883.228812480409     Delta-E=       -0.000000002985 Rises=F Damp=F
 DIIS: error= 5.24D-07 at cycle   5 NSaved=   5.
 NSaved= 5 IEnMin= 5 EnMin= -883.228812480409     IErMin= 5 ErrMin= 5.24D-07
 ErrMax= 5.24D-07  0.00D+00 EMaxC= 1.00D-01 BMatC= 1.87D-10 BMatP= 3.16D-09
 IDIUse=1 WtCom= 1.00D+00 WtEn= 0.00D+00
 Coeff-Com: -0.221D-02 0.144D+00 0.106D+00 0.244D+00 0.508D+00
 Coeff:     -0.221D-02 0.144D+00 0.106D+00 0.244D+00 0.508D+00
 Gap=     0.192 Goal=   None    Shift=    0.000
 RMSDP=4.95D-08 MaxDP=2.58D-06 DE=-2.99D-09 OVMax= 3.85D-06

 Cycle  13  Pass 1  IDiag  1:
 RMSU=  4.24D-08    CP:  1.00D+00  1.02D+00  4.20D-01  7.34D-01  8.55D-01
 E= -883.228812480570     Delta-E=       -0.000000000161 Rises=F Damp=F
 DIIS: error= 1.99D-07 at cycle   6 NSaved=   6.
 NSaved= 6 IEnMin= 6 EnMin= -883.228812480570     IErMin= 6 ErrMin= 1.99D-07
 ErrMax= 1.99D-07  0.00D+00 EMaxC= 1.00D-01 BMatC= 2.79D-11 BMatP= 1.87D-10
 IDIUse=1 WtCom= 1.00D+00 WtEn= 0.00D+00
 Coeff-Com: -0.406D-03 0.229D-01 0.169D-01 0.660D-01 0.303D+00 0.591D+00
 Coeff:     -0.406D-03 0.229D-01 0.169D-01 0.660D-01 0.303D+00 0.591D+00
 Gap=     0.192 Goal=   None    Shift=    0.000
 RMSDP=1.86D-08 MaxDP=8.32D-07 DE=-1.61D-10 OVMax= 1.37D-06

 Cycle  14  Pass 1  IDiag  1:
 RMSU=  1.18D-08    CP:  1.00D+00  1.02D+00  4.20D-01  7.40D-01  8.95D-01
                    CP:  7.06D-01
 E= -883.228812480588     Delta-E=       -0.000000000018 Rises=F Damp=F
 DIIS: error= 5.05D-08 at cycle   7 NSaved=   7.
 NSaved= 7 IEnMin= 7 EnMin= -883.228812480588     IErMin= 7 ErrMin= 5.05D-08
 ErrMax= 5.05D-08  0.00D+00 EMaxC= 1.00D-01 BMatC= 2.91D-12 BMatP= 2.79D-11
 IDIUse=1 WtCom= 1.00D+00 WtEn= 0.00D+00
 Coeff-Com:  0.242D-04-0.334D-02-0.258D-02 0.103D-01 0.108D+00 0.328D+00
 Coeff-Com:  0.559D+00
 Coeff:      0.242D-04-0.334D-02-0.258D-02 0.103D-01 0.108D+00 0.328D+00
 Coeff:      0.559D+00
 Gap=     0.192 Goal=   None    Shift=    0.000
 RMSDP=6.50D-09 MaxDP=2.29D-07 DE=-1.82D-11 OVMax= 3.96D-07

 SCF Done:  E(RPBE1PBE) =  -883.228812481     A.U. after   14 cycles
            NFock= 14  Conv=0.65D-08     -V/T= 2.0107
 KE= 8.738532660694D+02 PE=-5.262844498710D+03 EE= 1.897273548897D+03
 Leave Link  502 at Thu Dec  8 09:07:28 2022, MaxMem=  4194304000 cpu:             854.8 elap:             106.9
 (Enter /software/gaussian/G16-A.03/avx/g16/l801.exe)
 DoSCS=F DFT=T ScalE2(SS,OS)=  1.000000  1.000000
 Range of M.O.s used for correlation:     1   418
 NBasis=   418 NAE=    78 NBE=    78 NFC=     0 NFV=     0
 NROrb=    418 NOA=    78 NOB=    78 NVA=   340 NVB=   340

 **** Warning!!: The largest alpha MO coefficient is  0.11853828D+02

 Leave Link  801 at Thu Dec  8 09:07:28 2022, MaxMem=  4194304000 cpu:               0.2 elap:               0.0
 (Enter /software/gaussian/G16-A.03/avx/g16/l1101.exe)
 Using compressed storage, NAtomX=    44.
 Will process     45 centers per pass.
   1 Symmetry operations used in ECPInt.
 ECPInt:  NShTT=   19701 NPrTT=   70477 LenC2=   16729 LenP2D=   41020.
 LDataN:  DoStor=T MaxTD1= 5 Len=  102
 R6Disp: Adding Grimme-D3(BJ) dispersion energy 1st derivatives to the gradient.
 Leave Link 1101 at Thu Dec  8 09:07:29 2022, MaxMem=  4194304000 cpu:               7.7 elap:               1.0
 (Enter /software/gaussian/G16-A.03/avx/g16/l1102.exe)
 Symmetrizing basis deriv contribution to polar:
 IMax=3 JMax=2 DiffMx= 0.00D+00
 Leave Link 1102 at Thu Dec  8 09:07:29 2022, MaxMem=  4194304000 cpu:               0.5 elap:               0.1
 (Enter /software/gaussian/G16-A.03/avx/g16/l1110.exe)
 Forming Gx(P) for the SCF density, NAtomX=    44.
 Integral derivatives from FoFJK, PRISM(SPDF).
 Do as many integral derivatives as possible in FoFJK.
 G2DrvN: MDV=    4194300696.
 G2DrvN: will do    45 centers at a time, making    1 passes.
 Calling FoFCou, ICntrl=  3107 FMM=F I1Cent=   0 AccDes= 0.00D+00.
 FoFJK:  IHMeth= 1 ICntrl=    3107 DoSepK=F KAlg= 0 I1Cent=           0 FoldK=F
 IRaf=         0 NMat=       1 IRICut=       1 DoRegI=T DoRafI=F ISym2E= 0 IDoP0=0 IntGTp=1.
 FoFCou: FMM=F IPFlag=           0 FMFlag=      100000 FMFlg1=           0
         NFxFlg=           0 DoJE=F BraDBF=F KetDBF=F FulRan=T
         wScrn=  0.000000 ICntrl=      3107 IOpCl=  0 I1Cent=           0 NGrid=           0
         NMat0=    1 NMatS0=      1 NMatT0=    0 NMatD0=    1 NMtDS0=    0 NMtDT0=    0
 Symmetry not used in FoFCou.
 End of G2Drv F.D. properties file   721 does not exist.
 End of G2Drv F.D. properties file   722 does not exist.
 End of G2Drv F.D. properties file   788 does not exist.
 Leave Link 1110 at Thu Dec  8 09:14:06 2022, MaxMem=  4194304000 cpu:            3171.0 elap:             396.4
 (Enter /software/gaussian/G16-A.03/avx/g16/l1002.exe)
 Minotr:  Closed shell wavefunction.
          IDoAtm=11111111111111111111111111111111111111111111
          Direct CPHF calculation.
          Differentiating once with respect to electric field.
                with respect to dipole field.
          Differentiating once with respect to nuclear coordinates.
          Requested convergence is 1.0D-08 RMS, and 1.0D-07 maximum.
          Secondary convergence is 1.0D-12 RMS, and 1.0D-12 maximum.
          NewPWx=T KeepS1=F KeepF1=F KeepIn=T MapXYZ=F SortEE=F KeepMc=T.
        13344 words used for storage of precomputed grid.
 Keep R1 ints in memory in canonical form, NReq=3877287663.
 FoFCou: FMM=F IPFlag=           0 FMFlag=           0 FMFlg1=           0
         NFxFlg=           0 DoJE=F BraDBF=F KetDBF=F FulRan=T
         wScrn=  0.000000 ICntrl=       600 IOpCl=  0 I1Cent=           0 NGrid=           0
         NMat0=    1 NMatS0=  87571 NMatT0=    0 NMatD0=    1 NMtDS0=    0 NMtDT0=    0
 Symmetry not used in FoFCou.
 Two-electron integral symmetry not used.
          MDV=    4194304000 using IRadAn=       1.
          Solving linear equations simultaneously, MaxMat=       0.
          There are   135 degrees of freedom in the 1st order CPHF.  IDoFFX=6 NUNeed=     3.
    132 vectors produced by pass  0 Test12= 2.65D-14 1.00D-09 XBig12= 2.48D+02 6.26D+00.
 AX will form   132 AO Fock derivatives at one time.
    132 vectors produced by pass  1 Test12= 2.65D-14 1.00D-09 XBig12= 4.65D+01 1.38D+00.
    132 vectors produced by pass  2 Test12= 2.65D-14 1.00D-09 XBig12= 4.26D-01 5.96D-02.
    132 vectors produced by pass  3 Test12= 2.65D-14 1.00D-09 XBig12= 2.33D-03 3.27D-03.
    132 vectors produced by pass  4 Test12= 2.65D-14 1.00D-09 XBig12= 5.68D-06 1.81D-04.
    103 vectors produced by pass  5 Test12= 2.65D-14 1.00D-09 XBig12= 7.24D-09 4.93D-06.
     19 vectors produced by pass  6 Test12= 2.65D-14 1.00D-09 XBig12= 7.29D-12 1.44D-07.
      3 vectors produced by pass  7 Test12= 2.65D-14 1.00D-09 XBig12= 7.11D-15 5.20D-09.
 InvSVY:  IOpt=1 It=  1 EMax= 1.78D-14
 Solved reduced A of dimension   785 with   135 vectors.
 FullF1:  Do perturbations      1 to       3.
 Isotropic polarizability for W=    0.000000      237.31 Bohr**3.
 End of Minotr F.D. properties file   721 does not exist.
 End of Minotr F.D. properties file   722 does not exist.
 End of Minotr F.D. properties file   788 does not exist.
 Leave Link 1002 at Thu Dec  8 09:23:09 2022, MaxMem=  4194304000 cpu:            4344.7 elap:             543.2
 (Enter /software/gaussian/G16-A.03/avx/g16/l601.exe)
 Copying SCF densities to generalized density rwf, IOpCl= 0 IROHF=0.

 **********************************************************************

            Population analysis using the SCF density.

 **********************************************************************

 Orbital symmetries:
       Occupied  (A) (A) (A) (A) (A) (A) (A) (A) (A) (A) (A) (A)
                 (A) (A) (A) (A) (A) (A) (A) (A) (A) (A) (A) (A)
                 (A) (A) (A) (A) (A) (A) (A) (A) (A) (A) (A) (A)
                 (A) (A) (A) (A) (A) (A) (A) (A) (A) (A) (A) (A)
                 (A) (A) (A) (A) (A) (A) (A) (A) (A) (A) (A) (A)
                 (A) (A) (A) (A) (A) (A) (A) (A) (A) (A) (A) (A)
                 (A) (A) (A) (A) (A) (A)
       Virtual   (A) (A) (A) (A) (A) (A) (A) (A) (A) (A) (A) (A)
                 (A) (A) (A) (A) (A) (A) (A) (A) (A) (A) (A) (A)
                 (A) (A) (A) (A) (A) (A) (A) (A) (A) (A) (A) (A)
                 (A) (A) (A) (A) (A) (A) (A) (A) (A) (A) (A) (A)
                 (A) (A) (A) (A) (A) (A) (A) (A) (A) (A) (A) (A)
                 (A) (A) (A) (A) (A) (A) (A) (A) (A) (A) (A) (A)
                 (A) (A) (A) (A) (A) (A) (A) (A) (A) (A) (A) (A)
                 (A) (A) (A) (A) (A) (A) (A) (A) (A) (A) (A) (A)
                 (A) (A) (A) (A) (A) (A) (A) (A) (A) (A) (A) (A)
                 (A) (A) (A) (A) (A) (A) (A) (A) (A) (A) (A) (A)
                 (A) (A) (A) (A) (A) (A) (A) (A) (A) (A) (A) (A)
                 (A) (A) (A) (A) (A) (A) (A) (A) (A) (A) (A) (A)
                 (A) (A) (A) (A) (A) (A) (A) (A) (A) (A) (A) (A)
                 (A) (A) (A) (A) (A) (A) (A) (A) (A) (A) (A) (A)
                 (A) (A) (A) (A) (A) (A) (A) (A) (A) (A) (A) (A)
                 (A) (A) (A) (A) (A) (A) (A) (A) (A) (A) (A) (A)
                 (A) (A) (A) (A) (A) (A) (A) (A) (A) (A) (A) (A)
                 (A) (A) (A) (A) (A) (A) (A) (A) (A) (A) (A) (A)
                 (A) (A) (A) (A) (A) (A) (A) (A) (A) (A) (A) (A)
                 (A) (A) (A) (A) (A) (A) (A) (A) (A) (A) (A) (A)
                 (A) (A) (A) (A) (A) (A) (A) (A) (A) (A) (A) (A)
                 (A) (A) (A) (A) (A) (A) (A) (A) (A) (A) (A) (A)
                 (A) (A) (A) (A) (A) (A) (A) (A) (A) (A) (A) (A)
                 (A) (A) (A) (A) (A) (A) (A) (A) (A) (A) (A) (A)
                 (A) (A) (A) (A) (A) (A) (A) (A) (A) (A) (A) (A)
                 (A) (A) (A) (A) (A) (A) (A) (A) (A) (A) (A) (A)
                 (A) (A) (A) (A) (A) (A) (A) (A) (A) (A) (A) (A)
                 (A) (A) (A) (A) (A) (A) (A) (A) (A) (A) (A) (A)
                 (A) (A) (A) (A)
 The electronic state is 1-A.
 Alpha  occ. eigenvalues --  -14.37465 -14.37138 -10.26990 -10.26656 -10.26065
 Alpha  occ. eigenvalues --  -10.25538 -10.24222 -10.24182 -10.24086 -10.24048
 Alpha  occ. eigenvalues --  -10.24000 -10.23976 -10.23900 -10.23824 -10.23770
 Alpha  occ. eigenvalues --  -10.23622 -10.23611 -10.23515 -10.23320 -10.23273
 Alpha  occ. eigenvalues --  -10.23210 -10.22956  -0.94767  -0.92605  -0.87784
 Alpha  occ. eigenvalues --   -0.87343  -0.84490  -0.78634  -0.78036  -0.76311
 Alpha  occ. eigenvalues --   -0.76176  -0.75195  -0.74235  -0.66660  -0.65857
 Alpha  occ. eigenvalues --   -0.62722  -0.62357  -0.61742  -0.60726  -0.58256
 Alpha  occ. eigenvalues --   -0.56709  -0.55939  -0.52302  -0.52170  -0.51667
 Alpha  occ. eigenvalues --   -0.49869  -0.47601  -0.47270  -0.46730  -0.46325
 Alpha  occ. eigenvalues --   -0.45603  -0.45194  -0.44317  -0.43576  -0.43291
 Alpha  occ. eigenvalues --   -0.43254  -0.42799  -0.41116  -0.39975  -0.39701
 Alpha  occ. eigenvalues --   -0.38881  -0.37822  -0.36524  -0.36163  -0.35997
 Alpha  occ. eigenvalues --   -0.35565  -0.35398  -0.34956  -0.33799  -0.33261
 Alpha  occ. eigenvalues --   -0.32011  -0.31373  -0.26832  -0.26702  -0.25481
 Alpha  occ. eigenvalues --   -0.25248  -0.24790  -0.23379
 Alpha virt. eigenvalues --   -0.04207  -0.03444  -0.00258  -0.00149   0.04755
 Alpha virt. eigenvalues --    0.05126   0.06471   0.07461   0.07681   0.07810
 Alpha virt. eigenvalues --    0.08938   0.10183   0.11264   0.11617   0.12934
 Alpha virt. eigenvalues --    0.13127   0.13264   0.13842   0.14413   0.14658
 Alpha virt. eigenvalues --    0.15279   0.15762   0.16164   0.16327   0.16694
 Alpha virt. eigenvalues --    0.17254   0.17469   0.18145   0.19071   0.19816
 Alpha virt. eigenvalues --    0.21721   0.22140   0.24943   0.25224   0.26059
 Alpha virt. eigenvalues --    0.26237   0.27254   0.27956   0.29068   0.29816
 Alpha virt. eigenvalues --    0.30235   0.30774   0.31037   0.31598   0.31824
 Alpha virt. eigenvalues --    0.32430   0.32920   0.33320   0.35637   0.35966
 Alpha virt. eigenvalues --    0.37434   0.37821   0.41127   0.41506   0.43036
 Alpha virt. eigenvalues --    0.43152   0.43727   0.44139   0.44439   0.45560
 Alpha virt. eigenvalues --    0.45877   0.46371   0.47240   0.48146   0.48277
 Alpha virt. eigenvalues --    0.48834   0.49133   0.49882   0.50274   0.51082
 Alpha virt. eigenvalues --    0.51527   0.51976   0.52318   0.53042   0.53183
 Alpha virt. eigenvalues --    0.55111   0.55621   0.55831   0.56180   0.58111
 Alpha virt. eigenvalues --    0.59247   0.60947   0.61165   0.61711   0.61972
 Alpha virt. eigenvalues --    0.62241   0.62765   0.63035   0.64146   0.64241
 Alpha virt. eigenvalues --    0.64888   0.65443   0.65730   0.66340   0.66538
 Alpha virt. eigenvalues --    0.66747   0.67110   0.67731   0.68268   0.68503
 Alpha virt. eigenvalues --    0.68731   0.69288   0.69597   0.70308   0.70558
 Alpha virt. eigenvalues --    0.70871   0.71211   0.71543   0.71680   0.72383
 Alpha virt. eigenvalues --    0.72542   0.72743   0.73166   0.73668   0.74000
 Alpha virt. eigenvalues --    0.74322   0.74718   0.75222   0.75599   0.75978
 Alpha virt. eigenvalues --    0.76340   0.76822   0.77566   0.77743   0.79956
 Alpha virt. eigenvalues --    0.80804   0.81274   0.82081   0.82469   0.83412
 Alpha virt. eigenvalues --    0.83998   0.86702   0.87377   0.89929   0.91540
 Alpha virt. eigenvalues --    0.94106   0.95373   0.96112   0.99410   0.99682
 Alpha virt. eigenvalues --    1.01304   1.03116   1.04672   1.06332   1.06638
 Alpha virt. eigenvalues --    1.08204   1.08938   1.10095   1.10960   1.13035
 Alpha virt. eigenvalues --    1.15125   1.16900   1.18277   1.19157   1.19760
 Alpha virt. eigenvalues --    1.20405   1.23055   1.23887   1.24999   1.25328
 Alpha virt. eigenvalues --    1.25629   1.26354   1.26547   1.27510   1.28975
 Alpha virt. eigenvalues --    1.29512   1.29858   1.30211   1.31526   1.31781
 Alpha virt. eigenvalues --    1.32181   1.32859   1.34753   1.35274   1.36654
 Alpha virt. eigenvalues --    1.40690   1.41354   1.42455   1.46089   1.48249
 Alpha virt. eigenvalues --    1.51292   1.51796   1.52754   1.53926   1.55311
 Alpha virt. eigenvalues --    1.63099   1.64347   1.65947   1.67167   1.67825
 Alpha virt. eigenvalues --    1.68029   1.68511   1.68648   1.72221   1.74083
 Alpha virt. eigenvalues --    1.74186   1.74844   1.75395   1.75855   1.76063
 Alpha virt. eigenvalues --    1.76441   1.76615   1.76782   1.76858   1.76978
 Alpha virt. eigenvalues --    1.77423   1.77657   1.78442   1.78637   1.79696
 Alpha virt. eigenvalues --    1.79916   1.80207   1.80779   1.81500   1.82014
 Alpha virt. eigenvalues --    1.82712   1.84622   1.85197   1.85269   1.85951
 Alpha virt. eigenvalues --    1.86925   1.87340   1.88475   1.90259   1.91268
 Alpha virt. eigenvalues --    1.91895   1.92556   1.92838   1.93764   1.94732
 Alpha virt. eigenvalues --    1.95058   1.95814   1.96202   1.97203   1.97778
 Alpha virt. eigenvalues --    1.98168   1.98887   1.99094   1.99287   1.99662
 Alpha virt. eigenvalues --    1.99847   2.00211   2.01518   2.02588   2.04704
 Alpha virt. eigenvalues --    2.05976   2.08404   2.08960   2.10976   2.11863
 Alpha virt. eigenvalues --    2.11917   2.13381   2.13496   2.14762   2.15495
 Alpha virt. eigenvalues --    2.15983   2.16612   2.17046   2.17372   2.18374
 Alpha virt. eigenvalues --    2.20625   2.21337   2.23008   2.27844   2.28678
 Alpha virt. eigenvalues --    2.29124   2.30123   2.30373   2.31513   2.31650
 Alpha virt. eigenvalues --    2.31843   2.32054   2.32519   2.33751   2.36025
 Alpha virt. eigenvalues --    2.36305   2.36618   2.37027   2.43180   2.44194
 Alpha virt. eigenvalues --    2.46528   2.46959   2.47780   2.49452   2.50545
 Alpha virt. eigenvalues --    2.52324   2.52979   2.54890   2.56834   2.58181
 Alpha virt. eigenvalues --    2.59209   2.61083   2.61971   2.62015   2.63739
 Alpha virt. eigenvalues --    2.65173   2.65407   2.65789   2.66949   2.67540
 Alpha virt. eigenvalues --    2.69529   2.72175   2.74576   2.74691   2.74739
 Alpha virt. eigenvalues --    2.75102   2.76290   2.76637   2.79804   2.81036
 Alpha virt. eigenvalues --    2.85669   2.86647   2.88529   2.88803   2.89292
 Alpha virt. eigenvalues --    2.90293   2.90547   2.91843   2.92786   2.94685
 Alpha virt. eigenvalues --    2.95518   2.96228   2.99935   3.01986   3.05774
 Alpha virt. eigenvalues --    3.07512   3.08903   3.10208   3.12189   3.13488
 Alpha virt. eigenvalues --    3.13890   3.17123   3.20455   3.22471   3.29813
 Alpha virt. eigenvalues --    3.33365   3.44379   3.46992   3.67072   3.67326
     Molecular Orbital Coefficients:
                          74        75        76        77        78
                           O         O         O         O         O
     Eigenvalues --    -0.26702  -0.25481  -0.25248  -0.24790  -0.23379
   1 1   C  1S         -0.00354   0.03086  -0.00710   0.01753   0.00664
   2        2S          0.00896  -0.06429   0.01874  -0.04863  -0.01579
   3        3S         -0.00079  -0.22492  -0.01270  -0.03323   0.03959
   4        4PX        -0.01098   0.08744  -0.00828   0.06527  -0.04919
   5        4PY        -0.02823   0.08470  -0.06957   0.05767   0.14305
   6        4PZ         0.00706  -0.00309   0.03292  -0.08400   0.05451
   7        5PX        -0.00005   0.04880   0.03104   0.01242  -0.06367
   8        5PY        -0.00266  -0.03064  -0.05056  -0.00541   0.03781
   9        5PZ         0.00407  -0.04728   0.01222  -0.01079   0.02165
  10        6D 0        0.00011  -0.00370   0.00043   0.00565  -0.00351
  11        6D+1       -0.00047  -0.00233  -0.00433   0.00657  -0.00631
  12        6D-1       -0.00050   0.00872   0.00201  -0.00373   0.00643
  13        6D+2        0.00248  -0.00905   0.00629  -0.00709  -0.01053
  14        6D-2       -0.00232   0.00354  -0.00582   0.00631   0.01495
  15 2   H  1S          0.00063  -0.06394  -0.01980   0.06989  -0.07193
  16        2S         -0.00088   0.00578  -0.00373   0.08382  -0.05889
  17        3PX        -0.00044   0.00107  -0.00183   0.00200   0.00030
  18        3PY        -0.00061  -0.00004  -0.00161   0.00211   0.00165
  19        3PZ         0.00015  -0.00318  -0.00029   0.00136  -0.00187
  20 3   C  1S         -0.00385   0.02181  -0.01037   0.02595  -0.00758
  21        2S          0.00842  -0.06302   0.01949  -0.06507   0.02706
  22        3S          0.02732   0.01922   0.08430  -0.13591  -0.07961
  23        4PX         0.01467   0.00947   0.08453  -0.04327  -0.01318
  24        4PY        -0.00591   0.13397  -0.03807   0.03397  -0.09000
  25        4PZ        -0.01044   0.06830   0.01845   0.11468  -0.02242
  26        5PX         0.00593   0.06453   0.05655  -0.02441   0.00551
  27        5PY         0.00007   0.06872   0.03133   0.01357  -0.03903
  28        5PZ        -0.01012   0.00652  -0.01648   0.05100   0.04721
  29        6D 0        0.00018   0.00423   0.00645   0.00897  -0.00546
  30        6D+1       -0.00066   0.00614   0.00405   0.00949  -0.00138
  31        6D-1        0.00035   0.00328   0.00596   0.00537  -0.00366
  32        6D+2        0.00105  -0.01047   0.00810  -0.00198   0.00784
  33        6D-2       -0.00026  -0.00892   0.00154  -0.00259   0.01231
  34 4   H  1S         -0.00196   0.05235   0.07218   0.10620  -0.03248
  35        2S         -0.00528   0.04504   0.02912   0.10888  -0.04826
  36        3PX         0.00042  -0.00267   0.00119  -0.00144   0.00016
  37        3PY        -0.00003   0.00365   0.00050   0.00197  -0.00266
  38        3PZ        -0.00012  -0.00009  -0.00256  -0.00185   0.00058
  39 5   C  1S          0.00163  -0.01070   0.01744   0.00429   0.00791
  40        2S         -0.00285   0.02056  -0.03960  -0.01349  -0.02136
  41        3S         -0.02005   0.06010  -0.12937   0.00534   0.02996
  42        4PX        -0.00806   0.04379  -0.03567   0.03186  -0.02656
  43        4PY         0.00274  -0.08293   0.06907   0.01498   0.08175
  44        4PZ         0.00215  -0.01782  -0.01340  -0.01567  -0.00851
  45        5PX        -0.00923   0.04159  -0.05600   0.01853  -0.02392
  46        5PY         0.00351  -0.04040   0.02266  -0.02311   0.01623
  47        5PZ         0.00106   0.01251  -0.00354   0.00847  -0.02979
  48        6D 0       -0.00008   0.00188   0.00101   0.00199  -0.00105
  49        6D+1       -0.00050   0.00352   0.00044   0.00395  -0.00084
  50        6D-1        0.00022  -0.00284   0.00057  -0.00263   0.00237
  51        6D+2        0.00045   0.00048   0.00134  -0.00198  -0.00091
  52        6D-2        0.00004  -0.00416   0.00239   0.00168   0.00306
  53 6   C  1S         -0.00090   0.01342  -0.00442  -0.00024  -0.00364
  54        2S          0.00171  -0.03030   0.00894  -0.00029   0.00918
  55        3S          0.00783  -0.06434   0.05880   0.02401   0.02485
  56        4PX         0.00481  -0.01093   0.00010  -0.01865  -0.01437
  57        4PY         0.00027   0.05946  -0.02441  -0.01192  -0.04716
  58        4PZ        -0.00210   0.01098  -0.00832  -0.00907   0.01177
  59        5PX         0.00108   0.00871  -0.01338  -0.00863  -0.01949
  60        5PY        -0.00278   0.04509  -0.03397  -0.01111  -0.03099
  61        5PZ        -0.00263   0.00239  -0.01877  -0.01408   0.01438
  62        6D 0        0.00017  -0.00114   0.00038  -0.00068   0.00017
  63        6D+1       -0.00026   0.00122   0.00029   0.00132   0.00052
  64        6D-1        0.00009  -0.00093   0.00087   0.00011   0.00038
  65        6D+2        0.00036  -0.00360   0.00223  -0.00092   0.00214
  66        6D-2       -0.00029  -0.00306   0.00050   0.00078   0.00448
  67 7   C  1S         -0.00194   0.00456  -0.00694   0.00562   0.00658
  68        2S          0.00451  -0.01089   0.01500  -0.01157  -0.01575
  69        3S          0.01269  -0.03905   0.03467  -0.06062  -0.03443
  70        4PX        -0.00403   0.02629  -0.00060   0.01375  -0.00649
  71        4PY        -0.01311   0.01553  -0.03177   0.02669   0.06565
  72        4PZ        -0.00010  -0.00666   0.00326   0.00873  -0.00016
  73        5PX         0.00139   0.00462   0.01263   0.00505  -0.02018
  74        5PY        -0.00956   0.02111  -0.02408   0.02662   0.04659
  75        5PZ         0.00155  -0.01672   0.00436   0.00019  -0.00416
  76        6D 0        0.00034  -0.00113   0.00054  -0.00113  -0.00123
  77        6D+1       -0.00002   0.00030  -0.00008   0.00046  -0.00118
  78        6D-1       -0.00037   0.00129  -0.00111   0.00086   0.00138
  79        6D+2        0.00094  -0.00411   0.00206  -0.00161  -0.00405
  80        6D-2       -0.00094   0.00055  -0.00138   0.00225   0.00574
  81 8   C  1S          0.00315  -0.01370   0.00991  -0.00608  -0.01506
  82        2S         -0.00649   0.02859  -0.02119   0.01214   0.03543
  83        3S         -0.02494   0.15860  -0.04938   0.06158   0.07851
  84        4PX         0.01537  -0.07943   0.02634  -0.02838  -0.06084
  85        4PY         0.02407  -0.06500   0.05431  -0.04453  -0.12484
  86        4PZ         0.00380  -0.01970   0.00185  -0.01138  -0.02934
  87        5PX         0.01467  -0.08867   0.02023  -0.03529  -0.05889
  88        5PY         0.01121  -0.06007   0.01866  -0.01664  -0.06673
  89        5PZ         0.00298  -0.00583   0.00701  -0.03202  -0.01478
  90        6D 0        0.00013  -0.00186  -0.00063   0.00141  -0.00229
  91        6D+1       -0.00058   0.00091  -0.00232   0.00267  -0.00042
  92        6D-1       -0.00044   0.00056  -0.00119   0.00276  -0.00000
  93        6D+2        0.00012  -0.00148  -0.00033  -0.00149   0.00334
  94        6D-2       -0.00084   0.00183  -0.00196   0.00128   0.00468
  95 9   N  1S         -0.00243   0.06641   0.00080   0.02707  -0.04367
  96        2S         -0.00423   0.13275   0.00120   0.04901  -0.09421
  97        3S         -0.01218   0.21639   0.00762   0.12305  -0.09139
  98        4PX         0.00881  -0.14341   0.08850   0.00967   0.10484
  99        4PY        -0.00535   0.25495  -0.08608   0.01098  -0.21450
 100        4PZ        -0.00316   0.22948   0.16955   0.23892  -0.12993
 101        5PX        -0.00964   0.11622  -0.06741  -0.00260  -0.06340
 102        5PY         0.00286  -0.17295   0.07268   0.00173   0.15521
 103        5PZ         0.00224  -0.16144  -0.12290  -0.17081   0.09251
 104        6D 0       -0.00019   0.00109  -0.00803  -0.00627  -0.00336
 105        6D+1       -0.00046   0.00695   0.00203   0.00604  -0.00375
 106        6D-1       -0.00005  -0.00984   0.00041  -0.00153   0.00861
 107        6D+2        0.00015   0.00125   0.00259   0.00126   0.00019
 108        6D-2        0.00027   0.00185  -0.00320  -0.00460  -0.00464
 109 10  C  1S         -0.00129   0.02593  -0.00084   0.01441  -0.01693
 110        2S          0.00375  -0.07320   0.00035  -0.04137   0.04748
 111        3S         -0.00415   0.07917   0.02139   0.04948  -0.06067
 112        4PX         0.00584  -0.06574  -0.04643  -0.09058   0.01167
 113        4PY        -0.00036   0.03239   0.06326   0.06468   0.01124
 114        4PZ        -0.00217   0.09418  -0.05442  -0.01933  -0.08917
 115        5PX        -0.00050  -0.01364  -0.03577  -0.06003   0.00631
 116        5PY         0.00127  -0.05215   0.03798   0.00105   0.08174
 117        5PZ         0.00161  -0.00972  -0.05234  -0.05792  -0.01613
 118        6D 0       -0.00029   0.01042   0.00731   0.01007  -0.00578
 119        6D+1       -0.00023  -0.00757  -0.00964  -0.01007   0.00419
 120        6D-1       -0.00032   0.00943  -0.00595  -0.00136  -0.00808
 121        6D+2       -0.00036   0.00302  -0.01386  -0.01119  -0.00487
 122        6D-2        0.00014  -0.01942   0.00065  -0.00521   0.01528
 123 11  C  1S         -0.00012   0.02199   0.00323   0.00875  -0.01640
 124        2S          0.00031  -0.05524  -0.00527  -0.01990   0.04194
 125        3S          0.00997  -0.20045  -0.05457  -0.13007   0.13901
 126        4PX         0.00626  -0.08324   0.13121   0.08134   0.07597
 127        4PY        -0.00593  -0.04748  -0.14456  -0.12362   0.01674
 128        4PZ         0.00673  -0.05206   0.11464   0.07406   0.04669
 129        5PX         0.00747  -0.11088   0.09716   0.02702   0.09759
 130        5PY        -0.00736  -0.03467  -0.10316  -0.10228   0.03898
 131        5PZ        -0.00076   0.01922   0.08536   0.08203   0.01842
 132        6D 0       -0.00194   0.00296  -0.00131  -0.00025  -0.00150
 133        6D+1       -0.00095   0.00130  -0.00422  -0.00328  -0.00173
 134        6D-1        0.00094   0.00163  -0.00249  -0.00181  -0.00274
 135        6D+2        0.00059  -0.00047  -0.00603  -0.00598  -0.00242
 136        6D-2       -0.00104  -0.00095  -0.00150  -0.00178   0.00075
 137 12  C  1S         -0.00028   0.00097   0.00036   0.00155  -0.00042
 138        2S          0.00071  -0.00287  -0.00017  -0.00298   0.00280
 139        3S         -0.00704   0.03977   0.00040   0.00909  -0.01042
 140        4PX         0.03044  -0.06582   0.10000   0.05777   0.04952
 141        4PY        -0.02421   0.05005  -0.08623  -0.05835  -0.03889
 142        4PZ         0.01958   0.00754   0.07809   0.06811   0.00299
 143        5PX         0.02348  -0.04047   0.06791   0.04380   0.01402
 144        5PY        -0.01763   0.07810  -0.04454  -0.00415  -0.05788
 145        5PZ         0.00588   0.07234   0.06118   0.08506  -0.01726
 146        6D 0        0.00024  -0.00074   0.00740   0.00541   0.00162
 147        6D+1       -0.00048  -0.00105   0.00441   0.00358   0.00186
 148        6D-1       -0.00075   0.00125  -0.00160  -0.00068  -0.00040
 149        6D+2       -0.00109   0.00150   0.00365   0.00297  -0.00053
 150        6D-2       -0.00005  -0.00119   0.00471   0.00356   0.00139
 151 13  C  1S          0.00012   0.00136   0.00029  -0.00002  -0.00108
 152        2S         -0.00048  -0.00102  -0.00079   0.00132   0.00109
 153        3S          0.00421   0.01336   0.00960   0.01846  -0.02662
 154        4PX         0.02198  -0.01625  -0.04859  -0.04065  -0.00521
 155        4PY        -0.02017   0.00463   0.03893   0.03491   0.01107
 156        4PZ         0.01786  -0.02335  -0.03599  -0.03544   0.00146
 157        5PX         0.01480   0.00160  -0.02622  -0.01376  -0.00677
 158        5PY        -0.01289   0.01281   0.03017   0.03184  -0.00228
 159        5PZ         0.01630  -0.03555  -0.02373  -0.03443   0.00158
 160        6D 0        0.00010   0.00134  -0.00418  -0.00291  -0.00158
 161        6D+1        0.00065  -0.00014   0.00192   0.00166   0.00023
 162        6D-1        0.00062   0.00019   0.00648   0.00537   0.00073
 163        6D+2        0.00174  -0.00462   0.01065   0.00718   0.00441
 164        6D-2        0.00039  -0.00112  -0.00077  -0.00095   0.00041
 165 14  C  1S         -0.00015   0.00443   0.00082   0.00231  -0.00287
 166        2S          0.00029  -0.00907  -0.00197  -0.00468   0.00591
 167        3S         -0.00349  -0.01209   0.00136  -0.00276   0.02298
 168        4PX        -0.00501   0.02204  -0.14563  -0.11115  -0.03810
 169        4PY         0.00533  -0.03018   0.12415   0.08911   0.03946
 170        4PZ        -0.00514   0.02919  -0.11356  -0.08111  -0.03561
 171        5PX        -0.00512   0.02433  -0.10691  -0.07758  -0.02958
 172        5PY         0.00277  -0.02584   0.09058   0.06374   0.03549
 173        5PZ        -0.00306   0.00863  -0.08360  -0.06800  -0.02200
 174        6D 0       -0.00198   0.00260  -0.00188  -0.00076  -0.00099
 175        6D+1       -0.00092   0.00117  -0.00235  -0.00129  -0.00066
 176        6D-1        0.00095  -0.00077  -0.00081  -0.00090  -0.00002
 177        6D+2        0.00047   0.00007  -0.00304  -0.00238  -0.00058
 178        6D-2       -0.00117   0.00144  -0.00174  -0.00071  -0.00063
 179 15  C  1S          0.00007   0.00181   0.00132   0.00118  -0.00125
 180        2S         -0.00023  -0.00437  -0.00328  -0.00271   0.00266
 181        3S          0.00194   0.01765   0.00096   0.01061  -0.01681
 182        4PX        -0.02890   0.03658  -0.08543  -0.05222  -0.02088
 183        4PY         0.02376  -0.04596   0.06471   0.03735   0.02703
 184        4PZ        -0.02191   0.03301  -0.06227  -0.03717  -0.01976
 185        5PX        -0.01939   0.03110  -0.06073  -0.03619  -0.02002
 186        5PY         0.01729  -0.03703   0.05042   0.02598   0.02183
 187        5PZ        -0.01559   0.01464  -0.04335  -0.03106  -0.00841
 188        6D 0        0.00014  -0.00162   0.00708   0.00518   0.00232
 189        6D+1       -0.00041  -0.00107   0.00565   0.00441   0.00218
 190        6D-1       -0.00060   0.00002  -0.00041  -0.00014   0.00053
 191        6D+2       -0.00107   0.00047   0.00582   0.00500   0.00152
 192        6D-2       -0.00010  -0.00022   0.00522   0.00417   0.00117
 193 16  C  1S         -0.00043   0.00211  -0.00148   0.00028  -0.00115
 194        2S          0.00113  -0.00773   0.00268  -0.00216   0.00450
 195        3S          0.00125  -0.03503   0.01264  -0.01269   0.02341
 196        4PX        -0.02059   0.01544   0.08194   0.07109   0.01773
 197        4PY         0.01980  -0.00805  -0.06008  -0.05640  -0.01940
 198        4PZ        -0.01817  -0.00377   0.05194   0.04466   0.02741
 199        5PX        -0.01414   0.00401   0.06773   0.05234   0.01627
 200        5PY         0.01509  -0.00100  -0.04160  -0.03759  -0.02327
 201        5PZ        -0.01271   0.00785   0.03380   0.03892   0.01138
 202        6D 0        0.00004   0.00274  -0.00435  -0.00292  -0.00259
 203        6D+1        0.00066  -0.00156   0.00088   0.00033   0.00071
 204        6D-1        0.00069  -0.00037   0.00625   0.00473   0.00084
 205        6D+2        0.00172  -0.00383   0.00952   0.00606   0.00296
 206        6D-2        0.00033  -0.00192  -0.00202  -0.00210   0.00061
 207 17  N  1S         -0.01117   0.03144  -0.03289   0.02206   0.06673
 208        2S         -0.02024   0.06042  -0.06651   0.04524   0.13751
 209        3S         -0.05711   0.10582  -0.12059   0.06003   0.19288
 210        4PX        -0.03683   0.09038  -0.11685   0.09617   0.19042
 211        4PY        -0.05402   0.13320  -0.13948   0.10603   0.34223
 212        4PZ         0.00452   0.15238   0.10140  -0.14893   0.14228
 213        5PX         0.01632  -0.07444   0.09164  -0.07306  -0.13064
 214        5PY         0.04516  -0.10619   0.08966  -0.07969  -0.24568
 215        5PZ        -0.00958  -0.10796  -0.07537   0.10917  -0.10548
 216        6D 0       -0.00162   0.00149  -0.00670   0.00803   0.00660
 217        6D+1       -0.00025  -0.00550  -0.00334   0.00684  -0.00756
 218        6D-1        0.00034  -0.00418  -0.00112   0.00113  -0.00313
 219        6D+2        0.00008   0.00102  -0.00007  -0.00168   0.00456
 220        6D-2        0.00116   0.00027   0.00418  -0.00279  -0.00822
 221 18  C  1S         -0.00627   0.01389  -0.01200   0.00898   0.02604
 222        2S          0.01514  -0.03931   0.03275  -0.02347  -0.07501
 223        3S          0.03668   0.04134  -0.00590  -0.00369   0.08375
 224        4PX        -0.01211   0.07746  -0.01394  -0.01113   0.10573
 225        4PY        -0.00913   0.04813  -0.00744  -0.00804   0.06847
 226        4PZ        -0.01589  -0.00850  -0.07630   0.10985  -0.00667
 227        5PX        -0.01528   0.01762   0.01296  -0.02074   0.03894
 228        5PY         0.00355   0.00189   0.02542  -0.02051  -0.06761
 229        5PZ        -0.00905  -0.02716  -0.05210   0.08621  -0.03789
 230        6D 0        0.00173   0.00433   0.00371  -0.00517   0.00358
 231        6D+1        0.00094   0.00809   0.00815  -0.01114   0.00623
 232        6D-1       -0.00162  -0.00025  -0.00792   0.00781   0.00709
 233        6D+2       -0.00158  -0.00520  -0.00801   0.00919   0.00075
 234        6D-2       -0.00439   0.01385  -0.00697   0.00326   0.02777
 235 19  C  1S         -0.00361   0.01073  -0.00873   0.00570   0.02588
 236        2S          0.01029  -0.02554   0.02568  -0.01854  -0.06586
 237        3S         -0.00986  -0.10964   0.02127   0.00475  -0.21325
 238        4PX        -0.02244  -0.06193  -0.11877   0.12834   0.02845
 239        4PY         0.00621  -0.08738  -0.02104   0.04163  -0.10581
 240        4PZ         0.00834   0.09364   0.12487  -0.14732   0.03307
 241        5PX        -0.01399  -0.01909  -0.10335   0.10124   0.07961
 242        5PY         0.00847  -0.03925  -0.01435   0.02965  -0.09014
 243        5PZ         0.00239   0.09876   0.07938  -0.10601   0.07283
 244        6D 0        0.01759   0.00152  -0.00069  -0.00019   0.00079
 245        6D+1       -0.00089   0.00154   0.00288  -0.00404   0.00148
[...]
 0002040,-0.00000949,0.00000017,-0.00000516,-0.00000227,0.00003343,-0.0
 0001619,-0.00001272,-0.00000358,0.00000330,-0.00000113,-0.00000972,0.0
 0000315,0.00000261,0.00000438,-0.00000160,-0.00000153,-0.00000049,0.00
 000406,-0.00000158,-0.00000992,-0.00001243,-0.00000736,-0.00001712,0.0
 0002969,0.00000387,0.00000619,-0.00002346,0.00000826,0.00000357,-0.000
 00076,0.00000229,-0.00000277,0.00001143,0.00000648,0.00000917,0.000000
 81,0.00000609,-0.00000610,0.00001073,0.00000307,0.00000119,0.00000433,
 -0.00000361,0.00000374,0.00000192,-0.00000296,-0.00014938,0.00004564,-
 0.00002024,0.00049611,-0.00047542,0.00037934,0.00180906,-0.00407576,-0
 .00340185,0.00764878,-0.01342147,0.00916843,-0.06855482,0.05487165,-0.
 05278261,-0.00136867,0.01881378,-0.01301922,-0.00020838,-0.00270643,-0
 .00571134,-0.00071279,-0.00028643,0.00026451,-0.00000327,-0.00000283,0
 .00000073,0.00000083,-0.00000092,-0.00000040,-0.00000060,0.00000054,0.
 00000015,-0.00000254,0.00000231,0.00000095,-0.00000214,-0.00000018,0.0
 0000004,-0.00000106,-0.00000269,-0.00000024,0.00000285,0.00000262,-0.0
 0000711,-0.00000396,0.00000285,0.00000806,0.00000025,0.00000297,-0.000
 00509,-0.00000411,-0.00001588,-0.00000431,-0.00001078,0.00000160,-0.00
 000786,-0.00000179,-0.00000200,-0.00000063,0.00000007,-0.00000029,-0.0
 0000227,0.00000007,-0.00000013,-0.00000304,-0.00014094,-0.00022726,0.0
 0004724,-0.00145785,0.00131898,0.00219153,0.06431517,0.00004800,0.0000
 8526,-0.00001886,-0.00002456,-0.00005734,-0.00001556,0.00008868,-0.000
 06232,-0.00003433,-0.00000428,0.00001297,-0.00000574,-0.00003220,0.000
 02052,0.00001730,0.00000479,-0.00000113,-0.00000996,0.00001244,0.00001
 362,0.00000644,-0.00004453,-0.00004610,-0.00001185,-0.00006631,0.00002
 916,0.00000616,0.00004062,-0.00004067,-0.00000099,0.00000004,0.0000012
 9,0.00000038,-0.00001062,0.00001191,0.00000605,0.00000332,-0.00000411,
 0.00000951,-0.00000904,0.00001210,0.00000087,0.00000132,0.00000455,-0.
 00000871,0.00000399,0.00000652,-0.00000992,-0.00030564,0.00006836,-0.0
 0009320,0.00110613,-0.00027482,0.00095040,-0.00483380,-0.00280508,0.00
 030048,0.00912371,-0.01449960,0.01683912,0.05388988,-0.22733235,0.1335
 6514,-0.00292809,0.00594240,-0.00378201,-0.00192069,0.00207084,0.00047
 917,-0.00062420,-0.00008239,-0.00094581,-0.00001290,-0.00001271,0.0000
 0108,0.00000136,-0.00000356,-0.00000384,0.00000183,0.00000335,0.000000
 09,-0.00000913,-0.00000413,0.00000172,-0.00000282,-0.00001443,0.000002
 92,-0.00000866,-0.00000485,-0.00000501,0.00000858,0.00000984,-0.000019
 27,-0.00000733,0.00001207,0.00002234,-0.00000083,0.00000359,0.00000352
 ,0.00000053,-0.00001669,0.00000430,-0.00000800,0.00000488,-0.00000560,
 -0.00000143,0.00000046,0.00000019,-0.00000079,0.00000132,-0.00000047,0
 .00000348,-0.00000074,-0.00000297,-0.00010004,-0.00034600,-0.00006255,
 0.00112390,0.00056955,-0.00109150,-0.05571838,0.23642701,-0.00005670,-
 0.00001387,0.00000270,-0.00000317,0.00000994,0.00000422,-0.00004701,0.
 00001958,0.00001953,0.00000431,-0.00000410,-0.00000047,0.00001488,-0.0
 0000657,-0.00000464,-0.00000471,-0.00000145,0.00000237,-0.00000962,0.0
 0000099,-0.00000223,0.00001683,0.00001204,0.00000360,0.00003344,-0.000
 02216,-0.00001587,-0.00002169,0.00002693,0.00000036,0.00000198,-0.0000
 0501,-0.00000251,-0.00000500,-0.00000089,0.00000109,-0.00000168,-0.000
 00660,-0.00000514,0.00000259,-0.00000823,-0.00000235,-0.00000003,-0.00
 000416,-0.00000003,-0.00000245,-0.00000331,0.00000043,0.00015956,0.000
 08931,-0.00007239,-0.00004927,-0.00011047,0.00025646,-0.00312708,0.000
 22490,0.00467806,-0.00042890,-0.00287918,0.00522605,-0.05340780,0.1333
 9883,-0.14780968,-0.00272055,0.01656478,-0.00619145,-0.00595520,0.0001
 9986,0.00142838,-0.00005090,-0.00111582,-0.00050266,0.00000573,0.00000
 493,-0.00000127,-0.00000170,0.00000075,0.00000048,-0.00000031,-0.00000
 099,-0.00000092,0.00000358,0.00000015,-0.00000009,0.00000281,0.0000048
 3,-0.00000067,0.00000096,-0.00000016,-0.00000004,-0.00000191,-0.000000
 67,0.00000162,0.00000225,-0.00000303,-0.00000275,0.00000237,0.00000021
 ,0.00000007,-0.00000161,0.00000631,0.00000353,0.00000331,0.00000206,0.
 00000677,0.00000399,0.00000047,0.00000148,0.00000251,0.00000075,0.0000
 0043,0.00000018,0.00000178,0.00000174,0.00008608,-0.00000622,-0.000099
 73,0.00245978,-0.00105083,-0.00165312,0.06053597,-0.14492859,0.1470256
 8,0.00004677,0.00004388,-0.00000201,-0.00000782,-0.00001100,-0.0000081
 2,0.00002713,-0.00000721,-0.00001566,-0.00000213,0.00000268,0.00000154
 ,-0.00000821,0.00000491,0.00000171,0.00000284,-0.00000006,-0.00000358,
 0.00000622,0.00000187,0.00000151,-0.00001566,-0.00001374,-0.00000276,-
 0.00003354,0.00000647,0.00001323,0.00002291,-0.00001703,-0.00000458,-0
 .00000294,0.00000461,0.00000045,0.00000419,-0.00000196,-0.00000467,-0.
 00000223,0.00000156,0.00000583,-0.00000058,0.00000472,0.00000007,-0.00
 000019,0.00000250,0.00000054,0.00000171,0.00000319,-0.00000128,0.00001
 058,-0.00018789,0.00003546,-0.00055962,0.00002727,0.00049793,-0.000519
 10,0.00095018,0.00003013,0.00004245,-0.00086993,-0.00642922,-0.0055686
 1,-0.02102452,0.00013592,-0.11705793,-0.12511866,-0.02009750,0.0076272
 1,0.00904530,-0.00043775,0.00301928,0.00043194,-0.00403347,-0.00000394
 ,-0.00000243,0.00000176,0.00000180,-0.00000021,0.00000052,0.00000054,0
 .00000077,0.00000152,-0.00000321,-0.00000112,0.00000031,-0.00000140,-0
 .00000478,0.00000026,-0.00000093,-0.00000023,0.00000037,0.00000227,0.0
 0000032,0.00000215,-0.00000403,0.00000452,0.00000388,-0.00000288,-0.00
 000123,0.00000358,0.00000432,-0.00000158,0.00000166,-0.00000021,-0.000
 00137,-0.00000296,-0.00000313,0.00000046,-0.00000066,-0.00000247,-0.00
 000033,0.00000024,-0.00000008,-0.00000172,-0.00000060,-0.00002343,-0.0
 0002551,-0.00006740,-0.00031306,-0.00090235,0.00005401,-0.00113005,0.0
 0116461,0.00232763,0.11552083,0.00003921,0.00004174,0.00003254,-0.0000
 0089,-0.00000876,-0.00000502,0.00003607,-0.00002195,-0.00001504,-0.000
 00177,0.00000507,-0.00000282,-0.00001436,0.00001022,0.00000891,0.00000
 170,0.00000012,-0.00000508,0.00001002,0.00000466,0.00000406,-0.0000196
 4,-0.00002850,-0.00000302,-0.00003874,0.00000045,0.00000737,0.00002740
 ,-0.00001500,-0.00000771,-0.00000345,0.00000316,-0.00000042,-0.0000012
 5,-0.00000124,-0.00000213,-0.00000390,-0.00000083,0.00000378,-0.000001
 69,0.00000245,-0.00000089,0.00000008,0.00000085,-0.00000231,0.00000062
 ,0.00000367,-0.00000398,-0.00018609,0.00001466,-0.00001547,0.00033371,
 0.00003467,-0.00024015,0.00076423,0.00032432,0.00014245,-0.00129253,0.
 00220613,0.00084617,0.00108074,0.00136731,0.00211136,-0.12498318,-0.27
 505459,-0.01583589,-0.01346122,-0.01467616,-0.00446571,0.00109405,-0.0
 0155844,0.00465893,-0.00000677,-0.00000597,0.00000068,0.00000089,-0.00
 000132,-0.00000225,0.00000168,0.00000218,0.00000041,-0.00000507,-0.000
 00399,0.00000009,-0.00000111,-0.00000916,0.00000165,-0.00000461,-0.000
 00130,-0.00000298,0.00000345,0.00000518,-0.00000836,-0.00000256,0.0000
 0542,0.00000749,-0.00000179,-0.00000042,0.00000612,0.00000406,-0.00000
 055,0.00000397,0.00000152,0.00000058,-0.00000034,-0.00000094,0.0000015
 4,0.,-0.00000158,0.00000080,0.00000115,0.00000178,-0.00000120,-0.00000
 004,0.00001763,0.00002303,0.00002392,0.00007397,-0.00006191,0.00011528
 ,0.00080097,0.00023362,-0.00107840,0.13536661,0.28745447,0.00003629,0.
 00000080,0.00001391,0.00001024,0.00001116,0.00000256,-0.00000107,0.000
 00463,0.00000026,-0.00000073,0.00000043,-0.00000042,-0.00000146,0.0000
 0209,0.00000359,-0.00000123,0.00000122,-0.00000064,0.00000602,-0.00000
 492,0.00000436,-0.00001315,-0.00001568,-0.00001216,-0.00000624,-0.0000
 1110,-0.00000104,0.00000797,-0.00000189,-0.00000227,-0.00000212,0.0000
 0112,-0.00000119,0.00000030,-0.00000146,-0.00000272,-0.00000206,-0.000
 00275,0.00000293,-0.00000015,-0.00000030,-0.00000078,-0.00000077,-0.00
 000023,-0.00000117,-0.00000004,-0.00000025,-0.00000182,-0.00007879,0.0
 0002784,0.00012206,0.00066060,0.00002657,-0.00051046,-0.00030952,0.000
 14418,-0.00120931,-0.00594042,0.00145661,0.00088331,-0.00956416,-0.018
 23152,0.00303882,-0.02014417,-0.01572245,-0.05035684,0.00898473,0.0155
 2239,0.00571242,-0.00405403,0.00418056,0.00191222,-0.00000056,-0.00000
 155,-0.00000068,-0.00000028,-0.00000019,-0.00000117,0.00000019,0.00000
 020,-0.00000018,0.00000023,-0.00000154,-0.00000002,-0.00000069,-0.0000
 0445,0.00000027,-0.00000028,0.00000124,-0.00000090,-0.00000314,0.00000
 011,0.00000011,0.00000178,0.00000022,-0.00000234,-0.00000029,0.0000010
 8,0.00000313,0.00000331,0.00000098,0.00000266,0.00000077,0.00000041,-0
 .00000002,-0.00000023,0.00000079,0.00000089,0.00000058,0.00000048,0.00
 000059,0.00000095,0.00000085,0.00000043,0.00003168,-0.00009905,0.00004
 876,-0.00040740,-0.00084555,-0.00002266,0.00246660,-0.00081749,-0.0014
 2835,0.02572165,0.01498706,0.04325095,-0.00000992,0.00012671,0.0000474
 9,-0.00000877,-0.00003461,-0.00000821,0.00004413,-0.00006091,-0.000047
 42,-0.00000103,0.00000547,0.00000373,-0.00002855,0.00001598,0.00001802
 ,0.00000156,0.00000183,-0.00001121,0.00001343,0.00000557,0.00000770,-0
 .00002670,-0.00002386,-0.00001673,-0.00004407,0.00000526,0.00001726,0.
 00003250,-0.00001452,-0.00001260,-0.00000451,0.00000284,0.00000121,0.0
 0000052,-0.00000142,-0.00000293,-0.00000375,0.00000102,0.00000400,-0.0
 0000181,0.00000396,-0.00000068,0.00000031,0.00000163,-0.00000041,0.000
 00153,0.00000626,-0.00000388,-0.00027634,-0.00024090,0.00003728,-0.000
 08824,0.00051568,-0.00057099,0.00318961,-0.00427140,-0.00220252,0.0000
 3350,0.00026736,0.00077621,0.00379313,0.00051511,-0.00336084,-0.002050
 28,-0.00351788,-0.00377911,-0.21427984,-0.02414001,-0.15074008,-0.0066
 3639,0.00125739,-0.00984895,-0.00001201,-0.00001127,0.,0.00000268,-0.0
 0000122,-0.00000008,0.00000187,0.00000144,0.00000402,-0.00000557,-0.00
 000414,0.00000094,-0.00000198,-0.00001272,0.00000069,-0.00000285,0.000
 00015,0.00000026,0.00000406,0.00000328,-0.00000178,-0.00000330,0.00000
 936,0.00001024,-0.00000401,-0.00000346,0.00000801,0.00000403,-0.000001
 10,0.00000325,0.00000126,-0.00000026,-0.00000057,-0.00000142,0.0000010
 4,-0.00000060,-0.00000302,0.00000066,0.00000063,0.00000021,-0.00000308
 ,-0.00000024,0.00001990,-0.00003634,0.00001710,-0.00048381,0.00020673,
 0.00041987,-0.00017610,-0.00020947,-0.00025594,-0.00132575,0.00098611,
 0.00223764,0.21955058,-0.00002942,0.00004440,0.00011396,-0.00000183,-0
 .00001340,-0.00001008,0.00003019,-0.00006253,-0.00004040,-0.00000131,0
 .00000520,0.00000230,-0.00002498,0.00001586,0.00001847,0.00000006,0.00
 000254,-0.00000839,0.00001654,-0.00000019,0.00000792,-0.00004385,-0.00
 002876,-0.00001532,-0.00002773,0.00000606,0.00000495,0.00001949,-0.000
 01106,-0.00000504,-0.00000240,0.00000028,0.00000057,-0.00000226,0.0000
 0177,0.00000011,-0.00000093,-0.00000130,0.00000333,-0.00000257,0.00000
 309,-0.00000031,-0.00000001,0.00000080,-0.00000225,0.00000087,0.000003
 34,-0.00000411,-0.00046222,-0.00045863,-0.00018093,-0.00061474,0.00075
 710,-0.00077649,-0.00344853,-0.00401365,0.00136772,0.00014187,-0.00125
 075,0.00023076,-0.00018113,-0.00295089,0.00400480,0.01887405,0.0066952
 0,0.01589094,-0.02411324,-0.05901772,-0.01353123,-0.02070055,0.0025238
 5,-0.01829735,-0.00000882,-0.00001097,-0.00000072,0.00000167,-0.000001
 23,-0.00000058,0.00000113,0.00000114,0.00000293,-0.00000307,-0.0000034
 8,0.00000071,-0.00000271,-0.00001547,0.00000027,-0.00000223,0.00000042
 ,-0.00000027,0.00000150,0.00000283,0.00000140,0.00000124,0.00000740,0.
 00000307,-0.00000171,-0.00000021,0.00000524,0.00000169,-0.00000333,0.0
 0000223,-0.00000088,0.00000109,-0.00000103,-0.00000034,0.00000062,0.00
 000028,-0.00000055,0.00000086,0.00000029,0.00000114,-0.00000060,-0.000
 00035,0.00000718,-0.00007348,0.00002612,0.00018050,-0.00002793,-0.0002
 4282,0.00084277,0.00019312,0.00083282,0.00065195,0.00053561,-0.0013587
 6,0.02766832,0.05653224,0.00004240,0.00001904,0.00001572,-0.00000437,-
 0.00001608,-0.00000564,0.00003827,-0.00001871,-0.00001260,-0.00000243,
 0.00000496,-0.00000029,-0.00001050,0.00001048,0.00000728,0.00000057,0.
 00000141,-0.00000352,0.00001271,0.00000062,0.00000427,-0.00003176,-0.0
 0002297,0.00000187,-0.00002854,0.00000048,0.00000297,0.00001963,-0.000
 00992,-0.00000540,-0.00000289,0.00000201,-0.00000046,-0.00000146,-0.00
 000121,-0.00000150,-0.00000359,-0.00000113,0.00000224,-0.00000107,0.00
 000058,-0.00000095,-0.00000014,-0.00000009,-0.00000230,-0.00000022,0.0
 0000220,-0.00000324,-0.00014476,-0.00013040,-0.00017585,-0.00000972,0.
 00035662,0.00014711,-0.00275641,0.00101876,0.00449249,0.00089878,0.000
 04444,-0.00013646,-0.00315634,0.00450286,0.00251669,-0.01281463,-0.004
 34530,-0.00623943,-0.15075561,-0.01387138,-0.16942598,-0.00055603,0.00
 231632,0.00223025,-0.00000430,-0.00000524,0.00000030,0.00000082,-0.000
 00111,-0.00000146,0.00000127,0.00000164,0.00000045,-0.00000319,-0.0000
 0385,-0.00000020,-0.00000150,-0.00001140,0.00000168,-0.00000325,0.0000
 0026,-0.00000195,0.00000242,0.00000227,-0.00000242,0.00000027,0.000004
 74,0.00000097,-0.00000122,0.00000007,0.00000541,0.00000311,0.00000028,
 0.00000314,0.00000194,0.00000069,0.00000038,-0.00000021,0.00000148,0.0
 0000029,-0.00000061,0.00000084,0.00000123,0.00000191,-0.00000027,0.000
 00032,-0.00002103,-0.00004430,0.00002262,0.00046486,-0.00027269,-0.000
 52200,-0.00061887,-0.00015951,-0.00033266,0.00234120,-0.00106703,-0.00
 162978,0.16488813,0.01282506,0.17085945,-0.00000475,-0.00006259,-0.000
 17594,-0.00000747,-0.00000649,0.00001521,-0.00008299,0.00007690,-0.000
 00495,0.00000124,-0.00001482,0.00002592,0.00003117,-0.00002400,-0.0000
 1372,-0.00000422,0.00000249,0.00000212,-0.00000479,-0.00002654,0.00001
 336,0.00000174,0.00005331,-0.00004575,0.00006313,-0.00001933,0.0000035
 6,-0.00004155,0.00003907,0.00000430,0.00000106,-0.00000445,0.00000075,
 0.00001127,-0.00000662,-0.00000595,0.00000111,0.00000181,-0.00000588,0
 .00000620,-0.00000754,0.00000029,-0.00000134,-0.00000259,0.00000856,-0
 .00000151,-0.00000602,0.00000915,-0.00001553,-0.00074569,-0.00012833,-
 0.00129799,0.00289211,0.00194245,-0.00131291,0.01837546,-0.01187051,-0
 .00066446,-0.00269344,-0.00545781,-0.00091020,-0.00053581,0.00023263,0
 .00194375,-0.00395838,-0.00320555,0.00784238,-0.01249715,0.00865890,-0
 .07110810,0.05704613,-0.05313567,0.00001175,0.00001336,0.00000038,0.00
 000268,0.00000698,0.00000914,-0.00000326,-0.00000682,0.00000432,0.0000
 1014,0.00000686,0.00000124,0.00000020,0.00001313,-0.00000437,0.0000160
 1,0.00001203,0.00001152,-0.00000765,-0.00003531,0.00004028,0.00000821,
 -0.00000005,-0.00001077,-0.00000082,-0.00000384,-0.00000289,-0.0000005
 0,0.00000895,-0.00000498,0.00000234,-0.00000349,0.00000310,0.00000123,
 -0.00000182,0.00000011,0.00000126,-0.00000151,-0.00000118,-0.00000516,
 0.00000054,0.00000195,-0.00003575,-0.00069100,-0.00006670,-0.00004818,
 0.00096144,-0.00076126,-0.00039343,0.00025651,0.00048245,0.00025205,-0
 .00061338,0.00036144,-0.00121478,0.00123582,0.00221635,0.06695842,-0.0
 0019976,-0.00004729,0.00005095,0.00002185,0.00003162,0.00001117,-0.000
 04441,-0.00000062,0.00004943,0.00000360,-0.00000100,-0.00001007,0.0000
 1419,-0.00000813,-0.00001338,-0.00000263,0.00000144,0.00001401,-0.0000
 1895,-0.00000260,-0.00000778,0.00005091,0.00004708,0.00002969,0.000051
 13,-0.00000538,-0.00001683,-0.00002691,0.00001032,0.00001020,0.0000053
 0,-0.00000058,-0.00000049,-0.00000019,0.00000083,0.00000260,0.00000343
 ,-0.00000007,-0.00000303,0.00000188,-0.00000266,0.00000075,0.00000001,
 -0.00000096,0.00000038,-0.00000123,-0.00000583,0.00000385,0.00114346,0
 .00008774,0.00023936,-0.00156625,0.00017533,-0.00199150,-0.00161542,0.
 00506151,-0.00217146,-0.00157389,0.00155551,0.00036851,-0.00043742,0.0
 0011674,-0.00074066,-0.00472591,-0.00279677,-0.00028255,0.00956499,-0.
 01440871,0.01676509,0.05644935,-0.22799157,0.12874134,0.00000979,0.000
 00597,-0.00000181,-0.00000412,-0.00000140,-0.00000125,-0.00000190,-0.0
 0000107,-0.00000409,0.00000724,0.00000366,-0.00000182,0.00000423,0.000
 01490,-0.00000134,0.00000519,0.00000191,0.00000098,-0.00001363,-0.0000
 0391,0.00000635,0.00000915,-0.00000817,-0.00001877,0.00000479,0.000002
 99,-0.00001067,-0.00000331,0.00000091,-0.00000291,-0.00000140,-0.00000
 006,-0.00000024,0.00000049,-0.00000097,0.00000015,0.00000221,-0.000000
 90,-0.00000058,0.00000011,0.00000268,-0.00000013,0.00050063,0.00009307
 ,0.00031245,-0.00027628,0.00014229,-0.00011278,0.00023997,-0.00012930,
 -0.00015150,0.00047453,-0.00083062,0.00074811,0.00097941,0.00061074,-0
 .00113548,-0.05903424,0.23828134,-0.00014924,-0.00002189,0.00012269,0.
 00002109,0.00002825,0.00000484,-0.00005099,-0.00002393,0.00002596,0.00
 000319,-0.00000270,-0.00000202,0.00000251,0.00000041,-0.00000283,-0.00
 000657,0.00001192,0.00001474,0.00000605,-0.00002356,-0.00000814,-0.000
 03688,0.00004132,0.00002377,0.00004753,-0.00002995,-0.00001428,-0.0000
 1625,0.00001904,0.00000072,0.00000055,-0.00000092,-0.00000142,0.000003
 86,-0.00000526,-0.00000355,-0.00000166,-0.00000125,-0.00000318,0.00000
 350,-0.00000582,-0.00000056,-0.00000099,-0.00000262,0.00000221,-0.0000
 0200,-0.00000532,0.00000350,0.00052537,-0.00044364,0.00022548,0.002473
 08,0.00149207,-0.00165733,-0.00370853,0.01588094,-0.00637668,-0.005776
 42,-0.00001449,0.00150617,0.00016237,-0.00073567,-0.00051477,-0.003197
 62,0.00039055,0.00435873,-0.00022419,-0.00399025,0.00523106,-0.0536987
 2,0.12972242,-0.13867809,0.00000736,-0.00000073,-0.00000384,-0.0000030
 4,-0.00000026,0.00000031,-0.00000092,-0.00000240,-0.00000216,0.0000118
 5,0.00000058,-0.00000339,0.00000077,-0.00000106,-0.00000019,0.00000681
 ,0.00000734,0.00000370,-0.00001850,-0.00001389,0.00002194,0.00001689,-
 0.00001335,-0.00004654,0.00000196,0.00000084,-0.00000106,0.00000169,0.
 00000738,0.00000022,0.00000304,-0.00000088,0.00000263,0.00000117,0.000
 00023,0.00000064,0.00000162,-0.00000026,0.00000049,-0.00000027,0.00000
 200,0.00000175,0.00007883,-0.00119332,0.00026162,-0.00016176,0.0008539
 9,-0.00029434,0.00053150,-0.00018345,-0.00053604,-0.00007284,-0.000198
 34,0.00018270,0.00236209,-0.00086983,-0.00181305,0.06085274,-0.1406742
 5,0.13796755\\0.00910701,0.00972640,0.00611858,-0.00116033,-0.00127658
 ,0.00053680,-0.00206877,0.00678639,-0.00362881,0.00029721,-0.00155257,
 0.00057069,-0.00001576,-0.00039635,0.00167263,-0.00024173,-0.00033135,
 -0.00082593,0.00146936,-0.00052789,0.00106840,-0.00256851,-0.00339115,
 -0.00141795,-0.00885775,0.00049496,-0.00419027,0.01550351,-0.00886216,
 -0.00055466,-0.00186469,0.00120813,-0.00245247,-0.00002903,0.00053670,
 -0.00158067,-0.00041079,-0.00023979,0.00048136,-0.00088776,0.00096849,
 0.00029704,-0.00022384,0.00085322,-0.00073027,0.00061209,0.00106406,-0
 .00101490,0.00413807,0.00906190,-0.00487824,-0.01745721,-0.01691733,-0
 .00331274,0.00118696,0.00267297,-0.00034858,-0.00009584,-0.00015010,-0
 .00141640,0.00025654,0.00002372,0.00046103,0.00125339,0.00114044,0.000
 87407,0.00029358,0.00134408,-0.00068870,-0.00134621,0.00153432,-0.0005
 6606,-0.00036132,-0.00010818,-0.00003365,-0.00003402,-0.00007611,-0.00
 016449,0.00007054,0.00010864,0.00001798,-0.00014727,-0.00048700,0.0000
 2947,-0.00024330,-0.00087739,-0.00011309,-0.00025252,-0.00014277,-0.00
 024893,0.00012380,0.00011376,-0.00015077,0.00043160,-0.00001244,0.0003
 8835,-0.00224285,0.00066241,0.00432325,0.00091009,-0.00127170,0.004652
 71,-0.00058541,0.00052544,-0.00017835,-0.00009948,0.00007330,-0.000015
 14,-0.00027524,0.00012014,-0.00002846,0.00018872,-0.00034747,-0.000153
 12,0.00623163,-0.00099452,0.00288346,-0.00123622,-0.00175818,0.0047726
 7,0.00047820,0.00068118,-0.00020581,0.00014679,0.00011877,0.00000713,0
 .00032340,0.00022676,0.00002871,-0.00031664,-0.00032513,-0.00028588\\\
 @

 Writing a WFNX file to "04_lig.wfx"


 SEE YOU NOW,
 YOUR BAIT OF FALSEHOOD TAKES THIS CARP OF TRUTH.
 AND THUS DO WE OF WISDOM AND OF REACH...
 BY INDIRECTIONS FIND DIRECTIONS OUT.    -- HAMLET, II, 1
 Job cpu time:       0 days  3 hours 14 minutes 54.2 seconds.
 Elapsed time:       0 days  0 hours 24 minutes 22.0 seconds.
 File lengths (MBytes):  RWF=    830 Int=      0 D2E=      0 Chk=     13 Scr=      1
 Normal termination of Gaussian 16 at Thu Dec  8 09:30:02 2022.
