 Entering Gaussian System, Link 0=g16
 Initial command:
 /software/gaussian/G16-A.03/avx/g16/l1.exe "/scratch/lcmd/1380809.slurm/Gau-137663.inp" -scrdir="/scratch/lcmd/1380809.slurm/"
 Entering Link 1 = /software/gaussian/G16-A.03/avx/g16/l1.exe PID=    137665.
  
 Copyright (c) 1988,1990,1992,1993,1995,1998,2003,2009,2016,
            Gaussian, Inc.  All Rights Reserved.
  
 This is part of the Gaussian(R) 16 program.  It is based on
 the Gaussian(R) 09 system (copyright 2009, Gaussian, Inc.),
 the Gaussian(R) 03 system (copyright 2003, Gaussian, Inc.),
 the Gaussian(R) 98 system (copyright 1998, Gaussian, Inc.),
 the Gaussian(R) 94 system (copyright 1995, Gaussian, Inc.),
 the Gaussian 92(TM) system (copyright 1992, Gaussian, Inc.),
 the Gaussian 90(TM) system (copyright 1990, Gaussian, Inc.),
 the Gaussian 88(TM) system (copyright 1988, Gaussian, Inc.),
 the Gaussian 86(TM) system (copyright 1986, Carnegie Mellon
 University), and the Gaussian 82(TM) system (copyright 1983,
 Carnegie Mellon University). Gaussian is a federally registered
 trademark of Gaussian, Inc.
  
 This software contains proprietary and confidential information,
 including trade secrets, belonging to Gaussian, Inc.
  
 This software is provided under written license and may be
 used, copied, transmitted, or stored only in accord with that
 written license.
  
 The following legend is applicable only to US Government
 contracts under FAR:
  
                    RESTRICTED RIGHTS LEGEND
  
 Use, reproduction and disclosure by the US Government is
 subject to restrictions as set forth in subparagraphs (a)
 and (c) of the Commercial Computer Software - Restricted
 Rights clause in FAR 52.227-19.
  
 Gaussian, Inc.
 340 Quinnipiac St., Bldg. 40, Wallingford CT 06492
  
  
 ---------------------------------------------------------------
 Warning -- This program may not be used in any manner that
 competes with the business of Gaussian, Inc. or will provide
 assistance to any competitor of Gaussian, Inc.  The licensee
 of this program is prohibited from giving any competitor of
 Gaussian, Inc. access to this program.  By using this program,
 the user acknowledges that Gaussian, Inc. is engaged in the
 business of creating and licensing software in the field of
 computational chemistry and represents and warrants to the
 licensee that it is not a competitor of Gaussian, Inc. and that
 it will not use this program in any manner prohibited above.
 ---------------------------------------------------------------
  

 Cite this work as:
 Gaussian 16, Revision A.03,
 M. J. Frisch, G. W. Trucks, H. B. Schlegel, G. E. Scuseria, 
 M. A. Robb, J. R. Cheeseman, G. Scalmani, V. Barone, 
 G. A. Petersson, H. Nakatsuji, X. Li, M. Caricato, A. V. Marenich, 
 J. Bloino, B. G. Janesko, R. Gomperts, B. Mennucci, H. P. Hratchian, 
 J. V. Ortiz, A. F. Izmaylov, J. L. Sonnenberg, D. Williams-Young, 
 F. Ding, F. Lipparini, F. Egidi, J. Goings, B. Peng, A. Petrone, 
 T. Henderson, D. Ranasinghe, V. G. Zakrzewski, J. Gao, N. Rega, 
 G. Zheng, W. Liang, M. Hada, M. Ehara, K. Toyota, R. Fukuda, 
 J. Hasegawa, M. Ishida, T. Nakajima, Y. Honda, O. Kitao, H. Nakai, 
 T. Vreven, K. Throssell, J. A. Montgomery, Jr., J. E. Peralta, 
 F. Ogliaro, M. J. Bearpark, J. J. Heyd, E. N. Brothers, K. N. Kudin, 
 V. N. Staroverov, T. A. Keith, R. Kobayashi, J. Normand, 
 K. Raghavachari, A. P. Rendell, J. C. Burant, S. S. Iyengar, 
 J. Tomasi, M. Cossi, J. M. Millam, M. Klene, C. Adamo, R. Cammi, 
 J. W. Ochterski, R. L. Martin, K. Morokuma, O. Farkas, 
 J. B. Foresman, and D. J. Fox, Gaussian, Inc., Wallingford CT, 2016.
 
 ******************************************
 Gaussian 16:  ES64L-G16RevA.03 25-Dec-2016
                 8-Dec-2022 
 ******************************************
 %nprocs=8
 Will use up to    8 processors via shared memory.
 %mem=32000MB
 %chk=05_lig.chk
 ----------------------------------------------------------------------
 #p pop=(regular,nbo,savenbos) freq=noraman def2svp empiricaldispersion
 =gd3bj output=wfx pbe1pbe
 ----------------------------------------------------------------------
 1/10=4,30=1,38=1/1,3;
 2/12=2,17=6,18=5,40=1/2;
 3/5=43,7=101,11=2,25=1,30=1,71=2,74=-13,124=41,140=1/1,2,3;
 4//1;
 5/5=2,38=5,98=1/2;
 8/6=4,10=90,11=11/1;
 11/6=1,8=1,9=11,15=111,16=1/1,2,10;
 10/6=1/2;
 6/28=1,40=1,73=1/1,7;
 7/8=1,10=1,25=1/1,2,3,16;
 1/10=4,30=1/3;
 99/6=200/99;
 Leave Link    1 at Thu Dec  8 09:05:16 2022, MaxMem=  4194304000 cpu:               0.4 elap:               0.1
 (Enter /software/gaussian/G16-A.03/avx/g16/l101.exe)
 ------
 05_lig
 ------
 Symbolic Z-matrix:
 Charge =  0 Multiplicity = 1
 C                    -0.56972   2.62283   0.52634 
 H                    -0.07594   2.55176   1.51496 
 C                     0.56973   2.62273  -0.52695 
 H                     0.07597   2.55183  -1.51559 
 C                     1.3931    3.90296  -0.45811 
 C                     0.52862   5.15233  -0.54681 
 C                    -0.52816   5.15242   0.54629 
 C                    -1.39286   3.90321   0.45757 
 N                     1.32464   1.39072  -0.40173 
 C                     2.59434   1.34093  -0.35658 
 C                     3.33611   0.07841  -0.28515 
 C                     2.81267  -1.10617  -0.82291 
 C                     3.52147  -2.29269  -0.71376 
 C                     4.76671  -2.30838  -0.06644 
 C                     5.30565  -1.12106   0.45097 
 C                     4.59608   0.06467   0.32623 
 C                     5.50002  -3.53299   0.05064 
 N                     6.09786  -4.52177   0.14462 
 N                    -1.32485   1.391     0.40111 
 C                    -2.59455   1.34131   0.35606 
 C                    -3.33629   0.07875   0.2848 
 C                    -2.81294  -1.10552   0.82335 
 C                    -3.52152  -2.29218   0.71439 
 C                    -4.76643  -2.30832   0.06646 
 C                    -5.30529  -1.1213   -0.45174 
 C                    -4.59595   0.06459  -0.32718 
 C                    -5.49953  -3.53308  -0.05047 
 N                    -6.09722  -4.52197  -0.14431 
 H                     2.14041   3.90219  -1.2675 
 H                     1.95172   3.91772   0.49508 
 H                     0.03765   5.19284  -1.53499 
 H                     1.16298   6.04929  -0.47748 
 H                    -1.16236   6.0495    0.47698 
 H                    -0.03719   5.19282   1.53448 
 H                    -1.95152   3.91811  -0.4956 
 H                    -2.14015   3.90252   1.26698 
 H                     3.20521   2.25768  -0.36201 
 H                     1.86037  -1.08998  -1.36474 
 H                     3.11726  -3.21489  -1.13402 
 H                     6.27801  -1.13895   0.94546 
 H                     5.01464   0.99058   0.72882 
 H                    -3.20537   2.2581    0.36153 
 H                    -1.86088  -1.08892   1.36557 
 H                    -3.1174   -3.21416   1.13523 
 H                    -6.2774   -1.13955  -0.94672 
 H                    -5.01444   0.99026  -0.73039 
 
 ITRead=  0  0  0  0  0  0  0  0  0  0  0  0  0  0  0  0  0  0  0  0
 ITRead=  0  0  0  0  0  0  0  0  0  0  0  0  0  0  0  0  0  0  0  0
 ITRead=  0  0  0  0  0  0
 MicOpt= -1 -1 -1 -1 -1 -1 -1 -1 -1 -1 -1 -1 -1 -1 -1 -1 -1 -1 -1 -1
 MicOpt= -1 -1 -1 -1 -1 -1 -1 -1 -1 -1 -1 -1 -1 -1 -1 -1 -1 -1 -1 -1
 MicOpt= -1 -1 -1 -1 -1 -1
 NAtoms=     46 NQM=       46 NQMF=       0 NMMI=      0 NMMIF=      0
                NMic=       0 NMicF=      0.
                    Isotopes and Nuclear Properties:
 (Nuclear quadrupole moments (NQMom) in fm**2, nuclear magnetic moments (NMagM)
  in nuclear magnetons)

  Atom         1           2           3           4           5           6           7           8           9          10
 IAtWgt=          12           1          12           1          12          12          12          12          14          12
 AtmWgt=  12.0000000   1.0078250  12.0000000   1.0078250  12.0000000  12.0000000  12.0000000  12.0000000  14.0030740  12.0000000
 NucSpn=           0           1           0           1           0           0           0           0           2           0
 AtZEff=  -0.0000000  -0.0000000  -0.0000000  -0.0000000  -0.0000000  -0.0000000  -0.0000000  -0.0000000  -0.0000000  -0.0000000
 NQMom=    0.0000000   0.0000000   0.0000000   0.0000000   0.0000000   0.0000000   0.0000000   0.0000000   2.0440000   0.0000000
 NMagM=    0.0000000   2.7928460   0.0000000   2.7928460   0.0000000   0.0000000   0.0000000   0.0000000   0.4037610   0.0000000
 AtZNuc=   6.0000000   1.0000000   6.0000000   1.0000000   6.0000000   6.0000000   6.0000000   6.0000000   7.0000000   6.0000000

  Atom        11          12          13          14          15          16          17          18          19          20
 IAtWgt=          12          12          12          12          12          12          12          14          14          12
 AtmWgt=  12.0000000  12.0000000  12.0000000  12.0000000  12.0000000  12.0000000  12.0000000  14.0030740  14.0030740  12.0000000
 NucSpn=           0           0           0           0           0           0           0           2           2           0
 AtZEff=  -0.0000000  -0.0000000  -0.0000000  -0.0000000  -0.0000000  -0.0000000  -0.0000000  -0.0000000  -0.0000000  -0.0000000
 NQMom=    0.0000000   0.0000000   0.0000000   0.0000000   0.0000000   0.0000000   0.0000000   2.0440000   2.0440000   0.0000000
 NMagM=    0.0000000   0.0000000   0.0000000   0.0000000   0.0000000   0.0000000   0.0000000   0.4037610   0.4037610   0.0000000
 AtZNuc=   6.0000000   6.0000000   6.0000000   6.0000000   6.0000000   6.0000000   6.0000000   7.0000000   7.0000000   6.0000000

  Atom        21          22          23          24          25          26          27          28          29          30
 IAtWgt=          12          12          12          12          12          12          12          14           1           1
 AtmWgt=  12.0000000  12.0000000  12.0000000  12.0000000  12.0000000  12.0000000  12.0000000  14.0030740   1.0078250   1.0078250
 NucSpn=           0           0           0           0           0           0           0           2           1           1
 AtZEff=  -0.0000000  -0.0000000  -0.0000000  -0.0000000  -0.0000000  -0.0000000  -0.0000000  -0.0000000  -0.0000000  -0.0000000
 NQMom=    0.0000000   0.0000000   0.0000000   0.0000000   0.0000000   0.0000000   0.0000000   2.0440000   0.0000000   0.0000000
 NMagM=    0.0000000   0.0000000   0.0000000   0.0000000   0.0000000   0.0000000   0.0000000   0.4037610   2.7928460   2.7928460
 AtZNuc=   6.0000000   6.0000000   6.0000000   6.0000000   6.0000000   6.0000000   6.0000000   7.0000000   1.0000000   1.0000000

  Atom        31          32          33          34          35          36          37          38          39          40
 IAtWgt=           1           1           1           1           1           1           1           1           1           1
 AtmWgt=   1.0078250   1.0078250   1.0078250   1.0078250   1.0078250   1.0078250   1.0078250   1.0078250   1.0078250   1.0078250
 NucSpn=           1           1           1           1           1           1           1           1           1           1
 AtZEff=  -0.0000000  -0.0000000  -0.0000000  -0.0000000  -0.0000000  -0.0000000  -0.0000000  -0.0000000  -0.0000000  -0.0000000
 NQMom=    0.0000000   0.0000000   0.0000000   0.0000000   0.0000000   0.0000000   0.0000000   0.0000000   0.0000000   0.0000000
 NMagM=    2.7928460   2.7928460   2.7928460   2.7928460   2.7928460   2.7928460   2.7928460   2.7928460   2.7928460   2.7928460
 AtZNuc=   1.0000000   1.0000000   1.0000000   1.0000000   1.0000000   1.0000000   1.0000000   1.0000000   1.0000000   1.0000000

  Atom        41          42          43          44          45          46
 IAtWgt=           1           1           1           1           1           1
 AtmWgt=   1.0078250   1.0078250   1.0078250   1.0078250   1.0078250   1.0078250
 NucSpn=           1           1           1           1           1           1
 AtZEff=  -0.0000000  -0.0000000  -0.0000000  -0.0000000  -0.0000000  -0.0000000
 NQMom=    0.0000000   0.0000000   0.0000000   0.0000000   0.0000000   0.0000000
 NMagM=    2.7928460   2.7928460   2.7928460   2.7928460   2.7928460   2.7928460
 AtZNuc=   1.0000000   1.0000000   1.0000000   1.0000000   1.0000000   1.0000000
 Leave Link  101 at Thu Dec  8 09:05:16 2022, MaxMem=  4194304000 cpu:               1.0 elap:               0.1
 (Enter /software/gaussian/G16-A.03/avx/g16/l103.exe)

 GradGradGradGradGradGradGradGradGradGradGradGradGradGradGradGradGradGrad
 Berny optimization.
 Initialization pass.
 Trust Radius=3.00D-01 FncErr=1.00D-07 GrdErr=1.00D-07 EigMax=2.50D+02 EigMin=1.00D-04
 Number of steps in this run=      2 maximum allowed number of steps=      2.
 GradGradGradGradGradGradGradGradGradGradGradGradGradGradGradGradGradGrad

 Leave Link  103 at Thu Dec  8 09:05:16 2022, MaxMem=  4194304000 cpu:               0.2 elap:               0.0
 (Enter /software/gaussian/G16-A.03/avx/g16/l202.exe)
                          Input orientation:                          
 ---------------------------------------------------------------------
 Center     Atomic      Atomic             Coordinates (Angstroms)
 Number     Number       Type             X           Y           Z
 ---------------------------------------------------------------------
      1          6           0       -0.569720    2.622830    0.526340
      2          1           0       -0.075940    2.551760    1.514960
      3          6           0        0.569730    2.622730   -0.526950
      4          1           0        0.075970    2.551830   -1.515590
      5          6           0        1.393100    3.902960   -0.458110
      6          6           0        0.528620    5.152330   -0.546810
      7          6           0       -0.528160    5.152420    0.546290
      8          6           0       -1.392860    3.903210    0.457570
      9          7           0        1.324640    1.390720   -0.401730
     10          6           0        2.594340    1.340930   -0.356580
     11          6           0        3.336110    0.078410   -0.285150
     12          6           0        2.812670   -1.106170   -0.822910
     13          6           0        3.521470   -2.292690   -0.713760
     14          6           0        4.766710   -2.308380   -0.066440
     15          6           0        5.305650   -1.121060    0.450970
     16          6           0        4.596080    0.064670    0.326230
     17          6           0        5.500020   -3.532990    0.050640
     18          7           0        6.097860   -4.521770    0.144620
     19          7           0       -1.324850    1.391000    0.401110
     20          6           0       -2.594550    1.341310    0.356060
     21          6           0       -3.336290    0.078750    0.284800
     22          6           0       -2.812940   -1.105520    0.823350
     23          6           0       -3.521520   -2.292180    0.714390
     24          6           0       -4.766430   -2.308320    0.066460
     25          6           0       -5.305290   -1.121300   -0.451740
     26          6           0       -4.595950    0.064590   -0.327180
     27          6           0       -5.499530   -3.533080   -0.050470
     28          7           0       -6.097220   -4.521970   -0.144310
     29          1           0        2.140410    3.902190   -1.267500
     30          1           0        1.951720    3.917720    0.495080
     31          1           0        0.037650    5.192840   -1.534990
     32          1           0        1.162980    6.049290   -0.477480
     33          1           0       -1.162360    6.049500    0.476980
     34          1           0       -0.037190    5.192820    1.534480
     35          1           0       -1.951520    3.918110   -0.495600
     36          1           0       -2.140150    3.902520    1.266980
     37          1           0        3.205210    2.257680   -0.362010
     38          1           0        1.860370   -1.089980   -1.364740
     39          1           0        3.117260   -3.214890   -1.134020
     40          1           0        6.278010   -1.138950    0.945460
     41          1           0        5.014640    0.990580    0.728820
     42          1           0       -3.205370    2.258100    0.361530
     43          1           0       -1.860880   -1.088920    1.365570
     44          1           0       -3.117400   -3.214160    1.135230
     45          1           0       -6.277400   -1.139550   -0.946720
     46          1           0       -5.014440    0.990260   -0.730390
 ---------------------------------------------------------------------
                    Distance matrix (angstroms):
                    1          2          3          4          5
     1  C    0.000000
     2  H    1.107357   0.000000
     3  C    1.551698   2.142737   0.000000
     4  H    2.142763   3.034355   1.107355   0.000000
     5  C    2.541759   2.806568   1.523701   2.163018   0.000000
     6  C    2.959117   3.373330   2.530012   2.811766   1.521880
     7  C    2.530010   2.811807   2.959145   3.373335   2.502241
     8  C    1.523700   2.163046   2.541784   2.806608   2.932583
     9  N    2.442951   2.642601   1.450316   2.036673   2.513805
    10  C    3.526201   3.478386   2.402308   3.025189   2.831481
    11  C    4.731606   4.582569   3.766283   4.273207   4.293295
    12  C    5.212147   5.214418   4.361544   4.620638   5.219161
    13  C    6.514447   6.432515   5.736638   5.998648   6.556020
    14  C    7.290110   7.040813   6.491730   6.908308   7.079223
    15  C    6.967235   6.601757   6.115654   6.686332   6.432360
    16  C    5.767991   5.424617   4.845935   5.478107   5.060310
    17  C    8.658069   8.382109   7.907861   8.300508   8.509934
    18  N    9.779961   9.488333   9.058427   9.436910   9.668202
    19  N    1.450279   2.036615   2.442926   2.642643   3.799402
    20  C    2.402337   3.025167   3.526246   3.478521   4.808979
    21  C    3.766244   4.273050   4.731571   4.582690   6.127285
    22  C    4.361289   4.620086   5.212064   5.214657   6.664667
    23  C    5.736359   5.998057   6.514261   6.432665   7.994248
    24  C    6.491541   6.907910   7.289855   7.040794   8.763275
    25  C    6.115617   6.686208   6.967014   6.601638   8.373270
    26  C    4.845990   5.478137   5.767863   5.424529   7.114699
    27  C    7.907652   8.300071   8.657768   8.382059  10.147375
    28  N    9.058211   9.436453   9.779641   9.488273  11.277536
    29  H    3.492768   3.804990   2.156958   2.479301   1.101628
    30  H    2.834674   2.649039   2.152078   3.070324   1.104919
    31  H    3.350064   4.036137   2.811533   2.641359   2.158867
    32  H    3.968694   4.211586   3.477888   3.806769   2.158718
    33  H    3.477891   3.806822   3.968723   4.211590   3.465891
    34  H    2.811545   2.641416   3.350106   4.036157   2.771260
    35  H    2.152088   3.070352   2.834730   2.649116   3.344864
    36  H    2.156943   2.479316   3.492778   3.805029   3.931894
    37  H    3.895202   3.791496   2.665750   3.348046   2.449474
    38  H    4.823534   5.030332   4.018938   4.058278   5.096054
    39  H    7.101380   7.104074   6.398144   6.530704   7.354820
    40  H    7.824197   7.370098   6.993046   7.625216   7.159135
    41  H    5.821539   5.382314   4.898785   5.644939   4.796490
    42  H    2.665866   3.348129   3.895347   3.791708   4.952101
    43  H    4.018518   4.057447   4.823468   5.030659   6.231618
    44  H    6.397802   6.529970   7.101201   7.104301   8.575357
    45  H    6.993069   7.625205   7.823947   7.369885   9.192509
    46  H    4.898999   5.645233   5.821452   5.382129   7.043758
                    6          7          8          9         10
     6  C    0.000000
     7  C    1.520412   0.000000
     8  C    2.502232   1.521875   0.000000
     9  N    3.847649   4.299069   3.799448   0.000000
    10  C    4.339373   5.009255   4.808938   1.271478   0.000000
    11  C    5.804751   6.431909   6.127307   2.404529   1.466043
    12  C    6.667979   7.225358   6.664833   2.937020   2.500686
    13  C    8.025793   8.568366   7.994487   4.300109   3.767007
    14  C    8.593856   9.169222   8.763489   5.063952   4.256858
    15  C    7.948019   8.567320   8.373373   4.783783   3.750298
    16  C    6.571964   7.224366   7.114706   3.604255   2.470229
    17  C   10.025295  10.583996  10.147633   6.471581   5.688928
    18  N   11.184039  11.732665  11.277815   7.618377   6.848146
    19  N    4.299012   3.847606   2.513765   2.768456   3.992074
    20  C    5.009315   4.339437   2.831553   3.992084   5.237598
    21  C    6.431976   5.804834   4.293398   4.890486   6.097281
    22  C    7.225237   6.667743   5.218984   4.985138   6.051118
    23  C    8.568255   8.025617   6.555914   6.188275   7.193762
    24  C    9.169240   8.593940   7.079339   7.141655   8.226599
    25  C    8.567495   7.948371   6.432702   7.090044   8.275010
    26  C    7.224580   6.572357   5.060694   6.067748   7.302751
    27  C   10.584011  10.025395   8.510068   8.422380   9.453063
    28  N   11.732683  11.184149   9.668346   9.492638  10.486271
    29  H    2.163356   3.460372   3.931903   2.778942   2.756062
    30  H    2.152907   2.770724   3.344822   2.753766   2.788930
    31  H    1.104170   2.157198   2.771245   4.170940   4.771009
    32  H    1.100798   2.170814   3.465876   4.661990   4.922607
    33  H    2.170823   1.100802   2.158719   5.353647   6.080974
    34  H    2.157208   1.104175   2.158859   4.478778   5.033698
    35  H    2.770743   2.152907   1.104924   4.138809   5.227430
    36  H    3.460375   2.163367   1.101629   4.593311   5.622552
    37  H    3.946807   4.810674   4.951942   2.071169   1.101645
    38  H    6.434983   6.951595   6.231875   2.714455   2.732109
    39  H    8.778169   9.280324   8.575645   4.996136   4.651167
    40  H    8.652315   9.277102   9.192587   5.722764   4.627584
    41  H    6.250742   6.933748   7.043653   3.879994   2.675573
    42  H    4.810855   3.946983   2.449654   4.675030   5.915532
    43  H    6.951267   6.434414   5.095573   4.406756   5.359007
    44  H    9.280133   8.777851   7.354605   6.580189   7.456428
    45  H    9.277370   8.652845   7.159622   8.030585   9.230862
    46  H    6.934122   6.251416   4.797121   6.360214   7.626024
                   11         12         13         14         15
    11  C    0.000000
    12  C    1.402286   0.000000
    13  C    2.416646   1.386413   0.000000
    14  C    2.791275   2.415746   1.403528   0.000000
    15  C    2.420679   2.799632   2.431586   1.402818   0.000000
    16  C    1.400535   2.423209   2.791686   2.411363   1.387446
    17  C    4.223443   3.724835   2.457094   1.432174   2.452641
    18  N    5.382715   4.836829   3.513317   2.591448   3.505178
    19  N    4.890643   4.985294   6.188645   7.142207   7.090590
    20  C    6.097442   6.051294   7.194176   8.227204   8.275593
    21  C    6.696698   6.359305   7.324597   8.454606   8.726413
    22  C    6.359346   5.861541   6.625468   7.725910   8.127140
    23  C    7.324334   6.625094   7.186329   8.324945   8.908414
    24  C    8.454068   7.725212   8.324558   9.534066  10.149100
    25  C    8.725872   8.126455   8.908002  10.149029  10.649269
    26  C    7.932183   7.516919   8.461603   9.662214  10.002648
    27  C    9.548113   8.693631   9.130003  10.339044  11.082473
    28  N   10.496240   9.566312   9.890054  11.087426  11.914109
    29  H    4.125046   5.072796   6.371067   6.849173   6.181013
    30  H    4.155189   5.264770   6.518788   6.855931   6.053106
    31  H    6.212836   6.919922   8.297263   8.988267   8.459385
    32  H    6.356956   7.351286   8.672193   9.110789   8.332926
    33  H    7.514718   8.288196   9.640968  10.261741   9.656747
    34  H    6.391197   7.304537   8.587870   9.050326   8.341763
    35  H    6.538090   6.931668   8.281017   9.169949   8.885705
    36  H    6.857284   7.347451   8.623103   9.383923   9.018989
    37  H    2.184550   3.417895   4.574890   4.834723   4.060624
    38  H    2.169898   1.095772   2.151636   3.408356   3.894576
    39  H    3.407976   2.153199   1.091081   2.163833   3.418387
    40  H    3.413377   3.890603   3.417988   2.162299   1.091020
    41  H    2.162788   3.413634   3.884644   3.402506   2.149630
    42  H    6.925331   6.995571   8.192455   9.197280   9.157739
    43  H    5.576400   5.160602   5.894266   6.889317   7.224727
    44  H    7.382837   6.591181   6.952875   8.026434   8.706150
    45  H    9.712913   9.090974   9.869238  11.140620  11.667087
    46  H    8.411979   8.103532   9.145480  10.343730  10.599884
                   16         17         18         19         20
    16  C    0.000000
    17  C    3.719706   0.000000
    18  N    4.829468   1.159280   0.000000
    19  N    6.068127   8.423025   9.493327   0.000000
    20  C    7.303140   9.453790  10.487059   1.271470   0.000000
    21  C    7.932491   9.548815  10.497029   2.404458   1.466054
    22  C    7.517317   8.694538   9.567330   2.936888   2.500606
    23  C    8.461728   9.130627   9.890813   4.299921   3.766951
    24  C    9.662047  10.339249  11.087753   5.063737   4.256845
    25  C   10.002444  11.082570  11.914305   4.783608   3.750347
    26  C    9.215224  10.724455  11.645380   3.604146   2.470310
    27  C   10.724134  11.000015  11.641092   6.471355   5.688924
    28  N   11.644971  11.640965  12.198502   7.618150   6.848147
    29  H    4.826681   8.264767   9.413745   4.593295   5.622624
    30  H    4.676232   8.264444   9.409479   4.138726   5.227407
    31  H    7.109258  10.415941  11.572419   4.478714   5.033769
    32  H    6.946064  10.531330  11.682780   5.353586   6.081028
    33  H    8.306657  11.678749  12.828601   4.661950   4.922687
    34  H    7.016052  10.440414  11.573410   4.170903   4.771047
    35  H    7.641693  10.551906  11.680495   2.753741   2.789034
    36  H    7.809667  10.730260  11.836096   2.778881   2.756093
    37  H    2.686538   6.242459   7.388169   4.674926   5.915452
    38  H    3.417119   4.606371   5.657886   4.406712   5.358977
    39  H    3.882622   2.679954   3.496689   6.580516   7.456814
    40  H    2.158943   2.671591   3.480987   8.031217   9.231544
    41  H    1.092969   4.599805   5.648067   6.360571   7.626384
    42  H    8.104012  10.460267  11.513634   2.071179   1.101651
    43  H    6.641034   7.866725   8.753098   2.714317   2.731922
    44  H    8.420391   8.691255   9.360137   4.995965   4.651106
    45  H   11.013769  12.059474  12.875461   5.722594   4.627665
    46  H    9.712634  11.472736  12.435085   3.879943   2.675720
                   21         22         23         24         25
    21  C    0.000000
    22  C    1.402293   0.000000
    23  C    2.416644   1.386405   0.000000
    24  C    2.791250   2.415726   1.403522   0.000000
    25  C    2.420655   2.799627   2.431595   1.402825   0.000000
    26  C    1.400523   2.423221   2.791708   2.411373   1.387449
    27  C    4.223426   3.724832   2.457105   1.432182   2.452637
    28  N    5.382703   4.836837   3.513340   2.591461   3.505171
    29  H    6.857301   7.347414   8.622967   9.383726   9.018834
    30  H    6.537963   6.931283   8.280538   9.169560   8.885515
    31  H    6.391324   7.304586   8.587952   9.050482   8.341990
    32  H    7.514775   8.288028   9.640810  10.261745   9.656943
    33  H    6.357103   7.351102   8.672118   9.111037   8.333472
    34  H    6.212847   6.919507   8.296887   8.988209   8.459673
    35  H    4.155394   5.264839   6.518948   6.856242   6.053540
    36  H    4.125124   5.072467   6.370859   6.849316   6.181495
    37  H    6.925122   6.995307   8.191994   9.196683   9.157192
    38  H    5.576037   5.160214   5.893455   6.888190   7.223658
    39  H    7.383050   6.591511   6.952799   8.025932   8.705629
    40  H    9.713600   9.091832   9.869859  11.140903  11.667276
    41  H    8.412290   8.103924   9.145641  10.343635  10.599751
    42  H    2.184627   3.417780   4.574878   4.834891   4.060963
    43  H    2.169874   1.095763   2.151649   3.408349   3.894563
    44  H    3.407991   2.153213   1.091085   2.163820   3.418391
    45  H    3.413360   3.890603   3.417999   2.162311   1.091025
    46  H    2.162787   3.413650   3.884664   3.402515   2.149634
                   26         27         28         29         30
    26  C    0.000000
    27  C    3.719712   0.000000
    28  N    4.829471   1.159285   0.000000
    29  H    7.809604  10.730009  11.835817   0.000000
    30  H    7.641643  10.551454  11.680010   1.772719   0.000000
    31  H    7.016267  10.440586  11.573597   2.481719   3.067699
    32  H    8.306895  11.678750  12.828603   2.487878   2.472160
    33  H    6.946608  10.531623  11.683100   4.308415   3.773898
    34  H    7.109628  10.415880  11.572357   3.776077   2.581084
    35  H    4.676643   8.264790   9.409845   4.164129   4.027000
    36  H    4.827215   8.264941   9.413935   4.974614   4.164068
    37  H    8.103638  10.459563  11.512873   2.158269   2.249794
    38  H    6.640304   7.865378   8.751642   5.000964   5.342690
    39  H    8.420189   8.690477   9.359200   7.185046   7.408547
    40  H   11.014133  12.059610  12.875509   6.886945   6.670048
    41  H    9.712674  11.472513  12.434790   4.552358   4.243143
    42  H    2.686917   6.242650   7.388371   5.825301   5.419202
    43  H    3.417103   4.606394   5.657928   6.917699   6.352961
    44  H    3.882648   2.679951   3.496701   9.168430   8.773225
    45  H    2.158948   2.671578   3.480961   9.817411   9.765919
    46  H    1.092967   4.599805   5.648060   7.743365   7.655010
                   31         32         33         34         35
    31  H    0.000000
    32  H    1.765843   0.000000
    33  H    2.494376   2.513603   0.000000
    34  H    3.070382   2.494380   1.765847   0.000000
    35  H    2.581098   3.773906   2.472147   3.067698   0.000000
    36  H    3.776079   4.308414   2.487910   2.481707   1.772713
    37  H    4.474872   4.308172   5.844439   4.767062   5.419109
    38  H    6.544090   7.227915   7.968752   7.174942   6.353493
    39  H    8.962963   9.490800  10.331476   9.368086   8.773813
    40  H    9.229642   8.936391  10.356273   8.962143   9.766047
    41  H    6.895959   6.471552   7.988205   6.620340   7.654869
    42  H    4.767249   5.844616   4.308356   4.475015   2.249988
    43  H    7.174829   7.968350   7.227348   6.543289   5.342520
    44  H    9.368141  10.331214   9.490567   8.962388   7.408654
    45  H    8.962426  10.356585   8.937169   9.230140   6.670583
    46  H    6.620625   7.988634   6.472416   6.896678   4.243691
                   36         37         38         39         40
    36  H    0.000000
    37  H    5.825116   0.000000
    38  H    6.917743   3.744448   0.000000
    39  H    9.168571   5.527455   2.479566   0.000000
    40  H    9.817597   4.763263   4.985475   4.315565   0.000000
    41  H    7.743386   2.463633   4.319854   4.975560   2.485545
    42  H    2.158391   6.451283   6.312794   8.495054  10.090363
    43  H    5.000218   6.312649   4.615441   5.962347   8.149879
    44  H    7.184672   8.494596   5.961559   6.634793   9.623733
    45  H    6.887654  10.089745   8.148650   9.622981  12.697191
    46  H    4.553272   8.324945   7.210604   9.163555  11.612986
                   41         42         43         44         45
    41  H    0.000000
    42  H    8.325267   0.000000
    43  H    7.211279   3.744101   0.000000
    44  H    9.163792   5.527385   2.479626   0.000000
    45  H   11.612711   4.763708   4.985469   4.315567   0.000000
    46  H   10.134680   2.464233   4.319835   4.975585   2.485550
                   46
    46  H    0.000000
 Stoichiometry    C22H20N4
 Framework group  C1[X(C22H20N4)]
 Deg. of freedom   132
 Full point group                 C1      NOp   1
 Largest Abelian subgroup         C1      NOp   1
 Largest concise Abelian subgroup C1      NOp   1
                         Standard orientation:                         
 ---------------------------------------------------------------------
 Center     Atomic      Atomic             Coordinates (Angstroms)
 Number     Number       Type             X           Y           Z
 ---------------------------------------------------------------------
      1          6           0       -0.579466    2.463756    0.516016
      2          1           0       -0.103971    2.392652    1.513557
      3          6           0        0.579185    2.463745   -0.516115
      4          1           0        0.103715    2.392879   -1.513682
      5          6           0        1.401106    3.743998   -0.432062
      6          6           0        0.538365    4.993345   -0.536603
      7          6           0       -0.538363    4.993346    0.536854
      8          6           0       -1.401242    3.744113    0.432165
      9          7           0        1.331702    1.231753   -0.377077
     10          6           0        2.600357    1.182001   -0.308558
     11          6           0        3.340728   -0.080498   -0.223545
     12          6           0        2.827317   -1.265068   -0.770911
     13          6           0        3.534026   -2.451571   -0.648787
     14          6           0        4.767137   -2.467254    0.021351
     15          6           0        5.296419   -1.279943    0.548656
     16          6           0        4.589227   -0.094229    0.410930
     17          6           0        5.498207   -3.691846    0.151852
     18          7           0        6.094247   -4.680612    0.256775
     19          7           0       -1.332121    1.231908    0.376842
     20          6           0       -2.600775    1.182180    0.308418
     21          6           0       -3.341036   -0.080401    0.223449
     22          6           0       -2.827652   -1.264681    0.771485
     23          6           0       -3.534066   -2.451358    0.649438
     24          6           0       -4.766834   -2.467505   -0.021306
     25          6           0       -5.296100   -1.280476   -0.549281
     26          6           0       -4.589213   -0.094570   -0.411622
     27          6           0       -5.497617   -3.692283   -0.151775
     28          7           0       -6.093445   -4.681187   -0.256654
     29          1           0        2.163193    3.743293   -1.227555
     30          1           0        1.942080    3.758728    0.531253
     31          1           0        0.065672    5.033889   -1.533653
     32          1           0        1.171311    5.890322   -0.455559
     33          1           0       -1.171209    5.890409    0.455922
     34          1           0       -0.065674    5.033712    1.533918
     35          1           0       -1.942257    3.759043   -0.531130
     36          1           0       -2.163309    3.743358    1.227678
     37          1           0        3.211193    2.098771   -0.302694
     38          1           0        1.885155   -1.248881   -1.330183
     39          1           0        3.137653   -3.373763   -1.076465
     40          1           0        6.259510   -1.297826    1.060965
     41          1           0        5.000273    0.831674    0.821205
     42          1           0       -3.211622    2.098950    0.302685
     43          1           0       -1.885738   -1.248078    1.331145
     44          1           0       -3.137733   -3.373346    1.077602
     45          1           0       -6.258931   -1.298733   -1.062077
     46          1           0       -5.000238    0.831107   -0.822423
 ---------------------------------------------------------------------
 Rotational constants (GHZ):           0.1819500           0.1051435           0.0681908
 Leave Link  202 at Thu Dec  8 09:05:16 2022, MaxMem=  4194304000 cpu:               0.1 elap:               0.0
 (Enter /software/gaussian/G16-A.03/avx/g16/l301.exe)
 Standard basis: def2SVP (5D, 7F)
 Ernie: Thresh=  0.10000D-02 Tol=  0.10000D-05 Strict=F.
 There are   490 symmetry adapted cartesian basis functions of A   symmetry.
 There are   464 symmetry adapted basis functions of A   symmetry.
   464 basis functions,   790 primitive gaussians,   490 cartesian basis functions
    90 alpha electrons       90 beta electrons
       nuclear repulsion energy      1961.5585911445 Hartrees.
 IExCor= 1009 DFT=T Ex+Corr=PBE1PBE ExCW=0 ScaHFX=  0.250000
 ScaDFX=  0.750000  0.750000  1.000000  1.000000 ScalE2=  1.000000  1.000000
 IRadAn=      5 IRanWt=     -1 IRanGd=            0 ICorTp=0 IEmpDi=141
 NAtoms=   46 NActive=   46 NUniq=   46 SFac= 1.00D+00 NAtFMM=   60 NAOKFM=F Big=F
 Integral buffers will be    131072 words long.
 Raffenetti 2 integral format.
 Two-electron integral symmetry is turned on.
 R6Disp:  Grimme-D3(BJ) Dispersion energy=       -0.0521659186 Hartrees.
 Nuclear repulsion after empirical dispersion term =     1961.5064252259 Hartrees.
 Leave Link  301 at Thu Dec  8 09:05:16 2022, MaxMem=  4194304000 cpu:               0.6 elap:               0.1
 (Enter /software/gaussian/G16-A.03/avx/g16/l302.exe)
 NPDir=0 NMtPBC=     1 NCelOv=     1 NCel=       1 NClECP=     1 NCelD=      1
         NCelK=      1 NCelE2=     1 NClLst=     1 CellRange=     0.0.
 One-electron integrals computed using PRISM.
 One-electron integral symmetry used in STVInt
   1 Symmetry operations used in ECPInt.
 ECPInt:  NShTT=   23436 NPrTT=   85476 LenC2=   18873 LenP2D=   45705.
 LDataN:  DoStor=T MaxTD1= 4 Len=   56
 NBasis=   464 RedAO= T EigKep=  2.80D-04  NBF=   464
 NBsUse=   464 1.00D-06 EigRej= -1.00D+00 NBFU=   464
 Precomputing XC quadrature grid using
 IXCGrd= 4 IRadAn=           5 IRanWt=          -1 IRanGd=           0 AccXCQ= 0.00D+00.
 Generated NRdTot=       0 NPtTot=           0 NUsed=           0 NTot=          32
 NSgBfM=   470   470   470   470   470 MxSgAt=    46 MxSgA2=    46.
 Leave Link  302 at Thu Dec  8 09:05:17 2022, MaxMem=  4194304000 cpu:               8.1 elap:               1.0
 (Enter /software/gaussian/G16-A.03/avx/g16/l303.exe)
 DipDrv:  MaxL=1.
 Leave Link  303 at Thu Dec  8 09:05:17 2022, MaxMem=  4194304000 cpu:               0.8 elap:               0.2
 (Enter /software/gaussian/G16-A.03/avx/g16/l401.exe)
 ExpMin= 1.22D-01 ExpMax= 1.71D+03 ExpMxC= 2.58D+02 IAcc=3 IRadAn=         5 AccDes= 0.00D+00
 Harris functional with IExCor= 1009 and IRadAn=       5 diagonalized for initial guess.
 HarFok:  IExCor= 1009 AccDes= 0.00D+00 IRadAn=         5 IDoV= 1 UseB2=F ITyADJ=14
 ICtDFT=  3500011 ScaDFX=  1.000000  1.000000  1.000000  1.000000
 FoFCou: FMM=F IPFlag=           0 FMFlag=      100000 FMFlg1=           0
         NFxFlg=           0 DoJE=T BraDBF=F KetDBF=T FulRan=T
         wScrn=  0.000000 ICntrl=       500 IOpCl=  0 I1Cent=   200000004 NGrid=           0
         NMat0=    1 NMatS0=      1 NMatT0=    0 NMatD0=    1 NMtDS0=    0 NMtDT0=    0
 Petite list used in FoFCou.
 Harris En= -1067.57572121945    
 JPrj=0 DoOrth=F DoCkMO=F.
 Leave Link  401 at Thu Dec  8 09:05:23 2022, MaxMem=  4194304000 cpu:              40.5 elap:               5.1
 (Enter /software/gaussian/G16-A.03/avx/g16/l502.exe)
 Integral symmetry usage will be decided dynamically.
 Closed shell SCF:
 Using DIIS extrapolation, IDIIS=  1040.
 NGot=  4194304000 LenX=  4193814662 LenY=  4193574072
 Requested convergence on RMS density matrix=1.00D-08 within 128 cycles.
 Requested convergence on MAX density matrix=1.00D-06.
 Requested convergence on             energy=1.00D-06.
 No special actions if energy rises.
 Fock matrices will be formed incrementally for  20 cycles.
 Integral accuracy reduced to 1.0D-05 until final iterations.

 Cycle   1  Pass 0  IDiag  1:
 FoFJK:  IHMeth= 1 ICntrl=       0 DoSepK=F KAlg= 0 I1Cent=           0 FoldK=F
 IRaf= 710000000 NMat=       1 IRICut=       1 DoRegI=T DoRafI=F ISym2E= 0 IDoP0=0 IntGTp=1.
 FoFCou: FMM=F IPFlag=           0 FMFlag=      100000 FMFlg1=           0
         NFxFlg=           0 DoJE=F BraDBF=F KetDBF=F FulRan=T
         wScrn=  0.000000 ICntrl=         0 IOpCl=  0 I1Cent=           0 NGrid=           0
         NMat0=    1 NMatS0=      1 NMatT0=    0 NMatD0=    1 NMtDS0=    0 NMtDT0=    0
 Symmetry not used in FoFCou.
 E= -1066.95902368848    
 DIIS: error= 3.43D-02 at cycle   1 NSaved=   1.
 NSaved= 1 IEnMin= 1 EnMin= -1066.95902368848     IErMin= 1 ErrMin= 3.43D-02
 ErrMax= 3.43D-02  0.00D+00 EMaxC= 1.00D-01 BMatC= 3.64D-01 BMatP= 3.64D-01
 IDIUse=3 WtCom= 6.57D-01 WtEn= 3.43D-01
 Coeff-Com:  0.100D+01
 Coeff-En:   0.100D+01
 Coeff:      0.100D+01
 Gap=     0.155 Goal=   None    Shift=    0.000
 GapD=    0.155 DampG=1.000 DampE=0.500 DampFc=0.5000 IDamp=-1.
 Damping current iteration by 5.00D-01
 RMSDP=3.71D-03 MaxDP=1.21D-01              OVMax= 1.43D-01

 Cycle   2  Pass 0  IDiag  1:
 RMSU=  1.77D-03    CP:  9.65D-01
 E= -1067.13478462851     Delta-E=       -0.175760940027 Rises=F Damp=T
 DIIS: error= 6.11D-03 at cycle   2 NSaved=   2.
 NSaved= 2 IEnMin= 2 EnMin= -1067.13478462851     IErMin= 2 ErrMin= 6.11D-03
 ErrMax= 6.11D-03  0.00D+00 EMaxC= 1.00D-01 BMatC= 3.78D-02 BMatP= 3.64D-01
 IDIUse=3 WtCom= 9.39D-01 WtEn= 6.11D-02
 Coeff-Com:  0.806D-01 0.919D+00
 Coeff-En:   0.960D-01 0.904D+00
 Coeff:      0.815D-01 0.918D+00
 Gap=     0.191 Goal=   None    Shift=    0.000
 RMSDP=1.26D-03 MaxDP=4.92D-02 DE=-1.76D-01 OVMax= 1.28D-01

 Cycle   3  Pass 0  IDiag  1:
 RMSU=  1.19D-03    CP:  9.46D-01  1.14D+00
 E= -1067.30917514210     Delta-E=       -0.174390513595 Rises=F Damp=F
 DIIS: error= 1.17D-02 at cycle   3 NSaved=   3.
 NSaved= 3 IEnMin= 3 EnMin= -1067.30917514210     IErMin= 2 ErrMin= 6.11D-03
 ErrMax= 1.17D-02  0.00D+00 EMaxC= 1.00D-01 BMatC= 6.05D-02 BMatP= 3.78D-02
 IDIUse=2 WtCom= 0.00D+00 WtEn= 1.00D+00
 Coeff-En:   0.000D+00 0.000D+00 0.100D+01
 Coeff:      0.000D+00 0.000D+00 0.100D+01
 Gap=     0.146 Goal=   None    Shift=    0.000
 RMSDP=1.51D-03 MaxDP=9.74D-02 DE=-1.74D-01 OVMax= 1.78D-01

 Cycle   4  Pass 0  IDiag  1:
 RMSU=  1.06D-03    CP:  9.52D-01  1.34D+00  1.54D-01
 E= -1067.03920143397     Delta-E=        0.269973708136 Rises=F Damp=F
 DIIS: error= 2.83D-02 at cycle   4 NSaved=   4.
 NSaved= 4 IEnMin= 3 EnMin= -1067.30917514210     IErMin= 2 ErrMin= 6.11D-03
 ErrMax= 2.83D-02  0.00D+00 EMaxC= 1.00D-01 BMatC= 3.51D-01 BMatP= 3.78D-02
 IDIUse=2 WtCom= 0.00D+00 WtEn= 1.00D+00
 Coeff-En:   0.000D+00 0.000D+00 0.792D+00 0.208D+00
 Coeff:      0.000D+00 0.000D+00 0.792D+00 0.208D+00
 Gap=     0.166 Goal=   None    Shift=    0.000
 RMSDP=7.81D-04 MaxDP=5.07D-02 DE= 2.70D-01 OVMax= 9.18D-02

 Cycle   5  Pass 0  IDiag  1:
 RMSU=  1.65D-04    CP:  9.49D-01  1.21D+00  5.59D-01  4.82D-01
 E= -1067.34062464061     Delta-E=       -0.301423206645 Rises=F Damp=F
 DIIS: error= 7.65D-03 at cycle   5 NSaved=   5.
 NSaved= 5 IEnMin= 5 EnMin= -1067.34062464061     IErMin= 2 ErrMin= 6.11D-03
 ErrMax= 7.65D-03  0.00D+00 EMaxC= 1.00D-01 BMatC= 2.79D-02 BMatP= 3.78D-02
 IDIUse=3 WtCom= 9.23D-01 WtEn= 7.65D-02
 Coeff-Com:  0.605D-02 0.168D-03 0.316D+00-0.830D-01 0.761D+00
 Coeff-En:   0.000D+00 0.000D+00 0.358D+00 0.000D+00 0.642D+00
 Coeff:      0.559D-02 0.155D-03 0.319D+00-0.767D-01 0.752D+00
 Gap=     0.177 Goal=   None    Shift=    0.000
 RMSDP=3.17D-04 MaxDP=1.86D-02 DE=-3.01D-01 OVMax= 3.34D-02

 Cycle   6  Pass 0  IDiag  1:
 RMSU=  4.73D-05    CP:  9.47D-01  1.18D+00  7.41D-01  2.81D-01  8.97D-01
 E= -1067.36650819837     Delta-E=       -0.025883557753 Rises=F Damp=F
 DIIS: error= 3.58D-04 at cycle   6 NSaved=   6.
 NSaved= 6 IEnMin= 6 EnMin= -1067.36650819837     IErMin= 6 ErrMin= 3.58D-04
 ErrMax= 3.58D-04  0.00D+00 EMaxC= 1.00D-01 BMatC= 7.69D-05 BMatP= 2.79D-02
 IDIUse=3 WtCom= 9.96D-01 WtEn= 3.58D-03
 Coeff-Com:  0.259D-02-0.324D-02 0.160D+00-0.607D-01 0.458D+00 0.443D+00
 Coeff-En:   0.000D+00 0.000D+00 0.000D+00 0.000D+00 0.000D+00 0.100D+01
 Coeff:      0.258D-02-0.323D-02 0.160D+00-0.605D-01 0.456D+00 0.445D+00
 Gap=     0.175 Goal=   None    Shift=    0.000
 RMSDP=2.62D-05 MaxDP=1.55D-03 DE=-2.59D-02 OVMax= 2.49D-03

 Cycle   7  Pass 0  IDiag  1:
 RMSU=  1.54D-05    CP:  9.47D-01  1.18D+00  7.37D-01  2.87D-01  8.98D-01
                    CP:  5.96D-01
 E= -1067.36657684957     Delta-E=       -0.000068651201 Rises=F Damp=F
 DIIS: error= 1.15D-04 at cycle   7 NSaved=   7.
 NSaved= 7 IEnMin= 7 EnMin= -1067.36657684957     IErMin= 7 ErrMin= 1.15D-04
 ErrMax= 1.15D-04  0.00D+00 EMaxC= 1.00D-01 BMatC= 9.01D-06 BMatP= 7.69D-05
 IDIUse=3 WtCom= 9.99D-01 WtEn= 1.15D-03
 Coeff-Com:  0.915D-03-0.171D-02 0.613D-01-0.285D-01 0.191D+00 0.271D+00
 Coeff-Com:  0.506D+00
 Coeff-En:   0.000D+00 0.000D+00 0.000D+00 0.000D+00 0.000D+00 0.610D-01
 Coeff-En:   0.939D+00
 Coeff:      0.914D-03-0.171D-02 0.613D-01-0.284D-01 0.191D+00 0.270D+00
 Coeff:      0.507D+00
 Gap=     0.176 Goal=   None    Shift=    0.000
 RMSDP=8.80D-06 MaxDP=5.15D-04 DE=-6.87D-05 OVMax= 7.05D-04

 Initial convergence to 1.0D-05 achieved.  Increase integral accuracy.
 Cycle   8  Pass 1  IDiag  1:
 E= -1067.36649089321     Delta-E=        0.000085956357 Rises=F Damp=F
 DIIS: error= 1.37D-04 at cycle   1 NSaved=   1.
 NSaved= 1 IEnMin= 1 EnMin= -1067.36649089321     IErMin= 1 ErrMin= 1.37D-04
 ErrMax= 1.37D-04  0.00D+00 EMaxC= 1.00D-01 BMatC= 4.75D-06 BMatP= 4.75D-06
 IDIUse=3 WtCom= 9.99D-01 WtEn= 1.37D-03
 Coeff-Com:  0.100D+01
 Coeff-En:   0.100D+01
 Coeff:      0.100D+01
 Gap=     0.176 Goal=   None    Shift=    0.000
 RMSDP=8.80D-06 MaxDP=5.15D-04 DE= 8.60D-05 OVMax= 4.32D-04

 Cycle   9  Pass 1  IDiag  1:
 RMSU=  1.06D-04    CP:  1.00D+00
 E= -1067.36649317134     Delta-E=       -0.000002278133 Rises=F Damp=F
 DIIS: error= 7.73D-05 at cycle   2 NSaved=   2.
 NSaved= 2 IEnMin= 2 EnMin= -1067.36649317134     IErMin= 2 ErrMin= 7.73D-05
 ErrMax= 7.73D-05  0.00D+00 EMaxC= 1.00D-01 BMatC= 3.13D-06 BMatP= 4.75D-06
 IDIUse=1 WtCom= 1.00D+00 WtEn= 0.00D+00
 Coeff-Com:  0.424D+00 0.576D+00
 Coeff:      0.424D+00 0.576D+00
 Gap=     0.176 Goal=   None    Shift=    0.000
 RMSDP=6.22D-06 MaxDP=3.59D-04 DE=-2.28D-06 OVMax= 6.24D-04

 Cycle  10  Pass 1  IDiag  1:
 RMSU=  6.19D-06    CP:  1.00D+00  1.01D+00
 E= -1067.36649374061     Delta-E=       -0.000000569267 Rises=F Damp=F
 DIIS: error= 7.23D-05 at cycle   3 NSaved=   3.
 NSaved= 3 IEnMin= 3 EnMin= -1067.36649374061     IErMin= 3 ErrMin= 7.23D-05
 ErrMax= 7.23D-05  0.00D+00 EMaxC= 1.00D-01 BMatC= 2.53D-06 BMatP= 3.13D-06
 IDIUse=1 WtCom= 1.00D+00 WtEn= 0.00D+00
 Coeff-Com:  0.267D-01 0.467D+00 0.506D+00
 Coeff:      0.267D-01 0.467D+00 0.506D+00
 Gap=     0.176 Goal=   None    Shift=    0.000
 RMSDP=3.02D-06 MaxDP=2.11D-04 DE=-5.69D-07 OVMax= 3.67D-04

 Cycle  11  Pass 1  IDiag  1:
 RMSU=  1.38D-06    CP:  1.00D+00  1.01D+00  5.84D-01
 E= -1067.36649592351     Delta-E=       -0.000002182904 Rises=F Damp=F
 DIIS: error= 1.30D-05 at cycle   4 NSaved=   4.
 NSaved= 4 IEnMin= 4 EnMin= -1067.36649592351     IErMin= 4 ErrMin= 1.30D-05
 ErrMax= 1.30D-05  0.00D+00 EMaxC= 1.00D-01 BMatC= 1.29D-07 BMatP= 2.53D-06
 IDIUse=1 WtCom= 1.00D+00 WtEn= 0.00D+00
 Coeff-Com: -0.463D-02 0.267D+00 0.321D+00 0.416D+00
 Coeff:     -0.463D-02 0.267D+00 0.321D+00 0.416D+00
 Gap=     0.176 Goal=   None    Shift=    0.000
 RMSDP=7.98D-07 MaxDP=3.54D-05 DE=-2.18D-06 OVMax= 5.42D-05

 Cycle  12  Pass 1  IDiag  1:
 RMSU=  3.00D-07    CP:  1.00D+00  1.01D+00  5.64D-01  4.79D-01
 E= -1067.36649603995     Delta-E=       -0.000000116433 Rises=F Damp=F
 DIIS: error= 1.43D-06 at cycle   5 NSaved=   5.
 NSaved= 5 IEnMin= 5 EnMin= -1067.36649603995     IErMin= 5 ErrMin= 1.43D-06
 ErrMax= 1.43D-06  0.00D+00 EMaxC= 1.00D-01 BMatC= 1.63D-09 BMatP= 1.29D-07
 IDIUse=1 WtCom= 1.00D+00 WtEn= 0.00D+00
 Coeff-Com: -0.313D-02 0.157D+00 0.189D+00 0.255D+00 0.403D+00
 Coeff:     -0.313D-02 0.157D+00 0.189D+00 0.255D+00 0.403D+00
 Gap=     0.176 Goal=   None    Shift=    0.000
 RMSDP=1.07D-07 MaxDP=6.53D-06 DE=-1.16D-07 OVMax= 1.13D-05

 Cycle  13  Pass 1  IDiag  1:
 RMSU=  9.62D-08    CP:  1.00D+00  1.01D+00  5.67D-01  4.81D-01  8.61D-01
 E= -1067.36649604135     Delta-E=       -0.000000001402 Rises=F Damp=F
 DIIS: error= 4.32D-07 at cycle   6 NSaved=   6.
 NSaved= 6 IEnMin= 6 EnMin= -1067.36649604135     IErMin= 6 ErrMin= 4.32D-07
 ErrMax= 4.32D-07  0.00D+00 EMaxC= 1.00D-01 BMatC= 1.08D-10 BMatP= 1.63D-09
 IDIUse=1 WtCom= 1.00D+00 WtEn= 0.00D+00
 Coeff-Com: -0.129D-02 0.606D-01 0.733D-01 0.101D+00 0.234D+00 0.532D+00
 Coeff:     -0.129D-02 0.606D-01 0.733D-01 0.101D+00 0.234D+00 0.532D+00
 Gap=     0.176 Goal=   None    Shift=    0.000
 RMSDP=3.41D-08 MaxDP=1.78D-06 DE=-1.40D-09 OVMax= 3.02D-06

 Cycle  14  Pass 1  IDiag  1:
 RMSU=  2.73D-08    CP:  1.00D+00  1.01D+00  5.66D-01  4.85D-01  8.75D-01
                    CP:  8.01D-01
 E= -1067.36649604148     Delta-E=       -0.000000000129 Rises=F Damp=F
 DIIS: error= 8.48D-08 at cycle   7 NSaved=   7.
 NSaved= 7 IEnMin= 7 EnMin= -1067.36649604148     IErMin= 7 ErrMin= 8.48D-08
 ErrMax= 8.48D-08  0.00D+00 EMaxC= 1.00D-01 BMatC= 7.78D-12 BMatP= 1.08D-10
 IDIUse=1 WtCom= 1.00D+00 WtEn= 0.00D+00
 Coeff-Com: -0.150D-03 0.558D-02 0.691D-02 0.107D-01 0.437D-01 0.247D+00
 Coeff-Com:  0.686D+00
 Coeff:     -0.150D-03 0.558D-02 0.691D-02 0.107D-01 0.437D-01 0.247D+00
 Coeff:      0.686D+00
 Gap=     0.176 Goal=   None    Shift=    0.000
 RMSDP=9.97D-09 MaxDP=2.91D-07 DE=-1.29D-10 OVMax= 5.68D-07

 SCF Done:  E(RPBE1PBE) =  -1067.36649604     A.U. after   14 cycles
            NFock= 14  Conv=0.10D-07     -V/T= 2.0102
 KE= 1.056547206560D+03 PE=-6.395754586726D+03 EE= 2.310334458899D+03
 Leave Link  502 at Thu Dec  8 09:07:26 2022, MaxMem=  4194304000 cpu:             984.8 elap:             123.1
 (Enter /software/gaussian/G16-A.03/avx/g16/l801.exe)
 DoSCS=F DFT=T ScalE2(SS,OS)=  1.000000  1.000000
 Range of M.O.s used for correlation:     1   464
 NBasis=   464 NAE=    90 NBE=    90 NFC=     0 NFV=     0
 NROrb=    464 NOA=    90 NOB=    90 NVA=   374 NVB=   374

 **** Warning!!: The largest alpha MO coefficient is  0.10516238D+02

 Leave Link  801 at Thu Dec  8 09:07:26 2022, MaxMem=  4194304000 cpu:               0.2 elap:               0.0
 (Enter /software/gaussian/G16-A.03/avx/g16/l1101.exe)
 Using compressed storage, NAtomX=    46.
 Will process     47 centers per pass.
   1 Symmetry operations used in ECPInt.
 ECPInt:  NShTT=   23436 NPrTT=   85476 LenC2=   18873 LenP2D=   45705.
 LDataN:  DoStor=T MaxTD1= 5 Len=  102
 R6Disp: Adding Grimme-D3(BJ) dispersion energy 1st derivatives to the gradient.
 Leave Link 1101 at Thu Dec  8 09:07:27 2022, MaxMem=  4194304000 cpu:              10.2 elap:               1.3
 (Enter /software/gaussian/G16-A.03/avx/g16/l1102.exe)
 Symmetrizing basis deriv contribution to polar:
 IMax=3 JMax=2 DiffMx= 0.00D+00
 Leave Link 1102 at Thu Dec  8 09:07:27 2022, MaxMem=  4194304000 cpu:               0.6 elap:               0.1
 (Enter /software/gaussian/G16-A.03/avx/g16/l1110.exe)
 Forming Gx(P) for the SCF density, NAtomX=    46.
 Integral derivatives from FoFJK, PRISM(SPDF).
 Do as many integral derivatives as possible in FoFJK.
 G2DrvN: MDV=    4194300552.
 G2DrvN: will do    47 centers at a time, making    1 passes.
 Calling FoFCou, ICntrl=  3107 FMM=F I1Cent=   0 AccDes= 0.00D+00.
 FoFJK:  IHMeth= 1 ICntrl=    3107 DoSepK=F KAlg= 0 I1Cent=           0 FoldK=F
 IRaf=         0 NMat=       1 IRICut=       1 DoRegI=T DoRafI=F ISym2E= 0 IDoP0=0 IntGTp=1.
 FoFCou: FMM=F IPFlag=           0 FMFlag=      100000 FMFlg1=           0
         NFxFlg=           0 DoJE=F BraDBF=F KetDBF=F FulRan=T
         wScrn=  0.000000 ICntrl=      3107 IOpCl=  0 I1Cent=           0 NGrid=           0
         NMat0=    1 NMatS0=      1 NMatT0=    0 NMatD0=    1 NMtDS0=    0 NMtDT0=    0
 Symmetry not used in FoFCou.
 End of G2Drv F.D. properties file   721 does not exist.
 End of G2Drv F.D. properties file   722 does not exist.
 End of G2Drv F.D. properties file   788 does not exist.
 Leave Link 1110 at Thu Dec  8 09:14:58 2022, MaxMem=  4194304000 cpu:            3602.2 elap:             450.3
 (Enter /software/gaussian/G16-A.03/avx/g16/l1002.exe)
 Minotr:  Closed shell wavefunction.
          IDoAtm=1111111111111111111111111111111111111111111111
          Direct CPHF calculation.
          Differentiating once with respect to electric field.
                with respect to dipole field.
          Differentiating once with respect to nuclear coordinates.
          Requested convergence is 1.0D-08 RMS, and 1.0D-07 maximum.
          Secondary convergence is 1.0D-12 RMS, and 1.0D-12 maximum.
          NewPWx=T KeepS1=F KeepF1=F KeepIn=T MapXYZ=F SortEE=F KeepMc=T.
        13975 words used for storage of precomputed grid.
 Two-electron integrals replicated using symmetry.
          MDV=    4194304000 using IRadAn=       1.
          Solving linear equations simultaneously, MaxMat=     384.
 FoF2E skips out because all densities are zero.
 CalDSu exits because no D1Ps are significant.
 FoFJK:  IHMeth= 1 ICntrl=       0 DoSepK=F KAlg= 0 I1Cent=           0 FoldK=F
 IRaf= 670000000 NMat=     138 IRICut=     345 DoRegI=T DoRafI=T ISym2E= 2 IDoP0=3 IntGTp=3.
 FoFCou: FMM=F IPFlag=           0 FMFlag=      100000 FMFlg1=           0
         NFxFlg=           0 DoJE=F BraDBF=F KetDBF=F FulRan=T
         wScrn=  0.000000 ICntrl=         0 IOpCl=  0 I1Cent=           0 NGrid=           0
         NMat0=  138 NMatS0=    138 NMatT0=    0 NMatD0=  138 NMtDS0=    0 NMtDT0=    0
 Integrals replicated using symmetry in FoFCou.
 Raff kept on since  60.94% of shell-pairs survive, threshold=   0.20 IRatSp=61.
          There are   141 degrees of freedom in the 1st order CPHF.  IDoFFX=6 NUNeed=     3.
    138 vectors produced by pass  0 Test12= 3.37D-14 1.00D-09 XBig12= 3.82D+02 9.78D+00.
 AX will form   138 AO Fock derivatives at one time.
    138 vectors produced by pass  1 Test12= 3.37D-14 1.00D-09 XBig12= 8.60D+01 2.10D+00.
    138 vectors produced by pass  2 Test12= 3.37D-14 1.00D-09 XBig12= 2.14D+00 1.59D-01.
    138 vectors produced by pass  3 Test12= 3.37D-14 1.00D-09 XBig12= 1.72D-02 1.19D-02.
    138 vectors produced by pass  4 Test12= 3.37D-14 1.00D-09 XBig12= 4.24D-05 4.60D-04.
    109 vectors produced by pass  5 Test12= 3.37D-14 1.00D-09 XBig12= 5.78D-08 1.39D-05.
     30 vectors produced by pass  6 Test12= 3.37D-14 1.00D-09 XBig12= 6.68D-11 5.74D-07.
      3 vectors produced by pass  7 Test12= 3.37D-14 1.00D-09 XBig12= 7.34D-14 2.33D-08.
      2 vectors produced by pass  8 Test12= 3.37D-14 1.00D-09 XBig12= 7.10D-16 2.32D-09.
 InvSVY:  IOpt=1 It=  1 EMax= 2.49D-14
 Solved reduced A of dimension   834 with   141 vectors.
 FullF1:  Do perturbations      1 to       3.
 Isotropic polarizability for W=    0.000000      276.91 Bohr**3.
 End of Minotr F.D. properties file   721 does not exist.
 End of Minotr F.D. properties file   722 does not exist.
 End of Minotr F.D. properties file   788 does not exist.
 Leave Link 1002 at Thu Dec  8 09:30:57 2022, MaxMem=  4194304000 cpu:            7678.1 elap:             959.8
 (Enter /software/gaussian/G16-A.03/avx/g16/l601.exe)
 Copying SCF densities to generalized density rwf, IOpCl= 0 IROHF=0.

 **********************************************************************

            Population analysis using the SCF density.

 **********************************************************************

 Orbital symmetries:
       Occupied  (A) (A) (A) (A) (A) (A) (A) (A) (A) (A) (A) (A)
                 (A) (A) (A) (A) (A) (A) (A) (A) (A) (A) (A) (A)
                 (A) (A) (A) (A) (A) (A) (A) (A) (A) (A) (A) (A)
                 (A) (A) (A) (A) (A) (A) (A) (A) (A) (A) (A) (A)
                 (A) (A) (A) (A) (A) (A) (A) (A) (A) (A) (A) (A)
                 (A) (A) (A) (A) (A) (A) (A) (A) (A) (A) (A) (A)
                 (A) (A) (A) (A) (A) (A) (A) (A) (A) (A) (A) (A)
                 (A) (A) (A) (A) (A) (A)
       Virtual   (A) (A) (A) (A) (A) (A) (A) (A) (A) (A) (A) (A)
                 (A) (A) (A) (A) (A) (A) (A) (A) (A) (A) (A) (A)
                 (A) (A) (A) (A) (A) (A) (A) (A) (A) (A) (A) (A)
                 (A) (A) (A) (A) (A) (A) (A) (A) (A) (A) (A) (A)
                 (A) (A) (A) (A) (A) (A) (A) (A) (A) (A) (A) (A)
                 (A) (A) (A) (A) (A) (A) (A) (A) (A) (A) (A) (A)
                 (A) (A) (A) (A) (A) (A) (A) (A) (A) (A) (A) (A)
                 (A) (A) (A) (A) (A) (A) (A) (A) (A) (A) (A) (A)
                 (A) (A) (A) (A) (A) (A) (A) (A) (A) (A) (A) (A)
                 (A) (A) (A) (A) (A) (A) (A) (A) (A) (A) (A) (A)
                 (A) (A) (A) (A) (A) (A) (A) (A) (A) (A) (A) (A)
                 (A) (A) (A) (A) (A) (A) (A) (A) (A) (A) (A) (A)
                 (A) (A) (A) (A) (A) (A) (A) (A) (A) (A) (A) (A)
                 (A) (A) (A) (A) (A) (A) (A) (A) (A) (A) (A) (A)
                 (A) (A) (A) (A) (A) (A) (A) (A) (A) (A) (A) (A)
                 (A) (A) (A) (A) (A) (A) (A) (A) (A) (A) (A) (A)
                 (A) (A) (A) (A) (A) (A) (A) (A) (A) (A) (A) (A)
                 (A) (A) (A) (A) (A) (A) (A) (A) (A) (A) (A) (A)
                 (A) (A) (A) (A) (A) (A) (A) (A) (A) (A) (A) (A)
                 (A) (A) (A) (A) (A) (A) (A) (A) (A) (A) (A) (A)
                 (A) (A) (A) (A) (A) (A) (A) (A) (A) (A) (A) (A)
                 (A) (A) (A) (A) (A) (A) (A) (A) (A) (A) (A) (A)
                 (A) (A) (A) (A) (A) (A) (A) (A) (A) (A) (A) (A)
                 (A) (A) (A) (A) (A) (A) (A) (A) (A) (A) (A) (A)
                 (A) (A) (A) (A) (A) (A) (A) (A) (A) (A) (A) (A)
                 (A) (A) (A) (A) (A) (A) (A) (A) (A) (A) (A) (A)
                 (A) (A) (A) (A) (A) (A) (A) (A) (A) (A) (A) (A)
                 (A) (A) (A) (A) (A) (A) (A) (A) (A) (A) (A) (A)
                 (A) (A) (A) (A) (A) (A) (A) (A) (A) (A) (A) (A)
                 (A) (A) (A) (A) (A) (A) (A) (A) (A) (A) (A) (A)
                 (A) (A) (A) (A) (A) (A) (A) (A) (A) (A) (A) (A)
                 (A) (A)
 The electronic state is 1-A.
 Alpha  occ. eigenvalues --  -14.39601 -14.39599 -14.39299 -14.39299 -10.29257
 Alpha  occ. eigenvalues --  -10.29257 -10.29038 -10.29037 -10.28114 -10.28105
 Alpha  occ. eigenvalues --  -10.27631 -10.27630 -10.27252 -10.27252 -10.27069
 Alpha  occ. eigenvalues --  -10.27068 -10.27030 -10.27029 -10.26773 -10.26772
 Alpha  occ. eigenvalues --  -10.26292 -10.26291 -10.24781 -10.24779 -10.24720
 Alpha  occ. eigenvalues --  -10.24707  -0.96941  -0.94936  -0.92990  -0.92926
 Alpha  occ. eigenvalues --   -0.90533  -0.90236  -0.86404  -0.82030  -0.81835
 Alpha  occ. eigenvalues --   -0.79315  -0.79306  -0.77477  -0.77272  -0.70949
 Alpha  occ. eigenvalues --   -0.69596  -0.66081  -0.65522  -0.65259  -0.64544
 Alpha  occ. eigenvalues --   -0.60557  -0.59015  -0.58636  -0.58162  -0.57639
 Alpha  occ. eigenvalues --   -0.54559  -0.52902  -0.51418  -0.50408  -0.49646
 Alpha  occ. eigenvalues --   -0.48875  -0.48550  -0.48160  -0.47510  -0.46958
 Alpha  occ. eigenvalues --   -0.46203  -0.46164  -0.44970  -0.43583  -0.43519
 Alpha  occ. eigenvalues --   -0.42958  -0.42885  -0.40992  -0.40737  -0.39141
 Alpha  occ. eigenvalues --   -0.39095  -0.38679  -0.38274  -0.37880  -0.37551
 Alpha  occ. eigenvalues --   -0.37369  -0.37259  -0.36581  -0.35280  -0.35042
 Alpha  occ. eigenvalues --   -0.35039  -0.34833  -0.34190  -0.32476  -0.29664
 Alpha  occ. eigenvalues --   -0.29639  -0.27598  -0.27594  -0.27055  -0.25244
 Alpha virt. eigenvalues --   -0.07674  -0.07312  -0.02974  -0.02959   0.00268
 Alpha virt. eigenvalues --    0.00878   0.04065   0.04070   0.05033   0.06060
 Alpha virt. eigenvalues --    0.06338   0.06437   0.07591   0.08186   0.08838
 Alpha virt. eigenvalues --    0.09287   0.09802   0.10184   0.11353   0.12039
 Alpha virt. eigenvalues --    0.12346   0.12720   0.13151   0.13564   0.14113
 Alpha virt. eigenvalues --    0.14168   0.14776   0.15919   0.16245   0.16358
 Alpha virt. eigenvalues --    0.17579   0.17621   0.18391   0.18804   0.20198
 Alpha virt. eigenvalues --    0.20752   0.22332   0.22878   0.23192   0.23359
 Alpha virt. eigenvalues --    0.24141   0.25018   0.26081   0.26122   0.27607
 Alpha virt. eigenvalues --    0.27917   0.28193   0.28386   0.29288   0.29323
 Alpha virt. eigenvalues --    0.29451   0.30040   0.33346   0.33481   0.34766
 Alpha virt. eigenvalues --    0.35004   0.36257   0.36358   0.40294   0.40376
 Alpha virt. eigenvalues --    0.40783   0.41137   0.41545   0.41649   0.43211
 Alpha virt. eigenvalues --    0.44155   0.44449   0.44827   0.45303   0.45906
 Alpha virt. eigenvalues --    0.45982   0.46074   0.47098   0.48008   0.48675
 Alpha virt. eigenvalues --    0.49052   0.49524   0.50215   0.51216   0.53212
 Alpha virt. eigenvalues --    0.53320   0.54565   0.54634   0.54782   0.56714
 Alpha virt. eigenvalues --    0.57252   0.58426   0.58962   0.59015   0.59607
 Alpha virt. eigenvalues --    0.59790   0.59882   0.60117   0.61540   0.62492
 Alpha virt. eigenvalues --    0.62612   0.62854   0.63594   0.64007   0.64330
 Alpha virt. eigenvalues --    0.64385   0.64619   0.65497   0.65579   0.66064
 Alpha virt. eigenvalues --    0.66114   0.66556   0.66668   0.66735   0.66818
 Alpha virt. eigenvalues --    0.67351   0.67538   0.67716   0.67998   0.68515
 Alpha virt. eigenvalues --    0.68530   0.69009   0.69030   0.69550   0.70307
 Alpha virt. eigenvalues --    0.70368   0.70895   0.71169   0.71378   0.71515
 Alpha virt. eigenvalues --    0.71882   0.71952   0.72497   0.73602   0.74093
 Alpha virt. eigenvalues --    0.74170   0.74702   0.75849   0.76681   0.78267
 Alpha virt. eigenvalues --    0.78917   0.79088   0.79791   0.80530   0.83964
 Alpha virt. eigenvalues --    0.84191   0.85451   0.85505   0.86933   0.88591
 Alpha virt. eigenvalues --    0.89254   0.89389   0.89687   0.90477   0.93078
 Alpha virt. eigenvalues --    0.93295   0.93750   0.96838   0.97297   0.98635
 Alpha virt. eigenvalues --    0.98815   1.00168   1.00897   1.01388   1.02176
 Alpha virt. eigenvalues --    1.03356   1.04970   1.06475   1.07709   1.07887
 Alpha virt. eigenvalues --    1.09874   1.10820   1.13385   1.13975   1.14643
 Alpha virt. eigenvalues --    1.14948   1.18075   1.18819   1.20181   1.20970
 Alpha virt. eigenvalues --    1.21485   1.22618   1.22872   1.23196   1.23671
 Alpha virt. eigenvalues --    1.24396   1.24864   1.26626   1.26707   1.28459
 Alpha virt. eigenvalues --    1.28563   1.28949   1.28966   1.31792   1.32117
 Alpha virt. eigenvalues --    1.33733   1.33755   1.36799   1.37150   1.38710
 Alpha virt. eigenvalues --    1.38810   1.39926   1.42072   1.45597   1.46458
 Alpha virt. eigenvalues --    1.47436   1.50035   1.51293   1.51499   1.51780
 Alpha virt. eigenvalues --    1.58501   1.58508   1.61146   1.61842   1.61843
 Alpha virt. eigenvalues --    1.62843   1.65610   1.66085   1.66221   1.66381
 Alpha virt. eigenvalues --    1.68251   1.68540   1.71640   1.71847   1.72760
 Alpha virt. eigenvalues --    1.72870   1.73075   1.73784   1.73977   1.74369
 Alpha virt. eigenvalues --    1.74617   1.74697   1.75364   1.76534   1.76579
 Alpha virt. eigenvalues --    1.77766   1.77802   1.79046   1.79352   1.79722
 Alpha virt. eigenvalues --    1.79903   1.80425   1.80456   1.81022   1.82729
 Alpha virt. eigenvalues --    1.82914   1.83949   1.85178   1.85362   1.85700
 Alpha virt. eigenvalues --    1.87842   1.88401   1.88894   1.88933   1.90132
 Alpha virt. eigenvalues --    1.91627   1.91795   1.91819   1.92629   1.93807
 Alpha virt. eigenvalues --    1.94029   1.94303   1.94763   1.95119   1.96001
 Alpha virt. eigenvalues --    1.96444   1.96593   1.96615   1.97444   1.98739
 Alpha virt. eigenvalues --    1.99885   2.02367   2.02490   2.04490   2.04860
 Alpha virt. eigenvalues --    2.06110   2.06154   2.06492   2.06564   2.10416
 Alpha virt. eigenvalues --    2.11449   2.11467   2.12578   2.14305   2.14796
 Alpha virt. eigenvalues --    2.15222   2.16910   2.18565   2.18723   2.19219
 Alpha virt. eigenvalues --    2.19512   2.21001   2.23954   2.24320   2.25257
 Alpha virt. eigenvalues --    2.25441   2.27624   2.28206   2.28249   2.28540
 Alpha virt. eigenvalues --    2.28661   2.29332   2.30385   2.31360   2.32461
 Alpha virt. eigenvalues --    2.32596   2.33147   2.33904   2.33919   2.33940
 Alpha virt. eigenvalues --    2.34166   2.41538   2.41787   2.44496   2.44515
 Alpha virt. eigenvalues --    2.46384   2.46792   2.47008   2.49591   2.50062
 Alpha virt. eigenvalues --    2.52713   2.55398   2.55848   2.57298   2.59056
 Alpha virt. eigenvalues --    2.59292   2.60871   2.61871   2.63023   2.63883
 Alpha virt. eigenvalues --    2.64073   2.64384   2.65146   2.65575   2.70413
 Alpha virt. eigenvalues --    2.70453   2.70784   2.72768   2.73096   2.76328
 Alpha virt. eigenvalues --    2.76952   2.78704   2.79803   2.81344   2.84689
 Alpha virt. eigenvalues --    2.85209   2.85822   2.86884   2.87241   2.87816
 Alpha virt. eigenvalues --    2.88932   2.89927   2.90905   2.91349   2.95250
 Alpha virt. eigenvalues --    2.97303   3.00238   3.01595   3.01826   3.01832
 Alpha virt. eigenvalues --    3.02835   3.03765   3.04577   3.04762   3.09287
 Alpha virt. eigenvalues --    3.09567   3.14254   3.14449   3.14929   3.24266
 Alpha virt. eigenvalues --    3.25955   3.29866   3.32142   3.41054   3.41834
 Alpha virt. eigenvalues --    3.46603   3.47435   3.67929   3.67958
     Molecular Orbital Coefficients:
                          86        87        88        89        90
                           O         O         O         O         O
     Eigenvalues --    -0.29639  -0.27598  -0.27594  -0.27055  -0.25244
   1 1   C  1S          0.00047   0.02471   0.00656  -0.01821   0.00688
   2        2S         -0.00013  -0.05487  -0.00686   0.04587  -0.01870
   3        3S         -0.01690  -0.11320  -0.11325   0.07765   0.04604
   4        4PX        -0.00249  -0.03970  -0.04330   0.05531   0.02499
   5        4PY        -0.01091   0.13748  -0.01524  -0.04148   0.12908
   6        4PZ         0.00050   0.01740  -0.02030  -0.10572  -0.02313
   7        5PX        -0.00341   0.02745  -0.05660   0.02322   0.02581
   8        5PY        -0.00058   0.01772  -0.03572  -0.00684   0.02855
   9        5PZ         0.00325   0.03545   0.02612  -0.03486  -0.03864
  10        6D 0       -0.00011  -0.00473  -0.00188  -0.00298   0.00012
  11        6D+1       -0.00005  -0.00088  -0.00507  -0.00946  -0.00270
  12        6D-1       -0.00031  -0.00471  -0.00528  -0.00429   0.00052
  13        6D+2        0.00073  -0.01360  -0.00032   0.00479  -0.01224
  14        6D-2        0.00112  -0.00756   0.00169   0.00398  -0.01447
  15 2   H  1S         -0.00007  -0.05553  -0.05010  -0.07314  -0.03660
  16        2S          0.00232  -0.02134  -0.01345  -0.07952  -0.01677
  17        3PX         0.00004  -0.00168   0.00105   0.00211  -0.00006
  18        3PY        -0.00039   0.00134  -0.00175  -0.00168   0.00230
  19        3PZ        -0.00001   0.00321   0.00156   0.00097   0.00102
  20 3   C  1S         -0.00049   0.02447  -0.00743  -0.01820  -0.00687
  21        2S          0.00017  -0.05460   0.00882   0.04587   0.01867
  22        3S          0.01695  -0.10917   0.11720   0.07757  -0.04607
  23        4PX        -0.00254   0.03815  -0.04467  -0.05529   0.02501
  24        4PY         0.01083   0.13799   0.01034  -0.04150  -0.12903
  25        4PZ         0.00055  -0.01809  -0.01964   0.10572  -0.02317
  26        5PX        -0.00342  -0.02944  -0.05558  -0.02318   0.02581
  27        5PY         0.00057   0.01900   0.03506  -0.00687  -0.02856
  28        5PZ         0.00328  -0.03451   0.02737   0.03483  -0.03867
  29        6D 0        0.00011  -0.00466   0.00205  -0.00298  -0.00012
  30        6D+1        0.00005  -0.00070   0.00509  -0.00946   0.00270
  31        6D-1       -0.00031   0.00452  -0.00544   0.00430   0.00052
  32        6D+2       -0.00072  -0.01358   0.00080   0.00479   0.01223
  33        6D-2        0.00112   0.00762   0.00142  -0.00399  -0.01447
  34 4   H  1S          0.00008  -0.05373   0.05201  -0.07316   0.03658
  35        2S         -0.00232  -0.02086   0.01418  -0.07952   0.01676
  36        3PX         0.00004   0.00172   0.00099  -0.00211  -0.00006
  37        3PY         0.00039   0.00140   0.00170  -0.00168  -0.00230
  38        3PZ        -0.00000  -0.00315   0.00168  -0.00097   0.00101
  39 5   C  1S         -0.00051  -0.01774   0.00198   0.00601   0.01310
  40        2S          0.00099   0.03621  -0.00536  -0.01167  -0.03202
  41        3S          0.00257   0.16938  -0.03172  -0.05538  -0.04558
  42        4PX        -0.00270  -0.08193   0.02256   0.03090   0.05817
  43        4PY        -0.01075  -0.10619  -0.00240   0.02987   0.12015
  44        4PZ        -0.00069   0.00657  -0.00008  -0.00467   0.01195
  45        5PX        -0.00167  -0.08517   0.02198   0.03347   0.05087
  46        5PY        -0.00469  -0.06722   0.01288   0.01628   0.05879
  47        5PZ        -0.00091   0.01486  -0.01418   0.01400   0.01451
  48        6D 0       -0.00007  -0.00227   0.00096  -0.00017   0.00131
  49        6D+1        0.00001   0.00136   0.00117  -0.00380   0.00080
  50        6D-1        0.00009   0.00007   0.00056  -0.00267  -0.00042
  51        6D+2        0.00010  -0.00016   0.00115   0.00163  -0.00189
  52        6D-2        0.00046   0.00420   0.00095  -0.00082  -0.00439
  53 6   C  1S          0.00051   0.01086   0.00415  -0.00296  -0.00445
  54        2S         -0.00147  -0.02398  -0.00834   0.00547   0.01193
  55        3S         -0.00129  -0.06966  -0.02370   0.02979   0.01730
  56        4PX        -0.00048   0.02232  -0.00411  -0.01323   0.00790
  57        4PY         0.00758   0.05103   0.01753  -0.01209  -0.06142
  58        4PZ         0.00096  -0.01930   0.00054  -0.00494  -0.00948
  59        5PX        -0.00113  -0.00838   0.00005  -0.00112   0.02061
  60        5PY         0.00355   0.04686   0.00975  -0.01584  -0.03916
  61        5PZ         0.00113  -0.01860   0.00228  -0.00206  -0.01201
  62        6D 0       -0.00004  -0.00209  -0.00013   0.00108   0.00053
  63        6D+1       -0.00005   0.00080  -0.00005  -0.00050   0.00061
  64        6D-1       -0.00005   0.00116  -0.00003  -0.00036   0.00031
  65        6D+2       -0.00027  -0.00499   0.00052   0.00136   0.00392
  66        6D-2        0.00062   0.00274   0.00116  -0.00083  -0.00567
  67 7   C  1S         -0.00052   0.01071  -0.00453  -0.00296   0.00446
  68        2S          0.00148  -0.02367   0.00919   0.00547  -0.01194
  69        3S          0.00133  -0.06879   0.02618   0.02979  -0.01735
  70        4PX        -0.00045  -0.02245  -0.00333   0.01323   0.00791
  71        4PY        -0.00761   0.05036  -0.01934  -0.01208   0.06145
  72        4PZ         0.00094   0.01932  -0.00015   0.00493  -0.00946
  73        5PX        -0.00113   0.00837  -0.00026   0.00112   0.02063
  74        5PY        -0.00358   0.04648  -0.01141  -0.01584   0.03919
  75        5PZ         0.00112   0.01868   0.00162   0.00205  -0.01200
  76        6D 0        0.00004  -0.00208   0.00020   0.00108  -0.00053
  77        6D+1        0.00005   0.00080   0.00002  -0.00050  -0.00061
  78        6D-1       -0.00005  -0.00116   0.00001   0.00036   0.00032
  79        6D+2        0.00027  -0.00501  -0.00035   0.00136  -0.00393
  80        6D-2        0.00063  -0.00269   0.00126   0.00083  -0.00567
  81 8   C  1S          0.00052  -0.01780  -0.00134   0.00601  -0.01311
  82        2S         -0.00102   0.03637   0.00407  -0.01167   0.03204
  83        3S         -0.00267   0.17038   0.02568  -0.05539   0.04567
  84        4PX        -0.00276   0.08264   0.01965  -0.03089   0.05819
  85        4PY         0.01082  -0.10600   0.00616   0.02986  -0.12021
  86        4PZ        -0.00068  -0.00659   0.00016   0.00468   0.01193
  87        5PX        -0.00173   0.08587   0.01894  -0.03347   0.05091
  88        5PY         0.00472  -0.06761  -0.01049   0.01628  -0.05882
  89        5PZ        -0.00090  -0.01537  -0.01365  -0.01399   0.01450
  90        6D 0        0.00007  -0.00231  -0.00087  -0.00016  -0.00131
  91        6D+1       -0.00001   0.00132  -0.00122  -0.00380  -0.00080
  92        6D-1        0.00009  -0.00005   0.00056   0.00267  -0.00042
  93        6D+2       -0.00010  -0.00020  -0.00114   0.00163   0.00189
  94        6D-2        0.00046  -0.00416   0.00110   0.00082  -0.00440
  95 9   N  1S          0.00405   0.05625   0.01146  -0.01801  -0.05914
  96        2S          0.00680   0.11149   0.02480  -0.03541  -0.12381
  97        3S          0.02612   0.19148   0.03636  -0.07153  -0.15735
  98        4PX         0.01039   0.17611   0.00898  -0.04135  -0.17348
  99        4PY         0.02342   0.26725   0.03140  -0.05873  -0.32138
 100        4PZ        -0.00773   0.03343  -0.16455   0.16824  -0.01440
 101        5PX         0.00218  -0.13580  -0.00815   0.03381   0.11241
 102        5PY        -0.01999  -0.19435  -0.01365   0.03809   0.23322
 103        5PZ         0.00814  -0.02117   0.11806  -0.12370   0.01496
 104        6D 0        0.00043   0.00741   0.00146  -0.00313  -0.00868
 105        6D+1        0.00025  -0.00178   0.00684  -0.00941   0.00161
 106        6D-1        0.00021  -0.00063   0.00443  -0.00275  -0.00152
 107        6D+2        0.00013   0.00201   0.00091   0.00035  -0.00316
 108        6D-2       -0.00060  -0.00452  -0.00152   0.00037   0.00832
 109 10  C  1S          0.00277   0.02180   0.00283  -0.00755  -0.02310
 110        2S         -0.00635  -0.06181  -0.00694   0.02028   0.06716
 111        3S         -0.02441   0.04731  -0.01156   0.00350  -0.08015
 112        4PX         0.00467   0.09314  -0.01002  -0.01257  -0.08424
 113        4PY         0.00438   0.06386  -0.00461  -0.00506  -0.05385
 114        4PZ         0.00081  -0.00957   0.07135  -0.10845   0.01865
 115        5PX         0.01234   0.01132  -0.00471  -0.00580  -0.03650
 116        5PY        -0.00187  -0.01614  -0.01103   0.00922   0.07479
 117        5PZ        -0.00136  -0.01002   0.05965  -0.09114   0.01456
 118        6D 0       -0.00082   0.00064  -0.00162   0.00145  -0.00034
 119        6D+1       -0.00122   0.00209  -0.01341   0.01382  -0.00030
 120        6D-1        0.00002   0.00023   0.00645  -0.00582  -0.00154
 121        6D+2        0.00045  -0.00109   0.00517  -0.00413  -0.00032
 122        6D-2        0.00201   0.02202  -0.00052  -0.00182  -0.02558
 123 11  C  1S          0.00161   0.01938   0.00245  -0.00396  -0.02344
 124        2S         -0.00466  -0.04962  -0.00976   0.01406   0.06063
 125        3S          0.01416  -0.14324   0.02781  -0.01110   0.18323
 126        4PX         0.01128   0.02036   0.09042  -0.08052  -0.04470
 127        4PY        -0.00196  -0.08294   0.03349  -0.02219   0.08112
 128        4PZ        -0.00509   0.03837  -0.17854   0.16335  -0.01369
 129        5PX         0.00690   0.05947   0.06570  -0.06548  -0.09408
 130        5PY        -0.00840  -0.02710   0.01505  -0.00896   0.08266
 131        5PZ        -0.00094   0.05527  -0.13329   0.12183  -0.03759
 132        6D 0       -0.01077   0.00099  -0.00037   0.00062  -0.00002
 133        6D+1       -0.00574   0.00111  -0.00348   0.00446  -0.00065
 134        6D-1       -0.00472  -0.00046   0.00511  -0.00645   0.00093
 135        6D+2        0.00389  -0.00215   0.00160  -0.00088   0.00089
 136        6D-2        0.00556   0.00223  -0.00158   0.00116  -0.00267
 137 12  C  1S         -0.00096   0.00034  -0.00057   0.00175  -0.00149
 138        2S          0.00266  -0.00174   0.00001  -0.00285   0.00590
 139        3S         -0.01480   0.04183  -0.00465   0.00192  -0.01472
 140        4PX        -0.10416   0.02498   0.06219  -0.06556  -0.02276
 141        4PY        -0.03923   0.02227   0.02939  -0.03559  -0.01682
 142        4PZ         0.17270   0.01548  -0.10619   0.10125  -0.01528
 143        5PX        -0.07692   0.03259   0.03506  -0.04052  -0.00148
 144        5PY        -0.02531   0.06885   0.00400  -0.01438  -0.06687
 145        5PZ         0.11124   0.04846  -0.07427   0.06597  -0.03041
 146        6D 0        0.00182   0.00068  -0.00464   0.00429  -0.00015
 147        6D+1        0.00443  -0.00036  -0.00069   0.00103  -0.00017
 148        6D-1       -0.00706   0.00372  -0.00717   0.00599  -0.00169
 149        6D+2       -0.00368   0.00199  -0.00067   0.00038  -0.00216
 150        6D-2        0.00283  -0.00077   0.00487  -0.00452   0.00019
 151 13  C  1S          0.00059   0.00157   0.00042  -0.00098  -0.00133
 152        2S         -0.00154  -0.00209  -0.00092   0.00216   0.00103
 153        3S          0.00982   0.00292  -0.00342   0.00234  -0.03169
 154        4PX        -0.10298   0.02699  -0.03718   0.03059  -0.01297
 155        4PY        -0.04572  -0.00094  -0.01768   0.01761   0.00464
 156        4PZ         0.19336  -0.05255   0.06625  -0.05319   0.02479
 157        5PX        -0.07267   0.00498  -0.01489   0.01256  -0.00174
 158        5PY        -0.02437  -0.00153  -0.01308   0.01260  -0.00728
 159        5PZ         0.13459  -0.05201   0.04428  -0.03314   0.02674
 160        6D 0        0.00015  -0.00168   0.00662  -0.00605   0.00079
 161        6D+1       -0.00246  -0.00158   0.00638  -0.00594   0.00088
 162        6D-1        0.00659   0.00076  -0.00445   0.00432  -0.00081
 163        6D+2        0.00320  -0.00080  -0.00578   0.00584   0.00131
 164        6D-2       -0.00322   0.00145   0.00045  -0.00079  -0.00108
 165 14  C  1S         -0.00016   0.00356  -0.00021  -0.00025  -0.00374
 166        2S          0.00037  -0.00768   0.00052   0.00037   0.00791
 167        3S         -0.01114  -0.01053  -0.00453   0.00417   0.02535
 168        4PX        -0.01024   0.02968  -0.09545   0.08618  -0.01355
 169        4PY        -0.00360   0.00773  -0.03705   0.03391  -0.00092
 170        4PZ         0.01284  -0.03928   0.17934  -0.16562   0.01285
 171        5PX        -0.00850   0.01110  -0.06866   0.06327  -0.00735
 172        5PY        -0.00685  -0.00169  -0.03049   0.03100   0.01283
 173        5PZ         0.00788  -0.03526   0.13680  -0.12708   0.01364
 174        6D 0       -0.01125   0.00202   0.00025  -0.00037  -0.00114
 175        6D+1       -0.00622   0.00155  -0.00111   0.00079  -0.00083
 176        6D-1       -0.00446   0.00015   0.00377  -0.00307  -0.00043
 177        6D+2        0.00421  -0.00083   0.00119  -0.00072   0.00025
 178        6D-2        0.00554  -0.00043  -0.00175   0.00149   0.00048
 179 15  C  1S          0.00005   0.00215  -0.00055   0.00113  -0.00295
 180        2S         -0.00033  -0.00585   0.00158  -0.00305   0.00704
 181        3S          0.01051   0.01420  -0.00222  -0.00242  -0.02025
 182        4PX         0.09644   0.00132  -0.05462   0.04972  -0.00170
 183        4PY         0.03451  -0.01191  -0.01891   0.01509   0.01335
 184        4PZ        -0.17556   0.01282   0.09779  -0.08489  -0.01630
 185        5PX         0.06251  -0.00735  -0.03782   0.03508   0.00989
 186        5PY         0.02036  -0.01556  -0.01723   0.01558   0.01813
 187        5PZ        -0.12382   0.00564   0.06624  -0.05726  -0.00746
 188        6D 0        0.00156   0.00057  -0.00426   0.00382  -0.00010
 189        6D+1        0.00386  -0.00019   0.00011  -0.00026  -0.00024
 190        6D-1       -0.00690   0.00279  -0.00853   0.00812  -0.00093
 191        6D+2       -0.00319   0.00144  -0.00130   0.00151  -0.00145
 192        6D-2        0.00255  -0.00202   0.00519  -0.00492   0.00118
 193 16  C  1S         -0.00163   0.00091   0.00093  -0.00296   0.00087
 194        2S          0.00434  -0.00400  -0.00176   0.00663   0.00012
 195        3S         -0.00582  -0.02976  -0.00738   0.01570   0.03134
 196        4PX         0.09043  -0.03618   0.05024  -0.05490   0.02932
 197        4PY         0.03693  -0.01105   0.01665  -0.01407   0.00612
 198        4PZ        -0.18950   0.04239  -0.08584   0.08336  -0.01237
 199        5PX         0.06937  -0.01450   0.04377  -0.04615   0.00562
 200        5PY         0.02927  -0.00520   0.01100  -0.01074  -0.00820
[...]
 043913,-0.00004690,-0.00005880,0.00010170,-0.00000025,-0.00000136,0.00
 000299,0.00000095,-0.00000273,-0.00000138,-0.00000284,0.00000075,0.000
 00011,-0.00000182,0.00000625,0.00000047,-0.00000055,0.00000645,-0.0000
 0071,0.00000427,-0.00000273,0.00000186,-0.00001021,0.00000400,0.000009
 83,-0.00001298,0.00001486,-0.00000990,0.00001921,0.00000910,0.00001883
 ,-0.00000208,0.00000562,0.00003877,-0.00000226,0.00000187,0.00000564,0
 .00000066,-0.00000072,0.00000079,-0.00000170,0.00000101,0.00000200,0.0
 0001466,0.00023061,0.00001618,0.27922700,-0.00081024,-0.00010108,-0.00
 021406,-0.00002055,-0.00007765,0.00004627,-0.00007834,0.00000256,0.000
 09512,0.00000845,-0.00002084,-0.00000245,0.00002798,-0.00003288,-0.000
 03035,-0.00000578,-0.00000112,0.00002557,-0.00008996,0.00003945,-0.000
 00668,0.00019904,0.00023109,0.00005020,0.00017368,-0.00002537,-0.00013
 372,-0.00011757,0.00010665,-0.00000152,-0.00000796,0.00001966,0.000009
 87,0.00001672,-0.00003717,0.00000791,-0.00001457,0.00002013,0.00001194
 ,0.00003281,-0.00003113,0.00001240,-0.00000557,-0.00000535,-0.00000823
 ,-0.00000619,-0.00002540,-0.00000640,-0.00001010,0.00002579,-0.0000066
 7,0.00000254,-0.00002474,0.00000634,0.00038319,0.00025784,-0.00086660,
 0.00174795,0.00087207,-0.00023258,0.02196012,0.00498749,0.01182856,-0.
 00349225,-0.05695896,0.00032468,-0.02376163,0.00366716,-0.01254285,-0.
 00302299,-0.00373724,0.00102924,0.00011155,-0.00097501,0.00007113,0.00
 066066,-0.00424120,0.00281839,-0.00112376,0.00028583,-0.00060693,0.000
 06195,-0.00037376,0.00008756,0.00002240,0.00001686,-0.00001115,-0.0000
 0505,0.00000213,0.00000513,-0.00000489,-0.00000505,-0.00000547,0.00001
 436,0.00000909,-0.00000664,0.00002007,0.00005077,-0.00000335,0.0000084
 7,-0.00000162,0.00000239,0.00000252,-0.00000753,-0.00001340,0.00001138
 ,-0.00002429,-0.00000405,0.00002461,0.00000246,0.00002019,-0.00000560,
 0.00003779,-0.00000426,0.00001560,-0.00001213,-0.00001616,0.00000280,-
 0.00000288,-0.00000020,-0.00001073,0.00000117,-0.00000383,-0.00019996,
 0.00017294,0.00017124,0.00525295,0.05502413,0.00050274,-0.00009973,0.0
 0028506,0.00002766,0.00005319,-0.00001153,-0.00004615,0.00004448,-0.00
 002566,0.00000213,0.00001068,-0.00001631,0.00001506,-0.00000928,0.0000
 1759,-0.00001250,0.00000105,-0.00001223,0.00005099,-0.00003619,0.00001
 939,-0.00013424,-0.00019388,-0.00003448,-0.00008212,-0.00009741,0.0000
 3617,0.00007794,-0.00003537,0.00000646,-0.00000863,0.00001876,0.000001
 72,0.00004035,-0.00000702,0.00005351,-0.00002035,-0.00001011,-0.000004
 34,0.00000253,0.00001029,0.00000223,-0.00001204,-0.00001115,-0.0000089
 6,-0.00000983,0.00001316,-0.00001006,0.00000996,-0.00002553,0.00000181
 ,-0.00001362,0.00002257,-0.00000659,-0.00033541,0.00008765,-0.00003715
 ,0.00172472,-0.00089566,-0.00257779,-0.00985334,-0.00327130,-0.0004488
 4,-0.13093501,0.00103219,-0.11572305,-0.00107221,0.00186176,0.00375322
 ,-0.00221545,0.00093947,0.00595808,0.00072866,0.00009460,-0.00062629,-
 0.00221654,0.00304106,0.00436858,-0.00010807,0.00006304,0.00027511,0.0
 0004227,-0.00000130,-0.00013699,-0.00000761,-0.00000397,-0.00000327,-0
 .00000689,-0.00000382,-0.00000393,0.00000343,0.00000175,-0.00000074,-0
 .00000164,-0.00001074,0.00000159,-0.00000864,-0.00003038,-0.00000114,-
 0.00001007,0.00000040,-0.00000734,-0.00001042,0.00001274,-0.00001020,0
 .00001268,0.00000348,-0.00000115,-0.00003812,-0.00001794,-0.00000459,0
 .00003877,0.00000418,-0.00006137,0.00001314,-0.00000781,-0.00000227,-0
 .00000483,0.00000045,0.00000083,-0.00000306,-0.00000543,0.00000062,0.0
 0000882,-0.00012280,0.00011093,0.14202080,-0.00137311,0.10880675,0.000
 03675,0.00000705,-0.00004377,-0.00000760,-0.00002033,-0.00000396,0.000
 02992,-0.00002715,-0.00001662,0.00000037,0.00000801,-0.00000155,-0.000
 01186,0.00001332,0.00000804,0.00000369,-0.00000270,-0.00000342,0.00000
 204,0.00000502,-0.00000063,-0.00002055,-0.00001845,-0.00000664,-0.0000
 2340,0.00002756,0.00000591,0.00000673,-0.00003071,0.00000289,0.0000028
 6,-0.00001155,-0.00000638,-0.00000607,0.00001559,-0.00000977,0.0000090
 8,-0.00000895,-0.00000788,-0.00001388,0.00001015,-0.00000616,0.0000030
 2,0.00000546,0.00000282,0.00000543,0.00000377,0.00000147,-0.00000347,0
 .00000003,0.00000363,0.00000801,0.00000086,-0.00000298,-0.00018322,0.0
 0004325,0.00002700,0.00061011,-0.00043483,0.00032800,0.00005204,-0.003
 67558,-0.00303054,0.00997351,-0.01533809,0.00615985,-0.09384417,0.0908
 6458,-0.04975153,-0.00548383,0.02289733,-0.00990916,-0.00297987,-0.002
 16970,-0.00445281,-0.00050953,-0.00040584,0.00026620,-0.00008551,0.001
 96756,0.00164826,0.00002627,-0.00061401,-0.00009693,-0.00000481,-0.000
 00447,0.00000277,0.00000046,-0.00000132,-0.00000247,-0.00000044,0.0000
 0101,-0.00000017,-0.00000304,0.00000160,0.00000196,-0.00000233,-0.0000
 0215,0.00000119,-0.00000220,-0.00000301,-0.00000049,0.00000213,0.00000
 454,-0.00000851,-0.00000347,0.00000482,0.00001120,0.00000138,0.0000045
 9,0.00000074,-0.00000226,-0.00001560,0.00001316,-0.00001232,0.00000656
 ,0.00001231,-0.00000050,0.00000077,0.00000137,0.00000205,0.00000071,0.
 00000251,-0.00010885,-0.00022797,0.00001887,-0.00034472,0.00071470,0.0
 0204127,0.09327084,0.00004103,0.00005446,-0.00002361,-0.00002174,-0.00
 003796,-0.00000695,0.00003578,-0.00004291,-0.00002802,0.00000357,0.000
 01101,-0.00000477,-0.00001753,0.00001852,0.00001525,0.00000131,-0.0000
 0305,-0.00000747,0.00000717,0.00001177,0.00000249,-0.00003591,-0.00003
 504,-0.00000219,-0.00003377,0.00001757,0.00001266,0.00001625,-0.000026
 21,0.00000122,0.00000351,-0.00000974,-0.00000458,-0.00000853,0.0000112
 3,-0.00000718,0.00000608,-0.00000296,-0.00000306,-0.00000933,0.0000091
 6,-0.00000347,0.00000258,0.00000234,0.00000237,0.00000181,0.00000714,0
 .00000040,-0.00000005,-0.00000154,0.00000229,0.00000086,0.00000110,-0.
 00000233,-0.00025372,0.00012614,-0.00000995,0.00121950,-0.00046218,0.0
 0046965,-0.00412183,-0.00267173,0.00034930,0.01169045,-0.01488440,0.01
 066962,0.09138959,-0.26705476,0.09944452,-0.00377916,0.00457962,-0.002
 23832,-0.00118451,0.00161954,0.00047377,-0.00080141,0.00010350,-0.0006
 4632,0.00030016,0.00050999,-0.00085717,0.00005571,0.00004823,0.0001219
 2,-0.00000898,-0.00000788,0.00000317,-0.00000046,-0.00000211,-0.000003
 09,0.00000122,0.00000219,-0.00000044,-0.00000584,-0.00000171,0.0000031
 0,-0.00000201,-0.00000846,0.00000228,-0.00000700,-0.00000411,-0.000002
 08,0.00000388,0.00000775,-0.00001690,-0.00000400,0.00000889,0.00002112
 ,-0.00000207,0.00000083,-0.00000035,-0.00000186,-0.00001212,0.00000783
 ,-0.00000655,0.00000523,0.00000519,-0.00000109,0.00000098,0.00000077,0
 .00000243,-0.00000078,0.00000225,-0.00013748,-0.00029422,-0.00005432,0
 .00060559,0.00079188,-0.00084072,-0.09486238,0.27746958,-0.00004491,0.
 00000996,0.00005327,-0.00000600,0.00000382,0.00000078,-0.00002039,0.00
 000424,0.00001385,-0.00000008,-0.00000097,-0.00000284,0.00000504,-0.00
 000497,-0.00000228,-0.00000298,-0.00000084,0.00000114,-0.00000553,0.00
 000486,0.00000245,0.00000856,-0.00000108,0.00000490,0.00001118,-0.0000
 1750,-0.00001901,-0.00000327,0.00001506,0.00000122,-0.00000461,0.00000
 755,0.00000044,0.00001663,-0.00001552,0.00000824,-0.00000618,0.0000165
 8,0.00000244,0.00000860,-0.00000652,0.00000386,-0.00000462,-0.00000524
 ,-0.00000530,-0.00000579,-0.00000304,-0.00000547,0.00000007,-0.0000008
 9,0.00000143,-0.00000430,0.00000010,-0.00000499,0.00010486,0.00011512,
 -0.00012669,0.00023105,-0.00013435,0.00013213,-0.00298078,0.00001511,0
 .00622114,0.00032743,-0.00262374,0.00577731,-0.05072759,0.09859209,-0.
 08818368,-0.00331062,0.01171726,-0.00086012,-0.00457684,0.00032835,0.0
 0380826,-0.00003617,-0.00079432,-0.00079570,0.00201325,0.00002745,-0.0
 0292352,-0.00023881,-0.00021378,0.00038439,0.00000263,0.00000195,-0.00
 000176,-0.00000160,-0.00000049,0.00000013,-0.00000004,0.00000007,-0.00
 000100,0.00000082,-0.00000122,-0.00000016,0.00000220,0.00000095,-0.000
 00066,-0.00000162,-0.00000063,-0.00000151,-0.00000138,0.00000064,-0.00
 000274,0.00000053,0.00000037,0.00000223,-0.00000179,-0.00000351,0.0000
 0323,0.00000565,0.00001617,-0.00000228,0.00001231,-0.00000519,-0.00000
 070,-0.00000174,-0.00000115,0.00000060,-0.00000299,-0.00000172,-0.0000
 0014,0.00003715,-0.00001603,-0.00012273,0.00221934,-0.00091371,-0.0031
 5456,0.05691023,-0.10666594,0.08037513,0.00001274,0.00008634,0.0000204
 7,-0.00000990,-0.00002310,-0.00000412,0.00000599,-0.00003344,-0.000030
 20,0.00000371,0.00000383,-0.00000068,-0.00001258,0.00001035,0.00001417
 ,-0.00000180,0.00000068,-0.00000759,0.00001044,0.00000263,0.00000287,-
 0.00002368,-0.00001769,-0.00000769,-0.00001874,-0.00000030,0.00002003,
 0.00001317,-0.00000879,-0.00000198,0.00000110,-0.00000170,-0.00000038,
 -0.00000522,0.00000383,0.00000085,0.00000081,-0.00000351,0.00000074,-0
 .00000262,0.00000345,-0.00000082,0.00000059,-0.00000015,0.00000140,-0.
 00000024,0.00000427,0.00000112,0.00000266,-0.00000376,-0.00000046,-0.0
 0000196,0.00000341,0.00000120,-0.00024790,-0.00021501,0.00005394,-0.00
 022657,0.00055097,-0.00029127,0.00189908,-0.00339212,-0.00225921,0.000
 32611,-0.00001800,0.00065268,0.00220854,0.00164740,-0.00248618,-0.0048
 1985,-0.00348923,-0.00362467,-0.28800070,-0.00474747,-0.12704722,-0.00
 765025,0.00279244,-0.00670930,-0.00076176,-0.00012729,0.00176822,0.000
 28846,0.00019196,-0.00014564,-0.00000780,-0.00000662,0.00000149,0.0000
 0114,-0.00000047,-0.00000003,0.00000192,0.00000065,0.00000228,-0.00000
 276,-0.00000234,0.00000170,-0.00000184,-0.00000772,0.00000052,-0.00000
 161,0.00000003,0.00000072,0.00000278,0.00000226,-0.00000204,-0.0000003
 1,0.00000609,0.00000758,-0.00000281,-0.00000142,-0.00000315,0.00000066
 ,-0.00000280,-0.00000483,-0.00000050,0.00000109,-0.00000174,-0.0000000
 2,0.00000049,-0.00000057,0.00000173,-0.00000016,-0.00000016,0.00001623
 ,-0.00002966,0.00000650,-0.00024408,0.00008070,0.00033643,-0.00024342,
 -0.00021432,-0.00030082,0.29770323,0.00000410,0.00003764,0.00012032,-0
 .00000228,-0.00001040,-0.00000782,0.00000593,-0.00005631,-0.00003708,0
 .00000341,0.00000620,-0.00000117,-0.00001875,0.00001574,0.00002105,-0.
 00000293,0.00000242,-0.00000805,0.00001717,-0.00000100,0.00000374,-0.0
 0004861,-0.00002824,-0.00000696,-0.00001977,0.00000003,0.00001525,0.00
 001524,-0.00000973,-0.00000118,0.00000010,-0.00000228,-0.00000114,-0.0
 0000228,0.00000311,-0.00000007,0.00000093,-0.00000150,-0.00000077,-0.0
 0000291,0.00000383,-0.00000088,0.00000036,-0.00000040,0.00000085,-0.00
 000033,0.00000461,0.00000043,0.00000179,-0.00000346,0.00000058,-0.0000
 0172,0.00000286,-0.00000087,-0.00050095,-0.00039741,-0.00010971,-0.000
 67402,0.00082234,-0.00054841,-0.00276349,-0.00436738,0.00087194,0.0000
 5801,-0.00104697,0.00003502,0.00068818,-0.00433596,0.00252835,0.023573
 40,0.00373916,0.01202636,-0.00593873,-0.05702265,0.00058203,-0.0238686
 5,0.00481124,-0.01227495,0.00162416,0.00128101,-0.00027136,-0.00049054
 ,-0.00023004,-0.00010872,-0.00000882,-0.00000999,0.00000103,0.00000050
 ,-0.00000147,-0.00000057,0.00000188,0.00000121,0.00000270,-0.00000246,
 -0.00000323,0.00000150,-0.00000324,-0.00001441,0.00000046,-0.00000191,
 0.00000037,0.00000050,0.00000150,0.00000322,0.00000129,0.00000136,0.00
 000768,0.00000316,-0.00000380,-0.00000163,-0.00000242,0.00000072,-0.00
 000288,-0.00000045,-0.00000077,0.00000098,0.00000115,-0.00000050,0.000
 00055,-0.00000011,0.00000133,-0.00000055,0.00000031,0.00000863,-0.0000
 7039,0.00001747,0.00004602,0.00002355,-0.00016323,0.00115433,0.0002246
 2,0.00067494,0.00647256,0.05578928,0.00003406,-0.00003511,0.00005795,0
 .00000396,0.00000581,-0.00000161,0.00001667,-0.00001590,-0.00000772,-0
 .00000059,0.00000356,-0.00000085,-0.00000415,0.00000628,0.00000492,0.0
 0000072,0.00000172,0.00000088,0.00000912,-0.00000264,-0.00000034,-0.00
 002447,-0.00001180,0.00001175,-0.00001111,0.00000058,0.00000047,0.0000
 0956,-0.00000329,0.00000067,-0.00000055,0.00000089,-0.00000046,0.00000
 202,-0.00000043,0.00000116,-0.00000090,0.00000104,-0.00000061,0.,0.000
 00124,0.00000041,-0.00000037,-0.00000129,-0.00000038,-0.00000112,0.000
 00250,-0.00000063,0.00000176,-0.00000343,0.00000061,-0.00000236,0.0000
 0294,-0.00000150,-0.00013215,-0.00002816,-0.00022401,0.00004515,0.0001
 5458,0.00004706,-0.00263701,0.00087722,0.00603015,0.00074733,-0.000231
 38,-0.00053080,-0.00238291,0.00289392,0.00458494,-0.00895461,-0.001857
 88,-0.00066124,-0.12680282,0.00103705,-0.10364698,-0.00105573,0.001888
 29,0.00352517,0.00138031,-0.00113749,-0.00315094,-0.00000884,0.0002205
 5,0.00042479,-0.00000113,-0.00000275,0.,-0.00000112,-0.00000085,-0.000
 00132,0.00000023,0.00000087,-0.00000125,-0.00000096,-0.00000163,-0.000
 00022,-0.00000128,-0.00000611,0.00000133,-0.00000262,0.00000010,-0.000
 00157,0.00000037,0.00000046,-0.00000154,0.00000145,0.00000145,-0.00000
 253,-0.00000208,-0.00000114,-0.00000015,0.00000079,0.00000020,0.000000
 83,0.00000137,-0.00000077,0.00000060,-0.00000057,0.00000011,0.00000006
 ,0.00000028,-0.00000066,0.00000034,-0.00002986,-0.00004189,0.00002208,
 0.00036469,-0.00019236,-0.00072077,-0.00052857,-0.00004203,0.00015870,
 0.13800766,-0.00264360,0.09732291,-0.00008150,-0.00007668,-0.00010134,
 0.00000607,0.00000977,0.00001295,-0.00006497,0.00006752,0.00002103,-0.
 00000715,-0.00001965,0.00001926,0.00002629,-0.00003032,-0.00001942,-0.
 00000408,0.00000724,0.00000653,-0.00000149,-0.00003474,0.00001186,-0.0
 0001420,0.00006797,-0.00004653,0.00006606,-0.00000681,-0.00000757,-0.0
 0003579,0.00003312,-0.00000423,-0.00000193,0.00000717,0.00000712,0.000
 00607,-0.00001164,0.00000046,-0.00000213,0.00000454,0.00000389,0.00000
 966,-0.00001333,0.00000213,-0.00000131,0.00000187,-0.00000232,0.000002
 72,-0.00001527,0.00000030,-0.00000710,0.00001397,-0.00000226,0.0000057
 3,-0.00001273,0.00000257,0.00005979,-0.00077862,-0.00019672,-0.0001519
 7,0.00283349,0.00197102,-0.00478203,0.02323303,-0.00905736,-0.00324993
 ,-0.00178578,-0.00457089,-0.00089866,-0.00065642,0.00016625,0.00045523
 ,-0.00367082,-0.00271734,0.00962957,-0.01495244,0.00593368,-0.09665096
 ,0.09241692,-0.04831255,0.00058543,-0.00069688,0.00020042,-0.00028362,
 -0.00003923,-0.00003891,0.00001572,0.00001184,-0.00000450,0.00000508,0
 .00000579,0.00000839,-0.00000311,-0.00000754,0.00000504,0.00001362,0.0
 0000643,-0.00000286,0.00000005,0.00001230,-0.00000505,0.00002070,0.000
 01349,0.00000781,-0.00000547,-0.00003839,0.00004962,0.00001107,-0.0000
 0794,-0.00002762,0.00000682,0.00000256,-0.00000128,-0.00000170,0.00001
 072,-0.00000307,0.00000205,-0.00000243,-0.00000298,0.00000173,-0.00000
 133,0.00000028,-0.00000412,0.00000180,-0.00000204,-0.00004167,-0.00092
 632,-0.00013573,-0.00023794,0.00123647,-0.00053354,-0.00014538,0.00013
 309,0.00037391,-0.00021221,0.00067583,0.00196037,0.09596095,-0.0001700
 2,-0.00002196,0.00007549,0.00002093,0.00001713,0.00000646,-0.00001071,
 -0.00000839,0.00003317,-0.00000162,-0.00000228,-0.00000368,0.00000436,
 -0.00000456,-0.00001208,0.00000168,0.00000187,0.00001104,-0.00001714,-
 0.00000138,-0.00000124,0.00004764,0.00003441,0.00001390,0.00003331,-0.
 00000284,-0.00003078,-0.00001640,0.00001076,0.00000253,-0.00000063,0.0
 0000091,-0.00000011,0.00000458,-0.00000233,-0.00000126,-0.00000043,0.0
 0000156,-0.00000134,0.00000175,-0.00000301,0.00000053,-0.00000033,0.00
 000073,-0.00000122,0.00000085,-0.00000462,-0.00000093,-0.00000299,0.00
 000385,0.00000047,0.00000324,-0.00000317,-0.00000078,0.00106794,-0.000
 00756,-0.00005420,-0.00225149,0.00038881,-0.00110468,-0.00134461,0.003
 69969,-0.00077731,-0.00081075,0.00129375,0.00045612,-0.00051527,0.0003
 2291,-0.00045213,-0.00390043,-0.00221762,-0.00013595,0.01219663,-0.016
 22956,0.01077751,0.09138851,-0.26253880,0.09243213,0.00064676,-0.00078
 352,0.00051332,-0.00026239,-0.00013370,-0.00012762,0.00000722,0.000003
 79,-0.00000258,-0.00000249,-0.00000140,-0.00000010,-0.00000251,-0.0000
 0071,-0.00000200,0.00000500,0.00000280,-0.00000290,0.00000331,0.000009
 58,-0.00000216,0.00000541,0.00000198,0.00000029,-0.00001101,-0.0000024
 8,0.00001249,0.00000490,-0.00000371,-0.00001919,0.00000488,0.00000250,
 0.00000470,-0.00000101,0.00000117,0.00000543,-0.00000071,-0.00000078,0
 .00000172,0.00000016,-0.00000055,0.00000066,-0.00000180,0.00000048,0.0
 0000028,0.00054959,0.00014988,0.00015637,-0.00024550,0.00007393,-0.000
 04306,0.00011161,-0.00007938,-0.00012032,0.00048164,0.00083663,-0.0008
 3879,-0.09702165,0.27519516,-0.00012783,-0.00004223,0.00020580,0.00002
 541,0.00003616,0.00000048,-0.00001633,-0.00003417,0.00003111,-0.000000
 84,-0.00000130,-0.00000796,-0.00000361,-0.00000039,-0.00000555,0.00000
 117,0.00001211,0.00001903,-0.00000007,-0.00001541,-0.00001656,-0.00000
 996,0.00003717,0.00005490,0.00002775,-0.00002002,-0.00003287,-0.000003
 79,0.00001431,0.00000193,-0.00000243,0.00000381,0.00000068,0.00000895,
 -0.00000556,0.00000352,-0.00000343,0.00000238,-0.00000058,0.00000401,-
 0.00000324,0.00000158,-0.00000145,-0.00000136,-0.00000202,-0.00000048,
 -0.00000289,-0.00000110,-0.00000096,0.00000110,-0.00000007,-0.00000064
 ,-0.00000135,-0.00000098,0.00073583,-0.00022822,0.00004648,0.00177482,
 0.00089675,-0.00270138,-0.00406380,0.01184683,-0.00076991,-0.00465942,
 0.00033041,0.00413796,0.00015256,-0.00040755,-0.00081576,-0.00294298,0
 .00001756,0.00585446,0.00052351,-0.00368803,0.00496907,-0.04881659,0.0
 9343886,-0.08186569,-0.00007295,-0.00013864,0.00048605,-0.00000176,-0.
 00003365,-0.00018108,0.00000568,-0.00000134,-0.00000442,-0.00000503,-0
 .00000208,-0.00000102,-0.00000157,-0.00000065,-0.00000483,0.00000805,0
 .00000010,-0.00000639,0.00000152,0.00000018,0.00000127,0.00000180,0.00
 000308,-0.00000105,-0.00001389,-0.00000512,0.00001158,0.00000409,-0.00
 001560,-0.00004632,-0.00000004,-0.00000070,0.00000453,0.00000200,0.000
 00383,0.00000061,0.00000251,-0.00000225,-0.00000014,-0.00000016,-0.000
 00031,0.00000034,-0.00000204,-0.00000028,-0.00000016,0.00012627,-0.000
 94590,0.00011849,-0.00013253,0.00058259,-0.00004803,0.00041927,-0.0001
 3991,-0.00073943,0.00202820,-0.00072087,-0.00324038,0.05503118,-0.1007
 6820,0.07454381\\0.00841462,0.00733881,0.00555082,-0.00049028,-0.00121
 172,0.00026773,-0.00841742,0.00734685,-0.00554745,0.00049179,-0.001206
 79,-0.00026850,0.00249473,-0.00262127,0.00116076,-0.00123413,-0.000568
 19,-0.00074208,0.00123472,-0.00057120,0.00073710,-0.00249194,-0.002619
 99,-0.00115897,-0.00159714,0.00777957,0.00625448,0.01513734,-0.0122259
 5,0.00012864,-0.00004298,0.00126586,0.00100731,0.00118714,0.00121435,0
 .00152311,0.00030241,-0.00039444,0.00015050,-0.00148047,0.00095423,-0.
 00055038,-0.00021760,0.00067345,0.00032935,0.00050778,0.00170241,-0.00
 016620,0.00031776,-0.00064390,0.00012988,-0.00027729,0.00071010,-0.000
 13172,0.00159579,0.00779766,-0.00625934,-0.01513191,-0.01222908,-0.000
 12772,0.00002906,0.00126963,-0.00101262,-0.00117931,0.00120399,-0.0015
 1320,-0.00030254,-0.00038436,-0.00015099,0.00149253,0.00095443,0.00055
 694,0.00021714,0.00067626,-0.00032922,-0.00050247,0.00170145,0.0001639
 5,-0.00031401,-0.00063796,-0.00013224,0.00026995,0.00069961,0.00013153
 ,-0.00049799,-0.00005575,-0.00018285,-0.00011264,0.00006314,0.00008396
 ,0.00025019,-0.00004063,0.00011987,0.00013400,-0.00071492,0.00009759,-
 0.00013605,-0.00071291,-0.00009716,-0.00025006,-0.00004097,-0.00011659
 ,0.00010999,0.00006516,-0.00008569,0.00049726,-0.00005719,0.00018256,-
 0.00548202,-0.00118189,-0.00145783,-0.00081365,-0.00249207,-0.00483209
 ,-0.00055561,0.00050431,0.00009373,-0.00023764,0.00019582,0.00006665,0
 .00034400,-0.00026800,0.00025761,0.00548268,-0.00118006,0.00146032,0.0
 0080854,-0.00248557,0.00482860,0.00055509,0.00050064,-0.00009399,0.000
 23453,0.00019623,-0.00006888,-0.00034391,-0.00026912,-0.00025723\\\@

 Writing a WFNX file to "05_lig.wfx"


 YOU KNOW YOU'RE A TEACHER WHEN YOU SAY 2, WRITE 3, AND MEAN 4.
 -- RONALD ANSTROM, HIGH SCHOOL TEACHER, UNDERWOOD, N.D. 1974
 Job cpu time:       0 days  4 hours 28 minutes 34.6 seconds.
 Elapsed time:       0 days  0 hours 33 minutes 34.6 seconds.
 File lengths (MBytes):  RWF=   1084 Int=      0 D2E=      0 Chk=     16 Scr=      1
 Normal termination of Gaussian 16 at Thu Dec  8 09:38:53 2022.
