 Entering Gaussian System, Link 0=g16
 Initial command:
 /software/gaussian/G16-A.03/avx/g16/l1.exe "/scratch/lcmd/1380810.slurm/Gau-137666.inp" -scrdir="/scratch/lcmd/1380810.slurm/"
 Entering Link 1 = /software/gaussian/G16-A.03/avx/g16/l1.exe PID=    137667.
  
 Copyright (c) 1988,1990,1992,1993,1995,1998,2003,2009,2016,
            Gaussian, Inc.  All Rights Reserved.
  
 This is part of the Gaussian(R) 16 program.  It is based on
 the Gaussian(R) 09 system (copyright 2009, Gaussian, Inc.),
 the Gaussian(R) 03 system (copyright 2003, Gaussian, Inc.),
 the Gaussian(R) 98 system (copyright 1998, Gaussian, Inc.),
 the Gaussian(R) 94 system (copyright 1995, Gaussian, Inc.),
 the Gaussian 92(TM) system (copyright 1992, Gaussian, Inc.),
 the Gaussian 90(TM) system (copyright 1990, Gaussian, Inc.),
 the Gaussian 88(TM) system (copyright 1988, Gaussian, Inc.),
 the Gaussian 86(TM) system (copyright 1986, Carnegie Mellon
 University), and the Gaussian 82(TM) system (copyright 1983,
 Carnegie Mellon University). Gaussian is a federally registered
 trademark of Gaussian, Inc.
  
 This software contains proprietary and confidential information,
 including trade secrets, belonging to Gaussian, Inc.
  
 This software is provided under written license and may be
 used, copied, transmitted, or stored only in accord with that
 written license.
  
 The following legend is applicable only to US Government
 contracts under FAR:
  
                    RESTRICTED RIGHTS LEGEND
  
 Use, reproduction and disclosure by the US Government is
 subject to restrictions as set forth in subparagraphs (a)
 and (c) of the Commercial Computer Software - Restricted
 Rights clause in FAR 52.227-19.
  
 Gaussian, Inc.
 340 Quinnipiac St., Bldg. 40, Wallingford CT 06492
  
  
 ---------------------------------------------------------------
 Warning -- This program may not be used in any manner that
 competes with the business of Gaussian, Inc. or will provide
 assistance to any competitor of Gaussian, Inc.  The licensee
 of this program is prohibited from giving any competitor of
 Gaussian, Inc. access to this program.  By using this program,
 the user acknowledges that Gaussian, Inc. is engaged in the
 business of creating and licensing software in the field of
 computational chemistry and represents and warrants to the
 licensee that it is not a competitor of Gaussian, Inc. and that
 it will not use this program in any manner prohibited above.
 ---------------------------------------------------------------
  

 Cite this work as:
 Gaussian 16, Revision A.03,
 M. J. Frisch, G. W. Trucks, H. B. Schlegel, G. E. Scuseria, 
 M. A. Robb, J. R. Cheeseman, G. Scalmani, V. Barone, 
 G. A. Petersson, H. Nakatsuji, X. Li, M. Caricato, A. V. Marenich, 
 J. Bloino, B. G. Janesko, R. Gomperts, B. Mennucci, H. P. Hratchian, 
 J. V. Ortiz, A. F. Izmaylov, J. L. Sonnenberg, D. Williams-Young, 
 F. Ding, F. Lipparini, F. Egidi, J. Goings, B. Peng, A. Petrone, 
 T. Henderson, D. Ranasinghe, V. G. Zakrzewski, J. Gao, N. Rega, 
 G. Zheng, W. Liang, M. Hada, M. Ehara, K. Toyota, R. Fukuda, 
 J. Hasegawa, M. Ishida, T. Nakajima, Y. Honda, O. Kitao, H. Nakai, 
 T. Vreven, K. Throssell, J. A. Montgomery, Jr., J. E. Peralta, 
 F. Ogliaro, M. J. Bearpark, J. J. Heyd, E. N. Brothers, K. N. Kudin, 
 V. N. Staroverov, T. A. Keith, R. Kobayashi, J. Normand, 
 K. Raghavachari, A. P. Rendell, J. C. Burant, S. S. Iyengar, 
 J. Tomasi, M. Cossi, J. M. Millam, M. Klene, C. Adamo, R. Cammi, 
 J. W. Ochterski, R. L. Martin, K. Morokuma, O. Farkas, 
 J. B. Foresman, and D. J. Fox, Gaussian, Inc., Wallingford CT, 2016.
 
 ******************************************
 Gaussian 16:  ES64L-G16RevA.03 25-Dec-2016
                 8-Dec-2022 
 ******************************************
 %nprocs=8
 Will use up to    8 processors via shared memory.
 %mem=32000MB
 %chk=06_lig.chk
 ----------------------------------------------------------------------
 #p pop=(regular,nbo,savenbos) freq=noraman def2svp empiricaldispersion
 =gd3bj output=wfx pbe1pbe
 ----------------------------------------------------------------------
 1/10=4,30=1,38=1/1,3;
 2/12=2,17=6,18=5,40=1/2;
 3/5=43,7=101,11=2,25=1,30=1,71=2,74=-13,124=41,140=1/1,2,3;
 4//1;
 5/5=2,38=5,98=1/2;
 8/6=4,10=90,11=11/1;
 11/6=1,8=1,9=11,15=111,16=1/1,2,10;
 10/6=1/2;
 6/28=1,40=1,73=1/1,7;
 7/8=1,10=1,25=1/1,2,3,16;
 1/10=4,30=1/3;
 99/6=200/99;
 Leave Link    1 at Thu Dec  8 09:05:16 2022, MaxMem=  4194304000 cpu:               0.4 elap:               0.1
 (Enter /software/gaussian/G16-A.03/avx/g16/l101.exe)
 ------
 06_lig
 ------
 Symbolic Z-matrix:
 Charge =  0 Multiplicity = 1
 C                    -0.77741   2.12511   0.72513 
 H                    -0.4756    2.09648   1.79009 
 C                     0.52967   2.19775  -0.08965 
 H                     0.24813   2.18097  -1.16095 
 C                     1.26974   3.49895   0.2216 
 C                     0.39407   4.72325  -0.00484 
 C                    -0.89794   4.63148   0.79501 
 C                    -1.65117   3.34544   0.47723 
 N                     1.32863   1.01814   0.1916 
 C                     2.46007   0.8585   -0.36859 
 C                     3.30308  -0.30915  -0.11056 
 C                     4.30565  -0.69811  -1.01405 
 C                     5.094    -1.82123  -0.77624 
 C                     4.89266  -2.56772   0.38088 
 C                     3.91268  -2.19099   1.30012 
 C                     3.13043  -1.07127   1.05593 
 Cl                    4.57444   0.19563  -2.47787 
 N                    -1.39938   0.83597   0.49919 
 C                    -2.60369   0.68739   0.11686 
 C                    -3.23371  -0.62723  -0.00992 
 C                    -2.89003  -1.67293   0.859 
 C                    -3.49021  -2.91949   0.74118 
 C                    -4.44773  -3.13839  -0.24847 
 C                    -4.81827  -2.11026  -1.11193 
 C                    -4.2178   -0.86211  -0.98234 
 Cl                   -4.67732   0.40448  -2.0769 
 H                     2.18025   3.56102  -0.39375 
 H                     1.60172   3.45675   1.27369 
 H                     0.15404   4.80786  -1.07965 
 H                     0.95036   5.63531   0.26209 
 H                    -1.54159   5.50187   0.59437 
 H                    -0.66425   4.6574    1.87365 
 H                    -1.97283   3.35915  -0.57998 
 H                    -2.56502   3.27996   1.08924 
 H                     2.85306   1.59041  -1.09291 
 H                     5.85427  -2.10369  -1.50577 
 H                     5.51124  -3.44929   0.56431 
 H                     3.75751  -2.7688    2.21324 
 H                     2.37735  -0.76001   1.78731 
 H                    -3.23056   1.55688  -0.12755 
 H                    -2.16564  -1.48257   1.65821 
 H                    -3.21025  -3.72162   1.42641 
 H                    -4.91893  -4.11863  -0.35063 
 H                    -5.56474  -2.2676   -1.89167 
 
 ITRead=  0  0  0  0  0  0  0  0  0  0  0  0  0  0  0  0  0  0  0  0
 ITRead=  0  0  0  0  0  0  0  0  0  0  0  0  0  0  0  0  0  0  0  0
 ITRead=  0  0  0  0
 MicOpt= -1 -1 -1 -1 -1 -1 -1 -1 -1 -1 -1 -1 -1 -1 -1 -1 -1 -1 -1 -1
 MicOpt= -1 -1 -1 -1 -1 -1 -1 -1 -1 -1 -1 -1 -1 -1 -1 -1 -1 -1 -1 -1
 MicOpt= -1 -1 -1 -1
 NAtoms=     44 NQM=       44 NQMF=       0 NMMI=      0 NMMIF=      0
                NMic=       0 NMicF=      0.
                    Isotopes and Nuclear Properties:
 (Nuclear quadrupole moments (NQMom) in fm**2, nuclear magnetic moments (NMagM)
  in nuclear magnetons)

  Atom         1           2           3           4           5           6           7           8           9          10
 IAtWgt=          12           1          12           1          12          12          12          12          14          12
 AtmWgt=  12.0000000   1.0078250  12.0000000   1.0078250  12.0000000  12.0000000  12.0000000  12.0000000  14.0030740  12.0000000
 NucSpn=           0           1           0           1           0           0           0           0           2           0
 AtZEff=  -0.0000000  -0.0000000  -0.0000000  -0.0000000  -0.0000000  -0.0000000  -0.0000000  -0.0000000  -0.0000000  -0.0000000
 NQMom=    0.0000000   0.0000000   0.0000000   0.0000000   0.0000000   0.0000000   0.0000000   0.0000000   2.0440000   0.0000000
 NMagM=    0.0000000   2.7928460   0.0000000   2.7928460   0.0000000   0.0000000   0.0000000   0.0000000   0.4037610   0.0000000
 AtZNuc=   6.0000000   1.0000000   6.0000000   1.0000000   6.0000000   6.0000000   6.0000000   6.0000000   7.0000000   6.0000000

  Atom        11          12          13          14          15          16          17          18          19          20
 IAtWgt=          12          12          12          12          12          12          35          14          12          12
 AtmWgt=  12.0000000  12.0000000  12.0000000  12.0000000  12.0000000  12.0000000  34.9688527  14.0030740  12.0000000  12.0000000
 NucSpn=           0           0           0           0           0           0           3           2           0           0
 AtZEff=  -0.0000000  -0.0000000  -0.0000000  -0.0000000  -0.0000000  -0.0000000  -0.0000000  -0.0000000  -0.0000000  -0.0000000
 NQMom=    0.0000000   0.0000000   0.0000000   0.0000000   0.0000000   0.0000000  -8.1650000   2.0440000   0.0000000   0.0000000
 NMagM=    0.0000000   0.0000000   0.0000000   0.0000000   0.0000000   0.0000000   0.8218740   0.4037610   0.0000000   0.0000000
 AtZNuc=   6.0000000   6.0000000   6.0000000   6.0000000   6.0000000   6.0000000  17.0000000   7.0000000   6.0000000   6.0000000

  Atom        21          22          23          24          25          26          27          28          29          30
 IAtWgt=          12          12          12          12          12          35           1           1           1           1
 AtmWgt=  12.0000000  12.0000000  12.0000000  12.0000000  12.0000000  34.9688527   1.0078250   1.0078250   1.0078250   1.0078250
 NucSpn=           0           0           0           0           0           3           1           1           1           1
 AtZEff=  -0.0000000  -0.0000000  -0.0000000  -0.0000000  -0.0000000  -0.0000000  -0.0000000  -0.0000000  -0.0000000  -0.0000000
 NQMom=    0.0000000   0.0000000   0.0000000   0.0000000   0.0000000  -8.1650000   0.0000000   0.0000000   0.0000000   0.0000000
 NMagM=    0.0000000   0.0000000   0.0000000   0.0000000   0.0000000   0.8218740   2.7928460   2.7928460   2.7928460   2.7928460
 AtZNuc=   6.0000000   6.0000000   6.0000000   6.0000000   6.0000000  17.0000000   1.0000000   1.0000000   1.0000000   1.0000000

  Atom        31          32          33          34          35          36          37          38          39          40
 IAtWgt=           1           1           1           1           1           1           1           1           1           1
 AtmWgt=   1.0078250   1.0078250   1.0078250   1.0078250   1.0078250   1.0078250   1.0078250   1.0078250   1.0078250   1.0078250
 NucSpn=           1           1           1           1           1           1           1           1           1           1
 AtZEff=  -0.0000000  -0.0000000  -0.0000000  -0.0000000  -0.0000000  -0.0000000  -0.0000000  -0.0000000  -0.0000000  -0.0000000
 NQMom=    0.0000000   0.0000000   0.0000000   0.0000000   0.0000000   0.0000000   0.0000000   0.0000000   0.0000000   0.0000000
 NMagM=    2.7928460   2.7928460   2.7928460   2.7928460   2.7928460   2.7928460   2.7928460   2.7928460   2.7928460   2.7928460
 AtZNuc=   1.0000000   1.0000000   1.0000000   1.0000000   1.0000000   1.0000000   1.0000000   1.0000000   1.0000000   1.0000000

  Atom        41          42          43          44
 IAtWgt=           1           1           1           1
 AtmWgt=   1.0078250   1.0078250   1.0078250   1.0078250
 NucSpn=           1           1           1           1
 AtZEff=  -0.0000000  -0.0000000  -0.0000000  -0.0000000
 NQMom=    0.0000000   0.0000000   0.0000000   0.0000000
 NMagM=    2.7928460   2.7928460   2.7928460   2.7928460
 AtZNuc=   1.0000000   1.0000000   1.0000000   1.0000000
 Leave Link  101 at Thu Dec  8 09:05:16 2022, MaxMem=  4194304000 cpu:               1.0 elap:               0.1
 (Enter /software/gaussian/G16-A.03/avx/g16/l103.exe)

 GradGradGradGradGradGradGradGradGradGradGradGradGradGradGradGradGradGrad
 Berny optimization.
 Initialization pass.
 Trust Radius=3.00D-01 FncErr=1.00D-07 GrdErr=1.00D-07 EigMax=2.50D+02 EigMin=1.00D-04
 Number of steps in this run=      2 maximum allowed number of steps=      2.
 GradGradGradGradGradGradGradGradGradGradGradGradGradGradGradGradGradGrad

 Leave Link  103 at Thu Dec  8 09:05:16 2022, MaxMem=  4194304000 cpu:               0.2 elap:               0.1
 (Enter /software/gaussian/G16-A.03/avx/g16/l202.exe)
                          Input orientation:                          
 ---------------------------------------------------------------------
 Center     Atomic      Atomic             Coordinates (Angstroms)
 Number     Number       Type             X           Y           Z
 ---------------------------------------------------------------------
      1          6           0       -0.777410    2.125110    0.725130
      2          1           0       -0.475600    2.096480    1.790090
      3          6           0        0.529670    2.197750   -0.089650
      4          1           0        0.248130    2.180970   -1.160950
      5          6           0        1.269740    3.498950    0.221600
      6          6           0        0.394070    4.723250   -0.004840
      7          6           0       -0.897940    4.631480    0.795010
      8          6           0       -1.651170    3.345440    0.477230
      9          7           0        1.328630    1.018140    0.191600
     10          6           0        2.460070    0.858500   -0.368590
     11          6           0        3.303080   -0.309150   -0.110560
     12          6           0        4.305650   -0.698110   -1.014050
     13          6           0        5.094000   -1.821230   -0.776240
     14          6           0        4.892660   -2.567720    0.380880
     15          6           0        3.912680   -2.190990    1.300120
     16          6           0        3.130430   -1.071270    1.055930
     17         17           0        4.574440    0.195630   -2.477870
     18          7           0       -1.399380    0.835970    0.499190
     19          6           0       -2.603690    0.687390    0.116860
     20          6           0       -3.233710   -0.627230   -0.009920
     21          6           0       -2.890030   -1.672930    0.859000
     22          6           0       -3.490210   -2.919490    0.741180
     23          6           0       -4.447730   -3.138390   -0.248470
     24          6           0       -4.818270   -2.110260   -1.111930
     25          6           0       -4.217800   -0.862110   -0.982340
     26         17           0       -4.677320    0.404480   -2.076900
     27          1           0        2.180250    3.561020   -0.393750
     28          1           0        1.601720    3.456750    1.273690
     29          1           0        0.154040    4.807860   -1.079650
     30          1           0        0.950360    5.635310    0.262090
     31          1           0       -1.541590    5.501870    0.594370
     32          1           0       -0.664250    4.657400    1.873650
     33          1           0       -1.972830    3.359150   -0.579980
     34          1           0       -2.565020    3.279960    1.089240
     35          1           0        2.853060    1.590410   -1.092910
     36          1           0        5.854270   -2.103690   -1.505770
     37          1           0        5.511240   -3.449290    0.564310
     38          1           0        3.757510   -2.768800    2.213240
     39          1           0        2.377350   -0.760010    1.787310
     40          1           0       -3.230560    1.556880   -0.127550
     41          1           0       -2.165640   -1.482570    1.658210
     42          1           0       -3.210250   -3.721620    1.426410
     43          1           0       -4.918930   -4.118630   -0.350630
     44          1           0       -5.564740   -2.267600   -1.891670
 ---------------------------------------------------------------------
                    Distance matrix (angstroms):
                    1          2          3          4          5
     1  C    0.000000
     2  H    1.107271   0.000000
     3  C    1.541947   2.134068   0.000000
     4  H    2.147592   3.039665   1.107804   0.000000
     5  C    2.516307   2.733733   1.528954   2.166149   0.000000
     6  C    2.942032   3.298184   2.530559   2.796619   1.522164
     7  C    2.510239   2.755863   2.956981   3.338301   2.512023
     8  C    1.521222   2.159969   2.528756   2.765315   2.936090
     9  N    2.438328   2.640688   1.452212   2.085436   2.481690
    10  C    3.644421   3.848461   2.365976   2.696190   2.955873
    11  C    4.824355   4.865999   3.738554   4.078816   4.329714
    12  C    6.069005   6.207519   4.847530   4.977364   5.325307
    13  C    7.231955   7.277015   6.120189   6.296671   6.627591
    14  C    7.368233   7.249748   6.478178   6.819014   7.067914
    15  C    6.399709   6.154630   5.712903   6.212876   6.365827
    16  C    5.059396   4.855624   4.331605   4.878450   5.004516
    17  Cl   6.528737   6.879798   5.106099   4.938908   5.396305
    18  N    1.449061   2.026987   2.433600   2.698032   3.780571
    19  C    2.402567   3.051885   3.484506   3.463590   4.787411
    20  C    3.761527   4.273851   4.706368   4.618882   6.112285
    21  C    4.348125   4.572182   5.251328   5.364773   6.667706
    22  C    5.727786   5.945422   6.560172   6.603634   8.007712
    23  C    6.490268   6.880219   7.298913   7.153972   8.772953
    24  C    6.135283   6.706502   6.942944   6.639689   8.384832
    25  C    4.865719   5.517580   5.718226   5.407103   7.112061
    26  Cl   5.101102   5.955747   5.854718   5.315537   7.087056
    27  H    3.472965   3.737322   2.162266   2.495240   1.100698
    28  H    2.781087   2.536190   2.143144   3.063869   1.104031
    29  H    3.364815   3.997929   2.816713   2.629831   2.156683
    30  H    3.939683   4.109923   3.481023   3.801399   2.160481
    31  H    3.464618   3.763345   3.959193   4.160844   3.471919
    32  H    2.782875   2.569218   3.365987   4.021684   2.794923
    33  H    2.157590   3.074616   2.802103   2.580368   3.343103
    34  H    2.159121   2.501498   3.483973   3.766291   3.937784
    35  H    4.095300   4.432581   2.602601   2.671900   2.806664
    36  H    8.175503   8.280784   6.989932   7.064419   7.442533
    37  H    8.405172   8.252294   7.558622   7.897891   8.147749
    38  H    6.835958   6.462912   6.355224   6.942703   7.031381
    39  H    4.405071   4.037185   3.960460   4.677091   4.670866
    40  H    2.658551   3.399752   3.814640   3.682212   4.913883
    41  H    3.976578   3.960205   4.885127   5.214928   6.219423
    42  H    6.371401   6.439011   7.164104   7.314054   8.582454
    43  H    7.569263   7.934321   8.345778   8.187801   9.831308
    44  H    7.004432   7.648523   7.767140   7.356166   9.188532
                    6          7          8          9         10
     6  C    0.000000
     7  C    1.522324   0.000000
     8  C    2.512719   1.523889   0.000000
     9  N    3.826203   4.286950   3.791717   0.000000
    10  C    4.397381   5.183201   4.878788   1.272578   0.000000
    11  C    5.813653   6.548164   6.184345   2.398219   1.463097
    12  C    6.760925   7.665153   7.352409   3.641669   2.499164
    13  C    8.094110   8.944811   8.588538   4.814223   3.779513
    14  C    8.575799   9.248299   8.820230   5.059301   4.268276
    15  C    7.867036   8.363211   7.892125   4.266690   3.767500
    16  C    6.495334   6.986931   6.534977   2.891225   2.490512
    17  Cl   6.640084   7.767590   7.577080   4.282275   3.059251
    18  N    4.310621   3.839902   2.522166   2.751334   3.955870
    19  C    5.028871   4.350324   2.846470   3.946913   5.089853
    20  C    6.464399   5.810143   4.303935   4.854153   5.895351
    21  C    7.241730   6.611967   5.183103   5.048205   6.044724
    22  C    8.605559   7.983728   6.534607   6.247254   7.135169
    23  C    9.236220   8.605855   7.098411   7.129989   7.981683
    24  C    8.665506   8.028478   6.505430   7.019292   7.895589
    25  C    7.308974   6.660328   5.140176   5.972969   6.923232
    26  Cl   6.975973   6.356029   4.932587   6.449349   7.353013
    27  H    2.166211   3.469047   3.935081   2.744837   2.717084
    28  H    2.167275   2.803110   3.350826   2.681849   3.191356
    29  H    1.104531   2.156878   2.796664   4.166259   4.628264
    30  H    1.101165   2.169768   3.472427   4.633176   5.049247
    31  H    2.170733   1.100963   2.162388   5.338934   6.204954
    32  H    2.157105   1.103969   2.155282   4.477173   5.405613
    33  H    2.791733   2.159817   1.105145   4.120109   5.093971
    34  H    3.469339   2.166179   1.101801   4.591525   5.765437
    35  H    4.128585   5.184819   5.082672   2.073969   1.102167
    36  H    8.869819   9.810629   9.484563   5.753982   4.646326
    37  H    9.659181  10.316475   9.872996   6.131156   5.360690
    38  H    8.506669   8.857129   8.345746   4.932282   4.637510
    39  H    6.100110   6.385949   5.899153   2.609199   2.697095
    40  H    4.814447   3.968047   2.461540   4.601990   5.738389
    41  H    6.915927   6.303474   4.996906   4.540310   5.566482
    42  H    9.292762   8.690208   7.298973   6.677688   7.506800
    43  H   10.321162   9.697694   8.189991   8.106320   8.900662
    44  H    9.377608   8.751833   7.241128   7.915469   8.745848
                   11         12         13         14         15
    11  C    0.000000
    12  C    1.404539   0.000000
    13  C    2.436578   1.392641   0.000000
    14  C    2.805248   2.405380   1.391658   0.000000
    15  C    2.429599   2.781816   2.417335   1.395453   0.000000
    16  C    1.404042   2.409400   2.788350   2.408425   1.387558
    17  Cl   2.734102   1.736027   2.689463   3.988711   4.517421
    18  N    4.878137   6.098415   7.131018   7.154640   6.166195
    19  C    5.994560   7.137054   8.145258   8.176840   7.221375
    20  C    6.545298   7.606264   8.447700   8.363977   7.431853
    21  C    6.415182   7.499093   8.151119   7.848536   6.836654
    22  C    7.327218   8.294022   8.786205   8.397980   7.459618
    23  C    8.252192   9.119361   9.646661   9.378946   8.555241
    24  C    8.378727   9.233074   9.922163   9.835645   9.058366
    25  C    7.591403   8.525087   9.363333   9.368455   8.548699
    26  Cl   8.250003   9.112579  10.105652  10.317905   9.587952
    27  H    4.039698   4.800238   6.132280   6.746753   6.241484
    28  H    4.358070   5.459657   6.652466   6.922545   6.102311
    29  H    6.085999   6.896077   8.272853   8.887455   8.293044
    30  H    6.403965   7.280022   8.593478   9.101953   8.432308
    31  H    7.598402   8.672772   9.976844  10.322957   9.456598
    32  H    6.659085   7.856221   9.063774   9.236340   8.256977
    33  H    6.442981   7.487929   8.764413   9.120636   8.305303
    34  H    6.982537   8.213098   9.389502   9.503374   8.481531
    35  H    2.185374   2.711745   4.094066   4.860254   4.598736
    36  H    3.416951   2.148410   1.090875   2.167825   3.413270
    37  H    3.897679   3.393178   2.149824   1.092453   2.163361
    38  H    3.414152   3.873450   3.408971   2.164842   1.091664
    39  H    2.159204   3.401439   3.883061   3.401859   2.154599
    40  H    6.794910   7.916143   9.007260   9.124556   8.192109
    41  H    5.866205   7.045136   7.664438   7.254566   6.129932
    42  H    7.512037   8.460863   8.799075   8.251168   7.286625
    43  H    9.064834   9.860677  10.281924   9.960308   9.189021
    44  H    9.254518  10.032852  10.726237  10.705689  10.000744
                   16         17         18         19         20
    16  C    0.000000
    17  Cl   4.022181   0.000000
    18  N    4.946383   6.705181   0.000000
    19  C    6.070821   7.648529   1.272248   0.000000
    20  C    6.468036   8.230133   2.401023   1.463292   0.000000
    21  C    6.053653   8.387165   2.940422   2.490757   1.402365
    22  C    6.880978   9.225228   4.305068   3.766335   2.425778
    23  C    7.962597   9.873473   5.064284   4.262692   2.799406
    24  C    8.304273   9.767596   4.792159   3.773743   2.434057
    25  C    7.628550   8.981030   3.608587   2.492898   1.403283
    26  Cl   8.541278   9.262800   4.191338   3.031924   2.724122
    27  H    4.945960   4.626181   4.586610   5.603977   6.855635
    28  H    4.784071   5.791906   4.058933   5.166535   6.458168
    29  H    6.927032   6.539696   4.547720   5.100489   6.493179
    30  H    7.096556   7.087415   5.348940   6.093790   7.536567
    31  H    8.077560   8.660292   4.669037   4.953311   6.387042
    32  H    6.919965   8.141682   4.127091   4.754863   6.170679
    33  H    6.953279   7.515091   2.803550   2.832291   4.219717
    34  H    7.167459   8.556241   2.771275   2.769194   4.113567
    35  H    3.432053   2.612791   4.602956   5.661723   6.568072
    36  H    3.879111   2.805319   8.079412   9.053184   9.327855
    37  H    3.400724   4.839204   8.131689   9.119453   9.206949
    38  H    2.148070   5.609076   6.521185   7.536904   7.642377
    39  H    1.094956   4.892056   4.297685   5.449416   5.893357
    40  H    6.983551   8.264081   2.065365   1.099416   2.187278
    41  H    5.346051   8.084070   2.702982   2.697475   2.157554
    42  H    6.882284   9.549327   4.991053   4.639203   3.411575
    43  H    8.721067  10.642465   6.136570   5.355064   3.891776
    44  H    9.258808  10.450555   5.718267   4.640472   3.415479
                   21         22         23         24         25
    21  C    0.000000
    22  C    1.388528   0.000000
    23  C    2.408421   1.394335   0.000000
    24  C    2.791761   2.419217   1.392808   0.000000
    25  C    2.410588   2.780777   2.402683   1.391128   0.000000
    26  Cl   4.016161   4.516590   3.993469   2.697212   1.735935
    27  H    7.394008   8.685574   9.425143   9.036508   7.800356
    28  H    6.830915   8.177271   9.077923   8.826044   7.590062
    29  H    7.417908   8.735440   9.220089   8.519700   7.160378
    30  H    8.277395   9.650533  10.313964   9.754941   8.394936
    31  H    7.305209   8.645113   9.154787   8.461242   7.081550
    32  H    6.786508   8.165648   8.921460   8.483560   7.158868
    33  H    5.313544   6.593120   6.960823   6.188210   4.798002
    34  H    4.968879   6.277763   6.821238   6.243137   4.917303
    35  H    6.887846   7.996259   8.739346   8.517313   7.484928
    36  H    9.068653   9.645394  10.429890  10.679806  10.161796
    37  H    8.592068   9.018762   9.996917  10.549955  10.185276
    38  H    6.872022   7.397237   8.574531   9.221412   8.800725
    39  H    5.425908   6.339243   7.508849   7.874371   7.153837
    40  H    3.394247   4.567275   4.851977   4.115549   2.748967
    41  H    1.095315   2.158742   3.403690   3.886401   3.401299
    42  H    2.149797   1.091481   2.162576   3.409601   3.872213
    43  H    3.400160   2.161302   1.092399   2.150177   3.390511
    44  H    3.882511   3.414752   2.169353   1.090856   2.148611
                   26         27         28         29         30
    26  Cl   0.000000
    27  H    7.734533   0.000000
    28  H    7.743975   1.768029   0.000000
    29  H    6.612587   2.476004   3.075628   0.000000
    30  H    8.031391   2.499087   2.488720   1.766088   0.000000
    31  H    6.553768   4.312235   3.811088   2.481764   2.517545
    32  H    7.056834   3.799254   2.633654   3.068260   2.482015
    33  H    4.276109   4.162152   4.027782   2.621451   3.799345
    34  H    4.770182   4.979542   4.174566   3.798927   4.311583
    35  H    7.686435   2.196543   3.263414   4.199627   4.670922
    36  H   10.841194   6.842803   7.531804   8.969043   9.330905
    37  H   11.208670   7.820347   7.967494   9.979114  10.169706
    38  H    9.981050   7.025010   6.654897   9.012985   9.072824
    39  H    8.127517   4.844293   4.318156   6.645581   6.727757
    40  H    2.687212   5.776184   5.378095   4.788620   5.853674
    41  H    4.880629   6.966714   6.223965   7.241982   7.894481
    42  H    5.608046   9.241608   8.643343   9.505304  10.306234
    43  H    4.847361  10.458357  10.126385  10.293139  11.400146
    44  H    2.821673   9.808234   9.702878   9.133781  10.466193
                   31         32         33         34         35
    31  H    0.000000
    32  H    1.766186   0.000000
    33  H    2.481192   3.068898   0.000000
    34  H    2.495834   2.474988   1.772923   0.000000
    35  H    6.120407   5.529772   5.165341   6.080456   0.000000
    36  H   10.814522   9.981178   9.589745  10.324835   4.777456
    37  H   11.395902  10.274701  10.182120  10.525414   5.933875
    38  H    9.955159   8.649609   8.842547   8.821863   5.545392
    39  H    7.482803   6.213463   6.441708   6.421501   3.747858
    40  H    4.351636   4.494883   2.243826   2.211906   6.159828
    41  H    7.092503   6.324541   5.337502   4.812995   6.496092
    42  H    9.410074   8.768701   7.462849   7.039327   8.445612
    43  H   10.239798  10.003421   8.040479   7.896408   9.672019
    44  H    9.095647   9.281598   6.803136   6.975641   9.294171
                   36         37         38         39         40
    36  H    0.000000
    37  H    2.492697   0.000000
    38  H    4.320857   2.501521   0.000000
    39  H    4.973814   4.306881   2.474166   0.000000
    40  H    9.891077  10.097498   8.545404   6.362651   0.000000
    41  H    8.643814   7.999943   6.086555   4.601904   3.682560
    42  H    9.663379   8.768225   7.076485   6.334245   5.502524
    43  H   11.020715  10.491596   9.147463   8.311848   5.925519
    44  H   11.426704  11.406383  10.198325   8.881696   4.815305
                   41         42         43         44
    41  H    0.000000
    42  H    2.481589   0.000000
    43  H    4.308695   2.497013   0.000000
    44  H    4.977128   4.320585   2.493629   0.000000
 Stoichiometry    C20H20Cl2N2
 Framework group  C1[X(C20H20Cl2N2)]
 Deg. of freedom   126
 Full point group                 C1      NOp   1
 Largest Abelian subgroup         C1      NOp   1
 Largest concise Abelian subgroup C1      NOp   1
                         Standard orientation:                         
 ---------------------------------------------------------------------
 Center     Atomic      Atomic             Coordinates (Angstroms)
 Number     Number       Type             X           Y           Z
 ---------------------------------------------------------------------
      1          6           0        0.767752    1.867113   -0.934258
      2          1           0        0.467018    1.884233   -1.999769
      3          6           0       -0.540226    1.902440   -0.118447
      4          1           0       -0.259699    1.839648    0.951409
      5          6           0       -1.281964    3.214819   -0.373763
      6          6           0       -0.408369    4.429439   -0.093557
      7          6           0        0.884553    4.374330   -0.895297
      8          6           0        1.639422    3.076833   -0.632786
      9          7           0       -1.337125    0.734957   -0.451394
     10          6           0       -2.468864    0.549518    0.100179
     11          6           0       -3.309854   -0.607087   -0.209098
     12          6           0       -4.312710   -1.036324    0.675645
     13          6           0       -5.099127   -2.149237    0.388556
     14          6           0       -4.895535   -2.844566   -0.799627
     15          6           0       -3.915236   -2.426898   -1.700658
     16          6           0       -3.134920   -1.317667   -1.407350
     17         17           0       -4.584272   -0.207279    2.176553
     18          7           0        1.391455    0.570306   -0.763771
     19          6           0        2.595617    0.407063   -0.386996
     20          6           0        3.227504   -0.910888   -0.316672
     21          6           0        2.886251   -1.918441   -1.230461
     22          6           0        3.488204   -3.168053   -1.166169
     23          6           0        4.445094   -3.428240   -0.185949
     24          6           0        4.813240   -2.437965    0.721651
     25          6           0        4.211006   -1.186255    0.645669
     26         17           0        4.667546    0.032368    1.794581
     27          1           0       -2.193163    3.248815    0.242758
     28          1           0       -1.612859    3.217780   -1.427036
     29          1           0       -0.169509    4.467728    0.984158
     30          1           0       -0.965781    5.351394   -0.321274
     31          1           0        1.526690    5.236150   -0.656449
     32          1           0        0.651870    4.446643   -1.972040
     33          1           0        1.960036    3.045172    0.424356
     34          1           0        2.553963    3.039290   -1.246114
     35          1           0       -2.863664    1.248761    0.855139
     36          1           0       -5.859675   -2.464176    1.104369
     37          1           0       -5.512601   -3.718264   -1.021740
     38          1           0       -3.758306   -2.964351   -2.637807
     39          1           0       -2.381603   -0.973886   -2.123770
     40          1           0        3.220932    1.266062   -0.104475
     41          1           0        2.162348   -1.694679   -2.021416
     42          1           0        3.210123   -3.940134   -1.885816
     43          1           0        4.917679   -4.411293   -0.125891
     44          1           0        5.559191   -2.627861    1.494609
 ---------------------------------------------------------------------
 Rotational constants (GHZ):           0.2328257           0.1051597           0.0839302
 Leave Link  202 at Thu Dec  8 09:05:16 2022, MaxMem=  4194304000 cpu:               0.1 elap:               0.0
 (Enter /software/gaussian/G16-A.03/avx/g16/l301.exe)
 Standard basis: def2SVP (5D, 7F)
 Ernie: Thresh=  0.10000D-02 Tol=  0.10000D-05 Strict=F.
 There are   468 symmetry adapted cartesian basis functions of A   symmetry.
 There are   444 symmetry adapted basis functions of A   symmetry.
   444 basis functions,   764 primitive gaussians,   468 cartesian basis functions
    94 alpha electrons       94 beta electrons
       nuclear repulsion energy      2146.4541328024 Hartrees.
 IExCor= 1009 DFT=T Ex+Corr=PBE1PBE ExCW=0 ScaHFX=  0.250000
 ScaDFX=  0.750000  0.750000  1.000000  1.000000 ScalE2=  1.000000  1.000000
 IRadAn=      5 IRanWt=     -1 IRanGd=            0 ICorTp=0 IEmpDi=141
 NAtoms=   44 NActive=   44 NUniq=   44 SFac= 1.00D+00 NAtFMM=   60 NAOKFM=F Big=F
 Integral buffers will be    131072 words long.
 Raffenetti 2 integral format.
 Two-electron integral symmetry is turned on.
 R6Disp:  Grimme-D3(BJ) Dispersion energy=       -0.0524101287 Hartrees.
 Nuclear repulsion after empirical dispersion term =     2146.4017226737 Hartrees.
 Leave Link  301 at Thu Dec  8 09:05:16 2022, MaxMem=  4194304000 cpu:               0.6 elap:               0.1
 (Enter /software/gaussian/G16-A.03/avx/g16/l302.exe)
 NPDir=0 NMtPBC=     1 NCelOv=     1 NCel=       1 NClECP=     1 NCelD=      1
         NCelK=      1 NCelE2=     1 NClLst=     1 CellRange=     0.0.
 One-electron integrals computed using PRISM.
 One-electron integral symmetry used in STVInt
   1 Symmetry operations used in ECPInt.
 ECPInt:  NShTT=   21736 NPrTT=   80592 LenC2=   18220 LenP2D=   45137.
 LDataN:  DoStor=T MaxTD1= 4 Len=   56
 NBasis=   444 RedAO= T EigKep=  2.58D-04  NBF=   444
 NBsUse=   444 1.00D-06 EigRej= -1.00D+00 NBFU=   444
 Precomputing XC quadrature grid using
 IXCGrd= 4 IRadAn=           5 IRanWt=          -1 IRanGd=           0 AccXCQ= 0.00D+00.
 Generated NRdTot=       0 NPtTot=           0 NUsed=           0 NTot=          32
 NSgBfM=   454   454   454   454   454 MxSgAt=    44 MxSgA2=    44.
 Leave Link  302 at Thu Dec  8 09:05:17 2022, MaxMem=  4194304000 cpu:               8.0 elap:               1.0
 (Enter /software/gaussian/G16-A.03/avx/g16/l303.exe)
 DipDrv:  MaxL=1.
 Leave Link  303 at Thu Dec  8 09:05:17 2022, MaxMem=  4194304000 cpu:               0.6 elap:               0.1
 (Enter /software/gaussian/G16-A.03/avx/g16/l401.exe)
 ExpMin= 1.22D-01 ExpMax= 1.04D+04 ExpMxC= 1.57D+03 IAcc=3 IRadAn=         5 AccDes= 0.00D+00
 Harris functional with IExCor= 1009 and IRadAn=       5 diagonalized for initial guess.
 HarFok:  IExCor= 1009 AccDes= 0.00D+00 IRadAn=         5 IDoV= 1 UseB2=F ITyADJ=14
 ICtDFT=  3500011 ScaDFX=  1.000000  1.000000  1.000000  1.000000
 FoFCou: FMM=F IPFlag=           0 FMFlag=      100000 FMFlg1=           0
         NFxFlg=           0 DoJE=T BraDBF=F KetDBF=T FulRan=T
         wScrn=  0.000000 ICntrl=       500 IOpCl=  0 I1Cent=   200000004 NGrid=           0
         NMat0=    1 NMatS0=      1 NMatT0=    0 NMatD0=    1 NMtDS0=    0 NMtDT0=    0
 Petite list used in FoFCou.
 Harris En= -1801.84716696587    
 JPrj=0 DoOrth=F DoCkMO=F.
 Leave Link  401 at Thu Dec  8 09:05:22 2022, MaxMem=  4194304000 cpu:              39.5 elap:               5.0
 (Enter /software/gaussian/G16-A.03/avx/g16/l502.exe)
 Integral symmetry usage will be decided dynamically.
 Closed shell SCF:
 Using DIIS extrapolation, IDIIS=  1040.
 NGot=  4194304000 LenX=  4193857212 LenY=  4193637720
 Requested convergence on RMS density matrix=1.00D-08 within 128 cycles.
 Requested convergence on MAX density matrix=1.00D-06.
 Requested convergence on             energy=1.00D-06.
 No special actions if energy rises.
 Fock matrices will be formed incrementally for  20 cycles.
 Integral accuracy reduced to 1.0D-05 until final iterations.

 Cycle   1  Pass 0  IDiag  1:
 FoFJK:  IHMeth= 1 ICntrl=       0 DoSepK=F KAlg= 0 I1Cent=           0 FoldK=F
 IRaf= 760000000 NMat=       1 IRICut=       1 DoRegI=T DoRafI=F ISym2E= 0 IDoP0=0 IntGTp=1.
 FoFCou: FMM=F IPFlag=           0 FMFlag=      100000 FMFlg1=           0
         NFxFlg=           0 DoJE=F BraDBF=F KetDBF=F FulRan=T
         wScrn=  0.000000 ICntrl=         0 IOpCl=  0 I1Cent=           0 NGrid=           0
         NMat0=    1 NMatS0=      1 NMatT0=    0 NMatD0=    1 NMtDS0=    0 NMtDT0=    0
 Symmetry not used in FoFCou.
 E= -1801.32801583257    
 DIIS: error= 2.00D-02 at cycle   1 NSaved=   1.
 NSaved= 1 IEnMin= 1 EnMin= -1801.32801583257     IErMin= 1 ErrMin= 2.00D-02
 ErrMax= 2.00D-02  0.00D+00 EMaxC= 1.00D-01 BMatC= 4.48D-01 BMatP= 4.48D-01
 IDIUse=3 WtCom= 8.00D-01 WtEn= 2.00D-01
 Coeff-Com:  0.100D+01
 Coeff-En:   0.100D+01
 Coeff:      0.100D+01
 Gap=     0.381 Goal=   None    Shift=    0.000
 GapD=    0.381 DampG=1.000 DampE=0.500 DampFc=0.5000 IDamp=-1.
 Damping current iteration by 5.00D-01
 RMSDP=4.68D-03 MaxDP=1.21D-01              OVMax= 2.64D-01

 Cycle   2  Pass 0  IDiag  1:
 RMSU=  2.29D-03    CP:  9.73D-01
 E= -1801.54409315556     Delta-E=       -0.216077322992 Rises=F Damp=T
 DIIS: error= 5.82D-03 at cycle   2 NSaved=   2.
 NSaved= 2 IEnMin= 2 EnMin= -1801.54409315556     IErMin= 2 ErrMin= 5.82D-03
 ErrMax= 5.82D-03  0.00D+00 EMaxC= 1.00D-01 BMatC= 3.34D-02 BMatP= 4.48D-01
 IDIUse=3 WtCom= 9.42D-01 WtEn= 5.82D-02
 Coeff-Com:  0.918D-01 0.908D+00
 Coeff-En:   0.167D+00 0.833D+00
 Coeff:      0.962D-01 0.904D+00
 Gap=     0.318 Goal=   None    Shift=    0.000
 RMSDP=1.48D-03 MaxDP=6.54D-02 DE=-2.16D-01 OVMax= 2.04D-01

 Cycle   3  Pass 0  IDiag  1:
 RMSU=  1.44D-03    CP:  9.59D-01  8.98D-01
 E= -1801.81999800382     Delta-E=       -0.275904848266 Rises=F Damp=F
 DIIS: error= 5.41D-03 at cycle   3 NSaved=   3.
 NSaved= 3 IEnMin= 3 EnMin= -1801.81999800382     IErMin= 3 ErrMin= 5.41D-03
 ErrMax= 5.41D-03  0.00D+00 EMaxC= 1.00D-01 BMatC= 2.70D-02 BMatP= 3.34D-02
 IDIUse=3 WtCom= 9.46D-01 WtEn= 5.41D-02
 Coeff-Com:  0.398D-02 0.466D+00 0.530D+00
 Coeff-En:   0.000D+00 0.000D+00 0.100D+01
 Coeff:      0.377D-02 0.441D+00 0.556D+00
 Gap=     0.180 Goal=   None    Shift=    0.000
 RMSDP=7.06D-04 MaxDP=3.03D-02 DE=-2.76D-01 OVMax= 6.09D-02

 Cycle   4  Pass 0  IDiag  1:
 RMSU=  6.14D-04    CP:  9.62D-01  9.56D-01  7.78D-01
 E= -1801.83635200945     Delta-E=       -0.016354005626 Rises=F Damp=F
 DIIS: error= 4.00D-03 at cycle   4 NSaved=   4.
 NSaved= 4 IEnMin= 4 EnMin= -1801.83635200945     IErMin= 4 ErrMin= 4.00D-03
 ErrMax= 4.00D-03  0.00D+00 EMaxC= 1.00D-01 BMatC= 1.18D-02 BMatP= 2.70D-02
 IDIUse=3 WtCom= 9.60D-01 WtEn= 4.00D-02
 Coeff-Com: -0.148D-01 0.109D+00 0.398D+00 0.508D+00
 Coeff-En:   0.000D+00 0.000D+00 0.331D+00 0.669D+00
 Coeff:     -0.142D-01 0.105D+00 0.395D+00 0.514D+00
 Gap=     0.190 Goal=   None    Shift=    0.000
 RMSDP=3.32D-04 MaxDP=1.95D-02 DE=-1.64D-02 OVMax= 2.24D-02

 Cycle   5  Pass 0  IDiag  1:
 RMSU=  1.71D-04    CP:  9.59D-01  9.47D-01  8.49D-01  5.73D-01
 E= -1801.84762491589     Delta-E=       -0.011272906442 Rises=F Damp=F
 DIIS: error= 5.00D-04 at cycle   5 NSaved=   5.
 NSaved= 5 IEnMin= 5 EnMin= -1801.84762491589     IErMin= 5 ErrMin= 5.00D-04
 ErrMax= 5.00D-04  0.00D+00 EMaxC= 1.00D-01 BMatC= 3.45D-04 BMatP= 1.18D-02
 IDIUse=3 WtCom= 9.95D-01 WtEn= 5.00D-03
 Coeff-Com: -0.669D-02 0.209D-01 0.155D+00 0.249D+00 0.581D+00
 Coeff-En:   0.000D+00 0.000D+00 0.000D+00 0.000D+00 0.100D+01
 Coeff:     -0.666D-02 0.208D-01 0.154D+00 0.248D+00 0.583D+00
 Gap=     0.187 Goal=   None    Shift=    0.000
 RMSDP=7.40D-05 MaxDP=3.38D-03 DE=-1.13D-02 OVMax= 5.20D-03

 Cycle   6  Pass 0  IDiag  1:
 RMSU=  4.87D-05    CP:  9.59D-01  9.51D-01  8.56D-01  5.90D-01  6.88D-01
 E= -1801.84790029214     Delta-E=       -0.000275376243 Rises=F Damp=F
 DIIS: error= 2.45D-04 at cycle   6 NSaved=   6.
 NSaved= 6 IEnMin= 6 EnMin= -1801.84790029214     IErMin= 6 ErrMin= 2.45D-04
 ErrMax= 2.45D-04  0.00D+00 EMaxC= 1.00D-01 BMatC= 6.41D-05 BMatP= 3.45D-04
 IDIUse=3 WtCom= 9.98D-01 WtEn= 2.45D-03
 Coeff-Com: -0.243D-02 0.147D-02 0.535D-01 0.976D-01 0.353D+00 0.497D+00
 Coeff-En:   0.000D+00 0.000D+00 0.000D+00 0.000D+00 0.137D+00 0.863D+00
 Coeff:     -0.243D-02 0.147D-02 0.534D-01 0.973D-01 0.353D+00 0.497D+00
 Gap=     0.187 Goal=   None    Shift=    0.000
 RMSDP=2.75D-05 MaxDP=9.50D-04 DE=-2.75D-04 OVMax= 2.47D-03

 Cycle   7  Pass 0  IDiag  1:
 RMSU=  1.39D-05    CP:  9.59D-01  9.49D-01  8.59D-01  6.00D-01  7.29D-01
                    CP:  5.64D-01
 E= -1801.84796621195     Delta-E=       -0.000065919815 Rises=F Damp=F
 DIIS: error= 7.13D-05 at cycle   7 NSaved=   7.
 NSaved= 7 IEnMin= 7 EnMin= -1801.84796621195     IErMin= 7 ErrMin= 7.13D-05
 ErrMax= 7.13D-05  0.00D+00 EMaxC= 1.00D-01 BMatC= 3.64D-06 BMatP= 6.41D-05
 IDIUse=1 WtCom= 1.00D+00 WtEn= 0.00D+00
 Coeff-Com: -0.619D-03-0.116D-02 0.150D-01 0.290D-01 0.134D+00 0.256D+00
 Coeff-Com:  0.568D+00
 Coeff:     -0.619D-03-0.116D-02 0.150D-01 0.290D-01 0.134D+00 0.256D+00
 Coeff:      0.568D+00
 Gap=     0.187 Goal=   None    Shift=    0.000
 RMSDP=5.91D-06 MaxDP=3.11D-04 DE=-6.59D-05 OVMax= 4.41D-04

 Initial convergence to 1.0D-05 achieved.  Increase integral accuracy.
 Cycle   8  Pass 1  IDiag  1:
 E= -1801.84801898859     Delta-E=       -0.000052776642 Rises=F Damp=F
 DIIS: error= 1.11D-04 at cycle   1 NSaved=   1.
 NSaved= 1 IEnMin= 1 EnMin= -1801.84801898859     IErMin= 1 ErrMin= 1.11D-04
 ErrMax= 1.11D-04  0.00D+00 EMaxC= 1.00D-01 BMatC= 3.97D-06 BMatP= 3.97D-06
 IDIUse=3 WtCom= 9.99D-01 WtEn= 1.11D-03
 Coeff-Com:  0.100D+01
 Coeff-En:   0.100D+01
 Coeff:      0.100D+01
 Gap=     0.187 Goal=   None    Shift=    0.000
 RMSDP=5.91D-06 MaxDP=3.11D-04 DE=-5.28D-05 OVMax= 3.53D-04

 Cycle   9  Pass 1  IDiag  1:
 RMSU=  9.52D-05    CP:  1.00D+00
 E= -1801.84802299064     Delta-E=       -0.000004002043 Rises=F Damp=F
 DIIS: error= 2.20D-05 at cycle   2 NSaved=   2.
 NSaved= 2 IEnMin= 2 EnMin= -1801.84802299064     IErMin= 2 ErrMin= 2.20D-05
 ErrMax= 2.20D-05  0.00D+00 EMaxC= 1.00D-01 BMatC= 5.17D-07 BMatP= 3.97D-06
 IDIUse=1 WtCom= 1.00D+00 WtEn= 0.00D+00
 Coeff-Com:  0.158D+00 0.842D+00
 Coeff:      0.158D+00 0.842D+00
 Gap=     0.187 Goal=   None    Shift=    0.000
 RMSDP=4.11D-06 MaxDP=2.08D-04 DE=-4.00D-06 OVMax= 2.72D-04

 Cycle  10  Pass 1  IDiag  1:
 RMSU=  3.92D-06    CP:  1.00D+00  1.01D+00
 E= -1801.84802267973     Delta-E=        0.000000310909 Rises=F Damp=F
 DIIS: error= 2.92D-05 at cycle   3 NSaved=   3.
 NSaved= 3 IEnMin= 2 EnMin= -1801.84802299064     IErMin= 2 ErrMin= 2.20D-05
 ErrMax= 2.92D-05  0.00D+00 EMaxC= 1.00D-01 BMatC= 8.30D-07 BMatP= 5.17D-07
 IDIUse=1 WtCom= 1.00D+00 WtEn= 0.00D+00
 Coeff-Com: -0.112D-02 0.560D+00 0.441D+00
 Coeff:     -0.112D-02 0.560D+00 0.441D+00
 Gap=     0.188 Goal=   None    Shift=    0.000
 RMSDP=2.44D-06 MaxDP=1.17D-04 DE= 3.11D-07 OVMax= 1.78D-04

 Cycle  11  Pass 1  IDiag  1:
 RMSU=  8.79D-07    CP:  1.00D+00  1.02D+00  4.25D-01
 E= -1801.84802348639     Delta-E=       -0.000000806661 Rises=F Damp=F
 DIIS: error= 4.31D-06 at cycle   4 NSaved=   4.
 NSaved= 4 IEnMin= 4 EnMin= -1801.84802348639     IErMin= 4 ErrMin= 4.31D-06
 ErrMax= 4.31D-06  0.00D+00 EMaxC= 1.00D-01 BMatC= 2.50D-08 BMatP= 5.17D-07
 IDIUse=1 WtCom= 1.00D+00 WtEn= 0.00D+00
 Coeff-Com: -0.454D-02 0.332D+00 0.279D+00 0.394D+00
 Coeff:     -0.454D-02 0.332D+00 0.279D+00 0.394D+00
 Gap=     0.187 Goal=   None    Shift=    0.000
 RMSDP=4.89D-07 MaxDP=2.75D-05 DE=-8.07D-07 OVMax= 3.72D-05

 Cycle  12  Pass 1  IDiag  1:
 RMSU=  2.23D-07    CP:  1.00D+00  1.02D+00  4.44D-01  5.16D-01
 E= -1801.84802351016     Delta-E=       -0.000000023772 Rises=F Damp=F
 DIIS: error= 9.04D-07 at cycle   5 NSaved=   5.
 NSaved= 5 IEnMin= 5 EnMin= -1801.84802351016     IErMin= 5 ErrMin= 9.04D-07
 ErrMax= 9.04D-07  0.00D+00 EMaxC= 1.00D-01 BMatC= 5.85D-10 BMatP= 2.50D-08
 IDIUse=1 WtCom= 1.00D+00 WtEn= 0.00D+00
 Coeff-Com: -0.264D-02 0.174D+00 0.147D+00 0.232D+00 0.450D+00
 Coeff:     -0.264D-02 0.174D+00 0.147D+00 0.232D+00 0.450D+00
 Gap=     0.187 Goal=   None    Shift=    0.000
 RMSDP=7.53D-08 MaxDP=3.63D-06 DE=-2.38D-08 OVMax= 4.94D-06

 Cycle  13  Pass 1  IDiag  1:
 RMSU=  6.43D-08    CP:  1.00D+00  1.02D+00  4.46D-01  5.24D-01  8.35D-01
 E= -1801.84802351067     Delta-E=       -0.000000000513 Rises=F Damp=F
 DIIS: error= 2.45D-07 at cycle   6 NSaved=   6.
 NSaved= 6 IEnMin= 6 EnMin= -1801.84802351067     IErMin= 6 ErrMin= 2.45D-07
 ErrMax= 2.45D-07  0.00D+00 EMaxC= 1.00D-01 BMatC= 3.97D-11 BMatP= 5.85D-10
 IDIUse=1 WtCom= 1.00D+00 WtEn= 0.00D+00
 Coeff-Com: -0.712D-03 0.423D-01 0.361D-01 0.674D-01 0.219D+00 0.636D+00
 Coeff:     -0.712D-03 0.423D-01 0.361D-01 0.674D-01 0.219D+00 0.636D+00
 Gap=     0.187 Goal=   None    Shift=    0.000
 RMSDP=2.75D-08 MaxDP=8.87D-07 DE=-5.13D-10 OVMax= 2.71D-06

 Cycle  14  Pass 1  IDiag  1:
 RMSU=  2.15D-08    CP:  1.00D+00  1.02D+00  4.46D-01  5.30D-01  8.71D-01
                    CP:  7.87D-01
 E= -1801.84802351068     Delta-E=       -0.000000000010 Rises=F Damp=F
 DIIS: error= 1.22D-07 at cycle   7 NSaved=   7.
 NSaved= 7 IEnMin= 7 EnMin= -1801.84802351068     IErMin= 7 ErrMin= 1.22D-07
 ErrMax= 1.22D-07  0.00D+00 EMaxC= 1.00D-01 BMatC= 1.03D-11 BMatP= 3.97D-11
 IDIUse=1 WtCom= 1.00D+00 WtEn= 0.00D+00
 Coeff-Com:  0.378D-04-0.480D-02-0.383D-02 0.154D-02 0.315D-01 0.366D+00
 Coeff-Com:  0.609D+00
 Coeff:      0.378D-04-0.480D-02-0.383D-02 0.154D-02 0.315D-01 0.366D+00
 Coeff:      0.609D+00
 Gap=     0.187 Goal=   None    Shift=    0.000
 RMSDP=1.14D-08 MaxDP=4.16D-07 DE=-1.05D-11 OVMax= 8.63D-07

 Cycle  15  Pass 1  IDiag  1:
 RMSU=  7.38D-09    CP:  1.00D+00  1.02D+00  4.46D-01  5.34D-01  8.73D-01
                    CP:  8.61D-01  7.17D-01
 E= -1801.84802351071     Delta-E=       -0.000000000028 Rises=F Damp=F
 DIIS: error= 1.98D-08 at cycle   8 NSaved=   8.
 NSaved= 8 IEnMin= 8 EnMin= -1801.84802351071     IErMin= 8 ErrMin= 1.98D-08
 ErrMax= 1.98D-08  0.00D+00 EMaxC= 1.00D-01 BMatC= 7.29D-13 BMatP= 1.03D-11
 IDIUse=1 WtCom= 1.00D+00 WtEn= 0.00D+00
 Coeff-Com:  0.101D-03-0.734D-02-0.611D-02-0.660D-02-0.139D-01 0.112D+00
 Coeff-Com:  0.297D+00 0.625D+00
 Coeff:      0.101D-03-0.734D-02-0.611D-02-0.660D-02-0.139D-01 0.112D+00
 Coeff:      0.297D+00 0.625D+00
 Gap=     0.187 Goal=   None    Shift=    0.000
 RMSDP=2.96D-09 MaxDP=1.39D-07 DE=-2.82D-11 OVMax= 2.11D-07

 SCF Done:  E(RPBE1PBE) =  -1801.84802351     A.U. after   15 cycles
            NFock= 15  Conv=0.30D-08     -V/T= 2.0060
 KE= 1.791033141819D+03 PE=-8.523697850876D+03 EE= 2.784414962873D+03
 Leave Link  502 at Thu Dec  8 09:07:30 2022, MaxMem=  4194304000 cpu:            1018.7 elap:             127.4
 (Enter /software/gaussian/G16-A.03/avx/g16/l801.exe)
 DoSCS=F DFT=T ScalE2(SS,OS)=  1.000000  1.000000
 Range of M.O.s used for correlation:     1   444
 NBasis=   444 NAE=    94 NBE=    94 NFC=     0 NFV=     0
 NROrb=    444 NOA=    94 NOB=    94 NVA=   350 NVB=   350

 **** Warning!!: The largest alpha MO coefficient is  0.12025043D+02

 Leave Link  801 at Thu Dec  8 09:07:30 2022, MaxMem=  4194304000 cpu:               0.2 elap:               0.0
 (Enter /software/gaussian/G16-A.03/avx/g16/l1101.exe)
 Using compressed storage, NAtomX=    44.
 Will process     45 centers per pass.
   1 Symmetry operations used in ECPInt.
 ECPInt:  NShTT=   21736 NPrTT=   80592 LenC2=   18220 LenP2D=   45137.
 LDataN:  DoStor=T MaxTD1= 5 Len=  102
 R6Disp: Adding Grimme-D3(BJ) dispersion energy 1st derivatives to the gradient.
 Leave Link 1101 at Thu Dec  8 09:07:31 2022, MaxMem=  4194304000 cpu:               8.5 elap:               1.1
 (Enter /software/gaussian/G16-A.03/avx/g16/l1102.exe)
 Symmetrizing basis deriv contribution to polar:
 IMax=3 JMax=2 DiffMx= 0.00D+00
 Leave Link 1102 at Thu Dec  8 09:07:31 2022, MaxMem=  4194304000 cpu:               0.6 elap:               0.1
 (Enter /software/gaussian/G16-A.03/avx/g16/l1110.exe)
 Forming Gx(P) for the SCF density, NAtomX=    44.
 Integral derivatives from FoFJK, PRISM(SPDF).
 Do as many integral derivatives as possible in FoFJK.
 G2DrvN: MDV=    4194300696.
 G2DrvN: will do    45 centers at a time, making    1 passes.
 Calling FoFCou, ICntrl=  3107 FMM=F I1Cent=   0 AccDes= 0.00D+00.
 FoFJK:  IHMeth= 1 ICntrl=    3107 DoSepK=F KAlg= 0 I1Cent=           0 FoldK=F
 IRaf=         0 NMat=       1 IRICut=       1 DoRegI=T DoRafI=F ISym2E= 0 IDoP0=0 IntGTp=1.
 FoFCou: FMM=F IPFlag=           0 FMFlag=      100000 FMFlg1=           0
         NFxFlg=           0 DoJE=F BraDBF=F KetDBF=F FulRan=T
         wScrn=  0.000000 ICntrl=      3107 IOpCl=  0 I1Cent=           0 NGrid=           0
         NMat0=    1 NMatS0=      1 NMatT0=    0 NMatD0=    1 NMtDS0=    0 NMtDT0=    0
 Symmetry not used in FoFCou.
 End of G2Drv F.D. properties file   721 does not exist.
 End of G2Drv F.D. properties file   722 does not exist.
 End of G2Drv F.D. properties file   788 does not exist.
 Leave Link 1110 at Thu Dec  8 09:14:43 2022, MaxMem=  4194304000 cpu:            3452.4 elap:             431.6
 (Enter /software/gaussian/G16-A.03/avx/g16/l1002.exe)
 Minotr:  Closed shell wavefunction.
          IDoAtm=11111111111111111111111111111111111111111111
          Direct CPHF calculation.
          Differentiating once with respect to electric field.
                with respect to dipole field.
          Differentiating once with respect to nuclear coordinates.
          Requested convergence is 1.0D-08 RMS, and 1.0D-07 maximum.
          Secondary convergence is 1.0D-12 RMS, and 1.0D-12 maximum.
          NewPWx=T KeepS1=F KeepF1=F KeepIn=T MapXYZ=F SortEE=F KeepMc=T.
        13330 words used for storage of precomputed grid.
 Two-electron integrals replicated using symmetry.
          MDV=    4194304000 using IRadAn=       1.
          Solving linear equations simultaneously, MaxMat=     384.
 FoF2E skips out because all densities are zero.
 CalDSu exits because no D1Ps are significant.
 FoFJK:  IHMeth= 1 ICntrl=       0 DoSepK=F KAlg= 0 I1Cent=           0 FoldK=F
 IRaf= 730000000 NMat=     132 IRICut=     330 DoRegI=T DoRafI=T ISym2E= 2 IDoP0=3 IntGTp=3.
 FoFCou: FMM=F IPFlag=           0 FMFlag=      100000 FMFlg1=           0
         NFxFlg=           0 DoJE=F BraDBF=F KetDBF=F FulRan=T
         wScrn=  0.000000 ICntrl=         0 IOpCl=  0 I1Cent=           0 NGrid=           0
         NMat0=  132 NMatS0=    132 NMatT0=    0 NMatD0=  132 NMtDS0=    0 NMtDT0=    0
 Integrals replicated using symmetry in FoFCou.
 Raff kept on since  66.35% of shell-pairs survive, threshold=   0.20 IRatSp=66.
          There are   135 degrees of freedom in the 1st order CPHF.  IDoFFX=6 NUNeed=     3.
    132 vectors produced by pass  0 Test12= 3.29D-14 1.00D-09 XBig12= 2.61D+02 5.71D+00.
 AX will form   132 AO Fock derivatives at one time.
    132 vectors produced by pass  1 Test12= 3.29D-14 1.00D-09 XBig12= 4.49D+01 7.68D-01.
    132 vectors produced by pass  2 Test12= 3.29D-14 1.00D-09 XBig12= 5.72D-01 6.72D-02.
    132 vectors produced by pass  3 Test12= 3.29D-14 1.00D-09 XBig12= 3.54D-03 8.31D-03.
    132 vectors produced by pass  4 Test12= 3.29D-14 1.00D-09 XBig12= 1.01D-05 3.35D-04.
    107 vectors produced by pass  5 Test12= 3.29D-14 1.00D-09 XBig12= 1.37D-08 6.41D-06.
     32 vectors produced by pass  6 Test12= 3.29D-14 1.00D-09 XBig12= 1.70D-11 2.33D-07.
      3 vectors produced by pass  7 Test12= 3.29D-14 1.00D-09 XBig12= 1.70D-14 9.25D-09.
      1 vectors produced by pass  8 Test12= 3.29D-14 1.00D-09 XBig12= 2.91D-16 1.22D-09.
 InvSVY:  IOpt=1 It=  1 EMax= 1.95D-14
 Solved reduced A of dimension   803 with   135 vectors.
 FullF1:  Do perturbations      1 to       3.
 Isotropic polarizability for W=    0.000000      254.31 Bohr**3.
 End of Minotr F.D. properties file   721 does not exist.
 End of Minotr F.D. properties file   722 does not exist.
 End of Minotr F.D. properties file   788 does not exist.
 Leave Link 1002 at Thu Dec  8 09:28:26 2022, MaxMem=  4194304000 cpu:            6585.2 elap:             823.2
 (Enter /software/gaussian/G16-A.03/avx/g16/l601.exe)
 Copying SCF densities to generalized density rwf, IOpCl= 0 IROHF=0.

 **********************************************************************

            Population analysis using the SCF density.

 **********************************************************************

 Orbital symmetries:
       Occupied  (A) (A) (A) (A) (A) (A) (A) (A) (A) (A) (A) (A)
                 (A) (A) (A) (A) (A) (A) (A) (A) (A) (A) (A) (A)
                 (A) (A) (A) (A) (A) (A) (A) (A) (A) (A) (A) (A)
                 (A) (A) (A) (A) (A) (A) (A) (A) (A) (A) (A) (A)
                 (A) (A) (A) (A) (A) (A) (A) (A) (A) (A) (A) (A)
                 (A) (A) (A) (A) (A) (A) (A) (A) (A) (A) (A) (A)
                 (A) (A) (A) (A) (A) (A) (A) (A) (A) (A) (A) (A)
                 (A) (A) (A) (A) (A) (A) (A) (A) (A) (A)
       Virtual   (A) (A) (A) (A) (A) (A) (A) (A) (A) (A) (A) (A)
                 (A) (A) (A) (A) (A) (A) (A) (A) (A) (A) (A) (A)
                 (A) (A) (A) (A) (A) (A) (A) (A) (A) (A) (A) (A)
                 (A) (A) (A) (A) (A) (A) (A) (A) (A) (A) (A) (A)
                 (A) (A) (A) (A) (A) (A) (A) (A) (A) (A) (A) (A)
                 (A) (A) (A) (A) (A) (A) (A) (A) (A) (A) (A) (A)
                 (A) (A) (A) (A) (A) (A) (A) (A) (A) (A) (A) (A)
                 (A) (A) (A) (A) (A) (A) (A) (A) (A) (A) (A) (A)
                 (A) (A) (A) (A) (A) (A) (A) (A) (A) (A) (A) (A)
                 (A) (A) (A) (A) (A) (A) (A) (A) (A) (A) (A) (A)
                 (A) (A) (A) (A) (A) (A) (A) (A) (A) (A) (A) (A)
                 (A) (A) (A) (A) (A) (A) (A) (A) (A) (A) (A) (A)
                 (A) (A) (A) (A) (A) (A) (A) (A) (A) (A) (A) (A)
                 (A) (A) (A) (A) (A) (A) (A) (A) (A) (A) (A) (A)
                 (A) (A) (A) (A) (A) (A) (A) (A) (A) (A) (A) (A)
                 (A) (A) (A) (A) (A) (A) (A) (A) (A) (A) (A) (A)
                 (A) (A) (A) (A) (A) (A) (A) (A) (A) (A) (A) (A)
                 (A) (A) (A) (A) (A) (A) (A) (A) (A) (A) (A) (A)
                 (A) (A) (A) (A) (A) (A) (A) (A) (A) (A) (A) (A)
                 (A) (A) (A) (A) (A) (A) (A) (A) (A) (A) (A) (A)
                 (A) (A) (A) (A) (A) (A) (A) (A) (A) (A) (A) (A)
                 (A) (A) (A) (A) (A) (A) (A) (A) (A) (A) (A) (A)
                 (A) (A) (A) (A) (A) (A) (A) (A) (A) (A) (A) (A)
                 (A) (A) (A) (A) (A) (A) (A) (A) (A) (A) (A) (A)
                 (A) (A) (A) (A) (A) (A) (A) (A) (A) (A) (A) (A)
                 (A) (A) (A) (A) (A) (A) (A) (A) (A) (A) (A) (A)
                 (A) (A) (A) (A) (A) (A) (A) (A) (A) (A) (A) (A)
                 (A) (A) (A) (A) (A) (A) (A) (A) (A) (A) (A) (A)
                 (A) (A) (A) (A) (A) (A) (A) (A) (A) (A) (A) (A)
                 (A) (A)
 The electronic state is 1-A.
 Alpha  occ. eigenvalues -- -101.68608-101.68477 -14.37999 -14.37671 -10.30124
 Alpha  occ. eigenvalues --  -10.29910 -10.27409 -10.27142 -10.26320 -10.25829
 Alpha  occ. eigenvalues --  -10.25584 -10.25392 -10.25212 -10.25163 -10.25081
 Alpha  occ. eigenvalues --  -10.25030 -10.24718 -10.24686 -10.24548 -10.24444
 Alpha  occ. eigenvalues --  -10.23499 -10.23371 -10.23317 -10.23084  -9.53797
 Alpha  occ. eigenvalues --   -9.53667  -7.27917  -7.27786  -7.26955  -7.26924
 Alpha  occ. eigenvalues --   -7.26829  -7.26792  -0.95359  -0.93600  -0.91882
 Alpha  occ. eigenvalues --   -0.91290  -0.86145  -0.85952  -0.84797  -0.79403
 Alpha  occ. eigenvalues --   -0.78929  -0.75821  -0.75699  -0.75201  -0.74527
 Alpha  occ. eigenvalues --   -0.67480  -0.66586  -0.63745  -0.63252  -0.61716
 Alpha  occ. eigenvalues --   -0.60866  -0.58619  -0.57414  -0.56512  -0.52997
 Alpha  occ. eigenvalues --   -0.52693  -0.52424  -0.50945  -0.48711  -0.48112
 Alpha  occ. eigenvalues --   -0.47463  -0.47237  -0.46703  -0.46396  -0.45440
 Alpha  occ. eigenvalues --   -0.44692  -0.44603  -0.44496  -0.43241  -0.42173
 Alpha  occ. eigenvalues --   -0.41778  -0.41304  -0.40440  -0.38684  -0.38029
 Alpha  occ. eigenvalues --   -0.37572  -0.37384  -0.37360  -0.36572  -0.35488
 Alpha  occ. eigenvalues --   -0.35139  -0.35087  -0.34019  -0.33696  -0.32901
 Alpha  occ. eigenvalues --   -0.32506  -0.32435  -0.31607  -0.26812  -0.26715
 Alpha  occ. eigenvalues --   -0.25812  -0.25632  -0.25262  -0.23738
 Alpha virt. eigenvalues --   -0.04988  -0.04151  -0.01288  -0.01197   0.03720
 Alpha virt. eigenvalues --    0.04122   0.05055   0.05254   0.06541   0.07362
 Alpha virt. eigenvalues --    0.09326   0.09539   0.09703   0.11244   0.11356
 Alpha virt. eigenvalues --    0.12092   0.13004   0.13241   0.14158   0.14631
 Alpha virt. eigenvalues --    0.15200   0.15268   0.15363   0.15522   0.15819
 Alpha virt. eigenvalues --    0.16297   0.16906   0.17494   0.18348   0.19102
 Alpha virt. eigenvalues --    0.21503   0.21812   0.24541   0.24904   0.25493
 Alpha virt. eigenvalues --    0.25720   0.26863   0.27387   0.27906   0.28801
 Alpha virt. eigenvalues --    0.29241   0.29630   0.29871   0.30131   0.31112
 Alpha virt. eigenvalues --    0.31318   0.31432   0.32390   0.34812   0.35034
 Alpha virt. eigenvalues --    0.35697   0.36123   0.39229   0.39475   0.41185
 Alpha virt. eigenvalues --    0.41455   0.42715   0.43430   0.44233   0.44567
 Alpha virt. eigenvalues --    0.45141   0.45734   0.46255   0.47426   0.47548
 Alpha virt. eigenvalues --    0.47988   0.48085   0.48582   0.49067   0.49321
 Alpha virt. eigenvalues --    0.50252   0.50695   0.51040   0.51076   0.51632
 Alpha virt. eigenvalues --    0.53842   0.54357   0.54833   0.55079   0.57192
 Alpha virt. eigenvalues --    0.58287   0.59408   0.60048   0.60530   0.60858
 Alpha virt. eigenvalues --    0.61404   0.61638   0.61927   0.62282   0.62644
 Alpha virt. eigenvalues --    0.63401   0.63692   0.64608   0.64887   0.65229
 Alpha virt. eigenvalues --    0.65689   0.66352   0.66716   0.67457   0.67543
 Alpha virt. eigenvalues --    0.67699   0.68014   0.68311   0.68551   0.68757
 Alpha virt. eigenvalues --    0.69189   0.69527   0.69743   0.70559   0.70785
 Alpha virt. eigenvalues --    0.71205   0.71498   0.71915   0.72522   0.72657
 Alpha virt. eigenvalues --    0.72965   0.73234   0.73285   0.73871   0.74088
 Alpha virt. eigenvalues --    0.74670   0.75004   0.75100   0.75438   0.76072
 Alpha virt. eigenvalues --    0.77410   0.77850   0.78037   0.78524   0.79437
 Alpha virt. eigenvalues --    0.79629   0.79913   0.81665   0.82070   0.82841
 Alpha virt. eigenvalues --    0.84052   0.84110   0.86254   0.86732   0.86919
 Alpha virt. eigenvalues --    0.87369   0.88192   0.89977   0.91460   0.92923
 Alpha virt. eigenvalues --    0.93903   0.95597   0.97284   0.98489   0.99030
 Alpha virt. eigenvalues --    1.00025   1.00797   1.01878   1.04490   1.05036
 Alpha virt. eigenvalues --    1.06569   1.07268   1.07717   1.09265   1.11036
 Alpha virt. eigenvalues --    1.11830   1.13829   1.14708   1.16741   1.17176
 Alpha virt. eigenvalues --    1.19149   1.19647   1.19903   1.21508   1.23496
 Alpha virt. eigenvalues --    1.24101   1.24757   1.25351   1.26210   1.26681
 Alpha virt. eigenvalues --    1.27115   1.27552   1.27758   1.28207   1.29506
 Alpha virt. eigenvalues --    1.29776   1.30602   1.30912   1.31787   1.34830
 Alpha virt. eigenvalues --    1.35464   1.37909   1.40808   1.41216   1.42247
 Alpha virt. eigenvalues --    1.44097   1.45664   1.47399   1.48584   1.49965
 Alpha virt. eigenvalues --    1.51021   1.51912   1.53195   1.53752   1.54859
 Alpha virt. eigenvalues --    1.57022   1.64421   1.64770   1.67371   1.67525
 Alpha virt. eigenvalues --    1.68965   1.70556   1.70719   1.70821   1.71704
 Alpha virt. eigenvalues --    1.72980   1.73495   1.74104   1.74650   1.75179
 Alpha virt. eigenvalues --    1.75505   1.76530   1.76665   1.77428   1.77900
 Alpha virt. eigenvalues --    1.78381   1.78730   1.79350   1.80186   1.81014
 Alpha virt. eigenvalues --    1.81531   1.81716   1.82195   1.83138   1.83299
 Alpha virt. eigenvalues --    1.83729   1.84514   1.85503   1.86250   1.87051
 Alpha virt. eigenvalues --    1.87296   1.88369   1.90219   1.90900   1.92072
 Alpha virt. eigenvalues --    1.92616   1.92895   1.93698   1.94240   1.94905
 Alpha virt. eigenvalues --    1.95353   1.95457   1.95615   1.96524   1.97015
 Alpha virt. eigenvalues --    1.97681   1.98250   1.98964   1.99056   2.02263
 Alpha virt. eigenvalues --    2.03111   2.04154   2.05671   2.06770   2.07160
 Alpha virt. eigenvalues --    2.07933   2.08584   2.11385   2.12337   2.13005
 Alpha virt. eigenvalues --    2.14623   2.15509   2.16059   2.16261   2.17504
 Alpha virt. eigenvalues --    2.19924   2.20181   2.22290   2.22510   2.23073
 Alpha virt. eigenvalues --    2.26702   2.26761   2.27798   2.28291   2.29172
 Alpha virt. eigenvalues --    2.29296   2.29629   2.30134   2.30892   2.32276
 Alpha virt. eigenvalues --    2.32476   2.33162   2.34893   2.35940   2.36268
 Alpha virt. eigenvalues --    2.43789   2.44202   2.46638   2.46877   2.47757
 Alpha virt. eigenvalues --    2.49241   2.49758   2.51652   2.52011   2.53762
 Alpha virt. eigenvalues --    2.55863   2.57453   2.59107   2.60443   2.61211
 Alpha virt. eigenvalues --    2.61395   2.63065   2.63708   2.64744   2.66546
 Alpha virt. eigenvalues --    2.66869   2.67191   2.68622   2.71994   2.73798
 Alpha virt. eigenvalues --    2.73984   2.75993   2.76503   2.79424   2.80171
 Alpha virt. eigenvalues --    2.83315   2.83635   2.84664   2.85927   2.86194
 Alpha virt. eigenvalues --    2.87977   2.89613   2.91155   2.92489   2.94475
 Alpha virt. eigenvalues --    2.94867   2.95694   2.99204   3.00841   3.02312
 Alpha virt. eigenvalues --    3.03289   3.05685   3.08309   3.08745   3.09992
 Alpha virt. eigenvalues --    3.11952   3.15614   3.16876   3.19357   3.28379
 Alpha virt. eigenvalues --    3.31801   3.41919   3.44633   3.60925   3.61225
     Molecular Orbital Coefficients:
                          90        91        92        93        94
                           O         O         O         O         O
     Eigenvalues --    -0.26715  -0.25812  -0.25632  -0.25262  -0.23738
   1 1   C  1S          0.00334   0.02944   0.00445   0.01972   0.00554
   2        2S         -0.00230  -0.06466  -0.00662  -0.05151  -0.01364
   3        3S         -0.04824  -0.17129  -0.07866  -0.06286   0.05350
   4        4PX        -0.00273   0.08361   0.02181   0.07254  -0.04544
   5        4PY         0.02036   0.10529  -0.02397   0.05988   0.14482
   6        4PZ         0.03684  -0.02467   0.02750  -0.07634   0.04826
   7        5PX        -0.00142   0.02412   0.03660   0.01933  -0.06582
   8        5PY         0.00204  -0.00328  -0.04936  -0.00860   0.04157
   9        5PZ        -0.00699  -0.04538  -0.00556  -0.01787   0.02219
  10        6D 0       -0.00407  -0.00279  -0.00163   0.00489  -0.00319
  11        6D+1       -0.00281   0.00077  -0.00408   0.00527  -0.00544
  12        6D-1        0.00401   0.00597   0.00476  -0.00223   0.00576
  13        6D+2       -0.00127  -0.01063   0.00116  -0.00678  -0.00954
  14        6D-2        0.00006   0.00662  -0.00316   0.00632   0.01582
  15 2   H  1S         -0.05260  -0.03650  -0.04162   0.05570  -0.06316
  16        2S         -0.03648   0.01151  -0.00681   0.07589  -0.05472
  17        3PX        -0.00030   0.00208  -0.00091   0.00202   0.00051
  18        3PY        -0.00046   0.00093  -0.00117   0.00180   0.00192
  19        3PZ        -0.00172  -0.00230  -0.00138   0.00079  -0.00156
  20 3   C  1S         -0.00240   0.02501  -0.00165   0.02496  -0.00706
  21        2S          0.00467  -0.06560  -0.00336  -0.06506   0.02665
  22        3S          0.03965  -0.03774   0.07405  -0.10226  -0.09542
  23        4PX         0.00837  -0.03363   0.06161  -0.03585  -0.02340
  24        4PY         0.03374   0.13466   0.01368   0.04463  -0.09427
  25        4PZ        -0.03749   0.05528   0.02984   0.11241  -0.02227
  26        5PX         0.02117   0.02145   0.05849  -0.01321  -0.00351
  27        5PY         0.01095   0.04183   0.04099   0.01976  -0.04235
  28        5PZ        -0.01734   0.01943  -0.01030   0.04520   0.04915
  29        6D 0       -0.00396   0.00085   0.00519   0.00876  -0.00557
  30        6D+1       -0.00294   0.00361   0.00449   0.00948  -0.00148
  31        6D-1       -0.00227  -0.00023   0.00488   0.00518  -0.00376
  32        6D+2       -0.00322  -0.01302   0.00178  -0.00336   0.00860
  33        6D-2       -0.00151  -0.00752  -0.00190  -0.00307   0.01215
  34 4   H  1S         -0.04712   0.01463   0.06040   0.10416  -0.03425
  35        2S         -0.03871   0.02961   0.02727   0.10063  -0.04550
  36        3PX        -0.00029  -0.00268   0.00008  -0.00148   0.00002
  37        3PY         0.00018   0.00298   0.00145   0.00224  -0.00286
  38        3PZ         0.00144   0.00098  -0.00173  -0.00183   0.00066
  39 5   C  1S         -0.00773  -0.01682   0.00797   0.00307   0.00749
  40        2S          0.01802   0.03478  -0.01890  -0.01013  -0.02040
  41        3S          0.03791   0.10988  -0.06966   0.00280   0.03782
  42        4PX         0.00265   0.05425  -0.00966   0.03478  -0.02324
  43        4PY        -0.04410  -0.10327   0.01865   0.00549   0.08443
  44        4PZ         0.00610  -0.00945  -0.01535  -0.01774  -0.00712
  45        5PX         0.01220   0.06143  -0.02340   0.01987  -0.02085
  46        5PY        -0.00878  -0.05057   0.00584  -0.02235   0.01866
  47        5PZ         0.00218   0.01120  -0.00028   0.00846  -0.02907
  48        6D 0       -0.00068   0.00118   0.00123   0.00210  -0.00109
  49        6D+1       -0.00092   0.00292   0.00133   0.00396  -0.00082
  50        6D-1        0.00034  -0.00289  -0.00046  -0.00281   0.00243
  51        6D+2        0.00061  -0.00075   0.00110  -0.00168  -0.00093
  52        6D-2       -0.00246  -0.00451   0.00014   0.00125   0.00334
  53 6   C  1S          0.00488   0.01316   0.00149   0.00125  -0.00415
  54        2S         -0.01032  -0.02953  -0.00404  -0.00375   0.01087
  55        3S         -0.03970  -0.07543   0.01742   0.01498   0.01941
  56        4PX         0.00569  -0.01015  -0.00357  -0.01926  -0.01599
  57        4PY         0.02807   0.06106   0.00375  -0.00463  -0.04992
  58        4PZ         0.00908   0.01287  -0.00099  -0.00702   0.01095
  59        5PX         0.00743   0.01372  -0.00517  -0.00707  -0.02167
  60        5PY         0.02405   0.05183  -0.00727  -0.00589  -0.03025
  61        5PZ         0.01108   0.00963  -0.01079  -0.01270   0.01551
  62        6D 0       -0.00016  -0.00119  -0.00009  -0.00069   0.00021
  63        6D+1       -0.00034   0.00094   0.00059   0.00142   0.00055
  64        6D-1       -0.00058  -0.00123   0.00029   0.00001   0.00039
  65        6D+2       -0.00112  -0.00436   0.00028  -0.00124   0.00246
  66        6D-2       -0.00121  -0.00246  -0.00081   0.00048   0.00457
  67 7   C  1S          0.00040   0.00768  -0.00364   0.00562   0.00684
  68        2S         -0.00181  -0.01747   0.00791  -0.01213  -0.01677
  69        3S          0.01285  -0.05489   0.00569  -0.05325  -0.02772
  70        4PX         0.00118   0.02520   0.00851   0.01713  -0.00525
  71        4PY         0.00128   0.02986  -0.01909   0.02564   0.06832
  72        4PZ        -0.00638  -0.00670  -0.00066   0.00702   0.00073
  73        5PX        -0.00418   0.00033   0.00932   0.00748  -0.01980
  74        5PY        -0.00015   0.03053  -0.00912   0.02411   0.04626
  75        5PZ        -0.00537  -0.01628  -0.00412  -0.00158  -0.00230
  76        6D 0       -0.00006  -0.00126   0.00004  -0.00114  -0.00125
  77        6D+1       -0.00022   0.00042   0.00002   0.00056  -0.00113
  78        6D-1        0.00034   0.00168  -0.00036   0.00087   0.00148
  79        6D+2       -0.00112  -0.00443  -0.00002  -0.00179  -0.00359
  80        6D-2       -0.00039   0.00148  -0.00079   0.00216   0.00606
  81 8   C  1S         -0.00417  -0.01614   0.00235  -0.00682  -0.01475
  82        2S          0.00944   0.03308  -0.00576   0.01371   0.03404
  83        3S          0.03170   0.16100   0.02673   0.06896   0.07514
  84        4PX        -0.02005  -0.08242  -0.00900  -0.03571  -0.06155
  85        4PY        -0.01543  -0.07969   0.01724  -0.04573  -0.12373
  86        4PZ        -0.00487  -0.01766  -0.00539  -0.01171  -0.02904
  87        5PX        -0.01692  -0.08574  -0.01869  -0.04038  -0.05444
  88        5PY        -0.02015  -0.05711  -0.00246  -0.02465  -0.06698
  89        5PZ         0.00816  -0.00860   0.00423  -0.02752  -0.01397
  90        6D 0       -0.00128  -0.00101  -0.00128   0.00117  -0.00198
  91        6D+1       -0.00060   0.00225  -0.00136   0.00255  -0.00007
  92        6D-1       -0.00086   0.00123  -0.00077   0.00253   0.00029
  93        6D+2        0.00048  -0.00109  -0.00080  -0.00153   0.00353
  94        6D-2        0.00062   0.00266  -0.00086   0.00151   0.00458
  95 9   N  1S          0.00826   0.05612   0.01962   0.03036  -0.04654
  96        2S          0.01853   0.11192   0.03799   0.05476  -0.09997
  97        3S          0.01184   0.18586   0.07349   0.13824  -0.10130
  98        4PX        -0.05446  -0.15319   0.00555  -0.01349   0.10606
  99        4PY         0.08269   0.25738   0.02569   0.03888  -0.22895
 100        4PZ        -0.06321   0.11576   0.17884   0.24576  -0.13793
 101        5PX         0.04338   0.12009  -0.00548   0.01016  -0.06202
 102        5PY        -0.05895  -0.18603  -0.01081  -0.02236   0.16812
 103        5PZ         0.04591  -0.08131  -0.12508  -0.17181   0.09918
 104        6D 0        0.00442   0.00484  -0.00442  -0.00526  -0.00375
 105        6D+1       -0.00167   0.00456   0.00352   0.00663  -0.00356
 106        6D-1       -0.00242  -0.00815  -0.00313  -0.00280   0.00896
 107        6D+2       -0.00043   0.00017   0.00207   0.00123  -0.00042
 108        6D-2        0.00310   0.00270  -0.00117  -0.00388  -0.00495
 109 10  C  1S          0.00141   0.02057   0.00536   0.01365  -0.01580
 110        2S         -0.00300  -0.05923  -0.01700  -0.03993   0.04611
 111        3S         -0.00545   0.06717   0.02910   0.04407  -0.07329
 112        4PX         0.03253  -0.04545  -0.04938  -0.09286   0.02167
 113        4PY        -0.03645   0.01122   0.05055   0.06808   0.00226
 114        4PZ         0.05529   0.10237  -0.00328  -0.00985  -0.09484
 115        5PX         0.03193  -0.00305  -0.03099  -0.06355   0.01279
 116        5PY        -0.02719  -0.04622   0.01290   0.00494   0.07265
 117        5PZ         0.02965   0.02615  -0.03892  -0.05889  -0.02359
 118        6D 0       -0.00209   0.00478   0.00760   0.01006  -0.00566
 119        6D+1        0.00373  -0.00194  -0.00863  -0.01036   0.00446
 120        6D-1        0.00302   0.00981  -0.00052   0.00017  -0.00786
 121        6D+2        0.00627   0.00774  -0.00885  -0.01103  -0.00370
 122        6D-2       -0.00370  -0.01705  -0.00566  -0.00679   0.01658
 123 11  C  1S          0.00176   0.01578   0.00784   0.00915  -0.01643
 124        2S         -0.00607  -0.04208  -0.01791  -0.02114   0.04288
 125        3S          0.00544  -0.10002  -0.08939  -0.12485   0.11612
 126        4PX        -0.06204  -0.14119   0.07216   0.07949   0.08156
 127        4PY         0.04524   0.02850  -0.12224  -0.13481   0.02283
 128        4PZ        -0.04657  -0.08481   0.06223   0.06832   0.04061
 129        5PX        -0.04974  -0.14625   0.03974   0.02335   0.10370
 130        5PY         0.04057   0.01125  -0.08640  -0.11056   0.04936
 131        5PZ        -0.01951  -0.01921   0.07132   0.08949   0.01516
 132        6D 0        0.00913  -0.00127   0.00325   0.00224  -0.00097
 133        6D+1        0.00685   0.00069  -0.00069  -0.00198  -0.00142
 134        6D-1       -0.00374   0.00478  -0.00374  -0.00374  -0.00290
 135        6D+2        0.00053   0.00421  -0.00619  -0.00768  -0.00267
 136        6D-2        0.00488  -0.00258   0.00100   0.00007   0.00110
 137 12  C  1S          0.00194   0.00199  -0.00022   0.00017  -0.00118
 138        2S         -0.00472  -0.00730  -0.00109  -0.00250   0.00555
 139        3S         -0.01315  -0.04553  -0.00516  -0.02060   0.03553
 140        4PX         0.07949  -0.07414   0.12050   0.12176   0.01703
 141        4PY        -0.07592   0.08022  -0.09330  -0.09492  -0.02892
 142        4PZ         0.05834  -0.06425   0.06878   0.06902   0.02779
 143        5PX         0.04065  -0.07404   0.07508   0.06895   0.02622
 144        5PY        -0.05320   0.04448  -0.06651  -0.06916  -0.02255
 145        5PZ         0.03884  -0.02156   0.04512   0.05706   0.00231
 146        6D 0       -0.00134   0.00773  -0.00402  -0.00396  -0.00404
 147        6D+1       -0.00558  -0.00000  -0.00412  -0.00379   0.00148
 148        6D-1       -0.00353  -0.00388   0.00371   0.00425   0.00162
 149        6D+2       -0.01221  -0.00295   0.00256   0.00382   0.00171
 150        6D-2       -0.00289   0.00028  -0.00439  -0.00448   0.00120
 151 13  C  1S          0.00027   0.00441   0.00307   0.00348  -0.00415
 152        2S         -0.00066  -0.01114  -0.00769  -0.00858   0.01016
 153        3S         -0.00791  -0.00343  -0.00906  -0.00500  -0.00366
 154        4PX         0.17161  -0.00747   0.02059   0.00486  -0.00826
 155        4PY        -0.15045  -0.01516  -0.03264  -0.01946   0.02634
 156        4PZ         0.11526  -0.00812   0.01509   0.00390  -0.00474
 157        5PX         0.12071   0.00355   0.01518   0.00528  -0.01563
 158        5PY        -0.10895  -0.01157  -0.01935  -0.01217   0.01536
 159        5PZ         0.08022  -0.01227   0.01119  -0.00194   0.00023
 160        6D 0       -0.00280  -0.00356   0.00397   0.00460   0.00167
 161        6D+1       -0.00032  -0.00452   0.00469   0.00519   0.00210
 162        6D-1        0.00318  -0.00031   0.00043   0.00018   0.00013
 163        6D+2        0.00424  -0.00515   0.00710   0.00731   0.00165
 164        6D-2       -0.00113  -0.00260   0.00341   0.00388   0.00093
 165 14  C  1S          0.00025   0.00174   0.00129   0.00183  -0.00182
 166        2S         -0.00066  -0.00295  -0.00263  -0.00356   0.00339
 167        3S          0.00115  -0.00757   0.00380   0.00160   0.01988
 168        4PX         0.07011   0.07323  -0.08704  -0.10312  -0.03117
 169        4PY        -0.06310  -0.06866   0.07343   0.08504   0.03179
 170        4PZ         0.05121   0.06346  -0.05373  -0.06188  -0.03112
 171        5PX         0.05339   0.05647  -0.06015  -0.06998  -0.02139
 172        5PY        -0.04490  -0.05322   0.05223   0.06012   0.03032
 173        5PZ         0.03739   0.03624  -0.04135  -0.05279  -0.01989
 174        6D 0        0.01038  -0.00175   0.00419   0.00322  -0.00058
 175        6D+1        0.00609  -0.00071   0.00124   0.00077  -0.00020
 176        6D-1       -0.00596   0.00222  -0.00359  -0.00314  -0.00007
 177        6D+2       -0.00190   0.00288  -0.00348  -0.00343  -0.00064
 178        6D-2        0.00580  -0.00106   0.00186   0.00148  -0.00013
 179 15  C  1S          0.00076   0.00135   0.00036  -0.00026  -0.00141
 180        2S         -0.00171  -0.00119  -0.00020   0.00209   0.00185
 181        3S         -0.01293   0.01200   0.01026   0.02006  -0.03163
 182        4PX        -0.10638   0.06669  -0.09710  -0.08807  -0.00804
 183        4PY         0.09108  -0.06791   0.08314   0.07924   0.01517
 184        4PZ        -0.07452   0.03607  -0.06931  -0.06535   0.00081
 185        5PX        -0.08134   0.05443  -0.06232  -0.05011  -0.00746
 186        5PY         0.06339  -0.04006   0.06569   0.06674  -0.00003
 187        5PZ        -0.05866   0.01354  -0.05612  -0.05892  -0.00168
 188        6D 0        0.00025   0.00327  -0.00239  -0.00246  -0.00155
 189        6D+1       -0.00373   0.00055  -0.00043   0.00018   0.00006
 190        6D-1       -0.00406  -0.00132   0.00342   0.00439   0.00014
 191        6D+2       -0.01168  -0.00484   0.00295   0.00455   0.00366
 192        6D-2       -0.00174  -0.00011  -0.00157  -0.00158   0.00062
 193 16  C  1S         -0.00037   0.00120   0.00194   0.00338  -0.00104
 194        2S         -0.00035  -0.00332  -0.00434  -0.00735   0.00412
 195        3S          0.02187   0.01350   0.01488   0.01044   0.00222
 196        4PX        -0.17135  -0.03390  -0.00842   0.00797   0.04052
 197        4PY         0.15195   0.02482   0.00041  -0.02181  -0.03037
 198        4PZ        -0.10479   0.01776   0.01347   0.03255  -0.00712
 199        5PX        -0.11947  -0.01426  -0.00473   0.01042   0.00543
 200        5PY         0.09773   0.03925   0.02292   0.02124  -0.04907
 201        5PZ        -0.06481   0.06066   0.03971   0.07131  -0.02479
 202        6D 0       -0.00167  -0.00401   0.00541   0.00575   0.00128
 203        6D+1        0.00077  -0.00506   0.00468   0.00515   0.00227
 204        6D-1        0.00329   0.00092  -0.00061  -0.00076  -0.00022
 205        6D+2        0.00586  -0.00326   0.00637   0.00582  -0.00072
 206        6D-2       -0.00073  -0.00374   0.00367   0.00406   0.00135
 207 17  Cl 1S         -0.00010  -0.00062  -0.00037  -0.00048   0.00062
 208        2S          0.00065   0.00411   0.00248   0.00318  -0.00417
 209        3S         -0.00121  -0.00821  -0.00535  -0.00626   0.00831
 210        4S          0.00072  -0.00041   0.00286  -0.00057   0.00139
 211        5PX        -0.04634   0.02135  -0.05633  -0.05572   0.00369
 212        5PY         0.03742  -0.05563   0.03099   0.02659   0.02626
 213        5PZ        -0.03127   0.02634  -0.03137  -0.02946  -0.00658
 214        6PX        -0.08065   0.03645  -0.09807  -0.09706   0.00698
 215        6PY         0.06502  -0.09713   0.05358   0.04579   0.04600
 216        6PZ        -0.05436   0.04604  -0.05416  -0.05084  -0.01171
 217        7PX        -0.11629   0.05978  -0.14465  -0.14357   0.00616
 218        7PY         0.09513  -0.13961   0.08117   0.07207   0.06687
 219        7PZ        -0.07964   0.06689  -0.08374  -0.07812  -0.01711
 220        8D 0       -0.00466   0.00369  -0.00763  -0.00821  -0.00025
 221        8D+1       -0.00383   0.00313  -0.00543  -0.00570  -0.00073
[...]
 0302,0.00002029,0.04817862,-0.05219786,0.04149635,-0.00026769,0.000160
 70,-0.00028764,-0.00002536,-0.00010865,-0.00003133,0.00004667,-0.00006
 396,0.00001449,-0.00000196,0.00001006,-0.00000231,-0.00001178,0.000002
 47,-0.00001467,0.00000672,0.00000016,0.00000836,-0.00002742,0.00001481
 ,-0.00001846,0.00005473,0.00008286,0.00001857,0.00005571,0.00007460,-0
 .00002838,-0.00004778,0.00002239,0.00000696,0.00002174,-0.00000912,-0.
 00000316,-0.00001179,-0.00001937,0.00003444,0.00000642,0.00000315,-0.0
 0001176,-0.00000498,-0.00000034,0.00000766,0.00002231,0.00000839,-0.00
 001771,-0.00001601,0.00002699,0.00003581,0.00001052,0.00001187,-0.0000
 2789,0.00139162,-0.00105402,0.00068215,-0.00424165,-0.00061763,0.00145
 958,-0.00062552,-0.00014064,-0.00507142,-0.17139777,-0.03531296,-0.145
 36914,-0.00313128,0.00001309,-0.00926401,0.00355544,-0.00371030,-0.002
 39793,-0.00014323,0.00021625,0.00086122,0.00370390,-0.00031105,-0.0032
 3547,-0.00010908,-0.00018945,-0.00012875,0.00000060,0.00000064,0.00000
 172,0.00000070,-0.00000313,0.00000259,-0.00000298,-0.00000056,0.000000
 70,-0.00000012,0.00000733,0.00000005,0.00000336,0.00001844,0.00000120,
 0.00000808,-0.00000179,0.00000772,-0.00001134,-0.00000208,0.00001687,-
 0.00001678,0.00001233,-0.00001375,0.00001064,0.00000309,-0.00001912,0.
 00000098,0.00000002,-0.00000207,0.00000313,-0.00000356,-0.00000249,-0.
 00001009,0.00000280,-0.00000270,-0.00003899,-0.00002215,-0.00002592,0.
 00010326,0.00031465,0.00000802,0.17368621,-0.00061119,-0.00021642,-0.0
 0036576,-0.00002708,-0.00006689,0.00005761,-0.00015195,0.00002501,0.00
 009280,0.00002254,-0.00000896,-0.00000671,0.00005454,-0.00003124,-0.00
 002523,-0.00001623,-0.00000523,0.00002227,-0.00007664,0.00002663,-0.00
 002779,0.00013279,0.00017394,0.00008915,0.00016752,-0.00004184,-0.0000
 4837,-0.00009379,0.00009430,-0.00000314,0.00000794,-0.00000462,-0.0000
 0218,-0.00001820,0.00000067,0.00001683,0.00000257,-0.00001628,0.000014
 50,0.00001820,-0.00002621,-0.00000523,-0.00000495,0.00000201,-0.000026
 03,0.00000581,-0.00001737,0.00000015,0.00000444,-0.00000929,0.00000375
 ,0.00074030,0.00021050,-0.00088583,0.00212605,0.00058695,0.00017180,0.
 01468764,0.00656919,0.01632755,-0.03489717,-0.06427370,-0.03378624,-0.
 01862690,0.00075079,-0.01969261,-0.00345297,-0.00404767,0.00114743,0.0
 0029482,-0.00101538,0.00037200,-0.00091392,-0.00202924,0.00299601,0.00
 094119,-0.00050318,0.00126953,0.00002259,0.00002131,-0.00000508,-0.000
 00915,0.00000237,0.00000190,-0.00000196,-0.00000455,-0.00000760,0.0000
 1626,0.00000873,-0.00000170,0.00001544,0.00004829,0.00000206,0.0000059
 1,-0.00000330,0.00000181,0.00000417,-0.00000160,-0.00001937,0.00001704
 ,-0.00002060,-0.00000427,0.00000908,-0.00000296,-0.00001153,0.00000311
 ,-0.00000086,0.00000088,0.00000592,-0.00000045,-0.00000036,0.00001686,
 -0.00000457,0.00001456,-0.00001501,0.00003892,-0.00000706,-0.00027362,
 0.00017860,0.00027759,0.03925275,0.06310560,0.00051239,0.00000894,0.00
 047596,0.00001422,0.00006800,-0.00002742,0.00000869,0.00003884,-0.0000
 4081,0.00000197,0.00000049,-0.00000650,-0.00000531,0.00000928,0.000024
 50,-0.00000067,0.00000018,-0.00001744,0.00005604,-0.00003689,0.0000296
 7,-0.00012995,-0.00023525,-0.00007425,-0.00010140,-0.00007688,-0.00003
 246,0.00007561,-0.00002848,-0.00000279,-0.00001070,-0.00000101,-0.0000
 1325,0.00001829,0.00001525,-0.00003859,-0.00000279,0.00000252,-0.00000
 006,-0.00000204,0.00000322,-0.00000423,-0.00000972,-0.00002055,0.00001
 414,-0.00001410,-0.00000315,-0.00001139,-0.00000953,-0.00000661,0.0000
 1798,0.00000832,-0.00022174,0.00027798,0.00111347,-0.00168491,-0.00136
 722,-0.01282454,-0.00526520,-0.00831728,-0.14646650,-0.03306986,-0.203
 76952,-0.00051479,0.00269128,0.00325285,-0.00250896,0.00078845,0.00352
 053,0.00081001,0.00015664,-0.00006986,-0.00246496,0.00367599,0.0017602
 9,-0.00050969,0.00022115,-0.00057456,-0.00000785,-0.00000677,-0.000001
 72,-0.00000091,-0.00000187,-0.00000535,0.00000232,0.00000258,0.0000015
 2,-0.00000549,-0.00000955,0.00000126,-0.00000927,-0.00003683,-0.000006
 04,-0.00000824,-0.00000070,-0.00000960,-0.00001335,0.00001215,-0.00000
 717,0.00000605,0.00001120,-0.00000152,-0.00000267,0.00000678,0.0000276
 6,-0.00000031,0.00000120,0.00000129,-0.00000094,0.00000314,0.00000207,
 0.00000239,0.00000559,0.00000310,0.00002240,0.00000829,0.00004039,-0.0
 0004555,-0.00008480,0.00005910,0.16050582,0.03400511,0.20647325,0.0000
 4092,-0.00002029,-0.00001896,0.00000079,-0.00000724,-0.00000242,0.0000
 3706,-0.00001282,-0.00001385,-0.00000378,0.00000345,-0.00000084,-0.000
 01042,0.00000312,0.00000296,0.00000485,-0.00000119,-0.00000145,0.00000
 051,0.00000250,-0.00000058,-0.00000827,-0.00000987,-0.00001261,-0.0000
 1722,0.00002818,0.00000394,0.00000465,-0.00002187,0.00000702,0.0000043
 2,0.00000015,-0.00000168,-0.00000068,-0.00001251,0.00001693,0.00000076
 ,0.00000778,-0.00000773,-0.00000740,0.00001131,0.00000604,0.00001114,0
 .00000151,0.00000558,-0.00000153,0.00000955,0.00000504,0.00000409,0.00
 000999,-0.00001611,-0.00014593,0.00001022,0.00002869,0.00037676,-0.000
 34867,0.00031745,0.00272168,-0.00379484,-0.00308902,0.00699497,-0.0114
 1786,0.00883300,-0.06574871,0.05143192,-0.05595927,-0.00108958,0.01659
 392,-0.01258840,0.00093383,-0.00286089,-0.00555270,-0.00070068,-0.0004
 1284,0.00003432,-0.00037374,0.00022276,0.00042310,-0.00000332,-0.00000
 324,0.00000053,0.00000087,-0.00000090,-0.00000053,-0.00000070,0.000000
 43,0.00000017,-0.00000257,0.00000229,0.00000097,-0.00000234,-0.0000000
 2,-0.00000009,-0.00000049,-0.00000240,-0.00000005,0.00000290,0.0000031
 1,-0.00000490,-0.00000416,0.00000190,0.00000771,0.00000014,0.00000276,
 -0.00000421,-0.00000122,-0.00000021,-0.00000178,-0.00000271,-0.0000018
 5,-0.00000075,-0.00001183,0.00000049,-0.00000889,-0.00000385,-0.000016
 05,-0.00000352,-0.00004683,-0.00021621,0.00000723,-0.00191895,0.001306
 42,0.00214892,0.06061608,0.00004130,0.00008054,-0.00002167,-0.00002209
 ,-0.00005588,-0.00001636,0.00008287,-0.00005321,-0.00003387,-0.0000031
 9,0.00001224,-0.00000477,-0.00003074,0.00001806,0.00001726,0.00000423,
 -0.00000033,-0.00000900,0.00001155,0.00001139,0.00000646,-0.00004072,-
 0.00004199,-0.00001378,-0.00005512,0.00002192,0.00000101,0.00003048,-0
 .00003242,0.00000167,0.00000092,-0.00000015,-0.00000218,0.00000554,-0.
 00000475,0.00000087,0.,0.00000730,-0.00000946,-0.00000915,0.00001053,0
 .00000312,0.00000528,-0.00000347,0.00000771,-0.00000990,0.00001045,0.0
 0000558,-0.00000002,0.00000679,-0.00000872,-0.00029523,0.00007265,-0.0
 0010337,0.00104725,-0.00024745,0.00102477,-0.00435429,-0.00321763,-0.0
 0002201,0.00892806,-0.01415879,0.01847415,0.05053856,-0.21363284,0.137
 76553,-0.00305434,0.00724802,-0.00530074,-0.00215788,0.00176421,-0.000
 08764,-0.00079680,-0.00025096,-0.00105299,0.00027164,0.00000019,-0.000
 06992,-0.00001114,-0.00001248,-0.00000001,0.00000111,-0.00000315,-0.00
 000371,0.00000161,0.00000304,0.00000001,-0.00000777,-0.00000399,0.0000
 0134,-0.00000232,-0.00001349,0.00000217,-0.00000786,-0.00000464,-0.000
 00482,0.00000743,0.00000980,-0.00001659,-0.00000651,0.00000911,0.00001
 963,0.00000074,0.00000361,0.00000228,-0.00000042,0.00000078,-0.0000005
 3,-0.00000117,0.00000010,0.00000028,-0.00000835,0.00000411,-0.00000516
 ,0.00000017,-0.00001597,0.00000477,-0.00013574,-0.00030999,-0.00009670
 ,0.00112622,0.00064445,-0.00092078,-0.05207629,0.22163022,-0.00005192,
 -0.00000962,0.00000962,-0.00000422,0.00000901,0.00000404,-0.00004741,0
 .00001321,0.00001783,0.00000438,-0.00000398,-0.00000026,0.00001411,-0.
 00000551,-0.00000421,-0.00000471,-0.00000134,0.00000187,-0.00000853,0.
 00000067,-0.00000202,0.00001334,0.00001284,0.00000596,0.00003007,-0.00
 001989,-0.00001404,-0.00001704,0.00002432,-0.00000126,0.00000178,-0.00
 000409,-0.00000137,-0.00000250,0.00000353,-0.00000268,0.00000122,-0.00
 000585,0.00000065,0.00000248,-0.00000770,-0.00000309,-0.00000243,-0.00
 000760,-0.00000368,-0.00000470,0.00000026,0.00000092,0.00000010,-0.000
 00396,0.00000260,0.00012732,0.00007869,-0.00010639,0.00002109,-0.00005
 377,0.00027202,-0.00307156,-0.00008019,0.00380547,-0.00022910,-0.00357
 464,0.00534105,-0.05640369,0.13765700,-0.16517454,-0.00299712,0.017096
 76,-0.00794443,-0.00573558,-0.00031440,0.00048520,-0.00019665,-0.00119
 426,-0.00029951,0.00047202,-0.00000218,-0.00028858,0.00000508,0.000004
 85,-0.00000097,-0.00000161,0.00000062,0.00000060,-0.00000023,-0.000000
 95,-0.00000073,0.00000350,0.00000012,-0.00000004,0.00000252,0.00000418
 ,-0.00000055,0.00000091,-0.00000003,0.00000007,-0.00000244,-0.00000158
 ,0.00000129,0.00000271,-0.00000254,-0.00000347,0.00000120,0.00000007,0
 .00000157,0.00000244,0.00000132,0.00000036,0.00000421,0.00000069,0.000
 00155,0.00000329,0.00000261,0.00000681,-0.00000164,0.00000591,0.000003
 38,0.00002636,0.00000440,-0.00005992,0.00236769,-0.00083860,-0.0012531
 6,0.06356654,-0.14870814,0.16652104,0.00003774,0.00005376,-0.00001403,
 -0.00000826,-0.00001326,-0.00001044,0.00003035,-0.00001171,-0.00001627
 ,-0.00000231,0.00000307,0.00000128,-0.00001082,0.00000569,0.00000298,0
 .00000295,0.00000086,-0.00000343,0.00000645,0.00000119,0.00000136,-0.0
 0001507,-0.00001111,-0.00000193,-0.00002982,0.00000657,0.00001163,0.00
 001931,-0.00001724,-0.00000169,-0.00000301,0.00000348,0.00000069,0.000
 00416,0.00000206,-0.00000611,-0.00000119,0.00000332,0.00000152,-0.0000
 0031,0.00000488,-0.00000003,-0.00000152,0.00000286,0.00000520,0.000003
 66,-0.00000185,-0.00000337,-0.00000170,0.00000036,0.00000371,0.0000241
 7,-0.00019025,0.00010975,-0.00055854,0.00002449,0.00035655,-0.00060123
 ,0.00089097,0.00009787,0.00093034,-0.00124769,-0.00633244,-0.00342698,
 -0.01954598,0.00004686,-0.10161230,-0.11605351,-0.02064962,0.00710908,
 0.00891084,-0.00045781,0.00378693,-0.00002985,-0.00392209,0.00001789,0
 .00055725,-0.00029102,-0.00000418,-0.00000365,0.00000117,0.00000176,-0
 .00000041,0.00000044,0.00000040,0.00000061,0.00000154,-0.00000281,-0.0
 0000098,0.00000022,-0.00000135,-0.00000472,0.00000005,-0.00000064,-0.0
 0000002,0.00000065,0.00000109,-0.00000065,0.00000092,-0.00000372,0.000
 00248,0.00000236,-0.00000162,-0.00000091,0.00000114,-0.00000218,-0.000
 00103,-0.00000009,-0.00000331,-0.00000005,-0.00000080,-0.00000067,-0.0
 0000172,-0.00000315,0.00000393,-0.00000204,0.00000117,0.00004320,-0.00
 002542,-0.00005919,-0.00022833,-0.00081669,0.00007870,-0.00159059,0.00
 118484,0.00232990,0.09804336,0.00002646,0.00001789,0.00003591,0.000001
 41,0.00000090,-0.00000275,0.00002374,-0.00001115,-0.00000821,-0.000000
 99,0.00000333,-0.00000281,-0.00000913,0.00000589,0.00000557,0.00000177
 ,-0.00000018,-0.00000241,0.00000656,0.00000428,0.00000174,-0.00000983,
 -0.00001836,0.00000163,-0.00002663,-0.00000070,0.00000389,0.00001756,-
 0.00001069,-0.00000303,-0.00000272,0.00000177,0.00000057,0.00000415,0.
 00000421,-0.00000940,-0.00000082,0.00000085,0.00000016,-0.00000065,0.0
 0000150,-0.00000115,-0.00000306,-0.00000006,0.00000283,-0.00000086,-0.
 00000117,-0.00000142,-0.00000253,-0.00000153,0.00000509,-0.00011963,0.
 00001843,-0.00003767,0.00027086,0.00002338,-0.00015415,0.00064732,0.00
 032594,0.00014234,-0.00159923,0.00205888,0.00024283,0.00032410,0.00007
 950,0.00215298,-0.11593953,-0.28947145,-0.02072560,-0.01131606,-0.0148
 1263,-0.00443326,0.00041161,-0.00037640,0.00383388,-0.00014959,-0.0010
 0884,0.00028495,-0.00000414,-0.00000377,0.00000049,0.00000048,-0.00000
 070,-0.00000195,0.00000128,0.00000183,-0.00000035,-0.00000370,-0.00000
 277,-0.00000028,-0.00000052,-0.00000540,0.00000133,-0.00000384,-0.0000
 0150,-0.00000292,0.00000370,0.00000533,-0.00000654,-0.00000203,0.00000
 391,0.00000587,-0.00000022,-0.00000011,0.00000264,-0.00000049,0.,0.000
 00054,-0.00000066,0.00000085,0.00000002,0.00000130,0.00000029,-0.00000
 012,0.00000338,-0.00000014,0.00000287,-0.00000282,0.00000959,0.0000357
 9,0.00004793,-0.00011669,0.00012078,0.00086150,0.00024573,-0.00089496,
 0.12551046,0.30248917,0.00003676,0.00000157,0.00002868,0.00001088,0.00
 001166,0.00000438,-0.00000191,0.00000697,-0.00000250,-0.00000092,-0.00
 000002,0.00000077,-0.00000057,0.00000132,0.00000319,-0.00000134,0.0000
 0047,-0.00000146,0.00000524,-0.00000402,0.00000461,-0.00001279,-0.0000
 1740,-0.00001633,-0.00000676,-0.00001039,-0.00000054,0.00000735,-0.000
 00104,-0.00000167,-0.00000192,0.00000118,-0.00000114,0.00000116,-0.000
 00006,-0.00000136,-0.00000092,0.00000006,-0.00000047,0.00000009,-0.000
 00062,-0.00000082,-0.00000220,-0.00000228,0.00000300,0.00000081,-0.000
 00202,-0.00000239,-0.00000092,0.00000012,-0.00000020,-0.00006491,0.000
 02686,0.00004713,0.00050112,-0.00002867,-0.00027533,-0.00014448,0.0002
 1251,-0.00117313,-0.00586723,0.00080697,-0.00029289,-0.00900569,-0.020
 14196,0.00310479,-0.02069647,-0.02083623,-0.05263037,0.00825649,0.0178
 5717,0.00558292,-0.00390940,0.00358551,0.00136308,0.00014586,0.0009807
 5,-0.00020748,-0.00000041,-0.00000102,-0.00000048,0.00000006,0.0000000
 7,-0.00000064,0.00000009,0.00000010,0.00000036,0.,-0.00000145,0.000000
 15,-0.00000059,-0.00000461,-0.00000017,-0.00000009,0.00000112,-0.00000
 045,-0.00000267,0.00000005,0.00000199,0.00000024,0.00000168,-0.0000010
 4,-0.00000052,0.00000075,0.00000289,0.00000084,0.00000038,0.00000050,-
 0.00000021,0.00000063,0.00000094,0.00000088,0.00000012,0.00000007,0.00
 000341,0.00000128,0.00000231,-0.00004143,-0.00005745,-0.00000123,-0.00
 035376,-0.00094404,-0.00003253,0.00245564,-0.00060761,-0.00096806,0.02
 635519,0.02040684,0.04667094,-0.00003383,0.00008686,0.00005786,-0.0000
 0265,-0.00001963,-0.00000532,0.00002295,-0.00004548,-0.00003909,-0.000
 00019,0.00000155,0.00000361,-0.00002046,0.00000831,0.00001322,0.000001
 04,0.00000199,-0.00000649,0.00000691,0.00000095,0.00000511,-0.00001844
 ,-0.00001373,-0.00001565,-0.00002048,0.00000600,0.00001099,0.00001378,
 -0.00000871,-0.00000358,-0.00000313,0.00000005,0.00000263,0.00000407,0
 .00000803,-0.00001350,-0.00000044,0.00000043,0.00000308,-0.00000035,0.
 00000306,-0.00000085,-0.00000128,0.00000178,0.00000222,0.00000095,-0.0
 0000002,-0.00000176,-0.00000199,-0.00000346,0.00000953,-0.00016604,-0.
 00016156,0.00001671,0.00010499,0.00044763,-0.00051645,0.00295685,-0.00
 374609,-0.00166648,-0.00012702,0.00022478,0.00087375,0.00442473,0.0002
 0594,-0.00318993,-0.00074547,-0.00293246,-0.00367006,-0.18429139,-0.03
 507743,-0.15294273,-0.00513399,0.00105009,-0.00979973,-0.00098201,0.00
 119802,0.00165078,-0.00000729,-0.00000786,-0.00000088,0.00000182,-0.00
 000022,0.00000067,0.00000072,-0.00000002,0.00000271,-0.00000239,-0.000
 00133,0.00000075,-0.00000141,-0.00000591,-0.00000055,-0.00000043,0.000
 00051,0.00000121,0.00000071,-0.00000082,0.00000145,-0.00000198,0.00000
 437,0.00000478,-0.00000155,-0.00000243,0.00000155,-0.00000199,-0.00000
 027,-0.00000038,-0.00000112,-0.00000014,-0.00000061,0.00000007,-0.0000
 0063,-0.00000063,0.00000190,-0.00000117,0.00000098,-0.00000377,-0.0000
 5407,-0.00000443,-0.00040184,0.00012551,0.00028462,-0.00005883,-0.0002
 0276,-0.00022118,-0.00195432,0.00103411,0.00233599,0.18644460,-0.00007
 328,0.00002730,0.00013319,0.00000417,-0.00000678,-0.00000549,0.0000148
 0,-0.00006064,-0.00004296,-0.00000099,0.00000238,0.00000511,-0.0000214
 7,0.00001158,0.00001816,-0.00000166,0.00000351,-0.00000695,0.00001304,
 -0.00000495,0.00000929,-0.00004219,-0.00001567,-0.00002459,-0.00000769
 ,0.00000310,0.00000136,0.00000686,-0.00000236,-0.00000160,-0.00000147,
 -0.00000146,0.00000085,0.00000147,0.00000241,-0.00000442,-0.00000033,-
 0.00000008,-0.00000024,-0.00000147,0.00000129,0.00000001,0.00000034,-0
 .00000122,0.00000164,-0.00000118,0.00000141,0.00000007,-0.00000067,-0.
 00000072,0.00000161,-0.00026316,-0.00050160,-0.00023295,-0.00083602,0.
 00085986,-0.00082609,-0.00261115,-0.00444613,0.00117615,0.00023560,-0.
 00116630,0.00035347,-0.00034480,-0.00268262,0.00385351,0.01618200,0.00
 790432,0.01647658,-0.03345180,-0.06026166,-0.02746086,-0.01890380,-0.0
 0053441,-0.01976109,0.00051882,0.00090727,-0.00113494,-0.00000594,-0.0
 0000960,-0.00000215,0.00000145,-0.00000050,0.00000063,0.00000022,-0.00
 000039,0.00000324,-0.00000016,-0.00000201,0.00000070,-0.00000193,-0.00
 001189,-0.00000134,0.00000066,0.00000209,0.00000177,-0.00000252,-0.000
 00434,0.00000660,0.00000294,0.00000436,-0.00000174,-0.00000073,-0.0000
 0021,0.00000233,0.00000018,0.00000065,-0.00000009,0.00000020,0.0000000
 5,0.00000046,-0.00000097,0.00000065,-0.00000041,0.00000061,-0.00000204
 ,0.00000104,0.00004555,-0.00012336,0.00002195,0.00013678,-0.00001912,-
 0.00014524,0.00072278,0.00024835,0.00081472,0.00081069,0.00054079,-0.0
 0124522,0.03787624,0.05933870,0.00004849,-0.00000725,-0.00000492,-0.00
 000326,-0.00000896,-0.00000295,0.00002286,0.00000018,-0.00000361,-0.00
 000214,0.00000251,0.00000062,-0.00000308,0.00000477,0.00000289,0.00000
 006,0.00000112,-0.00000134,0.00000920,-0.00000137,0.00000269,-0.000024
 23,-0.00001642,-0.00000158,-0.00001477,-0.00000091,-0.00000041,0.00000
 871,-0.00000433,-0.00000117,-0.00000172,0.00000065,-0.00000013,0.00000
 180,0.00000171,-0.00000411,-0.00000056,-0.00000006,-0.00000043,-0.0000
 0013,-0.00000052,-0.00000086,-0.00000234,-0.00000064,0.00000097,-0.000
 00091,-0.00000094,-0.00000069,-0.00000154,-0.00000076,0.00000193,-0.00
 014193,-0.00011460,-0.00017604,0.00005834,0.00036009,0.00029767,-0.002
 22902,0.00054555,0.00309397,0.00092781,0.00024808,-0.00004690,-0.00308
 697,0.00418582,0.00174257,-0.01168910,-0.00536794,-0.00736946,-0.15377
 718,-0.02912901,-0.19810188,-0.00088593,0.00310338,0.00078779,0.001938
 73,-0.00035350,-0.00060475,-0.00000121,-0.00000210,0.00000024,0.000000
 54,-0.00000036,-0.00000075,0.00000055,0.00000085,0.00000009,-0.0000013
 6,-0.00000222,-0.00000029,-0.00000110,-0.00000745,0.00000085,-0.000001
 78,0.00000055,-0.00000115,0.00000090,0.00000035,-0.00000046,0.00000147
 ,0.00000350,0.00000004,-0.00000010,0.00000052,0.00000259,0.00000043,0.
 00000021,0.00000065,0.00000016,0.00000077,0.00000031,0.00000156,0.0000
 0046,0.00000060,0.00000197,0.00000072,0.00000178,-0.00003671,-0.000065
 13,0.00001282,0.00028822,-0.00017060,-0.00029882,-0.00058145,-0.000218
 08,-0.00035097,0.00236066,-0.00100256,-0.00121005,0.16681605,0.0280139
 3,0.20223265\\0.00875298,0.00982701,0.00671731,-0.00114366,-0.00142396
 ,0.00041289,-0.00271514,0.00681824,-0.00314488,0.00037480,-0.00140805,
 0.00041915,0.00013366,-0.00052333,0.00170023,-0.00033728,-0.00033143,-
 0.00083188,0.00153212,-0.00053608,0.00107838,-0.00245007,-0.00341038,-
 0.00171413,-0.00774607,0.00063053,-0.00487178,0.01456365,-0.00915251,0
 .00042319,-0.00181327,0.00097892,-0.00257477,0.00102505,0.00091025,-0.
 00195935,-0.00036599,0.00101020,-0.00050492,-0.00085835,0.00089596,0.0
 0032102,-0.00025840,-0.00031140,0.00045098,0.00011915,0.00082099,-0.00
 146094,-0.00059014,-0.00011192,0.00084027,0.00281922,0.00936174,-0.004
 45144,-0.01526426,-0.01749747,-0.00395057,0.00087153,0.00214124,-0.000
 53421,-0.00015186,0.00002463,-0.00097830,0.00004532,0.00009708,0.00025
 628,0.00105634,0.00102320,0.00093836,0.00046835,0.00144238,-0.00030492
 ,-0.00178941,0.00119940,-0.00142793,0.00068276,0.00003116,0.00078712,-
 0.00034738,-0.00011247,-0.00006596,-0.00004870,-0.00010201,-0.00018017
 ,0.00006421,0.00011685,0.00001398,-0.00010491,-0.00050272,0.00001056,-
 0.00021296,-0.00086476,-0.00015387,-0.00024242,-0.00015669,-0.00027529
 ,0.00006248,0.00017969,-0.00016717,0.00043758,-0.00005141,0.00037826,-
 0.00195201,0.00069253,0.00350978,-0.00022814,0.00005203,-0.00005072,-0
 .00011251,0.00002350,-0.00000307,-0.00067367,0.00052765,-0.00015573,0.
 00084575,-0.00128206,0.00475525,0.00545174,-0.00029072,0.00230181,-0.0
 0080834,-0.00160768,0.00463327,0.00047755,0.00066231,-0.00014752,0.000
 16413,0.00007152,-0.00001712,0.00026657,0.00013803,-0.00002147\\\@

 Writing a WFNX file to "06_lig.wfx"


 THE FIRST AND LAST THING REQUIRED OF GENIUS IS THE LOVE OF TRUTH.

                          -- GOETHE
 Job cpu time:       0 days  4 hours  5 minutes  7.8 seconds.
 Elapsed time:       0 days  0 hours 30 minutes 38.8 seconds.
 File lengths (MBytes):  RWF=    998 Int=      0 D2E=      0 Chk=     15 Scr=      1
 Normal termination of Gaussian 16 at Thu Dec  8 09:35:57 2022.
