 Entering Gaussian System, Link 0=g16
 Initial command:
 /software/gaussian/G16-A.03/avx/g16/l1.exe "/scratch/lcmd/1380811.slurm/Gau-242472.inp" -scrdir="/scratch/lcmd/1380811.slurm/"
 Entering Link 1 = /software/gaussian/G16-A.03/avx/g16/l1.exe PID=    242474.
  
 Copyright (c) 1988,1990,1992,1993,1995,1998,2003,2009,2016,
            Gaussian, Inc.  All Rights Reserved.
  
 This is part of the Gaussian(R) 16 program.  It is based on
 the Gaussian(R) 09 system (copyright 2009, Gaussian, Inc.),
 the Gaussian(R) 03 system (copyright 2003, Gaussian, Inc.),
 the Gaussian(R) 98 system (copyright 1998, Gaussian, Inc.),
 the Gaussian(R) 94 system (copyright 1995, Gaussian, Inc.),
 the Gaussian 92(TM) system (copyright 1992, Gaussian, Inc.),
 the Gaussian 90(TM) system (copyright 1990, Gaussian, Inc.),
 the Gaussian 88(TM) system (copyright 1988, Gaussian, Inc.),
 the Gaussian 86(TM) system (copyright 1986, Carnegie Mellon
 University), and the Gaussian 82(TM) system (copyright 1983,
 Carnegie Mellon University). Gaussian is a federally registered
 trademark of Gaussian, Inc.
  
 This software contains proprietary and confidential information,
 including trade secrets, belonging to Gaussian, Inc.
  
 This software is provided under written license and may be
 used, copied, transmitted, or stored only in accord with that
 written license.
  
 The following legend is applicable only to US Government
 contracts under FAR:
  
                    RESTRICTED RIGHTS LEGEND
  
 Use, reproduction and disclosure by the US Government is
 subject to restrictions as set forth in subparagraphs (a)
 and (c) of the Commercial Computer Software - Restricted
 Rights clause in FAR 52.227-19.
  
 Gaussian, Inc.
 340 Quinnipiac St., Bldg. 40, Wallingford CT 06492
  
  
 ---------------------------------------------------------------
 Warning -- This program may not be used in any manner that
 competes with the business of Gaussian, Inc. or will provide
 assistance to any competitor of Gaussian, Inc.  The licensee
 of this program is prohibited from giving any competitor of
 Gaussian, Inc. access to this program.  By using this program,
 the user acknowledges that Gaussian, Inc. is engaged in the
 business of creating and licensing software in the field of
 computational chemistry and represents and warrants to the
 licensee that it is not a competitor of Gaussian, Inc. and that
 it will not use this program in any manner prohibited above.
 ---------------------------------------------------------------
  

 Cite this work as:
 Gaussian 16, Revision A.03,
 M. J. Frisch, G. W. Trucks, H. B. Schlegel, G. E. Scuseria, 
 M. A. Robb, J. R. Cheeseman, G. Scalmani, V. Barone, 
 G. A. Petersson, H. Nakatsuji, X. Li, M. Caricato, A. V. Marenich, 
 J. Bloino, B. G. Janesko, R. Gomperts, B. Mennucci, H. P. Hratchian, 
 J. V. Ortiz, A. F. Izmaylov, J. L. Sonnenberg, D. Williams-Young, 
 F. Ding, F. Lipparini, F. Egidi, J. Goings, B. Peng, A. Petrone, 
 T. Henderson, D. Ranasinghe, V. G. Zakrzewski, J. Gao, N. Rega, 
 G. Zheng, W. Liang, M. Hada, M. Ehara, K. Toyota, R. Fukuda, 
 J. Hasegawa, M. Ishida, T. Nakajima, Y. Honda, O. Kitao, H. Nakai, 
 T. Vreven, K. Throssell, J. A. Montgomery, Jr., J. E. Peralta, 
 F. Ogliaro, M. J. Bearpark, J. J. Heyd, E. N. Brothers, K. N. Kudin, 
 V. N. Staroverov, T. A. Keith, R. Kobayashi, J. Normand, 
 K. Raghavachari, A. P. Rendell, J. C. Burant, S. S. Iyengar, 
 J. Tomasi, M. Cossi, J. M. Millam, M. Klene, C. Adamo, R. Cammi, 
 J. W. Ochterski, R. L. Martin, K. Morokuma, O. Farkas, 
 J. B. Foresman, and D. J. Fox, Gaussian, Inc., Wallingford CT, 2016.
 
 ******************************************
 Gaussian 16:  ES64L-G16RevA.03 25-Dec-2016
                 8-Dec-2022 
 ******************************************
 %nprocs=8
 Will use up to    8 processors via shared memory.
 %mem=32000MB
 %chk=07_lig.chk
 ----------------------------------------------------------------------
 #p pop=(regular,nbo,savenbos) freq=noraman def2svp empiricaldispersion
 =gd3bj output=wfx pbe1pbe
 ----------------------------------------------------------------------
 1/10=4,30=1,38=1/1,3;
 2/12=2,17=6,18=5,40=1/2;
 3/5=43,7=101,11=2,25=1,30=1,71=2,74=-13,124=41,140=1/1,2,3;
 4//1;
 5/5=2,38=5,98=1/2;
 8/6=4,10=90,11=11/1;
 11/6=1,8=1,9=11,15=111,16=1/1,2,10;
 10/6=1/2;
 6/28=1,40=1,73=1/1,7;
 7/8=1,10=1,25=1/1,2,3,16;
 1/10=4,30=1/3;
 99/6=200/99;
 Leave Link    1 at Thu Dec  8 09:05:26 2022, MaxMem=  4194304000 cpu:               0.4 elap:               0.1
 (Enter /software/gaussian/G16-A.03/avx/g16/l101.exe)
 ------
 07_lig
 ------
 Symbolic Z-matrix:
 Charge =  0 Multiplicity = 1
 C                     0.5118    2.05441  -0.58771 
 H                    -0.08463   1.95112  -1.5142 
 C                    -0.51136   2.05422   0.58769 
 H                     0.08507   1.95047   1.51414 
 C                    -1.31628   3.3492    0.6304 
 C                    -0.44376   4.59406   0.61693 
 C                     0.44457   4.59426  -0.61584 
 C                     1.31691   3.34927  -0.62985 
 N                    -1.30544   0.83858   0.50662 
 C                    -2.57782   0.8742    0.47689 
 C                    -3.46556  -0.27601   0.32475 
 C                    -3.13951  -1.61726   0.578 
 C                    -4.03606  -2.65492   0.38105 
 C                    -5.31689  -2.36505  -0.08105 
 C                    -5.702    -1.05045  -0.33123 
 C                    -4.77762  -0.04108  -0.11824 
 F                    -5.14339   1.21786  -0.35739 
 F                    -1.94452  -1.91261   1.06893 
 N                     1.30565   0.83859  -0.50701 
 C                     2.57804   0.87394  -0.47757 
 C                     3.46562  -0.27637  -0.3252 
 C                     3.13926  -1.61771  -0.57759 
 C                     4.03562  -2.65544  -0.38016 
 C                     5.3166   -2.36556   0.08155 
 C                     5.70202  -1.0509    0.33086 
 C                     4.77782  -0.04146   0.11743 
 F                     5.14393   1.21754   0.35575 
 F                     1.94415  -1.91306  -1.06819 
 H                    -1.96314   3.34416   1.52237 
 H                    -1.98489   3.38546  -0.24805 
 H                     0.18355   4.62404   1.52517 
 H                    -1.07927   5.49271   0.64543 
 H                     1.0802    5.49282  -0.644 
 H                    -0.18275   4.62468  -1.52405 
 H                     1.98554   3.38501   0.2486 
 H                     1.96376   3.34459  -1.52183 
 H                    -3.11338   1.83099   0.52643 
 H                    -3.71159  -3.67402   0.59302 
 H                    -6.02807  -3.17713  -0.24539 
 H                    -6.69861  -0.79312  -0.69095 
 H                     3.1138    1.83061  -0.52741 
 H                     3.71091  -3.67461  -0.59148 
 H                     6.02763  -3.17769   0.24627 
 H                     6.69875  -0.79356   0.69024 
 
 ITRead=  0  0  0  0  0  0  0  0  0  0  0  0  0  0  0  0  0  0  0  0
 ITRead=  0  0  0  0  0  0  0  0  0  0  0  0  0  0  0  0  0  0  0  0
 ITRead=  0  0  0  0
 MicOpt= -1 -1 -1 -1 -1 -1 -1 -1 -1 -1 -1 -1 -1 -1 -1 -1 -1 -1 -1 -1
 MicOpt= -1 -1 -1 -1 -1 -1 -1 -1 -1 -1 -1 -1 -1 -1 -1 -1 -1 -1 -1 -1
 MicOpt= -1 -1 -1 -1
 NAtoms=     44 NQM=       44 NQMF=       0 NMMI=      0 NMMIF=      0
                NMic=       0 NMicF=      0.
                    Isotopes and Nuclear Properties:
 (Nuclear quadrupole moments (NQMom) in fm**2, nuclear magnetic moments (NMagM)
  in nuclear magnetons)

  Atom         1           2           3           4           5           6           7           8           9          10
 IAtWgt=          12           1          12           1          12          12          12          12          14          12
 AtmWgt=  12.0000000   1.0078250  12.0000000   1.0078250  12.0000000  12.0000000  12.0000000  12.0000000  14.0030740  12.0000000
 NucSpn=           0           1           0           1           0           0           0           0           2           0
 AtZEff=  -0.0000000  -0.0000000  -0.0000000  -0.0000000  -0.0000000  -0.0000000  -0.0000000  -0.0000000  -0.0000000  -0.0000000
 NQMom=    0.0000000   0.0000000   0.0000000   0.0000000   0.0000000   0.0000000   0.0000000   0.0000000   2.0440000   0.0000000
 NMagM=    0.0000000   2.7928460   0.0000000   2.7928460   0.0000000   0.0000000   0.0000000   0.0000000   0.4037610   0.0000000
 AtZNuc=   6.0000000   1.0000000   6.0000000   1.0000000   6.0000000   6.0000000   6.0000000   6.0000000   7.0000000   6.0000000

  Atom        11          12          13          14          15          16          17          18          19          20
 IAtWgt=          12          12          12          12          12          12          19          19          14          12
 AtmWgt=  12.0000000  12.0000000  12.0000000  12.0000000  12.0000000  12.0000000  18.9984032  18.9984032  14.0030740  12.0000000
 NucSpn=           0           0           0           0           0           0           1           1           2           0
 AtZEff=  -0.0000000  -0.0000000  -0.0000000  -0.0000000  -0.0000000  -0.0000000  -0.0000000  -0.0000000  -0.0000000  -0.0000000
 NQMom=    0.0000000   0.0000000   0.0000000   0.0000000   0.0000000   0.0000000   0.0000000   0.0000000   2.0440000   0.0000000
 NMagM=    0.0000000   0.0000000   0.0000000   0.0000000   0.0000000   0.0000000   2.6288670   2.6288670   0.4037610   0.0000000
 AtZNuc=   6.0000000   6.0000000   6.0000000   6.0000000   6.0000000   6.0000000   9.0000000   9.0000000   7.0000000   6.0000000

  Atom        21          22          23          24          25          26          27          28          29          30
 IAtWgt=          12          12          12          12          12          12          19          19           1           1
 AtmWgt=  12.0000000  12.0000000  12.0000000  12.0000000  12.0000000  12.0000000  18.9984032  18.9984032   1.0078250   1.0078250
 NucSpn=           0           0           0           0           0           0           1           1           1           1
 AtZEff=  -0.0000000  -0.0000000  -0.0000000  -0.0000000  -0.0000000  -0.0000000  -0.0000000  -0.0000000  -0.0000000  -0.0000000
 NQMom=    0.0000000   0.0000000   0.0000000   0.0000000   0.0000000   0.0000000   0.0000000   0.0000000   0.0000000   0.0000000
 NMagM=    0.0000000   0.0000000   0.0000000   0.0000000   0.0000000   0.0000000   2.6288670   2.6288670   2.7928460   2.7928460
 AtZNuc=   6.0000000   6.0000000   6.0000000   6.0000000   6.0000000   6.0000000   9.0000000   9.0000000   1.0000000   1.0000000

  Atom        31          32          33          34          35          36          37          38          39          40
 IAtWgt=           1           1           1           1           1           1           1           1           1           1
 AtmWgt=   1.0078250   1.0078250   1.0078250   1.0078250   1.0078250   1.0078250   1.0078250   1.0078250   1.0078250   1.0078250
 NucSpn=           1           1           1           1           1           1           1           1           1           1
 AtZEff=  -0.0000000  -0.0000000  -0.0000000  -0.0000000  -0.0000000  -0.0000000  -0.0000000  -0.0000000  -0.0000000  -0.0000000
 NQMom=    0.0000000   0.0000000   0.0000000   0.0000000   0.0000000   0.0000000   0.0000000   0.0000000   0.0000000   0.0000000
 NMagM=    2.7928460   2.7928460   2.7928460   2.7928460   2.7928460   2.7928460   2.7928460   2.7928460   2.7928460   2.7928460
 AtZNuc=   1.0000000   1.0000000   1.0000000   1.0000000   1.0000000   1.0000000   1.0000000   1.0000000   1.0000000   1.0000000

  Atom        41          42          43          44
 IAtWgt=           1           1           1           1
 AtmWgt=   1.0078250   1.0078250   1.0078250   1.0078250
 NucSpn=           1           1           1           1
 AtZEff=  -0.0000000  -0.0000000  -0.0000000  -0.0000000
 NQMom=    0.0000000   0.0000000   0.0000000   0.0000000
 NMagM=    2.7928460   2.7928460   2.7928460   2.7928460
 AtZNuc=   1.0000000   1.0000000   1.0000000   1.0000000
 Leave Link  101 at Thu Dec  8 09:05:26 2022, MaxMem=  4194304000 cpu:               1.2 elap:               0.2
 (Enter /software/gaussian/G16-A.03/avx/g16/l103.exe)

 GradGradGradGradGradGradGradGradGradGradGradGradGradGradGradGradGradGrad
 Berny optimization.
 Initialization pass.
 Trust Radius=3.00D-01 FncErr=1.00D-07 GrdErr=1.00D-07 EigMax=2.50D+02 EigMin=1.00D-04
 Number of steps in this run=      2 maximum allowed number of steps=      2.
 GradGradGradGradGradGradGradGradGradGradGradGradGradGradGradGradGradGrad

 Leave Link  103 at Thu Dec  8 09:05:27 2022, MaxMem=  4194304000 cpu:               0.3 elap:               0.1
 (Enter /software/gaussian/G16-A.03/avx/g16/l202.exe)
                          Input orientation:                          
 ---------------------------------------------------------------------
 Center     Atomic      Atomic             Coordinates (Angstroms)
 Number     Number       Type             X           Y           Z
 ---------------------------------------------------------------------
      1          6           0        0.511800    2.054410   -0.587710
      2          1           0       -0.084630    1.951120   -1.514200
      3          6           0       -0.511360    2.054220    0.587690
      4          1           0        0.085070    1.950470    1.514140
      5          6           0       -1.316280    3.349200    0.630400
      6          6           0       -0.443760    4.594060    0.616930
      7          6           0        0.444570    4.594260   -0.615840
      8          6           0        1.316910    3.349270   -0.629850
      9          7           0       -1.305440    0.838580    0.506620
     10          6           0       -2.577820    0.874200    0.476890
     11          6           0       -3.465560   -0.276010    0.324750
     12          6           0       -3.139510   -1.617260    0.578000
     13          6           0       -4.036060   -2.654920    0.381050
     14          6           0       -5.316890   -2.365050   -0.081050
     15          6           0       -5.702000   -1.050450   -0.331230
     16          6           0       -4.777620   -0.041080   -0.118240
     17          9           0       -5.143390    1.217860   -0.357390
     18          9           0       -1.944520   -1.912610    1.068930
     19          7           0        1.305650    0.838590   -0.507010
     20          6           0        2.578040    0.873940   -0.477570
     21          6           0        3.465620   -0.276370   -0.325200
     22          6           0        3.139260   -1.617710   -0.577590
     23          6           0        4.035620   -2.655440   -0.380160
     24          6           0        5.316600   -2.365560    0.081550
     25          6           0        5.702020   -1.050900    0.330860
     26          6           0        4.777820   -0.041460    0.117430
     27          9           0        5.143930    1.217540    0.355750
     28          9           0        1.944150   -1.913060   -1.068190
     29          1           0       -1.963140    3.344160    1.522370
     30          1           0       -1.984890    3.385460   -0.248050
     31          1           0        0.183550    4.624040    1.525170
     32          1           0       -1.079270    5.492710    0.645430
     33          1           0        1.080200    5.492820   -0.644000
     34          1           0       -0.182750    4.624680   -1.524050
     35          1           0        1.985540    3.385010    0.248600
     36          1           0        1.963760    3.344590   -1.521830
     37          1           0       -3.113380    1.830990    0.526430
     38          1           0       -3.711590   -3.674020    0.593020
     39          1           0       -6.028070   -3.177130   -0.245390
     40          1           0       -6.698610   -0.793120   -0.690950
     41          1           0        3.113800    1.830610   -0.527410
     42          1           0        3.710910   -3.674610   -0.591480
     43          1           0        6.027630   -3.177690    0.246270
     44          1           0        6.698750   -0.793560    0.690240
 ---------------------------------------------------------------------
                    Distance matrix (angstroms):
                    1          2          3          4          5
     1  C    0.000000
     2  H    1.106698   0.000000
     3  C    1.558339   2.147247   0.000000
     4  H    2.147248   3.033091   1.106708   0.000000
     5  C    2.549931   2.840933   1.525350   2.168231   0.000000
     6  C    2.968851   3.414062   2.540908   2.841340   1.520246
     7  C    2.540895   2.841354   2.968853   3.414042   2.490759
     8  C    1.525333   2.168228   2.549927   2.840909   2.919233
     9  N    2.445028   2.609949   1.454275   2.045706   2.513693
    10  C    3.474481   3.367520   2.382222   3.053724   2.782207
    11  C    4.699238   4.446632   3.771791   4.356470   4.225515
    12  C    5.307740   5.142269   4.515200   4.899283   5.290807
    13  C    6.618105   6.357781   5.885763   6.283090   6.596123
    14  C    7.332255   6.932517   6.562795   7.095739   7.011683
    15  C    6.951061   6.477938   6.117690   6.775034   6.286191
    16  C    5.708717   5.285993   4.805163   5.502426   4.902585
    17  F    5.721367   5.240890   4.800872   5.601441   4.490558
    18  F    4.951284   5.006012   4.245148   4.386438   5.317296
    19  N    1.454279   2.045735   2.444923   2.609816   3.804127
    20  C    2.382223   3.053642   3.474512   3.367599   4.745549
    21  C    3.771803   4.356571   4.699084   4.446359   6.076553
    22  C    4.515320   4.899720   5.307351   5.141529   6.780949
    23  C    5.885837   6.283542   6.617602   6.356857   8.106773
    24  C    6.562785   7.096015   7.331831   6.931763   8.772389
    25  C    6.117606   6.775079   6.950815   6.477538   8.288977
    26  C    4.805083   5.502364   5.708629   5.285876   6.992694
    27  F    4.800739   5.601133   5.721550   5.241290   6.808357
    28  F    4.245386   4.387113   4.950836   5.005144   6.419267
    29  H    3.498746   3.832769   2.155281   2.477419   1.101846
    30  H    2.849653   2.696564   2.154519   3.073962   1.104549
    31  H    3.342904   4.056377   2.822365   2.675406   2.162249
    32  H    3.984225   4.265697   3.485551   3.828552   2.156626
    33  H    3.485529   3.828540   3.984231   4.265688   3.458658
    34  H    2.822308   2.675378   3.342857   4.056319   2.748344
    35  H    2.154488   3.073940   2.849648   2.696532   3.324014
    36  H    2.155303   2.477442   3.498764   3.832775   3.923108
    37  H    3.799099   3.654029   2.612296   3.349616   2.354855
    38  H    7.214295   7.016938   6.561573   6.848210   7.420548
    39  H    8.381891   7.951937   7.648211   8.170600   8.096972
    40  H    7.753006   7.207866   6.929959   7.642514   6.919123
    41  H    2.612303   3.349363   3.799373   3.654518   4.824132
    42  H    6.561706   6.848823   7.213702   7.015830   8.723505
    43  H    7.648188   8.170904   8.381398   7.951072   9.832643
    44  H    6.929822   7.642452   7.752809   7.207585   9.022569
                    6          7          8          9         10
     6  C    0.000000
     7  C    1.519491   0.000000
     8  C    2.490767   1.520254   0.000000
     9  N    3.854645   4.292736   3.804188   0.000000
    10  C    4.290825   4.916070   4.745500   1.273226   0.000000
    11  C    5.738835   6.316119   6.076671   2.437520   1.460894
    12  C    6.771195   7.270066   6.781224   3.065951   2.555991
    13  C    8.093699   8.580236   8.107188   4.435831   3.819730
    14  C    8.524305   9.050548   8.772795   5.167236   4.278615
    15  C    7.772296   8.350094   8.289259   4.858000   3.757371
    16  C    6.388062   7.000375   6.992819   3.635971   2.455817
    17  F    5.868096   6.533925   6.808276   3.952243   2.719609
    18  F    6.692783   7.133411   6.419514   2.879872   2.918542
    19  N    4.292695   3.854654   2.513709   2.800935   4.006328
    20  C    4.916147   4.290873   2.782247   4.006407   5.243461
    21  C    6.316007   5.738837   4.225521   4.969713   6.204057
    22  C    7.269869   6.771365   5.290991   5.192709   6.325073
    23  C    8.579877   8.093784   6.596232   6.443716   7.545229
    24  C    9.050121   8.524208   7.011625   7.368759   8.542494
    25  C    8.349732   7.772056   6.285988   7.259857   8.501946
    26  C    7.000175   6.387851   4.902385   6.158895   7.421124
    27  F    6.533864   5.867726   4.490185   6.462255   7.730329
    28  F    7.133327   6.693174   5.317677   4.539976   5.532116
    29  H    2.165776   3.454238   3.923112   2.782490   2.751647
    30  H    2.141025   2.738383   3.323998   2.741856   2.680211
    31  H    1.104227   2.157068   2.748391   4.193357   4.773401
    32  H    1.101025   2.172580   3.458663   4.661689   4.858466
    33  H    2.172595   1.101013   2.156627   5.355105   5.997429
    34  H    2.157049   1.104220   2.162231   4.440564   4.879162
    35  H    2.738424   2.141058   1.104544   4.169104   5.213496
    36  H    3.454218   2.165740   1.101846   4.591554   5.542893
    37  H    3.843126   4.647521   4.823860   2.062503   1.097600
    38  H    8.890469   9.332709   8.723980   5.114742   4.688841
    39  H    9.608304  10.120613   9.833130   6.244572   5.370213
    40  H    8.357955   8.947319   9.022843   5.760460   4.596163
    41  H    4.647839   3.843224   2.354917   4.645753   5.858146
    42  H    9.332333   8.890657   7.420755   6.836554   7.834616
    43  H   10.120098   9.608174   8.096893   8.364934   9.514450
    44  H    8.946914   8.357584   6.918806   8.170964   9.427709
                   11         12         13         14         15
    11  C    0.000000
    12  C    1.403352   0.000000
    13  C    2.447009   1.385399   0.000000
    14  C    2.820671   2.394686   1.392152   0.000000
    15  C    2.455958   2.777468   2.420129   1.392506   0.000000
    16  C    1.404612   2.377498   2.762492   2.386007   1.385161
    17  F    2.347781   3.595608   4.095107   3.597737   2.336228
    18  F    2.354958   1.325234   2.323519   3.591662   4.101515
    19  N    4.969769   5.193062   6.444155   7.369042   7.259926
    20  C    6.204128   6.325400   7.545621   8.542728   8.501985
    21  C    6.961587   6.800110   7.901360   9.030763   9.200244
    22  C    6.799855   6.384226   7.313003   8.503619   8.862864
    23  C    7.901031   7.312891   8.107494   9.361797   9.869125
    24  C    9.030598   8.503659   9.361927  10.634733  11.104479
    25  C    9.200273   8.863097   9.869428  11.104640  11.423224
    26  C    8.249322   8.085752   9.196964  10.360581  10.537836
    27  F    8.738133   8.757903   9.963373  11.065916  11.101798
    28  F    5.821098   5.351732   6.197868   7.341760   7.729865
    29  H    4.098438   5.185689   6.448920   6.812758   6.060322
    30  H    3.990845   5.200261   6.410090   6.648194   5.788015
    31  H    6.226355   7.133981   8.491017   9.037818   8.383660
    32  H    6.251028   7.402757   8.671585   8.957097   8.070715
    33  H    7.408226   8.357779   9.675356  10.148192   9.429233
    34  H    6.181558   7.219616   8.453992   8.791926   8.005750
    35  H    6.566838   7.169194   8.529828   9.300395   8.894255
    36  H    6.782044   7.421092   8.695569   9.363958   8.916153
    37  H    2.145729   3.448735   4.582124   4.778205   3.967270
    38  H    3.417451   2.134892   1.090310   2.178247   3.420393
    39  H    3.912546   3.384515   2.152495   1.091906   2.153244
    40  H    3.428070   3.867381   3.421207   2.179929   1.090343
    41  H    6.960747   7.225900   8.489156   9.427584   9.276709
    42  H    7.993227   7.247664   7.874079   9.136556   9.775317
    43  H    9.927062   9.304915  10.078160  11.378298  11.934943
    44  H   10.184038   9.873320  10.899376  12.142490  12.445401
                   16         17         18         19         20
    16  C    0.000000
    17  F    1.332633   0.000000
    18  F    3.597006   4.697553   0.000000
    19  N    6.158826   6.461915   4.540517   0.000000
    20  C    7.421059   7.730020   5.532637   1.273221   0.000000
    21  C    8.249194   8.737781   5.821554   2.437552   1.460900
    22  C    8.085404   8.757353   5.351898   3.066026   2.556030
    23  C    9.196558   9.962791   6.197881   4.435885   3.819758
    24  C   10.360328  11.065485   7.341931   5.167272   4.278631
    25  C   10.537755  11.101526   7.730256   4.858011   3.757369
    26  C    9.558346  10.012080   7.042472   3.635984   2.455812
    27  F   10.012290  10.312009   7.781554   3.952259   2.719609
    28  F    7.041939   7.780817   4.437233   2.879962   2.918564
    29  H    4.698164   4.262469   5.276323   4.591432   5.542929
    30  H    4.422371   3.832306   5.459452   4.169084   5.213515
    31  H    7.005523   6.597150   6.889458   4.440551   4.879324
    32  H    6.699539   5.983065   7.467715   5.355072   5.997506
    33  H    8.075551   7.555826   8.180676   4.661700   4.858526
    34  H    6.697645   6.129883   7.250072   4.193350   4.773377
    35  H    7.590323   7.475654   6.647036   2.741797   2.680271
    36  H    7.673267   7.509360   7.044490   2.782625   2.751714
    37  H    2.586492   2.297391   3.959177   4.645501   5.858005
    38  H    3.852345   5.184961   2.539998   6.837135   7.835148
    39  H    3.378550   4.484545   4.472340   8.365280   9.514736
    40  H    2.140973   2.563984   5.191513   8.170954   9.427664
    41  H    8.120662   8.281640   6.492041   2.062505   1.097607
    42  H    9.245628  10.118779   6.151869   5.114820   4.688889
    43  H   11.257203  12.019857   8.113715   6.244600   5.370225
    44  H   11.529394  12.057347   8.723634   5.760456   4.596149
                   21         22         23         24         25
    21  C    0.000000
    22  C    1.403355   0.000000
    23  C    2.447018   1.385396   0.000000
    24  C    2.820689   2.394693   1.392162   0.000000
    25  C    2.455972   2.777462   2.420121   1.392492   0.000000
    26  C    1.404626   2.377498   2.762489   2.386003   1.385160
    27  F    2.347804   3.595618   4.095105   3.597722   2.336216
    28  F    2.354922   1.325220   2.323523   3.591668   4.101493
    29  H    6.781828   7.420544   8.694823   9.363305   8.915768
    30  H    6.566811   7.169185   8.529740   9.300249   8.894100
    31  H    6.181413   7.219229   8.453375   8.791288   8.005300
    32  H    7.408133   8.357622   9.675034  10.147784   9.428875
    33  H    6.251033   7.402957   8.671693   8.956989   8.070430
    34  H    6.226406   7.134351   8.491365   9.037934   8.383521
    35  H    3.990688   5.200083   6.409774   6.647776   5.787598
    36  H    4.098641   5.186310   6.449525   6.813089   6.060312
    37  H    6.960566   7.225503   8.488708   9.427275   9.276573
    38  H    7.993716   7.247957   7.874252   9.136842   9.775763
    39  H    9.927282   9.304950  10.078104  11.378360  11.935155
    40  H   10.183927   9.873018  10.899015  12.142265  12.445327
    41  H    2.145701   3.448779   4.582148   4.778180   3.967192
    42  H    3.417471   2.134904   1.090321   2.178261   3.420392
    43  H    3.912561   3.384518   2.152502   1.091903   2.153233
    44  H    3.428080   3.867374   3.421201   2.179914   1.090343
                   26         27         28         29         30
    26  C    0.000000
    27  F    1.332634   0.000000
    28  F    3.596980   4.697537   0.000000
    29  H    7.673123   7.509591   7.043882   0.000000
    30  H    7.590231   7.475595   6.647127   1.771035   0.000000
    31  H    6.697458   6.130021   7.249752   2.499276   3.062764
    32  H    8.075353   7.555740   8.180647   2.483247   2.461495
    33  H    6.699285   5.982593   7.468159   4.309503   3.740658
    34  H    7.005325   6.596648   6.890106   3.753691   2.532104
    35  H    4.422073   3.832080   5.459413   4.149245   4.001372
    36  H    4.698025   4.261822   5.277221   4.968672   4.149220
    37  H    8.120615   8.281825   6.491482   2.145841   2.071156
    38  H    9.246175  10.119481   6.152072   7.292161   7.316088
    39  H   11.257501  12.020319   8.113641   7.885167   7.708106
    40  H   11.529394  12.057532   8.723180   6.666374   6.314733
    41  H    2.586393   2.297228   3.959241   5.680471   5.337812
    42  H    3.852354   5.184971   2.540030   9.269646   9.077702
    43  H    3.378545   4.484524   4.472349  10.393044  10.369174
    44  H    2.140967   2.563956   5.191491   9.635430   9.682469
                   31         32         33         34         35
    31  H    0.000000
    32  H    1.767270   0.000000
    33  H    2.502810   2.515142   0.000000
    34  H    3.071143   2.502772   1.767257   0.000000
    35  H    2.532192   3.740713   2.461552   3.062769   0.000000
    36  H    3.753711   4.309462   2.483175   2.499228   1.771025
    37  H    4.434902   4.190460   5.689026   4.538476   5.337710
    38  H    9.214056   9.537337  10.417410   9.262997   9.077765
    39  H   10.128048  10.022490  11.218486   9.832140  10.369361
    40  H    9.034431   8.536659  10.001256   8.514872   9.682664
    41  H    4.539020   5.689320   4.190573   4.434790   2.071551
    42  H    9.262293  10.417079   9.537566   9.214580   7.315796
    43  H    9.831371  11.217985  10.022344  10.128170   7.707628
    44  H    8.514419  10.000840   8.536210   9.034127   6.314257
                   36         37         38         39         40
    36  H    0.000000
    37  H    5.680115   0.000000
    38  H    9.270549   5.537818   0.000000
    39  H   10.393819   5.845716   2.513148   0.000000
    40  H    9.635749   4.606717   4.344013   2.516277   0.000000
    41  H    2.145600   6.315722   8.839811  10.427405  10.158449
    42  H    7.292959   8.839247   7.516418   9.757817  10.801434
    43  H    7.885515  10.427053   9.758022  12.065721  12.981592
    44  H    6.666159  10.158395  10.801929  12.981863  13.468368
                   41         42         43         44
    41  H    0.000000
    42  H    5.537878   0.000000
    43  H    5.845687   2.513155   0.000000
    44  H    4.606605   4.344012   2.516265   0.000000
 Stoichiometry    C20H18F4N2
 Framework group  C1[X(C20H18F4N2)]
 Deg. of freedom   126
 Full point group                 C1      NOp   1
 Largest Abelian subgroup         C1      NOp   1
 Largest concise Abelian subgroup C1      NOp   1
                         Standard orientation:                         
 ---------------------------------------------------------------------
 Center     Atomic      Atomic             Coordinates (Angstroms)
 Number     Number       Type             X           Y           Z
 ---------------------------------------------------------------------
      1          6           0        0.528223    1.737497   -0.572882
      2          1           0       -0.041582    1.634209   -1.515980
      3          6           0       -0.527991    1.737277    0.572908
      4          1           0        0.041819    1.633526    1.515964
      5          6           0       -1.333822    3.032244    0.592695
      6          6           0       -0.461292    4.277118    0.604089
      7          6           0        0.461780    4.277347   -0.602886
      8          6           0        1.334185    3.032371   -0.592065
      9          7           0       -1.319421    0.521626    0.469246
     10          6           0       -2.590439    0.557226    0.403298
     11          6           0       -3.473468   -0.592997    0.225929
     12          6           0       -3.154740   -1.934245    0.488345
     13          6           0       -4.045301   -2.971917    0.265935
     14          6           0       -5.312458   -2.682062   -0.232445
     15          6           0       -5.690310   -1.367465   -0.493475
     16          6           0       -4.772386   -0.358083   -0.254239
     17          9           0       -5.131219    0.900854   -0.503693
     18          9           0       -1.974208   -2.229581    1.013100
     19          7           0        1.319473    0.521689   -0.469624
     20          6           0        2.590508    0.557059   -0.403965
     21          6           0        3.473408   -0.593238   -0.226396
     22          6           0        3.154389   -1.934581   -0.487992
     23          6           0        4.044781   -2.972299   -0.265130
     24          6           0        5.312090   -2.682404    0.232871
     25          6           0        5.690233   -1.367740    0.493069
     26          6           0        4.772469   -0.358313    0.253421
     27          9           0        5.131624    0.900691    0.502083
     28          9           0        1.973738   -2.229944   -1.012426
     29          1           0       -2.005818    3.027183    1.465885
     30          1           0       -1.977148    3.068504   -0.304436
     31          1           0        0.139901    4.307097    1.529824
     32          1           0       -1.097371    5.175758    0.614492
     33          1           0        1.097939    5.175917   -0.612926
     34          1           0       -0.139426    4.307767   -1.528590
     35          1           0        1.977530    3.068111    0.305068
     36          1           0        2.006172    3.027712   -1.465265
     37          1           0       -3.127208    1.514006    0.437579
     38          1           0       -3.726982   -3.991014    0.487047
     39          1           0       -6.018657   -3.494151   -0.416978
     40          1           0       -6.676277   -1.110147   -0.881424
     41          1           0        3.127454    1.513738   -0.438519
     42          1           0        3.726237   -3.991471   -0.485622
     43          1           0        6.018155   -3.494524    0.417761
     44          1           0        6.676322   -1.110389    0.880687
 ---------------------------------------------------------------------
 Rotational constants (GHZ):           0.2787616           0.1079307           0.0807504
 Leave Link  202 at Thu Dec  8 09:05:28 2022, MaxMem=  4194304000 cpu:               0.1 elap:               0.0
 (Enter /software/gaussian/G16-A.03/avx/g16/l301.exe)
 Standard basis: def2SVP (5D, 7F)
 Ernie: Thresh=  0.10000D-02 Tol=  0.10000D-05 Strict=F.
 There are   480 symmetry adapted cartesian basis functions of A   symmetry.
 There are   454 symmetry adapted basis functions of A   symmetry.
   454 basis functions,   776 primitive gaussians,   480 cartesian basis functions
    94 alpha electrons       94 beta electrons
       nuclear repulsion energy      2237.1175703046 Hartrees.
 IExCor= 1009 DFT=T Ex+Corr=PBE1PBE ExCW=0 ScaHFX=  0.250000
 ScaDFX=  0.750000  0.750000  1.000000  1.000000 ScalE2=  1.000000  1.000000
 IRadAn=      5 IRanWt=     -1 IRanGd=            0 ICorTp=0 IEmpDi=141
 NAtoms=   44 NActive=   44 NUniq=   44 SFac= 1.00D+00 NAtFMM=   60 NAOKFM=F Big=F
 Integral buffers will be    131072 words long.
 Raffenetti 2 integral format.
 Two-electron integral symmetry is turned on.
 R6Disp:  Grimme-D3(BJ) Dispersion energy=       -0.0483640520 Hartrees.
 Nuclear repulsion after empirical dispersion term =     2237.0692062526 Hartrees.
 Leave Link  301 at Thu Dec  8 09:05:28 2022, MaxMem=  4194304000 cpu:               0.5 elap:               0.1
 (Enter /software/gaussian/G16-A.03/avx/g16/l302.exe)
 NPDir=0 NMtPBC=     1 NCelOv=     1 NCel=       1 NClECP=     1 NCelD=      1
         NCelK=      1 NCelE2=     1 NClLst=     1 CellRange=     0.0.
 One-electron integrals computed using PRISM.
 One-electron integral symmetry used in STVInt
   1 Symmetry operations used in ECPInt.
 ECPInt:  NShTT=   22155 NPrTT=   81395 LenC2=   18204 LenP2D=   44498.
 LDataN:  DoStor=T MaxTD1= 4 Len=   56
 NBasis=   454 RedAO= T EigKep=  2.34D-04  NBF=   454
 NBsUse=   454 1.00D-06 EigRej= -1.00D+00 NBFU=   454
 Precomputing XC quadrature grid using
 IXCGrd= 4 IRadAn=           5 IRanWt=          -1 IRanGd=           0 AccXCQ= 0.00D+00.
 Generated NRdTot=       0 NPtTot=           0 NUsed=           0 NTot=          32
 NSgBfM=   466   466   466   466   466 MxSgAt=    44 MxSgA2=    44.
 Leave Link  302 at Thu Dec  8 09:05:30 2022, MaxMem=  4194304000 cpu:               8.4 elap:               1.2
 (Enter /software/gaussian/G16-A.03/avx/g16/l303.exe)
 DipDrv:  MaxL=1.
 Leave Link  303 at Thu Dec  8 09:05:31 2022, MaxMem=  4194304000 cpu:               2.2 elap:               0.4
 (Enter /software/gaussian/G16-A.03/avx/g16/l401.exe)
 ExpMin= 1.22D-01 ExpMax= 2.89D+03 ExpMxC= 4.35D+02 IAcc=3 IRadAn=         5 AccDes= 0.00D+00
 Harris functional with IExCor= 1009 and IRadAn=       5 diagonalized for initial guess.
 HarFok:  IExCor= 1009 AccDes= 0.00D+00 IRadAn=         5 IDoV= 1 UseB2=F ITyADJ=14
 ICtDFT=  3500011 ScaDFX=  1.000000  1.000000  1.000000  1.000000
 FoFCou: FMM=F IPFlag=           0 FMFlag=      100000 FMFlg1=           0
         NFxFlg=           0 DoJE=T BraDBF=F KetDBF=T FulRan=T
         wScrn=  0.000000 ICntrl=       500 IOpCl=  0 I1Cent=   200000004 NGrid=           0
         NMat0=    1 NMatS0=      1 NMatT0=    0 NMatD0=    1 NMtDS0=    0 NMtDT0=    0
 Petite list used in FoFCou.
 Harris En= -1279.68401138891    
 JPrj=0 DoOrth=F DoCkMO=F.
 Leave Link  401 at Thu Dec  8 09:05:37 2022, MaxMem=  4194304000 cpu:              39.8 elap:               5.0
 (Enter /software/gaussian/G16-A.03/avx/g16/l502.exe)
 Integral symmetry usage will be decided dynamically.
 Closed shell SCF:
 Using DIIS extrapolation, IDIIS=  1040.
 NGot=  4194304000 LenX=  4193834280 LenY=  4193603400
 Requested convergence on RMS density matrix=1.00D-08 within 128 cycles.
 Requested convergence on MAX density matrix=1.00D-06.
 Requested convergence on             energy=1.00D-06.
 No special actions if energy rises.
 Fock matrices will be formed incrementally for  20 cycles.
 Integral accuracy reduced to 1.0D-05 until final iterations.

 Cycle   1  Pass 0  IDiag  1:
 FoFJK:  IHMeth= 1 ICntrl=       0 DoSepK=F KAlg= 0 I1Cent=           0 FoldK=F
 IRaf= 740000000 NMat=       1 IRICut=       1 DoRegI=T DoRafI=F ISym2E= 0 IDoP0=0 IntGTp=1.
 FoFCou: FMM=F IPFlag=           0 FMFlag=      100000 FMFlg1=           0
         NFxFlg=           0 DoJE=F BraDBF=F KetDBF=F FulRan=T
         wScrn=  0.000000 ICntrl=         0 IOpCl=  0 I1Cent=           0 NGrid=           0
         NMat0=    1 NMatS0=      1 NMatT0=    0 NMatD0=    1 NMtDS0=    0 NMtDT0=    0
 Symmetry not used in FoFCou.
 E= -1279.08008881964    
 DIIS: error= 1.99D-02 at cycle   1 NSaved=   1.
 NSaved= 1 IEnMin= 1 EnMin= -1279.08008881964     IErMin= 1 ErrMin= 1.99D-02
 ErrMax= 1.99D-02  0.00D+00 EMaxC= 1.00D-01 BMatC= 3.84D-01 BMatP= 3.84D-01
 IDIUse=3 WtCom= 8.01D-01 WtEn= 1.99D-01
 Coeff-Com:  0.100D+01
 Coeff-En:   0.100D+01
 Coeff:      0.100D+01
 Gap=     0.160 Goal=   None    Shift=    0.000
 GapD=    0.160 DampG=1.000 DampE=0.500 DampFc=0.5000 IDamp=-1.
 Damping current iteration by 5.00D-01
 RMSDP=3.76D-03 MaxDP=1.22D-01              OVMax= 2.67D-01

 Cycle   2  Pass 0  IDiag  1:
 RMSU=  1.83D-03    CP:  9.75D-01
 E= -1279.25631642503     Delta-E=       -0.176227605392 Rises=F Damp=T
 DIIS: error= 6.77D-03 at cycle   2 NSaved=   2.
 NSaved= 2 IEnMin= 2 EnMin= -1279.25631642503     IErMin= 2 ErrMin= 6.77D-03
 ErrMax= 6.77D-03  0.00D+00 EMaxC= 1.00D-01 BMatC= 3.41D-02 BMatP= 3.84D-01
 IDIUse=3 WtCom= 9.32D-01 WtEn= 6.77D-02
 Coeff-Com:  0.807D-01 0.919D+00
 Coeff-En:   0.141D+00 0.859D+00
 Coeff:      0.848D-01 0.915D+00
 Gap=     0.197 Goal=   None    Shift=    0.000
 RMSDP=1.35D-03 MaxDP=3.50D-02 DE=-1.76D-01 OVMax= 1.97D-01

 Cycle   3  Pass 0  IDiag  1:
 RMSU=  1.32D-03    CP:  9.60D-01  1.02D+00
 E= -1279.46705693916     Delta-E=       -0.210740514129 Rises=F Damp=F
 DIIS: error= 6.72D-03 at cycle   3 NSaved=   3.
 NSaved= 3 IEnMin= 3 EnMin= -1279.46705693916     IErMin= 3 ErrMin= 6.72D-03
 ErrMax= 6.72D-03  0.00D+00 EMaxC= 1.00D-01 BMatC= 3.18D-02 BMatP= 3.41D-02
 IDIUse=3 WtCom= 9.33D-01 WtEn= 6.72D-02
 Coeff-Com: -0.177D-01 0.495D+00 0.523D+00
 Coeff-En:   0.000D+00 0.000D+00 0.100D+01
 Coeff:     -0.165D-01 0.461D+00 0.555D+00
 Gap=     0.175 Goal=   None    Shift=    0.000
 RMSDP=6.73D-04 MaxDP=3.23D-02 DE=-2.11D-01 OVMax= 5.89D-02

 Cycle   4  Pass 0  IDiag  1:
 RMSU=  4.81D-04    CP:  9.63D-01  1.13D+00  6.77D-01
 E= -1279.49102657973     Delta-E=       -0.023969640572 Rises=F Damp=F
 DIIS: error= 4.17D-03 at cycle   4 NSaved=   4.
 NSaved= 4 IEnMin= 4 EnMin= -1279.49102657973     IErMin= 4 ErrMin= 4.17D-03
 ErrMax= 4.17D-03  0.00D+00 EMaxC= 1.00D-01 BMatC= 8.71D-03 BMatP= 3.18D-02
 IDIUse=3 WtCom= 9.58D-01 WtEn= 4.17D-02
 Coeff-Com: -0.170D-01 0.152D+00 0.359D+00 0.506D+00
 Coeff-En:   0.000D+00 0.000D+00 0.235D+00 0.765D+00
 Coeff:     -0.163D-01 0.146D+00 0.354D+00 0.517D+00
 Gap=     0.185 Goal=   None    Shift=    0.000
 RMSDP=2.84D-04 MaxDP=1.52D-02 DE=-2.40D-02 OVMax= 2.45D-02

 Cycle   5  Pass 0  IDiag  1:
 RMSU=  1.73D-04    CP:  9.61D-01  1.09D+00  7.59D-01  6.29D-01
 E= -1279.49883765368     Delta-E=       -0.007811073947 Rises=F Damp=F
 DIIS: error= 8.81D-04 at cycle   5 NSaved=   5.
 NSaved= 5 IEnMin= 5 EnMin= -1279.49883765368     IErMin= 5 ErrMin= 8.81D-04
 ErrMax= 8.81D-04  0.00D+00 EMaxC= 1.00D-01 BMatC= 6.88D-04 BMatP= 8.71D-03
 IDIUse=3 WtCom= 9.91D-01 WtEn= 8.81D-03
 Coeff-Com: -0.754D-02 0.315D-01 0.149D+00 0.301D+00 0.526D+00
 Coeff-En:   0.000D+00 0.000D+00 0.000D+00 0.000D+00 0.100D+01
 Coeff:     -0.747D-02 0.312D-01 0.148D+00 0.298D+00 0.530D+00
 Gap=     0.182 Goal=   None    Shift=    0.000
 RMSDP=8.47D-05 MaxDP=4.27D-03 DE=-7.81D-03 OVMax= 6.57D-03

 Cycle   6  Pass 0  IDiag  1:
 RMSU=  4.75D-05    CP:  9.61D-01  1.10D+00  7.69D-01  6.50D-01  6.19D-01
 E= -1279.49938778242     Delta-E=       -0.000550128738 Rises=F Damp=F
 DIIS: error= 2.74D-04 at cycle   6 NSaved=   6.
 NSaved= 6 IEnMin= 6 EnMin= -1279.49938778242     IErMin= 6 ErrMin= 2.74D-04
 ErrMax= 2.74D-04  0.00D+00 EMaxC= 1.00D-01 BMatC= 5.07D-05 BMatP= 6.88D-04
 IDIUse=3 WtCom= 9.97D-01 WtEn= 2.74D-03
 Coeff-Com: -0.260D-02 0.508D-02 0.521D-01 0.120D+00 0.291D+00 0.534D+00
 Coeff-En:   0.000D+00 0.000D+00 0.000D+00 0.000D+00 0.861D-02 0.991D+00
 Coeff:     -0.259D-02 0.506D-02 0.519D-01 0.120D+00 0.291D+00 0.535D+00
 Gap=     0.183 Goal=   None    Shift=    0.000
 RMSDP=2.53D-05 MaxDP=1.03D-03 DE=-5.50D-04 OVMax= 2.77D-03

 Cycle   7  Pass 0  IDiag  1:
 RMSU=  1.45D-05    CP:  9.61D-01  1.10D+00  7.70D-01  6.55D-01  6.80D-01
                    CP:  6.34D-01
 E= -1279.49943794579     Delta-E=       -0.000050163374 Rises=F Damp=F
 DIIS: error= 9.89D-05 at cycle   7 NSaved=   7.
 NSaved= 7 IEnMin= 7 EnMin= -1279.49943794579     IErMin= 7 ErrMin= 9.89D-05
 ErrMax= 9.89D-05  0.00D+00 EMaxC= 1.00D-01 BMatC= 5.15D-06 BMatP= 5.07D-05
 IDIUse=1 WtCom= 1.00D+00 WtEn= 0.00D+00
 Coeff-Com: -0.493D-03-0.616D-03 0.131D-01 0.339D-01 0.102D+00 0.296D+00
 Coeff-Com:  0.556D+00
 Coeff:     -0.493D-03-0.616D-03 0.131D-01 0.339D-01 0.102D+00 0.296D+00
 Coeff:      0.556D+00
 Gap=     0.183 Goal=   None    Shift=    0.000
 RMSDP=6.38D-06 MaxDP=3.32D-04 DE=-5.02D-05 OVMax= 8.27D-04

 Initial convergence to 1.0D-05 achieved.  Increase integral accuracy.
 Cycle   8  Pass 1  IDiag  1:
 E= -1279.49939581569     Delta-E=        0.000042130106 Rises=F Damp=F
 DIIS: error= 1.32D-04 at cycle   1 NSaved=   1.
 NSaved= 1 IEnMin= 1 EnMin= -1279.49939581569     IErMin= 1 ErrMin= 1.32D-04
 ErrMax= 1.32D-04  0.00D+00 EMaxC= 1.00D-01 BMatC= 4.15D-06 BMatP= 4.15D-06
 IDIUse=3 WtCom= 9.99D-01 WtEn= 1.32D-03
 Coeff-Com:  0.100D+01
 Coeff-En:   0.100D+01
 Coeff:      0.100D+01
 Gap=     0.183 Goal=   None    Shift=    0.000
 RMSDP=6.38D-06 MaxDP=3.32D-04 DE= 4.21D-05 OVMax= 3.37D-04

 Cycle   9  Pass 1  IDiag  1:
 RMSU=  1.14D-04    CP:  1.00D+00
 E= -1279.49939989832     Delta-E=       -0.000004082630 Rises=F Damp=F
 DIIS: error= 2.83D-05 at cycle   2 NSaved=   2.
 NSaved= 2 IEnMin= 2 EnMin= -1279.49939989832     IErMin= 2 ErrMin= 2.83D-05
 ErrMax= 2.83D-05  0.00D+00 EMaxC= 1.00D-01 BMatC= 4.39D-07 BMatP= 4.15D-06
 IDIUse=1 WtCom= 1.00D+00 WtEn= 0.00D+00
 Coeff-Com:  0.132D+00 0.868D+00
 Coeff:      0.132D+00 0.868D+00
 Gap=     0.183 Goal=   None    Shift=    0.000
 RMSDP=4.41D-06 MaxDP=1.35D-04 DE=-4.08D-06 OVMax= 3.82D-04

 Cycle  10  Pass 1  IDiag  1:
 RMSU=  4.18D-06    CP:  1.00D+00  1.01D+00
 E= -1279.49939951224     Delta-E=        0.000000386082 Rises=F Damp=F
 DIIS: error= 3.51D-05 at cycle   3 NSaved=   3.
 NSaved= 3 IEnMin= 2 EnMin= -1279.49939989832     IErMin= 2 ErrMin= 2.83D-05
 ErrMax= 3.51D-05  0.00D+00 EMaxC= 1.00D-01 BMatC= 8.25D-07 BMatP= 4.39D-07
 IDIUse=1 WtCom= 1.00D+00 WtEn= 0.00D+00
 Coeff-Com: -0.299D-02 0.580D+00 0.423D+00
 Coeff:     -0.299D-02 0.580D+00 0.423D+00
 Gap=     0.183 Goal=   None    Shift=    0.000
 RMSDP=2.63D-06 MaxDP=1.05D-04 DE= 3.86D-07 OVMax= 2.43D-04

 Cycle  11  Pass 1  IDiag  1:
 RMSU=  6.78D-07    CP:  1.00D+00  1.01D+00  3.98D-01
 E= -1279.49940029201     Delta-E=       -0.000000779778 Rises=F Damp=F
 DIIS: error= 5.31D-06 at cycle   4 NSaved=   4.
 NSaved= 4 IEnMin= 4 EnMin= -1279.49940029201     IErMin= 4 ErrMin= 5.31D-06
 ErrMax= 5.31D-06  0.00D+00 EMaxC= 1.00D-01 BMatC= 2.08D-08 BMatP= 4.39D-07
 IDIUse=1 WtCom= 1.00D+00 WtEn= 0.00D+00
 Coeff-Com: -0.459D-02 0.358D+00 0.271D+00 0.375D+00
 Coeff:     -0.459D-02 0.358D+00 0.271D+00 0.375D+00
 Gap=     0.183 Goal=   None    Shift=    0.000
 RMSDP=3.80D-07 MaxDP=2.24D-05 DE=-7.80D-07 OVMax= 2.84D-05

 Cycle  12  Pass 1  IDiag  1:
 RMSU=  2.25D-07    CP:  1.00D+00  1.02D+00  4.25D-01  5.90D-01
 E= -1279.49940030986     Delta-E=       -0.000000017843 Rises=F Damp=F
 DIIS: error= 6.54D-07 at cycle   5 NSaved=   5.
 NSaved= 5 IEnMin= 5 EnMin= -1279.49940030986     IErMin= 5 ErrMin= 6.54D-07
 ErrMax= 6.54D-07  0.00D+00 EMaxC= 1.00D-01 BMatC= 3.33D-10 BMatP= 2.08D-08
 IDIUse=1 WtCom= 1.00D+00 WtEn= 0.00D+00
 Coeff-Com: -0.220D-02 0.156D+00 0.118D+00 0.192D+00 0.536D+00
 Coeff:     -0.220D-02 0.156D+00 0.118D+00 0.192D+00 0.536D+00
 Gap=     0.183 Goal=   None    Shift=    0.000
 RMSDP=6.27D-08 MaxDP=2.61D-06 DE=-1.78D-08 OVMax= 4.73D-06

 Cycle  13  Pass 1  IDiag  1:
 RMSU=  5.66D-08    CP:  1.00D+00  1.02D+00  4.23D-01  6.04D-01  8.97D-01
 E= -1279.49940031012     Delta-E=       -0.000000000266 Rises=F Damp=F
 DIIS: error= 2.66D-07 at cycle   6 NSaved=   6.
 NSaved= 6 IEnMin= 6 EnMin= -1279.49940031012     IErMin= 6 ErrMin= 2.66D-07
 ErrMax= 2.66D-07  0.00D+00 EMaxC= 1.00D-01 BMatC= 4.68D-11 BMatP= 3.33D-10
 IDIUse=1 WtCom= 1.00D+00 WtEn= 0.00D+00
 Coeff-Com: -0.720D-03 0.477D-01 0.351D-01 0.660D-01 0.303D+00 0.549D+00
 Coeff:     -0.720D-03 0.477D-01 0.351D-01 0.660D-01 0.303D+00 0.549D+00
 Gap=     0.183 Goal=   None    Shift=    0.000
 RMSDP=2.29D-08 MaxDP=9.05D-07 DE=-2.66D-10 OVMax= 2.34D-06

 Cycle  14  Pass 1  IDiag  1:
 RMSU=  1.79D-08    CP:  1.00D+00  1.02D+00  4.22D-01  6.06D-01  9.20D-01
                    CP:  7.77D-01
 E= -1279.49940031020     Delta-E=       -0.000000000072 Rises=F Damp=F
 DIIS: error= 6.14D-08 at cycle   7 NSaved=   7.
 NSaved= 7 IEnMin= 7 EnMin= -1279.49940031020     IErMin= 7 ErrMin= 6.14D-08
 ErrMax= 6.14D-08  0.00D+00 EMaxC= 1.00D-01 BMatC= 4.06D-12 BMatP= 4.68D-11
 IDIUse=1 WtCom= 1.00D+00 WtEn= 0.00D+00
 Coeff-Com:  0.637D-04-0.599D-02-0.533D-02-0.347D-02 0.364D-01 0.245D+00
 Coeff-Com:  0.734D+00
 Coeff:      0.637D-04-0.599D-02-0.533D-02-0.347D-02 0.364D-01 0.245D+00
 Coeff:      0.734D+00
 Gap=     0.183 Goal=   None    Shift=    0.000
 RMSDP=8.14D-09 MaxDP=2.05D-07 DE=-7.23D-11 OVMax= 5.51D-07

 SCF Done:  E(RPBE1PBE) =  -1279.49940031     A.U. after   14 cycles
            NFock= 14  Conv=0.81D-08     -V/T= 2.0087
 KE= 1.268483645059D+03 PE=-7.466773320686D+03 EE= 2.681721069064D+03
 Leave Link  502 at Thu Dec  8 09:07:36 2022, MaxMem=  4194304000 cpu:             949.2 elap:             118.9
 (Enter /software/gaussian/G16-A.03/avx/g16/l801.exe)
 DoSCS=F DFT=T ScalE2(SS,OS)=  1.000000  1.000000
 Range of M.O.s used for correlation:     1   454
 NBasis=   454 NAE=    94 NBE=    94 NFC=     0 NFV=     0
 NROrb=    454 NOA=    94 NOB=    94 NVA=   360 NVB=   360
 Leave Link  801 at Thu Dec  8 09:07:36 2022, MaxMem=  4194304000 cpu:               0.2 elap:               0.0
 (Enter /software/gaussian/G16-A.03/avx/g16/l1101.exe)
 Using compressed storage, NAtomX=    44.
 Will process     45 centers per pass.
   1 Symmetry operations used in ECPInt.
 ECPInt:  NShTT=   22155 NPrTT=   81395 LenC2=   18204 LenP2D=   44498.
 LDataN:  DoStor=T MaxTD1= 5 Len=  102
 R6Disp: Adding Grimme-D3(BJ) dispersion energy 1st derivatives to the gradient.
 Leave Link 1101 at Thu Dec  8 09:07:37 2022, MaxMem=  4194304000 cpu:               9.6 elap:               1.2
 (Enter /software/gaussian/G16-A.03/avx/g16/l1102.exe)
 Symmetrizing basis deriv contribution to polar:
 IMax=3 JMax=2 DiffMx= 0.00D+00
 Leave Link 1102 at Thu Dec  8 09:07:37 2022, MaxMem=  4194304000 cpu:               0.6 elap:               0.1
 (Enter /software/gaussian/G16-A.03/avx/g16/l1110.exe)
 Forming Gx(P) for the SCF density, NAtomX=    44.
 Integral derivatives from FoFJK, PRISM(SPDF).
 Do as many integral derivatives as possible in FoFJK.
 G2DrvN: MDV=    4194300696.
 G2DrvN: will do    45 centers at a time, making    1 passes.
 Calling FoFCou, ICntrl=  3107 FMM=F I1Cent=   0 AccDes= 0.00D+00.
 FoFJK:  IHMeth= 1 ICntrl=    3107 DoSepK=F KAlg= 0 I1Cent=           0 FoldK=F
 IRaf=         0 NMat=       1 IRICut=       1 DoRegI=T DoRafI=F ISym2E= 0 IDoP0=0 IntGTp=1.
 FoFCou: FMM=F IPFlag=           0 FMFlag=      100000 FMFlg1=           0
         NFxFlg=           0 DoJE=F BraDBF=F KetDBF=F FulRan=T
         wScrn=  0.000000 ICntrl=      3107 IOpCl=  0 I1Cent=           0 NGrid=           0
         NMat0=    1 NMatS0=      1 NMatT0=    0 NMatD0=    1 NMtDS0=    0 NMtDT0=    0
 Symmetry not used in FoFCou.
 End of G2Drv F.D. properties file   721 does not exist.
 End of G2Drv F.D. properties file   722 does not exist.
 End of G2Drv F.D. properties file   788 does not exist.
 Leave Link 1110 at Thu Dec  8 09:14:37 2022, MaxMem=  4194304000 cpu:            3354.6 elap:             419.4
 (Enter /software/gaussian/G16-A.03/avx/g16/l1002.exe)
 Minotr:  Closed shell wavefunction.
          IDoAtm=11111111111111111111111111111111111111111111
          Direct CPHF calculation.
          Differentiating once with respect to electric field.
                with respect to dipole field.
          Differentiating once with respect to nuclear coordinates.
          Requested convergence is 1.0D-08 RMS, and 1.0D-07 maximum.
          Secondary convergence is 1.0D-12 RMS, and 1.0D-12 maximum.
          NewPWx=T KeepS1=F KeepF1=F KeepIn=T MapXYZ=F SortEE=F KeepMc=T.
        13421 words used for storage of precomputed grid.
 Two-electron integrals replicated using symmetry.
          MDV=    4194304000 using IRadAn=       1.
          Solving linear equations simultaneously, MaxMat=     384.
 FoF2E skips out because all densities are zero.
 CalDSu exits because no D1Ps are significant.
 FoFJK:  IHMeth= 1 ICntrl=       0 DoSepK=F KAlg= 0 I1Cent=           0 FoldK=F
 IRaf= 700000000 NMat=     132 IRICut=     330 DoRegI=T DoRafI=T ISym2E= 2 IDoP0=3 IntGTp=3.
 FoFCou: FMM=F IPFlag=           0 FMFlag=      100000 FMFlg1=           0
         NFxFlg=           0 DoJE=F BraDBF=F KetDBF=F FulRan=T
         wScrn=  0.000000 ICntrl=         0 IOpCl=  0 I1Cent=           0 NGrid=           0
         NMat0=  132 NMatS0=    132 NMatT0=    0 NMatD0=  132 NMtDS0=    0 NMtDT0=    0
 Integrals replicated using symmetry in FoFCou.
 Raff kept on since  63.62% of shell-pairs survive, threshold=   0.20 IRatSp=64.
          There are   135 degrees of freedom in the 1st order CPHF.  IDoFFX=6 NUNeed=     3.
    132 vectors produced by pass  0 Test12= 3.38D-14 1.00D-09 XBig12= 3.17D+02 6.92D+00.
 AX will form   132 AO Fock derivatives at one time.
    132 vectors produced by pass  1 Test12= 3.38D-14 1.00D-09 XBig12= 6.67D+01 1.49D+00.
    132 vectors produced by pass  2 Test12= 3.38D-14 1.00D-09 XBig12= 6.86D-01 7.18D-02.
    132 vectors produced by pass  3 Test12= 3.38D-14 1.00D-09 XBig12= 4.01D-03 4.11D-03.
    132 vectors produced by pass  4 Test12= 3.38D-14 1.00D-09 XBig12= 1.53D-05 2.48D-04.
    108 vectors produced by pass  5 Test12= 3.38D-14 1.00D-09 XBig12= 1.98D-08 1.01D-05.
     31 vectors produced by pass  6 Test12= 3.38D-14 1.00D-09 XBig12= 2.43D-11 4.11D-07.
      3 vectors produced by pass  7 Test12= 3.38D-14 1.00D-09 XBig12= 2.82D-14 1.06D-08.
      2 vectors produced by pass  8 Test12= 3.38D-14 1.00D-09 XBig12= 2.69D-16 1.27D-09.
 InvSVY:  IOpt=1 It=  1 EMax= 1.78D-14
 Solved reduced A of dimension   804 with   135 vectors.
 FullF1:  Do perturbations      1 to       3.
 Isotropic polarizability for W=    0.000000      238.07 Bohr**3.
 End of Minotr F.D. properties file   721 does not exist.
 End of Minotr F.D. properties file   722 does not exist.
 End of Minotr F.D. properties file   788 does not exist.
 Leave Link 1002 at Thu Dec  8 09:29:09 2022, MaxMem=  4194304000 cpu:            6973.0 elap:             871.8
 (Enter /software/gaussian/G16-A.03/avx/g16/l601.exe)
 Copying SCF densities to generalized density rwf, IOpCl= 0 IROHF=0.

 **********************************************************************

            Population analysis using the SCF density.

 **********************************************************************

 Orbital symmetries:
       Occupied  (A) (A) (A) (A) (A) (A) (A) (A) (A) (A) (A) (A)
                 (A) (A) (A) (A) (A) (A) (A) (A) (A) (A) (A) (A)
                 (A) (A) (A) (A) (A) (A) (A) (A) (A) (A) (A) (A)
                 (A) (A) (A) (A) (A) (A) (A) (A) (A) (A) (A) (A)
                 (A) (A) (A) (A) (A) (A) (A) (A) (A) (A) (A) (A)
                 (A) (A) (A) (A) (A) (A) (A) (A) (A) (A) (A) (A)
                 (A) (A) (A) (A) (A) (A) (A) (A) (A) (A) (A) (A)
                 (A) (A) (A) (A) (A) (A) (A) (A) (A) (A)
       Virtual   (A) (A) (A) (A) (A) (A) (A) (A) (A) (A) (A) (A)
                 (A) (A) (A) (A) (A) (A) (A) (A) (A) (A) (A) (A)
                 (A) (A) (A) (A) (A) (A) (A) (A) (A) (A) (A) (A)
                 (A) (A) (A) (A) (A) (A) (A) (A) (A) (A) (A) (A)
                 (A) (A) (A) (A) (A) (A) (A) (A) (A) (A) (A) (A)
                 (A) (A) (A) (A) (A) (A) (A) (A) (A) (A) (A) (A)
                 (A) (A) (A) (A) (A) (A) (A) (A) (A) (A) (A) (A)
                 (A) (A) (A) (A) (A) (A) (A) (A) (A) (A) (A) (A)
                 (A) (A) (A) (A) (A) (A) (A) (A) (A) (A) (A) (A)
                 (A) (A) (A) (A) (A) (A) (A) (A) (A) (A) (A) (A)
                 (A) (A) (A) (A) (A) (A) (A) (A) (A) (A) (A) (A)
                 (A) (A) (A) (A) (A) (A) (A) (A) (A) (A) (A) (A)
                 (A) (A) (A) (A) (A) (A) (A) (A) (A) (A) (A) (A)
                 (A) (A) (A) (A) (A) (A) (A) (A) (A) (A) (A) (A)
                 (A) (A) (A) (A) (A) (A) (A) (A) (A) (A) (A) (A)
                 (A) (A) (A) (A) (A) (A) (A) (A) (A) (A) (A) (A)
                 (A) (A) (A) (A) (A) (A) (A) (A) (A) (A) (A) (A)
                 (A) (A) (A) (A) (A) (A) (A) (A) (A) (A) (A) (A)
                 (A) (A) (A) (A) (A) (A) (A) (A) (A) (A) (A) (A)
                 (A) (A) (A) (A) (A) (A) (A) (A) (A) (A) (A) (A)
                 (A) (A) (A) (A) (A) (A) (A) (A) (A) (A) (A) (A)
                 (A) (A) (A) (A) (A) (A) (A) (A) (A) (A) (A) (A)
                 (A) (A) (A) (A) (A) (A) (A) (A) (A) (A) (A) (A)
                 (A) (A) (A) (A) (A) (A) (A) (A) (A) (A) (A) (A)
                 (A) (A) (A) (A) (A) (A) (A) (A) (A) (A) (A) (A)
                 (A) (A) (A) (A) (A) (A) (A) (A) (A) (A) (A) (A)
                 (A) (A) (A) (A) (A) (A) (A) (A) (A) (A) (A) (A)
                 (A) (A) (A) (A) (A) (A) (A) (A) (A) (A) (A) (A)
                 (A) (A) (A) (A) (A) (A) (A) (A) (A) (A) (A) (A)
                 (A) (A) (A) (A) (A) (A) (A) (A) (A) (A) (A) (A)
 The electronic state is 1-A.
 Alpha  occ. eigenvalues --  -24.79754 -24.79754 -24.78204 -24.78204 -14.37567
 Alpha  occ. eigenvalues --  -14.37566 -10.33399 -10.33398 -10.33120 -10.33120
 Alpha  occ. eigenvalues --  -10.27398 -10.27396 -10.26327 -10.26320 -10.26148
 Alpha  occ. eigenvalues --  -10.26148 -10.25739 -10.25739 -10.24962 -10.24962
 Alpha  occ. eigenvalues --  -10.24726 -10.24726 -10.23241 -10.23228 -10.23121
 Alpha  occ. eigenvalues --  -10.23119  -1.25718  -1.25718  -1.24373  -1.24372
 Alpha  occ. eigenvalues --   -0.95012  -0.92991  -0.89688  -0.89390  -0.84700
 Alpha  occ. eigenvalues --   -0.80222  -0.79927  -0.77532  -0.77530  -0.75690
 Alpha  occ. eigenvalues --   -0.75133  -0.68558  -0.67593  -0.65023  -0.64899
 Alpha  occ. eigenvalues --   -0.64485  -0.63366  -0.59637  -0.59252  -0.58345
 Alpha  occ. eigenvalues --   -0.57213  -0.56645  -0.55275  -0.54618  -0.51593
 Alpha  occ. eigenvalues --   -0.51301  -0.51209  -0.50707  -0.50648  -0.50312
 Alpha  occ. eigenvalues --   -0.49781  -0.48564  -0.48438  -0.48301  -0.47191
 Alpha  occ. eigenvalues --   -0.47021  -0.46621  -0.45926  -0.45905  -0.44902
 Alpha  occ. eigenvalues --   -0.43178  -0.41438  -0.41437  -0.41182  -0.40543
 Alpha  occ. eigenvalues --   -0.39498  -0.39292  -0.38559  -0.38256  -0.37972
 Alpha  occ. eigenvalues --   -0.37945  -0.36557  -0.36373  -0.35079  -0.34042
 Alpha  occ. eigenvalues --   -0.33882  -0.33667  -0.31780  -0.26571  -0.26519
 Alpha  occ. eigenvalues --   -0.26246  -0.25658  -0.25312  -0.23230
 Alpha virt. eigenvalues --   -0.04924  -0.04370  -0.00284  -0.00283   0.03829
 Alpha virt. eigenvalues --    0.04518   0.06359   0.06906   0.07027   0.08029
 Alpha virt. eigenvalues --    0.09670   0.11371   0.12069   0.12072   0.12494
 Alpha virt. eigenvalues --    0.13312   0.13636   0.13928   0.14743   0.15074
 Alpha virt. eigenvalues --    0.15199   0.15249   0.15800   0.15898   0.16814
 Alpha virt. eigenvalues --    0.17008   0.18446   0.19233   0.19470   0.19916
 Alpha virt. eigenvalues --    0.21551   0.23523   0.23874   0.24734   0.25223
 Alpha virt. eigenvalues --    0.26451   0.26455   0.27161   0.28027   0.28375
 Alpha virt. eigenvalues --    0.28965   0.29893   0.30574   0.30879   0.31251
 Alpha virt. eigenvalues --    0.31646   0.34870   0.34904   0.37084   0.37301
 Alpha virt. eigenvalues --    0.37811   0.38754   0.41345   0.41522   0.42056
 Alpha virt. eigenvalues --    0.42286   0.44514   0.44659   0.44795   0.45631
 Alpha virt. eigenvalues --    0.45804   0.46355   0.46603   0.47432   0.47692
 Alpha virt. eigenvalues --    0.47977   0.48792   0.49726   0.50187   0.50523
 Alpha virt. eigenvalues --    0.51936   0.53967   0.54093   0.54587   0.54702
 Alpha virt. eigenvalues --    0.56143   0.56434   0.58105   0.59089   0.59369
 Alpha virt. eigenvalues --    0.60243   0.60657   0.61116   0.61162   0.61334
 Alpha virt. eigenvalues --    0.61524   0.62188   0.63712   0.63847   0.64386
 Alpha virt. eigenvalues --    0.64667   0.65443   0.65664   0.66051   0.66098
 Alpha virt. eigenvalues --    0.66154   0.67700   0.67736   0.68330   0.68578
 Alpha virt. eigenvalues --    0.68710   0.69394   0.69686   0.70252   0.71157
 Alpha virt. eigenvalues --    0.71431   0.71604   0.72191   0.72670   0.72679
 Alpha virt. eigenvalues --    0.72849   0.73337   0.73437   0.73543   0.74424
 Alpha virt. eigenvalues --    0.75231   0.76183   0.76458   0.76924   0.77877
 Alpha virt. eigenvalues --    0.78437   0.79293   0.79977   0.80305   0.80984
 Alpha virt. eigenvalues --    0.81453   0.81988   0.84159   0.84707   0.85617
 Alpha virt. eigenvalues --    0.85888   0.88371   0.91557   0.95296   0.96211
 Alpha virt. eigenvalues --    0.96462   0.97285   0.99572   0.99957   1.00487
 Alpha virt. eigenvalues --    1.02843   1.03921   1.05657   1.07524   1.09431
 Alpha virt. eigenvalues --    1.11209   1.12195   1.13100   1.13858   1.13861
 Alpha virt. eigenvalues --    1.16673   1.16832   1.19078   1.19595   1.21274
 Alpha virt. eigenvalues --    1.21632   1.22166   1.22570   1.22983   1.23192
 Alpha virt. eigenvalues --    1.24588   1.25223   1.25582   1.27123   1.27132
 Alpha virt. eigenvalues --    1.28166   1.28217   1.29337   1.31325   1.31694
 Alpha virt. eigenvalues --    1.32115   1.32457   1.32979   1.34067   1.36813
 Alpha virt. eigenvalues --    1.37140   1.40837   1.42252   1.44182   1.45950
 Alpha virt. eigenvalues --    1.48701   1.48727   1.49201   1.49539   1.50142
 Alpha virt. eigenvalues --    1.50742   1.51574   1.53323   1.53816   1.54922
 Alpha virt. eigenvalues --    1.54945   1.57223   1.57647   1.62868   1.63749
 Alpha virt. eigenvalues --    1.65073   1.66548   1.67361   1.68007   1.70756
 Alpha virt. eigenvalues --    1.70765   1.71088   1.71213   1.73118   1.73514
 Alpha virt. eigenvalues --    1.73610   1.74130   1.74842   1.75691   1.76248
 Alpha virt. eigenvalues --    1.77035   1.77396   1.78507   1.78654   1.79157
 Alpha virt. eigenvalues --    1.79783   1.80482   1.80651   1.80705   1.81502
 Alpha virt. eigenvalues --    1.82623   1.82678   1.83456   1.84257   1.86167
 Alpha virt. eigenvalues --    1.86734   1.88208   1.88447   1.89482   1.89911
 Alpha virt. eigenvalues --    1.90494   1.90932   1.92029   1.92241   1.92709
 Alpha virt. eigenvalues --    1.93470   1.94673   1.94687   1.96704   1.96892
 Alpha virt. eigenvalues --    1.97745   1.98382   1.98887   2.00737   2.01398
 Alpha virt. eigenvalues --    2.01688   2.03676   2.05015   2.05473   2.06822
 Alpha virt. eigenvalues --    2.08012   2.08358   2.09505   2.09815   2.11239
 Alpha virt. eigenvalues --    2.11666   2.15267   2.15538   2.16337   2.16781
 Alpha virt. eigenvalues --    2.16860   2.17938   2.18615   2.18827   2.19762
 Alpha virt. eigenvalues --    2.19990   2.20707   2.21682   2.23300   2.24402
 Alpha virt. eigenvalues --    2.25104   2.25340   2.26931   2.28200   2.28477
 Alpha virt. eigenvalues --    2.29145   2.29728   2.30398   2.31845   2.33227
 Alpha virt. eigenvalues --    2.34381   2.35409   2.42058   2.43042   2.45759
 Alpha virt. eigenvalues --    2.45954   2.46568   2.47342   2.49227   2.49996
 Alpha virt. eigenvalues --    2.50979   2.52201   2.55963   2.56189   2.58324
 Alpha virt. eigenvalues --    2.59081   2.59549   2.59549   2.60605   2.61913
 Alpha virt. eigenvalues --    2.62036   2.64077   2.64621   2.66800   2.67344
 Alpha virt. eigenvalues --    2.71007   2.71679   2.72990   2.74310   2.74380
 Alpha virt. eigenvalues --    2.77353   2.78424   2.80444   2.81187   2.84067
 Alpha virt. eigenvalues --    2.86383   2.87334   2.89794   2.89998   2.91038
 Alpha virt. eigenvalues --    2.91405   2.94737   2.94926   2.96311   2.96499
 Alpha virt. eigenvalues --    2.98807   3.02453   3.02501   3.05916   3.06389
 Alpha virt. eigenvalues --    3.06531   3.07751   3.07759   3.09792   3.09839
 Alpha virt. eigenvalues --    3.10450   3.10862   3.11511   3.11631   3.14994
 Alpha virt. eigenvalues --    3.15007   3.16048   3.27425   3.29787   3.32041
 Alpha virt. eigenvalues --    3.32081   3.35267   3.35616   3.36622   3.38836
 Alpha virt. eigenvalues --    3.47496   3.47857   3.55206   3.55214   3.64974
 Alpha virt. eigenvalues --    3.65016   3.85428   3.85495   3.95614   3.95643
     Molecular Orbital Coefficients:
                          90        91        92        93        94
                           O         O         O         O         O
     Eigenvalues --    -0.26519  -0.26246  -0.25658  -0.25312  -0.23230
   1 1   C  1S         -0.00129   0.00876   0.00592   0.03127  -0.00872
   2        2S          0.00333  -0.01256  -0.00921  -0.07332   0.02227
   3        3S          0.01141  -0.11602  -0.04317  -0.14894  -0.01245
   4        4PX        -0.00704   0.04859  -0.02364   0.05733   0.02699
   5        4PY         0.00205  -0.00599   0.07956   0.11931  -0.13053
   6        4PZ         0.01719   0.01621   0.07298  -0.10385  -0.02098
   7        5PX        -0.00092   0.05176  -0.05599  -0.01402   0.02359
   8        5PY        -0.00028  -0.03348   0.00460   0.01291  -0.03226
   9        5PZ         0.00524  -0.03014   0.00460  -0.05401  -0.02894
  10        6D 0       -0.00049  -0.00144  -0.00403  -0.00185  -0.00042
  11        6D+1       -0.00169  -0.00591  -0.00901   0.00783   0.00216
  12        6D-1        0.00083   0.00569   0.00643  -0.00147   0.00205
  13        6D+2       -0.00021  -0.00070  -0.00776  -0.01255   0.01314
  14        6D-2       -0.00011  -0.00077   0.00317   0.00779  -0.01358
  15 2   H  1S         -0.01423  -0.05475  -0.09700   0.02096   0.03927
  16        2S         -0.01234  -0.01482  -0.07495   0.04746   0.02121
  17        3PX        -0.00038  -0.00135  -0.00073   0.00233   0.00013
  18        3PY        -0.00015  -0.00180  -0.00016   0.00208  -0.00246
  19        3PZ        -0.00016  -0.00161  -0.00282  -0.00174   0.00121
  20 3   C  1S         -0.00129  -0.00873   0.00593   0.03129   0.00870
  21        2S          0.00332   0.01250  -0.00924  -0.07335  -0.02223
  22        3S          0.01135   0.11588  -0.04338  -0.14907   0.01254
  23        4PX         0.00702   0.04853   0.02358  -0.05741   0.02707
  24        4PY         0.00204   0.00616   0.07951   0.11932   0.13055
  25        4PZ        -0.01720   0.01625  -0.07295   0.10386  -0.02106
  26        5PX         0.00089   0.05180   0.05591   0.01391   0.02362
  27        5PY        -0.00030   0.03350   0.00452   0.01284   0.03229
  28        5PZ        -0.00522  -0.03008  -0.00454   0.05405  -0.02896
  29        6D 0       -0.00049   0.00144  -0.00404  -0.00185   0.00042
  30        6D+1       -0.00170   0.00591  -0.00902   0.00781  -0.00218
  31        6D-1       -0.00083   0.00568  -0.00643   0.00146   0.00204
  32        6D+2       -0.00021   0.00068  -0.00776  -0.01255  -0.01314
  33        6D-2        0.00012  -0.00078  -0.00315  -0.00780  -0.01358
  34 4   H  1S         -0.01425   0.05467  -0.09706   0.02083  -0.03939
  35        2S         -0.01234   0.01478  -0.07496   0.04742  -0.02134
  36        3PX         0.00038  -0.00135   0.00073  -0.00232   0.00013
  37        3PY        -0.00015   0.00181  -0.00016   0.00208   0.00245
  38        3PZ         0.00017  -0.00160   0.00282   0.00175   0.00121
  39 5   C  1S          0.00003   0.00253  -0.00791  -0.01604  -0.01298
  40        2S         -0.00050  -0.00702   0.01411   0.03112   0.03086
  41        3S          0.00448  -0.03236   0.10462   0.16250   0.04532
  42        4PX        -0.00130  -0.02160   0.03460   0.07998   0.06367
  43        4PY        -0.00148  -0.00044  -0.05623  -0.09115  -0.11715
  44        4PZ         0.00130   0.00431  -0.00033  -0.01229   0.00725
  45        5PX         0.00051  -0.01924   0.03771   0.08110   0.04888
  46        5PY         0.00447   0.01406  -0.04657  -0.07027  -0.07152
  47        5PZ        -0.00393   0.01627  -0.02701  -0.00794   0.00620
  48        6D 0        0.00001   0.00077  -0.00138  -0.00228  -0.00138
  49        6D+1       -0.00058   0.00125  -0.00271   0.00355  -0.00108
  50        6D-1        0.00042  -0.00042   0.00240  -0.00166   0.00011
  51        6D+2        0.00037   0.00137   0.00158  -0.00111   0.00176
  52        6D-2       -0.00002  -0.00106  -0.00237  -0.00332  -0.00415
  53 6   C  1S          0.00019   0.00435   0.00597   0.00836   0.00403
  54        2S         -0.00032  -0.00896  -0.01375  -0.01731  -0.01197
  55        3S         -0.00519  -0.02356  -0.03022  -0.05868   0.00302
  56        4PX         0.00216   0.00318  -0.00001  -0.02441   0.00462
  57        4PY         0.00141   0.01685   0.03006   0.03851   0.05643
  58        4PZ         0.00112  -0.00041   0.01508   0.00933  -0.01082
  59        5PX         0.00334  -0.00016   0.01090   0.00215   0.01688
  60        5PY         0.00204   0.00871   0.02487   0.03896   0.02880
  61        5PZ         0.00136  -0.00150   0.01382   0.00963  -0.01533
  62        6D 0        0.00012  -0.00013  -0.00074  -0.00258  -0.00049
  63        6D+1       -0.00007  -0.00021   0.00001   0.00049  -0.00045
  64        6D-1       -0.00005   0.00008  -0.00064  -0.00077   0.00086
  65        6D+2       -0.00004   0.00049  -0.00263  -0.00437  -0.00416
  66        6D-2       -0.00006  -0.00107  -0.00149  -0.00247  -0.00523
  67 7   C  1S          0.00019  -0.00433   0.00598   0.00836  -0.00403
  68        2S         -0.00033   0.00893  -0.01378  -0.01731   0.01197
  69        3S         -0.00520   0.02344  -0.03028  -0.05865  -0.00303
  70        4PX        -0.00216   0.00318  -0.00001   0.02441   0.00460
  71        4PY         0.00143  -0.01677   0.03014   0.03849  -0.05641
  72        4PZ        -0.00112  -0.00044  -0.01507  -0.00931  -0.01085
  73        5PX        -0.00334  -0.00019  -0.01092  -0.00214   0.01685
  74        5PY         0.00205  -0.00863   0.02493   0.03894  -0.02879
  75        5PZ        -0.00136  -0.00152  -0.01380  -0.00959  -0.01536
  76        6D 0        0.00012   0.00013  -0.00074  -0.00258   0.00049
  77        6D+1       -0.00007   0.00021   0.00001   0.00049   0.00045
  78        6D-1        0.00005   0.00008   0.00064   0.00077   0.00086
  79        6D+2       -0.00004  -0.00049  -0.00263  -0.00436   0.00415
  80        6D-2        0.00007  -0.00107   0.00150   0.00246  -0.00523
  81 8   C  1S          0.00003  -0.00256  -0.00791  -0.01603   0.01298
  82        2S         -0.00050   0.00708   0.01413   0.03108  -0.03086
  83        3S          0.00447   0.03262   0.10459   0.16242  -0.04533
  84        4PX         0.00131  -0.02169  -0.03459  -0.07994   0.06369
  85        4PY        -0.00150   0.00028  -0.05632  -0.09106   0.11713
  86        4PZ        -0.00130   0.00433   0.00031   0.01227   0.00727
  87        5PX        -0.00050  -0.01937  -0.03772  -0.08104   0.04889
  88        5PY         0.00447  -0.01414  -0.04658  -0.07024   0.07153
  89        5PZ         0.00392   0.01630   0.02697   0.00789   0.00626
  90        6D 0        0.00001  -0.00078  -0.00138  -0.00228   0.00138
  91        6D+1       -0.00058  -0.00125  -0.00271   0.00356   0.00107
  92        6D-1       -0.00042  -0.00042  -0.00240   0.00166   0.00011
  93        6D+2        0.00037  -0.00137   0.00158  -0.00111  -0.00176
  94        6D-2        0.00002  -0.00105   0.00238   0.00332  -0.00415
  95 9   N  1S          0.00110   0.00942   0.03527   0.05071   0.06142
  96        2S          0.00202   0.02022   0.07096   0.10060   0.12811
  97        3S          0.00044   0.02672   0.11583   0.17852   0.17467
  98        4PX        -0.00412  -0.01040  -0.10249  -0.13792  -0.16353
  99        4PY         0.00833   0.02874   0.18258   0.22148   0.32760
 100        4PZ        -0.02638   0.17933  -0.14691   0.12838   0.00007
 101        5PX         0.00171   0.01016   0.07561   0.10935   0.10656
 102        5PY        -0.00924  -0.01698  -0.12609  -0.15381  -0.22683
 103        5PZ         0.01711  -0.12529   0.10266  -0.09495   0.00246
 104        6D 0        0.00002   0.00110   0.00428   0.00718   0.00907
 105        6D+1       -0.00161   0.00754  -0.00852   0.00715  -0.00114
 106        6D-1        0.00039  -0.00547   0.00305  -0.00233  -0.00159
 107        6D+2        0.00040   0.00089   0.00289   0.00152   0.00410
 108        6D-2        0.00028   0.00120   0.00389   0.00321   0.00824
 109 10  C  1S         -0.00017   0.00186   0.01114   0.01848   0.02173
 110        2S          0.00172  -0.00427  -0.03178  -0.05160  -0.06335
 111        3S         -0.01456  -0.00340   0.06027   0.07974   0.12824
 112        4PX        -0.00387   0.00838  -0.06290  -0.06858  -0.08729
 113        4PY         0.00069   0.00598   0.04499   0.06149   0.06311
 114        4PZ         0.01891  -0.08348   0.09385  -0.08950   0.01564
 115        5PX         0.00532   0.00867  -0.02037  -0.02350  -0.06269
 116        5PY        -0.00257  -0.00398  -0.02409  -0.02200  -0.08368
 117        5PZ         0.01782  -0.08046   0.08685  -0.08426   0.00543
 118        6D 0        0.00088  -0.00226   0.00192  -0.00160   0.00011
 119        6D+1        0.00249  -0.01488   0.01171  -0.01127  -0.00101
 120        6D-1        0.00005  -0.00548   0.00342  -0.00349  -0.00099
 121        6D+2       -0.00075   0.00350  -0.00501  -0.00073  -0.00367
 122        6D-2       -0.00056  -0.00065  -0.01546  -0.01578  -0.02512
 123 11  C  1S          0.00024   0.00292   0.01094   0.01415   0.02095
 124        2S         -0.00034  -0.00968  -0.02477  -0.03675  -0.05239
 125        3S          0.00235   0.01779  -0.06630  -0.03573  -0.12321
 126        4PX         0.00642  -0.07106   0.02003  -0.07196  -0.05113
 127        4PY        -0.00565   0.01016  -0.05935  -0.04211  -0.07106
 128        4PZ        -0.01961   0.19106  -0.16714   0.10055  -0.02738
 129        5PX        -0.00120  -0.06125  -0.03463  -0.12803  -0.13814
 130        5PY         0.00917   0.00224  -0.04515  -0.05566  -0.11677
 131        5PZ        -0.01895   0.15678  -0.15953   0.06371  -0.05461
 132        6D 0        0.00649   0.00027   0.00110  -0.00214  -0.00055
 133        6D+1        0.00749  -0.00310   0.00490  -0.00477   0.00039
 134        6D-1       -0.00631  -0.00921   0.00688  -0.00516   0.00118
 135        6D+2       -0.00228   0.00071  -0.00275  -0.00160  -0.00242
 136        6D-2        0.00360   0.00313  -0.00349  -0.00062  -0.00285
 137 12  C  1S          0.00049  -0.00037  -0.00181  -0.00419  -0.00323
 138        2S         -0.00075   0.00078   0.00234   0.00761   0.00388
 139        3S          0.00593  -0.00801   0.01747  -0.00020  -0.01176
 140        4PX        -0.06475  -0.07418   0.04617  -0.03151   0.00335
 141        4PY         0.01877   0.02700   0.00450   0.03927   0.02686
 142        4PZ         0.16009   0.18263  -0.11483   0.07484  -0.01522
 143        5PX        -0.03148  -0.03375   0.04879   0.02317   0.05626
 144        5PY         0.01731   0.00136   0.02866   0.02485   0.02858
 145        5PZ         0.08463   0.09304  -0.05394   0.04563   0.00476
 146        6D 0       -0.00580  -0.00681   0.00432  -0.00252   0.00069
 147        6D+1       -0.00923  -0.00678   0.00413  -0.00147   0.00134
 148        6D-1       -0.00738   0.00734  -0.00933   0.00368  -0.00292
 149        6D+2        0.00461   0.00239  -0.00035   0.00094   0.00093
 150        6D-2        0.00143  -0.00384   0.00049  -0.00530  -0.00351
 151 13  C  1S         -0.00033   0.00013   0.00370   0.00451   0.00547
 152        2S          0.00092  -0.00014  -0.00815  -0.00976  -0.01168
 153        3S          0.00247  -0.00252   0.01527   0.01909   0.03267
 154        4PX        -0.07990  -0.01147  -0.02242  -0.00387  -0.01721
 155        4PY         0.02284   0.00116  -0.00966  -0.01891  -0.01724
 156        4PZ         0.21974   0.03363   0.02499  -0.02258   0.00270
 157        5PX        -0.05821  -0.01934   0.00002  -0.00452  -0.00583
 158        5PY         0.01872   0.00273   0.00587   0.00525   0.01125
 159        5PZ         0.16504   0.03159   0.01743  -0.01042   0.00473
 160        6D 0        0.00061   0.00542  -0.00454   0.00282  -0.00079
 161        6D+1        0.00272   0.00867  -0.00666   0.00442  -0.00091
 162        6D-1        0.00687   0.00544  -0.00316   0.00172  -0.00066
 163        6D+2       -0.00207  -0.00480   0.00272  -0.00336  -0.00082
 164        6D-2       -0.00219  -0.00110  -0.00007  -0.00076  -0.00052
 165 14  C  1S          0.00039   0.00036  -0.00009   0.00008   0.00029
 166        2S         -0.00120  -0.00107   0.00030  -0.00038  -0.00049
 167        3S         -0.00040  -0.00657  -0.01144  -0.02932  -0.03330
 168        4PX        -0.01143   0.05478  -0.04578   0.03476  -0.00341
 169        4PY         0.00229  -0.01345   0.01433  -0.00485   0.00389
 170        4PZ         0.02616  -0.15443   0.13510  -0.09177   0.01634
 171        5PX        -0.00642   0.03883  -0.03213   0.02380  -0.00561
 172        5PY         0.00108  -0.00849  -0.00015  -0.01429  -0.01096
 173        5PZ         0.02012  -0.11177   0.10016  -0.06840   0.01251
 174        6D 0        0.00819   0.00288  -0.00023   0.00012   0.00013
 175        6D+1        0.00868   0.00227   0.00041  -0.00029   0.00024
 176        6D-1       -0.00893  -0.00660   0.00262  -0.00217  -0.00027
 177        6D+2       -0.00291  -0.00052  -0.00029   0.00008  -0.00009
 178        6D-2        0.00458   0.00279  -0.00189  -0.00011  -0.00094
 179 15  C  1S          0.00040   0.00004   0.00262   0.00164   0.00370
 180        2S         -0.00125  -0.00007  -0.00731  -0.00477  -0.00945
 181        3S         -0.00477  -0.00666   0.02164   0.02481   0.03316
 182        4PX         0.07191   0.06026  -0.03845   0.01335  -0.01259
 183        4PY        -0.01825  -0.01594  -0.00255  -0.01378  -0.01299
 184        4PZ        -0.19723  -0.16285   0.07615  -0.05209   0.00008
 185        5PX         0.05354   0.04248  -0.01332   0.02484   0.01126
 186        5PY        -0.01674  -0.01475  -0.00563  -0.01849  -0.01667
 187        5PZ        -0.14979  -0.11968   0.05903  -0.03186   0.00583
 188        6D 0       -0.00300  -0.00209   0.00070  -0.00065  -0.00017
 189        6D+1       -0.00582  -0.00132  -0.00030   0.00082   0.00023
 190        6D-1       -0.00674   0.00613  -0.00716   0.00487  -0.00113
 191        6D+2        0.00291  -0.00001   0.00149  -0.00034   0.00109
 192        6D-2        0.00185  -0.00249   0.00238  -0.00200   0.00009
 193 16  C  1S          0.00054   0.00133  -0.00081   0.00296  -0.00004
 194        2S         -0.00173  -0.00338  -0.00002  -0.00950  -0.00267
 195        3S         -0.00569  -0.00701  -0.04675  -0.07211  -0.07544
 196        4PX         0.06892  -0.01222   0.04240  -0.01879   0.02075
 197        4PY        -0.01855   0.00241  -0.00693   0.00581  -0.00208
 198        4PZ        -0.19472   0.02322  -0.07187   0.05693  -0.00855
 199        5PX         0.03219  -0.01540   0.00487  -0.04239  -0.01874
 200        5PY        -0.01496  -0.00116   0.01459   0.02814   0.03543
 201        5PZ        -0.10930   0.01157  -0.04791   0.02209  -0.01543
 202        6D 0        0.00062   0.00735  -0.00568   0.00389  -0.00040
 203        6D+1        0.00354   0.01122  -0.00789   0.00560  -0.00037
 204        6D-1        0.01095   0.00321  -0.00061  -0.00151  -0.00109
 205        6D+2       -0.00265  -0.00511   0.00268  -0.00299  -0.00079
 206        6D-2       -0.00390  -0.00013  -0.00380  -0.00173  -0.00389
 207 17  F  1S          0.00007  -0.00018  -0.00137  -0.00204  -0.00249
 208        2S         -0.00002  -0.00044  -0.00278  -0.00418  -0.00478
 209        3S          0.00178   0.00031  -0.00682  -0.00966  -0.01413
 210        4PX         0.04672  -0.00418   0.03270   0.00572   0.02547
 211        4PY        -0.01117   0.00440   0.00923   0.02096   0.02119
 212        4PZ        -0.13241   0.01381  -0.03951   0.04158   0.00316
 213        5PX        -0.03675   0.00436  -0.02438  -0.00057  -0.01741
 214        5PY         0.00851  -0.00342  -0.00529  -0.01351  -0.01359
 215        5PZ         0.10507  -0.01173   0.03309  -0.03297  -0.00154
 216        6D 0       -0.00010   0.00031  -0.00040   0.00007  -0.00020
 217        6D+1        0.00014   0.00049  -0.00025   0.00034   0.00015
 218        6D-1        0.00108   0.00005   0.00059  -0.00000   0.00048
 219        6D+2       -0.00018  -0.00022   0.00012  -0.00004   0.00005
 220        6D-2       -0.00038   0.00014   0.00018   0.00078   0.00062
 221 18  F  1S         -0.00037   0.00013  -0.00261  -0.00252  -0.00370
 222        2S         -0.00069   0.00072  -0.00584  -0.00460  -0.00765
 223        3S         -0.00254  -0.00264  -0.01041  -0.01769  -0.02051
 224        4PX        -0.05186  -0.05590   0.05126  -0.00403   0.02812
 225        4PY         0.01491   0.01566   0.01932   0.03600   0.03715
 226        4PZ         0.12060   0.12747  -0.07780   0.04442  -0.01142
 227        5PX         0.04041   0.04399  -0.03492   0.01045  -0.01356
 228        5PY        -0.01200  -0.01222  -0.01227  -0.02521  -0.02418
 229        5PZ        -0.09399  -0.10058   0.06291  -0.03445   0.01085
 230        6D 0       -0.00031  -0.00042  -0.00002  -0.00058  -0.00045
[...]
 8,0.00043220,0.00147654,-0.00045171,-0.00376331,0.10464799,-0.02634922
 ,0.06144462,0.00414255,-0.00447023,0.00065121,0.00025532,0.00000780,-0
 .00007045,0.00008514,-0.00012147,-0.00005008,-0.00002194,-0.00004900,0
 .00004247,-0.00007113,-0.00003179,0.00006165,0.00001072,-0.00025869,0.
 00010107,0.00051265,0.00060947,0.00003805,-0.00054875,0.00114371,-0.00
 007387,-0.00035364,0.00004635,0.00024977,0.00022168,0.00019758,-0.0000
 0172,-0.00003500,-0.00001456,0.00004170,0.00011597,0.00000200,0.000028
 86,-0.00002429,-0.00000175,-0.00000947,0.00000289,-0.00000852,0.000004
 21,-0.00000671,0.00000239,-0.00000491,0.00004864,-0.00005514,0.0000181
 0,-0.00003042,0.00004866,-0.00001338,-0.00008836,0.00000999,-0.0000160
 5,-0.03273040,-0.03270150,0.00005785,-0.10771771,-0.10387098,0.0050918
 7,0.00887433,0.01593047,-0.00040944,-0.00286346,0.00184760,-0.00117632
 ,0.00047134,0.00066290,0.00067129,0.00013845,-0.00004576,-0.00005023,-
 0.00012450,-0.00031578,0.00018973,0.00000908,0.00223521,-0.00026189,-0
 .00430331,-0.00001196,-0.00163915,0.00022440,-0.00031250,-0.00012212,0
 .00000730,0.00005415,-0.00002120,0.00000630,-0.00000382,0.00001936,-0.
 00000317,0.00003392,0.00001474,0.00010926,0.00001430,-0.00009081,-0.00
 007961,0.00006303,-0.00001327,0.00019242,-0.00022190,0.00004271,-0.000
 05904,0.00122095,0.00075527,-0.00001355,0.00087138,-0.00073737,-0.0001
 0247,0.00003007,-0.00007062,0.00000285,0.00000148,-0.00000273,-0.00000
 180,-0.00000071,-0.00000051,-0.00000168,-0.00000093,-0.00000106,0.1339
 3986,0.00325310,-0.00114019,-0.00049289,-0.00023149,-0.00018105,-0.000
 04250,-0.00013312,-0.00041151,-0.00014053,-0.00002212,0.00002611,0.000
 03412,0.00003582,0.00000595,0.00001438,0.00006798,-0.00003612,-0.00004
 803,0.00105784,0.00070803,0.00000833,0.00319769,-0.00146283,0.00009073
 ,-0.00018405,-0.00000912,0.00016686,0.00008282,0.00006695,0.00000032,-
 0.00002164,-0.00000747,-0.00000050,0.00006228,0.00000434,0.00001885,-0
 .00001763,-0.00000520,-0.00000548,0.00000076,-0.00000754,0.00000228,-0
 .00000619,0.00000026,-0.00000214,0.00003050,-0.00003181,0.00001115,-0.
 00001857,0.00002449,-0.00000867,-0.00005016,0.00000574,-0.00001015,-0.
 01248599,0.00511754,0.00099574,-0.10416748,-0.26177073,0.01220304,-0.0
 0906688,-0.02139946,0.00076409,0.00380894,-0.00082503,0.00210754,-0.00
 049537,-0.00086613,-0.00057430,-0.00005969,-0.00006844,0.00001356,0.00
 013798,0.00033387,0.00006142,-0.00198632,-0.00538705,-0.00150907,-0.00
 152777,0.00478856,-0.00034285,-0.00023953,0.00022263,-0.00007409,-0.00
 000332,-0.00000307,0.00000788,0.00000087,-0.00001371,0.00000379,0.0000
 0152,0.00000269,0.00000895,-0.00000383,0.00000091,-0.00000020,-0.00013
 303,0.00017145,-0.00000055,0.00006375,-0.00006547,0.00000111,0.0009619
 0,-0.00163580,0.00022300,0.00048596,-0.00122813,-0.00013504,-0.0000300
 6,0.00001531,-0.00002134,0.00000282,0.00000064,-0.00000170,-0.00000117
 ,-0.00000115,-0.00000037,-0.00000167,-0.00000038,-0.00000050,0.1172862
 2,0.28528542,-0.00041441,-0.00101806,-0.00991174,-0.00095176,0.0008456
 7,0.00003901,0.00058456,-0.00135285,0.00060929,0.00013221,-0.00017905,
 -0.00011534,0.00016532,0.00006398,-0.00033421,0.00007962,-0.00014450,0
 .00007105,-0.00017979,0.00009511,-0.00083883,-0.00017537,-0.00017928,0
 .00017677,-0.00012842,0.00040275,-0.00036028,0.00005757,0.00007495,0.0
 0010317,-0.00002187,0.00000329,-0.00007368,0.00004776,0.00000855,0.000
 03216,-0.00001834,-0.00000582,-0.00000668,-0.00000170,-0.00001222,-0.0
 0000319,-0.00000538,0.00000328,-0.00000080,0.00001197,-0.00003044,0.00
 001362,-0.00000875,0.00001501,-0.00001352,-0.00003353,-0.00000403,-0.0
 0002349,0.00162438,0.00177982,0.03197809,0.00253294,0.01105552,-0.0531
 5608,0.00239769,0.00099388,0.00776156,-0.00107744,0.00084674,0.0017273
 4,0.00060088,0.00010750,-0.00024435,-0.00009172,-0.00006573,0.00004863
 ,0.00000848,-0.00031468,-0.00029921,0.00029565,0.00073648,-0.00025911,
 -0.00194455,-0.00022901,-0.00058532,-0.00036794,-0.00013284,-0.0001787
 5,0.00003757,-0.00006286,-0.00000221,-0.00003540,0.00002038,-0.0000142
 7,-0.00000114,-0.00002677,-0.00004550,0.00003350,0.00000994,-0.0000455
 1,0.00005101,-0.00002276,0.00003948,-0.00006987,0.00015657,0.00004264,
 0.00040602,-0.00117976,-0.00018288,-0.00026004,0.00110709,-0.00034418,
 -0.00007054,0.00002137,0.00011512,-0.00000061,-0.00000048,0.00000484,-
 0.00000160,-0.00000067,0.00000086,-0.00000307,-0.00000074,0.00000176,-
 0.00316820,-0.01340612,0.02432860,0.00000561,-0.00000866,-0.00001592,-
 0.00000901,0.00001493,-0.00000422,0.00001865,0.00003069,-0.00001559,0.
 00000194,-0.00000426,-0.00000235,-0.00000964,-0.00001148,0.00000883,0.
 00000184,0.00000381,-0.00000457,-0.00000354,-0.00001030,-0.00000193,-0
 .00001823,0.00002349,0.,-0.00001180,-0.00002359,0.00000578,0.00000265,
 0.00002329,0.00000300,0.00000951,-0.00001381,0.00000422,-0.00010665,0.
 00003626,-0.00003690,0.00002408,0.00000886,0.00000246,-0.00001592,0.00
 000244,-0.00000830,0.00000366,-0.00001456,0.00000256,-0.00000497,0.000
 02612,-0.00000518,0.00000928,-0.00002825,0.00000541,0.00008414,-0.0000
 3292,0.00002481,-0.00008206,-0.00015529,0.00000458,0.00087861,0.000717
 59,0.00010607,-0.00236634,0.00276323,-0.00201875,0.00937217,0.01992997
 ,0.00363367,-0.07840117,-0.08037552,-0.02370063,-0.00215949,-0.0268056
 4,-0.00407407,-0.00387028,0.00014901,-0.00363120,-0.00136127,0.0005188
 9,-0.00016072,0.00019630,-0.00013103,0.00022918,0.00099678,-0.00163127
 ,0.00181381,-0.00000431,0.00000396,0.00000297,0.00000044,0.00000107,-0
 .00000190,-0.00000014,-0.00000095,0.00000012,-0.00000286,-0.00000137,0
 .00000257,-0.00000135,0.00000152,0.00000113,-0.00000355,0.00000441,-0.
 00000027,-0.00000171,-0.00000642,-0.00001405,-0.00000209,-0.00000655,0
 .00001456,0.00000286,-0.00000282,-0.00000061,-0.00000927,-0.00000456,0
 .00000468,-0.00000009,0.00000099,0.00000085,0.00000004,-0.00000126,0.0
 0000081,-0.00017768,0.00023637,0.00001078,0.07641440,-0.00001950,0.000
 04068,0.00002654,0.00002095,-0.00003375,0.00000674,-0.00002680,-0.0000
 3997,0.00002457,-0.00000437,0.00000711,0.00000532,0.00001385,0.0000159
 1,-0.00001447,-0.00000042,-0.00000238,0.00000622,-0.00000258,0.0000120
 3,0.00000131,0.00003241,-0.00003380,-0.00000285,0.00001835,0.00001619,
 -0.00000841,-0.00000851,-0.00002225,-0.00000283,-0.00000422,0.00001089
 ,-0.00000139,0.00007499,-0.00002655,0.00002522,-0.00001430,-0.00000233
 ,-0.00000185,0.00001011,-0.00000036,0.00000514,-0.00000190,0.00000897,
 -0.00000121,-0.00000171,-0.00001053,0.00000134,-0.00000263,0.00001347,
 -0.00000161,-0.00005718,0.00002138,-0.00001724,0.00022717,0.00014867,-
 0.00000496,-0.00112103,-0.00043477,-0.00028560,0.00377302,-0.00189310,
 0.00056469,-0.01203698,-0.01680220,-0.00632609,-0.07797920,-0.31844462
 ,-0.05498740,0.00138101,0.00041264,0.00034920,-0.00034284,0.00187918,-
 0.00061581,0.00101395,0.00052193,0.00044046,-0.00007504,0.00013388,0.0
 0003810,-0.00082221,0.00243730,0.00036923,0.00000747,-0.00000686,-0.00
 000351,0.00000064,-0.00000178,0.00000247,-0.00000097,0.00000173,0.0000
 0056,0.00000439,-0.00000119,-0.00000315,0.00000122,-0.00000650,-0.0000
 0218,0.00000676,-0.00000463,0.00000087,-0.00000007,0.00000780,0.000018
 59,-0.00000050,0.00000636,-0.00001828,-0.00000148,0.00000065,0.0000004
 9,0.00000456,0.00000370,-0.00000234,-0.00000027,0.,-0.00000080,0.00000
 055,0.00000065,-0.00000066,0.00020967,-0.00021380,0.00004499,0.0858331
 2,0.33180609,0.00000205,-0.00001494,0.00000389,-0.00001236,0.00000676,
 -0.00000203,-0.00000440,-0.00000947,0.00001442,-0.00000138,-0.00000505
 ,-0.00000416,0.00000200,0.00000167,-0.00000252,-0.00000177,-0.00000096
 ,0.00000161,0.00000090,-0.00000065,0.00000110,-0.00000747,0.00000794,0
 .00000019,-0.00000214,0.00001532,-0.00002143,0.00000565,-0.00000520,0.
 00000352,-0.00001079,0.00000917,-0.00000789,0.00008835,-0.00002257,0.0
 0004217,-0.00001829,-0.00001018,-0.00001030,0.00000910,-0.00000374,0.0
 0000105,-0.00000418,0.00000802,-0.00000426,0.00000692,-0.00001649,0.00
 000598,-0.00000716,0.00001746,-0.00000565,-0.00006875,0.00002360,-0.00
 003306,-0.00000054,0.00000776,-0.00005214,0.00013143,0.00008997,0.0004
 8221,-0.00193244,0.00058169,0.00431473,0.00063717,0.00350333,0.0054779
 5,-0.02414539,-0.05510849,-0.04663211,-0.00071092,-0.00905253,0.000645
 83,-0.00358197,-0.00079979,0.00553976,-0.00049754,0.00055715,-0.000966
 73,0.00027713,-0.00005018,-0.00040300,0.00197171,0.00023002,-0.0039910
 3,0.00000206,-0.00000086,-0.00000139,-0.00000211,0.00000131,-0.0000006
 4,-0.00000030,-0.00000059,-0.00000130,0.00000055,0.00000166,-0.0000004
 5,0.00000110,0.00000253,-0.00000003,-0.00000233,0.00000036,-0.00000128
 ,-0.00000096,-0.00000301,-0.00000184,0.00000206,0.00000153,0.00000026,
 -0.00000273,0.00000171,0.00000484,0.00000468,0.00000234,0.00000567,-0.
 00000151,-0.00000078,0.00000168,-0.00000120,0.00000096,0.00000135,-0.0
 0001103,0.00001461,-0.00012851,0.02637352,0.05999056,0.03896579,0.0000
 3090,-0.00001967,-0.00003189,-0.00000353,0.00000404,-0.00000200,0.0000
 0554,-0.00000119,-0.00000796,0.00000112,-0.00000295,-0.00000141,-0.000
 00183,-0.00000295,0.00000262,-0.00000046,0.00000028,-0.00000273,0.0000
 0520,-0.00000012,-0.00000019,-0.00001505,0.00001359,-0.00000038,-0.000
 01559,0.00000412,0.00001108,0.00001461,0.00000891,0.00000061,-0.000003
 37,-0.00000479,-0.00000096,0.00000728,0.00000632,-0.00000086,-0.000002
 91,0.00000106,0.00000004,-0.00000212,-0.00000126,0.00000032,-0.0000018
 6,-0.00000329,0.00000025,0.00000704,0.00000045,0.00000125,-0.00000223,
 -0.00000194,-0.00000005,-0.00000565,-0.00000256,0.00000282,-0.00005898
 ,0.00003872,0.00004155,0.00007665,-0.00003963,0.00010688,-0.00037303,-
 0.00069656,0.00036103,-0.00239969,-0.00241314,-0.00366294,-0.01221427,
 0.02240716,-0.00343725,-0.17972175,0.14191941,-0.03446013,0.00921429,-
 0.00855350,0.00084794,0.00113452,-0.00177977,-0.00218369,0.00031021,-0
 .00071802,0.00008216,-0.00162894,0.00103886,-0.00038313,-0.00000277,0.
 00000173,0.00000153,0.00000020,0.00000020,-0.00000049,0.00000095,-0.00
 000055,0.00000032,-0.00000162,0.00000142,0.00000098,-0.00000079,0.0000
 0348,0.00000064,-0.00000131,0.00000047,-0.00000004,0.00000010,-0.00000
 148,-0.00000201,-0.00000191,-0.00000145,0.00000296,-0.00000180,0.00000
 117,-0.00000160,-0.00000009,0.00000027,-0.00000151,-0.00000075,0.00000
 006,-0.00000059,-0.00000004,-0.00000014,-0.00000045,-0.00001160,0.0000
 3595,-0.00003833,0.00067979,-0.00025247,0.00170331,0.18491912,-0.00001
 830,0.00001460,-0.00001793,0.00000326,-0.00000105,0.00000236,-0.000004
 54,-0.00000727,0.00000668,-0.00000133,0.00000197,0.00000253,0.00000294
 ,0.00000365,-0.00000396,0.,-0.00000082,0.00000224,-0.00000248,0.000005
 06,0.00000090,-0.00000024,-0.00001080,-0.00000597,0.00000998,-0.000002
 37,-0.00000531,-0.00000782,-0.00000350,-0.00000040,0.00000307,0.000001
 10,0.00000118,-0.00000856,-0.00000066,-0.00000253,0.00000350,0.0000016
 8,0.00000031,-0.00000054,0.00000140,-0.00000082,0.00000099,-0.00000040
 ,-0.00000002,-0.00000560,0.00000587,-0.00000177,0.00000345,-0.00000468
 ,0.00000135,0.00000751,-0.00000157,0.00000164,0.00008388,0.00001238,0.
 00001855,-0.00004580,0.00002023,0.00004342,-0.00073507,-0.00007637,-0.
 00009706,-0.00149576,0.00092240,-0.00113053,-0.00655001,0.00848630,-0.
 00178113,0.14192723,-0.21922778,0.03115430,0.02040303,-0.01510758,0.00
 503410,-0.00272699,-0.00302518,-0.00182010,0.00090040,-0.00185850,0.00
 014561,-0.00047125,0.00031669,-0.00011727,0.00000288,-0.00000182,-0.00
 000136,0.00000036,-0.00000039,0.00000078,-0.00000108,0.00000118,0.0000
 0055,0.00000258,-0.00000182,-0.00000098,-0.00000028,-0.00000275,-0.000
 00086,0.00000350,-0.00000144,0.00000073,-0.00000182,0.00000394,0.00000
 736,-0.00000083,0.00000329,-0.00000625,0.00000071,-0.00000115,0.000000
 68,-0.00000099,0.,0.00000078,-0.00000006,0.00000041,0.00000023,0.00000
 021,-0.00000004,0.00000032,-0.00003035,0.00003610,-0.00003335,0.000101
 50,0.00049504,0.00049120,-0.15118150,0.22779116,0.00001463,-0.00000855
 ,0.00009345,0.00000501,-0.00000853,-0.00000113,-0.00000550,0.00001083,
 0.00000124,-0.00000113,-0.00000040,-0.00000174,-0.00000228,-0.00000108
 ,0.00000193,0.00000028,-0.00000023,0.00000171,0.00000063,-0.00000155,0
 .00000089,-0.00000321,0.00000466,0.00000412,-0.00000313,0.00000294,-0.
 00000365,0.00000503,0.00000050,0.00000090,-0.00000351,0.00000101,-0.00
 000194,0.00002392,-0.00000384,0.00001086,-0.00000533,-0.00000232,-0.00
 000317,0.00000223,-0.00000142,0.00000013,-0.00000135,0.00000132,-0.000
 00135,0.00000434,-0.00000515,0.00000247,-0.00000280,0.00000494,-0.0000
 0197,-0.00001849,0.00000499,-0.00000865,0.00003808,0.00000459,-0.00008
 796,0.00006002,0.00010079,-0.00025441,0.00024357,-0.00027084,-0.001471
 14,-0.00339012,-0.00137012,0.00604993,-0.00639251,0.00784752,0.0030613
 8,-0.03445799,0.03119800,-0.04729872,0.00348552,-0.00458628,0.00515795
 ,-0.00218425,-0.00153425,0.00631719,0.00029639,-0.00037482,-0.00008839
 ,-0.00041892,0.00033333,-0.00039073,0.00000028,0.00000077,-0.00000011,
 -0.00000102,0.00000046,-0.00000074,-0.00000040,-0.00000038,-0.00000095
 ,-0.00000019,0.00000075,-0.00000012,0.00000029,0.00000142,0.00000026,-
 0.00000166,-0.00000017,-0.00000113,-0.00000087,-0.00000017,-0.00000126
 ,0.00000141,-0.00000099,-0.00000016,-0.00000051,0.00000037,0.00000086,
 0.00000085,0.00000080,0.00000168,-0.00000059,-0.00000023,0.00000060,-0
 .00000043,0.00000026,0.00000054,-0.00004504,0.00001517,0.00004443,0.00
 171746,0.00039305,-0.00367483,0.03957633,-0.03233855,0.03630635,0.0000
 1691,-0.00007960,0.00007061,-0.00000780,0.00002116,-0.00000568,-0.0000
 0180,0.00004818,-0.00003931,0.00000454,-0.00000416,-0.00000069,-0.0000
 1447,-0.00001414,0.00002112,-0.00000539,-0.00000207,-0.00000975,0.0000
 1518,0.00000133,0.00000227,-0.00005065,0.00002993,-0.00000714,-0.00001
 214,0.00000181,0.00001852,0.00001236,0.00000866,-0.00000119,-0.0000027
 6,-0.00000383,-0.00000017,-0.00000698,0.00000693,-0.00000479,-0.000000
 47,-0.00000004,0.00000080,-0.00000224,-0.00000121,0.00000009,-0.000000
 82,-0.00000204,0.00000066,0.00000611,-0.00000322,0.00000101,-0.0000027
 3,0.00000107,-0.00000041,0.00000455,-0.00000333,0.00000460,-0.00033252
 ,0.00031305,-0.00004469,-0.00019512,-0.00091516,-0.00032058,-0.0003283
 4,0.00375094,-0.00147137,0.00045450,0.00065828,0.00051201,0.00223291,-
 0.00092138,-0.00163916,-0.00157683,0.00127234,-0.00101967,-0.30404186,
 -0.05933074,-0.09695474,-0.01425687,-0.01000841,-0.00716837,0.00157727
 ,-0.00077635,0.00201302,0.00006729,-0.00004811,0.00019966,-0.00000910,
 0.00000925,0.00000202,0.00000126,0.00000097,0.00000038,0.00000291,-0.0
 0000037,0.00000363,-0.00000171,0.00000304,0.00000228,-0.00000302,0.000
 01236,0.00000008,-0.00000056,-0.00000055,0.00000161,0.00000137,-0.0000
 0094,0.00000129,0.00000072,-0.00000550,0.00000390,-0.00000168,0.000001
 67,-0.00000307,0.00000004,-0.00000055,-0.00000120,-0.00000004,-0.00000
 021,-0.00000043,-0.00000017,-0.00000024,-0.00000053,-0.00000092,0.0000
 7605,-0.00000811,-0.00007932,0.00014300,-0.00019001,0.00006643,-0.0001
 6977,0.00146495,0.31647196,0.00001744,0.00003810,-0.00008003,0.0000045
 9,-0.00000863,0.00000618,0.00000640,-0.00003967,0.00002234,-0.00000230
 ,0.00000362,0.00000089,0.00001102,0.00001084,-0.00001531,0.00000356,0.
 00000131,0.00000517,-0.00000931,-0.00000169,-0.00000141,0.00004014,-0.
 00002127,0.00000650,0.00000432,-0.00000055,-0.00000492,-0.00000573,-0.
 00000562,-0.00000015,0.00000057,0.00000219,-0.00000002,0.00001200,-0.0
 0000593,0.00000376,-0.00000219,-0.00000079,0.00000040,0.00000238,0.000
 00054,0.00000126,-0.00000016,0.00000189,-0.00000015,-0.00000207,0.0000
 0018,-0.00000041,0.00000035,0.00000113,0.00000014,-0.00000915,0.000004
 34,-0.00000252,0.00031235,-0.00035514,0.00008570,0.00080564,0.00085790
 ,0.00028187,0.00247522,-0.00343005,0.00010476,0.00036741,-0.00173214,0
 .00003846,-0.00043379,-0.00489700,-0.00119738,-0.02692011,-0.00007274,
 -0.00922232,-0.06122263,-0.07146856,-0.02418388,0.02142602,0.00915777,
 0.00764367,-0.00173041,0.00198388,0.00004214,-0.00012049,0.00030217,0.
 00003557,0.00000484,-0.00000701,-0.00000092,-0.00000046,-0.00000108,0.
 00000008,-0.00000123,0.00000059,-0.00000256,0.00000038,-0.00000164,-0.
 00000108,0.00000227,-0.00001049,0.00000015,-0.00000024,0.00000018,-0.0
 0000094,0.00000111,0.00000159,-0.00000322,-0.00000047,0.00000341,0.000
 00051,0.00000093,-0.00000038,0.00000074,0.00000126,0.00000065,-0.00000
 096,0.00000014,-0.00000004,-0.00000026,0.00000024,0.00000027,-0.000000
 18,-0.00000199,-0.00004580,0.00000918,-0.00116101,-0.00002086,-0.00046
 315,0.00019127,0.00121351,0.00058139,0.06593190,0.06854103,0.00000333,
 0.00000963,-0.00002571,-0.00000825,0.00000692,-0.00000195,0.00001553,-
 0.00000008,0.00000459,-0.00000136,-0.00000397,-0.00000208,-0.00000039,
 -0.00000334,-0.00000076,0.00000209,-0.00000166,0.00000466,0.00000374,0
 .00000171,-0.00000280,-0.00001304,0.00000810,0.00001253,-0.00000670,0.
 00000344,-0.00000916,0.00000775,0.00000220,0.00000223,-0.00000413,0.00
 000059,-0.00000239,0.00002234,-0.00000282,0.00001063,-0.00000558,-0.00
 000237,-0.00000303,0.00000205,-0.00000188,0.00000017,-0.00000125,0.000
 00138,-0.00000129,0.00000569,-0.00000730,0.00000309,-0.00000358,0.0000
 0650,-0.00000256,-0.00001753,0.00000433,-0.00000863,-0.00004914,0.0000
 9734,-0.00015184,-0.00023789,-0.00024521,0.00046074,-0.00168325,0.0000
 8911,0.00442842,0.00050388,0.00033367,-0.00066855,-0.00169665,-0.00129
 353,0.00612121,-0.00350385,0.00037212,0.00062903,-0.09720366,-0.023584
 02,-0.06713649,-0.00385117,-0.00305113,0.00278625,0.00183969,0.0003943
 2,-0.00402072,0.00014049,0.00006381,-0.00048947,0.00000179,0.00000118,
 -0.00000049,-0.00000183,0.00000087,-0.00000146,-0.00000091,-0.00000091
 ,-0.00000229,-0.00000003,0.00000121,-0.00000102,0.,0.00000529,0.000001
 97,-0.00000249,-0.00000019,-0.00000157,-0.00000171,-0.00000248,-0.0000
 0027,0.00000039,-0.00000021,-0.00000672,-0.00000106,0.00000050,0.00000
 176,0.00000081,0.00000066,0.00000135,-0.00000045,-0.00000032,0.0000005
 4,-0.00000053,0.00000018,0.00000056,-0.00001899,0.00005012,0.00002921,
 -0.00027667,-0.00001301,0.00043259,0.00147596,0.00044836,-0.00376463,0
 .10456652,0.02631090,0.06137437\\-0.00848390,0.00783604,-0.00426508,0.
 00047764,-0.00169913,-0.00026079,0.00849345,0.00780766,0.00426805,-0.0
 0047470,-0.00169928,0.00026580,-0.00260605,-0.00278054,-0.00106696,0.0
 0128859,-0.00054886,0.00052368,-0.00128673,-0.00053382,-0.00052872,0.0
 0260240,-0.00279014,0.00107262,0.00204992,0.00727244,0.00004891,-0.014
 76142,-0.01175288,-0.00120926,0.00330682,0.00296841,0.00081453,-0.0085
 7815,-0.00161154,-0.00468267,0.00235931,0.00105977,0.00131862,0.000749
 85,0.00097220,0.00036991,0.00075385,0.00072373,0.00010919,-0.00163681,
 0.00085141,-0.00029006,0.00103956,-0.00025731,0.00049647,0.00243029,-0
 .00135535,0.00313329,-0.00205067,0.00727360,-0.00005698,0.01474430,-0.
 01176183,0.00120577,-0.00331626,0.00296909,-0.00081876,0.00857192,-0.0
 0162005,0.00468643,-0.00236441,0.00106628,-0.00131840,-0.00073609,0.00
 098073,-0.00036688,-0.00075886,0.00071702,-0.00011196,0.00164553,0.000
 84834,0.00029742,-0.00103864,-0.00025653,-0.00049792,-0.00241968,-0.00
 134968,-0.00313123,0.00048877,-0.00011633,0.00015201,0.00005616,0.0001
 6588,-0.00014912,-0.00027599,-0.00006335,-0.00008107,-0.00013454,-0.00
 069730,-0.00008524,0.00013034,-0.00070379,0.00008276,0.00027795,-0.000
 06509,0.00008532,-0.00005789,0.00016478,0.00014620,-0.00048840,-0.0001
 1138,-0.00015206,0.00457217,-0.00128157,0.00056254,0.00023941,0.000209
 69,-0.00040542,0.00015874,0.00003105,-0.00001196,0.00019998,0.00009114
 ,-0.00006926,-0.00456689,-0.00127964,-0.00056484,-0.00024062,0.0002027
 2,0.00040360,-0.00016028,0.00003267,0.00001261,-0.00019998,0.00009074,
 0.00006893\\\@

 Writing a WFNX file to "07_lig.wfx"


 HE WHO LAUGHS LAST PROBABLY DIDN'T GET THE JOKE.
 Job cpu time:       0 days  4 hours  9 minutes 50.9 seconds.
 Elapsed time:       0 days  0 hours 31 minutes 14.8 seconds.
 File lengths (MBytes):  RWF=   1032 Int=      0 D2E=      0 Chk=     15 Scr=      1
 Normal termination of Gaussian 16 at Thu Dec  8 09:36:48 2022.
