 Entering Gaussian System, Link 0=g16
 Initial command:
 /software/gaussian/G16-A.03/avx/g16/l1.exe "/scratch/lcmd/1380812.slurm/Gau-242473.inp" -scrdir="/scratch/lcmd/1380812.slurm/"
 Entering Link 1 = /software/gaussian/G16-A.03/avx/g16/l1.exe PID=    242475.
  
 Copyright (c) 1988,1990,1992,1993,1995,1998,2003,2009,2016,
            Gaussian, Inc.  All Rights Reserved.
  
 This is part of the Gaussian(R) 16 program.  It is based on
 the Gaussian(R) 09 system (copyright 2009, Gaussian, Inc.),
 the Gaussian(R) 03 system (copyright 2003, Gaussian, Inc.),
 the Gaussian(R) 98 system (copyright 1998, Gaussian, Inc.),
 the Gaussian(R) 94 system (copyright 1995, Gaussian, Inc.),
 the Gaussian 92(TM) system (copyright 1992, Gaussian, Inc.),
 the Gaussian 90(TM) system (copyright 1990, Gaussian, Inc.),
 the Gaussian 88(TM) system (copyright 1988, Gaussian, Inc.),
 the Gaussian 86(TM) system (copyright 1986, Carnegie Mellon
 University), and the Gaussian 82(TM) system (copyright 1983,
 Carnegie Mellon University). Gaussian is a federally registered
 trademark of Gaussian, Inc.
  
 This software contains proprietary and confidential information,
 including trade secrets, belonging to Gaussian, Inc.
  
 This software is provided under written license and may be
 used, copied, transmitted, or stored only in accord with that
 written license.
  
 The following legend is applicable only to US Government
 contracts under FAR:
  
                    RESTRICTED RIGHTS LEGEND
  
 Use, reproduction and disclosure by the US Government is
 subject to restrictions as set forth in subparagraphs (a)
 and (c) of the Commercial Computer Software - Restricted
 Rights clause in FAR 52.227-19.
  
 Gaussian, Inc.
 340 Quinnipiac St., Bldg. 40, Wallingford CT 06492
  
  
 ---------------------------------------------------------------
 Warning -- This program may not be used in any manner that
 competes with the business of Gaussian, Inc. or will provide
 assistance to any competitor of Gaussian, Inc.  The licensee
 of this program is prohibited from giving any competitor of
 Gaussian, Inc. access to this program.  By using this program,
 the user acknowledges that Gaussian, Inc. is engaged in the
 business of creating and licensing software in the field of
 computational chemistry and represents and warrants to the
 licensee that it is not a competitor of Gaussian, Inc. and that
 it will not use this program in any manner prohibited above.
 ---------------------------------------------------------------
  

 Cite this work as:
 Gaussian 16, Revision A.03,
 M. J. Frisch, G. W. Trucks, H. B. Schlegel, G. E. Scuseria, 
 M. A. Robb, J. R. Cheeseman, G. Scalmani, V. Barone, 
 G. A. Petersson, H. Nakatsuji, X. Li, M. Caricato, A. V. Marenich, 
 J. Bloino, B. G. Janesko, R. Gomperts, B. Mennucci, H. P. Hratchian, 
 J. V. Ortiz, A. F. Izmaylov, J. L. Sonnenberg, D. Williams-Young, 
 F. Ding, F. Lipparini, F. Egidi, J. Goings, B. Peng, A. Petrone, 
 T. Henderson, D. Ranasinghe, V. G. Zakrzewski, J. Gao, N. Rega, 
 G. Zheng, W. Liang, M. Hada, M. Ehara, K. Toyota, R. Fukuda, 
 J. Hasegawa, M. Ishida, T. Nakajima, Y. Honda, O. Kitao, H. Nakai, 
 T. Vreven, K. Throssell, J. A. Montgomery, Jr., J. E. Peralta, 
 F. Ogliaro, M. J. Bearpark, J. J. Heyd, E. N. Brothers, K. N. Kudin, 
 V. N. Staroverov, T. A. Keith, R. Kobayashi, J. Normand, 
 K. Raghavachari, A. P. Rendell, J. C. Burant, S. S. Iyengar, 
 J. Tomasi, M. Cossi, J. M. Millam, M. Klene, C. Adamo, R. Cammi, 
 J. W. Ochterski, R. L. Martin, K. Morokuma, O. Farkas, 
 J. B. Foresman, and D. J. Fox, Gaussian, Inc., Wallingford CT, 2016.
 
 ******************************************
 Gaussian 16:  ES64L-G16RevA.03 25-Dec-2016
                 8-Dec-2022 
 ******************************************
 %nprocs=8
 Will use up to    8 processors via shared memory.
 %mem=32000MB
 %chk=08_lig.chk
 ----------------------------------------------------------------------
 #p pop=(regular,nbo,savenbos) freq=noraman def2svp empiricaldispersion
 =gd3bj output=wfx pbe1pbe
 ----------------------------------------------------------------------
 1/10=4,30=1,38=1/1,3;
 2/12=2,17=6,18=5,40=1/2;
 3/5=43,7=101,11=2,25=1,30=1,71=2,74=-13,124=41,140=1/1,2,3;
 4//1;
 5/5=2,38=5,98=1/2;
 8/6=4,10=90,11=11/1;
 11/6=1,8=1,9=11,15=111,16=1/1,2,10;
 10/6=1/2;
 6/28=1,40=1,73=1/1,7;
 7/8=1,10=1,25=1/1,2,3,16;
 1/10=4,30=1/3;
 99/6=200/99;
 Leave Link    1 at Thu Dec  8 09:05:26 2022, MaxMem=  4194304000 cpu:               0.5 elap:               0.1
 (Enter /software/gaussian/G16-A.03/avx/g16/l101.exe)
 ------
 08_lig
 ------
 Symbolic Z-matrix:
 Charge =  0 Multiplicity = 1
 C                    -0.68997   2.75228   0.3485 
 H                    -0.34129   2.77123   1.39933 
 C                     0.5831    2.72472  -0.5217 
 H                     0.25654   2.66137  -1.57873 
 C                     1.38646   4.00915  -0.31084 
 C                     0.55517   5.25789  -0.56661 
 C                    -0.7035    5.26363   0.28958 
 C                    -1.52094   3.9965    0.07147 
 N                     1.3525    1.53616  -0.20125 
 C                     2.43697   1.28532  -0.81936 
 C                     3.264     0.11242  -0.55036 
 C                     3.09594  -0.659     0.6106 
 C                     3.87524  -1.78609   0.82269 
 C                     4.83424  -2.14808  -0.12699 
 C                     5.02864  -1.38629  -1.27887 
 C                     4.2461   -0.25547  -1.47846 
 Cl                    5.803    -3.55444   0.13495 
 N                    -1.37986   1.48303   0.22793 
 C                    -2.60738   1.36678  -0.09146 
 C                    -3.32203   0.09327  -0.11817 
 C                    -2.94061  -0.98223   0.69782 
 C                    -3.62674  -2.18627   0.6381 
 C                    -4.70173  -2.32019  -0.24234 
 C                    -5.11344  -1.25444  -1.04374 
 C                    -4.42925  -0.04858  -0.96479 
 Cl                   -5.55161  -3.82142  -0.32642 
 H                     2.27293   3.99946  -0.96344 
 H                     1.76056   4.00648   0.72781 
 H                     0.2726    5.29845  -1.63369 
 H                     1.16033   6.15683  -0.37099 
 H                    -1.31939   6.1494    0.06991 
 H                    -0.42244   5.33461   1.35475 
 H                    -1.88543   3.97144  -0.97165 
 H                    -2.40999   4.00301   0.72234 
 H                     2.80131   1.95064  -1.6238 
 H                     2.36266  -0.36307   1.36818 
 H                     3.7484   -2.38815   1.72352 
 H                     5.78553  -1.68484  -2.00531 
 H                     4.38938   0.34439  -2.38128 
 H                    -3.19755   2.25565  -0.36497 
 H                    -2.12821  -0.86097   1.42194 
 H                    -3.33771  -3.02403   1.27389 
 H                    -5.96316  -1.37858  -1.71622 
 H                    -4.74712   0.79131  -1.58842 
 
 ITRead=  0  0  0  0  0  0  0  0  0  0  0  0  0  0  0  0  0  0  0  0
 ITRead=  0  0  0  0  0  0  0  0  0  0  0  0  0  0  0  0  0  0  0  0
 ITRead=  0  0  0  0
 MicOpt= -1 -1 -1 -1 -1 -1 -1 -1 -1 -1 -1 -1 -1 -1 -1 -1 -1 -1 -1 -1
 MicOpt= -1 -1 -1 -1 -1 -1 -1 -1 -1 -1 -1 -1 -1 -1 -1 -1 -1 -1 -1 -1
 MicOpt= -1 -1 -1 -1
 NAtoms=     44 NQM=       44 NQMF=       0 NMMI=      0 NMMIF=      0
                NMic=       0 NMicF=      0.
                    Isotopes and Nuclear Properties:
 (Nuclear quadrupole moments (NQMom) in fm**2, nuclear magnetic moments (NMagM)
  in nuclear magnetons)

  Atom         1           2           3           4           5           6           7           8           9          10
 IAtWgt=          12           1          12           1          12          12          12          12          14          12
 AtmWgt=  12.0000000   1.0078250  12.0000000   1.0078250  12.0000000  12.0000000  12.0000000  12.0000000  14.0030740  12.0000000
 NucSpn=           0           1           0           1           0           0           0           0           2           0
 AtZEff=  -0.0000000  -0.0000000  -0.0000000  -0.0000000  -0.0000000  -0.0000000  -0.0000000  -0.0000000  -0.0000000  -0.0000000
 NQMom=    0.0000000   0.0000000   0.0000000   0.0000000   0.0000000   0.0000000   0.0000000   0.0000000   2.0440000   0.0000000
 NMagM=    0.0000000   2.7928460   0.0000000   2.7928460   0.0000000   0.0000000   0.0000000   0.0000000   0.4037610   0.0000000
 AtZNuc=   6.0000000   1.0000000   6.0000000   1.0000000   6.0000000   6.0000000   6.0000000   6.0000000   7.0000000   6.0000000

  Atom        11          12          13          14          15          16          17          18          19          20
 IAtWgt=          12          12          12          12          12          12          35          14          12          12
 AtmWgt=  12.0000000  12.0000000  12.0000000  12.0000000  12.0000000  12.0000000  34.9688527  14.0030740  12.0000000  12.0000000
 NucSpn=           0           0           0           0           0           0           3           2           0           0
 AtZEff=  -0.0000000  -0.0000000  -0.0000000  -0.0000000  -0.0000000  -0.0000000  -0.0000000  -0.0000000  -0.0000000  -0.0000000
 NQMom=    0.0000000   0.0000000   0.0000000   0.0000000   0.0000000   0.0000000  -8.1650000   2.0440000   0.0000000   0.0000000
 NMagM=    0.0000000   0.0000000   0.0000000   0.0000000   0.0000000   0.0000000   0.8218740   0.4037610   0.0000000   0.0000000
 AtZNuc=   6.0000000   6.0000000   6.0000000   6.0000000   6.0000000   6.0000000  17.0000000   7.0000000   6.0000000   6.0000000

  Atom        21          22          23          24          25          26          27          28          29          30
 IAtWgt=          12          12          12          12          12          35           1           1           1           1
 AtmWgt=  12.0000000  12.0000000  12.0000000  12.0000000  12.0000000  34.9688527   1.0078250   1.0078250   1.0078250   1.0078250
 NucSpn=           0           0           0           0           0           3           1           1           1           1
 AtZEff=  -0.0000000  -0.0000000  -0.0000000  -0.0000000  -0.0000000  -0.0000000  -0.0000000  -0.0000000  -0.0000000  -0.0000000
 NQMom=    0.0000000   0.0000000   0.0000000   0.0000000   0.0000000  -8.1650000   0.0000000   0.0000000   0.0000000   0.0000000
 NMagM=    0.0000000   0.0000000   0.0000000   0.0000000   0.0000000   0.8218740   2.7928460   2.7928460   2.7928460   2.7928460
 AtZNuc=   6.0000000   6.0000000   6.0000000   6.0000000   6.0000000  17.0000000   1.0000000   1.0000000   1.0000000   1.0000000

  Atom        31          32          33          34          35          36          37          38          39          40
 IAtWgt=           1           1           1           1           1           1           1           1           1           1
 AtmWgt=   1.0078250   1.0078250   1.0078250   1.0078250   1.0078250   1.0078250   1.0078250   1.0078250   1.0078250   1.0078250
 NucSpn=           1           1           1           1           1           1           1           1           1           1
 AtZEff=  -0.0000000  -0.0000000  -0.0000000  -0.0000000  -0.0000000  -0.0000000  -0.0000000  -0.0000000  -0.0000000  -0.0000000
 NQMom=    0.0000000   0.0000000   0.0000000   0.0000000   0.0000000   0.0000000   0.0000000   0.0000000   0.0000000   0.0000000
 NMagM=    2.7928460   2.7928460   2.7928460   2.7928460   2.7928460   2.7928460   2.7928460   2.7928460   2.7928460   2.7928460
 AtZNuc=   1.0000000   1.0000000   1.0000000   1.0000000   1.0000000   1.0000000   1.0000000   1.0000000   1.0000000   1.0000000

  Atom        41          42          43          44
 IAtWgt=           1           1           1           1
 AtmWgt=   1.0078250   1.0078250   1.0078250   1.0078250
 NucSpn=           1           1           1           1
 AtZEff=  -0.0000000  -0.0000000  -0.0000000  -0.0000000
 NQMom=    0.0000000   0.0000000   0.0000000   0.0000000
 NMagM=    2.7928460   2.7928460   2.7928460   2.7928460
 AtZNuc=   1.0000000   1.0000000   1.0000000   1.0000000
 Leave Link  101 at Thu Dec  8 09:05:26 2022, MaxMem=  4194304000 cpu:               1.0 elap:               0.1
 (Enter /software/gaussian/G16-A.03/avx/g16/l103.exe)

 GradGradGradGradGradGradGradGradGradGradGradGradGradGradGradGradGradGrad
 Berny optimization.
 Initialization pass.
 Trust Radius=3.00D-01 FncErr=1.00D-07 GrdErr=1.00D-07 EigMax=2.50D+02 EigMin=1.00D-04
 Number of steps in this run=      2 maximum allowed number of steps=      2.
 GradGradGradGradGradGradGradGradGradGradGradGradGradGradGradGradGradGrad

 Leave Link  103 at Thu Dec  8 09:05:27 2022, MaxMem=  4194304000 cpu:               0.3 elap:               0.1
 (Enter /software/gaussian/G16-A.03/avx/g16/l202.exe)
                          Input orientation:                          
 ---------------------------------------------------------------------
 Center     Atomic      Atomic             Coordinates (Angstroms)
 Number     Number       Type             X           Y           Z
 ---------------------------------------------------------------------
      1          6           0       -0.689970    2.752280    0.348500
      2          1           0       -0.341290    2.771230    1.399330
      3          6           0        0.583100    2.724720   -0.521700
      4          1           0        0.256540    2.661370   -1.578730
      5          6           0        1.386460    4.009150   -0.310840
      6          6           0        0.555170    5.257890   -0.566610
      7          6           0       -0.703500    5.263630    0.289580
      8          6           0       -1.520940    3.996500    0.071470
      9          7           0        1.352500    1.536160   -0.201250
     10          6           0        2.436970    1.285320   -0.819360
     11          6           0        3.264000    0.112420   -0.550360
     12          6           0        3.095940   -0.659000    0.610600
     13          6           0        3.875240   -1.786090    0.822690
     14          6           0        4.834240   -2.148080   -0.126990
     15          6           0        5.028640   -1.386290   -1.278870
     16          6           0        4.246100   -0.255470   -1.478460
     17         17           0        5.803000   -3.554440    0.134950
     18          7           0       -1.379860    1.483030    0.227930
     19          6           0       -2.607380    1.366780   -0.091460
     20          6           0       -3.322030    0.093270   -0.118170
     21          6           0       -2.940610   -0.982230    0.697820
     22          6           0       -3.626740   -2.186270    0.638100
     23          6           0       -4.701730   -2.320190   -0.242340
     24          6           0       -5.113440   -1.254440   -1.043740
     25          6           0       -4.429250   -0.048580   -0.964790
     26         17           0       -5.551610   -3.821420   -0.326420
     27          1           0        2.272930    3.999460   -0.963440
     28          1           0        1.760560    4.006480    0.727810
     29          1           0        0.272600    5.298450   -1.633690
     30          1           0        1.160330    6.156830   -0.370990
     31          1           0       -1.319390    6.149400    0.069910
     32          1           0       -0.422440    5.334610    1.354750
     33          1           0       -1.885430    3.971440   -0.971650
     34          1           0       -2.409990    4.003010    0.722340
     35          1           0        2.801310    1.950640   -1.623800
     36          1           0        2.362660   -0.363070    1.368180
     37          1           0        3.748400   -2.388150    1.723520
     38          1           0        5.785530   -1.684840   -2.005310
     39          1           0        4.389380    0.344390   -2.381280
     40          1           0       -3.197550    2.255650   -0.364970
     41          1           0       -2.128210   -0.860970    1.421940
     42          1           0       -3.337710   -3.024030    1.273890
     43          1           0       -5.963160   -1.378580   -1.716220
     44          1           0       -4.747120    0.791310   -1.588420
 ---------------------------------------------------------------------
                    Distance matrix (angstroms):
                    1          2          3          4          5
     1  C    0.000000
     2  H    1.107330   0.000000
     3  C    1.542308   2.132373   0.000000
     4  H    2.149037   3.039459   1.108137   0.000000
     5  C    2.515157   2.728048   1.529578   2.168127   0.000000
     6  C    2.943787   3.294243   2.533722   2.802763   1.521780
     7  C    2.512078   2.752235   2.959659   3.344251   2.510410
     8  C    1.521624   2.157794   2.529083   2.768604   2.932456
     9  N    2.439848   2.637457   1.451668   2.089181   2.475650
    10  C    3.646042   3.853471   2.365863   2.687830   2.963345
    11  C    4.838459   4.885558   3.743282   4.074249   4.332093
    12  C    5.102807   4.919667   4.364176   4.886739   5.055986
    13  C    6.454673   6.235447   5.743951   6.216246   6.408098
    14  C    7.399765   7.301738   6.478593   6.796594   7.059212
    15  C    7.244211   7.300265   6.102175   6.264695   6.581286
    16  C    6.062106   6.203768   4.818142   4.943137   5.265725
    17  Cl   9.054224   8.908707   8.191849   8.505070   8.769974
    18  N    1.449649   2.027379   2.440687   2.707455   3.784717
    19  C    2.406166   3.054521   3.494034   3.477064   4.793851
    20  C    3.770392   4.284751   4.726246   4.640532   6.127081
    21  C    4.374239   4.619204   5.257874   5.355396   6.682425
    22  C    5.753065   5.995870   6.571584   6.594984   8.025951
    23  C    6.494094   6.901527   7.311538   7.154462   8.782442
    24  C    6.128558   6.704329   6.968272   6.667568   8.395905
    25  C    4.853016   5.500164   5.745535   5.447695   7.121468
    26  Cl   8.203938   8.578385   8.973558   8.793717  10.462069
    27  H    3.472092   3.731672   2.162319   2.496977   1.100822
    28  H    2.778847   2.528746   2.142568   3.064559   1.103971
    29  H    3.367284   3.995361   2.820819   2.637702   2.157061
    30  H    3.941096   4.105019   3.483574   3.807061   2.160389
    31  H    3.466151   3.759796   3.962058   4.167484   3.470917
    32  H    2.784338   2.565052   3.368041   4.026479   2.793413
    33  H    2.158303   3.073503   2.801858   2.583189   3.338167
    34  H    2.159294   2.501023   3.484286   3.768992   3.934531
    35  H    4.089209   4.437186   2.595049   2.642541   2.821901
    36  H    4.479252   4.139584   4.033972   4.718819   4.784180
    37  H    6.929201   6.591651   6.418845   6.971054   7.116377
    38  H    8.195154   8.305785   6.979298   7.045654   7.392196
    39  H    6.248954   6.523941   4.859195   4.805502   5.170562
    40  H    2.653985   3.396586   3.812861   3.683553   4.908242
    41  H    4.034400   4.048021   4.897562   5.205567   6.250880
    42  H    6.421264   6.525282   7.186447   7.306151   8.619442
    43  H    7.009537   7.650686   7.817766   7.417868   9.220610
    44  H    4.904847   5.679619   5.769507   5.341707   7.043260
                    6          7          8          9         10
     6  C    0.000000
     7  C    1.522283   0.000000
     8  C    2.511669   1.523614   0.000000
     9  N    3.823676   4.285100   3.792665   0.000000
    10  C    4.402995   5.188376   4.879460   1.273207   0.000000
    11  C    5.814971   6.556029   6.194223   2.408889   1.460149
    12  C    6.546062   7.043887   6.578748   2.918460   2.501881
    13  C    7.910163   8.423041   7.944900   4.295348   3.768091
    14  C    8.564584   9.261401   8.842147   5.069680   4.244351
    15  C    8.041416   8.918458   8.584570   4.818297   3.750387
    16  C    6.697132   7.621350   7.330776   3.635124   2.466049
    17  Cl  10.280519  10.959782  10.519545   6.770095   5.971946
    18  N    4.315693   3.841120   2.522284   2.766371   3.962839
    19  C    5.036688   4.353779   2.849969   3.965021   5.097248
    20  C    6.473568   5.809955   4.302917   4.892859   5.922730
    21  C    7.263495   6.646961   5.214933   5.057807   6.030090
    22  C    8.622947   8.010481   6.556074   6.273263   7.137556
    23  C    9.228621   8.589709   7.079299   7.178219   8.018335
    24  C    8.647036   7.981889   6.459266   7.092645   7.969280
    25  C    7.291201   6.608648   5.088691   6.043428   6.996100
    26  Cl  10.944602  10.316092   8.804799   8.739912   9.494166
    27  H    2.166061   3.468043   3.932492   2.737877   2.722907
    28  H    2.166683   2.800726   3.346509   2.670608   3.202495
    29  H    1.104604   2.157070   2.796324   4.168080   4.631721
    30  H    1.101172   2.169798   3.471600   4.627778   5.055933
    31  H    2.171157   1.100983   2.162314   5.338025   6.209695
    32  H    2.157135   1.103911   2.155005   4.472110   5.412922
    33  H    2.788465   2.158104   1.105251   4.124111   5.091323
    34  H    3.468182   2.165306   1.101855   4.592897   5.766775
    35  H    4.135299   5.188508   5.073591   2.072316   1.105675
    36  H    6.213342   6.498036   5.980774   2.662820   2.740081
    37  H    8.596705   8.968017   8.441503   4.984505   4.656229
    38  H    8.810677   9.780351   9.485523   5.768989   4.630462
    39  H    6.491277   7.567684   7.367888   3.923708   2.671488
    40  H    4.810095   3.961902   2.456025   4.609493   5.735488
    41  H    6.971033   6.389269   5.078145   4.527286   5.520041
    42  H    9.334461   8.751756   7.350803   6.705926   7.503274
    43  H    9.372991   8.706676   7.198655   8.019334   8.857929
    44  H    7.007761   6.315013   4.841148   6.299556   7.242006
                   11         12         13         14         15
    11  C    0.000000
    12  C    1.403980   0.000000
    13  C    2.421409   1.386587   0.000000
    14  C    2.784736   2.404805   1.397358   0.000000
    15  C    2.427100   2.798996   2.430376   1.394612   0.000000
    16  C    1.400440   2.418652   2.788481   2.398823   1.389589
    17  Cl   4.512431   3.992241   2.704867   1.727703   2.701739
    18  N    4.904054   4.976697   6.217472   7.205967   7.181387
    19  C    6.021388   6.092990   7.266404   8.230019   8.203544
    20  C    6.600223   6.502873   7.497860   8.458633   8.559790
    21  C    6.422881   6.045827   6.864226   7.904923   8.220676
    22  C    7.360619   6.894036   7.514913   8.495587   8.901143
    23  C    8.334586   8.018149   8.659328   9.538221   9.829886
    24  C    8.502543   8.395553   9.195791  10.029724  10.145662
    25  C    7.706086   7.712519   8.670558   9.535306   9.557186
    26  Cl   9.656098   9.255216   9.712287  10.521679  10.898565
    27  H    4.032609   4.985599   6.263405   6.712094   6.058031
    28  H    4.365519   4.854244   6.167231   6.932301   6.617332
    29  H    6.084159   6.964144   8.318866   8.861688   8.211672
    30  H    6.402538   7.153016   8.478537   9.084530   8.525651
    31  H    7.605086   8.132761   9.514350  10.332188   9.945015
    32  H    6.670124   6.989715   8.334117   9.263848   9.045481
    33  H    6.448732   6.982731   8.339912   9.127757   8.752372
    34  H    6.996472   7.215406   8.545634   9.541286   9.401203
    35  H    2.178396   3.448126   4.593668   4.813808   4.026795
    36  H    2.172395   1.095081   2.147194   3.395659   3.893752
    37  H    3.414385   2.157372   1.090898   2.158951   3.414247
    38  H    3.421277   3.889631   3.414241   2.155836   1.090747
    39  H    2.161610   3.410443   3.881843   3.390005   2.149236
    40  H    6.810245   7.003923   8.232287   9.162921   9.042629
    41  H    5.823520   5.290634   6.103799   7.247865   7.667518
    42  H    7.533112   6.886594   7.332307   8.337297   8.899134
    43  H    9.419278   9.380788  10.168886  10.940824  11.000500
    44  H    8.106572   8.273613   9.316734  10.128092  10.020142
                   16         17         18         19         20
    16  C    0.000000
    17  Cl   3.988763   0.000000
    18  N    6.130708   8.773724   0.000000
    19  C    7.178137   9.747008   1.273707   0.000000
    20  C    7.697311   9.830363   2.413140   1.460570   0.000000
    21  C    7.544082   9.131473   2.955375   2.500371   1.402862
    22  C    8.377913   9.541753   4.322091   3.767694   2.420970
    23  C    9.265782  10.583717   5.071534   4.242972   2.782765
    24  C    9.422734  11.218198   4.801094   3.749396   2.425315
    25  C    8.693006  10.871956   3.614857   2.466812   1.401008
    26  Cl  10.489915  11.367115   6.771115   5.970018   4.509899
    27  H    4.718376   8.410069   4.592892   5.613268   6.875782
    28  H    5.404605   8.594202   4.059546   5.168957   6.470055
    29  H    6.830727  10.587118   4.555621   5.111828   6.504772
    30  H    7.201809  10.775858   5.353100   6.100685   7.544682
    31  H    8.625224  12.037324   4.669436   4.955645   6.381430
    32  H    7.814815  10.920587   4.125657   4.754909   6.168368
    33  H    7.464535  10.815516   2.808341   2.842569   4.222849
    34  H    8.202543  11.176461   2.766931   2.766034   4.101749
    35  H    2.641110   6.512238   4.596710   5.651804   6.573586
    36  H    3.415009   4.851973   4.326050   5.461156   5.893486
    37  H    3.879266   2.846958   6.597111   7.601947   7.716233
    38  H    2.165760   2.841905   8.146507   9.133244   9.469457
    39  H    1.093364   4.850836   6.433398   7.432577   8.040558
    40  H    7.934325  10.724596   2.062152   1.101453   2.179975
    41  H    7.029280   8.474386   2.734963   2.735480   2.169728
    42  H    8.529627   9.226652   5.024022   4.655832   3.414035
    43  H   10.273602  12.108002   5.742401   4.630130   3.419894
    44  H    9.054604  11.539522   3.887936   2.674050   2.163279
                   21         22         23         24         25
    21  C    0.000000
    22  C    1.387102   0.000000
    23  C    2.403244   1.395963   0.000000
    24  C    2.797913   2.430467   1.395554   0.000000
    25  C    2.419096   2.789802   2.399248   1.388685   0.000000
    26  Cl   3.990913   2.703542   1.727153   2.701097   3.987672
    27  H    7.399866   8.696798   9.439483   9.064677   7.829805
    28  H    6.854862   8.208605   9.095556   8.835584   7.590926
    29  H    7.430182   8.739961   9.204536   8.502813   7.151612
    30  H    8.302183   9.671692  10.307287   9.733432   8.372760
    31  H    7.340489   8.667762   9.125332   8.393562   7.011190
    32  H    6.831925   8.206385   8.913977   8.436458   7.100248
    33  H    5.332859   6.598549   6.931670   6.142888   4.757271
    34  H    5.013460   6.308309   6.794523   6.169964   4.831066
    35  H    6.852831   7.971828   8.743228   8.558754   7.530748
    36  H    5.381209   6.303173   7.505311   7.905945   7.188303
    37  H    6.911695   7.457317   8.676054   9.352820   8.920457
    38  H    9.162210   9.789273  10.653373  10.949767  10.397200
    39  H    8.060368   8.931913   9.712020   9.728764   8.940308
    40  H    3.417515   4.573949   4.818289   4.056118   2.680736
    41  H    1.095010   2.148585   3.394430   3.891786   3.413392
    42  H    2.158354   1.090692   2.157521   3.414099   3.880264
    43  H    3.888508   3.413802   2.156422   1.090717   2.164816
    44  H    3.411131   3.883121   3.390490   2.148478   1.093330
                   26         27         28         29         30
    26  Cl   0.000000
    27  H   11.081308   0.000000
    28  H   10.763608   1.767173   0.000000
    29  H   10.899652   2.477485   3.075694   0.000000
    30  H   12.025706   2.498624   2.488301   1.766152   0.000000
    31  H   10.839097   4.312171   3.809335   2.482096   2.518622
    32  H   10.628622   3.797585   2.631059   3.068414   2.481811
    33  H    8.636311   4.158463   4.022765   2.618463   3.796495
    34  H    8.496551   4.977108   4.170555   3.798069   4.310626
    35  H   10.235778   2.216512   3.292371   4.195510   4.685550
    36  H    8.801564   4.947340   4.457080   6.740355   6.854152
    37  H    9.630509   7.085078   6.770099   9.079420   9.170701
    38  H   11.658233   6.762774   7.487420   8.904877   9.249609
    39  H   10.972680   4.455240   5.476134   6.484557   6.946401
    40  H    6.517198   5.772798   5.370515   4.786463   5.848962
    41  H    4.851875   6.977381   6.268686   7.282803   7.954785
    42  H    2.845729   9.263603   8.701645   9.526386  10.355008
    43  H    2.840490   9.865251   9.727693   9.136424  10.456393
    44  H    4.849446   7.743638   7.619195   6.746403   8.072726
                   31         32         33         34         35
    31  H    0.000000
    32  H    1.766130   0.000000
    33  H    2.479669   3.067688   0.000000
    34  H    2.494406   2.474562   1.773630   0.000000
    35  H    6.121961   5.542164   5.145334   6.072417   0.000000
    36  H    7.593106   6.341965   6.504541   6.500612   3.807573
    37  H   10.065122   8.784812   8.913381   8.931688   5.561172
    38  H   10.777836   9.954977   9.586740  10.342063   4.718881
    39  H    8.502737   7.874886   7.383481   8.321622   2.382390
    40  H    4.344870   4.487613   2.243581   2.203579   6.137101
    41  H    7.185225   6.426459   5.398185   4.922107   6.440641
    42  H    9.469689   8.852807   7.489203   7.109442   8.416146
    43  H    9.023599   9.230241   6.767938   6.894425   9.375936
    44  H    6.573319   6.928685   4.322372   4.595303   7.637021
                   36         37         38         39         40
    36  H    0.000000
    37  H    2.479413   0.000000
    38  H    4.984330   4.306822   0.000000
    39  H    4.320480   4.972626   2.491659   0.000000
    40  H    6.385721   8.612368   9.945547   8.079599   0.000000
    41  H    4.518706   6.079291   8.663261   7.641751   3.748314
    42  H    6.291567   7.128777   9.786730   9.187733   5.529966
    43  H    8.936670  10.352074  11.756236  10.515989   4.762573
    44  H    7.786080   9.656696  10.827827   9.181721   2.458107
                   41         42         43         44
    41  H    0.000000
    42  H    2.482667   0.000000
    43  H    4.982249   4.305955   0.000000
    44  H    4.318679   4.973537   2.490684   0.000000
 Stoichiometry    C20H20Cl2N2
 Framework group  C1[X(C20H20Cl2N2)]
 Deg. of freedom   126
 Full point group                 C1      NOp   1
 Largest Abelian subgroup         C1      NOp   1
 Largest concise Abelian subgroup C1      NOp   1
                         Standard orientation:                         
 ---------------------------------------------------------------------
 Center     Atomic      Atomic             Coordinates (Angstroms)
 Number     Number       Type             X           Y           Z
 ---------------------------------------------------------------------
      1          6           0        0.702973    2.642690   -0.577398
      2          1           0        0.357635    2.646686   -1.629494
      3          6           0       -0.572878    2.630841    0.289076
      4          1           0       -0.249776    2.582590    1.347964
      5          6           0       -1.372775    3.913686    0.056519
      6          6           0       -0.539577    5.164334    0.296253
      7          6           0        0.721784    5.154606   -0.555933
      8          6           0        1.535776    3.889137   -0.316340
      9          7           0       -1.343854    1.439268   -0.016033
     10          6           0       -2.430802    1.199998    0.602312
     11          6           0       -3.259534    0.024974    0.348230
     12          6           0       -3.089510   -0.764055   -0.800545
     13          6           0       -3.870592   -1.892525   -0.998256
     14          6           0       -4.833353   -2.238248   -0.046323
     15          6           0       -5.029709   -1.458927    1.093434
     16          6           0       -4.245340   -0.326921    1.278601
     17         17           0       -5.804345   -3.646298   -0.290309
     18          7           0        1.389718    1.373917   -0.435706
     19          6           0        2.615973    1.259837   -0.110726
     20          6           0        3.327763   -0.014651   -0.062742
     21          6           0        2.946566   -1.101404   -0.863790
     22          6           0        3.629883   -2.305876   -0.783927
     23          6           0        4.701811   -2.428920    0.101818
     24          6           0        5.113322   -1.352198    0.888520
     25          6           0        4.432009   -0.146198    0.789408
     26         17           0        5.548154   -3.930533    0.210994
     27          1           0       -2.261308    3.915631    0.706377
     28          1           0       -1.743619    3.896300   -0.983157
     29          1           0       -0.260269    5.220225    1.363499
     30          1           0       -1.142162    6.061538    0.085317
     31          1           0        1.338908    6.042245   -0.347559
     32          1           0        0.444223    5.210267   -1.622929
     33          1           0        1.896935    3.878883    0.728189
     34          1           0        2.426876    3.884032   -0.964412
     35          1           0       -2.796216    1.878032    1.395570
     36          1           0       -2.353214   -0.481035   -1.560130
     37          1           0       -3.742236   -2.508241   -1.889591
     38          1           0       -5.789523   -1.744982    1.821847
     39          1           0       -4.390147    0.286659    2.171906
     40          1           0        3.207215    2.151434    0.151354
     41          1           0        2.136708   -0.989243   -1.592212
     42          1           0        3.341028   -3.152421   -1.408053
     43          1           0        5.960655   -1.468090    1.565469
     44          1           0        4.749747    0.702234    1.401435
 ---------------------------------------------------------------------
 Rotational constants (GHZ):           0.1710717           0.0953954           0.0635293
 Leave Link  202 at Thu Dec  8 09:05:27 2022, MaxMem=  4194304000 cpu:               0.1 elap:               0.1
 (Enter /software/gaussian/G16-A.03/avx/g16/l301.exe)
 Standard basis: def2SVP (5D, 7F)
 Ernie: Thresh=  0.10000D-02 Tol=  0.10000D-05 Strict=F.
 There are   468 symmetry adapted cartesian basis functions of A   symmetry.
 There are   444 symmetry adapted basis functions of A   symmetry.
   444 basis functions,   764 primitive gaussians,   468 cartesian basis functions
    94 alpha electrons       94 beta electrons
       nuclear repulsion energy      2054.6476133061 Hartrees.
 IExCor= 1009 DFT=T Ex+Corr=PBE1PBE ExCW=0 ScaHFX=  0.250000
 ScaDFX=  0.750000  0.750000  1.000000  1.000000 ScalE2=  1.000000  1.000000
 IRadAn=      5 IRanWt=     -1 IRanGd=            0 ICorTp=0 IEmpDi=141
 NAtoms=   44 NActive=   44 NUniq=   44 SFac= 1.00D+00 NAtFMM=   60 NAOKFM=F Big=F
 Integral buffers will be    131072 words long.
 Raffenetti 2 integral format.
 Two-electron integral symmetry is turned on.
 R6Disp:  Grimme-D3(BJ) Dispersion energy=       -0.0510001863 Hartrees.
 Nuclear repulsion after empirical dispersion term =     2054.5966131198 Hartrees.
 Leave Link  301 at Thu Dec  8 09:05:28 2022, MaxMem=  4194304000 cpu:               0.6 elap:               0.1
 (Enter /software/gaussian/G16-A.03/avx/g16/l302.exe)
 NPDir=0 NMtPBC=     1 NCelOv=     1 NCel=       1 NClECP=     1 NCelD=      1
         NCelK=      1 NCelE2=     1 NClLst=     1 CellRange=     0.0.
 One-electron integrals computed using PRISM.
 One-electron integral symmetry used in STVInt
   1 Symmetry operations used in ECPInt.
 ECPInt:  NShTT=   21736 NPrTT=   80592 LenC2=   17846 LenP2D=   44026.
 LDataN:  DoStor=T MaxTD1= 4 Len=   56
 NBasis=   444 RedAO= T EigKep=  2.72D-04  NBF=   444
 NBsUse=   444 1.00D-06 EigRej= -1.00D+00 NBFU=   444
 Precomputing XC quadrature grid using
 IXCGrd= 4 IRadAn=           5 IRanWt=          -1 IRanGd=           0 AccXCQ= 0.00D+00.
 Generated NRdTot=       0 NPtTot=           0 NUsed=           0 NTot=          32
 NSgBfM=   451   449   450   450   451 MxSgAt=    44 MxSgA2=    44.
 Leave Link  302 at Thu Dec  8 09:05:30 2022, MaxMem=  4194304000 cpu:               8.0 elap:               1.1
 (Enter /software/gaussian/G16-A.03/avx/g16/l303.exe)
 DipDrv:  MaxL=1.
 Leave Link  303 at Thu Dec  8 09:05:31 2022, MaxMem=  4194304000 cpu:               2.1 elap:               0.4
 (Enter /software/gaussian/G16-A.03/avx/g16/l401.exe)
 ExpMin= 1.22D-01 ExpMax= 1.04D+04 ExpMxC= 1.57D+03 IAcc=3 IRadAn=         5 AccDes= 0.00D+00
 Harris functional with IExCor= 1009 and IRadAn=       5 diagonalized for initial guess.
 HarFok:  IExCor= 1009 AccDes= 0.00D+00 IRadAn=         5 IDoV= 1 UseB2=F ITyADJ=14
 ICtDFT=  3500011 ScaDFX=  1.000000  1.000000  1.000000  1.000000
 FoFCou: FMM=F IPFlag=           0 FMFlag=      100000 FMFlg1=           0
         NFxFlg=           0 DoJE=T BraDBF=F KetDBF=T FulRan=T
         wScrn=  0.000000 ICntrl=       500 IOpCl=  0 I1Cent=   200000004 NGrid=           0
         NMat0=    1 NMatS0=      1 NMatT0=    0 NMatD0=    1 NMtDS0=    0 NMtDT0=    0
 Petite list used in FoFCou.
 Harris En= -1801.84482737490    
 JPrj=0 DoOrth=F DoCkMO=F.
 Leave Link  401 at Thu Dec  8 09:05:37 2022, MaxMem=  4194304000 cpu:              40.6 elap:               5.2
 (Enter /software/gaussian/G16-A.03/avx/g16/l502.exe)
 Integral symmetry usage will be decided dynamically.
 Closed shell SCF:
 Using DIIS extrapolation, IDIIS=  1040.
 NGot=  4194304000 LenX=  4193857212 LenY=  4193637720
 Requested convergence on RMS density matrix=1.00D-08 within 128 cycles.
 Requested convergence on MAX density matrix=1.00D-06.
 Requested convergence on             energy=1.00D-06.
 No special actions if energy rises.
 Fock matrices will be formed incrementally for  20 cycles.
 Integral accuracy reduced to 1.0D-05 until final iterations.

 Cycle   1  Pass 0  IDiag  1:
 FoFJK:  IHMeth= 1 ICntrl=       0 DoSepK=F KAlg= 0 I1Cent=           0 FoldK=F
 IRaf= 740000000 NMat=       1 IRICut=       1 DoRegI=T DoRafI=F ISym2E= 0 IDoP0=0 IntGTp=1.
 FoFCou: FMM=F IPFlag=           0 FMFlag=      100000 FMFlg1=           0
         NFxFlg=           0 DoJE=F BraDBF=F KetDBF=F FulRan=T
         wScrn=  0.000000 ICntrl=         0 IOpCl=  0 I1Cent=           0 NGrid=           0
         NMat0=    1 NMatS0=      1 NMatT0=    0 NMatD0=    1 NMtDS0=    0 NMtDT0=    0
 Symmetry not used in FoFCou.
 E= -1801.33514786394    
 DIIS: error= 3.99D-02 at cycle   1 NSaved=   1.
 NSaved= 1 IEnMin= 1 EnMin= -1801.33514786394     IErMin= 1 ErrMin= 3.99D-02
 ErrMax= 3.99D-02  0.00D+00 EMaxC= 1.00D-01 BMatC= 4.43D-01 BMatP= 4.43D-01
 IDIUse=3 WtCom= 6.01D-01 WtEn= 3.99D-01
 Coeff-Com:  0.100D+01
 Coeff-En:   0.100D+01
 Coeff:      0.100D+01
 Gap=     0.348 Goal=   None    Shift=    0.000
 GapD=    0.348 DampG=1.000 DampE=0.500 DampFc=0.5000 IDamp=-1.
 Damping current iteration by 5.00D-01
 RMSDP=4.64D-03 MaxDP=1.21D-01              OVMax= 2.19D-01

 Cycle   2  Pass 0  IDiag  1:
 RMSU=  2.27D-03    CP:  9.73D-01
 E= -1801.55646590786     Delta-E=       -0.221318043915 Rises=F Damp=T
 DIIS: error= 5.39D-03 at cycle   2 NSaved=   2.
 NSaved= 2 IEnMin= 2 EnMin= -1801.55646590786     IErMin= 2 ErrMin= 5.39D-03
 ErrMax= 5.39D-03  0.00D+00 EMaxC= 1.00D-01 BMatC= 2.96D-02 BMatP= 4.43D-01
 IDIUse=3 WtCom= 9.46D-01 WtEn= 5.39D-02
 Coeff-Com:  0.764D-01 0.924D+00
 Coeff-En:   0.141D+00 0.859D+00
 Coeff:      0.799D-01 0.920D+00
 Gap=     0.325 Goal=   None    Shift=    0.000
 RMSDP=1.38D-03 MaxDP=4.07D-02 DE=-2.21D-01 OVMax= 2.11D-01

 Cycle   3  Pass 0  IDiag  1:
 RMSU=  1.34D-03    CP:  9.61D-01  8.90D-01
 E= -1801.83009543514     Delta-E=       -0.273629527280 Rises=F Damp=F
 DIIS: error= 4.83D-03 at cycle   3 NSaved=   3.
 NSaved= 3 IEnMin= 3 EnMin= -1801.83009543514     IErMin= 3 ErrMin= 4.83D-03
 ErrMax= 4.83D-03  0.00D+00 EMaxC= 1.00D-01 BMatC= 1.89D-02 BMatP= 2.96D-02
 IDIUse=3 WtCom= 9.52D-01 WtEn= 4.83D-02
 Coeff-Com: -0.282D-02 0.429D+00 0.574D+00
 Coeff-En:   0.000D+00 0.000D+00 0.100D+01
 Coeff:     -0.268D-02 0.408D+00 0.595D+00
 Gap=     0.192 Goal=   None    Shift=    0.000
 RMSDP=6.28D-04 MaxDP=2.64D-02 DE=-2.74D-01 OVMax= 6.45D-02

 Cycle   4  Pass 0  IDiag  1:
 RMSU=  5.38D-04    CP:  9.63D-01  9.61D-01  7.92D-01
 E= -1801.83940268482     Delta-E=       -0.009307249684 Rises=F Damp=F
 DIIS: error= 3.16D-03 at cycle   4 NSaved=   4.
 NSaved= 4 IEnMin= 4 EnMin= -1801.83940268482     IErMin= 4 ErrMin= 3.16D-03
 ErrMax= 3.16D-03  0.00D+00 EMaxC= 1.00D-01 BMatC= 1.03D-02 BMatP= 1.89D-02
 IDIUse=3 WtCom= 9.68D-01 WtEn= 3.16D-02
 Coeff-Com: -0.154D-01 0.105D+00 0.423D+00 0.487D+00
 Coeff-En:   0.000D+00 0.000D+00 0.373D+00 0.627D+00
 Coeff:     -0.149D-01 0.102D+00 0.421D+00 0.492D+00
 Gap=     0.192 Goal=   None    Shift=    0.000
 RMSDP=3.27D-04 MaxDP=1.57D-02 DE=-9.31D-03 OVMax= 2.62D-02

 Cycle   5  Pass 0  IDiag  1:
 RMSU=  1.70D-04    CP:  9.61D-01  9.43D-01  8.70D-01  5.31D-01
 E= -1801.84939433015     Delta-E=       -0.009991645330 Rises=F Damp=F
 DIIS: error= 5.59D-04 at cycle   5 NSaved=   5.
 NSaved= 5 IEnMin= 5 EnMin= -1801.84939433015     IErMin= 5 ErrMin= 5.59D-04
 ErrMax= 5.59D-04  0.00D+00 EMaxC= 1.00D-01 BMatC= 3.31D-04 BMatP= 1.03D-02
 IDIUse=3 WtCom= 9.94D-01 WtEn= 5.59D-03
 Coeff-Com: -0.687D-02 0.209D-01 0.166D+00 0.244D+00 0.576D+00
 Coeff-En:   0.000D+00 0.000D+00 0.000D+00 0.000D+00 0.100D+01
 Coeff:     -0.683D-02 0.208D-01 0.165D+00 0.243D+00 0.578D+00
 Gap=     0.188 Goal=   None    Shift=    0.000
 RMSDP=7.00D-05 MaxDP=3.54D-03 DE=-9.99D-03 OVMax= 4.77D-03

 Cycle   6  Pass 0  IDiag  1:
 RMSU=  4.36D-05    CP:  9.61D-01  9.47D-01  8.74D-01  5.74D-01  7.16D-01
 E= -1801.84965316412     Delta-E=       -0.000258833972 Rises=F Damp=F
 DIIS: error= 3.70D-04 at cycle   6 NSaved=   6.
 NSaved= 6 IEnMin= 6 EnMin= -1801.84965316412     IErMin= 6 ErrMin= 3.70D-04
 ErrMax= 3.70D-04  0.00D+00 EMaxC= 1.00D-01 BMatC= 6.40D-05 BMatP= 3.31D-04
 IDIUse=3 WtCom= 9.96D-01 WtEn= 3.70D-03
 Coeff-Com: -0.250D-02 0.166D-02 0.580D-01 0.981D-01 0.357D+00 0.488D+00
 Coeff-En:   0.000D+00 0.000D+00 0.000D+00 0.000D+00 0.144D+00 0.856D+00
 Coeff:     -0.249D-02 0.166D-02 0.578D-01 0.977D-01 0.356D+00 0.489D+00
 Gap=     0.189 Goal=   None    Shift=    0.000
 RMSDP=2.51D-05 MaxDP=1.19D-03 DE=-2.59D-04 OVMax= 2.19D-03

 Cycle   7  Pass 0  IDiag  1:
 RMSU=  1.58D-05    CP:  9.61D-01  9.46D-01  8.76D-01  5.76D-01  7.44D-01
                    CP:  5.73D-01
 E= -1801.84971478783     Delta-E=       -0.000061623707 Rises=F Damp=F
 DIIS: error= 1.00D-04 at cycle   7 NSaved=   7.
 NSaved= 7 IEnMin= 7 EnMin= -1801.84971478783     IErMin= 7 ErrMin= 1.00D-04
 ErrMax= 1.00D-04  0.00D+00 EMaxC= 1.00D-01 BMatC= 4.75D-06 BMatP= 6.40D-05
 IDIUse=3 WtCom= 9.99D-01 WtEn= 1.00D-03
 Coeff-Com: -0.709D-03-0.102D-02 0.175D-01 0.319D-01 0.148D+00 0.278D+00
 Coeff-Com:  0.527D+00
 Coeff-En:   0.000D+00 0.000D+00 0.000D+00 0.000D+00 0.000D+00 0.000D+00
 Coeff-En:   0.100D+01
 Coeff:     -0.708D-03-0.102D-02 0.175D-01 0.319D-01 0.148D+00 0.277D+00
 Coeff:      0.527D+00
 Gap=     0.189 Goal=   None    Shift=    0.000
 RMSDP=7.78D-06 MaxDP=3.43D-04 DE=-6.16D-05 OVMax= 5.84D-04

 Initial convergence to 1.0D-05 achieved.  Increase integral accuracy.
 Cycle   8  Pass 1  IDiag  1:
 E= -1801.84980263549     Delta-E=       -0.000087847663 Rises=F Damp=F
 DIIS: error= 1.07D-04 at cycle   1 NSaved=   1.
 NSaved= 1 IEnMin= 1 EnMin= -1801.84980263549     IErMin= 1 ErrMin= 1.07D-04
 ErrMax= 1.07D-04  0.00D+00 EMaxC= 1.00D-01 BMatC= 3.46D-06 BMatP= 3.46D-06
 IDIUse=3 WtCom= 9.99D-01 WtEn= 1.07D-03
 Coeff-Com:  0.100D+01
 Coeff-En:   0.100D+01
 Coeff:      0.100D+01
 Gap=     0.189 Goal=   None    Shift=    0.000
 RMSDP=7.78D-06 MaxDP=3.43D-04 DE=-8.78D-05 OVMax= 3.74D-04

 Cycle   9  Pass 1  IDiag  1:
 RMSU=  8.93D-05    CP:  1.00D+00
 E= -1801.84980571278     Delta-E=       -0.000003077284 Rises=F Damp=F
 DIIS: error= 2.63D-05 at cycle   2 NSaved=   2.
 NSaved= 2 IEnMin= 2 EnMin= -1801.84980571278     IErMin= 2 ErrMin= 2.63D-05
 ErrMax= 2.63D-05  0.00D+00 EMaxC= 1.00D-01 BMatC= 7.86D-07 BMatP= 3.46D-06
 IDIUse=1 WtCom= 1.00D+00 WtEn= 0.00D+00
 Coeff-Com:  0.236D+00 0.764D+00
 Coeff:      0.236D+00 0.764D+00
 Gap=     0.189 Goal=   None    Shift=    0.000
 RMSDP=5.31D-06 MaxDP=2.37D-04 DE=-3.08D-06 OVMax= 3.72D-04

 Cycle  10  Pass 1  IDiag  1:
 RMSU=  5.23D-06    CP:  1.00D+00  1.01D+00
 E= -1801.84980539743     Delta-E=        0.000000315344 Rises=F Damp=F
 DIIS: error= 3.19D-05 at cycle   3 NSaved=   3.
 NSaved= 3 IEnMin= 2 EnMin= -1801.84980571278     IErMin= 2 ErrMin= 2.63D-05
 ErrMax= 3.19D-05  0.00D+00 EMaxC= 1.00D-01 BMatC= 1.09D-06 BMatP= 7.86D-07
 IDIUse=1 WtCom= 1.00D+00 WtEn= 0.00D+00
 Coeff-Com:  0.285D-02 0.540D+00 0.457D+00
 Coeff:      0.285D-02 0.540D+00 0.457D+00
 Gap=     0.189 Goal=   None    Shift=    0.000
 RMSDP=2.94D-06 MaxDP=1.34D-04 DE= 3.15D-07 OVMax= 2.30D-04

 Cycle  11  Pass 1  IDiag  1:
 RMSU=  9.66D-07    CP:  1.00D+00  1.02D+00  4.77D-01
 E= -1801.84980650399     Delta-E=       -0.000001106554 Rises=F Damp=F
 DIIS: error= 6.37D-06 at cycle   4 NSaved=   4.
 NSaved= 4 IEnMin= 4 EnMin= -1801.84980650399     IErMin= 4 ErrMin= 6.37D-06
 ErrMax= 6.37D-06  0.00D+00 EMaxC= 1.00D-01 BMatC= 3.71D-08 BMatP= 7.86D-07
 IDIUse=1 WtCom= 1.00D+00 WtEn= 0.00D+00
 Coeff-Com: -0.480D-02 0.321D+00 0.290D+00 0.394D+00
 Coeff:     -0.480D-02 0.321D+00 0.290D+00 0.394D+00
 Gap=     0.189 Goal=   None    Shift=    0.000
 RMSDP=5.58D-07 MaxDP=2.86D-05 DE=-1.11D-06 OVMax= 3.72D-05

 Cycle  12  Pass 1  IDiag  1:
 RMSU=  2.31D-07    CP:  1.00D+00  1.02D+00  4.80D-01  4.79D-01
 E= -1801.84980653882     Delta-E=       -0.000000034835 Rises=F Damp=F
 DIIS: error= 7.48D-07 at cycle   5 NSaved=   5.
 NSaved= 5 IEnMin= 5 EnMin= -1801.84980653882     IErMin= 5 ErrMin= 7.48D-07
 ErrMax= 7.48D-07  0.00D+00 EMaxC= 1.00D-01 BMatC= 6.16D-10 BMatP= 3.71D-08
 IDIUse=1 WtCom= 1.00D+00 WtEn= 0.00D+00
 Coeff-Com: -0.274D-02 0.160D+00 0.146D+00 0.218D+00 0.479D+00
 Coeff:     -0.274D-02 0.160D+00 0.146D+00 0.218D+00 0.479D+00
 Gap=     0.189 Goal=   None    Shift=    0.000
 RMSDP=8.34D-08 MaxDP=3.20D-06 DE=-3.48D-08 OVMax= 6.54D-06

 Cycle  13  Pass 1  IDiag  1:
 RMSU=  6.98D-08    CP:  1.00D+00  1.02D+00  4.83D-01  5.07D-01  8.61D-01
 E= -1801.84980653934     Delta-E=       -0.000000000517 Rises=F Damp=F
 DIIS: error= 3.91D-07 at cycle   6 NSaved=   6.
 NSaved= 6 IEnMin= 6 EnMin= -1801.84980653934     IErMin= 6 ErrMin= 3.91D-07
 ErrMax= 3.91D-07  0.00D+00 EMaxC= 1.00D-01 BMatC= 7.07D-11 BMatP= 6.16D-10
 IDIUse=1 WtCom= 1.00D+00 WtEn= 0.00D+00
 Coeff-Com: -0.803D-03 0.410D-01 0.380D-01 0.657D-01 0.265D+00 0.591D+00
 Coeff:     -0.803D-03 0.410D-01 0.380D-01 0.657D-01 0.265D+00 0.591D+00
 Gap=     0.189 Goal=   None    Shift=    0.000
 RMSDP=3.33D-08 MaxDP=9.73D-07 DE=-5.17D-10 OVMax= 3.95D-06

 Cycle  14  Pass 1  IDiag  1:
 RMSU=  2.62D-08    CP:  1.00D+00  1.02D+00  4.82D-01  5.05D-01  8.96D-01
                    CP:  7.42D-01
 E= -1801.84980653941     Delta-E=       -0.000000000065 Rises=F Damp=F
 DIIS: error= 1.58D-07 at cycle   7 NSaved=   7.
 NSaved= 7 IEnMin= 7 EnMin= -1801.84980653941     IErMin= 7 ErrMin= 1.58D-07
 ErrMax= 1.58D-07  0.00D+00 EMaxC= 1.00D-01 BMatC= 1.09D-11 BMatP= 7.07D-11
 IDIUse=1 WtCom= 1.00D+00 WtEn= 0.00D+00
 Coeff-Com:  0.664D-04-0.704D-02-0.583D-02-0.295D-02 0.362D-01 0.314D+00
 Coeff-Com:  0.665D+00
 Coeff:      0.664D-04-0.704D-02-0.583D-02-0.295D-02 0.362D-01 0.314D+00
 Coeff:      0.665D+00
 Gap=     0.189 Goal=   None    Shift=    0.000
 RMSDP=1.41D-08 MaxDP=4.27D-07 DE=-6.46D-11 OVMax= 1.01D-06

 Cycle  15  Pass 1  IDiag  1:
 RMSU=  7.95D-09    CP:  1.00D+00  1.02D+00  4.83D-01  5.11D-01  9.05D-01
                    CP:  8.34D-01  7.55D-01
 E= -1801.84980653944     Delta-E=       -0.000000000033 Rises=F Damp=F
 DIIS: error= 2.93D-08 at cycle   8 NSaved=   8.
 NSaved= 8 IEnMin= 8 EnMin= -1801.84980653944     IErMin= 8 ErrMin= 2.93D-08
 ErrMax= 2.93D-08  0.00D+00 EMaxC= 1.00D-01 BMatC= 6.93D-13 BMatP= 1.09D-11
 IDIUse=1 WtCom= 1.00D+00 WtEn= 0.00D+00
 Coeff-Com:  0.107D-03-0.712D-02-0.622D-02-0.715D-02-0.111D-01 0.936D-01
 Coeff-Com:  0.304D+00 0.634D+00
 Coeff:      0.107D-03-0.712D-02-0.622D-02-0.715D-02-0.111D-01 0.936D-01
 Coeff:      0.304D+00 0.634D+00
 Gap=     0.189 Goal=   None    Shift=    0.000
 RMSDP=2.69D-09 MaxDP=1.16D-07 DE=-3.32D-11 OVMax= 2.15D-07

 SCF Done:  E(RPBE1PBE) =  -1801.84980654     A.U. after   15 cycles
            NFock= 15  Conv=0.27D-08     -V/T= 2.0060
 KE= 1.791085117991D+03 PE=-8.339832225202D+03 EE= 2.692300687552D+03
 Leave Link  502 at Thu Dec  8 09:07:41 2022, MaxMem=  4194304000 cpu:             986.7 elap:             123.5
 (Enter /software/gaussian/G16-A.03/avx/g16/l801.exe)
 DoSCS=F DFT=T ScalE2(SS,OS)=  1.000000  1.000000
 Range of M.O.s used for correlation:     1   444
 NBasis=   444 NAE=    94 NBE=    94 NFC=     0 NFV=     0
 NROrb=    444 NOA=    94 NOB=    94 NVA=   350 NVB=   350

 **** Warning!!: The largest alpha MO coefficient is  0.13310777D+02

 Leave Link  801 at Thu Dec  8 09:07:41 2022, MaxMem=  4194304000 cpu:               0.2 elap:               0.0
 (Enter /software/gaussian/G16-A.03/avx/g16/l1101.exe)
 Using compressed storage, NAtomX=    44.
 Will process     45 centers per pass.
   1 Symmetry operations used in ECPInt.
 ECPInt:  NShTT=   21736 NPrTT=   80592 LenC2=   17846 LenP2D=   44026.
 LDataN:  DoStor=T MaxTD1= 5 Len=  102
 R6Disp: Adding Grimme-D3(BJ) dispersion energy 1st derivatives to the gradient.
 Leave Link 1101 at Thu Dec  8 09:07:42 2022, MaxMem=  4194304000 cpu:               8.7 elap:               1.1
 (Enter /software/gaussian/G16-A.03/avx/g16/l1102.exe)
 Symmetrizing basis deriv contribution to polar:
 IMax=3 JMax=2 DiffMx= 0.00D+00
 Leave Link 1102 at Thu Dec  8 09:07:42 2022, MaxMem=  4194304000 cpu:               0.6 elap:               0.1
 (Enter /software/gaussian/G16-A.03/avx/g16/l1110.exe)
 Forming Gx(P) for the SCF density, NAtomX=    44.
 Integral derivatives from FoFJK, PRISM(SPDF).
 Do as many integral derivatives as possible in FoFJK.
 G2DrvN: MDV=    4194300696.
 G2DrvN: will do    45 centers at a time, making    1 passes.
 Calling FoFCou, ICntrl=  3107 FMM=F I1Cent=   0 AccDes= 0.00D+00.
 FoFJK:  IHMeth= 1 ICntrl=    3107 DoSepK=F KAlg= 0 I1Cent=           0 FoldK=F
 IRaf=         0 NMat=       1 IRICut=       1 DoRegI=T DoRafI=F ISym2E= 0 IDoP0=0 IntGTp=1.
 FoFCou: FMM=F IPFlag=           0 FMFlag=      100000 FMFlg1=           0
         NFxFlg=           0 DoJE=F BraDBF=F KetDBF=F FulRan=T
         wScrn=  0.000000 ICntrl=      3107 IOpCl=  0 I1Cent=           0 NGrid=           0
         NMat0=    1 NMatS0=      1 NMatT0=    0 NMatD0=    1 NMtDS0=    0 NMtDT0=    0
 Symmetry not used in FoFCou.
 End of G2Drv F.D. properties file   721 does not exist.
 End of G2Drv F.D. properties file   722 does not exist.
 End of G2Drv F.D. properties file   788 does not exist.
 Leave Link 1110 at Thu Dec  8 09:14:33 2022, MaxMem=  4194304000 cpu:            3285.1 elap:             410.7
 (Enter /software/gaussian/G16-A.03/avx/g16/l1002.exe)
 Minotr:  Closed shell wavefunction.
          IDoAtm=11111111111111111111111111111111111111111111
          Direct CPHF calculation.
          Differentiating once with respect to electric field.
                with respect to dipole field.
          Differentiating once with respect to nuclear coordinates.
          Requested convergence is 1.0D-08 RMS, and 1.0D-07 maximum.
          Secondary convergence is 1.0D-12 RMS, and 1.0D-12 maximum.
          NewPWx=T KeepS1=F KeepF1=F KeepIn=T MapXYZ=F SortEE=F KeepMc=T.
        13316 words used for storage of precomputed grid.
 Two-electron integrals replicated using symmetry.
          MDV=    4194304000 using IRadAn=       1.
          Solving linear equations simultaneously, MaxMat=     384.
 FoF2E skips out because all densities are zero.
 CalDSu exits because no D1Ps are significant.
 FoFJK:  IHMeth= 1 ICntrl=       0 DoSepK=F KAlg= 0 I1Cent=           0 FoldK=F
 IRaf= 700000000 NMat=     132 IRICut=     330 DoRegI=T DoRafI=T ISym2E= 2 IDoP0=3 IntGTp=3.
 FoFCou: FMM=F IPFlag=           0 FMFlag=      100000 FMFlg1=           0
         NFxFlg=           0 DoJE=F BraDBF=F KetDBF=F FulRan=T
         wScrn=  0.000000 ICntrl=         0 IOpCl=  0 I1Cent=           0 NGrid=           0
         NMat0=  132 NMatS0=    132 NMatT0=    0 NMatD0=  132 NMtDS0=    0 NMtDT0=    0
 Integrals replicated using symmetry in FoFCou.
 Raff kept on since  64.17% of shell-pairs survive, threshold=   0.20 IRatSp=64.
          There are   135 degrees of freedom in the 1st order CPHF.  IDoFFX=6 NUNeed=     3.
    132 vectors produced by pass  0 Test12= 3.29D-14 1.00D-09 XBig12= 3.06D+02 8.09D+00.
 AX will form   132 AO Fock derivatives at one time.
    132 vectors produced by pass  1 Test12= 3.29D-14 1.00D-09 XBig12= 4.91D+01 1.27D+00.
    132 vectors produced by pass  2 Test12= 3.29D-14 1.00D-09 XBig12= 5.64D-01 8.05D-02.
    132 vectors produced by pass  3 Test12= 3.29D-14 1.00D-09 XBig12= 5.30D-03 1.07D-02.
    132 vectors produced by pass  4 Test12= 3.29D-14 1.00D-09 XBig12= 1.27D-05 2.69D-04.
    110 vectors produced by pass  5 Test12= 3.29D-14 1.00D-09 XBig12= 1.43D-08 7.03D-06.
     35 vectors produced by pass  6 Test12= 3.29D-14 1.00D-09 XBig12= 1.38D-11 2.33D-07.
      3 vectors produced by pass  7 Test12= 3.29D-14 1.00D-09 XBig12= 1.52D-14 1.25D-08.
      2 vectors produced by pass  8 Test12= 3.29D-14 1.00D-09 XBig12= 2.67D-15 4.33D-09.
 InvSVY:  IOpt=1 It=  1 EMax= 1.42D-14
 Solved reduced A of dimension   810 with   135 vectors.
 FullF1:  Do perturbations      1 to       3.
 Isotropic polarizability for W=    0.000000      264.19 Bohr**3.
 End of Minotr F.D. properties file   721 does not exist.
 End of Minotr F.D. properties file   722 does not exist.
 End of Minotr F.D. properties file   788 does not exist.
 Leave Link 1002 at Thu Dec  8 09:28:13 2022, MaxMem=  4194304000 cpu:            6560.9 elap:             820.3
 (Enter /software/gaussian/G16-A.03/avx/g16/l601.exe)
 Copying SCF densities to generalized density rwf, IOpCl= 0 IROHF=0.

 **********************************************************************

            Population analysis using the SCF density.

 **********************************************************************

 Orbital symmetries:
       Occupied  (A) (A) (A) (A) (A) (A) (A) (A) (A) (A) (A) (A)
                 (A) (A) (A) (A) (A) (A) (A) (A) (A) (A) (A) (A)
                 (A) (A) (A) (A) (A) (A) (A) (A) (A) (A) (A) (A)
                 (A) (A) (A) (A) (A) (A) (A) (A) (A) (A) (A) (A)
                 (A) (A) (A) (A) (A) (A) (A) (A) (A) (A) (A) (A)
                 (A) (A) (A) (A) (A) (A) (A) (A) (A) (A) (A) (A)
                 (A) (A) (A) (A) (A) (A) (A) (A) (A) (A) (A) (A)
                 (A) (A) (A) (A) (A) (A) (A) (A) (A) (A)
       Virtual   (A) (A) (A) (A) (A) (A) (A) (A) (A) (A) (A) (A)
                 (A) (A) (A) (A) (A) (A) (A) (A) (A) (A) (A) (A)
                 (A) (A) (A) (A) (A) (A) (A) (A) (A) (A) (A) (A)
                 (A) (A) (A) (A) (A) (A) (A) (A) (A) (A) (A) (A)
                 (A) (A) (A) (A) (A) (A) (A) (A) (A) (A) (A) (A)
                 (A) (A) (A) (A) (A) (A) (A) (A) (A) (A) (A) (A)
                 (A) (A) (A) (A) (A) (A) (A) (A) (A) (A) (A) (A)
                 (A) (A) (A) (A) (A) (A) (A) (A) (A) (A) (A) (A)
                 (A) (A) (A) (A) (A) (A) (A) (A) (A) (A) (A) (A)
                 (A) (A) (A) (A) (A) (A) (A) (A) (A) (A) (A) (A)
                 (A) (A) (A) (A) (A) (A) (A) (A) (A) (A) (A) (A)
                 (A) (A) (A) (A) (A) (A) (A) (A) (A) (A) (A) (A)
                 (A) (A) (A) (A) (A) (A) (A) (A) (A) (A) (A) (A)
                 (A) (A) (A) (A) (A) (A) (A) (A) (A) (A) (A) (A)
                 (A) (A) (A) (A) (A) (A) (A) (A) (A) (A) (A) (A)
                 (A) (A) (A) (A) (A) (A) (A) (A) (A) (A) (A) (A)
                 (A) (A) (A) (A) (A) (A) (A) (A) (A) (A) (A) (A)
                 (A) (A) (A) (A) (A) (A) (A) (A) (A) (A) (A) (A)
                 (A) (A) (A) (A) (A) (A) (A) (A) (A) (A) (A) (A)
                 (A) (A) (A) (A) (A) (A) (A) (A) (A) (A) (A) (A)
                 (A) (A) (A) (A) (A) (A) (A) (A) (A) (A) (A) (A)
                 (A) (A) (A) (A) (A) (A) (A) (A) (A) (A) (A) (A)
                 (A) (A) (A) (A) (A) (A) (A) (A) (A) (A) (A) (A)
                 (A) (A) (A) (A) (A) (A) (A) (A) (A) (A) (A) (A)
                 (A) (A) (A) (A) (A) (A) (A) (A) (A) (A) (A) (A)
                 (A) (A) (A) (A) (A) (A) (A) (A) (A) (A) (A) (A)
                 (A) (A) (A) (A) (A) (A) (A) (A) (A) (A) (A) (A)
                 (A) (A) (A) (A) (A) (A) (A) (A) (A) (A) (A) (A)
                 (A) (A) (A) (A) (A) (A) (A) (A) (A) (A) (A) (A)
                 (A) (A)
 The electronic state is 1-A.
 Alpha  occ. eigenvalues -- -101.68272-101.68122 -14.38195 -14.37874 -10.30083
 Alpha  occ. eigenvalues --  -10.29897 -10.27768 -10.27439 -10.26686 -10.26157
 Alpha  occ. eigenvalues --  -10.25543 -10.25376 -10.25363 -10.25232 -10.25208
 Alpha  occ. eigenvalues --  -10.25198 -10.25050 -10.25042 -10.24986 -10.24889
 Alpha  occ. eigenvalues --  -10.23851 -10.23730 -10.23665 -10.23484  -9.53504
 Alpha  occ. eigenvalues --   -9.53357  -7.27627  -7.27480  -7.26664  -7.26619
 Alpha  occ. eigenvalues --   -7.26516  -7.26472  -0.95480  -0.93435  -0.91883
 Alpha  occ. eigenvalues --   -0.91662  -0.86884  -0.86219  -0.84718  -0.78454
 Alpha  occ. eigenvalues --   -0.77950  -0.77824  -0.77710  -0.75313  -0.74132
 Alpha  occ. eigenvalues --   -0.66680  -0.66101  -0.64239  -0.64010  -0.62554
 Alpha  occ. eigenvalues --   -0.61381  -0.58922  -0.57849  -0.56948  -0.53135
 Alpha  occ. eigenvalues --   -0.52589  -0.52188  -0.51082  -0.48668  -0.48370
 Alpha  occ. eigenvalues --   -0.47850  -0.47445  -0.46995  -0.46676  -0.45496
 Alpha  occ. eigenvalues --   -0.44905  -0.44767  -0.44680  -0.43494  -0.42146
 Alpha  occ. eigenvalues --   -0.41995  -0.41625  -0.41113  -0.39411  -0.38514
 Alpha  occ. eigenvalues --   -0.37991  -0.37543  -0.37480  -0.36952  -0.36406
 Alpha  occ. eigenvalues --   -0.35834  -0.35479  -0.34187  -0.33381  -0.32417
 Alpha  occ. eigenvalues --   -0.32283  -0.31508  -0.31113  -0.28234  -0.28109
 Alpha  occ. eigenvalues --   -0.26121  -0.25194  -0.24772  -0.24027
 Alpha virt. eigenvalues --   -0.05157  -0.04436  -0.01600  -0.01491   0.03674
 Alpha virt. eigenvalues --    0.04064   0.05034   0.05195   0.05997   0.06966
 Alpha virt. eigenvalues --    0.08199   0.09418   0.10558   0.10914   0.11701
 Alpha virt. eigenvalues --    0.12254   0.12516   0.12839   0.13736   0.14218
 Alpha virt. eigenvalues --    0.14422   0.14971   0.15055   0.15135   0.15658
 Alpha virt. eigenvalues --    0.16287   0.16880   0.17217   0.18232   0.19207
 Alpha virt. eigenvalues --    0.21095   0.21469   0.24055   0.24432   0.24879
 Alpha virt. eigenvalues --    0.25516   0.25546   0.26204   0.28249   0.28553
 Alpha virt. eigenvalues --    0.28827   0.29241   0.29527   0.30362   0.30937
 Alpha virt. eigenvalues --    0.31619   0.31900   0.32532   0.34185   0.34549
 Alpha virt. eigenvalues --    0.35873   0.36211   0.39037   0.39136   0.41351
 Alpha virt. eigenvalues --    0.41555   0.42056   0.42489   0.43611   0.44378
 Alpha virt. eigenvalues --    0.45320   0.46099   0.46406   0.46683   0.46950
 Alpha virt. eigenvalues --    0.47208   0.47747   0.48159   0.48464   0.49065
 Alpha virt. eigenvalues --    0.49323   0.50503   0.51077   0.51457   0.51803
 Alpha virt. eigenvalues --    0.53725   0.54253   0.54495   0.54731   0.57025
 Alpha virt. eigenvalues --    0.58230   0.59582   0.59861   0.60154   0.60435
 Alpha virt. eigenvalues --    0.60593   0.60842   0.61316   0.61858   0.62411
 Alpha virt. eigenvalues --    0.63065   0.63443   0.64278   0.64620   0.64786
 Alpha virt. eigenvalues --    0.65312   0.65877   0.66403   0.66590   0.67410
 Alpha virt. eigenvalues --    0.67570   0.67829   0.67957   0.68126   0.68476
 Alpha virt. eigenvalues --    0.69124   0.69362   0.69628   0.69821   0.70084
 Alpha virt. eigenvalues --    0.70702   0.71185   0.71640   0.71925   0.72332
 Alpha virt. eigenvalues --    0.72547   0.72908   0.73376   0.73630   0.73952
 Alpha virt. eigenvalues --    0.74149   0.74585   0.74977   0.75907   0.76745
 Alpha virt. eigenvalues --    0.77405   0.78950   0.79051   0.79146   0.79678
 Alpha virt. eigenvalues --    0.79896   0.80229   0.80546   0.80672   0.81836
 Alpha virt. eigenvalues --    0.85228   0.85383   0.85624   0.86242   0.87208
 Alpha virt. eigenvalues --    0.87623   0.88397   0.88452   0.89553   0.90827
 Alpha virt. eigenvalues --    0.93407   0.94902   0.95310   0.98327   0.99543
 Alpha virt. eigenvalues --    1.00512   1.01538   1.03342   1.04119   1.04517
 Alpha virt. eigenvalues --    1.06250   1.06853   1.07960   1.08127   1.09971
 Alpha virt. eigenvalues --    1.10698   1.12332   1.14518   1.16102   1.16901
 Alpha virt. eigenvalues --    1.18749   1.21073   1.21399   1.22733   1.22787
 Alpha virt. eigenvalues --    1.23493   1.24129   1.24640   1.24822   1.25028
 Alpha virt. eigenvalues --    1.25448   1.26651   1.27874   1.28333   1.28807
 Alpha virt. eigenvalues --    1.29487   1.30026   1.30648   1.30998   1.33717
 Alpha virt. eigenvalues --    1.33947   1.35505   1.36640   1.39201   1.40120
 Alpha virt. eigenvalues --    1.41243   1.42545   1.45425   1.47689   1.50389
 Alpha virt. eigenvalues --    1.50695   1.51193   1.52066   1.52330   1.52556
 Alpha virt. eigenvalues --    1.54887   1.63273   1.64174   1.66488   1.67912
 Alpha virt. eigenvalues --    1.68770   1.69531   1.70119   1.71171   1.72595
 Alpha virt. eigenvalues --    1.73237   1.73825   1.74647   1.74808   1.75188
 Alpha virt. eigenvalues --    1.75393   1.75984   1.76153   1.76487   1.76620
 Alpha virt. eigenvalues --    1.77613   1.78653   1.79040   1.79784   1.80300
 Alpha virt. eigenvalues --    1.81423   1.82256   1.82454   1.83070   1.83933
 Alpha virt. eigenvalues --    1.84131   1.84518   1.86125   1.86397   1.87584
 Alpha virt. eigenvalues --    1.87876   1.88404   1.89641   1.90778   1.91462
 Alpha virt. eigenvalues --    1.91558   1.91855   1.92250   1.92564   1.93339
 Alpha virt. eigenvalues --    1.94602   1.95040   1.96273   1.97042   1.97657
 Alpha virt. eigenvalues --    1.97857   1.98154   1.99694   2.00891   2.01984
 Alpha virt. eigenvalues --    2.04154   2.04834   2.05611   2.06577   2.07722
 Alpha virt. eigenvalues --    2.08294   2.08985   2.10399   2.12523   2.12627
 Alpha virt. eigenvalues --    2.13719   2.14970   2.15564   2.15857   2.17249
 Alpha virt. eigenvalues --    2.19120   2.20147   2.20663   2.21469   2.22820
 Alpha virt. eigenvalues --    2.25664   2.26384   2.27866   2.28652   2.29124
 Alpha virt. eigenvalues --    2.29613   2.30602   2.31062   2.33060   2.34161
 Alpha virt. eigenvalues --    2.34347   2.35031   2.35230   2.36275   2.36765
 Alpha virt. eigenvalues --    2.42346   2.43439   2.45672   2.46286   2.47115
 Alpha virt. eigenvalues --    2.47923   2.48412   2.50129   2.50740   2.53493
 Alpha virt. eigenvalues --    2.55622   2.57480   2.58683   2.60469   2.61480
 Alpha virt. eigenvalues --    2.61772   2.63428   2.63995   2.64498   2.65149
 Alpha virt. eigenvalues --    2.66231   2.66425   2.68676   2.71613   2.72904
 Alpha virt. eigenvalues --    2.73318   2.74888   2.75390   2.78492   2.80125
 Alpha virt. eigenvalues --    2.83753   2.84331   2.86289   2.86637   2.87210
 Alpha virt. eigenvalues --    2.88203   2.88368   2.89564   2.90572   2.91792
 Alpha virt. eigenvalues --    2.92588   2.94957   2.96999   2.98153   3.00774
 Alpha virt. eigenvalues --    3.02788   3.05316   3.07998   3.09715   3.10955
 Alpha virt. eigenvalues --    3.11580   3.16019   3.17624   3.19251   3.27575
 Alpha virt. eigenvalues --    3.31567   3.42432   3.45182   3.60026   3.60421
     Molecular Orbital Coefficients:
                          90        91        92        93        94
                           O         O         O         O         O
     Eigenvalues --    -0.28109  -0.26121  -0.25194  -0.24772  -0.24027
   1 1   C  1S          0.00237   0.03522  -0.00356  -0.00826   0.00572
   2        2S         -0.00577  -0.07774   0.01089   0.02780  -0.01313
   3        3S          0.00023  -0.21622  -0.04547  -0.02363   0.03459
   4        4PX         0.00864   0.10467   0.01657  -0.03239  -0.04516
   5        4PY         0.02049   0.10891  -0.08031  -0.03204   0.13177
   6        4PZ        -0.00190  -0.03945   0.01205   0.06864   0.05873
   7        5PX         0.00246   0.04695   0.04620   0.00193  -0.05461
   8        5PY        -0.00047  -0.02215  -0.05600  -0.00282   0.02837
   9        5PZ        -0.00284  -0.05150  -0.00120  -0.00409   0.02410
  10        6D 0       -0.00030  -0.00183   0.00095  -0.00524  -0.00316
  11        6D+1       -0.00000   0.00074  -0.00252  -0.00654  -0.00675
  12        6D-1        0.00068   0.00657   0.00151   0.00527   0.00618
  13        6D+2       -0.00172  -0.01179   0.00646   0.00398  -0.01005
  14        6D-2        0.00152   0.00600  -0.00753  -0.00452   0.01384
  15 2   H  1S         -0.00461  -0.03431  -0.00592  -0.07141  -0.07431
  16        2S         -0.00210   0.03178   0.01256  -0.06985  -0.05767
  17        3PX         0.00023   0.00190  -0.00140  -0.00139   0.00000
  18        3PY         0.00041   0.00088  -0.00175  -0.00188   0.00140
  19        3PZ        -0.00024  -0.00256  -0.00007  -0.00174  -0.00193
  20 3   C  1S          0.00229   0.02983  -0.00452  -0.01723  -0.00814
  21        2S         -0.00507  -0.08180   0.00315   0.04127   0.02728
  22        3S         -0.01503  -0.03246   0.08901   0.12275  -0.06701
  23        4PX        -0.00689  -0.01789   0.07292   0.03630  -0.00148
  24        4PY         0.00345   0.14252   0.00333   0.00010  -0.09025
  25        4PZ         0.00766   0.09943   0.02835  -0.08108  -0.01810
  26        5PX        -0.00114   0.04204   0.05038   0.03482   0.01585
  27        5PY         0.00204   0.06528   0.04486   0.00395  -0.03113
  28        5PZ         0.00640   0.02358  -0.02423  -0.04247   0.04278
  29        6D 0       -0.00010   0.00535   0.00719  -0.00623  -0.00432
  30        6D+1        0.00060   0.00893   0.00505  -0.00702  -0.00115
  31        6D-1       -0.00014   0.00418   0.00673  -0.00404  -0.00301
  32        6D+2       -0.00055  -0.01125   0.00443  -0.00105   0.00825
  33        6D-2        0.00030  -0.00943  -0.00193   0.00003   0.01217
  34 4   H  1S          0.00285   0.07334   0.07758  -0.07707  -0.02147
  35        2S          0.00341   0.07173   0.04367  -0.08273  -0.04179
  36        3PX        -0.00028  -0.00324   0.00055   0.00060   0.00030
  37        3PY         0.00002   0.00392   0.00147  -0.00086  -0.00243
  38        3PZ         0.00002  -0.00028  -0.00236   0.00148   0.00027
  39 5   C  1S         -0.00082  -0.01137   0.01248  -0.00615   0.00971
  40        2S          0.00122   0.02124  -0.02817   0.01642  -0.02542
  41        3S          0.01111   0.07544  -0.11387   0.00926   0.01250
  42        4PX         0.00496   0.05760  -0.01973  -0.01586  -0.03022
  43        4PY         0.00014  -0.08309   0.03218  -0.03048   0.08736
  44        4PZ        -0.00277  -0.02213  -0.01093   0.00919  -0.00978
  45        5PX         0.00517   0.05365  -0.03909  -0.00604  -0.03061
  46        5PY        -0.00121  -0.04670   0.00998   0.01171   0.01785
  47        5PZ        -0.00161   0.01250   0.00598  -0.00455  -0.02801
  48        6D 0        0.00007   0.00205   0.00122  -0.00110  -0.00084
  49        6D+1        0.00041   0.00477   0.00106  -0.00261  -0.00074
  50        6D-1       -0.00010  -0.00344  -0.00041   0.00159   0.00224
  51        6D+2       -0.00026  -0.00027   0.00120   0.00175  -0.00081
  52        6D-2       -0.00000  -0.00385   0.00099  -0.00223   0.00331
  53 6   C  1S          0.00073   0.01322  -0.00166   0.00318  -0.00391
  54        2S         -0.00141  -0.03004   0.00259  -0.00644   0.00966
  55        3S         -0.00521  -0.06117   0.04032  -0.03592   0.03098
  56        4PX        -0.00410  -0.01788   0.00046   0.01315  -0.01352
  57        4PY        -0.00075   0.05600  -0.00414   0.02258  -0.04897
  58        4PZ         0.00217   0.00917  -0.00914   0.00955   0.01122
  59        5PX        -0.00134   0.00636  -0.00824   0.00969  -0.01983
  60        5PY         0.00143   0.04398  -0.01863   0.01953  -0.03441
  61        5PZ         0.00194   0.00047  -0.01914   0.01208   0.01206
  62        6D 0       -0.00014  -0.00143   0.00009   0.00036   0.00015
  63        6D+1        0.00023   0.00166   0.00027  -0.00079   0.00049
  64        6D-1       -0.00005  -0.00088   0.00058  -0.00022   0.00035
  65        6D+2       -0.00022  -0.00392   0.00106  -0.00004   0.00221
  66        6D-2        0.00023  -0.00281  -0.00087  -0.00134   0.00449
  67 7   C  1S          0.00122   0.00710  -0.00680  -0.00382   0.00558
  68        2S         -0.00298  -0.01620   0.01494   0.00748  -0.01362
  69        3S         -0.00799  -0.06032   0.03183   0.04386  -0.02899
  70        4PX         0.00386   0.03035   0.00473  -0.00532  -0.00616
  71        4PY         0.00960   0.02837  -0.03993  -0.01960   0.06122
  72        4PZ        -0.00027  -0.00497   0.00225  -0.00850   0.00017
  73        5PX        -0.00042   0.00411   0.01587  -0.00273  -0.01773
  74        5PY         0.00662   0.03163  -0.02778  -0.01872   0.04273
  75        5PZ        -0.00137  -0.01652   0.00249  -0.00359  -0.00331
  76        6D 0       -0.00025  -0.00156   0.00055   0.00074  -0.00110
  77        6D+1        0.00002   0.00054   0.00024  -0.00025  -0.00114
  78        6D-1        0.00023   0.00158  -0.00103  -0.00042   0.00103
  79        6D+2       -0.00074  -0.00473   0.00218   0.00051  -0.00389
  80        6D-2        0.00071   0.00139  -0.00233  -0.00178   0.00544
  81 8   C  1S         -0.00216  -0.01619   0.00997   0.00245  -0.01357
  82        2S          0.00440   0.03374  -0.02203  -0.00469   0.03213
  83        3S          0.01854   0.17313  -0.03931  -0.01840   0.07190
  84        4PX        -0.01225  -0.08833   0.02491   0.00685  -0.05680
  85        4PY        -0.01799  -0.08419   0.06605   0.02458  -0.11767
  86        4PZ        -0.00266  -0.01887   0.00488   0.00584  -0.02678
  87        5PX        -0.01154  -0.09689   0.01845   0.01166  -0.05536
  88        5PY        -0.00888  -0.06446   0.02343   0.00105  -0.06485
  89        5PZ        -0.00081  -0.01280   0.00671   0.02620  -0.01181
  90        6D 0       -0.00024  -0.00134  -0.00010  -0.00144  -0.00234
  91        6D+1        0.00030   0.00208  -0.00162  -0.00209  -0.00096
  92        6D-1        0.00023   0.00155  -0.00083  -0.00216  -0.00026
  93        6D+2       -0.00015  -0.00196  -0.00121   0.00084   0.00298
  94        6D-2        0.00065   0.00246  -0.00259  -0.00080   0.00446
  95 9   N  1S          0.00217   0.07069   0.01724  -0.00799  -0.04100
  96        2S          0.00385   0.13961   0.03540  -0.01160  -0.08865
  97        3S          0.01071   0.24160   0.05020  -0.05475  -0.08380
  98        4PX        -0.00501  -0.13926   0.04717  -0.04706   0.11047
  99        4PY         0.00268   0.25510  -0.00290   0.04762  -0.21607
 100        4PZ         0.00689   0.26816   0.20588  -0.15350  -0.10079
 101        5PX         0.00605   0.11355  -0.03937   0.03350  -0.06795
 102        5PY        -0.00108  -0.17344   0.01338  -0.04096   0.15893
 103        5PZ        -0.00464  -0.18874  -0.14993   0.11178   0.07047
 104        6D 0       -0.00008  -0.00016  -0.00642   0.00578  -0.00418
 105        6D+1        0.00041   0.00828   0.00291  -0.00311  -0.00363
 106        6D-1        0.00003  -0.00958  -0.00259  -0.00089   0.00827
 107        6D+2       -0.00002   0.00139   0.00220  -0.00085   0.00044
 108        6D-2       -0.00024   0.00053  -0.00166   0.00426  -0.00463
 109 10  C  1S          0.00102   0.02889   0.00583  -0.00638  -0.01594
 110        2S         -0.00299  -0.08159  -0.01823   0.01870   0.04455
 111        3S          0.00271   0.08754   0.04306  -0.02664  -0.05606
 112        4PX        -0.00593  -0.08290  -0.04915   0.06047   0.00234
 113        4PY         0.00230   0.04007   0.05042  -0.04346   0.01832
 114        4PZ         0.00054   0.09130  -0.01053   0.03023  -0.08981
 115        5PX        -0.00065  -0.02926  -0.03382   0.04690   0.00155
 116        5PY         0.00056  -0.05575   0.00577  -0.00941   0.08338
 117        5PZ        -0.00259  -0.01902  -0.03938   0.04305  -0.02210
 118        6D 0        0.00038   0.01215   0.00951  -0.00672  -0.00449
 119        6D+1       -0.00005  -0.00815  -0.00969   0.00646   0.00252
 120        6D-1        0.00017   0.01003  -0.00273   0.00357  -0.00910
 121        6D+2        0.00004   0.00178  -0.01206   0.01112  -0.00713
 122        6D-2       -0.00016  -0.01957  -0.00532   0.00060   0.01412
 123 11  C  1S          0.00026   0.02335   0.00892  -0.00266  -0.01543
 124        2S         -0.00060  -0.05861  -0.01982   0.00469   0.04006
 125        3S         -0.00894  -0.22043  -0.10602   0.06986   0.12346
 126        4PX        -0.00303  -0.07493   0.10982  -0.10216   0.09698
 127        4PY         0.00159  -0.05864  -0.14581   0.10267  -0.00743
 128        4PZ        -0.00309  -0.04089   0.09313  -0.07970   0.06011
 129        5PX        -0.00394  -0.11234   0.06948  -0.06055   0.11237
 130        5PY         0.00421  -0.04946  -0.11259   0.08677   0.02211
 131        5PZ         0.00259   0.03379   0.08278  -0.07271   0.03054
 132        6D 0        0.00094   0.00189   0.00017   0.00019  -0.00115
 133        6D+1        0.00047   0.00056  -0.00256   0.00255  -0.00197
 134        6D-1       -0.00053   0.00183  -0.00144   0.00197  -0.00309
 135        6D+2       -0.00045  -0.00121  -0.00475   0.00491  -0.00319
 136        6D-2        0.00045  -0.00158  -0.00142   0.00125   0.00041
 137 12  C  1S          0.00019   0.00125   0.00043  -0.00102  -0.00036
 138        2S         -0.00044  -0.00354  -0.00099   0.00182   0.00276
 139        3S          0.00583   0.03708   0.00854  -0.00008  -0.00695
 140        4PX        -0.01511  -0.04687   0.06479  -0.05909   0.05725
 141        4PY         0.01115   0.03021  -0.05468   0.05321  -0.04372
 142        4PZ        -0.00819   0.02494   0.06233  -0.05043   0.00993
 143        5PX        -0.01241  -0.02277   0.04741  -0.04203   0.01795
 144        5PY         0.00853   0.07332  -0.01009   0.01346  -0.05769
 145        5PZ         0.00111   0.09137   0.06112  -0.05212  -0.00899
 146        6D 0       -0.00009  -0.00033   0.00664  -0.00519   0.00275
 147        6D+1        0.00025  -0.00104   0.00469  -0.00431   0.00297
 148        6D-1        0.00039   0.00078  -0.00067   0.00044  -0.00029
 149        6D+2        0.00054   0.00097   0.00536  -0.00371   0.00074
 150        6D-2        0.00008  -0.00080   0.00462  -0.00396   0.00223
 151 13  C  1S         -0.00007   0.00111   0.00067   0.00025  -0.00088
 152        2S          0.00033  -0.00014  -0.00119  -0.00115   0.00071
 153        3S         -0.00360   0.02138   0.01784  -0.01428  -0.02719
 154        4PX        -0.01141  -0.00659  -0.07241   0.05471  -0.02351
 155        4PY         0.00996  -0.00245   0.05467  -0.04605   0.02494
 156        4PZ        -0.00882  -0.01498  -0.05319   0.04029  -0.01235
 157        5PX        -0.00733   0.01024  -0.04124   0.02815  -0.01723
 158        5PY         0.00601   0.01122   0.04421  -0.03694   0.00742
 159        5PZ        -0.00931  -0.03029  -0.03737   0.03132  -0.00927
 160        6D 0       -0.00006   0.00120  -0.00443   0.00371  -0.00253
 161        6D+1       -0.00027   0.00062   0.00037  -0.00039  -0.00016
 162        6D-1       -0.00023   0.00103   0.00597  -0.00483   0.00167
 163        6D+2       -0.00078  -0.00306   0.00761  -0.00681   0.00538
 164        6D-2       -0.00025  -0.00099  -0.00123   0.00085   0.00015
 165 14  C  1S          0.00017   0.00499   0.00197  -0.00116  -0.00272
 166        2S         -0.00034  -0.01067  -0.00452   0.00245   0.00591
 167        3S          0.00275  -0.01853  -0.00651   0.00146   0.02519
 168        4PX         0.00187   0.01258  -0.13672   0.11406  -0.06449
 169        4PY        -0.00199  -0.02014   0.10795  -0.09089   0.05742
 170        4PZ         0.00221   0.02152  -0.09640   0.08069  -0.05198
 171        5PX         0.00239   0.01553  -0.09201   0.07644  -0.04413
 172        5PY        -0.00050  -0.02146   0.06903  -0.05908   0.04643
 173        5PZ         0.00061  -0.00298  -0.06781   0.05959  -0.03138
 174        6D 0        0.00109   0.00182  -0.00141   0.00134  -0.00124
 175        6D+1        0.00063   0.00121  -0.00348   0.00266  -0.00165
 176        6D-1       -0.00049  -0.00027  -0.00261   0.00203  -0.00084
 177        6D+2       -0.00015   0.00079  -0.00698   0.00547  -0.00273
 178        6D-2        0.00067   0.00132  -0.00242   0.00181  -0.00135
 179 15  C  1S         -0.00005   0.00164   0.00143  -0.00046  -0.00099
 180        2S          0.00013  -0.00406  -0.00353   0.00103   0.00213
 181        3S         -0.00120   0.02803   0.00857  -0.00783  -0.01848
 182        4PX         0.01573   0.02600  -0.08667   0.06769  -0.03916
 183        4PY        -0.01252  -0.03582   0.06017  -0.05153   0.03932
 184        4PZ         0.01115   0.02318  -0.05893   0.04768  -0.03112
 185        5PX         0.01038   0.02529  -0.05909   0.04733  -0.03329
 186        5PY        -0.00918  -0.03031   0.04594  -0.03755   0.03055
 187        5PZ         0.00791   0.00393  -0.04308   0.03595  -0.01544
 188        6D 0       -0.00010  -0.00118   0.00637  -0.00538   0.00342
 189        6D+1        0.00020  -0.00098   0.00497  -0.00441   0.00314
 190        6D-1        0.00035  -0.00004  -0.00102   0.00055   0.00023
 191        6D+2        0.00065   0.00066   0.00441  -0.00385   0.00209
 192        6D-2        0.00009   0.00006   0.00497  -0.00411   0.00213
 193 16  C  1S          0.00027   0.00224  -0.00053   0.00000  -0.00114
 194        2S         -0.00075  -0.00825  -0.00033   0.00080   0.00428
 195        3S         -0.00062  -0.04333   0.00162   0.00451   0.02541
 196        4PX         0.01208   0.01414   0.07364  -0.06149   0.03110
 197        4PY        -0.01077  -0.00681  -0.05136   0.04750  -0.02797
 198        4PZ         0.00975  -0.00582   0.04037  -0.03991   0.03396
 199        5PX         0.00810   0.00231   0.05938  -0.04675   0.02644
 200        5PY        -0.00837   0.00132  -0.03155   0.03151  -0.02902
 201        5PZ         0.00662   0.01033   0.02687  -0.03092   0.01471
 202        6D 0       -0.00002   0.00249  -0.00331   0.00334  -0.00321
 203        6D+1       -0.00035  -0.00111   0.00051  -0.00058   0.00064
 204        6D-1       -0.00033   0.00026   0.00629  -0.00485   0.00196
 205        6D+2       -0.00091  -0.00299   0.00906  -0.00731   0.00475
 206        6D-2       -0.00026  -0.00211  -0.00158   0.00097   0.00052
 207 17  Cl 1S          0.00001  -0.00004  -0.00002  -0.00002   0.00002
 208        2S         -0.00004   0.00028   0.00018   0.00013  -0.00017
 209        3S          0.00009  -0.00082  -0.00046  -0.00025   0.00064
 210        4S          0.00008  -0.00074  -0.00104   0.00107  -0.00030
 211        5PX        -0.00133  -0.00812   0.06076  -0.04884   0.02627
 212        5PY         0.00137   0.00928  -0.04891   0.03889  -0.02267
 213        5PZ        -0.00127  -0.00883   0.04287  -0.03434   0.01982
 214        6PX        -0.00229  -0.01412   0.10549  -0.08486   0.04571
 215        6PY         0.00238   0.01606  -0.08498   0.06755  -0.03937
 216        6PZ        -0.00219  -0.01529   0.07445  -0.05966   0.03443
 217        7PX        -0.00336  -0.02178   0.15740  -0.12697   0.06934
 218        7PY         0.00345   0.02349  -0.12737   0.10202  -0.05972
 219        7PZ        -0.00313  -0.02216   0.11132  -0.08976   0.05227
[...]
 0.00000087,0.04659167,-0.06022256,0.04267214,-0.00021597,0.00012584,-0
 .00024651,-0.00002512,-0.00009265,-0.00001659,0.00004685,-0.00005089,0
 .00001711,-0.00000327,0.00001001,-0.00000363,-0.00000870,0.00000087,-0
 .00001381,0.00000676,-0.00000004,0.00000706,-0.00002334,0.00001239,-0.
 00001635,0.00004784,0.00005783,0.00000891,0.00005980,0.00007650,-0.000
 03697,-0.00004835,0.00002111,0.00001531,0.00002419,-0.00001461,-0.0000
 0210,-0.00002055,0.00002804,0.00004323,0.00002588,0.00000236,-0.000020
 75,-0.00003144,0.00003638,-0.00000153,0.00001052,-0.00000935,-0.000001
 69,-0.00000522,0.00000263,0.00000046,0.00002318,-0.00003013,0.00000226
 ,0.00119873,-0.00089104,0.00055888,-0.00343483,-0.00048831,0.00160454,
 -0.00148200,-0.00011830,-0.00483026,-0.20670271,-0.02621842,-0.1477333
 9,-0.00580098,0.00039407,-0.00979968,0.00312477,-0.00353923,-0.0026162
 8,-0.00003095,0.00003425,0.00085026,0.00292461,0.00010371,-0.00310517,
 -0.00037026,-0.00019281,-0.00024955,0.00000106,0.00000129,0.00000158,0
 .00000073,-0.00000299,0.00000224,-0.00000274,-0.00000026,0.00000057,-0
 .00000007,0.00000683,-0.00000019,0.00000317,0.00001552,-0.00000017,0.0
 0000696,-0.00000178,0.00000609,-0.00001020,0.00000095,0.00001312,-0.00
 001562,0.00001091,-0.00001110,0.00001247,0.00000304,-0.00002549,-0.000
 04751,-0.00002016,-0.00002541,-0.00000923,0.00000376,-0.00000142,0.000
 00165,-0.00000087,-0.00000112,0.00000053,0.00000066,-0.00000358,0.0000
 1763,0.00025043,-0.00003935,0.21253153,-0.00064107,-0.00015352,-0.0003
 2464,-0.00001814,-0.00006405,0.00005920,-0.00014222,0.00002260,0.00009
 102,0.00002241,-0.00000925,-0.00000780,0.00004500,-0.00002981,-0.00001
 885,-0.00001644,-0.00000309,0.00002098,-0.00007423,0.00002855,-0.00002
 153,0.00014596,0.00017935,0.00005893,0.00017036,-0.00005524,-0.0000637
 7,-0.00010563,0.00010615,0.00000426,0.00000726,-0.00001223,-0.00000191
 ,0.00000222,-0.00001397,-0.00000485,0.00000191,-0.00000503,-0.00002436
 ,-0.00000129,0.00001318,-0.00001410,0.00000094,-0.00001830,0.00002189,
 -0.00001262,-0.00000958,0.00001882,0.00001883,-0.00003462,0.00000875,0
 .00048167,0.00022758,-0.00084942,0.00207250,0.00074643,-0.00029097,0.0
 1700626,0.00669471,0.01446001,-0.02549972,-0.05894113,-0.01732401,-0.0
 2076162,0.00128806,-0.01708557,-0.00333207,-0.00259704,0.00183924,0.00
 010628,-0.00096475,0.00007645,-0.00022262,-0.00305831,0.00393352,-0.00
 096344,-0.00070590,-0.00059004,0.00002077,0.00001630,-0.00000798,-0.00
 000882,0.00000220,0.00000127,-0.00000221,-0.00000453,-0.00000684,0.000
 01588,0.00000649,-0.00000266,0.00001729,0.00004477,-0.00000079,0.00000
 591,-0.00000224,0.00000196,0.00000083,-0.00000559,-0.00001750,0.000013
 72,-0.00002230,-0.00000298,0.00001367,-0.00000321,-0.00001728,-0.00001
 416,0.00004353,-0.00000436,0.00002031,-0.00000422,0.00001009,0.0000034
 0,-0.00000185,0.00000090,-0.00000462,0.00000391,0.00000538,-0.00022595
 ,0.00017425,0.00012166,0.02937949,0.05652972,0.00052685,-0.00002008,0.
 00042603,0.00001846,0.00006408,-0.00002360,0.00000777,0.00003971,-0.00
 003606,0.00000083,0.00000080,-0.00000750,-0.00000237,0.00001054,0.0000
 2359,-0.00000196,-0.00000009,-0.00001595,0.00005616,-0.00003835,0.0000
 3075,-0.00014206,-0.00022294,-0.00005131,-0.00011565,-0.00008139,-0.00
 002554,0.00008452,-0.00003394,-0.00001348,-0.00001274,0.00000370,-0.00
 001529,-0.00001236,-0.00000666,-0.00001467,-0.00001532,-0.00001498,0.0
 0001479,0.00002814,-0.00003786,0.00000792,-0.00000638,0.00001326,-0.00
 001170,0.00000948,0.00000131,-0.00001745,-0.00002467,0.00003465,-0.000
 00656,-0.00010542,-0.00015192,0.00015127,0.00115076,-0.00155742,-0.001
 63629,-0.01305319,-0.00491863,-0.00542233,-0.14957443,-0.01674984,-0.1
 7523071,0.00022228,0.00257820,0.00392764,-0.00252397,0.00150712,0.0044
 8366,0.00090505,0.00015750,-0.00028943,-0.00236879,0.00426150,0.001789
 58,0.00015882,0.00014055,-0.00000564,-0.00000750,-0.00000629,-0.000001
 11,-0.00000184,-0.00000222,-0.00000565,0.00000247,0.00000260,0.0000005
 5,-0.00000506,-0.00000943,0.00000164,-0.00001088,-0.00003615,-0.000003
 25,-0.00000847,-0.00000004,-0.00000937,-0.00000949,0.00001232,-0.00000
 535,0.00000915,0.00000889,-0.00000315,-0.00000375,0.00000872,0.0000342
 2,0.00002822,0.00000945,0.00004635,0.00000169,0.00000518,0.00000550,-0
 .00000069,0.00000242,0.00000079,0.00000513,-0.00000039,0.00000047,0.00
 001811,-0.00008015,0.00009268,0.16296991,0.01658017,0.17437499,0.00004
 626,-0.00000504,-0.00000649,-0.00000277,-0.00001349,-0.00000476,0.0000
 4770,-0.00002704,-0.00001833,-0.00000477,0.00000557,-0.00000246,-0.000
 01503,0.00000649,0.00000525,0.00000549,-0.00000147,-0.00000261,0.00000
 237,0.00000495,-0.00000047,-0.00001645,-0.00001808,-0.00000637,-0.0000
 2899,0.00003593,0.00000528,0.00001415,-0.00003236,0.00000869,0.0000046
 0,0.00000038,-0.00000019,-0.00000324,0.00001070,0.00000829,0.00001097,
 -0.00000047,0.00000604,-0.00001593,0.00001483,0.00000605,0.00000323,0.
 00000341,-0.00000710,0.00000322,0.00000343,-0.00000389,0.00000470,-0.0
 0000013,-0.00000260,-0.00018459,0.00003644,-0.00002765,0.00056138,-0.0
 0043576,0.00037204,0.00147243,-0.00411301,-0.00329793,0.00798357,-0.01
 321793,0.00951996,-0.06865181,0.05723195,-0.05460347,-0.00261903,0.018
 44886,-0.01334252,-0.00115652,-0.00270234,-0.00481800,-0.00070780,-0.0
 0031985,0.00030561,-0.00024276,0.00115482,0.00172152,-0.00000522,-0.00
 000466,0.00000127,0.00000099,-0.00000160,-0.00000114,-0.00000044,0.000
 00104,-0.00000004,-0.00000380,0.00000193,0.00000118,-0.00000281,-0.000
 00190,0.00000048,-0.00000209,-0.00000309,-0.00000085,0.00000338,0.0000
 0324,-0.00000915,-0.00000442,0.00000464,0.00001013,0.00000002,0.000003
 71,-0.00000488,-0.00000455,-0.00001983,-0.00000247,-0.00001501,0.00000
 129,-0.00000718,-0.00000099,-0.00000040,-0.00000116,0.00000071,-0.0000
 0056,-0.00000329,-0.00014608,-0.00023002,0.00006056,-0.00134762,0.0013
 3972,0.00225255,0.06538039,0.00003358,0.00006023,-0.00002058,-0.000021
 23,-0.00004500,-0.00000980,0.00006427,-0.00004939,-0.00002722,-0.00000
 292,0.00000957,-0.00000442,-0.00002337,0.00001590,0.00001386,0.0000030
 7,-0.00000149,-0.00000777,0.00000856,0.00001127,0.00000401,-0.00003453
 ,-0.00003472,-0.00000814,-0.00004504,0.00002376,0.00000369,0.00002634,
 -0.00002921,0.00000015,0.00000125,0.00000049,-0.00000116,-0.00000838,0
 .00000792,0.00000768,0.00000293,-0.00000122,0.00000406,-0.00000516,0.0
 0000250,0.00000442,0.00000138,0.00000389,-0.00000835,0.00000285,0.0000
 0394,-0.00000684,-0.00000252,0.00000578,-0.00000289,-0.00026179,0.0000
 9486,-0.00008218,0.00104051,-0.00026285,0.00085291,-0.00472000,-0.0023
 4930,0.00057175,0.00880899,-0.01338677,0.01570562,0.05781235,-0.226996
 87,0.13740464,-0.00373678,0.00433905,-0.00395499,-0.00187770,0.0016186
 4,0.00024167,-0.00056557,-0.00009762,-0.00087254,0.00061432,0.00064038
 ,-0.00100026,-0.00000955,-0.00000943,0.00000100,0.00000073,-0.00000275
 ,-0.00000281,0.00000138,0.00000242,-0.00000020,-0.00000665,-0.00000266
 ,0.00000175,-0.00000213,-0.00001044,0.00000251,-0.00000710,-0.00000420
 ,-0.00000360,0.00000674,0.00000755,-0.00001660,-0.00000491,0.00000917,
 0.00001851,-0.00000008,0.00000290,0.00000199,-0.00000144,-0.00001356,0
 .00000347,-0.00000761,0.00000378,-0.00000165,-0.00000030,0.00000094,-0
 .00000032,0.00000250,-0.00000071,-0.00000218,-0.00009420,-0.00030484,-
 0.00005816,0.00123985,0.00047507,-0.00114816,-0.05826690,0.23601434,-0
 .00004900,0.00000957,-0.00000235,-0.00000734,-0.00000306,0.00000162,-0
 .00002565,0.00000653,0.00001476,0.00000291,-0.00000096,-0.00000217,0.0
 0000743,-0.00000185,-0.00000120,-0.00000348,-0.00000095,0.00000089,-0.
 00000533,0.00000284,0.00000008,0.00000904,0.00000446,0.00000201,0.0000
 1446,-0.00001765,-0.00001436,-0.00000893,0.00001623,-0.00000061,0.0000
 0125,-0.00000368,-0.00000264,-0.00000654,0.00000159,0.00000086,-0.0000
 0069,-0.00000837,-0.00000137,0.00000105,0.00000025,-0.00000143,0.00000
 040,-0.00000324,-0.00000102,-0.00000192,-0.00000117,-0.00000220,0.0000
 0137,-0.00000450,-0.00000034,0.00009376,0.00006564,-0.00008064,0.00003
 612,0.00001272,0.00028392,-0.00308643,0.00028148,0.00479184,-0.0001726
 8,-0.00231392,0.00511579,-0.05587362,0.13592060,-0.14818483,-0.0025455
 8,0.01557386,-0.00632856,-0.00509819,-0.00005478,0.00117572,-0.0000118
 6,-0.00111858,-0.00048322,0.00191391,-0.00051883,-0.00082218,0.0000028
 3,0.00000198,-0.00000101,-0.00000140,-0.00000012,-0.00000055,0.0000000
 5,-0.00000020,-0.00000105,0.00000164,-0.00000107,0.00000003,0.00000218
 ,0.00000155,-0.00000005,-0.00000054,-0.00000051,-0.00000107,-0.0000008
 5,0.00000094,-0.00000071,0.00000113,-0.00000092,-0.00000022,0.00000214
 ,0.00000122,0.00000126,-0.00000033,0.00000356,0.00000595,0.00000207,0.
 00000280,0.00000577,0.00000232,0.00000105,0.00000049,0.00000123,0.0000
 0181,0.00000096,0.00007903,-0.00001122,-0.00010553,0.00248387,-0.00120
 519,-0.00186693,0.06216191,-0.14732059,0.14716356,-0.00001749,0.000099
 00,0.00004506,-0.00000583,-0.00002273,-0.00000465,0.00002520,-0.000049
 37,-0.00003686,-0.00000032,0.00000311,0.00000324,-0.00002059,0.0000111
 5,0.00001396,0.00000106,0.00000114,-0.00000790,0.00000858,0.00000386,0
 .00000461,-0.00001663,-0.00001383,-0.00001163,-0.00002723,0.00000676,0
 .00001389,0.00002002,-0.00001055,-0.00000829,-0.00000339,0.00000256,0.
 00000139,0.00000107,-0.00000118,-0.00000155,-0.00000340,0.00000265,0.0
 0000320,0.00000461,-0.00000588,0.00000004,-0.00000102,0.00000342,-0.00
 000044,0.00000258,0.00000303,-0.00000250,-0.00000512,0.00000739,-0.000
 00030,-0.00020855,-0.00017327,0.00004327,-0.00006991,0.00039399,-0.000
 52625,0.00310572,-0.00395354,-0.00204411,0.00007396,0.00032149,0.00074
 212,0.00292031,0.00065428,-0.00267601,-0.00340724,-0.00443645,-0.00365
 219,-0.22770801,-0.02768979,-0.15179739,-0.00627498,0.00087775,-0.0086
 3328,-0.00047748,0.00043576,0.00184179,-0.00000867,-0.00000798,0.00000
 017,0.00000195,-0.00000062,0.00000025,0.00000123,0.00000067,0.00000283
 ,-0.00000349,-0.00000199,0.00000100,-0.00000159,-0.00000725,0.00000035
 ,-0.00000156,0.,0.00000066,0.00000321,0.00000202,-0.00000119,-0.000002
 00,0.00000640,0.00000774,-0.00000276,-0.00000261,0.00000472,0.00000244
 ,-0.00000129,0.00000129,0.00000043,-0.00000048,-0.00000081,-0.00000190
 ,0.00000023,-0.00000045,-0.00000051,-0.00000232,-0.00000048,0.00001167
 ,-0.00002379,0.00001202,-0.00034376,0.00014599,0.00029199,-0.00009543,
 -0.00016304,-0.00026424,0.23366287,-0.00001545,0.00005245,0.00010455,-
 0.00000333,-0.00001623,-0.00000941,0.00003001,-0.00006183,-0.00004069,
 -0.00000125,0.00000541,0.00000273,-0.00002396,0.00001699,0.00001891,-0
 .00000047,0.00000245,-0.00000889,0.00001758,-0.00000055,0.00000774,-0.
 00004654,-0.00003005,-0.00001428,-0.00002819,0.00000494,0.00000628,0.0
 0001990,-0.00001076,-0.00000630,-0.00000311,0.00000097,0.00000048,-0.0
 0000170,0.00000036,0.00000044,-0.00000247,0.00000040,0.00000310,0.0000
 0306,-0.00000497,0.00000133,-0.00000088,0.00000229,-0.00000290,0.00000
 154,0.00000237,-0.00000428,-0.00000455,0.00000634,-0.00000122,-0.00047
 363,-0.00045840,-0.00016101,-0.00058415,0.00077573,-0.00071146,-0.0032
 9835,-0.00383759,0.00173871,0.00011468,-0.00117957,0.00017544,-0.00012
 834,-0.00319032,0.00366473,0.01849044,0.00516516,0.01482176,-0.0292241
 4,-0.05706874,-0.01631460,-0.02060833,0.00248224,-0.01705513,0.0009785
 3,0.00090640,-0.00075159,-0.00000896,-0.00001092,-0.00000034,0.0000017
 8,-0.00000130,-0.00000041,0.00000131,0.00000124,0.00000312,-0.00000311
 ,-0.00000364,0.00000085,-0.00000302,-0.00001617,0.00000066,-0.00000222
 ,0.00000066,0.,0.00000159,0.00000273,0.00000178,0.00000146,0.00000784,
 0.00000268,-0.00000171,-0.00000028,0.00000591,0.00000198,-0.00000277,0
 .00000236,-0.00000059,0.00000085,-0.00000015,-0.00000026,0.00000093,0.
 00000005,0.00000112,-0.00000063,-0.00000030,0.00000425,-0.00007738,0.0
 0002989,0.00011705,-0.00004000,-0.00019808,0.00092713,0.00037537,0.000
 81050,0.03251925,0.05563827,0.00003751,-0.00001509,0.00000629,-0.00000
 186,-0.00000418,-0.00000222,0.00002199,-0.00000390,-0.00000100,-0.0000
 0201,0.00000255,-0.00000108,-0.00000231,0.00000510,0.00000227,0.000000
 50,0.00000088,0.00000023,0.00000805,-0.00000140,0.00000149,-0.00002035
 ,-0.00001241,0.00000660,-0.00001297,0.00000174,-0.00000146,0.00000792,
 -0.00000660,-0.00000037,-0.00000142,0.00000181,-0.00000096,-0.00000107
 ,-0.00000089,0.00000023,-0.00000275,0.00000063,0.00000123,0.00000519,-
 0.00000744,0.00000137,-0.00000103,0.00000166,-0.00000247,0.00000032,-0
 .00000033,-0.00000162,-0.00000436,0.00000594,-0.00000130,-0.00007530,-
 0.00006845,-0.00016435,-0.00003292,0.00020619,0.00021600,-0.00251325,0
 .00158822,0.00457882,0.00091039,0.00005801,-0.00022704,-0.00245674,0.0
 0414322,0.00191261,-0.01312636,-0.00454006,-0.00628290,-0.15114121,-0.
 01529853,-0.15844223,0.00066027,0.00187650,0.00330278,0.00156484,-0.00
 125693,-0.00097115,-0.00000066,-0.00000185,0.00000025,-0.00000006,-0.0
 0000055,-0.00000124,0.00000049,0.00000087,-0.00000095,-0.00000117,-0.0
 0000178,-0.00000027,-0.00000112,-0.00000585,0.00000140,-0.00000215,0.0
 0000014,-0.00000180,0.00000110,0.00000078,-0.00000218,0.00000133,0.000
 00145,-0.00000132,0.00000016,0.00000118,0.00000192,0.00000144,0.000000
 04,0.00000157,0.00000087,0.00000047,0.00000044,0.00000047,0.00000036,0
 .00000055,0.00000140,0.00000054,0.00000008,-0.00001960,-0.00002561,0.0
 0001593,0.00033098,-0.00021045,-0.00040371,-0.00066457,-0.00013787,-0.
 00023594,0.16430301,0.01492522,0.15873146,-0.00001410,-0.00006969,-0.0
 0017619,-0.00000654,-0.00000403,0.00001596,-0.00008572,0.00007992,-0.0
 0000002,0.00000198,-0.00001482,0.00002547,0.00003176,-0.00002539,-0.00
 001491,-0.00000430,0.00000294,0.00000305,-0.00000492,-0.00002696,0.000
 01346,0.00000137,0.00005420,-0.00004472,0.00006595,-0.00002168,0.00000
 043,-0.00004301,0.00004211,0.00000490,0.00000220,-0.00000730,0.0000022
 9,0.00000943,-0.00000304,-0.00000828,0.00000534,-0.00000393,-0.0000059
 4,-0.00001127,0.00001897,-0.00000614,0.00000128,-0.00000823,0.00001176
 ,-0.00000383,-0.00000364,0.00000951,0.00001438,-0.00002197,0.00000503,
 0.00000003,-0.00074843,-0.00009403,-0.00107369,0.00294308,0.00186464,-
 0.00146971,0.01857782,-0.01225979,-0.00127192,-0.00256709,-0.00526467,
 -0.00088735,-0.00058777,0.00031959,0.00202155,-0.00367958,-0.00299220,
 0.00792759,-0.01295752,0.00872172,-0.07487132,0.06077714,-0.05656147,-
 0.00006488,-0.00079127,0.00025203,0.00001234,0.00001357,-0.00000028,0.
 00000278,0.00000715,0.00000869,-0.00000326,-0.00000682,0.00000426,0.00
 001058,0.00000660,0.00000063,0.00000043,0.00001330,-0.00000460,0.00001
 658,0.00001212,0.00001054,-0.00000736,-0.00003480,0.00004111,0.0000086
 2,-0.00000133,-0.00001274,-0.00000088,-0.00000385,-0.00000296,-0.00000
 022,0.00000912,-0.00000546,0.00000316,-0.00000269,0.00000137,0.0000006
 2,-0.00000135,-0.00000058,-0.00000508,0.00000073,0.00000209,-0.0000273
 4,-0.00073355,-0.00003203,-0.00008835,0.00098828,-0.00074134,-0.000267
 43,0.00019731,0.00034248,-0.00113807,0.00123603,0.00222700,0.07121257,
 -0.00021327,-0.00003129,0.00005648,0.00002173,0.00002512,0.00000943,-0
 .00003981,-0.00000654,0.00004615,0.00000338,-0.00000034,-0.00000888,0.
 00001083,-0.00000635,-0.00001167,-0.00000295,0.00000260,0.00001293,-0.
 00001790,-0.00000319,-0.00000582,0.00004587,0.00004483,0.00002308,0.00
 004849,-0.00000884,-0.00001725,-0.00002357,0.00001156,0.00000866,0.000
 00543,-0.00000131,-0.00000088,-0.00000016,0.00000070,0.00000160,0.0000
 0427,-0.00000187,-0.00000355,-0.00000507,0.00000665,-0.00000007,0.0000
 0136,-0.00000336,0.00000107,-0.00000267,-0.00000390,0.00000397,0.00000
 592,-0.00000777,0.00000040,0.00118153,0.00002422,0.00021544,-0.0015850
 1,0.00023677,-0.00193914,-0.00170687,0.00549846,-0.00226474,-0.0015402
 7,0.00148706,0.00044544,-0.00041736,0.00003910,-0.00070920,-0.00408142
 ,-0.00169433,0.00026601,0.00945309,-0.01473476,0.01650485,0.06004425,-
 0.22389977,0.12917095,-0.00004117,-0.00119446,0.00043611,0.00000882,0.
 00000436,-0.00000239,-0.00000390,-0.00000157,-0.00000087,-0.00000190,-
 0.00000116,-0.00000317,0.00000726,0.00000271,-0.00000208,0.00000431,0.
 00001217,-0.00000174,0.00000576,0.00000270,0.00000140,-0.00001474,-0.0
 0000445,0.00000995,0.00000888,-0.00000770,-0.00002078,0.00000408,0.000
 00231,-0.00000941,-0.00000282,0.00000157,-0.00000210,-0.00000100,-0.00
 000006,0.00000013,0.00000152,-0.00000080,0.00000034,0.00000028,0.00000
 240,0.00000027,0.00051087,0.00003186,0.00030054,-0.00026393,0.00015692
 ,-0.00012770,0.00017549,-0.00012670,-0.00012983,0.00106605,0.00055970,
 -0.00122331,-0.06265364,0.23358675,-0.00014463,-0.00002087,0.00014204,
 0.00002214,0.00003244,0.00000272,-0.00004897,-0.00002438,0.00002998,0.
 00000334,-0.00000263,-0.00000382,0.00000242,0.00000036,-0.00000309,-0.
 00000541,0.00001188,0.00001548,0.00000443,-0.00002200,-0.00000967,-0.0
 0003098,0.00004230,0.00002897,0.00004508,-0.00002828,-0.00001595,-0.00
 001588,0.00001759,0.00000170,0.00000111,-0.00000151,-0.00000092,0.0000
 0271,-0.00000333,-0.00000350,-0.00000023,-0.00000229,-0.00000280,0.000
 00027,0.00000140,-0.00000154,-0.00000034,-0.00000340,0.00000292,-0.000
 00241,-0.00000426,0.00000344,0.00000301,-0.00000573,0.00000109,0.00051
 826,-0.00038457,0.00020192,0.00246732,0.00124191,-0.00177058,-0.003756
 63,0.01491630,-0.00570217,-0.00553333,0.00013560,0.00159536,0.00024050
 ,-0.00071957,-0.00048546,-0.00309816,0.00068597,0.00460037,-0.00063163
 ,-0.00326920,0.00482515,-0.05698405,0.13023945,-0.14051043,-0.00009003
 ,-0.00025181,0.00007902,0.00000717,-0.00000086,-0.00000395,-0.00000336
 ,-0.00000039,-0.00000011,-0.00000087,-0.00000215,-0.00000278,0.0000112
 3,0.00000036,-0.00000385,0.00000093,-0.00000014,0.00000011,0.00000588,
 0.00000625,0.00000241,-0.00001672,-0.00001093,0.00001975,0.00001480,-0
 .00001459,-0.00004544,0.00000217,0.00000112,-0.00000171,0.00000160,0.0
 0000679,-0.00000011,0.00000308,-0.00000046,0.00000179,0.00000153,-0.00
 000021,0.00000058,-0.00000004,0.00000206,0.00000154,0.00005403,-0.0011
 2834,0.00026752,-0.00011430,0.00078336,-0.00029039,0.00039274,-0.00014
 439,-0.00042333,0.00233190,-0.00104820,-0.00203597,0.06434031,-0.14103
 062,0.13949371\\0.00938342,0.00959401,0.00565340,-0.00112760,-0.001177
 15,0.00060530,-0.00204893,0.00677499,-0.00367633,0.00026717,-0.0015434
 0,0.00059373,0.00000389,-0.00036481,0.00165431,-0.00024833,-0.00036256
 ,-0.00082400,0.00149439,-0.00052703,0.00102475,-0.00265541,-0.00332548
 ,-0.00125387,-0.00912037,0.00064026,-0.00385761,0.01565015,-0.00923552
 ,-0.00089536,-0.00206892,0.00148916,-0.00251594,0.00029498,0.00015187,
 -0.00147527,-0.00068134,0.00017554,0.00047726,0.00008600,-0.00073974,0
 .00070963,-0.00036793,0.00122933,-0.00101291,0.00079246,0.00075529,-0.
 00111223,-0.00090665,0.00146024,-0.00033623,0.00427406,0.00911827,-0.0
 0520632,-0.01808565,-0.01708649,-0.00248050,0.00129395,0.00313078,-0.0
 0050743,-0.00043636,-0.00079434,-0.00137364,0.00066274,0.00060660,0.00
 058884,0.00021129,-0.00134956,0.00071633,0.00036917,0.00189489,-0.0009
 0250,-0.00158605,0.00123479,-0.00063697,0.00106585,0.00210492,0.000059
 17,-0.00035747,-0.00010104,-0.00001791,-0.00003094,-0.00007779,-0.0001
 5378,0.00007286,0.00010835,0.00001913,-0.00014527,-0.00046024,0.000045
 00,-0.00026457,-0.00085621,-0.00009121,-0.00025670,-0.00013916,-0.0002
 3214,0.00013038,0.00009574,-0.00014538,0.00043265,-0.00001135,0.000370
 77,-0.00207970,0.00080361,0.00434433,0.00090872,-0.00126747,0.00479211
 ,-0.00065786,0.00048074,-0.00001743,-0.00023047,0.00011749,-0.00005940
 ,0.00018572,-0.00035222,-0.00016591,0.00627980,-0.00094004,0.00272001,
 -0.00100082,-0.00172101,0.00498673,0.00057617,0.00056667,-0.00010663,0
 .00025885,0.00022386,-0.00002785,-0.00033735,-0.00032478,-0.00027604\\
 \@

 Writing a WFNX file to "08_lig.wfx"


 CONFIDENCE: THAT QUIET ASSURED FEELING YOU HAVE
 JUST BEFORE YOU FALL FLAT ON YOUR FACE.
 Job cpu time:       0 days  3 hours 59 minutes 24.4 seconds.
 Elapsed time:       0 days  0 hours 29 minutes 56.5 seconds.
 File lengths (MBytes):  RWF=    998 Int=      0 D2E=      0 Chk=     15 Scr=      1
 Normal termination of Gaussian 16 at Thu Dec  8 09:35:29 2022.
