 Entering Gaussian System, Link 0=g16
 Initial command:
 /software/gaussian/G16-A.03/avx/g16/l1.exe "/scratch/lcmd/1380813.slurm/Gau-80860.inp" -scrdir="/scratch/lcmd/1380813.slurm/"
 Entering Link 1 = /software/gaussian/G16-A.03/avx/g16/l1.exe PID=     80862.
  
 Copyright (c) 1988,1990,1992,1993,1995,1998,2003,2009,2016,
            Gaussian, Inc.  All Rights Reserved.
  
 This is part of the Gaussian(R) 16 program.  It is based on
 the Gaussian(R) 09 system (copyright 2009, Gaussian, Inc.),
 the Gaussian(R) 03 system (copyright 2003, Gaussian, Inc.),
 the Gaussian(R) 98 system (copyright 1998, Gaussian, Inc.),
 the Gaussian(R) 94 system (copyright 1995, Gaussian, Inc.),
 the Gaussian 92(TM) system (copyright 1992, Gaussian, Inc.),
 the Gaussian 90(TM) system (copyright 1990, Gaussian, Inc.),
 the Gaussian 88(TM) system (copyright 1988, Gaussian, Inc.),
 the Gaussian 86(TM) system (copyright 1986, Carnegie Mellon
 University), and the Gaussian 82(TM) system (copyright 1983,
 Carnegie Mellon University). Gaussian is a federally registered
 trademark of Gaussian, Inc.
  
 This software contains proprietary and confidential information,
 including trade secrets, belonging to Gaussian, Inc.
  
 This software is provided under written license and may be
 used, copied, transmitted, or stored only in accord with that
 written license.
  
 The following legend is applicable only to US Government
 contracts under FAR:
  
                    RESTRICTED RIGHTS LEGEND
  
 Use, reproduction and disclosure by the US Government is
 subject to restrictions as set forth in subparagraphs (a)
 and (c) of the Commercial Computer Software - Restricted
 Rights clause in FAR 52.227-19.
  
 Gaussian, Inc.
 340 Quinnipiac St., Bldg. 40, Wallingford CT 06492
  
  
 ---------------------------------------------------------------
 Warning -- This program may not be used in any manner that
 competes with the business of Gaussian, Inc. or will provide
 assistance to any competitor of Gaussian, Inc.  The licensee
 of this program is prohibited from giving any competitor of
 Gaussian, Inc. access to this program.  By using this program,
 the user acknowledges that Gaussian, Inc. is engaged in the
 business of creating and licensing software in the field of
 computational chemistry and represents and warrants to the
 licensee that it is not a competitor of Gaussian, Inc. and that
 it will not use this program in any manner prohibited above.
 ---------------------------------------------------------------
  

 Cite this work as:
 Gaussian 16, Revision A.03,
 M. J. Frisch, G. W. Trucks, H. B. Schlegel, G. E. Scuseria, 
 M. A. Robb, J. R. Cheeseman, G. Scalmani, V. Barone, 
 G. A. Petersson, H. Nakatsuji, X. Li, M. Caricato, A. V. Marenich, 
 J. Bloino, B. G. Janesko, R. Gomperts, B. Mennucci, H. P. Hratchian, 
 J. V. Ortiz, A. F. Izmaylov, J. L. Sonnenberg, D. Williams-Young, 
 F. Ding, F. Lipparini, F. Egidi, J. Goings, B. Peng, A. Petrone, 
 T. Henderson, D. Ranasinghe, V. G. Zakrzewski, J. Gao, N. Rega, 
 G. Zheng, W. Liang, M. Hada, M. Ehara, K. Toyota, R. Fukuda, 
 J. Hasegawa, M. Ishida, T. Nakajima, Y. Honda, O. Kitao, H. Nakai, 
 T. Vreven, K. Throssell, J. A. Montgomery, Jr., J. E. Peralta, 
 F. Ogliaro, M. J. Bearpark, J. J. Heyd, E. N. Brothers, K. N. Kudin, 
 V. N. Staroverov, T. A. Keith, R. Kobayashi, J. Normand, 
 K. Raghavachari, A. P. Rendell, J. C. Burant, S. S. Iyengar, 
 J. Tomasi, M. Cossi, J. M. Millam, M. Klene, C. Adamo, R. Cammi, 
 J. W. Ochterski, R. L. Martin, K. Morokuma, O. Farkas, 
 J. B. Foresman, and D. J. Fox, Gaussian, Inc., Wallingford CT, 2016.
 
 ******************************************
 Gaussian 16:  ES64L-G16RevA.03 25-Dec-2016
                 8-Dec-2022 
 ******************************************
 %nprocs=8
 Will use up to    8 processors via shared memory.
 %mem=32000MB
 %chk=09_lig.chk
 ----------------------------------------------------------------------
 #p pop=(regular,nbo,savenbos) freq=noraman def2svp empiricaldispersion
 =gd3bj output=wfx pbe1pbe
 ----------------------------------------------------------------------
 1/10=4,30=1,38=1/1,3;
 2/12=2,17=6,18=5,40=1/2;
 3/5=43,7=101,11=2,25=1,30=1,71=2,74=-13,124=41,140=1/1,2,3;
 4//1;
 5/5=2,38=5,98=1/2;
 8/6=4,10=90,11=11/1;
 11/6=1,8=1,9=11,15=111,16=1/1,2,10;
 10/6=1/2;
 6/28=1,40=1,73=1/1,7;
 7/8=1,10=1,25=1/1,2,3,16;
 1/10=4,30=1/3;
 99/6=200/99;
 Leave Link    1 at Thu Dec  8 09:05:32 2022, MaxMem=  4194304000 cpu:               0.4 elap:               0.1
 (Enter /software/gaussian/G16-A.03/avx/g16/l101.exe)
 ------
 09_lig
 ------
 Symbolic Z-matrix:
 Charge =  0 Multiplicity = 1
 C                     0.66888   1.6976   -0.38745 
 H                     0.40831   1.57983  -1.45692 
 C                    -0.66824   1.69768   0.38844 
 H                    -0.4078    1.57982   1.45792 
 C                    -1.45248   2.99214   0.19267 
 C                    -0.61592   4.2366    0.44381 
 C                     0.61687   4.23651  -0.44278 
 C                     1.45329   2.99194  -0.19167 
 N                    -1.40785   0.48622   0.04212 
 C                    -2.67406   0.44439   0.04859 
 C                    -3.53961  -0.77163  -0.14388 
 C                    -2.77574  -2.01267  -0.58279 
 C                    -4.1906   -1.019     1.22867 
 C                    -4.61118  -0.4127   -1.18069 
 N                     1.40824   0.48595  -0.04142 
 C                     2.67444   0.44404  -0.04757 
 C                     3.53968  -0.77231   0.14416 
 C                     2.77523  -2.01363   0.58125 
 C                     4.19125  -1.01835  -1.22838 
 C                     4.61083  -0.41479   1.18185 
 H                    -2.328     2.99963   0.85939 
 H                    -1.84085   3.01303  -0.84165 
 H                    -0.30728   4.26927   1.50364 
 H                    -1.22692   5.13582   0.26897 
 H                     1.22798   5.13566  -0.26798 
 H                     0.30823   4.26919  -1.50261 
 H                     1.84171   3.01277   0.84264 
 H                     2.32878   2.99937  -0.85842 
 H                    -3.25572   1.35643   0.26817 
 H                    -2.07424  -2.34025   0.20218 
 H                    -2.21697  -1.84856  -1.51501 
 H                    -3.48242  -2.84105  -0.74411 
 H                    -3.41792  -1.24977   1.97769 
 H                    -4.88119  -1.87393   1.16207 
 H                    -4.76822  -0.14589   1.57265 
 H                    -4.16194  -0.23856  -2.17056 
 H                    -5.17177   0.49103  -0.89133 
 H                    -5.33329  -1.23767  -1.27639 
 H                     3.25631   1.35614  -0.26634 
 H                     2.07385  -2.3399   -0.20437 
 H                     2.21622  -1.85052   1.5135 
 H                     3.48152  -2.84249   0.74176 
 H                     3.41885  -1.24803  -1.97802 
 H                     4.88152  -1.87359  -1.16244 
 H                     4.76931  -0.14503  -1.5711 
 H                     4.16119  -0.24165   2.17171 
 H                     5.17176   0.48914   0.89376 
 H                     5.33273  -1.24002   1.27697 
 
 ITRead=  0  0  0  0  0  0  0  0  0  0  0  0  0  0  0  0  0  0  0  0
 ITRead=  0  0  0  0  0  0  0  0  0  0  0  0  0  0  0  0  0  0  0  0
 ITRead=  0  0  0  0  0  0  0  0
 MicOpt= -1 -1 -1 -1 -1 -1 -1 -1 -1 -1 -1 -1 -1 -1 -1 -1 -1 -1 -1 -1
 MicOpt= -1 -1 -1 -1 -1 -1 -1 -1 -1 -1 -1 -1 -1 -1 -1 -1 -1 -1 -1 -1
 MicOpt= -1 -1 -1 -1 -1 -1 -1 -1
 NAtoms=     48 NQM=       48 NQMF=       0 NMMI=      0 NMMIF=      0
                NMic=       0 NMicF=      0.
                    Isotopes and Nuclear Properties:
 (Nuclear quadrupole moments (NQMom) in fm**2, nuclear magnetic moments (NMagM)
  in nuclear magnetons)

  Atom         1           2           3           4           5           6           7           8           9          10
 IAtWgt=          12           1          12           1          12          12          12          12          14          12
 AtmWgt=  12.0000000   1.0078250  12.0000000   1.0078250  12.0000000  12.0000000  12.0000000  12.0000000  14.0030740  12.0000000
 NucSpn=           0           1           0           1           0           0           0           0           2           0
 AtZEff=  -0.0000000  -0.0000000  -0.0000000  -0.0000000  -0.0000000  -0.0000000  -0.0000000  -0.0000000  -0.0000000  -0.0000000
 NQMom=    0.0000000   0.0000000   0.0000000   0.0000000   0.0000000   0.0000000   0.0000000   0.0000000   2.0440000   0.0000000
 NMagM=    0.0000000   2.7928460   0.0000000   2.7928460   0.0000000   0.0000000   0.0000000   0.0000000   0.4037610   0.0000000
 AtZNuc=   6.0000000   1.0000000   6.0000000   1.0000000   6.0000000   6.0000000   6.0000000   6.0000000   7.0000000   6.0000000

  Atom        11          12          13          14          15          16          17          18          19          20
 IAtWgt=          12          12          12          12          14          12          12          12          12          12
 AtmWgt=  12.0000000  12.0000000  12.0000000  12.0000000  14.0030740  12.0000000  12.0000000  12.0000000  12.0000000  12.0000000
 NucSpn=           0           0           0           0           2           0           0           0           0           0
 AtZEff=  -0.0000000  -0.0000000  -0.0000000  -0.0000000  -0.0000000  -0.0000000  -0.0000000  -0.0000000  -0.0000000  -0.0000000
 NQMom=    0.0000000   0.0000000   0.0000000   0.0000000   2.0440000   0.0000000   0.0000000   0.0000000   0.0000000   0.0000000
 NMagM=    0.0000000   0.0000000   0.0000000   0.0000000   0.4037610   0.0000000   0.0000000   0.0000000   0.0000000   0.0000000
 AtZNuc=   6.0000000   6.0000000   6.0000000   6.0000000   7.0000000   6.0000000   6.0000000   6.0000000   6.0000000   6.0000000

  Atom        21          22          23          24          25          26          27          28          29          30
 IAtWgt=           1           1           1           1           1           1           1           1           1           1
 AtmWgt=   1.0078250   1.0078250   1.0078250   1.0078250   1.0078250   1.0078250   1.0078250   1.0078250   1.0078250   1.0078250
 NucSpn=           1           1           1           1           1           1           1           1           1           1
 AtZEff=  -0.0000000  -0.0000000  -0.0000000  -0.0000000  -0.0000000  -0.0000000  -0.0000000  -0.0000000  -0.0000000  -0.0000000
 NQMom=    0.0000000   0.0000000   0.0000000   0.0000000   0.0000000   0.0000000   0.0000000   0.0000000   0.0000000   0.0000000
 NMagM=    2.7928460   2.7928460   2.7928460   2.7928460   2.7928460   2.7928460   2.7928460   2.7928460   2.7928460   2.7928460
 AtZNuc=   1.0000000   1.0000000   1.0000000   1.0000000   1.0000000   1.0000000   1.0000000   1.0000000   1.0000000   1.0000000

  Atom        31          32          33          34          35          36          37          38          39          40
 IAtWgt=           1           1           1           1           1           1           1           1           1           1
 AtmWgt=   1.0078250   1.0078250   1.0078250   1.0078250   1.0078250   1.0078250   1.0078250   1.0078250   1.0078250   1.0078250
 NucSpn=           1           1           1           1           1           1           1           1           1           1
 AtZEff=  -0.0000000  -0.0000000  -0.0000000  -0.0000000  -0.0000000  -0.0000000  -0.0000000  -0.0000000  -0.0000000  -0.0000000
 NQMom=    0.0000000   0.0000000   0.0000000   0.0000000   0.0000000   0.0000000   0.0000000   0.0000000   0.0000000   0.0000000
 NMagM=    2.7928460   2.7928460   2.7928460   2.7928460   2.7928460   2.7928460   2.7928460   2.7928460   2.7928460   2.7928460
 AtZNuc=   1.0000000   1.0000000   1.0000000   1.0000000   1.0000000   1.0000000   1.0000000   1.0000000   1.0000000   1.0000000

  Atom        41          42          43          44          45          46          47          48
 IAtWgt=           1           1           1           1           1           1           1           1
 AtmWgt=   1.0078250   1.0078250   1.0078250   1.0078250   1.0078250   1.0078250   1.0078250   1.0078250
 NucSpn=           1           1           1           1           1           1           1           1
 AtZEff=  -0.0000000  -0.0000000  -0.0000000  -0.0000000  -0.0000000  -0.0000000  -0.0000000  -0.0000000
 NQMom=    0.0000000   0.0000000   0.0000000   0.0000000   0.0000000   0.0000000   0.0000000   0.0000000
 NMagM=    2.7928460   2.7928460   2.7928460   2.7928460   2.7928460   2.7928460   2.7928460   2.7928460
 AtZNuc=   1.0000000   1.0000000   1.0000000   1.0000000   1.0000000   1.0000000   1.0000000   1.0000000
 Leave Link  101 at Thu Dec  8 09:05:32 2022, MaxMem=  4194304000 cpu:               1.0 elap:               0.1
 (Enter /software/gaussian/G16-A.03/avx/g16/l103.exe)

 GradGradGradGradGradGradGradGradGradGradGradGradGradGradGradGradGradGrad
 Berny optimization.
 Initialization pass.
 Trust Radius=3.00D-01 FncErr=1.00D-07 GrdErr=1.00D-07 EigMax=2.50D+02 EigMin=1.00D-04
 Number of steps in this run=      2 maximum allowed number of steps=      2.
 GradGradGradGradGradGradGradGradGradGradGradGradGradGradGradGradGradGrad

 Leave Link  103 at Thu Dec  8 09:05:33 2022, MaxMem=  4194304000 cpu:               0.2 elap:               0.1
 (Enter /software/gaussian/G16-A.03/avx/g16/l202.exe)
                          Input orientation:                          
 ---------------------------------------------------------------------
 Center     Atomic      Atomic             Coordinates (Angstroms)
 Number     Number       Type             X           Y           Z
 ---------------------------------------------------------------------
      1          6           0        0.668880    1.697600   -0.387450
      2          1           0        0.408310    1.579830   -1.456920
      3          6           0       -0.668240    1.697680    0.388440
      4          1           0       -0.407800    1.579820    1.457920
      5          6           0       -1.452480    2.992140    0.192670
      6          6           0       -0.615920    4.236600    0.443810
      7          6           0        0.616870    4.236510   -0.442780
      8          6           0        1.453290    2.991940   -0.191670
      9          7           0       -1.407850    0.486220    0.042120
     10          6           0       -2.674060    0.444390    0.048590
     11          6           0       -3.539610   -0.771630   -0.143880
     12          6           0       -2.775740   -2.012670   -0.582790
     13          6           0       -4.190600   -1.019000    1.228670
     14          6           0       -4.611180   -0.412700   -1.180690
     15          7           0        1.408240    0.485950   -0.041420
     16          6           0        2.674440    0.444040   -0.047570
     17          6           0        3.539680   -0.772310    0.144160
     18          6           0        2.775230   -2.013630    0.581250
     19          6           0        4.191250   -1.018350   -1.228380
     20          6           0        4.610830   -0.414790    1.181850
     21          1           0       -2.328000    2.999630    0.859390
     22          1           0       -1.840850    3.013030   -0.841650
     23          1           0       -0.307280    4.269270    1.503640
     24          1           0       -1.226920    5.135820    0.268970
     25          1           0        1.227980    5.135660   -0.267980
     26          1           0        0.308230    4.269190   -1.502610
     27          1           0        1.841710    3.012770    0.842640
     28          1           0        2.328780    2.999370   -0.858420
     29          1           0       -3.255720    1.356430    0.268170
     30          1           0       -2.074240   -2.340250    0.202180
     31          1           0       -2.216970   -1.848560   -1.515010
     32          1           0       -3.482420   -2.841050   -0.744110
     33          1           0       -3.417920   -1.249770    1.977690
     34          1           0       -4.881190   -1.873930    1.162070
     35          1           0       -4.768220   -0.145890    1.572650
     36          1           0       -4.161940   -0.238560   -2.170560
     37          1           0       -5.171770    0.491030   -0.891330
     38          1           0       -5.333290   -1.237670   -1.276390
     39          1           0        3.256310    1.356140   -0.266340
     40          1           0        2.073850   -2.339900   -0.204370
     41          1           0        2.216220   -1.850520    1.513500
     42          1           0        3.481520   -2.842490    0.741760
     43          1           0        3.418850   -1.248030   -1.978020
     44          1           0        4.881520   -1.873590   -1.162440
     45          1           0        4.769310   -0.145030   -1.571100
     46          1           0        4.161190   -0.241650    2.171710
     47          1           0        5.171760    0.489140    0.893760
     48          1           0        5.332730   -1.240020    1.276970
 ---------------------------------------------------------------------
                    Distance matrix (angstroms):
                    1          2          3          4          5
     1  C    0.000000
     2  H    1.107038   0.000000
     3  C    1.545929   2.139673   0.000000
     4  H    2.139744   3.026934   1.107026   0.000000
     5  C    2.551968   2.859774   1.526101   2.164916   0.000000
     6  C    2.964494   3.423485   2.540063   2.851353   1.520390
     7  C    2.540045   2.851302   2.964472   3.423538   2.496891
     8  C    1.526088   2.164924   2.551965   2.859875   2.931078
     9  N    2.442290   2.596448   1.461026   2.049524   2.510835
    10  C    3.596653   3.613418   2.389466   2.900232   2.829142
    11  C    4.885469   4.779070   3.824346   4.231231   4.316867
    12  C    5.066524   4.879378   4.376247   4.762103   5.234547
    13  C    5.797095   5.925899   4.526959   4.595215   4.965868
    14  C    5.741222   5.407565   4.739478   5.347972   4.843185
    15  N    1.460988   2.049408   2.442302   2.596647   3.810447
    16  C    2.389394   2.900281   3.596558   3.613406   4.856130
    17  C    3.824207   4.231016   4.885398   4.779234   6.252607
    18  C    4.375879   4.761240   5.066407   4.879868   6.563708
    19  C    4.526659   4.594933   5.797031   5.926040   7.067892
    20  C    4.739606   5.348158   5.741133   5.407525   7.024911
    21  H    3.497311   3.855972   2.161405   2.461964   1.100503
    22  H    2.869738   2.737031   2.149019   3.065248   1.105027
    23  H    3.338053   4.063259   2.826135   2.691716   2.158978
    24  H    3.980741   4.277586   3.485284   3.837929   2.156864
    25  H    3.485272   3.837885   3.980734   4.277675   3.462910
    26  H    2.826080   2.691609   3.337998   4.063268   2.757704
    27  H    2.149029   3.065278   2.869775   2.737190   3.357763
    28  H    2.161408   2.462012   3.497311   3.856089   3.924636
    29  H    3.993585   4.055978   2.612656   3.094520   2.435759
    30  H    4.916971   4.927747   4.279767   4.440817   5.368525
    31  H    4.709010   4.318487   4.312482   4.885202   5.189701
    32  H    6.161156   5.932121   5.459153   5.817759   6.246945
    33  H    5.566221   5.868834   4.332888   4.163840   5.004303
    34  H    6.779389   6.838595   5.577082   5.659252   6.031121
    35  H    6.066507   6.241223   4.648757   4.690895   4.769246
    36  H    5.501365   4.970212   4.743780   5.528647   4.833575
    37  H    5.985223   5.713376   4.834832   5.422163   4.611261
    38  H    6.740332   6.398193   5.757658   6.298822   5.925379
    39  H    2.612672   3.094935   3.993429   4.055713   5.005985
    40  H    4.278886   4.439278   4.916557   4.928083   6.404943
    41  H    4.312427   4.884592   4.709097   4.319236   6.217339
    42  H    5.458798   5.816849   6.161046   5.932666   7.660859
    43  H    4.332319   4.163134   5.566116   5.869043   6.813281
    44  H    5.576768   5.658837   6.779309   6.838803   8.101309
    45  H    4.648638   4.691109   6.066492   6.241197   7.187725
    46  H    4.744072   5.528911   5.501313   4.970203   6.774016
    47  H    4.835060   5.422708   5.985108   5.713086   7.115974
    48  H    5.757725   6.298859   6.740268   6.398275   8.070066
                    6          7          8          9         10
     6  C    0.000000
     7  C    1.518490   0.000000
     8  C    2.496927   1.520398   0.000000
     9  N    3.854070   4.289440   3.810435   0.000000
    10  C    4.332782   5.044982   4.856208   1.266917   0.000000
    11  C    5.828869   6.515146   6.252663   2.482173   1.504967
    12  C    6.691196   7.112078   6.563824   2.916520   2.538922
    13  C    6.404348   7.316140   7.068133   3.378947   2.415366
    14  C    6.341695   7.035067   7.024780   3.544664   2.449115
    15  N    4.289528   3.854096   2.510894   2.817329   4.083504
    16  C    5.044941   4.332737   2.829093   4.083493   5.349364
    17  C    6.515211   5.828859   4.316872   5.106110   6.332461
    18  C    7.112254   6.691144   5.234564   4.902863   6.001696
    19  C    7.315709   6.403664   4.965241   5.935303   7.134616
    20  C    7.035556   6.342376   4.843803   6.191552   7.422405
    21  H    2.152677   3.449316   3.924658   2.798542   2.703036
    22  H    2.156382   2.774237   3.357719   2.711698   2.843357
    23  H    1.104339   2.154919   2.757763   4.202233   4.727423
    24  H    1.101130   2.171384   3.462938   4.658645   4.914499
    25  H    2.171387   1.101127   2.156878   5.353602   6.110168
    26  H    2.154917   1.104340   2.158957   4.431928   5.092089
    27  H    2.774305   2.156404   1.105034   4.193319   5.255404
    28  H    3.449319   2.152651   1.100497   4.592309   5.690255
    29  H    3.910853   4.878244   5.006108   2.054991   1.103794
    30  H    6.740923   7.135252   6.405532   2.908372   2.852647
    31  H    6.590107   6.797676   6.217112   2.920707   2.812720
    32  H    7.727943   8.184548   7.660953   3.999090   3.475045
    33  H    6.348563   7.227550   6.813730   3.286407   2.673001
    34  H    7.486455   8.375063   8.101539   4.346112   3.389081
    35  H    6.141831   7.229563   7.187906   3.746221   2.656444
    36  H    6.279828   6.771152   6.773695   3.606421   2.757686
    37  H    6.047120   6.909281   7.115862   3.877944   2.669116
    38  H    7.428344   8.128097   8.069937   4.485459   3.414147
    39  H    4.878066   3.910794   2.435631   4.754608   6.008307
    40  H    7.134799   6.740089   5.367846   4.491096   5.509892
    41  H    6.798403   6.590667   5.190288   4.556226   5.597090
    42  H    8.184822   7.727975   6.247046   5.956152   7.012505
    43  H    7.226742   6.347301   5.003181   5.512315   6.640406
    44  H    8.374742   7.485885   6.030633   6.824650   7.995400
    45  H    7.229056   6.141153   4.768584   6.415470   7.640325
    46  H    6.772085   6.281057   4.834707   6.006593   7.190197
    47  H    6.909642   6.047821   4.611853   6.634498   7.891337
    48  H    8.128589   7.428947   5.925913   7.066836   8.273744
                   11         12         13         14         15
    11  C    0.000000
    12  C    1.521946   0.000000
    13  C    1.539114   2.504116   0.000000
    14  C    1.533645   2.507235   2.519822   0.000000
    15  N    5.106195   4.903251   5.935066   6.191843   0.000000
    16  C    6.332578   6.002195   7.134287   7.422818   1.266908
    17  C    7.085147   6.476996   7.809881   8.265656   2.482075
    18  C    6.476541   5.671707   7.066203   7.760571   2.916210
    19  C    7.810455   7.067136   8.734558   8.823370   3.378896
    20  C    8.265263   7.760708   8.822269   9.519825   3.544616
    21  H    4.086190   5.234836   4.444663   4.584630   4.592334
    22  H    4.206699   5.118465   5.105371   4.418744   4.193219
    23  H    6.210713   7.064648   6.566703   6.902900   4.432125
    24  H    6.357432   7.363779   6.898277   6.658889   5.353662
    25  H    7.592193   8.199238   8.335515   8.106363   4.658715
    26  H    6.485514   7.058237   7.460852   6.798847   4.202143
    27  H    6.652331   6.971925   7.265876   7.580732   2.711877
    28  H    7.012062   7.159095   7.937604   7.740098   2.798600
    29  H    2.186097   3.507898   2.727495   2.658249   4.754588
    30  H    2.174313   1.102537   2.697844   3.473304   4.491594
    31  H    2.188413   1.099177   3.480110   2.811709   4.556704
    32  H    2.155469   1.100743   2.777273   2.713224   5.956615
    33  H    2.178184   2.747812   1.100600   3.478494   5.511928
    34  H    2.172650   2.738011   1.101025   2.774279   6.824540
    35  H    2.201706   3.478615   1.101947   2.770691   6.415068
    36  H    2.186067   2.755001   3.487789   1.100901   6.007084
    37  H    2.194752   3.479177   2.781598   1.102143   6.634674
    38  H    2.171879   2.760936   2.762043   1.100535   7.067124
    39  H    7.122284   6.916260   7.958192   8.115555   2.055038
    40  H    5.828727   4.875326   6.560618   7.025449   2.907751
    41  H    6.086090   5.416677   6.466830   7.479263   2.920565
    42  H    7.373540   6.449522   7.900862   8.665534   3.998797
    43  H    7.211879   6.395646   8.260693   8.112638   3.286283
    44  H    8.553783   7.680428   9.420780   9.604472   4.346008
    45  H    8.453859   7.835344   9.427753   9.392426   3.746311
    46  H    8.058856   7.671035   8.440734   9.392674   3.606394
    47  H    8.863081   8.461797   9.488964  10.041044   3.877970
    48  H    8.997590   8.354818   9.526017  10.276473   4.485393
                   16         17         18         19         20
    16  C    0.000000
    17  C    1.504961   0.000000
    18  C    2.538841   1.521942   0.000000
    19  C    2.415287   1.539138   2.504088   0.000000
    20  C    2.449218   1.533618   2.507277   2.519829   0.000000
    21  H    5.690169   7.012043   7.159127   7.937479   7.740130
    22  H    5.255294   6.652122   6.971381   7.265522   7.580810
    23  H    5.092081   6.485739   7.058860   7.460538   6.799395
    24  H    6.110123   7.592236   8.199351   8.335012   8.106907
    25  H    4.914481   6.357509   7.363934   6.897476   6.659818
    26  H    4.727353   6.210543   7.064162   6.565906   6.903504
    27  H    2.843288   4.206876   5.119031   5.104840   4.419418
    28  H    2.703085   4.086198   5.234705   4.443843   4.585514
    29  H    6.008240   7.122105   6.915756   7.958430   8.115087
    30  H    5.510409   5.829057   4.875216   6.561272   7.025476
    31  H    5.597793   6.086886   5.416975   6.468129   7.479813
    32  H    7.013124   7.374185   6.449759   7.902023   8.665838
    33  H    6.639843   7.210964   6.394422   8.260261   8.111189
    34  H    7.995233   8.553406   7.679690   9.421010   9.603537
    35  H    7.639785   8.453058   7.834218   9.427569   9.391039
    36  H    7.190905   8.059638   7.671223   8.442248   9.393147
    37  H    7.891587   8.863274   8.461479   9.489888  10.040809
    38  H    8.274170   8.998006   8.354701   9.527186  10.276458
    39  H    1.103793   2.186117   3.507876   2.727240   2.658603
    40  H    2.852300   2.174274   1.102536   2.697865   3.473316
    41  H    2.812812   2.188418   1.099176   3.480109   2.811667
    42  H    3.475011   2.155494   1.100735   2.777167   2.713438
    43  H    2.672805   2.178200   2.747772   1.100597   3.478489
    44  H    3.389033   2.172684   2.737978   1.101025   2.774359
    45  H    2.656431   2.201724   3.478596   1.101952   2.770671
    46  H    2.757862   2.186054   2.755061   3.487804   1.100898
    47  H    2.669221   2.194730   3.479206   2.781619   1.102147
    48  H    3.414231   2.171875   2.761033   2.762045   1.100542
                   21         22         23         24         25
    21  H    0.000000
    22  H    1.769472   0.000000
    23  H    2.471913   3.070889   0.000000
    24  H    2.474728   2.473181   1.766651   0.000000
    25  H    4.298672   3.775232   2.499258   2.512936   0.000000
    26  H    3.760390   2.575529   3.068614   2.499246   1.766641
    27  H    4.169764   4.049454   2.575630   3.775305   2.473217
    28  H    4.963514   4.169686   3.760424   4.298654   2.474695
    29  H    1.977451   2.444971   4.324849   4.289501   5.888429
    30  H    5.386152   5.459090   6.964316   7.524230   8.186265
    31  H    5.399542   4.922391   7.084279   7.276287   7.886830
    32  H    6.165828   6.080668   8.104970   8.351291   9.275908
    33  H    4.527242   5.348578   6.353000   6.963904   8.209820
    34  H    5.510171   6.094337   7.666566   7.955370   9.407516
    35  H    4.044467   4.937319   6.276813   6.491290   8.199823
    36  H    4.798938   4.210261   6.977011   6.591632   7.845590
    37  H    4.176736   4.178275   6.608649   6.203403   7.932084
    38  H    5.616764   5.518567   7.957118   7.737686   9.202526
    39  H    5.928984   5.390483   4.931362   5.888284   4.289394
    40  H    7.001318   6.662196   7.229675   8.185690   7.523532
    41  H    6.678454   6.757268   6.619666   7.887523   7.277156
    42  H    8.239826   8.069816   8.093985   9.276118   8.351580
    43  H    7.688940   6.863848   7.513095   8.208878   6.962445
    44  H    8.933826   8.316984   8.471503   9.407114   7.954747
    45  H    8.134370   7.362042   7.396745   8.199269   6.490364
    46  H    7.371409   7.463093   6.384508   7.846613   6.593275
    47  H    7.908865   7.652344   6.684401   7.932534   6.204288
    48  H    8.765603   8.604489   7.887545   9.203065   7.738549
                   26         27         28         29         30
    26  H    0.000000
    27  H    3.070887   0.000000
    28  H    2.471851   1.769469   0.000000
    29  H    4.931691   5.390480   5.929173   0.000000
    30  H    7.229604   6.663308   7.001643   3.881455   0.000000
    31  H    6.618433   6.757509   6.678127   3.811915   1.791891
    32  H    8.093199   8.070399   8.239758   4.323765   1.768965
    33  H    7.513694   6.864495   7.689166   3.121065   2.479326
    34  H    8.471630   8.317407   8.933930   3.725109   3.002967
    35  H    7.397331   7.362148   8.134505   2.499258   3.735095
    36  H    6.383446   7.462864   7.371251   3.051660   3.795456
    37  H    6.684202   7.652106   7.908926   2.400959   4.336658
    38  H    7.886915   8.604484   8.765530   3.664876   3.744764
    39  H    4.324974   2.444453   1.977644   6.533930   6.503658
    40  H    6.962967   5.459047   5.385218   6.503112   4.167965
    41  H    7.084363   4.923606   5.400010   6.463552   4.513030
    42  H    8.104502   6.081383   6.165770   7.952711   5.604450
    43  H    6.351511   5.347701   4.525722   7.508560   6.010013
    44  H    7.665797   6.094038   5.509505   8.870984   7.103700
    45  H    6.276246   4.936465   4.043680   8.368895   7.402546
    46  H    6.978080   4.211611   4.800378   7.822268   6.867587
    47  H    6.609485   4.178583   4.177789   8.495056   7.809497
    48  H    7.957579   5.519247   5.617476   9.028882   7.564977
                   31         32         33         34         35
    31  H    0.000000
    32  H    1.783448   0.000000
    33  H    3.741628   3.153494   0.000000
    34  H    3.776966   2.554486   1.787728   0.000000
    35  H    4.352196   3.779490   1.790508   1.779736   0.000000
    36  H    2.608592   3.044579   4.334062   3.781293   3.793123
    37  H    3.820144   3.738761   3.786509   3.145461   2.576765
    38  H    3.184584   2.505967   3.775954   2.560334   3.102953
    39  H    6.464215   7.953311   7.508115   8.870886   8.368456
    40  H    4.513350   5.604873   6.009102   7.103300   7.401716
    41  H    5.368897   6.209062   5.685060   7.106144   7.189692
    42  H    6.209162   7.120693   7.187945   8.429098   8.718959
    43  H    5.686605   7.189421   7.898675   8.896212   8.991668
    44  H    7.107284   8.430093   8.895520  10.035629  10.177581
    45  H    7.191194   8.720292   8.991390  10.177989  10.042293
    46  H    7.540225   8.583919   7.648324   9.243828   8.949995
    47  H    8.115439   9.416348   8.830703  10.330435   9.983354
    48  H    8.072388   9.184494   8.778666  10.234217  10.164337
                   36         37         38         39         40
    36  H    0.000000
    37  H    1.785634   0.000000
    38  H    1.780399   1.778416   0.000000
    39  H    7.823014   8.495385   9.029357   0.000000
    40  H    6.867795   7.809295   7.565042   3.881078   0.000000
    41  H    7.540003   8.114706   8.071813   3.812124   1.791882
    42  H    8.583970   9.415878   9.184185   4.323827   1.768981
    43  H    7.650129   8.831986   8.780225   3.120572   2.479322
    44  H    9.245204  10.331194  10.235220   3.724978   3.003057
    45  H    8.951834   9.984575  10.165788   2.499016   3.735092
    46  H    9.387748   9.850034  10.150202   3.052184   3.795444
    47  H    9.850764  10.496436  10.864967   2.401347   4.336635
    48  H   10.150721  10.864740  10.967390   3.665157   3.744917
                   41         42         43         44         45
    41  H    0.000000
    42  H    1.783416   0.000000
    43  H    3.741661   3.153321   0.000000
    44  H    3.776905   2.554358   1.787708   0.000000
    45  H    4.352209   3.779420   1.790513   1.779751   0.000000
    46  H    2.608565   3.044844   4.334066   3.781357   3.793122
    47  H    3.820118   3.738954   3.786499   3.145583   2.576756
    48  H    3.184539   2.506260   3.775971   2.560415   3.102893
                   46         47         48
    46  H    0.000000
    47  H    1.785626   0.000000
    48  H    1.780396   1.778414   0.000000
 Stoichiometry    C16H30N2
 Framework group  C1[X(C16H30N2)]
 Deg. of freedom   138
 Full point group                 C1      NOp   1
 Largest Abelian subgroup         C1      NOp   1
 Largest concise Abelian subgroup C1      NOp   1
                         Standard orientation:                         
 ---------------------------------------------------------------------
 Center     Atomic      Atomic             Coordinates (Angstroms)
 Number     Number       Type             X           Y           Z
 ---------------------------------------------------------------------
      1          6           0        0.660229    1.106407   -0.401932
      2          1           0        0.377003    0.988513   -1.465613
      3          6           0       -0.660102    1.106439    0.402196
      4          1           0       -0.376984    0.988704    1.465911
      5          6           0       -1.448445    2.400810    0.223016
      6          6           0       -0.606852    3.645369    0.456208
      7          6           0        0.606820    3.645307   -0.456379
      8          6           0        1.448502    2.400837   -0.222984
      9          7           0       -1.406792   -0.105120    0.071782
     10          6           0       -2.672575   -0.147064    0.105161
     11          6           0       -3.541907   -1.363181   -0.068760
     12          6           0       -2.787421   -2.604193   -0.523689
     13          6           0       -4.163561   -1.610480    1.317336
     14          6           0       -4.635300   -1.004446   -1.082599
     15          7           0        1.406887   -0.105143   -0.071580
     16          6           0        2.672674   -0.146939   -0.104631
     17          6           0        3.541905   -1.363192    0.068782
     18          6           0        2.787031   -2.604541    0.522132
     19          6           0        4.164185   -1.609303   -1.317271
     20          6           0        4.634831   -1.005478    1.083444
     21          1           0       -2.309600    2.408283    0.908189
     22          1           0       -1.858708    2.421567   -0.802820
     23          1           0       -0.275764    3.678167    1.509237
     24          1           0       -1.221513    4.544517    0.294308
     25          1           0        1.221423    4.544529   -0.294687
     26          1           0        0.275725    3.677860   -1.509414
     27          1           0        1.858811    2.421799    0.802837
     28          1           0        2.309625    2.408283   -0.908188
     29          1           0       -3.249522    0.764944    0.336968
     30          1           0       -2.069369   -2.931635    0.246228
     31          1           0       -2.248602   -2.440120   -1.467587
     32          1           0       -3.497293   -3.432652   -0.669879
     33          1           0       -3.375117   -1.841110    2.049789
     34          1           0       -4.855331   -2.465479    1.265504
     35          1           0       -4.733822   -0.737390    1.673432
     36          1           0       -4.207212   -0.830358   -2.081808
     37          1           0       -5.189698   -0.100739   -0.781475
     38          1           0       -5.359204   -1.829490   -1.162857
     39          1           0        3.249680    0.765193   -0.335800
     40          1           0        2.069145   -2.930948   -0.248376
     41          1           0        2.247942   -2.441393    1.466036
     42          1           0        3.496649   -3.433321    0.667674
     43          1           0        3.376051   -1.839123   -2.050307
     44          1           0        4.855780   -2.464474   -1.265935
     45          1           0        4.734751   -0.735963   -1.672277
     46          1           0        4.206311   -0.832285    2.082619
     47          1           0        5.189429   -0.101524    0.783416
     48          1           0        5.358666   -1.830633    1.163278
 ---------------------------------------------------------------------
 Rotational constants (GHZ):           0.4624408           0.2297359           0.1671561
 Leave Link  202 at Thu Dec  8 09:05:33 2022, MaxMem=  4194304000 cpu:               0.1 elap:               0.0
 (Enter /software/gaussian/G16-A.03/avx/g16/l301.exe)
 Standard basis: def2SVP (5D, 7F)
 Ernie: Thresh=  0.10000D-02 Tol=  0.10000D-05 Strict=F.
 There are   420 symmetry adapted cartesian basis functions of A   symmetry.
 There are   402 symmetry adapted basis functions of A   symmetry.
   402 basis functions,   660 primitive gaussians,   420 cartesian basis functions
    70 alpha electrons       70 beta electrons
       nuclear repulsion energy      1386.4436546514 Hartrees.
 IExCor= 1009 DFT=T Ex+Corr=PBE1PBE ExCW=0 ScaHFX=  0.250000
 ScaDFX=  0.750000  0.750000  1.000000  1.000000 ScalE2=  1.000000  1.000000
 IRadAn=      5 IRanWt=     -1 IRanGd=            0 ICorTp=0 IEmpDi=141
 NAtoms=   48 NActive=   48 NUniq=   48 SFac= 1.00D+00 NAtFMM=   60 NAOKFM=F Big=F
 Integral buffers will be    131072 words long.
 Raffenetti 2 integral format.
 Two-electron integral symmetry is turned on.
 R6Disp:  Grimme-D3(BJ) Dispersion energy=       -0.0462374988 Hartrees.
 Nuclear repulsion after empirical dispersion term =     1386.3974171525 Hartrees.
 Leave Link  301 at Thu Dec  8 09:05:35 2022, MaxMem=  4194304000 cpu:               0.7 elap:               0.3
 (Enter /software/gaussian/G16-A.03/avx/g16/l302.exe)
 NPDir=0 NMtPBC=     1 NCelOv=     1 NCel=       1 NClECP=     1 NCelD=      1
         NCelK=      1 NCelE2=     1 NClLst=     1 CellRange=     0.0.
 One-electron integrals computed using PRISM.
 One-electron integral symmetry used in STVInt
   1 Symmetry operations used in ECPInt.
 ECPInt:  NShTT=   19701 NPrTT=   67485 LenC2=   17583 LenP2D=   42498.
 LDataN:  DoStor=T MaxTD1= 4 Len=   56
 NBasis=   402 RedAO= T EigKep=  8.29D-04  NBF=   402
 NBsUse=   402 1.00D-06 EigRej= -1.00D+00 NBFU=   402
 Precomputing XC quadrature grid using
 IXCGrd= 4 IRadAn=           5 IRanWt=          -1 IRanGd=           0 AccXCQ= 0.00D+00.
 Generated NRdTot=       0 NPtTot=           0 NUsed=           0 NTot=          32
 NSgBfM=   416   416   416   416   416 MxSgAt=    48 MxSgA2=    48.
 Leave Link  302 at Thu Dec  8 09:05:36 2022, MaxMem=  4194304000 cpu:               7.7 elap:               1.0
 (Enter /software/gaussian/G16-A.03/avx/g16/l303.exe)
 DipDrv:  MaxL=1.
 Leave Link  303 at Thu Dec  8 09:05:37 2022, MaxMem=  4194304000 cpu:               0.7 elap:               0.2
 (Enter /software/gaussian/G16-A.03/avx/g16/l401.exe)
 ExpMin= 1.22D-01 ExpMax= 1.71D+03 ExpMxC= 2.58D+02 IAcc=3 IRadAn=         5 AccDes= 0.00D+00
 Harris functional with IExCor= 1009 and IRadAn=       5 diagonalized for initial guess.
 HarFok:  IExCor= 1009 AccDes= 0.00D+00 IRadAn=         5 IDoV= 1 UseB2=F ITyADJ=14
 ICtDFT=  3500011 ScaDFX=  1.000000  1.000000  1.000000  1.000000
 FoFCou: FMM=F IPFlag=           0 FMFlag=      100000 FMFlg1=           0
         NFxFlg=           0 DoJE=T BraDBF=F KetDBF=T FulRan=T
         wScrn=  0.000000 ICntrl=       500 IOpCl=  0 I1Cent=   200000004 NGrid=           0
         NMat0=    1 NMatS0=      1 NMatT0=    0 NMatD0=    1 NMtDS0=    0 NMtDT0=    0
 Petite list used in FoFCou.
 Harris En= -736.160493823402    
 JPrj=0 DoOrth=F DoCkMO=F.
 Leave Link  401 at Thu Dec  8 09:05:43 2022, MaxMem=  4194304000 cpu:              42.7 elap:               5.4
 (Enter /software/gaussian/G16-A.03/avx/g16/l502.exe)
 Integral symmetry usage will be decided dynamically.
 Closed shell SCF:
 Using DIIS extrapolation, IDIIS=  1040.
 NGot=  4194304000 LenX=  4193943060 LenY=  4193766219
 Requested convergence on RMS density matrix=1.00D-08 within 128 cycles.
 Requested convergence on MAX density matrix=1.00D-06.
 Requested convergence on             energy=1.00D-06.
 No special actions if energy rises.
 Fock matrices will be formed incrementally for  20 cycles.
 Integral accuracy reduced to 1.0D-05 until final iterations.

 Cycle   1  Pass 0  IDiag  1:
 FoFJK:  IHMeth= 1 ICntrl=       0 DoSepK=F KAlg= 0 I1Cent=           0 FoldK=F
 IRaf= 820000000 NMat=       1 IRICut=       1 DoRegI=T DoRafI=F ISym2E= 0 IDoP0=0 IntGTp=1.
 FoFCou: FMM=F IPFlag=           0 FMFlag=      100000 FMFlg1=           0
         NFxFlg=           0 DoJE=F BraDBF=F KetDBF=F FulRan=T
         wScrn=  0.000000 ICntrl=         0 IOpCl=  0 I1Cent=           0 NGrid=           0
         NMat0=    1 NMatS0=      1 NMatT0=    0 NMatD0=    1 NMtDS0=    0 NMtDT0=    0
 Symmetry not used in FoFCou.
 E= -735.375276669104    
 DIIS: error= 3.34D-02 at cycle   1 NSaved=   1.
 NSaved= 1 IEnMin= 1 EnMin= -735.375276669104     IErMin= 1 ErrMin= 3.34D-02
 ErrMax= 3.34D-02  0.00D+00 EMaxC= 1.00D-01 BMatC= 4.48D-01 BMatP= 4.48D-01
 IDIUse=3 WtCom= 6.66D-01 WtEn= 3.34D-01
 Coeff-Com:  0.100D+01
 Coeff-En:   0.100D+01
 Coeff:      0.100D+01
 Gap=     0.229 Goal=   None    Shift=    0.000
 GapD=    0.229 DampG=1.000 DampE=0.500 DampFc=0.5000 IDamp=-1.
 Damping current iteration by 5.00D-01
 RMSDP=4.23D-03 MaxDP=1.41D-01              OVMax= 1.64D-01

 Cycle   2  Pass 0  IDiag  1:
 RMSU=  2.08D-03    CP:  9.75D-01
 E= -735.610561740318     Delta-E=       -0.235285071214 Rises=F Damp=T
 DIIS: error= 5.39D-03 at cycle   2 NSaved=   2.
 NSaved= 2 IEnMin= 2 EnMin= -735.610561740318     IErMin= 2 ErrMin= 5.39D-03
 ErrMax= 5.39D-03  0.00D+00 EMaxC= 1.00D-01 BMatC= 1.83D-02 BMatP= 4.48D-01
 IDIUse=3 WtCom= 9.46D-01 WtEn= 5.39D-02
 Coeff-Com:  0.461D-01 0.954D+00
 Coeff-En:   0.729D-01 0.927D+00
 Coeff:      0.476D-01 0.952D+00
 Gap=     0.265 Goal=   None    Shift=    0.000
 RMSDP=1.04D-03 MaxDP=3.71D-02 DE=-2.35D-01 OVMax= 9.52D-02

 Cycle   3  Pass 0  IDiag  1:
 RMSU=  1.03D-03    CP:  9.71D-01  9.33D-01
 E= -735.880268895273     Delta-E=       -0.269707154955 Rises=F Damp=F
 DIIS: error= 2.53D-03 at cycle   3 NSaved=   3.
 NSaved= 3 IEnMin= 3 EnMin= -735.880268895273     IErMin= 3 ErrMin= 2.53D-03
 ErrMax= 2.53D-03  0.00D+00 EMaxC= 1.00D-01 BMatC= 5.11D-03 BMatP= 1.83D-02
 IDIUse=3 WtCom= 9.75D-01 WtEn= 2.53D-02
 Coeff-Com: -0.967D-02 0.304D+00 0.706D+00
 Coeff-En:   0.000D+00 0.000D+00 0.100D+01
 Coeff:     -0.942D-02 0.296D+00 0.713D+00
 Gap=     0.235 Goal=   None    Shift=    0.000
 RMSDP=3.38D-04 MaxDP=1.60D-02 DE=-2.70D-01 OVMax= 2.72D-02

 Cycle   4  Pass 0  IDiag  1:
 RMSU=  2.85D-04    CP:  9.71D-01  9.64D-01  8.34D-01
 E= -735.882717208091     Delta-E=       -0.002448312818 Rises=F Damp=F
 DIIS: error= 2.64D-03 at cycle   4 NSaved=   4.
 NSaved= 4 IEnMin= 4 EnMin= -735.882717208091     IErMin= 3 ErrMin= 2.53D-03
 ErrMax= 2.64D-03  0.00D+00 EMaxC= 1.00D-01 BMatC= 2.60D-03 BMatP= 5.11D-03
 IDIUse=3 WtCom= 9.74D-01 WtEn= 2.64D-02
 Coeff-Com: -0.916D-02 0.811D-01 0.427D+00 0.501D+00
 Coeff-En:   0.000D+00 0.000D+00 0.339D+00 0.661D+00
 Coeff:     -0.892D-02 0.790D-01 0.425D+00 0.505D+00
 Gap=     0.242 Goal=   None    Shift=    0.000
 RMSDP=1.86D-04 MaxDP=1.23D-02 DE=-2.45D-03 OVMax= 1.84D-02

 Cycle   5  Pass 0  IDiag  1:
 RMSU=  1.15D-04    CP:  9.70D-01  9.48D-01  8.59D-01  5.14D-01
 E= -735.884822630460     Delta-E=       -0.002105422369 Rises=F Damp=F
 DIIS: error= 9.39D-04 at cycle   5 NSaved=   5.
 NSaved= 5 IEnMin= 5 EnMin= -735.884822630460     IErMin= 5 ErrMin= 9.39D-04
 ErrMax= 9.39D-04  0.00D+00 EMaxC= 1.00D-01 BMatC= 3.60D-04 BMatP= 2.60D-03
 IDIUse=3 WtCom= 9.91D-01 WtEn= 9.39D-03
 Coeff-Com: -0.446D-02 0.173D-01 0.189D+00 0.320D+00 0.478D+00
 Coeff-En:   0.000D+00 0.000D+00 0.000D+00 0.965D-01 0.904D+00
 Coeff:     -0.442D-02 0.171D-01 0.187D+00 0.318D+00 0.482D+00
 Gap=     0.240 Goal=   None    Shift=    0.000
 RMSDP=6.58D-05 MaxDP=3.26D-03 DE=-2.11D-03 OVMax= 5.81D-03

 Cycle   6  Pass 0  IDiag  1:
 RMSU=  2.52D-05    CP:  9.70D-01  9.53D-01  8.68D-01  5.85D-01  5.21D-01
 E= -735.885140126345     Delta-E=       -0.000317495885 Rises=F Damp=F
 DIIS: error= 1.75D-04 at cycle   6 NSaved=   6.
 NSaved= 6 IEnMin= 6 EnMin= -735.885140126345     IErMin= 6 ErrMin= 1.75D-04
 ErrMax= 1.75D-04  0.00D+00 EMaxC= 1.00D-01 BMatC= 1.60D-05 BMatP= 3.60D-04
 IDIUse=3 WtCom= 9.98D-01 WtEn= 1.75D-03
 Coeff-Com: -0.114D-02 0.506D-03 0.497D-01 0.107D+00 0.245D+00 0.599D+00
 Coeff-En:   0.000D+00 0.000D+00 0.000D+00 0.000D+00 0.000D+00 0.100D+01
 Coeff:     -0.114D-02 0.505D-03 0.496D-01 0.107D+00 0.244D+00 0.600D+00
 Gap=     0.240 Goal=   None    Shift=    0.000
 RMSDP=1.35D-05 MaxDP=5.35D-04 DE=-3.17D-04 OVMax= 6.62D-04

 Cycle   7  Pass 0  IDiag  1:
 RMSU=  6.23D-06    CP:  9.70D-01  9.52D-01  8.71D-01  5.84D-01  5.79D-01
                    CP:  6.39D-01
 E= -735.885154844550     Delta-E=       -0.000014718205 Rises=F Damp=F
 DIIS: error= 2.40D-05 at cycle   7 NSaved=   7.
 NSaved= 7 IEnMin= 7 EnMin= -735.885154844550     IErMin= 7 ErrMin= 2.40D-05
 ErrMax= 2.40D-05  0.00D+00 EMaxC= 1.00D-01 BMatC= 3.38D-07 BMatP= 1.60D-05
 IDIUse=1 WtCom= 1.00D+00 WtEn= 0.00D+00
 Coeff-Com: -0.320D-03-0.406D-03 0.147D-01 0.336D-01 0.875D-01 0.244D+00
 Coeff-Com:  0.621D+00
 Coeff:     -0.320D-03-0.406D-03 0.147D-01 0.336D-01 0.875D-01 0.244D+00
 Coeff:      0.621D+00
 Gap=     0.240 Goal=   None    Shift=    0.000
 RMSDP=2.33D-06 MaxDP=1.18D-04 DE=-1.47D-05 OVMax= 1.15D-04

 Initial convergence to 1.0D-05 achieved.  Increase integral accuracy.
 Cycle   8  Pass 1  IDiag  1:
 E= -735.885194629712     Delta-E=       -0.000039785163 Rises=F Damp=F
 DIIS: error= 7.87D-05 at cycle   1 NSaved=   1.
 NSaved= 1 IEnMin= 1 EnMin= -735.885194629712     IErMin= 1 ErrMin= 7.87D-05
 ErrMax= 7.87D-05  0.00D+00 EMaxC= 1.00D-01 BMatC= 1.34D-06 BMatP= 1.34D-06
 IDIUse=1 WtCom= 1.00D+00 WtEn= 0.00D+00
 Coeff-Com:  0.100D+01
 Coeff:      0.100D+01
 Gap=     0.240 Goal=   None    Shift=    0.000
 RMSDP=2.33D-06 MaxDP=1.18D-04 DE=-3.98D-05 OVMax= 2.16D-04

 Cycle   9  Pass 1  IDiag  1:
 RMSU=  4.34D-05    CP:  1.00D+00
 E= -735.885196165686     Delta-E=       -0.000001535973 Rises=F Damp=F
 DIIS: error= 1.36D-05 at cycle   2 NSaved=   2.
 NSaved= 2 IEnMin= 2 EnMin= -735.885196165686     IErMin= 2 ErrMin= 1.36D-05
 ErrMax= 1.36D-05  0.00D+00 EMaxC= 1.00D-01 BMatC= 9.68D-08 BMatP= 1.34D-06
 IDIUse=1 WtCom= 1.00D+00 WtEn= 0.00D+00
 Coeff-Com:  0.965D-01 0.904D+00
 Coeff:      0.965D-01 0.904D+00
 Gap=     0.240 Goal=   None    Shift=    0.000
 RMSDP=2.28D-06 MaxDP=8.88D-05 DE=-1.54D-06 OVMax= 9.68D-05

 Cycle  10  Pass 1  IDiag  1:
 RMSU=  2.12D-06    CP:  1.00D+00  1.02D+00
 E= -735.885196130217     Delta-E=        0.000000035469 Rises=F Damp=F
 DIIS: error= 1.75D-05 at cycle   3 NSaved=   3.
 NSaved= 3 IEnMin= 2 EnMin= -735.885196165686     IErMin= 2 ErrMin= 1.36D-05
 ErrMax= 1.75D-05  0.00D+00 EMaxC= 1.00D-01 BMatC= 1.36D-07 BMatP= 9.68D-08
 IDIUse=1 WtCom= 1.00D+00 WtEn= 0.00D+00
 Coeff-Com: -0.800D-02 0.545D+00 0.463D+00
 Coeff:     -0.800D-02 0.545D+00 0.463D+00
 Gap=     0.240 Goal=   None    Shift=    0.000
 RMSDP=1.17D-06 MaxDP=4.51D-05 DE= 3.55D-08 OVMax= 5.60D-05

 Cycle  11  Pass 1  IDiag  1:
 RMSU=  2.50D-07    CP:  1.00D+00  1.02D+00  4.64D-01
 E= -735.885196256530     Delta-E=       -0.000000126313 Rises=F Damp=F
 DIIS: error= 1.25D-06 at cycle   4 NSaved=   4.
 NSaved= 4 IEnMin= 4 EnMin= -735.885196256530     IErMin= 4 ErrMin= 1.25D-06
 ErrMax= 1.25D-06  0.00D+00 EMaxC= 1.00D-01 BMatC= 8.47D-10 BMatP= 9.68D-08
 IDIUse=1 WtCom= 1.00D+00 WtEn= 0.00D+00
 Coeff-Com: -0.515D-02 0.316D+00 0.272D+00 0.417D+00
 Coeff:     -0.515D-02 0.316D+00 0.272D+00 0.417D+00
 Gap=     0.240 Goal=   None    Shift=    0.000
 RMSDP=1.10D-07 MaxDP=5.07D-06 DE=-1.26D-07 OVMax= 9.29D-06

 Cycle  12  Pass 1  IDiag  1:
 RMSU=  8.74D-08    CP:  1.00D+00  1.02D+00  4.72D-01  7.47D-01
 E= -735.885196257253     Delta-E=       -0.000000000723 Rises=F Damp=F
 DIIS: error= 4.40D-07 at cycle   5 NSaved=   5.
 NSaved= 5 IEnMin= 5 EnMin= -735.885196257253     IErMin= 5 ErrMin= 4.40D-07
 ErrMax= 4.40D-07  0.00D+00 EMaxC= 1.00D-01 BMatC= 6.39D-11 BMatP= 8.47D-10
 IDIUse=1 WtCom= 1.00D+00 WtEn= 0.00D+00
 Coeff-Com: -0.184D-02 0.106D+00 0.919D-01 0.242D+00 0.562D+00
 Coeff:     -0.184D-02 0.106D+00 0.919D-01 0.242D+00 0.562D+00
 Gap=     0.240 Goal=   None    Shift=    0.000
 RMSDP=2.89D-08 MaxDP=1.71D-06 DE=-7.23D-10 OVMax= 2.62D-06

 Cycle  13  Pass 1  IDiag  1:
 RMSU=  2.13D-08    CP:  1.00D+00  1.02D+00  4.74D-01  7.97D-01  8.38D-01
 E= -735.885196257309     Delta-E=       -0.000000000055 Rises=F Damp=F
 DIIS: error= 9.61D-08 at cycle   6 NSaved=   6.
 NSaved= 6 IEnMin= 6 EnMin= -735.885196257309     IErMin= 6 ErrMin= 9.61D-08
 ErrMax= 9.61D-08  0.00D+00 EMaxC= 1.00D-01 BMatC= 6.26D-12 BMatP= 6.39D-11
 IDIUse=1 WtCom= 1.00D+00 WtEn= 0.00D+00
 Coeff-Com: -0.394D-04-0.985D-03-0.862D-03 0.587D-01 0.286D+00 0.657D+00
 Coeff:     -0.394D-04-0.985D-03-0.862D-03 0.587D-01 0.286D+00 0.657D+00
 Gap=     0.240 Goal=   None    Shift=    0.000
 RMSDP=8.79D-09 MaxDP=4.23D-07 DE=-5.55D-11 OVMax= 6.39D-07

 SCF Done:  E(RPBE1PBE) =  -735.885196257     A.U. after   13 cycles
            NFock= 13  Conv=0.88D-08     -V/T= 2.0117
 KE= 7.273949302995D+02 PE=-4.475305478358D+03 EE= 1.625627934648D+03
 Leave Link  502 at Thu Dec  8 09:07:32 2022, MaxMem=  4194304000 cpu:             868.0 elap:             108.5
 (Enter /software/gaussian/G16-A.03/avx/g16/l801.exe)
 DoSCS=F DFT=T ScalE2(SS,OS)=  1.000000  1.000000
 Range of M.O.s used for correlation:     1   402
 NBasis=   402 NAE=    70 NBE=    70 NFC=     0 NFV=     0
 NROrb=    402 NOA=    70 NOB=    70 NVA=   332 NVB=   332
 Leave Link  801 at Thu Dec  8 09:07:33 2022, MaxMem=  4194304000 cpu:               0.2 elap:               0.1
 (Enter /software/gaussian/G16-A.03/avx/g16/l1101.exe)
 Using compressed storage, NAtomX=    48.
 Will process     49 centers per pass.
   1 Symmetry operations used in ECPInt.
 ECPInt:  NShTT=   19701 NPrTT=   67485 LenC2=   17583 LenP2D=   42498.
 LDataN:  DoStor=T MaxTD1= 5 Len=  102
 R6Disp: Adding Grimme-D3(BJ) dispersion energy 1st derivatives to the gradient.
 Leave Link 1101 at Thu Dec  8 09:07:34 2022, MaxMem=  4194304000 cpu:               7.8 elap:               1.1
 (Enter /software/gaussian/G16-A.03/avx/g16/l1102.exe)
 Symmetrizing basis deriv contribution to polar:
 IMax=3 JMax=2 DiffMx= 0.00D+00
 Leave Link 1102 at Thu Dec  8 09:07:35 2022, MaxMem=  4194304000 cpu:               0.7 elap:               0.1
 (Enter /software/gaussian/G16-A.03/avx/g16/l1110.exe)
 Forming Gx(P) for the SCF density, NAtomX=    48.
 Integral derivatives from FoFJK, PRISM(SPDF).
 Do as many integral derivatives as possible in FoFJK.
 G2DrvN: MDV=    4194300408.
 G2DrvN: will do    49 centers at a time, making    1 passes.
 Calling FoFCou, ICntrl=  3107 FMM=F I1Cent=   0 AccDes= 0.00D+00.
 FoFJK:  IHMeth= 1 ICntrl=    3107 DoSepK=F KAlg= 0 I1Cent=           0 FoldK=F
 IRaf=         0 NMat=       1 IRICut=       1 DoRegI=T DoRafI=F ISym2E= 0 IDoP0=0 IntGTp=1.
 FoFCou: FMM=F IPFlag=           0 FMFlag=      100000 FMFlg1=           0
         NFxFlg=           0 DoJE=F BraDBF=F KetDBF=F FulRan=T
         wScrn=  0.000000 ICntrl=      3107 IOpCl=  0 I1Cent=           0 NGrid=           0
         NMat0=    1 NMatS0=      1 NMatT0=    0 NMatD0=    1 NMtDS0=    0 NMtDT0=    0
 Symmetry not used in FoFCou.
 End of G2Drv F.D. properties file   721 does not exist.
 End of G2Drv F.D. properties file   722 does not exist.
 End of G2Drv F.D. properties file   788 does not exist.
 Leave Link 1110 at Thu Dec  8 09:15:32 2022, MaxMem=  4194304000 cpu:            3808.8 elap:             476.2
 (Enter /software/gaussian/G16-A.03/avx/g16/l1002.exe)
 Minotr:  Closed shell wavefunction.
          IDoAtm=111111111111111111111111111111111111111111111111
          Direct CPHF calculation.
          Differentiating once with respect to electric field.
                with respect to dipole field.
          Differentiating once with respect to nuclear coordinates.
          Requested convergence is 1.0D-08 RMS, and 1.0D-07 maximum.
          Secondary convergence is 1.0D-12 RMS, and 1.0D-12 maximum.
          NewPWx=T KeepS1=F KeepF1=F KeepIn=T MapXYZ=F SortEE=F KeepMc=T.
        14543 words used for storage of precomputed grid.
 Keep R1 ints in memory in canonical form, NReq=3318115058.
 FoFCou: FMM=F IPFlag=           0 FMFlag=           0 FMFlg1=           0
         NFxFlg=           0 DoJE=F BraDBF=F KetDBF=F FulRan=T
         wScrn=  0.000000 ICntrl=       600 IOpCl=  0 I1Cent=           0 NGrid=           0
         NMat0=    1 NMatS0=  81003 NMatT0=    0 NMatD0=    1 NMtDS0=    0 NMtDT0=    0
 Symmetry not used in FoFCou.
 Two-electron integral symmetry not used.
          MDV=    4194304000 using IRadAn=       1.
          Solving linear equations simultaneously, MaxMat=       0.
          There are   147 degrees of freedom in the 1st order CPHF.  IDoFFX=6 NUNeed=     3.
    144 vectors produced by pass  0 Test12= 2.32D-14 1.00D-09 XBig12= 1.49D+02 4.82D+00.
 AX will form   144 AO Fock derivatives at one time.
    144 vectors produced by pass  1 Test12= 2.32D-14 1.00D-09 XBig12= 2.22D+01 9.05D-01.
    144 vectors produced by pass  2 Test12= 2.32D-14 1.00D-09 XBig12= 2.15D-01 6.61D-02.
    144 vectors produced by pass  3 Test12= 2.32D-14 1.00D-09 XBig12= 6.71D-04 2.62D-03.
    144 vectors produced by pass  4 Test12= 2.32D-14 1.00D-09 XBig12= 9.62D-07 7.63D-05.
     73 vectors produced by pass  5 Test12= 2.32D-14 1.00D-09 XBig12= 9.50D-10 2.40D-06.
      8 vectors produced by pass  6 Test12= 2.32D-14 1.00D-09 XBig12= 8.82D-13 9.36D-08.
      3 vectors produced by pass  7 Test12= 2.32D-14 1.00D-09 XBig12= 8.63D-16 2.60D-09.
 InvSVY:  IOpt=1 It=  1 EMax= 8.88D-15
 Solved reduced A of dimension   804 with   147 vectors.
 FullF1:  Do perturbations      1 to       3.
 Isotropic polarizability for W=    0.000000      191.73 Bohr**3.
 End of Minotr F.D. properties file   721 does not exist.
 End of Minotr F.D. properties file   722 does not exist.
 End of Minotr F.D. properties file   788 does not exist.
 Leave Link 1002 at Thu Dec  8 09:24:23 2022, MaxMem=  4194304000 cpu:            4246.1 elap:             530.9
 (Enter /software/gaussian/G16-A.03/avx/g16/l601.exe)
 Copying SCF densities to generalized density rwf, IOpCl= 0 IROHF=0.

 **********************************************************************

            Population analysis using the SCF density.

 **********************************************************************

 Orbital symmetries:
       Occupied  (A) (A) (A) (A) (A) (A) (A) (A) (A) (A) (A) (A)
                 (A) (A) (A) (A) (A) (A) (A) (A) (A) (A) (A) (A)
                 (A) (A) (A) (A) (A) (A) (A) (A) (A) (A) (A) (A)
                 (A) (A) (A) (A) (A) (A) (A) (A) (A) (A) (A) (A)
                 (A) (A) (A) (A) (A) (A) (A) (A) (A) (A) (A) (A)
                 (A) (A) (A) (A) (A) (A) (A) (A) (A) (A)
       Virtual   (A) (A) (A) (A) (A) (A) (A) (A) (A) (A) (A) (A)
                 (A) (A) (A) (A) (A) (A) (A) (A) (A) (A) (A) (A)
                 (A) (A) (A) (A) (A) (A) (A) (A) (A) (A) (A) (A)
                 (A) (A) (A) (A) (A) (A) (A) (A) (A) (A) (A) (A)
                 (A) (A) (A) (A) (A) (A) (A) (A) (A) (A) (A) (A)
                 (A) (A) (A) (A) (A) (A) (A) (A) (A) (A) (A) (A)
                 (A) (A) (A) (A) (A) (A) (A) (A) (A) (A) (A) (A)
                 (A) (A) (A) (A) (A) (A) (A) (A) (A) (A) (A) (A)
                 (A) (A) (A) (A) (A) (A) (A) (A) (A) (A) (A) (A)
                 (A) (A) (A) (A) (A) (A) (A) (A) (A) (A) (A) (A)
                 (A) (A) (A) (A) (A) (A) (A) (A) (A) (A) (A) (A)
                 (A) (A) (A) (A) (A) (A) (A) (A) (A) (A) (A) (A)
                 (A) (A) (A) (A) (A) (A) (A) (A) (A) (A) (A) (A)
                 (A) (A) (A) (A) (A) (A) (A) (A) (A) (A) (A) (A)
                 (A) (A) (A) (A) (A) (A) (A) (A) (A) (A) (A) (A)
                 (A) (A) (A) (A) (A) (A) (A) (A) (A) (A) (A) (A)
                 (A) (A) (A) (A) (A) (A) (A) (A) (A) (A) (A) (A)
                 (A) (A) (A) (A) (A) (A) (A) (A) (A) (A) (A) (A)
                 (A) (A) (A) (A) (A) (A) (A) (A) (A) (A) (A) (A)
                 (A) (A) (A) (A) (A) (A) (A) (A) (A) (A) (A) (A)
                 (A) (A) (A) (A) (A) (A) (A) (A) (A) (A) (A) (A)
                 (A) (A) (A) (A) (A) (A) (A) (A) (A) (A) (A) (A)
                 (A) (A) (A) (A) (A) (A) (A) (A) (A) (A) (A) (A)
                 (A) (A) (A) (A) (A) (A) (A) (A) (A) (A) (A) (A)
                 (A) (A) (A) (A) (A) (A) (A) (A) (A) (A) (A) (A)
                 (A) (A) (A) (A) (A) (A) (A) (A) (A) (A) (A) (A)
                 (A) (A) (A) (A) (A) (A) (A) (A) (A) (A) (A) (A)
                 (A) (A) (A) (A) (A) (A) (A) (A)
 The electronic state is 1-A.
 Alpha  occ. eigenvalues --  -14.36573 -14.36571 -10.25785 -10.25784 -10.25428
 Alpha  occ. eigenvalues --  -10.25418 -10.24219 -10.24218 -10.22939 -10.22926
 Alpha  occ. eigenvalues --  -10.22755 -10.22753 -10.22459 -10.22459 -10.22364
 Alpha  occ. eigenvalues --  -10.22364 -10.21113 -10.21112  -0.93945  -0.91908
 Alpha  occ. eigenvalues --   -0.85028  -0.82959  -0.82420  -0.75379  -0.74949
 Alpha  occ. eigenvalues --   -0.69702  -0.69700  -0.69044  -0.69024  -0.65459
 Alpha  occ. eigenvalues --   -0.65196  -0.60211  -0.59635  -0.56920  -0.52404
 Alpha  occ. eigenvalues --   -0.51942  -0.51794  -0.49327  -0.47274  -0.46952
 Alpha  occ. eigenvalues --   -0.46590  -0.45970  -0.44788  -0.44675  -0.44060
 Alpha  occ. eigenvalues --   -0.43310  -0.42334  -0.40977  -0.40635  -0.40066
 Alpha  occ. eigenvalues --   -0.40021  -0.38218  -0.38216  -0.37770  -0.36898
 Alpha  occ. eigenvalues --   -0.36877  -0.36095  -0.35540  -0.34511  -0.34367
 Alpha  occ. eigenvalues --   -0.34361  -0.34049  -0.33873  -0.33456  -0.33171
 Alpha  occ. eigenvalues --   -0.31909  -0.29425  -0.28270  -0.24221  -0.22606
 Alpha virt. eigenvalues --    0.01412   0.01615   0.06150   0.06666   0.07187
 Alpha virt. eigenvalues --    0.07991   0.09846   0.10192   0.11598   0.11819
 Alpha virt. eigenvalues --    0.12242   0.12631   0.12840   0.12926   0.13506
 Alpha virt. eigenvalues --    0.13622   0.14081   0.14386   0.14837   0.15176
 Alpha virt. eigenvalues --    0.15409   0.16118   0.16356   0.16502   0.17732
 Alpha virt. eigenvalues --    0.17907   0.18499   0.18648   0.19721   0.19735
 Alpha virt. eigenvalues --    0.20435   0.20710   0.20982   0.21423   0.22615
 Alpha virt. eigenvalues --    0.22896   0.23708   0.24125   0.24648   0.24862
 Alpha virt. eigenvalues --    0.26042   0.26054   0.27007   0.27102   0.28078
 Alpha virt. eigenvalues --    0.28896   0.33280   0.33686   0.35259   0.35436
 Alpha virt. eigenvalues --    0.41281   0.41302   0.41424   0.41470   0.42136
 Alpha virt. eigenvalues --    0.43079   0.45533   0.46374   0.46938   0.47501
 Alpha virt. eigenvalues --    0.47697   0.49641   0.50580   0.51318   0.52945
 Alpha virt. eigenvalues --    0.54444   0.56592   0.57443   0.58275   0.59245
 Alpha virt. eigenvalues --    0.59586   0.60143   0.60558   0.61418   0.61421
 Alpha virt. eigenvalues --    0.62270   0.63344   0.64116   0.64409   0.64876
 Alpha virt. eigenvalues --    0.65141   0.65190   0.65352   0.65824   0.65982
 Alpha virt. eigenvalues --    0.66233   0.66460   0.66792   0.66796   0.67805
 Alpha virt. eigenvalues --    0.68159   0.68411   0.68481   0.68653   0.69586
 Alpha virt. eigenvalues --    0.70133   0.70324   0.70698   0.71039   0.71152
 Alpha virt. eigenvalues --    0.71720   0.72060   0.72133   0.72369   0.72793
 Alpha virt. eigenvalues --    0.72924   0.73245   0.73471   0.73573   0.73867
 Alpha virt. eigenvalues --    0.74029   0.74793   0.74905   0.75029   0.75578
 Alpha virt. eigenvalues --    0.75805   0.76919   0.78092   0.79030   0.79104
 Alpha virt. eigenvalues --    0.79509   0.80632   0.82020   0.83506   0.83658
 Alpha virt. eigenvalues --    0.87652   0.87832   0.91561   0.93473   0.93832
 Alpha virt. eigenvalues --    0.95485   0.96390   0.98543   0.99428   1.00626
 Alpha virt. eigenvalues --    1.04934   1.05181   1.06237   1.08156   1.09898
 Alpha virt. eigenvalues --    1.11817   1.13772   1.14521   1.15132   1.15875
 Alpha virt. eigenvalues --    1.18969   1.19448   1.21487   1.22407   1.23153
 Alpha virt. eigenvalues --    1.24271   1.24515   1.24874   1.26546   1.27912
 Alpha virt. eigenvalues --    1.28370   1.28980   1.32282   1.35504   1.35947
 Alpha virt. eigenvalues --    1.39265   1.40028   1.41269   1.43691   1.43717
 Alpha virt. eigenvalues --    1.45993   1.48876   1.50872   1.52455   1.54674
 Alpha virt. eigenvalues --    1.54680   1.54932   1.55348   1.56383   1.56405
 Alpha virt. eigenvalues --    1.57289   1.58034   1.58085   1.58377   1.59724
 Alpha virt. eigenvalues --    1.60523   1.65545   1.66356   1.67917   1.68790
 Alpha virt. eigenvalues --    1.71905   1.73561   1.74975   1.75005   1.75726
 Alpha virt. eigenvalues --    1.76497   1.77150   1.78123   1.78641   1.78938
 Alpha virt. eigenvalues --    1.79684   1.79961   1.80808   1.80899   1.81582
 Alpha virt. eigenvalues --    1.81995   1.82389   1.83011   1.83328   1.83838
 Alpha virt. eigenvalues --    1.84853   1.85077   1.85263   1.85543   1.85865
 Alpha virt. eigenvalues --    1.87055   1.87214   1.87316   1.87330   1.87520
 Alpha virt. eigenvalues --    1.88302   1.89351   1.89365   1.90229   1.90593
 Alpha virt. eigenvalues --    1.92882   1.93336   1.93460   1.93667   1.94252
 Alpha virt. eigenvalues --    1.94937   1.95193   1.95535   1.96433   1.97193
 Alpha virt. eigenvalues --    1.97256   1.98309   1.99649   2.00800   2.01947
 Alpha virt. eigenvalues --    2.02021   2.02791   2.04650   2.05063   2.07252
 Alpha virt. eigenvalues --    2.10408   2.12041   2.13114   2.13296   2.14854
 Alpha virt. eigenvalues --    2.15546   2.18157   2.18258   2.19452   2.20269
 Alpha virt. eigenvalues --    2.20477   2.20627   2.22083   2.26324   2.26525
 Alpha virt. eigenvalues --    2.27662   2.28231   2.30241   2.32422   2.32456
 Alpha virt. eigenvalues --    2.33068   2.34014   2.38842   2.39081   2.40876
 Alpha virt. eigenvalues --    2.41076   2.41862   2.42175   2.43772   2.44240
 Alpha virt. eigenvalues --    2.46584   2.46633   2.46857   2.47033   2.48427
 Alpha virt. eigenvalues --    2.50428   2.53342   2.55177   2.55906   2.57693
 Alpha virt. eigenvalues --    2.59164   2.61455   2.63339   2.63940   2.64507
 Alpha virt. eigenvalues --    2.64976   2.66156   2.66528   2.66870   2.67195
 Alpha virt. eigenvalues --    2.68404   2.68594   2.69974   2.72276   2.72572
 Alpha virt. eigenvalues --    2.74699   2.81660   2.82630   2.83245   2.87029
 Alpha virt. eigenvalues --    2.87396   2.88643   2.89569   2.90560   2.90576
 Alpha virt. eigenvalues --    2.91400   2.91690   2.91719   2.92372   2.93655
 Alpha virt. eigenvalues --    2.94510   2.96716   2.97251   2.97418   2.97742
 Alpha virt. eigenvalues --    2.98254   2.99392   3.00509   3.03327   3.05614
 Alpha virt. eigenvalues --    3.06181   3.08319   3.08844   3.10654   3.10672
 Alpha virt. eigenvalues --    3.12124   3.12279   3.17287   3.29357   3.33906
 Alpha virt. eigenvalues --    3.39453   3.42082
     Molecular Orbital Coefficients:
                          66        67        68        69        70
                           O         O         O         O         O
     Eigenvalues --    -0.31909  -0.29425  -0.28270  -0.24221  -0.22606
   1 1   C  1S         -0.00384   0.00714  -0.00999   0.03570  -0.00573
   2        2S          0.01200  -0.00664   0.02886  -0.08513   0.01831
   3        3S          0.01978  -0.11695   0.04621  -0.17183  -0.05357
   4        4PX         0.20584   0.08137  -0.08475   0.06463   0.05246
   5        4PY         0.01548   0.03215   0.04339   0.13430  -0.12628
   6        4PZ        -0.00044   0.08007   0.16580  -0.08224   0.00392
   7        5PX         0.10399   0.10690  -0.04929  -0.01379   0.05070
   8        5PY         0.00554  -0.02582   0.00713   0.01500  -0.05996
   9        5PZ        -0.00511   0.00955   0.04725  -0.04965  -0.02281
  10        6D 0       -0.00835  -0.00611  -0.01269   0.00118  -0.00094
  11        6D+1        0.00576  -0.00883  -0.01099   0.00314   0.00249
  12        6D-1        0.00156   0.00677   0.00579   0.00165   0.00073
  13        6D+2       -0.00903  -0.00282   0.00063  -0.01494   0.01088
  14        6D-2       -0.00551   0.00078  -0.00108   0.00834  -0.01373
  15 2   H  1S         -0.05732  -0.11327  -0.16727   0.01761   0.00726
  16        2S         -0.03805  -0.02938  -0.12810   0.05880   0.00985
  17        3PX         0.00399  -0.00127  -0.00252   0.00282  -0.00027
  18        3PY        -0.00030  -0.00204  -0.00160   0.00225  -0.00286
  19        3PZ        -0.00316  -0.00391  -0.00457  -0.00112   0.00048
  20 3   C  1S         -0.00384  -0.00715  -0.01001   0.03569   0.00576
  21        2S          0.01199   0.00666   0.02889  -0.08511  -0.01840
  22        3S          0.01979   0.11696   0.04648  -0.17171   0.05345
  23        4PX        -0.20580   0.08151   0.08480  -0.06461   0.05237
  24        4PY         0.01548  -0.03225   0.04345   0.13422   0.12634
  25        4PZ         0.00047   0.08006  -0.16577   0.08228   0.00403
  26        5PX        -0.10397   0.10697   0.04936   0.01383   0.05065
  27        5PY         0.00555   0.02581   0.00719   0.01503   0.05998
  28        5PZ         0.00513   0.00953  -0.04729   0.04967  -0.02281
  29        6D 0       -0.00835   0.00612  -0.01269   0.00119   0.00095
  30        6D+1        0.00576   0.00882  -0.01098   0.00315  -0.00248
  31        6D-1       -0.00156   0.00678  -0.00579  -0.00164   0.00073
  32        6D+2       -0.00903   0.00283   0.00062  -0.01493  -0.01088
  33        6D-2        0.00551   0.00078   0.00107  -0.00833  -0.01374
  34 4   H  1S         -0.05727   0.11333  -0.16720   0.01772  -0.00715
  35        2S         -0.03803   0.02941  -0.12809   0.05882  -0.00969
  36        3PX        -0.00399  -0.00127   0.00251  -0.00282  -0.00027
  37        3PY        -0.00030   0.00204  -0.00160   0.00226   0.00286
  38        3PZ         0.00316  -0.00391   0.00457   0.00112   0.00048
  39 5   C  1S         -0.01684   0.01019  -0.00757  -0.01528  -0.01097
  40        2S          0.04258  -0.02640   0.01729   0.02895   0.02615
  41        3S          0.05264  -0.05248   0.04516   0.16759   0.02507
  42        4PX         0.16313  -0.03378  -0.01802   0.08873   0.05193
  43        4PY        -0.01305   0.06307  -0.05157  -0.09359  -0.10640
  44        4PZ        -0.03879  -0.02258   0.01908  -0.01127  -0.00199
  45        5PX         0.08617  -0.04300   0.00587   0.09148   0.04209
  46        5PY         0.00877   0.02115  -0.01262  -0.07686  -0.04733
  47        5PZ        -0.02474   0.00654  -0.01783   0.00330   0.01237
  48        6D 0       -0.00410   0.00244  -0.00216  -0.00039  -0.00049
  49        6D+1        0.00589   0.00331  -0.00542   0.00403   0.00075
  50        6D-1        0.00132  -0.00088   0.00378  -0.00269  -0.00172
  51        6D+2       -0.01249   0.00171   0.00440  -0.00141   0.00248
  52        6D-2       -0.00109   0.00183  -0.00325  -0.00312  -0.00390
  53 6   C  1S          0.00515   0.00169   0.00424   0.01104   0.00451
  54        2S         -0.01241  -0.00310  -0.00988  -0.02474  -0.01158
  55        3S         -0.02863   0.01772  -0.02297  -0.06882  -0.01398
  56        4PX        -0.19320   0.00171   0.03793  -0.03201   0.01360
  57        4PY        -0.00760  -0.02081   0.03250   0.04163   0.05725
  58        4PZ         0.04937   0.00277   0.01613   0.01367  -0.00573
  59        5PX        -0.08519  -0.00136   0.02934  -0.00231   0.02861
  60        5PY         0.00215  -0.01897   0.02414   0.03966   0.03982
  61        5PZ         0.03089  -0.00967   0.01746   0.01156  -0.01471
  62        6D 0       -0.00577   0.00019   0.00115  -0.00182  -0.00050
  63        6D+1        0.00604   0.00087  -0.00174   0.00150  -0.00035
  64        6D-1        0.00135   0.00026  -0.00125  -0.00086   0.00009
  65        6D+2       -0.00715   0.00172  -0.00049  -0.00519  -0.00354
  66        6D-2       -0.00250   0.00187  -0.00023  -0.00262  -0.00525
  67 7   C  1S          0.00514  -0.00171   0.00423   0.01104  -0.00450
  68        2S         -0.01241   0.00313  -0.00986  -0.02475   0.01156
  69        3S         -0.02864  -0.01760  -0.02290  -0.06884   0.01393
  70        4PX         0.19320   0.00169  -0.03792   0.03201   0.01363
  71        4PY        -0.00760   0.02074   0.03240   0.04167  -0.05723
  72        4PZ        -0.04937   0.00280  -0.01613  -0.01367  -0.00572
  73        5PX         0.08520  -0.00135  -0.02932   0.00230   0.02861
  74        5PY         0.00215   0.01890   0.02407   0.03969  -0.03981
  75        5PZ        -0.03090  -0.00965  -0.01747  -0.01157  -0.01469
  76        6D 0       -0.00577  -0.00019   0.00115  -0.00182   0.00050
  77        6D+1        0.00604  -0.00087  -0.00174   0.00149   0.00035
  78        6D-1       -0.00135   0.00026   0.00125   0.00086   0.00009
  79        6D+2       -0.00715  -0.00171  -0.00049  -0.00519   0.00354
  80        6D-2        0.00250   0.00186   0.00023   0.00263  -0.00525
  81 8   C  1S         -0.01684  -0.01017  -0.00757  -0.01530   0.01096
  82        2S          0.04259   0.02634   0.01728   0.02899  -0.02614
  83        3S          0.05265   0.05233   0.04519   0.16770  -0.02504
  84        4PX        -0.16315  -0.03370   0.01800  -0.08878   0.05188
  85        4PY        -0.01306  -0.06293  -0.05147  -0.09370   0.10637
  86        4PZ         0.03878  -0.02259  -0.01909   0.01125  -0.00198
  87        5PX        -0.08619  -0.04291  -0.00589  -0.09153   0.04204
  88        5PY         0.00876  -0.02113  -0.01262  -0.07694   0.04732
  89        5PZ         0.02473   0.00654   0.01785  -0.00330   0.01234
  90        6D 0       -0.00410  -0.00244  -0.00216  -0.00039   0.00050
  91        6D+1        0.00589  -0.00331  -0.00543   0.00403  -0.00074
  92        6D-1       -0.00132  -0.00088  -0.00378   0.00269  -0.00172
  93        6D+2       -0.01249  -0.00171   0.00440  -0.00141  -0.00248
  94        6D-2        0.00109   0.00182   0.00324   0.00312  -0.00390
  95 9   N  1S          0.00120   0.01182   0.01116   0.05754   0.05935
  96        2S          0.00228   0.02289   0.02711   0.11095   0.12331
  97        3S          0.03679   0.05143   0.00758   0.22163   0.16972
  98        4PX        -0.07642  -0.01860  -0.02445  -0.17370  -0.16643
  99        4PY        -0.08280  -0.02961   0.10515   0.25836   0.31449
 100        4PZ        -0.06924   0.27159  -0.22354   0.08465   0.04917
 101        5PX         0.02023   0.01594   0.01872   0.13494   0.11870
 102        5PY         0.04577   0.03428  -0.08169  -0.18145  -0.21601
 103        5PZ         0.04518  -0.18108   0.15217  -0.05844  -0.03362
 104        6D 0       -0.00031  -0.00173   0.00155   0.00740   0.00802
 105        6D+1       -0.00128   0.01551  -0.01532   0.00371  -0.00062
 106        6D-1        0.00367  -0.00502   0.00123  -0.00338  -0.00475
 107        6D+2       -0.00814   0.00071   0.00275   0.00132   0.00314
 108        6D-2        0.00173  -0.00226   0.00466   0.00282   0.00792
 109 10  C  1S         -0.01342   0.00408   0.00413   0.02719   0.02664
 110        2S          0.03034  -0.01265  -0.00922  -0.07534  -0.07582
 111        3S          0.01257   0.01057  -0.00502   0.06904   0.08681
 112        4PX        -0.10088  -0.01427   0.01502  -0.08600  -0.06683
 113        4PY        -0.08806   0.07789  -0.02854   0.08291   0.06341
 114        4PZ         0.01406  -0.21146   0.21956  -0.00674   0.05660
 115        5PX        -0.06623  -0.00041   0.02173  -0.03729  -0.02979
 116        5PY        -0.02889   0.03674  -0.02081  -0.02437  -0.07728
 117        5PZ         0.01545  -0.15704   0.16312  -0.02726   0.02096
 118        6D 0       -0.00055   0.00064  -0.00050   0.00078   0.00058
 119        6D+1        0.00555  -0.02053   0.01677  -0.00639  -0.00346
 120        6D-1        0.00235  -0.00367   0.00296   0.00079   0.00107
 121        6D+2       -0.00533  -0.00136   0.00171  -0.00151  -0.00007
 122        6D-2        0.00608   0.00084  -0.00828  -0.02100  -0.02563
 123 11  C  1S         -0.00268   0.00187   0.00342   0.01588   0.01956
 124        2S          0.00591  -0.00344  -0.00935  -0.03185  -0.03883
 125        3S          0.01800  -0.02204   0.00062  -0.18017  -0.24490
 126        4PX         0.13492  -0.01121  -0.02544  -0.05591  -0.07242
 127        4PY         0.06062  -0.04768  -0.00373  -0.08469  -0.08690
 128        4PZ        -0.04163   0.11090  -0.09356   0.00095  -0.01585
 129        5PX         0.07167  -0.02472  -0.01133  -0.10445  -0.12369
 130        5PY         0.02176  -0.01601  -0.00260  -0.06272  -0.07535
 131        5PZ        -0.02156   0.05492  -0.03941   0.01839   0.00974
 132        6D 0       -0.00753   0.00365  -0.00149   0.00162   0.00166
 133        6D+1        0.00156  -0.00971   0.00856  -0.00158   0.00087
 134        6D-1        0.00337  -0.00350   0.00373  -0.00012   0.00107
 135        6D+2       -0.00379  -0.00192   0.00179  -0.00226  -0.00111
 136        6D-2        0.00453   0.00097  -0.00307  -0.00370  -0.00436
 137 12  C  1S         -0.00430   0.00152  -0.00202   0.00080   0.00099
 138        2S          0.00903  -0.00387   0.00492  -0.00220  -0.00616
 139        3S          0.00397   0.01110   0.00202   0.03062   0.07103
 140        4PX        -0.05987  -0.00200  -0.00084  -0.02664  -0.02140
 141        4PY        -0.00121   0.00354   0.01584   0.02914   0.02670
 142        4PZ         0.02189  -0.01867   0.01247   0.00590   0.00517
 143        5PX        -0.02452  -0.00359  -0.00027  -0.02114  -0.01430
 144        5PY        -0.00266   0.01020   0.01175   0.07066   0.07057
 145        5PZ         0.01003  -0.00077   0.00200   0.01664   0.01744
 146        6D 0       -0.00336   0.00192  -0.00131  -0.00058  -0.00061
 147        6D+1        0.00196  -0.00370   0.00247  -0.00118  -0.00044
 148        6D-1        0.00144   0.00161  -0.00137   0.00056   0.00004
 149        6D+2       -0.00393   0.00066   0.00059   0.00149   0.00205
 150        6D-2        0.00238   0.00095  -0.00190  -0.00064  -0.00081
 151 13  C  1S          0.01397  -0.02063   0.01701  -0.00210   0.00192
 152        2S         -0.03275   0.04558  -0.03643   0.00730  -0.00026
 153        3S         -0.03963   0.07065  -0.07112  -0.01256  -0.02703
 154        4PX        -0.07725   0.06457  -0.04298   0.02165   0.01279
 155        4PY        -0.03389   0.05043  -0.03666   0.00699  -0.00178
 156        4PZ         0.07514  -0.09436   0.06810  -0.01796  -0.00734
 157        5PX        -0.04011   0.04036  -0.02876   0.01784   0.01096
 158        5PY        -0.01620   0.02688  -0.02119   0.00482  -0.00195
 159        5PZ         0.04017  -0.05000   0.03982  -0.00810  -0.00540
 160        6D 0       -0.00570   0.00356  -0.00206   0.00162   0.00130
 161        6D+1       -0.00080  -0.00312   0.00287   0.00045   0.00118
 162        6D-1        0.00060   0.00044   0.00032   0.00179   0.00174
 163        6D+2       -0.00073   0.00068  -0.00060  -0.00030  -0.00048
 164        6D-2        0.00281  -0.00299   0.00173  -0.00238  -0.00166
 165 14  C  1S          0.00720   0.01559  -0.01531   0.00318  -0.00197
 166        2S         -0.01745  -0.03360   0.03244  -0.00637   0.00479
 167        3S         -0.01505  -0.06356   0.06134  -0.01151   0.01707
 168        4PX        -0.07289  -0.05803   0.06814   0.01062   0.03066
 169        4PY        -0.00800   0.00045   0.00467  -0.00284  -0.00394
 170        4PZ        -0.00651  -0.06742   0.05744  -0.00646   0.00776
 171        5PX        -0.03655  -0.03555   0.04491   0.01703   0.03333
 172        5PY        -0.00276  -0.00018   0.00257   0.00103  -0.00207
 173        5PZ        -0.00404  -0.03984   0.03147  -0.00810   0.00432
 174        6D 0       -0.00531   0.00156  -0.00028   0.00048   0.00091
 175        6D+1        0.00038  -0.00250   0.00153  -0.00097  -0.00068
 176        6D-1        0.00302  -0.00039  -0.00066  -0.00106  -0.00146
 177        6D+2        0.00071  -0.00171   0.00075  -0.00152  -0.00156
 178        6D-2        0.00253   0.00256  -0.00397  -0.00153  -0.00267
 179 15  N  1S          0.00120  -0.01185   0.01115   0.05758  -0.05933
 180        2S          0.00228  -0.02294   0.02708   0.11103  -0.12327
 181        3S          0.03680  -0.05149   0.00760   0.22169  -0.16962
 182        4PX         0.07644  -0.01876   0.02435   0.17378  -0.16632
 183        4PY        -0.08280   0.02943   0.10499   0.25859  -0.31441
 184        4PZ         0.06931   0.27148   0.22371  -0.08444   0.04890
 185        5PX        -0.02024   0.01604  -0.01864  -0.13500   0.11862
 186        5PY         0.04576  -0.03415  -0.08157  -0.18161   0.21594
 187        5PZ        -0.04522  -0.18100  -0.15229   0.05830  -0.03342
 188        6D 0       -0.00031   0.00171   0.00154   0.00741  -0.00801
 189        6D+1       -0.00129  -0.01551  -0.01533   0.00370   0.00063
 190        6D-1       -0.00367  -0.00502  -0.00124   0.00337  -0.00474
 191        6D+2       -0.00814  -0.00070   0.00275   0.00133  -0.00314
 192        6D-2       -0.00173  -0.00225  -0.00465  -0.00283   0.00792
 193 16  C  1S         -0.01343  -0.00409   0.00412   0.02720  -0.02663
 194        2S          0.03036   0.01269  -0.00919  -0.07538   0.07578
 195        3S          0.01258  -0.01053  -0.00500   0.06907  -0.08679
 196        4PX         0.10092  -0.01425  -0.01496   0.08602  -0.06678
 197        4PY        -0.08810  -0.07774  -0.02847   0.08293  -0.06340
 198        4PZ        -0.01410  -0.21141  -0.21967   0.00672   0.05660
 199        5PX         0.06627  -0.00035  -0.02164   0.03728  -0.02976
 200        5PY        -0.02890  -0.03666  -0.02077  -0.02443   0.07727
 201        5PZ        -0.01546  -0.15699  -0.16321   0.02720   0.02105
 202        6D 0       -0.00055  -0.00064  -0.00049   0.00078  -0.00057
 203        6D+1        0.00555   0.02052   0.01679  -0.00638   0.00344
 204        6D-1       -0.00235  -0.00367  -0.00296  -0.00079   0.00106
 205        6D+2       -0.00533   0.00135   0.00170  -0.00151   0.00008
 206        6D-2       -0.00608   0.00083   0.00827   0.02102  -0.02563
 207 17  C  1S         -0.00268  -0.00187   0.00342   0.01588  -0.01956
 208        2S          0.00591   0.00344  -0.00934  -0.03187   0.03881
 209        3S          0.01801   0.02198   0.00059  -0.18025   0.24481
 210        4PX        -0.13498  -0.01124   0.02537   0.05594  -0.07239
[...]
 408,-0.00000197,-0.00000227,-0.00000275,-0.00000187,-0.00000188,0.0000
 0536,-0.00055121,0.00014266,0.00014162,0.00172465,0.00035749,-0.000541
 06,0.00331988,0.00439299,-0.00151618,0.00045041,0.00073003,-0.00020446
 ,-0.11428017,-0.22067807,0.06487245,0.00031884,0.00041759,-0.00025820,
 -0.00000665,0.00000673,0.00000015,-0.00000176,0.00000257,-0.00000201,0
 .00000292,-0.00000202,0.00000003,-0.00000388,0.00000719,0.00000049,-0.
 00000170,0.00001837,0.00000288,-0.00000735,0.00000042,-0.00000379,0.00
 000348,-0.00000407,-0.00000080,0.00000527,0.00000030,0.00000881,-0.000
 01075,0.00000780,0.00000410,0.00000419,0.00000365,-0.00001022,0.000005
 54,-0.00000152,0.00000752,-0.00000492,-0.00000232,-0.00000030,0.000001
 45,0.00000017,-0.00000388,-0.00000164,-0.00000310,0.00000080,-0.000001
 31,0.00000371,0.00000077,0.00000254,-0.00000058,-0.00000015,-0.0000016
 0,0.00000380,0.00000058,-0.00000222,-0.00000242,-0.00000124,-0.0001242
 4,0.00014345,-0.00021130,0.00019441,-0.00001410,-0.00013251,0.00004030
 ,0.00024628,-0.00015239,0.00003212,0.00026555,-0.00029584,-0.00048926,
 -0.00394039,0.00201301,-0.01386277,-0.01669237,0.00630510,0.12306823,0
 .23441458,0.00008479,-0.00010640,-0.00006515,-0.00002718,0.00003973,-0
 .00000485,0.00004087,0.00002025,-0.00003220,0.00000376,0.00000145,0.00
 000315,-0.00001013,-0.00000862,0.00000833,0.00000168,0.00000459,-0.000
 00779,0.00000513,-0.00001190,0.00000926,-0.00000167,0.00001523,0.00001
 247,-0.00003630,-0.00002719,0.00002976,0.00001380,0.00001408,-0.000004
 66,-0.00000067,0.00000408,0.00000891,-0.00000745,0.00000473,-0.0000139
 4,-0.00000672,-0.00000386,-0.00000833,-0.00000061,-0.00000714,-0.00000
 073,-0.00020898,-0.00057959,0.00008318,-0.00023044,0.00204041,0.000247
 09,0.01275449,0.02305590,-0.00728668,0.00240200,-0.00243621,-0.0053022
 1,0.04120836,0.06425801,-0.07021045,0.00077696,0.00142020,0.00150596,-
 0.00000709,0.00000474,0.00000160,0.00000077,-0.00000075,-0.00000081,0.
 00000201,-0.00000076,-0.00000100,-0.00000633,0.00000158,0.00000231,-0.
 00000150,0.00000342,0.00000166,-0.00000899,0.00000293,-0.00000526,0.00
 000990,0.00000602,-0.00001428,0.00000896,-0.00001057,0.00002718,-0.000
 00218,0.00000162,-0.00000448,-0.00000298,-0.00000062,0.00000299,0.0000
 0327,-0.00000033,0.00000335,0.00000104,-0.00000296,0.00000218,0.000000
 62,0.00000183,0.00000243,-0.00000225,-0.00000140,0.00000245,0.00000250
 ,-0.00000077,0.00000072,0.00000092,0.00000032,0.00000183,0.00000268,-0
 .00000086,0.00000090,-0.00000227,-0.00000077,-0.00000131,0.00006656,-0
 .00083349,0.00019157,0.00010865,-0.00001542,0.00020457,0.00106769,0.00
 153987,-0.00041615,-0.00019781,-0.00019543,0.00008791,-0.00975650,-0.0
 1767713,0.00728191,0.00102260,0.00077480,-0.00155810,-0.04847345,-0.07
 033320,0.07529867,-0.00007065,0.00007244,-0.00003344,0.00002360,-0.000
 04753,0.00000810,-0.00004136,-0.00003284,0.00000073,0.00000007,0.00001
 270,0.00000983,0.00001838,0.00001853,-0.00000683,0.00000222,0.00000361
 ,0.00001014,-0.00002284,-0.00000545,-0.00001150,0.00004322,-0.00003170
 ,0.00001517,0.00005122,-0.00000871,0.00000209,-0.00004316,-0.00001222,
 0.00000388,0.00000427,-0.00000281,-0.00000229,0.00000172,0.00000218,-0
 .00000425,0.00000225,0.00000821,0.00000469,0.00000158,0.00000699,-0.00
 000356,0.00008450,-0.00013988,0.00035303,0.00155611,-0.00036923,-0.000
 39258,0.00958893,-0.00352157,-0.02076226,0.00137024,0.00050775,-0.0004
 7507,-0.00336530,-0.00094763,-0.00302019,-0.09558900,0.01828576,0.1059
 4865,0.00000993,-0.00000904,-0.00000058,0.00000133,-0.00000530,0.00000
 257,-0.00000156,0.00000293,-0.00000346,0.00000416,-0.00000671,0.000000
 01,0.00000290,-0.00001863,0.00000178,0.00000160,0.00000181,0.00000018,
 0.00000918,0.00000133,-0.00000318,-0.00000309,0.00000362,0.00000451,0.
 00000975,-0.00000521,-0.00000344,-0.00000358,-0.00000526,0.00000385,-0
 .00000232,-0.00000221,-0.00000339,0.00000503,0.00000328,0.00000170,-0.
 00000247,-0.00000191,0.00000271,0.00000409,0.00000333,-0.00000154,-0.0
 0000053,-0.00000255,0.00000092,-0.00000175,-0.00000092,-0.00000048,-0.
 00000095,-0.00000195,-0.00000034,0.00000393,0.00000229,0.00000185,-0.0
 0001877,0.00008042,0.00000666,0.00008773,0.00024796,0.00006284,-0.0001
 9392,-0.00005546,0.00029235,-0.00009249,-0.00005052,0.00014870,0.00074
 322,-0.00034677,-0.00136463,-0.00002263,-0.00025964,-0.00003868,-0.000
 09100,0.00017959,-0.00005881,0.10011300,-0.00002044,-0.00006705,-0.000
 19208,-0.00004571,0.00004794,-0.00002049,0.00004795,0.00002056,-0.0000
 0152,0.00000574,-0.00000135,-0.00000761,-0.00000974,-0.00001041,0.0000
 0096,0.00000901,0.00000198,0.00000563,0.00000346,-0.00001887,-0.000026
 30,0.00001129,0.00000279,0.00008832,-0.00003359,-0.00002271,0.00001642
 ,0.00002143,0.00001297,-0.00000616,-0.00000205,0.00000737,0.00000810,-
 0.00000743,0.00000122,-0.00000692,-0.00000682,-0.00000817,-0.00000943,
 -0.00000121,-0.00000970,-0.00000005,-0.00003339,0.00012475,0.00020194,
 -0.00017655,0.00001400,0.00062328,0.00349873,-0.00248183,-0.00523694,0
 .00084502,0.00021816,-0.00058377,-0.00145895,-0.00009690,-0.00092948,0
 .01791390,-0.05288348,-0.03767539,-0.00000773,0.00000473,0.00000415,-0
 .00000015,0.00000002,-0.00000385,0.00000303,-0.00000399,-0.00000586,-0
 .00000770,0.00000183,-0.00000161,-0.00000046,0.00000059,0.00000662,-0.
 00001323,0.00000933,-0.00000761,0.00001099,-0.00002270,-0.00003672,-0.
 00000966,0.,-0.00000293,0.00000064,0.00000044,-0.00000323,-0.00000009,
 0.00000137,0.00000359,0.00000101,0.00000208,0.00000114,-0.00000067,-0.
 00000390,-0.00000013,0.00000172,0.00000311,0.00000159,-0.00000423,-0.0
 0000257,0.00000272,0.00000363,-0.00000058,-0.00000032,0.00000093,0.000
 00147,0.00000205,0.00000387,-0.00000097,0.00000054,-0.00000389,-0.0000
 0155,-0.00000181,-0.00009219,0.00000491,-0.00003937,0.00002456,0.00002
 649,0.00026133,-0.00049590,0.00002809,0.00005095,0.00009152,-0.0000755
 0,-0.00012001,0.00013763,0.00048960,-0.00057277,-0.00020496,0.00024201
 ,0.00037079,0.00017426,0.00013606,-0.00026398,-0.01855056,0.05177951,0
 .00002884,-0.00007296,-0.00012593,0.00001344,0.00001435,-0.00000661,-0
 .00002024,-0.00000901,-0.00005028,-0.00000631,0.00000452,0.00002208,-0
 .00000275,0.00000611,0.00000782,-0.00000707,0.00000070,-0.00001408,-0.
 00000487,0.00001173,0.00002896,-0.00000841,0.00000029,-0.00013340,0.00
 001564,-0.00000192,0.00002901,-0.00001495,-0.00000607,0.00000143,0.000
 00322,-0.00000616,-0.00000362,0.00000116,0.00000354,-0.00000727,-0.000
 00167,0.00000827,-0.00000033,0.00000032,0.00000526,-0.00000234,-0.0010
 7946,0.00029725,0.00047903,0.00201030,-0.00100003,0.00018651,0.0095240
 4,-0.00197856,-0.01772126,0.00112672,0.00088408,0.00088239,-0.00473521
 ,-0.00071017,-0.00221306,0.10429172,-0.03821131,-0.26518466,-0.0000007
 4,0.00000054,-0.00000117,0.00000589,-0.00000389,0.00000763,-0.00000228
 ,0.00000542,0.00001062,0.00000252,-0.00000173,0.00000390,-0.00000086,0
 .00000269,-0.00000470,0.00001629,-0.00001166,0.00001216,-0.00001073,0.
 00003449,0.00004610,-0.00000500,-0.00001505,0.00001656,-0.00000029,0.0
 0000179,-0.00000380,0.00000016,-0.00000317,-0.00000153,0.00000115,-0.0
 0000329,0.00000404,0.00000177,0.00000210,0.00000169,0.00000031,-0.0000
 0302,0.00000187,0.00000290,0.00000170,-0.00000048,-0.00000248,0.000000
 14,0.00000183,-0.00000048,-0.00000205,0.00000236,-0.00000176,0.0000004
 1,0.00000015,0.00000289,0.00000093,0.00000074,-0.00006418,0.00005162,-
 0.00022141,-0.00012691,0.00023436,0.00022995,-0.00057601,-0.00049159,0
 .00039342,-0.00008943,-0.00005573,-0.00003053,0.00061267,-0.00040979,-
 0.00128096,0.00001042,0.00000815,0.00030054,-0.00003503,0.00006571,0.0
 0032653,-0.10997863,0.04234730,0.28596427,-0.00012837,0.00007795,0.000
 01547,0.00002798,-0.00002555,0.00001899,-0.00007200,-0.00006170,0.0000
 4042,-0.00000703,0.00000447,0.00000575,0.00002578,0.00002069,-0.000016
 28,-0.00000927,-0.00001661,0.00001502,0.00000700,0.00004399,-0.0000027
 8,-0.00002971,-0.00004059,-0.00003690,0.00007262,0.00005575,-0.0000242
 4,-0.00003393,-0.00002845,0.00000770,0.00000573,-0.00001954,-0.0000132
 7,0.00001166,0.00000095,0.00001000,0.00000749,0.00001718,0.00001342,0.
 00000120,0.00001923,0.00000161,0.00051302,0.00082735,-0.00051813,-0.00
 021398,-0.00284662,0.00149492,-0.01100974,-0.01712741,0.00799280,-0.00
 295786,0.00004298,-0.00435218,0.00059355,0.00051404,0.00116051,-0.1132
 7219,-0.11146092,0.03695338,0.00001771,-0.00000898,-0.00000516,-0.0000
 0070,-0.00000102,0.00000552,-0.00000387,0.00000509,0.00000241,0.000019
 74,-0.00000339,-0.00000467,0.00000042,-0.00000029,-0.00000507,0.000019
 00,-0.00001399,0.00001210,-0.00002950,0.00001770,0.00006277,0.00000855
 ,0.00003026,-0.00006890,0.00000018,0.00000109,0.00000358,0.00000497,-0
 .00000188,-0.00001365,0.00000251,-0.00000756,0.00000539,-0.00000124,0.
 00000682,0.00000004,-0.00000138,-0.00000486,-0.00000286,0.00000692,0.0
 0000377,-0.00000510,-0.00000690,0.00000160,0.00000269,-0.00000095,-0.0
 0000387,-0.00000176,-0.00000781,0.00000293,-0.00000094,0.00000725,0.00
 000218,0.00000280,-0.00010820,0.00122043,-0.00040384,-0.00050655,-0.00
 147448,0.00022973,0.00028518,0.00027122,-0.00003935,0.00024907,-0.0001
 1508,0.00003290,-0.00006066,0.00026462,0.00004238,0.00000726,0.0000926
 7,-0.00008635,0.00045998,0.00007516,-0.00048170,-0.00635001,-0.0101322
 4,0.00167433,0.12131956,0.00005191,0.00001082,0.00010467,-0.00000576,0
 .00000164,-0.00000181,0.00000306,0.00000013,-0.00001186,-0.00000081,-0
 .00000470,-0.00000141,-0.00000555,-0.00000350,0.00000666,-0.00000403,-
 0.00000408,-0.00000431,0.00001856,0.00000722,0.00000315,-0.00007173,0.
 00003339,-0.00000678,-0.00002531,0.00002347,-0.00000067,0.00002658,-0.
 00000070,-0.00000145,-0.00000061,-0.00000857,-0.00000398,0.00000345,-0
 .00000051,0.00000807,0.00000043,0.00000106,0.00000053,-0.00000134,0.00
 000239,0.00000496,-0.00031337,0.00033449,-0.00023477,0.00203357,-0.000
 18124,0.00050269,-0.00230038,-0.00627742,0.00213028,-0.00116543,0.0003
 0318,-0.00238965,0.00018962,0.00007230,0.00088198,-0.11198221,-0.22892
 820,0.06121284,-0.00000318,0.00000401,-0.00000092,-0.00000069,0.000001
 29,-0.00000068,0.00000178,-0.00000127,0.00000141,-0.00000105,0.0000055
 6,-0.00000024,-0.00000206,0.00001590,0.00000062,-0.00000309,-0.0000014
 3,-0.00000120,-0.00000255,-0.00000052,0.00000327,0.00000027,0.00000285
 ,-0.00000487,-0.00000936,0.00000710,0.00000389,0.00000534,0.00000314,-
 0.00001186,0.00000466,-0.00000159,0.00000726,-0.00000563,-0.00000061,-
 0.00000064,0.00000109,-0.00000113,-0.00000419,-0.00000014,-0.00000206,
 -0.00000027,-0.00000268,0.00000380,0.00000086,0.00000195,-0.00000097,-
 0.00000041,-0.00000293,0.00000399,0.00000012,-0.00000066,-0.00000185,-
 0.00000042,-0.00013251,0.00059422,0.00003013,-0.00050781,-0.00033355,0
 .00035049,-0.00000727,0.00001499,0.00016834,0.00011635,0.00053794,-0.0
 0000791,0.00016665,0.00023704,-0.00009890,-0.00009410,-0.00008952,0.00
 001601,0.00008651,0.00020990,-0.00069256,0.00414386,0.00530661,-0.0022
 6083,0.12279972,0.24466676,-0.00006567,0.00007384,-0.00013206,-0.00001
 349,-0.00001306,0.,-0.00001388,-0.00004051,0.00000593,-0.00000305,0.00
 000944,0.00000228,0.00001681,0.00001371,-0.00000469,0.00000479,0.00000
 040,0.00000835,-0.00000601,-0.00000429,-0.00002289,0.00002984,-0.00002
 204,0.00006459,0.00001690,0.00000158,-0.00000102,-0.00001588,-0.000006
 06,0.00000160,0.00000256,-0.00000426,-0.00000396,0.00000005,0.00000064
 ,0.00000281,-0.00000075,0.00000469,0.00000071,-0.00000083,0.00000415,0
 .00000111,0.00028426,0.00015580,-0.00001716,-0.00036028,-0.00093642,0.
 00060311,-0.00919542,-0.01821764,0.00589834,-0.00282748,-0.00059534,-0
 .00284347,-0.00051566,-0.00086718,0.00160287,0.03801331,0.06188823,-0.
 06711594,0.00000455,-0.00000704,0.00000054,0.00000039,-0.00000418,-0.0
 0000004,0.00000103,0.00000124,-0.00000598,0.00000115,-0.00000334,-0.00
 000110,0.00000249,-0.00001617,0.00000450,-0.00000795,0.00000606,-0.000
 00468,0.00002027,-0.00000604,-0.00003667,0.00000146,0.00001015,0.00000
 394,0.00000422,-0.00000111,-0.00000077,0.00000353,-0.00000107,-0.00000
 488,0.00000136,-0.00000228,0.00000238,-0.00000019,0.00000131,-0.000000
 20,-0.00000011,-0.00000100,0.00000022,0.00000148,0.00000086,-0.0000006
 6,-0.00000065,-0.00000058,0.00000090,-0.00000034,-0.00000054,0.0000001
 5,-0.00000095,-0.00000011,-0.00000077,0.00000151,0.00000056,0.00000047
 ,0.00010822,0.00036392,-0.00003581,-0.00091121,-0.00092319,0.00054600,
 -0.00028613,-0.00002556,0.00013164,0.00007888,0.00005383,-0.00016656,0
 .00007464,0.00021521,0.00019671,0.00004748,0.00000138,-0.00007388,0.00
 015242,0.00033083,-0.00032246,0.01190777,0.02335086,-0.00562906,-0.037
 64338,-0.06562402,0.06906749,-0.00005175,-0.00001196,0.00065111,0.0000
 0666,0.00003528,-0.00000688,0.00010606,0.00026271,-0.00011872,0.000015
 77,-0.00002168,-0.00000666,-0.00009052,-0.00006446,0.00005369,0.000004
 13,-0.00001391,-0.00001975,0.00007386,0.00001795,0.00001747,-0.0002103
 1,0.00008024,-0.00001299,-0.00012732,-0.00004598,0.00003650,0.00009771
 ,0.00004493,-0.00001323,-0.00001039,0.00001649,0.00001627,-0.00001185,
 -0.00000246,-0.00000629,-0.00001129,-0.00002356,-0.00001969,-0.0000032
 1,-0.00002478,0.00000385,-0.00065848,0.00100302,-0.00086220,-0.0023061
 4,-0.00399138,-0.00268829,-0.01573243,0.01760933,-0.00252086,0.0005442
 5,0.00169302,0.00034697,0.00103463,-0.00002022,0.00164554,-0.16001675,
 0.13581638,-0.01260459,-0.00003495,0.00003880,0.00000163,-0.00000109,0
 .00000794,-0.00000615,0.00000546,-0.00000523,0.00000543,-0.00001183,0.
 00001309,0.00000155,-0.00001369,0.00004890,0.00000068,-0.00000915,-0.0
 0000149,-0.00000362,-0.00000290,-0.00000388,0.00001372,0.00000567,-0.0
 0001978,-0.00000738,-0.00001625,0.00000899,-0.00000160,0.00000329,0.00
 000980,0.00000287,0.00000487,0.00000877,0.00000501,-0.00000850,-0.0000
 1038,-0.00000132,0.00000488,0.00000642,-0.00000101,-0.00001142,-0.0000
 0788,0.00000682,0.00000612,0.00000222,-0.00000227,0.00000394,0.0000038
 9,0.00000290,0.00000726,0.00000065,0.00000150,-0.00001148,-0.00000522,
 -0.00000484,0.00023237,0.00035965,0.00016390,0.00041471,-0.00020059,0.
 00009120,-0.00004430,0.00001469,-0.00002896,-0.00000875,-0.00104902,-0
 .00003016,0.00005365,-0.00025139,0.00022557,0.00054319,-0.00028138,-0.
 00063129,0.00001920,-0.00010859,-0.00005798,-0.00782678,0.00850923,-0.
 00257094,0.01113755,-0.01300311,0.00108795,0.17290628,-0.00003317,0.00
 017090,0.00028259,0.00003791,-0.00004972,0.00001342,-0.00006259,0.0000
 0207,0.00000321,-0.00000763,0.00001164,0.00000870,0.00000597,0.0000122
 3,-0.00000523,-0.00000317,-0.00001116,0.00000926,0.00001278,0.00003879
 ,-0.00000028,-0.00004132,-0.00002031,-0.00003248,0.00005855,0.00000122
 ,-0.00000579,-0.00004386,-0.00001351,0.00000590,0.00000433,-0.00000385
 ,-0.00000439,0.00000334,0.00000095,-0.00000184,0.00000376,0.00000965,0
 .00000707,0.00000177,0.00000917,-0.00000333,-0.00054221,0.00050160,-0.
 00018688,0.00002658,-0.00067263,-0.00044291,-0.00658673,0.00475880,-0.
 00176356,-0.00075687,0.00102475,-0.00033652,-0.00043053,0.00048204,0.0
 0013230,0.13670352,-0.20356302,0.01651161,0.00001013,-0.00000357,-0.00
 000344,0.00000057,-0.00000191,0.00000473,-0.00000385,0.00000510,0.0000
 0249,0.00001414,-0.00000636,-0.00000187,-0.00000376,-0.00000171,-0.000
 00565,0.00001468,-0.00000909,0.00000886,-0.00002018,0.00001928,0.00004
 311,0.00001423,0.00001576,-0.00004564,0.00000655,-0.00000477,-0.000002
 13,-0.00000351,-0.00000503,0.00000306,-0.00000322,-0.00000270,-0.00000
 370,0.00000537,0.00000484,0.00000121,-0.00000227,-0.00000275,0.0000022
 3,0.00000505,0.00000446,-0.00000224,-0.00000198,-0.00000242,0.00000077
 ,-0.00000229,-0.00000156,-0.00000093,-0.00000219,-0.00000185,-0.000000
 57,0.00000522,0.00000329,0.00000206,-0.00011469,0.00051908,-0.00019264
 ,0.00007378,0.00021256,0.00005652,-0.00002301,-0.00009630,0.00004859,0
 .00016430,0.00009980,-0.00011040,-0.00016327,0.00012095,0.00013748,0.0
 0017120,0.00008334,0.00046828,0.00012388,-0.00011780,-0.00000389,0.000
 85362,-0.00277776,0.00126456,0.01697518,-0.01656178,0.00083434,-0.1464
 4408,0.21581929,-0.00003898,-0.00003667,0.00055119,0.00001781,0.000000
 90,-0.00001445,0.00001305,0.00019710,-0.00011444,0.00000923,-0.0000083
 6,0.00000239,-0.00006611,-0.00003978,0.00004493,-0.00000278,-0.0000074
 9,-0.00002201,0.00004357,0.00001994,0.00003172,-0.00014144,0.00006891,
 -0.00009420,-0.00005468,-0.00002344,0.00002534,0.00004199,0.00001952,-
 0.00000616,-0.00000488,0.00000754,0.00000442,-0.00000504,-0.00000168,-
 0.00000051,-0.00000452,-0.00000945,-0.00000861,-0.00000201,-0.00001062
 ,0.00000254,-0.00119755,0.00099946,-0.00013244,-0.00282463,-0.00254769
 ,-0.00278165,-0.01456618,0.01728732,-0.00371562,0.00086137,0.00077739,
 0.00025759,-0.00042484,0.00156727,0.00151344,-0.01197738,0.01531871,-0
 .04610792,-0.00002335,0.00002650,-0.00000166,0.00000046,0.00000355,-0.
 00000107,0.00000242,0.00000060,0.00000785,-0.00000519,0.00000672,0.000
 00448,-0.00000839,0.00003029,-0.00000227,-0.00000072,-0.00000491,0.000
 00104,-0.00000028,0.00001260,0.00001968,0.00000594,-0.00001522,0.00002
 057,-0.00000870,0.00000534,-0.00000014,0.00000129,0.00000338,0.0000001
 7,0.00000205,0.00000456,0.00000187,-0.00000311,-0.00000431,-0.00000004
 ,0.00000146,0.00000122,-0.00000072,-0.00000382,-0.00000310,0.00000369,
 0.00000210,0.00000124,-0.00000131,0.00000185,0.00000181,0.00000075,0.0
 0000280,0.00000042,0.00000047,-0.00000484,-0.00000206,-0.00000201,0.00
 024365,-0.00009003,-0.00001730,0.00020750,0.00007695,-0.00011238,0.000
 07515,-0.00013883,-0.00000860,0.00011181,-0.00036034,0.00035011,0.0002
 3465,-0.00016708,0.00029361,0.00032344,-0.00066645,-0.00024058,0.00002
 602,0.00005791,-0.00008804,0.01737443,-0.02159196,0.00367489,-0.006080
 12,0.00592840,-0.00172193,0.01784553,-0.01669607,0.04838328\\-0.006312
 51,0.00814549,-0.00622842,0.00110139,-0.00148960,-0.00021279,0.0063413
 3,0.00814959,0.00623716,-0.00110510,-0.00148350,0.00020803,-0.00192891
 ,-0.00214882,-0.00212206,0.00108014,-0.00056463,0.00095356,-0.00108160
 ,-0.00056270,-0.00095134,0.00192833,-0.00215478,0.00211198,0.00235779,
 0.00848879,-0.00178061,-0.01455058,-0.01047519,-0.00206197,0.00043294,
 -0.00185542,0.00102382,-0.00156058,0.00185581,-0.00443320,0.00117079,0
 .00182000,0.00368655,0.00103848,0.00205943,-0.00131715,-0.00235563,0.0
 0847532,0.00180053,0.01452893,-0.01045864,0.00204460,-0.00043193,-0.00
 184476,-0.00100646,0.00155997,0.00184933,0.00442809,-0.00117149,0.0018
 2239,-0.00369149,-0.00104771,0.00205406,0.00131419,0.00062612,-0.00014
 138,0.00035481,0.00007653,0.00013445,0.00000122,-0.00025589,-0.0000354
 2,-0.00016734,-0.00007181,-0.00082709,-0.00010046,0.00007000,-0.000827
 38,0.00009892,0.00025716,-0.00003647,0.00016700,-0.00007448,0.00013323
 ,0.00000171,-0.00063079,-0.00013732,-0.00035203,0.00616461,-0.00155912
 ,-0.00122080,-0.00184161,-0.00268970,0.00322610,-0.00122779,-0.0011822
 6,-0.00104947,0.00085902,0.00021347,0.00109991,0.00095988,-0.00007893,
 -0.00064956,0.00054037,0.00051532,-0.00111784,-0.00068196,-0.00002943,
 -0.00001338,-0.00013619,-0.00031663,-0.00009167,-0.00044471,-0.0000172
 0,0.00013233,0.00088009,0.00017005,0.00059638,-0.00615916,-0.00156040,
 0.00121723,0.00184073,-0.00268288,-0.00322958,0.00122964,-0.00118691,0
 .00104882,-0.00086461,0.00021749,-0.00109814,-0.00095850,-0.00007979,0
 .00065039,-0.00054195,0.00051250,0.00111592,0.00068294,-0.00002632,0.0
 0001358,0.00013853,-0.00031686,0.00009012,0.00044604,-0.00001588,-0.00
 013201,-0.00087626,0.00016870,-0.00059517\\\@

 Writing a WFNX file to "09_lig.wfx"


 THEREFORE SHALL EVIL COME UPON THEE...
 THOU SHALT NOT KNOW FROM WHENCE IT RISETH...
 AND MISCHIEF SHALL FALL UPON THEE...
 THOU SHALT NOT BE ABLE TO PUT IT OFF...
 AND DESOLATION SHALL COME UPON THEE SUDDENLY...
 WHICH THOU SHALT NOT KNOW...

                                         ISAIAH 47.11
 Job cpu time:       0 days  3 hours 29 minutes 39.1 seconds.
 Elapsed time:       0 days  0 hours 26 minutes 13.7 seconds.
 File lengths (MBytes):  RWF=    798 Int=      0 D2E=      0 Chk=     12 Scr=      1
 Normal termination of Gaussian 16 at Thu Dec  8 09:31:58 2022.
