 Entering Gaussian System, Link 0=g16
 Initial command:
 /software/gaussian/G16-A.03/avx/g16/l1.exe "/scratch/lcmd/1380816.slurm/Gau-244506.inp" -scrdir="/scratch/lcmd/1380816.slurm/"
 Entering Link 1 = /software/gaussian/G16-A.03/avx/g16/l1.exe PID=    244508.
  
 Copyright (c) 1988,1990,1992,1993,1995,1998,2003,2009,2016,
            Gaussian, Inc.  All Rights Reserved.
  
 This is part of the Gaussian(R) 16 program.  It is based on
 the Gaussian(R) 09 system (copyright 2009, Gaussian, Inc.),
 the Gaussian(R) 03 system (copyright 2003, Gaussian, Inc.),
 the Gaussian(R) 98 system (copyright 1998, Gaussian, Inc.),
 the Gaussian(R) 94 system (copyright 1995, Gaussian, Inc.),
 the Gaussian 92(TM) system (copyright 1992, Gaussian, Inc.),
 the Gaussian 90(TM) system (copyright 1990, Gaussian, Inc.),
 the Gaussian 88(TM) system (copyright 1988, Gaussian, Inc.),
 the Gaussian 86(TM) system (copyright 1986, Carnegie Mellon
 University), and the Gaussian 82(TM) system (copyright 1983,
 Carnegie Mellon University). Gaussian is a federally registered
 trademark of Gaussian, Inc.
  
 This software contains proprietary and confidential information,
 including trade secrets, belonging to Gaussian, Inc.
  
 This software is provided under written license and may be
 used, copied, transmitted, or stored only in accord with that
 written license.
  
 The following legend is applicable only to US Government
 contracts under FAR:
  
                    RESTRICTED RIGHTS LEGEND
  
 Use, reproduction and disclosure by the US Government is
 subject to restrictions as set forth in subparagraphs (a)
 and (c) of the Commercial Computer Software - Restricted
 Rights clause in FAR 52.227-19.
  
 Gaussian, Inc.
 340 Quinnipiac St., Bldg. 40, Wallingford CT 06492
  
  
 ---------------------------------------------------------------
 Warning -- This program may not be used in any manner that
 competes with the business of Gaussian, Inc. or will provide
 assistance to any competitor of Gaussian, Inc.  The licensee
 of this program is prohibited from giving any competitor of
 Gaussian, Inc. access to this program.  By using this program,
 the user acknowledges that Gaussian, Inc. is engaged in the
 business of creating and licensing software in the field of
 computational chemistry and represents and warrants to the
 licensee that it is not a competitor of Gaussian, Inc. and that
 it will not use this program in any manner prohibited above.
 ---------------------------------------------------------------
  

 Cite this work as:
 Gaussian 16, Revision A.03,
 M. J. Frisch, G. W. Trucks, H. B. Schlegel, G. E. Scuseria, 
 M. A. Robb, J. R. Cheeseman, G. Scalmani, V. Barone, 
 G. A. Petersson, H. Nakatsuji, X. Li, M. Caricato, A. V. Marenich, 
 J. Bloino, B. G. Janesko, R. Gomperts, B. Mennucci, H. P. Hratchian, 
 J. V. Ortiz, A. F. Izmaylov, J. L. Sonnenberg, D. Williams-Young, 
 F. Ding, F. Lipparini, F. Egidi, J. Goings, B. Peng, A. Petrone, 
 T. Henderson, D. Ranasinghe, V. G. Zakrzewski, J. Gao, N. Rega, 
 G. Zheng, W. Liang, M. Hada, M. Ehara, K. Toyota, R. Fukuda, 
 J. Hasegawa, M. Ishida, T. Nakajima, Y. Honda, O. Kitao, H. Nakai, 
 T. Vreven, K. Throssell, J. A. Montgomery, Jr., J. E. Peralta, 
 F. Ogliaro, M. J. Bearpark, J. J. Heyd, E. N. Brothers, K. N. Kudin, 
 V. N. Staroverov, T. A. Keith, R. Kobayashi, J. Normand, 
 K. Raghavachari, A. P. Rendell, J. C. Burant, S. S. Iyengar, 
 J. Tomasi, M. Cossi, J. M. Millam, M. Klene, C. Adamo, R. Cammi, 
 J. W. Ochterski, R. L. Martin, K. Morokuma, O. Farkas, 
 J. B. Foresman, and D. J. Fox, Gaussian, Inc., Wallingford CT, 2016.
 
 ******************************************
 Gaussian 16:  ES64L-G16RevA.03 25-Dec-2016
                 8-Dec-2022 
 ******************************************
 %nprocs=8
 Will use up to    8 processors via shared memory.
 %mem=32000MB
 %chk=12_lig.chk
 ----------------------------------------------------------------------
 #p pop=(regular,nbo,savenbos) freq=noraman def2svp empiricaldispersion
 =gd3bj output=wfx pbe1pbe
 ----------------------------------------------------------------------
 1/10=4,30=1,38=1/1,3;
 2/12=2,17=6,18=5,40=1/2;
 3/5=43,7=101,11=2,25=1,30=1,71=2,74=-13,124=41,140=1/1,2,3;
 4//1;
 5/5=2,38=5,98=1/2;
 8/6=4,10=90,11=11/1;
 11/6=1,8=1,9=11,15=111,16=1/1,2,10;
 10/6=1/2;
 6/28=1,40=1,73=1/1,7;
 7/8=1,10=1,25=1/1,2,3,16;
 1/10=4,30=1/3;
 99/6=200/99;
 Leave Link    1 at Thu Dec  8 09:05:31 2022, MaxMem=  4194304000 cpu:               0.4 elap:               0.1
 (Enter /software/gaussian/G16-A.03/avx/g16/l101.exe)
 ------
 12_lig
 ------
 Symbolic Z-matrix:
 Charge =  0 Multiplicity = 1
 C                    -0.6868   -1.53649   1.35249 
 N                    -1.0016   -0.53533   0.63163 
 C                    -1.90442   0.32671   1.37641 
 H                    -1.36707   1.26862   1.57791 
 C                    -2.14161  -0.49648   2.67071 
 O                    -1.23565  -1.61276   2.56042 
 C                    -3.17074   0.65225   0.62498 
 C                    -3.57412  -0.09754  -0.4829 
 C                    -4.77045   0.20804  -1.13111 
 C                    -5.5739    1.25151  -0.67697 
 C                    -5.17179   2.00317   0.42701 
 C                    -3.9729    1.70783   1.06986 
 N                     1.68588  -1.16494  -0.43517 
 C                     1.55238  -2.07764   0.44339 
 C                     0.24987  -2.62183   0.93583 
 O                     2.66121  -2.58964   0.97596 
 C                     3.76593  -1.96247   0.30147 
 C                     3.11102  -0.85631  -0.56229 
 H                     3.40298  -0.95475  -1.61827 
 C                     3.38588   0.55666  -0.10973 
 C                     3.91485   1.49566  -0.99282 
 C                     4.12397   2.81087  -0.58297 
 C                     3.80201   3.19528   0.71552 
 C                     3.27365   2.25996   1.60553 
 C                     3.06671   0.94856   1.19375 
 H                    -3.16563  -0.89265   2.73042 
 H                    -1.90315   0.04619   3.59477 
 H                    -2.93981  -0.90326  -0.86468 
 H                    -5.06872  -0.3749   -2.00563 
 H                    -6.50953   1.48791  -1.18928 
 H                    -5.78889   2.83236   0.78117 
 H                    -3.6499    2.31447   1.92122 
 H                     0.41522  -3.32644   1.75738 
 H                    -0.22418  -3.13128   0.07476 
 H                     4.27689  -2.72932  -0.29867 
 H                     4.45643  -1.57002   1.05948 
 H                     4.14522   1.2006   -2.01998 
 H                     4.52722   3.54191  -1.28727 
 H                     3.95487   4.22874   1.03482 
 H                     3.01155   2.55985   2.62284 
 H                     2.6315    0.22574   1.89062 
 
 ITRead=  0  0  0  0  0  0  0  0  0  0  0  0  0  0  0  0  0  0  0  0
 ITRead=  0  0  0  0  0  0  0  0  0  0  0  0  0  0  0  0  0  0  0  0
 ITRead=  0
 MicOpt= -1 -1 -1 -1 -1 -1 -1 -1 -1 -1 -1 -1 -1 -1 -1 -1 -1 -1 -1 -1
 MicOpt= -1 -1 -1 -1 -1 -1 -1 -1 -1 -1 -1 -1 -1 -1 -1 -1 -1 -1 -1 -1
 MicOpt= -1
 NAtoms=     41 NQM=       41 NQMF=       0 NMMI=      0 NMMIF=      0
                NMic=       0 NMicF=      0.
                    Isotopes and Nuclear Properties:
 (Nuclear quadrupole moments (NQMom) in fm**2, nuclear magnetic moments (NMagM)
  in nuclear magnetons)

  Atom         1           2           3           4           5           6           7           8           9          10
 IAtWgt=          12          14          12           1          12          16          12          12          12          12
 AtmWgt=  12.0000000  14.0030740  12.0000000   1.0078250  12.0000000  15.9949146  12.0000000  12.0000000  12.0000000  12.0000000
 NucSpn=           0           2           0           1           0           0           0           0           0           0
 AtZEff=  -0.0000000  -0.0000000  -0.0000000  -0.0000000  -0.0000000  -0.0000000  -0.0000000  -0.0000000  -0.0000000  -0.0000000
 NQMom=    0.0000000   2.0440000   0.0000000   0.0000000   0.0000000   0.0000000   0.0000000   0.0000000   0.0000000   0.0000000
 NMagM=    0.0000000   0.4037610   0.0000000   2.7928460   0.0000000   0.0000000   0.0000000   0.0000000   0.0000000   0.0000000
 AtZNuc=   6.0000000   7.0000000   6.0000000   1.0000000   6.0000000   8.0000000   6.0000000   6.0000000   6.0000000   6.0000000

  Atom        11          12          13          14          15          16          17          18          19          20
 IAtWgt=          12          12          14          12          12          16          12          12           1          12
 AtmWgt=  12.0000000  12.0000000  14.0030740  12.0000000  12.0000000  15.9949146  12.0000000  12.0000000   1.0078250  12.0000000
 NucSpn=           0           0           2           0           0           0           0           0           1           0
 AtZEff=  -0.0000000  -0.0000000  -0.0000000  -0.0000000  -0.0000000  -0.0000000  -0.0000000  -0.0000000  -0.0000000  -0.0000000
 NQMom=    0.0000000   0.0000000   2.0440000   0.0000000   0.0000000   0.0000000   0.0000000   0.0000000   0.0000000   0.0000000
 NMagM=    0.0000000   0.0000000   0.4037610   0.0000000   0.0000000   0.0000000   0.0000000   0.0000000   2.7928460   0.0000000
 AtZNuc=   6.0000000   6.0000000   7.0000000   6.0000000   6.0000000   8.0000000   6.0000000   6.0000000   1.0000000   6.0000000

  Atom        21          22          23          24          25          26          27          28          29          30
 IAtWgt=          12          12          12          12          12           1           1           1           1           1
 AtmWgt=  12.0000000  12.0000000  12.0000000  12.0000000  12.0000000   1.0078250   1.0078250   1.0078250   1.0078250   1.0078250
 NucSpn=           0           0           0           0           0           1           1           1           1           1
 AtZEff=  -0.0000000  -0.0000000  -0.0000000  -0.0000000  -0.0000000  -0.0000000  -0.0000000  -0.0000000  -0.0000000  -0.0000000
 NQMom=    0.0000000   0.0000000   0.0000000   0.0000000   0.0000000   0.0000000   0.0000000   0.0000000   0.0000000   0.0000000
 NMagM=    0.0000000   0.0000000   0.0000000   0.0000000   0.0000000   2.7928460   2.7928460   2.7928460   2.7928460   2.7928460
 AtZNuc=   6.0000000   6.0000000   6.0000000   6.0000000   6.0000000   1.0000000   1.0000000   1.0000000   1.0000000   1.0000000

  Atom        31          32          33          34          35          36          37          38          39          40
 IAtWgt=           1           1           1           1           1           1           1           1           1           1
 AtmWgt=   1.0078250   1.0078250   1.0078250   1.0078250   1.0078250   1.0078250   1.0078250   1.0078250   1.0078250   1.0078250
 NucSpn=           1           1           1           1           1           1           1           1           1           1
 AtZEff=  -0.0000000  -0.0000000  -0.0000000  -0.0000000  -0.0000000  -0.0000000  -0.0000000  -0.0000000  -0.0000000  -0.0000000
 NQMom=    0.0000000   0.0000000   0.0000000   0.0000000   0.0000000   0.0000000   0.0000000   0.0000000   0.0000000   0.0000000
 NMagM=    2.7928460   2.7928460   2.7928460   2.7928460   2.7928460   2.7928460   2.7928460   2.7928460   2.7928460   2.7928460
 AtZNuc=   1.0000000   1.0000000   1.0000000   1.0000000   1.0000000   1.0000000   1.0000000   1.0000000   1.0000000   1.0000000

  Atom        41
 IAtWgt=           1
 AtmWgt=   1.0078250
 NucSpn=           1
 AtZEff=  -0.0000000
 NQMom=    0.0000000
 NMagM=    2.7928460
 AtZNuc=   1.0000000
 Leave Link  101 at Thu Dec  8 09:05:31 2022, MaxMem=  4194304000 cpu:               1.0 elap:               0.1
 (Enter /software/gaussian/G16-A.03/avx/g16/l103.exe)

 GradGradGradGradGradGradGradGradGradGradGradGradGradGradGradGradGradGrad
 Berny optimization.
 Initialization pass.
 Trust Radius=3.00D-01 FncErr=1.00D-07 GrdErr=1.00D-07 EigMax=2.50D+02 EigMin=1.00D-04
 Number of steps in this run=      2 maximum allowed number of steps=      2.
 GradGradGradGradGradGradGradGradGradGradGradGradGradGradGradGradGradGrad

 Leave Link  103 at Thu Dec  8 09:05:31 2022, MaxMem=  4194304000 cpu:               0.2 elap:               0.0
 (Enter /software/gaussian/G16-A.03/avx/g16/l202.exe)
                          Input orientation:                          
 ---------------------------------------------------------------------
 Center     Atomic      Atomic             Coordinates (Angstroms)
 Number     Number       Type             X           Y           Z
 ---------------------------------------------------------------------
      1          6           0       -0.686800   -1.536490    1.352490
      2          7           0       -1.001600   -0.535330    0.631630
      3          6           0       -1.904420    0.326710    1.376410
      4          1           0       -1.367070    1.268620    1.577910
      5          6           0       -2.141610   -0.496480    2.670710
      6          8           0       -1.235650   -1.612760    2.560420
      7          6           0       -3.170740    0.652250    0.624980
      8          6           0       -3.574120   -0.097540   -0.482900
      9          6           0       -4.770450    0.208040   -1.131110
     10          6           0       -5.573900    1.251510   -0.676970
     11          6           0       -5.171790    2.003170    0.427010
     12          6           0       -3.972900    1.707830    1.069860
     13          7           0        1.685880   -1.164940   -0.435170
     14          6           0        1.552380   -2.077640    0.443390
     15          6           0        0.249870   -2.621830    0.935830
     16          8           0        2.661210   -2.589640    0.975960
     17          6           0        3.765930   -1.962470    0.301470
     18          6           0        3.111020   -0.856310   -0.562290
     19          1           0        3.402980   -0.954750   -1.618270
     20          6           0        3.385880    0.556660   -0.109730
     21          6           0        3.914850    1.495660   -0.992820
     22          6           0        4.123970    2.810870   -0.582970
     23          6           0        3.802010    3.195280    0.715520
     24          6           0        3.273650    2.259960    1.605530
     25          6           0        3.066710    0.948560    1.193750
     26          1           0       -3.165630   -0.892650    2.730420
     27          1           0       -1.903150    0.046190    3.594770
     28          1           0       -2.939810   -0.903260   -0.864680
     29          1           0       -5.068720   -0.374900   -2.005630
     30          1           0       -6.509530    1.487910   -1.189280
     31          1           0       -5.788890    2.832360    0.781170
     32          1           0       -3.649900    2.314470    1.921220
     33          1           0        0.415220   -3.326440    1.757380
     34          1           0       -0.224180   -3.131280    0.074760
     35          1           0        4.276890   -2.729320   -0.298670
     36          1           0        4.456430   -1.570020    1.059480
     37          1           0        4.145220    1.200600   -2.019980
     38          1           0        4.527220    3.541910   -1.287270
     39          1           0        3.954870    4.228740    1.034820
     40          1           0        3.011550    2.559850    2.622840
     41          1           0        2.631500    0.225740    1.890620
 ---------------------------------------------------------------------
                    Distance matrix (angstroms):
                    1          2          3          4          5
     1  C    0.000000
     2  N    1.273208   0.000000
     3  C    2.225912   1.453580   0.000000
     4  H    2.895207   2.069601   1.102970   0.000000
     5  C    2.221665   2.336446   1.552132   2.215785   0.000000
     6  O    1.328965   2.221681   2.368687   3.047121   1.441877
     7  C    3.389662   2.472966   1.508042   2.131012   2.561972
     8  C    3.711583   2.837551   2.534743   3.314272   3.486616
     9  C    5.088011   4.226592   3.809969   4.477345   4.675573
    10  C    5.981254   5.080468   4.305428   4.773070   5.103239
    11  C    5.787991   4.886342   3.793097   4.042280   4.523763
    12  C    4.626440   3.748658   2.506008   2.690979   3.282579
    13  N    2.993892   2.959226   4.289184   4.392631   4.974235
    14  C    2.476537   2.989476   4.312875   4.583424   4.594190
    15  C    1.492957   2.451978   3.678174   4.261732   3.639519
    16  O    3.529883   4.213660   5.432351   5.610308   5.506412
    17  C    4.594878   4.987492   6.208761   6.198139   6.531574
    18  C    4.307257   4.294429   5.505700   5.398988   6.178340
    19  H    5.088235   4.963697   6.227258   6.157298   7.024802
    20  C    4.806879   4.581707   5.499888   5.093677   6.276392
    21  C    5.989123   5.561946   6.390900   5.878680   7.353284
    22  C    6.766761   6.240495   6.808209   6.099136   7.796313
    23  C    6.553228   6.082693   6.420967   5.583469   7.264880
    24  C    5.492015   5.199989   5.531940   4.745503   6.169085
    25  C    4.504388   4.366813   5.013202   4.461886   5.603227
    26  H    2.908233   3.035724   2.216040   3.038780   1.099606
    27  H    3.002033   3.151374   2.236026   2.418562   1.097835
    28  H    3.223799   2.476080   2.758141   3.627233   3.647133
    29  H    5.641585   4.849984   4.684362   5.407877   5.518234
    30  H    7.036460   6.143819   5.397980   5.843828   6.157601
    31  H    6.741259   5.855070   4.660654   4.757370   5.287172
    32  H    4.892168   4.098524   2.700872   2.534359   3.276906
    33  H    2.140632   3.326408   4.344119   4.931870   3.921763
    34  H    2.095225   2.766486   4.058965   4.787983   4.166253
    35  H    5.365388   5.791503   7.096042   7.166545   7.416194
    36  H    5.151679   5.571690   6.645182   6.499215   6.876240
    37  H    6.497202   6.044356   6.992660   6.582916   8.025390
    38  H    7.742382   7.132595   7.668031   6.936841   8.743426
    39  H    7.408366   6.886619   7.047964   6.113943   7.884853
    40  H    5.663178   5.445221   5.541413   4.683104   5.991536
    41  H    3.795544   3.919655   4.566090   4.144146   4.890064
                    6          7          8          9         10
     6  O    0.000000
     7  C    3.552573   0.000000
     8  C    4.126273   1.397247   0.000000
     9  C    5.425635   2.416660   1.394547   0.000000
    10  C    6.124145   2.798100   2.420066   1.393056   0.000000
    11  C    5.754962   2.422474   2.791678   2.410665   1.394796
    12  C    4.554188   1.398438   2.414425   2.780238   2.413057
    13  N    4.208259   5.292717   5.367422   6.637289   7.655201
    14  C    3.531436   5.458309   5.573133   6.905184   7.944955
    15  C    2.421629   4.745187   4.796638   6.122419   7.177756
    16  O    4.318602   6.681667   6.871548   8.215615   9.235997
    17  C    5.499178   7.420162   7.613773   8.923743   9.925696
    18  C    5.405282   6.568552   6.728531   7.973328   8.937779
    19  H    6.277843   7.129405   7.120660   8.270088   9.291825
    20  C    5.761478   6.598348   7.000631   8.227422   9.004567
    21  C    6.986805   7.316707   7.673524   8.781317   9.497144
    22  C    7.627249   7.702699   8.229791   9.283636   9.822888
    23  C    7.204091   7.422563   8.166160   9.263947   9.675999
    24  C    6.020263   6.713894   7.537327   8.741117   9.192710
    25  C    5.190226   6.270333   6.928644   8.208192   8.845989
    26  H    2.066950   2.611440   3.335339   4.324162   4.691214
    27  H    2.065805   3.285384   4.409103   5.530058   5.759771
    28  H    3.890869   2.166109   1.094207   2.158058   3.408328
    29  H    6.088804   3.402569   2.151619   1.092506   2.160036
    30  H    7.175529   3.890679   3.410170   2.160058   1.092589
    31  H    6.607331   3.410570   3.884249   3.403100   2.161361
    32  H    4.654064   2.161668   3.406366   3.874196   3.403271
    33  H    2.511363   5.474615   5.599954   6.908480   7.921695
    34  H    3.083420   4.827013   4.553752   5.768340   6.956540
    35  H    6.309453   8.231363   8.282425   9.548581  10.631471
    36  H    5.886801   7.956192   8.308843   9.648601  10.563324
    37  H    7.605841   7.798703   7.977217   9.014679   9.811603
    38  H    8.636319   8.441885   8.917641   9.878550  10.375501
    39  H    7.961914   7.983331   8.815093   9.848273  10.128750
    40  H    5.954266   6.771343   7.751025   8.954478   9.290342
    41  H    4.334001   5.953969   6.651904   7.995000   8.658713
                   11         12         13         14         15
    11  C    0.000000
    12  C    1.392056   0.000000
    13  N    7.603152   6.522248   0.000000
    14  C    7.865605   6.726884   1.273857   0.000000
    15  C    7.144503   6.049439   2.462579   1.495049   0.000000
    16  O    9.096765   7.904966   2.229871   1.332396   2.411889
    17  C    9.778798   8.599478   2.346338   2.221083   3.633159
    18  C    8.818179   7.708479   1.463706   2.220900   3.680707
    19  H    9.298341   8.289691   2.095791   2.989322   4.386876
    20  C    8.695642   7.541105   2.441274   3.256870   4.585908
    21  C    9.210891   8.155750   3.515405   4.518012   5.839991
    22  C    9.385286   8.337137   4.666175   5.618187   6.843218
    23  C    9.057232   7.923843   4.981326   5.739214   6.819458
    24  C    8.531138   7.287268   4.291318   4.809170   5.781316
    25  C    8.341042   7.081522   3.004489   3.466139   4.555085
    26  H    4.209056   3.189301   5.799332   5.375344   4.228032
    27  H    4.954642   3.663343   5.530677   5.136393   4.338639
    28  H    3.885554   3.409914   4.652952   4.823897   4.045909
    29  H    3.403466   3.872625   6.979622   7.261955   6.479836
    30  H    2.160425   3.403905   8.647025   8.965107   8.191187
    31  H    1.092611   2.155395   8.563298   8.838351   8.138718
    32  H    2.155393   1.094146   6.791864   6.966945   6.367594
    33  H    7.835133   6.713580   3.330756   2.139907   1.094879
    34  H    7.139013   6.201622   2.788342   2.098145   1.107115
    35  H   10.592480   9.466795   3.029728   2.897981   4.213364
    36  H   10.289331   9.044225   3.173959   3.011769   4.337827
    37  H    9.666362   8.701050   3.762414   4.851584   6.206572
    38  H    9.968815   9.009548   5.563607   6.589704   7.824934
    39  H    9.413741   8.318999   6.033322   6.774376   7.788911
    40  H    8.491090   7.205569   4.998288   5.327804   6.109230
    41  H    8.135892   6.818236   2.870102   2.926523   3.833072
                   16         17         18         19         20
    16  O    0.000000
    17  C    1.438292   0.000000
    18  C    2.360715   1.548734   0.000000
    19  H    3.154856   2.198325   1.100011   0.000000
    20  C    3.406328   2.580608   1.508921   2.135497   0.000000
    21  C    4.705038   3.695406   2.522551   2.580253   1.393333
    22  C    5.808222   4.867772   3.804564   3.971343   2.418718
    23  C    5.902080   5.174468   4.304143   4.777923   2.795804
    24  C    4.928495   4.446552   3.799609   4.554555   2.419906
    25  C    3.568014   3.123967   2.518570   3.412202   1.398040
    26  H    6.317434   7.422320   7.087989   7.877918   7.286236
    27  H    5.885503   6.857041   6.575527   7.505510   6.477479
    28  H    6.132150   6.888308   6.058563   6.387608   6.535723
    29  H    8.575941   9.267909   8.320044   8.500351   8.714500
    30  H   10.267285  10.941322   9.921868  10.218047   9.997589
    31  H   10.041923  10.701172   9.727259  10.226925   9.494678
    32  H    8.048225   8.712654   7.869670   8.541599   7.531059
    33  H    2.489571   3.899660   4.330098   5.093784   5.233487
    34  H    3.070995   4.163951   4.087160   4.556306   5.164056
    35  H    2.062672   1.099685   2.221917   2.377848   3.409877
    36  H    2.066256   1.097901   2.224780   2.942560   2.652527
    37  H    5.054094   3.941827   2.724942   2.314698   2.154138
    38  H    6.797066   5.779434   4.677131   4.646873   3.406020
    39  H    6.940268   6.237354   5.396348   5.849106   3.888176
    40  H    5.417767   5.138991   4.671734   5.522015   3.408787
    41  H    2.960380   2.932677   2.723516   3.781673   2.163330
                   21         22         23         24         25
    21  C    0.000000
    22  C    1.393372   0.000000
    23  C    2.412440   1.391943   0.000000
    24  C    2.783292   2.411655   1.395029   0.000000
    25  C    2.408267   2.782576   2.411871   1.390020   0.000000
    26  H    8.348637   8.822295   8.325803   7.257317   6.677834
    27  H    7.549574   7.837292   7.124303   5.971358   5.592734
    28  H    7.263443   7.985682   8.046564   7.396958   6.613974
    29  H    9.231972   9.832530   9.941866   9.464571   8.841538
    30  H   10.426234  10.732621  10.624087  10.203805   9.883021
    31  H    9.954716  10.006305   9.597989   9.117941   9.063144
    32  H    8.147854   8.182325   7.600033   6.930958   6.892588
    33  H    6.562291   7.543119   7.422173   6.277065   5.061986
    34  H    6.299196   7.392440   7.526363   6.606326   5.359775
    35  H    4.296903   5.549587   6.029509   5.433726   4.149537
    36  H    3.728758   4.690455   4.822308   4.045477   2.879687
    37  H    1.093247   2.158337   3.402867   3.876364   3.399231
    38  H    2.156116   1.092277   2.158066   3.403399   3.874792
    39  H    3.403330   2.157822   1.092409   2.160061   3.402009
    40  H    3.875751   3.402603   2.160201   1.092497   2.154436
    41  H    3.402045   3.876727   3.401341   2.152135   1.094305
                   26         27         28         29         30
    26  H    0.000000
    27  H    1.795098   0.000000
    28  H    3.602201   4.675769   0.000000
    29  H    5.130301   6.446909   2.472486   0.000000
    30  H    5.675630   6.795913   4.308824   2.492473   0.000000
    31  H    4.955479   5.547798   4.978045   4.309457   2.491895
    32  H    3.342894   3.316172   4.315003   4.966479   4.305333
    33  H    4.437638   4.486143   4.899309   7.276361   8.933808
    34  H    4.551497   5.030480   3.636106   5.949388   7.901920
    35  H    8.242563   7.813784   7.465629   9.787616  11.615725
    36  H    7.832411   7.034493   7.671462  10.077286  11.604315
    37  H    8.966411   8.333118   7.480548   9.347679  10.690945
    38  H    9.746132   8.797956   8.700268  10.389394  11.226681
    39  H    8.933376   7.639599   8.802394  10.576531  11.043661
    40  H    7.077350   5.605124   7.718459   9.763517  10.311754
    41  H    5.963453   4.847620   6.317105   8.650718   9.728170
                   31         32         33         34         35
    31  H    0.000000
    32  H    2.478548   0.000000
    33  H    8.796294   6.954992   0.000000
    34  H    8.187186   6.693367   1.810561   0.000000
    35  H   11.550682   9.654104   4.415472   4.534386   0.000000
    36  H   11.154595   9.030196   4.461329   5.031433   1.794654
    37  H   10.449671   8.805547   6.976779   6.499598   4.292379
    38  H   10.545332   8.869403   8.564617   8.304360   6.353607
    39  H    9.846577   7.891936   8.374483   8.517985   7.092002
    40  H    8.995207   6.702790   6.491407   7.025071   6.173461
    41  H    8.884161   6.619646   4.188989   4.766743   4.028980
                   36         37         38         39         40
    36  H    0.000000
    37  H    4.154066   0.000000
    38  H    5.625307   2.482845   0.000000
    39  H    5.820463   4.305539   2.488257   0.000000
    40  H    4.646246   4.968757   4.307047   2.489348   0.000000
    41  H    2.691824   4.305170   4.968875   4.302059   2.475612
                   41
    41  H    0.000000
 Stoichiometry    C19H18N2O2
 Framework group  C1[X(C19H18N2O2)]
 Deg. of freedom   117
 Full point group                 C1      NOp   1
 Largest Abelian subgroup         C1      NOp   1
 Largest concise Abelian subgroup C1      NOp   1
                         Standard orientation:                         
 ---------------------------------------------------------------------
 Center     Atomic      Atomic             Coordinates (Angstroms)
 Number     Number       Type             X           Y           Z
 ---------------------------------------------------------------------
      1          6           0       -0.730237   -1.716651    0.493126
      2          7           0       -1.059350   -0.612279   -0.048269
      3          6           0       -2.005376    0.079865    0.811304
      4          1           0       -1.502313    0.985058    1.190903
      5          6           0       -2.246537   -0.965687    1.932809
      6          8           0       -1.304044   -2.020330    1.652727
      7          6           0       -3.263609    0.499747    0.093851
      8          6           0       -3.617958   -0.052238   -1.139862
      9          6           0       -4.808003    0.331568   -1.757313
     10          6           0       -5.653695    1.256352   -1.148887
     11          6           0       -5.300584    1.810835    0.081283
     12          6           0       -4.108176    1.438121    0.695340
     13          7           0        1.670178   -0.971369   -1.133512
     14          6           0        1.544956   -2.028548   -0.433938
     15          6           0        0.249016   -2.685739   -0.082070
     16          8           0        2.656635   -2.597256    0.030844
     17          6           0        3.756535   -1.831405   -0.491054
     18          6           0        3.087586   -0.607423   -1.164072
     19          1           0        3.406633   -0.509368   -2.212222
     20          6           0        3.307957    0.709747   -0.461688
     21          6           0        3.827641    1.804087   -1.149966
     22          6           0        3.986338    3.030907   -0.508706
     23          6           0        3.622862    3.170414    0.827680
     24          6           0        3.103514    2.078484    1.523433
     25          6           0        2.946921    0.855812    0.881008
     26          1           0       -3.258857   -1.393174    1.892864
     27          1           0       -2.046330   -0.589261    2.944472
     28          1           0       -2.950326   -0.760431   -1.639883
     29          1           0       -5.067862   -0.094843   -2.729021
     30          1           0       -6.584207    1.554923   -1.637512
     31          1           0       -5.951114    2.547469    0.558754
     32          1           0       -3.823810    1.892608    1.649139
     33          1           0        0.417266   -3.520169    0.606536
     34          1           0       -0.189083   -3.046893   -1.032513
     35          1           0        4.304716   -2.465926   -1.202524
     36          1           0        4.416924   -1.561353    0.343419
     37          1           0        4.090590    1.701965   -2.206194
     38          1           0        4.382750    3.885632   -1.061310
     39          1           0        3.736173    4.134603    1.328538
     40          1           0        2.808935    2.186262    2.569930
     41          1           0        2.518488    0.009643    1.426854
 ---------------------------------------------------------------------
 Rotational constants (GHZ):           0.3996087           0.1412031           0.1210485
 Leave Link  202 at Thu Dec  8 09:05:32 2022, MaxMem=  4194304000 cpu:               0.1 elap:               0.0
 (Enter /software/gaussian/G16-A.03/avx/g16/l301.exe)
 Standard basis: def2SVP (5D, 7F)
 Ernie: Thresh=  0.10000D-02 Tol=  0.10000D-05 Strict=F.
 There are   435 symmetry adapted cartesian basis functions of A   symmetry.
 There are   412 symmetry adapted basis functions of A   symmetry.
   412 basis functions,   701 primitive gaussians,   435 cartesian basis functions
    81 alpha electrons       81 beta electrons
       nuclear repulsion energy      1793.2776344892 Hartrees.
 IExCor= 1009 DFT=T Ex+Corr=PBE1PBE ExCW=0 ScaHFX=  0.250000
 ScaDFX=  0.750000  0.750000  1.000000  1.000000 ScalE2=  1.000000  1.000000
 IRadAn=      5 IRanWt=     -1 IRanGd=            0 ICorTp=0 IEmpDi=141
 NAtoms=   41 NActive=   41 NUniq=   41 SFac= 1.00D+00 NAtFMM=   60 NAOKFM=F Big=F
 Integral buffers will be    131072 words long.
 Raffenetti 2 integral format.
 Two-electron integral symmetry is turned on.
 R6Disp:  Grimme-D3(BJ) Dispersion energy=       -0.0455098981 Hartrees.
 Nuclear repulsion after empirical dispersion term =     1793.2321245911 Hartrees.
 Leave Link  301 at Thu Dec  8 09:05:32 2022, MaxMem=  4194304000 cpu:               0.6 elap:               0.1
 (Enter /software/gaussian/G16-A.03/avx/g16/l302.exe)
 NPDir=0 NMtPBC=     1 NCelOv=     1 NCel=       1 NClECP=     1 NCelD=      1
         NCelK=      1 NCelE2=     1 NClLst=     1 CellRange=     0.0.
 One-electron integrals computed using PRISM.
 One-electron integral symmetry used in STVInt
   1 Symmetry operations used in ECPInt.
 ECPInt:  NShTT=   18528 NPrTT=   67514 LenC2=   16026 LenP2D=   39770.
 LDataN:  DoStor=T MaxTD1= 4 Len=   56
 NBasis=   412 RedAO= T EigKep=  2.84D-04  NBF=   412
 NBsUse=   412 1.00D-06 EigRej= -1.00D+00 NBFU=   412
 Precomputing XC quadrature grid using
 IXCGrd= 4 IRadAn=           5 IRanWt=          -1 IRanGd=           0 AccXCQ= 0.00D+00.
 Generated NRdTot=       0 NPtTot=           0 NUsed=           0 NTot=          32
 NSgBfM=   429   429   429   429   429 MxSgAt=    41 MxSgA2=    41.
 Leave Link  302 at Thu Dec  8 09:05:33 2022, MaxMem=  4194304000 cpu:               7.0 elap:               0.9
 (Enter /software/gaussian/G16-A.03/avx/g16/l303.exe)
 DipDrv:  MaxL=1.
 Leave Link  303 at Thu Dec  8 09:05:33 2022, MaxMem=  4194304000 cpu:               0.5 elap:               0.1
 (Enter /software/gaussian/G16-A.03/avx/g16/l401.exe)
 ExpMin= 1.22D-01 ExpMax= 2.27D+03 ExpMxC= 3.41D+02 IAcc=3 IRadAn=         5 AccDes= 0.00D+00
 Harris functional with IExCor= 1009 and IRadAn=       5 diagonalized for initial guess.
 HarFok:  IExCor= 1009 AccDes= 0.00D+00 IRadAn=         5 IDoV= 1 UseB2=F ITyADJ=14
 ICtDFT=  3500011 ScaDFX=  1.000000  1.000000  1.000000  1.000000
 FoFCou: FMM=F IPFlag=           0 FMFlag=      100000 FMFlg1=           0
         NFxFlg=           0 DoJE=T BraDBF=F KetDBF=T FulRan=T
         wScrn=  0.000000 ICntrl=       500 IOpCl=  0 I1Cent=   200000004 NGrid=           0
         NMat0=    1 NMatS0=      1 NMatT0=    0 NMatD0=    1 NMtDS0=    0 NMtDT0=    0
 Petite list used in FoFCou.
 Harris En= -993.170249440272    
 JPrj=0 DoOrth=F DoCkMO=F.
 Leave Link  401 at Thu Dec  8 09:05:37 2022, MaxMem=  4194304000 cpu:              35.2 elap:               4.4
 (Enter /software/gaussian/G16-A.03/avx/g16/l502.exe)
 Integral symmetry usage will be decided dynamically.
 Closed shell SCF:
 Using DIIS extrapolation, IDIIS=  1040.
 NGot=  4194304000 LenX=  4193917413 LenY=  4193727747
 Requested convergence on RMS density matrix=1.00D-08 within 128 cycles.
 Requested convergence on MAX density matrix=1.00D-06.
 Requested convergence on             energy=1.00D-06.
 No special actions if energy rises.
 Fock matrices will be formed incrementally for  20 cycles.
 Integral accuracy reduced to 1.0D-05 until final iterations.

 Cycle   1  Pass 0  IDiag  1:
 FoFJK:  IHMeth= 1 ICntrl=       0 DoSepK=F KAlg= 0 I1Cent=           0 FoldK=F
 IRaf= 790000000 NMat=       1 IRICut=       1 DoRegI=T DoRafI=F ISym2E= 0 IDoP0=0 IntGTp=1.
 FoFCou: FMM=F IPFlag=           0 FMFlag=      100000 FMFlg1=           0
         NFxFlg=           0 DoJE=F BraDBF=F KetDBF=F FulRan=T
         wScrn=  0.000000 ICntrl=         0 IOpCl=  0 I1Cent=           0 NGrid=           0
         NMat0=    1 NMatS0=      1 NMatT0=    0 NMatD0=    1 NMtDS0=    0 NMtDT0=    0
 Symmetry not used in FoFCou.
 E= -992.586790911008    
 DIIS: error= 2.85D-02 at cycle   1 NSaved=   1.
 NSaved= 1 IEnMin= 1 EnMin= -992.586790911008     IErMin= 1 ErrMin= 2.85D-02
 ErrMax= 2.85D-02  0.00D+00 EMaxC= 1.00D-01 BMatC= 3.48D-01 BMatP= 3.48D-01
 IDIUse=3 WtCom= 7.15D-01 WtEn= 2.85D-01
 Coeff-Com:  0.100D+01
 Coeff-En:   0.100D+01
 Coeff:      0.100D+01
 Gap=     0.279 Goal=   None    Shift=    0.000
 GapD=    0.279 DampG=1.000 DampE=0.500 DampFc=0.5000 IDamp=-1.
 Damping current iteration by 5.00D-01
 RMSDP=4.33D-03 MaxDP=1.30D-01              OVMax= 2.43D-01

 Cycle   2  Pass 0  IDiag  1:
 RMSU=  2.09D-03    CP:  9.69D-01
 E= -992.744991530938     Delta-E=       -0.158200619930 Rises=F Damp=T
 DIIS: error= 6.45D-03 at cycle   2 NSaved=   2.
 NSaved= 2 IEnMin= 2 EnMin= -992.744991530938     IErMin= 2 ErrMin= 6.45D-03
 ErrMax= 6.45D-03  0.00D+00 EMaxC= 1.00D-01 BMatC= 3.75D-02 BMatP= 3.48D-01
 IDIUse=3 WtCom= 9.35D-01 WtEn= 6.45D-02
 Coeff-Com:  0.934D-01 0.907D+00
 Coeff-En:   0.137D+00 0.863D+00
 Coeff:      0.963D-01 0.904D+00
 Gap=     0.284 Goal=   None    Shift=    0.000
 RMSDP=1.49D-03 MaxDP=4.89D-02 DE=-1.58D-01 OVMax= 1.99D-01

 Cycle   3  Pass 0  IDiag  1:
 RMSU=  1.45D-03    CP:  9.50D-01  9.20D-01
 E= -992.916522738077     Delta-E=       -0.171531207139 Rises=F Damp=F
 DIIS: error= 1.26D-02 at cycle   3 NSaved=   3.
 NSaved= 3 IEnMin= 3 EnMin= -992.916522738077     IErMin= 2 ErrMin= 6.45D-03
 ErrMax= 1.26D-02  0.00D+00 EMaxC= 1.00D-01 BMatC= 5.95D-02 BMatP= 3.75D-02
 IDIUse=2 WtCom= 0.00D+00 WtEn= 1.00D+00
 Coeff-En:   0.000D+00 0.000D+00 0.100D+01
 Coeff:      0.000D+00 0.000D+00 0.100D+01
 Gap=     0.237 Goal=   None    Shift=    0.000
 RMSDP=2.04D-03 MaxDP=9.79D-02 DE=-1.72D-01 OVMax= 2.17D-01

 Cycle   4  Pass 0  IDiag  1:
 RMSU=  1.13D-03    CP:  9.53D-01  1.38D+00  3.20D-02
 E= -992.692002180127     Delta-E=        0.224520557950 Rises=F Damp=F
 DIIS: error= 2.87D-02 at cycle   4 NSaved=   4.
 NSaved= 4 IEnMin= 3 EnMin= -992.916522738077     IErMin= 2 ErrMin= 6.45D-03
 ErrMax= 2.87D-02  0.00D+00 EMaxC= 1.00D-01 BMatC= 3.10D-01 BMatP= 3.75D-02
 IDIUse=2 WtCom= 0.00D+00 WtEn= 1.00D+00
 Coeff-En:   0.000D+00 0.000D+00 0.784D+00 0.216D+00
 Coeff:      0.000D+00 0.000D+00 0.784D+00 0.216D+00
 Gap=     0.232 Goal=   None    Shift=    0.000
 RMSDP=1.09D-03 MaxDP=4.82D-02 DE= 2.25D-01 OVMax= 9.09D-02

 Cycle   5  Pass 0  IDiag  1:
 RMSU=  1.89D-04    CP:  9.52D-01  1.12D+00  5.38D-01  5.13D-01
 E= -992.950019853367     Delta-E=       -0.258017673240 Rises=F Damp=F
 DIIS: error= 8.00D-03 at cycle   5 NSaved=   5.
 NSaved= 5 IEnMin= 5 EnMin= -992.950019853367     IErMin= 2 ErrMin= 6.45D-03
 ErrMax= 8.00D-03  0.00D+00 EMaxC= 1.00D-01 BMatC= 2.29D-02 BMatP= 3.75D-02
 IDIUse=3 WtCom= 9.20D-01 WtEn= 8.00D-02
 Coeff-Com: -0.312D-02 0.226D-01 0.277D+00-0.106D+00 0.810D+00
 Coeff-En:   0.000D+00 0.000D+00 0.323D+00 0.000D+00 0.677D+00
 Coeff:     -0.287D-02 0.208D-01 0.281D+00-0.978D-01 0.799D+00
 Gap=     0.242 Goal=   None    Shift=    0.000
 RMSDP=3.81D-04 MaxDP=1.93D-02 DE=-2.58D-01 OVMax= 3.82D-02

 Cycle   6  Pass 0  IDiag  1:
 RMSU=  5.36D-05    CP:  9.51D-01  1.04D+00  7.17D-01  3.19D-01  9.32D-01
 E= -992.970176131576     Delta-E=       -0.020156278209 Rises=F Damp=F
 DIIS: error= 3.25D-04 at cycle   6 NSaved=   6.
 NSaved= 6 IEnMin= 6 EnMin= -992.970176131576     IErMin= 6 ErrMin= 3.25D-04
 ErrMax= 3.25D-04  0.00D+00 EMaxC= 1.00D-01 BMatC= 6.71D-05 BMatP= 2.29D-02
 IDIUse=3 WtCom= 9.97D-01 WtEn= 3.25D-03
 Coeff-Com: -0.296D-02 0.966D-02 0.125D+00-0.692D-01 0.450D+00 0.487D+00
 Coeff-En:   0.000D+00 0.000D+00 0.000D+00 0.000D+00 0.000D+00 0.100D+01
 Coeff:     -0.295D-02 0.963D-02 0.125D+00-0.690D-01 0.449D+00 0.489D+00
 Gap=     0.238 Goal=   None    Shift=    0.000
 RMSDP=3.06D-05 MaxDP=1.35D-03 DE=-2.02D-02 OVMax= 2.23D-03

 Cycle   7  Pass 0  IDiag  1:
 RMSU=  1.59D-05    CP:  9.51D-01  1.04D+00  7.15D-01  3.23D-01  9.38D-01
                    CP:  5.39D-01
 E= -992.970239713190     Delta-E=       -0.000063581613 Rises=F Damp=F
 DIIS: error= 8.78D-05 at cycle   7 NSaved=   7.
 NSaved= 7 IEnMin= 7 EnMin= -992.970239713190     IErMin= 7 ErrMin= 8.78D-05
 ErrMax= 8.78D-05  0.00D+00 EMaxC= 1.00D-01 BMatC= 5.38D-06 BMatP= 6.71D-05
 IDIUse=1 WtCom= 1.00D+00 WtEn= 0.00D+00
 Coeff-Com: -0.917D-03 0.179D-02 0.386D-01-0.236D-01 0.146D+00 0.260D+00
 Coeff-Com:  0.577D+00
 Coeff:     -0.917D-03 0.179D-02 0.386D-01-0.236D-01 0.146D+00 0.260D+00
 Coeff:      0.577D+00
 Gap=     0.238 Goal=   None    Shift=    0.000
 RMSDP=7.23D-06 MaxDP=2.37D-04 DE=-6.36D-05 OVMax= 5.54D-04

 Initial convergence to 1.0D-05 achieved.  Increase integral accuracy.
 Cycle   8  Pass 1  IDiag  1:
 E= -992.970278565848     Delta-E=       -0.000038852659 Rises=F Damp=F
 DIIS: error= 1.10D-04 at cycle   1 NSaved=   1.
 NSaved= 1 IEnMin= 1 EnMin= -992.970278565848     IErMin= 1 ErrMin= 1.10D-04
 ErrMax= 1.10D-04  0.00D+00 EMaxC= 1.00D-01 BMatC= 3.19D-06 BMatP= 3.19D-06
 IDIUse=3 WtCom= 9.99D-01 WtEn= 1.10D-03
 Coeff-Com:  0.100D+01
 Coeff-En:   0.100D+01
 Coeff:      0.100D+01
 Gap=     0.238 Goal=   None    Shift=    0.000
 RMSDP=7.23D-06 MaxDP=2.37D-04 DE=-3.89D-05 OVMax= 3.76D-04

 Cycle   9  Pass 1  IDiag  1:
 RMSU=  9.82D-05    CP:  1.00D+00
 E= -992.970281396440     Delta-E=       -0.000002830592 Rises=F Damp=F
 DIIS: error= 3.05D-05 at cycle   2 NSaved=   2.
 NSaved= 2 IEnMin= 2 EnMin= -992.970281396440     IErMin= 2 ErrMin= 3.05D-05
 ErrMax= 3.05D-05  0.00D+00 EMaxC= 1.00D-01 BMatC= 8.33D-07 BMatP= 3.19D-06
 IDIUse=1 WtCom= 1.00D+00 WtEn= 0.00D+00
 Coeff-Com:  0.260D+00 0.740D+00
 Coeff:      0.260D+00 0.740D+00
 Gap=     0.238 Goal=   None    Shift=    0.000
 RMSDP=5.53D-06 MaxDP=2.36D-04 DE=-2.83D-06 OVMax= 4.31D-04

 Cycle  10  Pass 1  IDiag  1:
 RMSU=  5.41D-06    CP:  1.00D+00  1.01D+00
 E= -992.970281106209     Delta-E=        0.000000290231 Rises=F Damp=F
 DIIS: error= 4.54D-05 at cycle   3 NSaved=   3.
 NSaved= 3 IEnMin= 2 EnMin= -992.970281396440     IErMin= 2 ErrMin= 3.05D-05
 ErrMax= 4.54D-05  0.00D+00 EMaxC= 1.00D-01 BMatC= 1.15D-06 BMatP= 8.33D-07
 IDIUse=1 WtCom= 1.00D+00 WtEn= 0.00D+00
 Coeff-Com:  0.137D-01 0.537D+00 0.449D+00
 Coeff:      0.137D-01 0.537D+00 0.449D+00
 Gap=     0.238 Goal=   None    Shift=    0.000
 RMSDP=3.20D-06 MaxDP=1.44D-04 DE= 2.90D-07 OVMax= 2.92D-04

 Cycle  11  Pass 1  IDiag  1:
 RMSU=  9.78D-07    CP:  1.00D+00  1.02D+00  4.44D-01
 E= -992.970282138754     Delta-E=       -0.000001032545 Rises=F Damp=F
 DIIS: error= 1.07D-05 at cycle   4 NSaved=   4.
 NSaved= 4 IEnMin= 4 EnMin= -992.970282138754     IErMin= 4 ErrMin= 1.07D-05
 ErrMax= 1.07D-05  0.00D+00 EMaxC= 1.00D-01 BMatC= 5.51D-08 BMatP= 8.33D-07
 IDIUse=1 WtCom= 1.00D+00 WtEn= 0.00D+00
 Coeff-Com: -0.465D-02 0.304D+00 0.284D+00 0.416D+00
 Coeff:     -0.465D-02 0.304D+00 0.284D+00 0.416D+00
 Gap=     0.238 Goal=   None    Shift=    0.000
 RMSDP=5.68D-07 MaxDP=2.33D-05 DE=-1.03D-06 OVMax= 4.38D-05

 Cycle  12  Pass 1  IDiag  1:
 RMSU=  2.03D-07    CP:  1.00D+00  1.02D+00  4.73D-01  4.84D-01
 E= -992.970282187295     Delta-E=       -0.000000048542 Rises=F Damp=F
 DIIS: error= 6.62D-07 at cycle   5 NSaved=   5.
 NSaved= 5 IEnMin= 5 EnMin= -992.970282187295     IErMin= 5 ErrMin= 6.62D-07
 ErrMax= 6.62D-07  0.00D+00 EMaxC= 1.00D-01 BMatC= 4.47D-10 BMatP= 5.51D-08
 IDIUse=1 WtCom= 1.00D+00 WtEn= 0.00D+00
 Coeff-Com: -0.274D-02 0.161D+00 0.151D+00 0.230D+00 0.461D+00
 Coeff:     -0.274D-02 0.161D+00 0.151D+00 0.230D+00 0.461D+00
 Gap=     0.238 Goal=   None    Shift=    0.000
 RMSDP=6.03D-08 MaxDP=2.94D-06 DE=-4.85D-08 OVMax= 5.05D-06

 Cycle  13  Pass 1  IDiag  1:
 RMSU=  5.54D-08    CP:  1.00D+00  1.02D+00  4.73D-01  4.85D-01  8.86D-01
 E= -992.970282187699     Delta-E=       -0.000000000403 Rises=F Damp=F
 DIIS: error= 1.48D-07 at cycle   6 NSaved=   6.
 NSaved= 6 IEnMin= 6 EnMin= -992.970282187699     IErMin= 6 ErrMin= 1.48D-07
 ErrMax= 1.48D-07  0.00D+00 EMaxC= 1.00D-01 BMatC= 1.41D-11 BMatP= 4.47D-10
 IDIUse=1 WtCom= 1.00D+00 WtEn= 0.00D+00
 Coeff-Com: -0.849D-03 0.476D-01 0.448D-01 0.696D-01 0.195D+00 0.644D+00
 Coeff:     -0.849D-03 0.476D-01 0.448D-01 0.696D-01 0.195D+00 0.644D+00
 Gap=     0.238 Goal=   None    Shift=    0.000
 RMSDP=1.89D-08 MaxDP=7.62D-07 DE=-4.03D-10 OVMax= 1.44D-06

 Cycle  14  Pass 1  IDiag  1:
 RMSU=  1.60D-08    CP:  1.00D+00  1.02D+00  4.73D-01  4.89D-01  9.08D-01
                    CP:  8.65D-01
 E= -992.970282187707     Delta-E=       -0.000000000008 Rises=F Damp=F
 DIIS: error= 8.13D-08 at cycle   7 NSaved=   7.
 NSaved= 7 IEnMin= 7 EnMin= -992.970282187707     IErMin= 7 ErrMin= 8.13D-08
 ErrMax= 8.13D-08  0.00D+00 EMaxC= 1.00D-01 BMatC= 5.18D-12 BMatP= 1.41D-11
 IDIUse=1 WtCom= 1.00D+00 WtEn= 0.00D+00
 Coeff-Com: -0.239D-04 0.675D-04 0.119D-03 0.124D-02 0.353D-01 0.404D+00
 Coeff-Com:  0.559D+00
 Coeff:     -0.239D-04 0.675D-04 0.119D-03 0.124D-02 0.353D-01 0.404D+00
 Coeff:      0.559D+00
 Gap=     0.238 Goal=   None    Shift=    0.000
 RMSDP=7.69D-09 MaxDP=3.27D-07 DE=-8.19D-12 OVMax= 5.70D-07

 SCF Done:  E(RPBE1PBE) =  -992.970282188     A.U. after   14 cycles
            NFock= 14  Conv=0.77D-08     -V/T= 2.0096
 KE= 9.835216141143D+02 PE=-5.894327964021D+03 EE= 2.124603943128D+03
 Leave Link  502 at Thu Dec  8 09:07:22 2022, MaxMem=  4194304000 cpu:             839.4 elap:             105.0
 (Enter /software/gaussian/G16-A.03/avx/g16/l801.exe)
 DoSCS=F DFT=T ScalE2(SS,OS)=  1.000000  1.000000
 Range of M.O.s used for correlation:     1   412
 NBasis=   412 NAE=    81 NBE=    81 NFC=     0 NFV=     0
 NROrb=    412 NOA=    81 NOB=    81 NVA=   331 NVB=   331

 **** Warning!!: The largest alpha MO coefficient is  0.10713638D+02

 Leave Link  801 at Thu Dec  8 09:07:22 2022, MaxMem=  4194304000 cpu:               0.2 elap:               0.0
 (Enter /software/gaussian/G16-A.03/avx/g16/l1101.exe)
 Using compressed storage, NAtomX=    41.
 Will process     42 centers per pass.
   1 Symmetry operations used in ECPInt.
 ECPInt:  NShTT=   18528 NPrTT=   67514 LenC2=   16026 LenP2D=   39770.
 LDataN:  DoStor=T MaxTD1= 5 Len=  102
 R6Disp: Adding Grimme-D3(BJ) dispersion energy 1st derivatives to the gradient.
 Leave Link 1101 at Thu Dec  8 09:07:23 2022, MaxMem=  4194304000 cpu:               7.2 elap:               0.9
 (Enter /software/gaussian/G16-A.03/avx/g16/l1102.exe)
 Symmetrizing basis deriv contribution to polar:
 IMax=3 JMax=2 DiffMx= 0.00D+00
 Leave Link 1102 at Thu Dec  8 09:07:23 2022, MaxMem=  4194304000 cpu:               0.5 elap:               0.1
 (Enter /software/gaussian/G16-A.03/avx/g16/l1110.exe)
 Forming Gx(P) for the SCF density, NAtomX=    41.
 Integral derivatives from FoFJK, PRISM(SPDF).
 Do as many integral derivatives as possible in FoFJK.
 G2DrvN: MDV=    4194300912.
 G2DrvN: will do    42 centers at a time, making    1 passes.
 Calling FoFCou, ICntrl=  3107 FMM=F I1Cent=   0 AccDes= 0.00D+00.
 FoFJK:  IHMeth= 1 ICntrl=    3107 DoSepK=F KAlg= 0 I1Cent=           0 FoldK=F
 IRaf=         0 NMat=       1 IRICut=       1 DoRegI=T DoRafI=F ISym2E= 0 IDoP0=0 IntGTp=1.
 FoFCou: FMM=F IPFlag=           0 FMFlag=      100000 FMFlg1=           0
         NFxFlg=           0 DoJE=F BraDBF=F KetDBF=F FulRan=T
         wScrn=  0.000000 ICntrl=      3107 IOpCl=  0 I1Cent=           0 NGrid=           0
         NMat0=    1 NMatS0=      1 NMatT0=    0 NMatD0=    1 NMtDS0=    0 NMtDT0=    0
 Symmetry not used in FoFCou.
 End of G2Drv F.D. properties file   721 does not exist.
 End of G2Drv F.D. properties file   722 does not exist.
 End of G2Drv F.D. properties file   788 does not exist.
 Leave Link 1110 at Thu Dec  8 09:13:31 2022, MaxMem=  4194304000 cpu:            2938.8 elap:             367.4
 (Enter /software/gaussian/G16-A.03/avx/g16/l1002.exe)
 Minotr:  Closed shell wavefunction.
          IDoAtm=11111111111111111111111111111111111111111
          Direct CPHF calculation.
          Differentiating once with respect to electric field.
                with respect to dipole field.
          Differentiating once with respect to nuclear coordinates.
          Requested convergence is 1.0D-08 RMS, and 1.0D-07 maximum.
          Secondary convergence is 1.0D-12 RMS, and 1.0D-12 maximum.
          NewPWx=T KeepS1=F KeepF1=F KeepIn=T MapXYZ=F SortEE=F KeepMc=T.
        12443 words used for storage of precomputed grid.
 Keep R1 ints in memory in canonical form, NReq=3660636052.
 FoFCou: FMM=F IPFlag=           0 FMFlag=           0 FMFlg1=           0
         NFxFlg=           0 DoJE=F BraDBF=F KetDBF=F FulRan=T
         wScrn=  0.000000 ICntrl=       600 IOpCl=  0 I1Cent=           0 NGrid=           0
         NMat0=    1 NMatS0=  85078 NMatT0=    0 NMatD0=    1 NMtDS0=    0 NMtDT0=    0
 Symmetry not used in FoFCou.
 Two-electron integral symmetry not used.
          MDV=    4194304000 using IRadAn=       1.
          Solving linear equations simultaneously, MaxMat=       0.
          There are   126 degrees of freedom in the 1st order CPHF.  IDoFFX=6 NUNeed=     3.
    123 vectors produced by pass  0 Test12= 2.68D-14 1.00D-09 XBig12= 2.00D+02 3.97D+00.
 AX will form   123 AO Fock derivatives at one time.
    123 vectors produced by pass  1 Test12= 2.68D-14 1.00D-09 XBig12= 4.53D+01 8.91D-01.
    123 vectors produced by pass  2 Test12= 2.68D-14 1.00D-09 XBig12= 3.80D-01 4.99D-02.
    123 vectors produced by pass  3 Test12= 2.68D-14 1.00D-09 XBig12= 1.77D-03 3.24D-03.
    123 vectors produced by pass  4 Test12= 2.68D-14 1.00D-09 XBig12= 5.11D-06 1.67D-04.
    110 vectors produced by pass  5 Test12= 2.68D-14 1.00D-09 XBig12= 7.52D-09 5.87D-06.
     29 vectors produced by pass  6 Test12= 2.68D-14 1.00D-09 XBig12= 7.96D-12 1.58D-07.
      3 vectors produced by pass  7 Test12= 2.68D-14 1.00D-09 XBig12= 7.83D-15 5.78D-09.
 InvSVY:  IOpt=1 It=  1 EMax= 2.31D-14
 Solved reduced A of dimension   757 with   126 vectors.
 FullF1:  Do perturbations      1 to       3.
 Isotropic polarizability for W=    0.000000      204.85 Bohr**3.
 End of Minotr F.D. properties file   721 does not exist.
 End of Minotr F.D. properties file   722 does not exist.
 End of Minotr F.D. properties file   788 does not exist.
 Leave Link 1002 at Thu Dec  8 09:22:19 2022, MaxMem=  4194304000 cpu:            4224.0 elap:             528.1
 (Enter /software/gaussian/G16-A.03/avx/g16/l601.exe)
 Copying SCF densities to generalized density rwf, IOpCl= 0 IROHF=0.

 **********************************************************************

            Population analysis using the SCF density.

 **********************************************************************

 Orbital symmetries:
       Occupied  (A) (A) (A) (A) (A) (A) (A) (A) (A) (A) (A) (A)
                 (A) (A) (A) (A) (A) (A) (A) (A) (A) (A) (A) (A)
                 (A) (A) (A) (A) (A) (A) (A) (A) (A) (A) (A) (A)
                 (A) (A) (A) (A) (A) (A) (A) (A) (A) (A) (A) (A)
                 (A) (A) (A) (A) (A) (A) (A) (A) (A) (A) (A) (A)
                 (A) (A) (A) (A) (A) (A) (A) (A) (A) (A) (A) (A)
                 (A) (A) (A) (A) (A) (A) (A) (A) (A)
       Virtual   (A) (A) (A) (A) (A) (A) (A) (A) (A) (A) (A) (A)
                 (A) (A) (A) (A) (A) (A) (A) (A) (A) (A) (A) (A)
                 (A) (A) (A) (A) (A) (A) (A) (A) (A) (A) (A) (A)
                 (A) (A) (A) (A) (A) (A) (A) (A) (A) (A) (A) (A)
                 (A) (A) (A) (A) (A) (A) (A) (A) (A) (A) (A) (A)
                 (A) (A) (A) (A) (A) (A) (A) (A) (A) (A) (A) (A)
                 (A) (A) (A) (A) (A) (A) (A) (A) (A) (A) (A) (A)
                 (A) (A) (A) (A) (A) (A) (A) (A) (A) (A) (A) (A)
                 (A) (A) (A) (A) (A) (A) (A) (A) (A) (A) (A) (A)
                 (A) (A) (A) (A) (A) (A) (A) (A) (A) (A) (A) (A)
                 (A) (A) (A) (A) (A) (A) (A) (A) (A) (A) (A) (A)
                 (A) (A) (A) (A) (A) (A) (A) (A) (A) (A) (A) (A)
                 (A) (A) (A) (A) (A) (A) (A) (A) (A) (A) (A) (A)
                 (A) (A) (A) (A) (A) (A) (A) (A) (A) (A) (A) (A)
                 (A) (A) (A) (A) (A) (A) (A) (A) (A) (A) (A) (A)
                 (A) (A) (A) (A) (A) (A) (A) (A) (A) (A) (A) (A)
                 (A) (A) (A) (A) (A) (A) (A) (A) (A) (A) (A) (A)
                 (A) (A) (A) (A) (A) (A) (A) (A) (A) (A) (A) (A)
                 (A) (A) (A) (A) (A) (A) (A) (A) (A) (A) (A) (A)
                 (A) (A) (A) (A) (A) (A) (A) (A) (A) (A) (A) (A)
                 (A) (A) (A) (A) (A) (A) (A) (A) (A) (A) (A) (A)
                 (A) (A) (A) (A) (A) (A) (A) (A) (A) (A) (A) (A)
                 (A) (A) (A) (A) (A) (A) (A) (A) (A) (A) (A) (A)
                 (A) (A) (A) (A) (A) (A) (A) (A) (A) (A) (A) (A)
                 (A) (A) (A) (A) (A) (A) (A) (A) (A) (A) (A) (A)
                 (A) (A) (A) (A) (A) (A) (A) (A) (A) (A) (A) (A)
                 (A) (A) (A) (A) (A) (A) (A) (A) (A) (A) (A) (A)
                 (A) (A) (A) (A) (A) (A) (A)
 The electronic state is 1-A.
 Alpha  occ. eigenvalues --  -19.25195 -19.25160 -14.35964 -14.35810 -10.32202
 Alpha  occ. eigenvalues --  -10.32155 -10.29310 -10.29308 -10.26984 -10.26868
 Alpha  occ. eigenvalues --  -10.26335 -10.24225 -10.24114 -10.23851 -10.23784
 Alpha  occ. eigenvalues --  -10.23734 -10.23719 -10.23705 -10.23646 -10.23594
 Alpha  occ. eigenvalues --  -10.23427 -10.23383 -10.23076  -1.12557  -1.12318
 Alpha  occ. eigenvalues --   -0.92654  -0.91850  -0.87669  -0.87231  -0.83673
 Alpha  occ. eigenvalues --   -0.80020  -0.77128  -0.76188  -0.75765  -0.74995
 Alpha  occ. eigenvalues --   -0.72275  -0.66630  -0.66131  -0.62139  -0.61920
 Alpha  occ. eigenvalues --   -0.60124  -0.59840  -0.59261  -0.56342  -0.54280
 Alpha  occ. eigenvalues --   -0.53583  -0.52775  -0.51997  -0.50585  -0.49505
 Alpha  occ. eigenvalues --   -0.48652  -0.47488  -0.46707  -0.46255  -0.45477
 Alpha  occ. eigenvalues --   -0.44852  -0.44615  -0.43341  -0.43001  -0.42280
 Alpha  occ. eigenvalues --   -0.41986  -0.41367  -0.40552  -0.39756  -0.38794
 Alpha  occ. eigenvalues --   -0.37874  -0.37118  -0.37038  -0.36687  -0.35816
 Alpha  occ. eigenvalues --   -0.35159  -0.35058  -0.34975  -0.28516  -0.26852
 Alpha  occ. eigenvalues --   -0.26719  -0.26334  -0.26238  -0.25779  -0.25456
 Alpha  occ. eigenvalues --   -0.24709
 Alpha virt. eigenvalues --   -0.00924  -0.00420  -0.00292   0.00031   0.01402
 Alpha virt. eigenvalues --    0.03912   0.06756   0.07657   0.08222   0.08254
 Alpha virt. eigenvalues --    0.09175   0.10198   0.11310   0.11513   0.12307
 Alpha virt. eigenvalues --    0.12495   0.12674   0.13071   0.13260   0.14609
 Alpha virt. eigenvalues --    0.14970   0.15487   0.15624   0.15817   0.16490
 Alpha virt. eigenvalues --    0.17267   0.18177   0.18480   0.20379   0.22138
 Alpha virt. eigenvalues --    0.22665   0.24860   0.25807   0.26259   0.27256
 Alpha virt. eigenvalues --    0.27447   0.29753   0.30168   0.30662   0.31086
 Alpha virt. eigenvalues --    0.31400   0.32028   0.32817   0.33341   0.34034
 Alpha virt. eigenvalues --    0.34953   0.37199   0.37501   0.39372   0.41098
 Alpha virt. eigenvalues --    0.41804   0.42376   0.42809   0.43258   0.43609
 Alpha virt. eigenvalues --    0.44216   0.44633   0.45192   0.46002   0.46955
 Alpha virt. eigenvalues --    0.47730   0.47894   0.48857   0.49836   0.50177
 Alpha virt. eigenvalues --    0.50538   0.50775   0.50888   0.51291   0.52482
 Alpha virt. eigenvalues --    0.53717   0.54612   0.55501   0.55909   0.56491
 Alpha virt. eigenvalues --    0.56858   0.57214   0.58108   0.58341   0.59005
 Alpha virt. eigenvalues --    0.59145   0.60583   0.61313   0.62384   0.62690
 Alpha virt. eigenvalues --    0.63375   0.63584   0.64369   0.64657   0.64996
 Alpha virt. eigenvalues --    0.65621   0.65895   0.66200   0.66313   0.66514
 Alpha virt. eigenvalues --    0.67521   0.67677   0.67883   0.68370   0.68793
 Alpha virt. eigenvalues --    0.69165   0.69292   0.69895   0.70126   0.70471
 Alpha virt. eigenvalues --    0.71270   0.72306   0.72886   0.73273   0.73845
 Alpha virt. eigenvalues --    0.74800   0.75953   0.76070   0.76308   0.77070
 Alpha virt. eigenvalues --    0.77453   0.77783   0.78982   0.79302   0.80073
 Alpha virt. eigenvalues --    0.81066   0.82078   0.82981   0.84412   0.85771
 Alpha virt. eigenvalues --    0.86281   0.87516   0.87572   0.89537   0.90780
 Alpha virt. eigenvalues --    0.93022   0.93345   0.95702   0.96473   0.97540
 Alpha virt. eigenvalues --    1.00240   1.01786   1.03968   1.05246   1.06900
 Alpha virt. eigenvalues --    1.08228   1.09013   1.09354   1.11024   1.11653
 Alpha virt. eigenvalues --    1.12969   1.18679   1.20888   1.21156   1.22635
 Alpha virt. eigenvalues --    1.23687   1.24752   1.25484   1.25590   1.26493
 Alpha virt. eigenvalues --    1.27388   1.27759   1.28158   1.28581   1.29622
 Alpha virt. eigenvalues --    1.30647   1.31374   1.32462   1.32889   1.34002
 Alpha virt. eigenvalues --    1.34811   1.36734   1.38723   1.39821   1.42173
 Alpha virt. eigenvalues --    1.43798   1.50250   1.50773   1.52743   1.55058
 Alpha virt. eigenvalues --    1.55610   1.57124   1.59630   1.60402   1.62355
 Alpha virt. eigenvalues --    1.63255   1.63925   1.66209   1.66659   1.67435
 Alpha virt. eigenvalues --    1.68430   1.69328   1.69962   1.70179   1.71162
 Alpha virt. eigenvalues --    1.71781   1.72089   1.73145   1.73412   1.73986
 Alpha virt. eigenvalues --    1.74945   1.75841   1.76032   1.76317   1.76701
 Alpha virt. eigenvalues --    1.76885   1.76943   1.77597   1.77914   1.78391
 Alpha virt. eigenvalues --    1.79239   1.79893   1.80867   1.81297   1.82979
 Alpha virt. eigenvalues --    1.84320   1.84559   1.85047   1.85463   1.86991
 Alpha virt. eigenvalues --    1.87282   1.88560   1.89008   1.89712   1.91936
 Alpha virt. eigenvalues --    1.92422   1.93391   1.94215   1.94659   1.96088
 Alpha virt. eigenvalues --    1.96256   1.97147   1.97287   1.97813   1.98925
 Alpha virt. eigenvalues --    1.99292   2.00089   2.00386   2.00727   2.01287
 Alpha virt. eigenvalues --    2.03173   2.03970   2.05441   2.07185   2.10032
 Alpha virt. eigenvalues --    2.10825   2.12006   2.12935   2.13242   2.14733
 Alpha virt. eigenvalues --    2.15173   2.16275   2.17215   2.17636   2.18535
 Alpha virt. eigenvalues --    2.19085   2.19495   2.22137   2.25622   2.28115
 Alpha virt. eigenvalues --    2.29080   2.29933   2.31223   2.31508   2.32253
 Alpha virt. eigenvalues --    2.32371   2.33909   2.34860   2.35425   2.36158
 Alpha virt. eigenvalues --    2.36285   2.38281   2.38868   2.40247   2.41109
 Alpha virt. eigenvalues --    2.43031   2.45043   2.49307   2.52222   2.54426
 Alpha virt. eigenvalues --    2.55717   2.56484   2.57548   2.61088   2.62877
 Alpha virt. eigenvalues --    2.63406   2.63956   2.64418   2.66241   2.67122
 Alpha virt. eigenvalues --    2.67405   2.68187   2.70706   2.72563   2.74070
 Alpha virt. eigenvalues --    2.74700   2.74886   2.75442   2.75801   2.78904
 Alpha virt. eigenvalues --    2.82278   2.83348   2.84727   2.86673   2.88514
 Alpha virt. eigenvalues --    2.89121   2.89444   2.90240   2.90733   2.91714
 Alpha virt. eigenvalues --    2.92796   2.94119   2.97551   2.99313   3.00375
 Alpha virt. eigenvalues --    3.02337   3.03412   3.05421   3.06106   3.08784
 Alpha virt. eigenvalues --    3.10469   3.11630   3.14722   3.15238   3.15757
 Alpha virt. eigenvalues --    3.16613   3.24492   3.25534   3.28833   3.31242
 Alpha virt. eigenvalues --    3.39538   3.45663   3.61166   3.62036   3.66146
 Alpha virt. eigenvalues --    3.66224
     Molecular Orbital Coefficients:
                          77        78        79        80        81
                           O         O         O         O         O
     Eigenvalues --    -0.26334  -0.26238  -0.25779  -0.25456  -0.24709
   1 1   C  1S         -0.00776   0.01521  -0.01203  -0.01937  -0.01263
   2        2S          0.02348  -0.04338   0.03124   0.05382   0.02715
   3        3S         -0.03821  -0.05579  -0.01350  -0.05247   0.05052
   4        4PX         0.00268  -0.08964   0.00117   0.00079  -0.14717
   5        4PY         0.00740  -0.10008   0.04446  -0.02259  -0.03517
   6        4PZ        -0.00938  -0.06995  -0.01697  -0.02059  -0.07482
   7        5PX        -0.01911  -0.07777  -0.00675  -0.05814  -0.10602
   8        5PY         0.00635  -0.02896   0.01291   0.00141  -0.01849
   9        5PZ         0.02390  -0.04996   0.03555   0.03352  -0.03911
  10        6D 0       -0.00170   0.02371  -0.00821  -0.00231   0.00627
  11        6D+1        0.00064   0.01285   0.00311   0.00306   0.01433
  12        6D-1        0.00126  -0.00724   0.00459   0.00296   0.00535
  13        6D+2       -0.00011   0.01049  -0.00379  -0.00071   0.00791
  14        6D-2       -0.00165  -0.00902  -0.00589  -0.00514  -0.01908
  15 2   N  1S         -0.00732   0.03297  -0.04108  -0.01296  -0.03996
  16        2S         -0.01577   0.06597  -0.08948  -0.02644  -0.08322
  17        3S         -0.00730   0.10299  -0.10093  -0.03327  -0.14557
  18        4PX         0.01373   0.14701   0.04340   0.04659   0.26323
  19        4PY         0.01520   0.09096   0.06364   0.02033   0.16637
  20        4PZ        -0.03256   0.29906  -0.15529  -0.05282  -0.03659
  21        5PX        -0.01260  -0.12022  -0.01744  -0.02318  -0.18824
  22        5PY        -0.01276  -0.07098  -0.04725  -0.02261  -0.11259
  23        5PZ         0.02113  -0.21169   0.09910   0.03008   0.01300
  24        6D 0        0.00096  -0.01400   0.00543   0.00047  -0.00412
  25        6D+1       -0.00037  -0.00351  -0.00468  -0.00199  -0.01191
  26        6D-1       -0.00124   0.00498  -0.00608   0.00004  -0.00272
  27        6D+2       -0.00099  -0.00530   0.00141  -0.00164  -0.00542
  28        6D-2       -0.00046   0.00744   0.00055   0.00057   0.01038
  29 3   C  1S         -0.00311   0.01163  -0.01338  -0.00417  -0.00974
  30        2S          0.00825  -0.03136   0.03610   0.00882   0.01440
  31        3S          0.00306  -0.02217   0.04737   0.01719   0.07176
  32        4PX         0.00944   0.02537   0.00725   0.03818   0.11076
  33        4PY         0.00605   0.03385  -0.06226   0.03052   0.06388
  34        4PZ        -0.00699   0.10478  -0.03120  -0.03067  -0.02864
  35        5PX         0.01036  -0.02953  -0.01154   0.02566   0.00955
  36        5PY         0.00679   0.04723  -0.04697   0.00019  -0.00537
  37        5PZ         0.01044  -0.00796  -0.00551   0.00018  -0.01436
  38        6D 0       -0.00040   0.01028  -0.00106  -0.00442  -0.00513
  39        6D+1       -0.00029  -0.00200   0.00250   0.00028   0.00181
  40        6D-1        0.00035   0.00088  -0.00529   0.00717   0.01675
  41        6D+2        0.00045  -0.01531  -0.00664   0.00237  -0.00942
  42        6D-2       -0.00136   0.01087  -0.01012   0.00089   0.00209
  43 4   H  1S          0.00497   0.08877  -0.05196   0.04765   0.15026
  44        2S         -0.01301   0.07249  -0.03445   0.02634   0.10159
  45        3PX         0.00041  -0.00247  -0.00009   0.00013  -0.00186
  46        3PY        -0.00051  -0.00275   0.00158  -0.00125  -0.00374
  47        3PZ        -0.00016   0.00253  -0.00096  -0.00101  -0.00131
  48 5   C  1S          0.00402  -0.01992  -0.00729   0.01435   0.02683
  49        2S         -0.00876   0.04757   0.01761  -0.03223  -0.06712
  50        3S         -0.02082   0.10370   0.00689  -0.07566  -0.11788
  51        4PX        -0.00158  -0.04991  -0.02141   0.00549  -0.05507
  52        4PY        -0.00964   0.01408   0.01645  -0.05727  -0.09392
  53        4PZ         0.00637  -0.11414  -0.01629   0.04672   0.05522
  54        5PX        -0.01059   0.00328  -0.00245  -0.00099  -0.00333
  55        5PY         0.00181   0.04166  -0.01811  -0.03413  -0.05905
  56        5PZ         0.01281  -0.06636   0.00680   0.03897   0.05282
  57        6D 0       -0.00049  -0.00771   0.00298  -0.00143  -0.00456
  58        6D+1       -0.00012  -0.00049  -0.00094   0.00107   0.00097
  59        6D-1       -0.00009  -0.00591  -0.00252   0.00079  -0.00238
  60        6D+2       -0.00017   0.00799  -0.00006   0.00127   0.00916
  61        6D-2       -0.00028   0.00143   0.00370  -0.00148   0.00153
  62 6   O  1S         -0.00063   0.00601  -0.00387  -0.00817  -0.00547
  63        2S         -0.00247   0.01489  -0.01114  -0.01643  -0.01159
  64        3S          0.00130   0.01614  -0.02633  -0.03928  -0.03289
  65        4PX        -0.01088   0.21355   0.00879  -0.00704   0.15400
  66        4PY        -0.00502   0.15132  -0.07624   0.03091   0.10050
  67        4PZ         0.01006   0.10354   0.05735   0.02969   0.14574
  68        5PX        -0.01180   0.17888   0.00677  -0.00405   0.12924
  69        5PY        -0.00128   0.11389  -0.05876   0.02396   0.08251
  70        5PZ         0.00968   0.08504   0.04003   0.02836   0.12209
  71        6D 0       -0.00001  -0.00393  -0.00028   0.00004  -0.00020
  72        6D+1       -0.00010  -0.00145  -0.00020  -0.00126  -0.00279
  73        6D-1        0.00015  -0.00033   0.00097   0.00103   0.00108
  74        6D+2        0.00024  -0.00298   0.00115   0.00016  -0.00142
  75        6D-2       -0.00017   0.00196   0.00066  -0.00031   0.00308
  76 7   C  1S         -0.00066   0.02440  -0.00588   0.00094   0.01556
  77        2S          0.00224  -0.06384   0.01854  -0.00385  -0.03977
  78        3S          0.01264  -0.11947   0.01453   0.01567  -0.05906
  79        4PX         0.00478  -0.02907   0.13004  -0.07156  -0.11634
  80        4PY        -0.00118   0.12778   0.17103  -0.10311  -0.06929
  81        4PZ        -0.00441  -0.12365  -0.09836   0.06664   0.02571
  82        5PX         0.01283  -0.03515   0.08032  -0.03955  -0.09468
  83        5PY        -0.00910   0.09931   0.12625  -0.07867  -0.02916
  84        5PZ        -0.01311  -0.06646  -0.08286   0.04972   0.02623
  85        6D 0        0.01198   0.00167   0.00344  -0.00146  -0.00198
  86        6D+1       -0.00836   0.00050  -0.00173  -0.00117  -0.00282
  87        6D-1       -0.00487   0.00008  -0.00371   0.00233   0.00415
  88        6D+2        0.01069  -0.00355  -0.00103   0.00326   0.00410
  89        6D-2       -0.00252   0.00092  -0.00487   0.00217   0.00345
  90 8   C  1S         -0.00119   0.00381  -0.00081  -0.00084   0.00039
  91        2S          0.00562  -0.00830   0.00448   0.00166  -0.00037
  92        3S         -0.01594  -0.01349   0.00233   0.00758   0.02296
  93        4PX         0.12919   0.01330   0.09701  -0.02969  -0.02193
  94        4PY         0.20132   0.07266   0.12975  -0.05375  -0.02726
  95        4PZ        -0.12263   0.01956  -0.10112   0.03072   0.03993
  96        5PX         0.08076   0.03276   0.04907  -0.03061  -0.02512
  97        5PY         0.13592   0.05561   0.08358  -0.03825  -0.02998
  98        5PZ        -0.09656   0.04103  -0.08564   0.01756   0.03417
  99        6D 0        0.00330  -0.00518  -0.00736   0.00523   0.00477
 100        6D+1        0.00259   0.00001   0.00343  -0.00163  -0.00198
 101        6D-1       -0.00478   0.00515   0.00469  -0.00403  -0.00352
 102        6D+2       -0.00749   0.00044  -0.00149  -0.00077  -0.00158
 103        6D-2       -0.00567   0.00332   0.00369  -0.00379  -0.00465
 104 9   C  1S         -0.00017   0.00059  -0.00006   0.00047   0.00134
 105        2S          0.00075  -0.00088   0.00006  -0.00114  -0.00208
 106        3S         -0.00629   0.03071  -0.01998  -0.00912  -0.00913
 107        4PX         0.13255  -0.04524  -0.01888   0.03571   0.03612
 108        4PY         0.20556  -0.06906  -0.02461   0.06055   0.06915
 109        4PZ        -0.12588   0.02359   0.02082  -0.03654  -0.04862
 110        5PX         0.09154  -0.02890  -0.01635   0.02190   0.01950
 111        5PY         0.14718  -0.04756  -0.01336   0.04540   0.05881
 112        5PZ        -0.08782   0.02287   0.00808  -0.02729  -0.03856
 113        6D 0       -0.00439   0.00349  -0.00016  -0.00121  -0.00041
 114        6D+1       -0.00138  -0.00140  -0.00649   0.00325   0.00343
 115        6D-1        0.00530   0.00124   0.00330  -0.00107  -0.00042
 116        6D+2        0.00613   0.00529   0.01171  -0.00627  -0.00567
 117        6D-2        0.00559   0.00358   0.00464  -0.00220  -0.00081
 118 10  C  1S         -0.00039   0.00474  -0.00148  -0.00017   0.00205
 119        2S          0.00078  -0.01081   0.00291   0.00046  -0.00464
 120        3S          0.00352  -0.03081   0.01279  -0.00047  -0.01753
 121        4PX         0.00524  -0.07307  -0.10487   0.07025   0.06228
 122        4PY         0.00733  -0.09070  -0.17147   0.10549   0.09931
 123        4PZ        -0.00433   0.07076   0.10289  -0.06778  -0.06095
 124        5PX         0.00421  -0.05393  -0.07343   0.04983   0.04253
 125        5PY         0.00565  -0.06527  -0.12237   0.07723   0.07398
 126        5PZ        -0.00149   0.04408   0.07728  -0.04693  -0.04264
 127        6D 0        0.01134   0.00066   0.00477  -0.00057   0.00060
 128        6D+1       -0.00861   0.00083  -0.00147  -0.00103  -0.00189
 129        6D-1       -0.00507  -0.00064  -0.00348   0.00116   0.00080
 130        6D+2        0.01043  -0.00280  -0.00032   0.00224   0.00258
 131        6D-2       -0.00258  -0.00132  -0.00326   0.00140   0.00090
 132 11  C  1S          0.00005   0.00413  -0.00025   0.00033   0.00317
 133        2S         -0.00051  -0.01023   0.00059  -0.00101  -0.00819
 134        3S         -0.00188  -0.00483  -0.00059   0.00120   0.00805
 135        4PX        -0.12807  -0.04422  -0.08539   0.02452  -0.00327
 136        4PY        -0.19681  -0.03024  -0.13159   0.04069   0.02280
 137        4PZ         0.12645   0.01351   0.08690  -0.02616  -0.01610
 138        5PX        -0.08974  -0.03316  -0.05946   0.02023   0.00474
 139        5PY        -0.13581  -0.02709  -0.09251   0.02813   0.01003
 140        5PZ         0.09139   0.00195   0.06485  -0.01697  -0.01221
 141        6D 0        0.00431  -0.00563  -0.00745   0.00550   0.00496
 142        6D+1        0.00247   0.00060   0.00233  -0.00112  -0.00125
 143        6D-1       -0.00512   0.00414   0.00522  -0.00435  -0.00443
 144        6D+2       -0.00703   0.00104  -0.00055  -0.00124  -0.00184
 145        6D-2       -0.00551   0.00315   0.00446  -0.00417  -0.00503
 146 12  C  1S          0.00089  -0.00112  -0.00173  -0.00025  -0.00197
 147        2S         -0.00383   0.00098   0.00426   0.00016   0.00214
 148        3S          0.01669  -0.00224   0.00089   0.00014  -0.02049
 149        4PX        -0.13118   0.05778   0.02970  -0.04248  -0.03814
 150        4PY        -0.19799   0.05245   0.03906  -0.07031  -0.09411
 151        4PZ         0.13504  -0.04290  -0.02686   0.04377   0.04758
 152        5PX        -0.08884   0.03050   0.02240  -0.02795  -0.02755
 153        5PY        -0.14941   0.04801   0.02976  -0.05247  -0.06300
 154        5PZ         0.09225  -0.03016  -0.01513   0.03068   0.04386
 155        6D 0       -0.00409   0.00382   0.00039  -0.00144  -0.00049
 156        6D+1       -0.00197  -0.00389  -0.00619   0.00319   0.00202
 157        6D-1        0.00488   0.00320   0.00274  -0.00067   0.00128
 158        6D+2        0.00625   0.00376   0.01191  -0.00587  -0.00558
 159        6D-2        0.00556   0.00339   0.00432  -0.00147   0.00061
 160 13  N  1S         -0.00424  -0.02765   0.03716   0.00543   0.03650
 161        2S         -0.00695  -0.05878   0.07590   0.01052   0.07640
 162        3S         -0.01149  -0.06382   0.10398  -0.00345   0.12837
 163        4PX        -0.06767  -0.09757   0.19278   0.06657   0.13810
 164        4PY         0.05682   0.10553  -0.11186   0.12794  -0.18382
 165        4PZ         0.05654   0.01644   0.03195   0.23019  -0.09600
 166        5PX         0.04663   0.04058  -0.11969  -0.05171  -0.08621
 167        5PY        -0.04442  -0.08486   0.08271  -0.09021   0.12048
 168        5PZ        -0.04254  -0.00965  -0.02299  -0.17316   0.07413
 169        6D 0       -0.00417  -0.00535   0.00473  -0.01110   0.01102
 170        6D+1        0.00028   0.00170  -0.00383  -0.00392  -0.00148
 171        6D-1        0.00067  -0.00094   0.00326   0.00701  -0.00138
 172        6D+2       -0.00036  -0.00089  -0.00295  -0.00950   0.00259
 173        6D-2       -0.00229  -0.00325   0.00657  -0.00075   0.00819
 174 14  C  1S         -0.00507  -0.02189   0.02138   0.00513   0.00486
 175        2S          0.01312   0.06133  -0.05838  -0.01613  -0.00857
 176        3S         -0.01673  -0.10256   0.03094  -0.02002  -0.03667
 177        4PX         0.00471  -0.02130  -0.00725  -0.00195  -0.04039
 178        4PY        -0.02158  -0.01863  -0.00915  -0.08918   0.03283
 179        4PZ        -0.02744  -0.04692   0.02581  -0.13597   0.12176
 180        5PX         0.02693   0.10315  -0.06049   0.02060  -0.02017
 181        5PY        -0.01405  -0.02731   0.00939  -0.04424   0.02692
 182        5PZ        -0.01723  -0.02874   0.00569  -0.10762   0.07593
 183        6D 0        0.00626   0.00681  -0.00361   0.01994  -0.01360
 184        6D+1       -0.00084  -0.00308   0.00731   0.00690   0.00239
 185        6D-1       -0.00221  -0.00314   0.00056  -0.00938   0.00482
 186        6D+2        0.00382   0.00106  -0.00154   0.00907  -0.00695
 187        6D-2        0.00592   0.01023  -0.01485  -0.00054  -0.01166
 188 15  C  1S         -0.00426   0.00354   0.00463   0.00222  -0.00141
 189        2S          0.00698  -0.01906  -0.00983  -0.01039   0.00387
 190        3S          0.08051   0.15450  -0.04703   0.10252   0.01884
 191        4PX         0.00936   0.05421  -0.04300  -0.01811  -0.00985
 192        4PY         0.01776   0.01099  -0.01126   0.01918   0.00918
 193        4PZ         0.00405   0.02338   0.00714   0.04629   0.01423
 194        5PX         0.00191   0.07536  -0.05996  -0.01491   0.00055
 195        5PY         0.03724   0.08704  -0.01481   0.06892   0.01068
 196        5PZ         0.00421   0.01003   0.00832   0.04824   0.00933
 197        6D 0       -0.00015  -0.00224   0.00001   0.00027  -0.00407
 198        6D+1       -0.00121  -0.00318   0.00136  -0.00587   0.00325
 199        6D-1        0.00032  -0.00491   0.00002  -0.00259  -0.00220
 200        6D+2        0.00089   0.00538  -0.00134   0.00244   0.00402
 201        6D-2       -0.00079  -0.00161  -0.00046  -0.00445   0.00167
 202 16  O  1S         -0.00330  -0.00848   0.01005   0.00395   0.00300
 203        2S         -0.00693  -0.01803   0.02253   0.00856   0.00829
 204        3S         -0.01668  -0.04989   0.04769   0.01121   0.01503
 205        4PX         0.00940   0.02945  -0.03849  -0.02660  -0.00363
 206        4PY         0.04772   0.01841  -0.00226   0.11923  -0.06123
 207        4PZ         0.07001   0.08700  -0.07186   0.18486  -0.17056
 208        5PX         0.00804   0.02389  -0.03075  -0.02558  -0.00037
 209        5PY         0.03870   0.01516  -0.00435   0.09590  -0.05378
 210        5PZ         0.05685   0.07506  -0.05785   0.15704  -0.14043
 211        6D 0       -0.00156  -0.00179   0.00157  -0.00268   0.00235
 212        6D+1       -0.00041  -0.00031   0.00022   0.00050  -0.00112
 213        6D-1        0.00077   0.00144  -0.00157   0.00121  -0.00195
 214        6D+2        0.00003   0.00072  -0.00158  -0.00269   0.00076
 215        6D-2       -0.00075   0.00048   0.00115   0.00090   0.00102
 216 17  C  1S          0.00980   0.00435  -0.02255  -0.01664  -0.01169
 217        2S         -0.02361  -0.00752   0.05544   0.04079   0.03177
 218        3S         -0.03925  -0.05519   0.10869   0.07827   0.04676
 219        4PX         0.01704   0.01179  -0.04318  -0.02032  -0.03626
 220        4PY        -0.05722  -0.04192   0.10267   0.03679   0.05556
 221        4PZ        -0.00598   0.00740  -0.02479  -0.06090   0.01277
 222        5PX         0.01132   0.01981  -0.02675  -0.01043  -0.01778
 223        5PY        -0.02995  -0.04029   0.07823   0.04126   0.03914
 224        5PZ         0.00940   0.02271  -0.03298  -0.01421  -0.02110
 225        6D 0        0.00069   0.00188  -0.00122   0.00299  -0.00306
 226        6D+1       -0.00342  -0.00207   0.00160  -0.00689   0.00434
 227        6D-1        0.00153   0.00001  -0.00209  -0.00068  -0.00171
 228        6D+2        0.00068   0.00058  -0.00090   0.00103  -0.00194
 229        6D-2       -0.00169  -0.00231   0.00183  -0.00595   0.00575
 230 18  C  1S         -0.00149  -0.00942   0.01254   0.00313   0.01017
 231        2S          0.00647   0.02405  -0.03130   0.00027  -0.02995
 232        3S         -0.01683   0.06329  -0.05089  -0.07442   0.01200
 233        4PX        -0.03603  -0.04691   0.09623   0.03987   0.06046
 234        4PY         0.03070   0.01754  -0.03257   0.02628  -0.03898
 235        4PZ         0.01415   0.01182   0.01077   0.08166  -0.03476
 236        5PX        -0.01089  -0.01614   0.02948  -0.00607   0.03211
 237        5PY        -0.00817  -0.01430   0.02395  -0.01630   0.04770
 238        5PZ        -0.00230   0.01269  -0.01212  -0.01085  -0.00463
 239        6D 0       -0.00181  -0.00216   0.00136  -0.00528   0.00399
 240        6D+1        0.00299  -0.00062   0.00172   0.00884  -0.00277
 241        6D-1        0.00372   0.00219  -0.00354   0.00428  -0.00509
 242        6D+2        0.00100  -0.00281  -0.00231  -0.01140   0.00554
 243        6D-2        0.00785   0.00569  -0.01542  -0.00554  -0.01016
 244 19  H  1S         -0.02757  -0.01604  -0.00229  -0.09872   0.04979
 245        2S         -0.01855  -0.01874   0.00615  -0.06369   0.03817
 246        3PX        -0.00070  -0.00092   0.00202   0.00097   0.00122
 247        3PY         0.00104   0.00080  -0.00162   0.00085  -0.00221
 248        3PZ        -0.00082  -0.00043   0.00032  -0.00201   0.00132
 249 20  C  1S         -0.00837  -0.00821   0.00763  -0.01990   0.01796
 250        2S          0.02069   0.02447  -0.02270   0.05205  -0.05101
 251        3S          0.03712  -0.00215   0.00254   0.07778  -0.03550
 252        4PX         0.09085  -0.02992  -0.12756  -0.20024   0.03122
 253        4PY        -0.06551  -0.02379   0.07207  -0.01808   0.06228
 254        4PZ         0.01178  -0.02182  -0.02644  -0.09446   0.03692
 255        5PX         0.06096  -0.01983  -0.10172  -0.15383   0.00966
 256        5PY        -0.05488  -0.00873   0.04105  -0.05419   0.06390
 257        5PZ         0.00170  -0.01148   0.00850  -0.06187   0.07370
 258        6D 0       -0.00071  -0.00210  -0.00089  -0.00386   0.00125
 259        6D+1        0.00009  -0.00331  -0.00231  -0.00408  -0.00020
 260        6D-1        0.00194   0.00230  -0.00169   0.00108  -0.00160
 261        6D+2        0.00113   0.00138  -0.00117  -0.00354   0.00187
 262        6D-2        0.00293   0.00195  -0.00479  -0.00413  -0.00114
 263 21  C  1S          0.00151   0.00082  -0.00173   0.00115  -0.00214
 264        2S         -0.00372  -0.00180   0.00473  -0.00025   0.00436
 265        3S          0.00302  -0.00281   0.02418   0.03622   0.01015
 266        4PX         0.08434   0.06130  -0.08620  -0.06190  -0.01150
 267        4PY        -0.01090  -0.00868   0.01193   0.03631  -0.01716
 268        4PZ         0.01996   0.01536  -0.02245  -0.02674   0.00403
 269        5PX         0.05871   0.04166  -0.06206  -0.05063  -0.00613
 270        5PY        -0.01032  -0.01823   0.01560   0.02525  -0.01296
 271        5PZ         0.01802   0.00872  -0.01203  -0.00277  -0.00402
 272        6D 0       -0.00001  -0.00028  -0.00025  -0.00284   0.00149
 273        6D+1        0.00186   0.00178  -0.00172   0.00013  -0.00097
 274        6D-1       -0.00095   0.00122   0.00179   0.00467  -0.00145
 275        6D+2       -0.00324   0.00116   0.00456   0.00526   0.00007
 276        6D-2       -0.00309   0.00361   0.00550   0.01010  -0.00166
 277 22  C  1S         -0.00165  -0.00134   0.00164  -0.00275   0.00287
 278        2S          0.00395   0.00306  -0.00359   0.00627  -0.00577
 279        3S          0.00229   0.01873  -0.01815  -0.01083  -0.00462
 280        4PX        -0.02060   0.07970   0.06110   0.12966  -0.02127
 281        4PY        -0.00413  -0.02956  -0.00786  -0.05223   0.02165
 282        4PZ        -0.00872   0.02091   0.02073   0.03279  -0.00126
 283        5PX        -0.01433   0.05474   0.04490   0.09489  -0.01600
 284        5PY        -0.00009  -0.02358  -0.00073  -0.02742   0.01472
[...]
 0000492,-0.00000674,0.00001143,0.00000452,-0.00001468,0.00000057,-0.00
 002433,0.00000196,-0.00004425,0.00004090,-0.00003920,-0.01053466,0.076
 88747,0.00002883,-0.00005336,-0.00003324,0.00000499,0.00003862,0.00001
 693,-0.00001160,-0.00001958,-0.00000415,-0.00000912,0.00001307,0.00000
 105,-0.00000601,-0.00000538,-0.00000253,-0.00000731,0.00001473,0.00002
 261,-0.00000755,0.00000939,-0.00000279,0.00000701,-0.00000470,0.000002
 47,-0.00000100,-0.00000005,0.00000143,0.00000195,-0.00000035,0.0000014
 9,-0.00000090,0.00000223,0.00000091,0.00000202,-0.00000218,-0.00000144
 ,-0.00000387,-0.00013036,0.00039034,-0.00008917,-0.00009093,0.00001594
 ,-0.00001075,-0.00003865,0.00002036,-0.00010092,-0.00008618,0.00015688
 ,-0.00002239,0.00029691,0.00014009,-0.00185688,-0.00166355,-0.00013974
 ,0.00018527,0.00109805,0.00069774,0.00338960,-0.00818018,-0.01415835,0
 .06228206,-0.07318538,-0.30782763,0.00261988,0.00124234,-0.00404631,0.
 00091608,-0.00209085,0.00204141,-0.00030117,0.00057305,0.00052746,0.00
 286145,0.00306659,-0.00025874,0.00000196,0.00000387,0.00000100,-0.0000
 0571,0.00000023,0.00000682,-0.00000005,0.00000101,-0.00000297,0.000002
 01,0.00000066,0.00000119,0.00000073,-0.00000001,0.00000033,-0.00000025
 ,-0.00000024,-0.00000012,-0.00000173,0.00000166,0.00000204,-0.00001307
 ,-0.00000835,0.00000089,-0.00000072,-0.00000024,0.00000097,-0.00003218
 ,0.00011298,-0.00003784,0.00008421,-0.00009150,-0.00000142,-0.06873706
 ,0.07932950,0.32333165,0.00002044,-0.00002307,0.00000633,-0.00003223,0
 .00001947,-0.00001484,0.00001106,-0.00001625,-0.00000002,0.00000303,0.
 00000053,0.00000795,0.00000801,-0.00000502,0.00000484,-0.00001003,0.00
 001893,-0.00001475,0.00000780,-0.00000108,0.00000641,-0.00000114,0.000
 00107,-0.00000573,0.00000097,0.00000198,-0.00000222,-0.00000265,0.0000
 0270,-0.00000327,0.00000008,0.00000392,-0.00000162,-0.00000158,0.00000
 376,-0.00000489,0.00004065,0.00000360,0.00006208,0.00005419,0.00001100
 ,0.00000633,-0.00000094,-0.00000659,0.00001212,-0.00009820,0.00001357,
 0.00002731,0.00011883,-0.00009839,-0.00004275,0.00003853,0.00009772,0.
 00017331,-0.00001796,0.00000035,-0.00000665,0.00631439,-0.00214358,0.0
 0116313,0.00236795,-0.00163697,0.00355216,-0.08021562,-0.07549326,0.07
 382210,0.00153211,-0.00551356,0.00325295,0.00631282,-0.00052202,0.0029
 9666,-0.00081575,0.00043781,-0.00048716,-0.00000111,-0.00000068,-0.000
 00011,0.00000098,-0.00000014,-0.00000187,0.00000167,-0.00000199,0.0000
 0465,-0.00000189,-0.00000183,0.00000057,-0.00000168,-0.00000108,0.0000
 0099,-0.00000257,-0.00000079,0.00000143,-0.00000038,-0.00000265,0.0000
 0345,-0.00000340,0.00000092,0.00000119,0.00000100,0.00000136,0.0000001
 5,-0.00000545,-0.00003373,-0.00000114,-0.00001454,-0.00004139,-0.00004
 427,-0.00348602,0.00109926,-0.00125394,0.07235292,0.00006466,-0.000077
 13,-0.00003509,-0.00005515,0.00003534,-0.00000071,0.00001982,-0.000018
 03,-0.00000475,-0.00000270,0.00000472,0.00000379,0.00001453,-0.0000139
 2,0.00000048,-0.00004258,0.00004106,0.00002803,0.00000756,0.,0.0000120
 2,-0.00000297,-0.00000054,-0.00000613,0.00000115,0.00000273,0.00000239
 ,-0.00000316,0.00000168,-0.00000197,-0.00000051,0.00000124,-0.00000035
 ,-0.00000582,0.00000007,-0.00000563,-0.00018917,-0.00039713,0.00001770
 ,-0.00005943,0.00019063,-0.00018482,-0.00002985,0.00000841,0.00002656,
 0.00005668,-0.00015650,0.00011934,-0.00012281,-0.00011681,-0.00019914,
 -0.00023403,-0.00020564,0.00112278,0.00000711,0.00002531,-0.00002155,-
 0.00178069,-0.00398071,-0.00349709,-0.01084019,-0.01318860,0.02100306,
 -0.07570301,-0.18625389,0.12311364,0.00383592,0.00911327,-0.00792921,-
 0.00073223,0.00103177,-0.00246041,0.00049391,-0.00028209,-0.00095468,-
 0.00000473,0.00000081,0.00000148,-0.00000170,0.00000351,0.00000170,0.0
 0000560,0.00000057,0.00000591,-0.00000137,-0.00000159,-0.00000099,-0.0
 0000206,0.00000047,-0.00000026,-0.00000160,0.00000099,0.00000036,0.000
 00148,-0.00000150,0.00000015,-0.00001293,0.00000099,0.00000748,-0.0000
 0890,-0.00000010,0.00000822,0.00004727,-0.00006765,0.00003412,0.000003
 73,0.00003741,0.00001915,0.00119584,0.00077707,0.00023844,0.08276992,0
 .19279765,-0.00000990,-0.00000329,0.00000549,0.00001665,0.00000395,0.0
 0000145,-0.00001233,-0.00000440,-0.00000033,-0.00000465,0.00000552,-0.
 00000137,-0.00000716,0.00000158,-0.00000216,0.00001241,-0.00000404,-0.
 00000510,-0.00000610,0.00000561,-0.00000514,0.00000411,-0.00000069,0.0
 0000262,-0.00000040,-0.00000044,-0.00000090,0.00000202,-0.00000100,0.0
 0000082,-0.00000051,0.00000072,0.00000101,0.00000305,-0.00000125,0.000
 00190,0.00003123,0.00000656,-0.00001467,-0.00001607,-0.00003544,0.0000
 3182,0.00000258,-0.00000049,0.00000263,-0.00002887,0.00003246,0.000002
 32,0.00005024,-0.00007498,-0.00004875,-0.00017791,-0.00033681,0.000291
 18,0.00000319,0.00001863,-0.00001475,0.00109298,-0.00274669,0.00117154
 ,-0.00373516,-0.00828361,0.00926582,0.07424983,0.12315498,-0.17629728,
 0.01034645,0.02136162,-0.01201934,0.00276584,-0.00325891,-0.00385940,-
 0.00044649,-0.00092765,-0.00037988,0.00000284,0.00000228,0.00000055,-0
 .00000333,-0.00000133,0.00000295,-0.00000248,-0.00000129,-0.00000177,0
 .00000012,0.00000026,0.00000082,0.00000117,-0.00000010,0.00000068,0.00
 000147,-0.00000085,-0.00000050,-0.00000202,0.00000175,-0.00000031,-0.0
 0000092,-0.00000156,-0.00000128,0.00000101,-0.00000057,-0.00000020,0.0
 0000798,-0.00001394,0.00000618,0.00000741,-0.00001933,-0.00001215,-0.0
 0123534,0.00061648,0.00034943,-0.08167186,-0.13087900,0.18165463,0.000
 03244,-0.00004174,0.00001195,-0.00002873,0.00003829,-0.00000939,0.0000
 0535,-0.00003699,-0.00000831,0.00000224,0.00000509,0.00000991,0.000012
 62,-0.00001327,0.00000276,-0.00001709,0.00002888,-0.00001366,0.0000035
 1,0.00000599,0.00000447,0.00000208,-0.00000106,-0.00000300,0.00000049,
 0.00000157,0.00000021,-0.00000151,0.00000199,-0.00000131,-0.00000081,0
 .00000692,-0.00000012,-0.00000077,-0.00000097,-0.00001162,-0.00003475,
 -0.00012263,0.00001370,0.00001038,0.00007613,0.00009489,-0.00000670,-0
 .00000292,0.00000921,0.00001249,0.00001216,-0.00006963,0.00010078,0.00
 003991,-0.00003843,-0.00080869,0.00030617,-0.00032343,0.00000700,-0.00
 003027,-0.00002359,-0.00096352,0.00018362,0.00024507,0.00613184,-0.001
 19676,0.00329781,0.00469879,0.00731298,0.00247958,-0.04629705,-0.04240
 878,-0.00608953,0.00227427,-0.01077543,-0.00431575,0.00519210,-0.00273
 448,0.00348359,-0.00000005,0.00000225,-0.00000054,-0.00000084,-0.00000
 210,0.00000225,0.00000126,-0.00000023,0.00000307,-0.00000010,-0.000000
 13,0.00000152,-0.00000009,-0.00000075,0.00000134,-0.00000360,-0.000001
 07,0.00000054,-0.00000260,-0.00000184,0.00000753,-0.00000454,0.0000019
 9,0.00000110,-0.00000309,0.00000012,0.,-0.00001950,-0.00001327,-0.0000
 0921,-0.00002186,0.00000968,-0.00002043,0.00024655,0.00033326,0.000164
 16,-0.00360870,0.00094611,-0.00151267,0.03637316,0.00005455,-0.0000250
 4,-0.00003692,-0.00005770,0.00001334,0.00000338,0.00002560,-0.00002425
 ,-0.00001081,0.00000604,-0.00000161,0.00000315,0.00002196,-0.00001983,
 -0.00000328,-0.00004179,0.00003364,0.00002980,0.00000867,-0.00000128,0
 .00001217,-0.00000398,-0.00000085,-0.00000536,0.00000095,0.00000204,0.
 00000326,-0.00000342,0.00000193,-0.00000106,-0.00000071,0.00000275,0.,
 -0.00000645,-0.00000219,-0.00001039,-0.00003855,-0.00007018,0.00000841
 ,0.00009421,0.00010668,-0.00007965,-0.00001495,0.00000775,-0.00000007,
 -0.00001303,-0.00005750,0.00002696,-0.00005353,0.00003038,0.00003020,0
 .00023976,-0.00005615,0.00003421,-0.00000796,-0.00001137,-0.00001012,0
 .00017342,0.00066856,0.00058511,-0.00071429,0.00184379,-0.00198086,-0.
 00224281,-0.00360108,0.00127193,-0.04262391,-0.31498369,-0.08109550,-0
 .00121955,-0.01363859,-0.00943524,-0.00287208,-0.00057823,0.00311566,-
 0.00000544,0.00000022,0.00000063,0.00000114,0.00000195,0.00000113,0.00
 000565,0.00000247,0.00000488,-0.00000009,-0.00000044,-0.00000067,-0.00
 000152,0.00000048,-0.00000039,-0.00000321,0.00000122,0.00000011,0.0000
 0131,-0.00000186,0.00000296,-0.00000193,0.00000317,0.00000279,-0.00000
 551,0.00000088,0.00000351,0.00000106,-0.00001556,-0.00001091,-0.000025
 98,0.00002249,0.00000422,-0.00013655,-0.00028255,0.00006796,0.00109811
 ,0.00045186,0.00025380,0.04737968,0.33031022,0.00000351,-0.00002345,0.
 00000399,-0.00000284,0.00001558,-0.00000365,-0.00000008,-0.00000403,0.
 00000226,-0.00000157,0.00000168,0.00000476,-0.00000234,0.00000413,0.00
 000633,-0.00000028,0.00000455,-0.00000709,0.00000164,-0.00000019,0.000
 00055,0.00000061,-0.00000066,-0.00000165,0.00000009,0.00000042,-0.0000
 0085,-0.00000048,0.00000100,-0.00000114,0.00000016,0.00000112,-0.00000
 155,0.00000082,0.00000324,0.00000036,-0.00005145,-0.00006220,0.0000964
 5,-0.00006782,0.00002241,-0.00001437,-0.00000342,-0.00001002,0.0000072
 6,0.00001399,-0.00002554,0.00005335,0.00003266,0.00000932,-0.00004269,
 -0.00025952,0.00006989,-0.00006062,0.00001023,0.00008637,0.00006464,0.
 00019411,0.00051204,-0.00117462,0.00349760,-0.00121643,-0.00432506,-0.
 00486150,-0.02797292,-0.00282217,-0.00609620,-0.08099327,-0.08083739,0
 .00297744,0.01980565,0.00961937,0.00337672,0.00227575,-0.00145099,0.00
 000041,-0.00000048,-0.00000048,-0.00000025,0.00000032,-0.00000102,0.00
 000050,-0.00000046,0.00000054,-0.00000019,-0.00000070,0.00000024,-0.00
 000091,-0.00000058,0.00000024,-0.00000090,-0.00000038,0.00000120,-0.00
 000019,-0.00000120,0.00000168,-0.00000501,-0.00000212,0.00000145,-0.00
 000106,-0.00000026,0.00000029,0.00000357,0.00000210,0.00000552,0.00001
 855,-0.00001279,-0.00000130,-0.00018183,-0.00130730,-0.00029208,-0.001
 42576,0.00066815,0.00064295,0.00415326,0.08729073,0.07982771,0.0000452
 8,-0.00009262,0.00000735,-0.00000010,0.00007672,0.00000350,-0.00002199
 ,-0.00008327,-0.00001744,-0.00002276,0.00003889,0.00000006,0.00000377,
 -0.00002396,-0.00000473,-0.00000772,0.00004468,-0.00000688,-0.00001524
 ,0.00003313,-0.00000624,0.00001717,-0.00000750,0.00000452,-0.00000159,
 0.00000064,0.00000167,0.00000491,-0.00000108,0.00000249,-0.00000252,0.
 00000875,0.00000319,0.00000571,-0.00000684,-0.00000745,-0.00014321,-0.
 00007712,0.00009218,0.00002756,0.00001855,-0.00008959,-0.00001251,0.00
 000313,0.00000456,-0.00004698,0.00001820,0.00000939,-0.00002083,0.0000
 8563,-0.00005242,0.00028953,-0.00010072,-0.00016570,-0.00012542,-0.000
 02165,-0.00007524,0.00654301,-0.00257757,0.00124313,-0.00082707,-0.000
 23791,-0.00035901,0.00527631,-0.00334968,0.00289721,0.00140308,0.00441
 973,0.01053112,-0.05781208,0.01468100,0.07011945,0.00489286,-0.0021407
 5,-0.00433507,0.00000654,0.00001259,0.00000264,-0.00001501,-0.00000661
 ,0.00001807,-0.00000241,-0.00000073,-0.00000229,0.00000236,0.00000093,
 0.00000341,0.00000255,-0.00000042,0.00000224,0.00000037,-0.00000228,-0
 .00000045,-0.00000802,0.00000439,0.00000630,-0.00000295,-0.00000046,-0
 .00000039,-0.00000559,-0.00000025,0.00000380,0.00001024,0.00001373,0.0
 0000030,0.00001014,0.00005782,0.00003008,-0.00088921,0.00026547,-0.000
 25812,0.00004441,0.00017563,0.00054954,-0.00332959,0.00105739,-0.00151
 247,0.04826757,0.00006728,-0.00007396,-0.00011747,-0.00001200,0.000027
 17,0.00004025,-0.00000838,-0.00002397,-0.00001164,-0.00001132,0.000025
 57,-0.00001124,-0.00001361,-0.00001736,-0.00001995,-0.00001699,0.00003
 203,0.00009141,-0.00001556,0.00001692,-0.00000230,0.00001167,-0.000006
 95,0.00000448,-0.00000163,-0.00000014,0.00000186,0.00000380,-0.0000016
 2,0.00000251,-0.00000194,0.00000067,0.00000196,0.00000351,-0.00000317,
 0.00000445,-0.00001481,-0.00000204,0.00017228,-0.00005865,0.00019021,-
 0.00018708,-0.00001710,-0.00000303,0.00001132,0.00005674,-0.00009763,0
 .00017834,-0.00000043,0.00008553,-0.00008600,0.00054396,0.00019490,-0.
 00140941,-0.00006225,-0.00043221,-0.00016468,-0.00284267,-0.00471475,-
 0.00131453,-0.00023002,-0.00110318,0.00052771,-0.00301899,-0.00200182,
 0.00233908,-0.00524886,0.00959067,0.02026383,0.01461947,-0.07850282,-0
 .07475079,0.00755455,-0.00267148,-0.02787857,0.00000246,0.00001047,0.0
 0000782,-0.00001925,0.00000521,0.00001880,-0.00000003,0.00000049,-0.00
 000354,0.00000216,0.00000054,0.00000098,0.00000122,0.00000049,0.000000
 13,0.00000249,-0.00000009,-0.00000057,-0.00000189,0.00000511,-0.000002
 04,-0.00001386,-0.00001043,0.00000085,-0.00000895,-0.00000350,0.000008
 66,0.00001732,-0.00001941,0.00002205,0.00001467,-0.00000149,0.00001456
 ,0.00025431,-0.00000096,0.00001352,-0.00027121,0.00029643,0.00097311,0
 .00121065,0.00062739,-0.00008776,-0.01365801,0.07780623,0.00009002,-0.
 00012263,-0.00002526,-0.00004789,0.00008960,0.00000814,-0.00000203,-0.
 00009950,-0.00002439,-0.00002412,0.00003232,0.00000360,0.00001841,-0.0
 0003140,0.00000106,-0.00004495,0.00006576,0.00002065,-0.00000808,0.000
 03015,0.00000350,0.00001255,-0.00000841,0.00000048,-0.00000103,0.00000
 203,0.00000520,0.00000165,0.00000027,0.00000201,-0.00000278,0.00000910
 ,0.00000260,-0.00000033,-0.00000779,-0.00001468,-0.00013688,-0.0001755
 4,0.00012310,0.00004300,0.00016679,-0.00017667,-0.00002904,0.00000740,
 0.00001448,0.00000847,-0.00008820,0.00009029,-0.00005039,0.00003744,-0
 .00007760,0.00036288,0.00032452,-0.00031416,-0.00007529,-0.00013401,-0
 .00005558,0.00134718,-0.00212593,0.00208908,-0.00039552,0.00050807,0.0
 0064114,0.00319371,0.00309583,-0.00013425,0.00317668,-0.00884953,-0.01
 255934,0.06988006,-0.07481418,-0.30577739,0.00286865,0.00102990,-0.003
 93809,0.00000087,0.00001067,0.00000014,-0.00001141,-0.00000337,0.00001
 498,0.00000303,0.00000214,0.00000123,0.00000266,0.00000085,0.00000224,
 0.00000112,0.00000028,0.00000125,-0.00000216,-0.00000066,-0.00000045,-
 0.00000587,0.00000226,0.00000819,-0.00001053,0.00000033,0.00000484,-0.
 00001039,0.00000034,0.00000691,0.00001401,-0.00002419,0.00001000,-0.00
 000945,0.00003711,0.00000492,-0.00029000,0.00002384,-0.00015288,0.0001
 7503,-0.00041281,-0.00069936,-0.00140797,0.00035224,0.00039681,-0.0771
 8179,0.08071266,0.32021950,0.00008297,-0.00032266,0.00002030,0.0001177
 4,0.00022435,0.00000332,-0.00009338,-0.00001063,0.00002089,-0.00003973
 ,0.00004663,-0.00000129,-0.00006306,0.00002485,0.00002985,0.00003528,0
 .00004046,-0.00002066,-0.00002311,0.00003059,-0.00002549,0.00002611,-0
 .00000858,0.00001291,-0.00000400,-0.00000203,-0.00000293,0.00000950,-0
 .00000342,0.00000367,0.00000014,0.00000216,0.00000150,0.00001543,0.000
 00072,0.00001092,0.00014882,0.00008288,-0.00046217,0.00078540,-0.00053
 901,0.00074878,-0.00007051,-0.00002692,0.00000474,-0.00061154,-0.00011
 597,-0.00078887,0.00053050,0.00047915,0.00040685,-0.00307035,0.0000312
 9,-0.00117856,-0.00010165,0.00010732,-0.00006530,0.00076569,-0.0051830
 3,0.00419614,0.00571918,-0.00042271,0.00256344,-0.00073646,0.00033927,
 -0.00046156,0.00639639,-0.00202753,0.00129122,0.00241399,-0.00141360,0
 .00367194,-0.08566544,-0.07896977,0.07754210,0.00001572,0.00001102,0.0
 0000158,-0.00001508,-0.00000593,0.00001466,-0.00000838,-0.00000517,-0.
 00001116,0.00000373,0.00000112,0.00000457,0.00000373,-0.00000141,0.000
 00200,0.00000394,-0.00000335,0.00000025,-0.00000702,0.00000466,0.00000
 182,0.00000640,0.00000052,-0.00000598,-0.00000924,0.00000530,-0.000002
 36,-0.00020795,-0.00012529,-0.00019260,-0.00052050,0.00032562,0.000000
 13,0.00010477,-0.00031626,0.00017924,-0.00090999,0.00019067,-0.0002779
 5,0.00004685,-0.00007456,0.00019020,-0.00354056,0.00118217,-0.00145210
 ,0.07846568,-0.00018751,0.00037225,-0.00004930,-0.00001046,-0.00024886
 ,-0.00001851,0.00005680,0.00007362,0.00001093,0.00005933,-0.00007769,0
 .00000216,0.00000779,0.00005627,0.00001467,0.00010109,-0.00008837,0.00
 000766,0.00002652,-0.00004763,0.00000443,-0.00002817,0.00001443,-0.000
 00781,0.00000392,-0.00000127,-0.00000550,-0.00000659,0.00000227,-0.000
 00403,0.00000270,-0.00000613,-0.00000415,-0.00000521,0.00000683,0.0000
 0236,0.00031484,-0.00002937,-0.00040601,-0.00093411,-0.00041458,-0.000
 75605,0.00012022,0.00002506,0.00003861,0.00030734,-0.00016639,0.000600
 37,0.00036074,-0.00009927,-0.00038763,0.00052256,-0.00052081,0.0001749
 4,0.00003492,0.00013807,0.00012459,0.00338946,0.00949979,-0.00577740,-
 0.00097103,0.00065674,-0.00252734,0.00046234,-0.00021835,-0.00078859,-
 0.00191864,-0.00404053,-0.00367859,-0.01181072,-0.01338002,0.02086654,
 -0.07775030,-0.17902581,0.11635701,-0.00000351,-0.00002513,-0.00000858
 ,0.00003043,-0.00000324,-0.00003573,-0.00000112,-0.00000016,0.00000472
 ,-0.00000457,-0.00000105,-0.00000349,-0.00000255,-0.00000038,-0.000001
 16,-0.00000174,0.00000107,0.00000088,0.00000624,-0.00000694,-0.0000028
 3,-0.00000864,-0.00001391,-0.00001721,0.00003366,-0.00000193,-0.000006
 92,-0.00004944,0.00003392,-0.00000658,0.00013115,-0.00012552,-0.000060
 99,0.00019224,0.00035328,-0.00047275,0.00022928,-0.00006211,0.00015835
 ,-0.00051873,-0.00076097,0.00094831,0.00137242,0.00077598,0.00035625,0
 .08644707,0.18735685,-0.00020875,-0.00009063,0.00039067,0.00027518,0.0
 0010445,-0.00005577,-0.00011031,0.00008597,0.00005866,-0.00003243,0.00
 000152,-0.00000141,-0.00004132,0.00006077,0.00004581,0.00009142,-0.000
 11792,-0.00028679,-0.00001582,0.00000150,-0.00004462,0.00001217,0.0000
 0250,0.00001667,-0.00000345,-0.00000717,-0.00000849,0.00000967,-0.0000
 0527,0.00000352,0.00000330,-0.00000640,-0.00000082,0.00002051,0.000006
 92,0.00002472,-0.00019840,0.00013008,0.00029495,-0.00097191,-0.0009153
 1,0.00014076,0.00005708,-0.00007415,0.00007326,-0.00001731,-0.00006452
 ,0.00029360,0.00044871,-0.00039248,-0.00039017,-0.00028936,0.00189100,
 0.00002939,-0.00002802,0.00006246,0.00014225,0.01076997,0.02049910,-0.
 01190627,0.00261015,-0.00339027,-0.00382848,-0.00045044,-0.00092598,-0
 .00038471,0.00149716,-0.00260108,0.00127422,-0.00386047,-0.00827157,0.
 00912094,0.07741230,0.11747567,-0.17149667,0.00001546,-0.00000590,-0.0
 0001351,0.00001554,-0.00001677,-0.00001963,-0.00001729,-0.00000600,-0.
 00001717,0.00000217,0.00000230,0.00000272,0.00000466,-0.00000177,0.000
 00111,0.00000676,-0.00000361,0.00000019,-0.00000488,0.00000231,-0.0000
 0272,-0.00000563,0.00000834,-0.00000267,0.00003016,0.00000509,-0.00002
 444,0.00005483,0.00003190,0.00010898,0.00020683,-0.00018941,-0.0000215
 5,0.00057435,0.00099331,-0.00076922,-0.00029827,0.00015967,-0.00007215
 ,-0.00012935,-0.00042797,0.00030079,-0.00146092,0.00063494,0.00027377,
 -0.08597406,-0.12464563,0.17675027\\0.00539688,-0.02313756,0.01769275,
 -0.00351854,0.00359801,0.00850759,-0.00736974,0.01422381,0.00112394,0.
 00098489,-0.00113597,-0.00229302,-0.00161421,0.00240551,-0.00308791,0.
 00716984,0.00217497,-0.01922541,-0.00178718,0.00048120,-0.00181451,0.0
 0132144,-0.00108186,0.00163086,-0.00047019,0.00052048,-0.00031942,0.00
 067525,-0.00055716,0.00006308,0.00040453,-0.00024435,0.00041848,0.0010
 9231,0.00034280,0.00142965,0.00599299,0.00146162,0.00051364,-0.0004498
 9,-0.01922612,0.01709045,0.00156343,0.00063007,0.00404494,-0.01442242,
 0.00763439,-0.00896689,0.00035082,0.00119829,-0.00336870,0.00737121,0.
 00947620,-0.00444942,-0.00104166,-0.00063174,0.00043051,0.00115596,0.0
 0258923,0.00104048,0.00008697,-0.00083879,-0.00007212,-0.00013034,-0.0
 0109186,0.00022926,-0.00038846,-0.00130502,-0.00036857,-0.00012994,-0.
 00046571,-0.00021212,0.00052874,-0.00020556,-0.00093432,0.00073873,0.0
 0001533,-0.00062432,0.00046730,0.00013769,-0.00088297,-0.00084872,-0.0
 0184511,-0.00300813,0.00071500,-0.00007146,0.00019950,0.00009439,0.000
 01880,0.00000658,0.00027660,-0.00002267,0.00003567,-0.00010798,0.00036
 928,-0.00020730,0.00051846,0.00150654,0.00069973,-0.00166604,0.0021070
 1,-0.00539470,-0.00072836,0.00019474,0.00021986,-0.00091158,0.00065040
 ,-0.00049165,-0.00038836,0.00037353,-0.00006272,-0.00034629,-0.0002719
 9,0.00001878,-0.00022896,-0.00015619,-0.00008439,-0.00014020,-0.000041
 65,-0.00023837,-0.00021670,0.00022083,0.00071123\\\@

 Writing a WFNX file to "12_lig.wfx"


 CONFIDENCE: THAT QUIET ASSURED FEELING YOU HAVE
 JUST BEFORE YOU FALL FLAT ON YOUR FACE.
 Job cpu time:       0 days  3 hours  7 minutes 29.3 seconds.
 Elapsed time:       0 days  0 hours 23 minutes 26.3 seconds.
 File lengths (MBytes):  RWF=    779 Int=      0 D2E=      0 Chk=     13 Scr=      1
 Normal termination of Gaussian 16 at Thu Dec  8 09:29:02 2022.
