 Entering Gaussian System, Link 0=g16
 Initial command:
 /software/gaussian/G16-A.03/avx/g16/l1.exe "/scratch/lcmd/1380817.slurm/Gau-154912.inp" -scrdir="/scratch/lcmd/1380817.slurm/"
 Entering Link 1 = /software/gaussian/G16-A.03/avx/g16/l1.exe PID=    154913.
  
 Copyright (c) 1988,1990,1992,1993,1995,1998,2003,2009,2016,
            Gaussian, Inc.  All Rights Reserved.
  
 This is part of the Gaussian(R) 16 program.  It is based on
 the Gaussian(R) 09 system (copyright 2009, Gaussian, Inc.),
 the Gaussian(R) 03 system (copyright 2003, Gaussian, Inc.),
 the Gaussian(R) 98 system (copyright 1998, Gaussian, Inc.),
 the Gaussian(R) 94 system (copyright 1995, Gaussian, Inc.),
 the Gaussian 92(TM) system (copyright 1992, Gaussian, Inc.),
 the Gaussian 90(TM) system (copyright 1990, Gaussian, Inc.),
 the Gaussian 88(TM) system (copyright 1988, Gaussian, Inc.),
 the Gaussian 86(TM) system (copyright 1986, Carnegie Mellon
 University), and the Gaussian 82(TM) system (copyright 1983,
 Carnegie Mellon University). Gaussian is a federally registered
 trademark of Gaussian, Inc.
  
 This software contains proprietary and confidential information,
 including trade secrets, belonging to Gaussian, Inc.
  
 This software is provided under written license and may be
 used, copied, transmitted, or stored only in accord with that
 written license.
  
 The following legend is applicable only to US Government
 contracts under FAR:
  
                    RESTRICTED RIGHTS LEGEND
  
 Use, reproduction and disclosure by the US Government is
 subject to restrictions as set forth in subparagraphs (a)
 and (c) of the Commercial Computer Software - Restricted
 Rights clause in FAR 52.227-19.
  
 Gaussian, Inc.
 340 Quinnipiac St., Bldg. 40, Wallingford CT 06492
  
  
 ---------------------------------------------------------------
 Warning -- This program may not be used in any manner that
 competes with the business of Gaussian, Inc. or will provide
 assistance to any competitor of Gaussian, Inc.  The licensee
 of this program is prohibited from giving any competitor of
 Gaussian, Inc. access to this program.  By using this program,
 the user acknowledges that Gaussian, Inc. is engaged in the
 business of creating and licensing software in the field of
 computational chemistry and represents and warrants to the
 licensee that it is not a competitor of Gaussian, Inc. and that
 it will not use this program in any manner prohibited above.
 ---------------------------------------------------------------
  

 Cite this work as:
 Gaussian 16, Revision A.03,
 M. J. Frisch, G. W. Trucks, H. B. Schlegel, G. E. Scuseria, 
 M. A. Robb, J. R. Cheeseman, G. Scalmani, V. Barone, 
 G. A. Petersson, H. Nakatsuji, X. Li, M. Caricato, A. V. Marenich, 
 J. Bloino, B. G. Janesko, R. Gomperts, B. Mennucci, H. P. Hratchian, 
 J. V. Ortiz, A. F. Izmaylov, J. L. Sonnenberg, D. Williams-Young, 
 F. Ding, F. Lipparini, F. Egidi, J. Goings, B. Peng, A. Petrone, 
 T. Henderson, D. Ranasinghe, V. G. Zakrzewski, J. Gao, N. Rega, 
 G. Zheng, W. Liang, M. Hada, M. Ehara, K. Toyota, R. Fukuda, 
 J. Hasegawa, M. Ishida, T. Nakajima, Y. Honda, O. Kitao, H. Nakai, 
 T. Vreven, K. Throssell, J. A. Montgomery, Jr., J. E. Peralta, 
 F. Ogliaro, M. J. Bearpark, J. J. Heyd, E. N. Brothers, K. N. Kudin, 
 V. N. Staroverov, T. A. Keith, R. Kobayashi, J. Normand, 
 K. Raghavachari, A. P. Rendell, J. C. Burant, S. S. Iyengar, 
 J. Tomasi, M. Cossi, J. M. Millam, M. Klene, C. Adamo, R. Cammi, 
 J. W. Ochterski, R. L. Martin, K. Morokuma, O. Farkas, 
 J. B. Foresman, and D. J. Fox, Gaussian, Inc., Wallingford CT, 2016.
 
 ******************************************
 Gaussian 16:  ES64L-G16RevA.03 25-Dec-2016
                 8-Dec-2022 
 ******************************************
 %nprocs=8
 Will use up to    8 processors via shared memory.
 %mem=32000MB
 %chk=13_lig.chk
 ----------------------------------------------------------------------
 #p pop=(regular,nbo,savenbos) freq=noraman def2svp empiricaldispersion
 =gd3bj output=wfx pbe1pbe
 ----------------------------------------------------------------------
 1/10=4,30=1,38=1/1,3;
 2/12=2,17=6,18=5,40=1/2;
 3/5=43,7=101,11=2,25=1,30=1,71=2,74=-13,124=41,140=1/1,2,3;
 4//1;
 5/5=2,38=5,98=1/2;
 8/6=4,10=90,11=11/1;
 11/6=1,8=1,9=11,15=111,16=1/1,2,10;
 10/6=1/2;
 6/28=1,40=1,73=1/1,7;
 7/8=1,10=1,25=1/1,2,3,16;
 1/10=4,30=1/3;
 99/6=200/99;
 Leave Link    1 at Thu Dec  8 09:05:29 2022, MaxMem=  4194304000 cpu:               0.4 elap:               0.1
 (Enter /software/gaussian/G16-A.03/avx/g16/l101.exe)
 ------
 13_lig
 ------
 Symbolic Z-matrix:
 Charge =  0 Multiplicity = 1
 C                     1.19713   1.83808   0.40958 
 N                     1.38665   0.58066   0.31583 
 C                     2.77273   0.29663   0.70359 
 H                     2.74184  -0.51766   1.44335 
 C                     3.20529   1.63331   1.32792 
 O                     2.19346   2.56788   0.89876 
 C                     3.62017  -0.17315  -0.50561 
 C                     3.68272   0.90776  -1.58597 
 C                     5.02576  -0.49001   0.0106 
 C                     3.01213  -1.44571  -1.09952 
 N                    -1.38699   0.58069  -0.317 
 C                    -1.19758   1.83803  -0.4116 
 C                     0.00038   2.61824  -0.00282 
 O                    -2.19479   2.56775  -0.89914 
 C                    -3.20751   1.63312  -1.32604 
 C                    -2.77374   0.29653  -0.70233 
 H                    -2.74398  -0.51776  -1.44215 
 C                    -3.61918  -0.17338   0.50821 
 C                    -5.02559  -0.49027  -0.00574 
 C                    -3.01012  -1.44595   1.10102 
 C                    -3.68001   0.90748   1.58872 
 H                     4.17722   2.00458   0.98087 
 H                     3.19681   1.61671   2.42797 
 H                     4.28855   0.55727  -2.43526 
 H                     4.13626   1.84577  -1.22748 
 H                     2.67812   1.13376  -1.97645 
 H                     5.65876  -0.85379  -0.81279 
 H                     4.99327  -1.27631   0.78079 
 H                     5.52743   0.39126   0.44187 
 H                     3.68117  -1.85245  -1.87368 
 H                     2.03778  -1.2617   -1.57865 
 H                     2.85038  -2.21566  -0.3313 
 H                    -0.28958   3.29294   0.81975 
 H                     0.29146   3.28824  -0.82889 
 H                    -3.20132   1.6163   -2.4261 
 H                    -4.1787    2.0045   -0.97704 
 H                    -4.99432  -1.2765   -0.77605 
 H                    -5.52804   0.391    -0.4361 
 H                    -5.65722  -0.85417   0.81866 
 H                    -2.84923  -2.2157    0.33241 
 H                    -3.67807  -1.85303   1.87594 
 H                    -2.03519  -1.26192   1.57894 
 H                    -4.1342    1.84547   1.23099 
 H                    -2.67478   1.13353   1.97752 
 H                    -4.28442   0.55693   2.43899 
 
 ITRead=  0  0  0  0  0  0  0  0  0  0  0  0  0  0  0  0  0  0  0  0
 ITRead=  0  0  0  0  0  0  0  0  0  0  0  0  0  0  0  0  0  0  0  0
 ITRead=  0  0  0  0  0
 MicOpt= -1 -1 -1 -1 -1 -1 -1 -1 -1 -1 -1 -1 -1 -1 -1 -1 -1 -1 -1 -1
 MicOpt= -1 -1 -1 -1 -1 -1 -1 -1 -1 -1 -1 -1 -1 -1 -1 -1 -1 -1 -1 -1
 MicOpt= -1 -1 -1 -1 -1
 NAtoms=     45 NQM=       45 NQMF=       0 NMMI=      0 NMMIF=      0
                NMic=       0 NMicF=      0.
                    Isotopes and Nuclear Properties:
 (Nuclear quadrupole moments (NQMom) in fm**2, nuclear magnetic moments (NMagM)
  in nuclear magnetons)

  Atom         1           2           3           4           5           6           7           8           9          10
 IAtWgt=          12          14          12           1          12          16          12          12          12          12
 AtmWgt=  12.0000000  14.0030740  12.0000000   1.0078250  12.0000000  15.9949146  12.0000000  12.0000000  12.0000000  12.0000000
 NucSpn=           0           2           0           1           0           0           0           0           0           0
 AtZEff=  -0.0000000  -0.0000000  -0.0000000  -0.0000000  -0.0000000  -0.0000000  -0.0000000  -0.0000000  -0.0000000  -0.0000000
 NQMom=    0.0000000   2.0440000   0.0000000   0.0000000   0.0000000   0.0000000   0.0000000   0.0000000   0.0000000   0.0000000
 NMagM=    0.0000000   0.4037610   0.0000000   2.7928460   0.0000000   0.0000000   0.0000000   0.0000000   0.0000000   0.0000000
 AtZNuc=   6.0000000   7.0000000   6.0000000   1.0000000   6.0000000   8.0000000   6.0000000   6.0000000   6.0000000   6.0000000

  Atom        11          12          13          14          15          16          17          18          19          20
 IAtWgt=          14          12          12          16          12          12           1          12          12          12
 AtmWgt=  14.0030740  12.0000000  12.0000000  15.9949146  12.0000000  12.0000000   1.0078250  12.0000000  12.0000000  12.0000000
 NucSpn=           2           0           0           0           0           0           1           0           0           0
 AtZEff=  -0.0000000  -0.0000000  -0.0000000  -0.0000000  -0.0000000  -0.0000000  -0.0000000  -0.0000000  -0.0000000  -0.0000000
 NQMom=    2.0440000   0.0000000   0.0000000   0.0000000   0.0000000   0.0000000   0.0000000   0.0000000   0.0000000   0.0000000
 NMagM=    0.4037610   0.0000000   0.0000000   0.0000000   0.0000000   0.0000000   2.7928460   0.0000000   0.0000000   0.0000000
 AtZNuc=   7.0000000   6.0000000   6.0000000   8.0000000   6.0000000   6.0000000   1.0000000   6.0000000   6.0000000   6.0000000

  Atom        21          22          23          24          25          26          27          28          29          30
 IAtWgt=          12           1           1           1           1           1           1           1           1           1
 AtmWgt=  12.0000000   1.0078250   1.0078250   1.0078250   1.0078250   1.0078250   1.0078250   1.0078250   1.0078250   1.0078250
 NucSpn=           0           1           1           1           1           1           1           1           1           1
 AtZEff=  -0.0000000  -0.0000000  -0.0000000  -0.0000000  -0.0000000  -0.0000000  -0.0000000  -0.0000000  -0.0000000  -0.0000000
 NQMom=    0.0000000   0.0000000   0.0000000   0.0000000   0.0000000   0.0000000   0.0000000   0.0000000   0.0000000   0.0000000
 NMagM=    0.0000000   2.7928460   2.7928460   2.7928460   2.7928460   2.7928460   2.7928460   2.7928460   2.7928460   2.7928460
 AtZNuc=   6.0000000   1.0000000   1.0000000   1.0000000   1.0000000   1.0000000   1.0000000   1.0000000   1.0000000   1.0000000

  Atom        31          32          33          34          35          36          37          38          39          40
 IAtWgt=           1           1           1           1           1           1           1           1           1           1
 AtmWgt=   1.0078250   1.0078250   1.0078250   1.0078250   1.0078250   1.0078250   1.0078250   1.0078250   1.0078250   1.0078250
 NucSpn=           1           1           1           1           1           1           1           1           1           1
 AtZEff=  -0.0000000  -0.0000000  -0.0000000  -0.0000000  -0.0000000  -0.0000000  -0.0000000  -0.0000000  -0.0000000  -0.0000000
 NQMom=    0.0000000   0.0000000   0.0000000   0.0000000   0.0000000   0.0000000   0.0000000   0.0000000   0.0000000   0.0000000
 NMagM=    2.7928460   2.7928460   2.7928460   2.7928460   2.7928460   2.7928460   2.7928460   2.7928460   2.7928460   2.7928460
 AtZNuc=   1.0000000   1.0000000   1.0000000   1.0000000   1.0000000   1.0000000   1.0000000   1.0000000   1.0000000   1.0000000

  Atom        41          42          43          44          45
 IAtWgt=           1           1           1           1           1
 AtmWgt=   1.0078250   1.0078250   1.0078250   1.0078250   1.0078250
 NucSpn=           1           1           1           1           1
 AtZEff=  -0.0000000  -0.0000000  -0.0000000  -0.0000000  -0.0000000
 NQMom=    0.0000000   0.0000000   0.0000000   0.0000000   0.0000000
 NMagM=    2.7928460   2.7928460   2.7928460   2.7928460   2.7928460
 AtZNuc=   1.0000000   1.0000000   1.0000000   1.0000000   1.0000000
 Leave Link  101 at Thu Dec  8 09:05:29 2022, MaxMem=  4194304000 cpu:               1.0 elap:               0.1
 (Enter /software/gaussian/G16-A.03/avx/g16/l103.exe)

 GradGradGradGradGradGradGradGradGradGradGradGradGradGradGradGradGradGrad
 Berny optimization.
 Initialization pass.
 Trust Radius=3.00D-01 FncErr=1.00D-07 GrdErr=1.00D-07 EigMax=2.50D+02 EigMin=1.00D-04
 Number of steps in this run=      2 maximum allowed number of steps=      2.
 GradGradGradGradGradGradGradGradGradGradGradGradGradGradGradGradGradGrad

 Leave Link  103 at Thu Dec  8 09:05:29 2022, MaxMem=  4194304000 cpu:               0.2 elap:               0.0
 (Enter /software/gaussian/G16-A.03/avx/g16/l202.exe)
                          Input orientation:                          
 ---------------------------------------------------------------------
 Center     Atomic      Atomic             Coordinates (Angstroms)
 Number     Number       Type             X           Y           Z
 ---------------------------------------------------------------------
      1          6           0        1.197130    1.838080    0.409580
      2          7           0        1.386650    0.580660    0.315830
      3          6           0        2.772730    0.296630    0.703590
      4          1           0        2.741840   -0.517660    1.443350
      5          6           0        3.205290    1.633310    1.327920
      6          8           0        2.193460    2.567880    0.898760
      7          6           0        3.620170   -0.173150   -0.505610
      8          6           0        3.682720    0.907760   -1.585970
      9          6           0        5.025760   -0.490010    0.010600
     10          6           0        3.012130   -1.445710   -1.099520
     11          7           0       -1.386990    0.580690   -0.317000
     12          6           0       -1.197580    1.838030   -0.411600
     13          6           0        0.000380    2.618240   -0.002820
     14          8           0       -2.194790    2.567750   -0.899140
     15          6           0       -3.207510    1.633120   -1.326040
     16          6           0       -2.773740    0.296530   -0.702330
     17          1           0       -2.743980   -0.517760   -1.442150
     18          6           0       -3.619180   -0.173380    0.508210
     19          6           0       -5.025590   -0.490270   -0.005740
     20          6           0       -3.010120   -1.445950    1.101020
     21          6           0       -3.680010    0.907480    1.588720
     22          1           0        4.177220    2.004580    0.980870
     23          1           0        3.196810    1.616710    2.427970
     24          1           0        4.288550    0.557270   -2.435260
     25          1           0        4.136260    1.845770   -1.227480
     26          1           0        2.678120    1.133760   -1.976450
     27          1           0        5.658760   -0.853790   -0.812790
     28          1           0        4.993270   -1.276310    0.780790
     29          1           0        5.527430    0.391260    0.441870
     30          1           0        3.681170   -1.852450   -1.873680
     31          1           0        2.037780   -1.261700   -1.578650
     32          1           0        2.850380   -2.215660   -0.331300
     33          1           0       -0.289580    3.292940    0.819750
     34          1           0        0.291460    3.288240   -0.828890
     35          1           0       -3.201320    1.616300   -2.426100
     36          1           0       -4.178700    2.004500   -0.977040
     37          1           0       -4.994320   -1.276500   -0.776050
     38          1           0       -5.528040    0.391000   -0.436100
     39          1           0       -5.657220   -0.854170    0.818660
     40          1           0       -2.849230   -2.215700    0.332410
     41          1           0       -3.678070   -1.853030    1.875940
     42          1           0       -2.035190   -1.261920    1.578940
     43          1           0       -4.134200    1.845470    1.230990
     44          1           0       -2.674780    1.133530    1.977520
     45          1           0       -4.284420    0.556930    2.438990
 ---------------------------------------------------------------------
                    Distance matrix (angstroms):
                    1          2          3          4          5
     1  C    0.000000
     2  N    1.275073   0.000000
     3  C    2.223741   1.467054   0.000000
     4  H    3.000720   2.077053   1.100576   0.000000
     5  C    2.217653   2.332349   1.537404   2.203357   0.000000
     6  O    1.328374   2.222565   2.352068   3.180858   1.442706
     7  C    3.279290   2.496318   1.549520   2.165317   2.607155
     8  C    3.320523   2.999296   2.538434   3.477622   3.040578
     9  C    4.498622   3.805604   2.484991   2.696262   3.091590
    10  C    4.044117   2.958306   2.518783   2.720390   3.925575
    11  N    2.964224   2.844917   4.292501   4.620870   4.990271
    12  C    2.531595   2.964520   4.402604   4.950671   4.738471
    13  C    1.486921   2.484958   3.684401   4.409181   3.607271
    14  O    3.708138   4.272165   5.692362   6.275136   5.915559
    15  C    4.738696   4.990963   6.455143   6.905805   6.940282
    16  C    4.402332   4.292578   5.721883   5.973983   6.454277
    17  H    4.950882   4.621593   5.975075   6.198414   6.906099
    18  C    5.220397   5.065957   6.412144   6.438602   7.107000
    19  C    6.657023   6.509003   7.869953   7.901492   8.604396
    20  C    5.381811   4.904616   6.052759   5.836433   6.940075
    21  C    5.103223   5.234320   6.541746   6.579689   6.928362
    22  H    3.038919   3.202672   2.228580   2.938690   1.096783
    23  H    2.849846   2.968369   2.212677   2.394162   1.100208
    24  H    4.392091   3.998758   3.495429   4.311775   4.061138
    25  H    3.364299   3.397450   2.826319   3.829300   2.727987
    26  H    2.895261   2.688561   2.809333   3.798194   3.383241
    27  H    5.352242   4.645681   3.457173   3.702914   4.097294
    28  H    4.924216   4.083165   2.722296   2.466470   3.458629
    29  H    4.565723   4.147025   2.768723   3.096548   2.778508
    30  H    5.000374   3.997349   3.476511   3.696849   4.756809
    31  H    3.777352   2.721638   2.859574   3.190890   4.265245
    32  H    4.440152   3.221908   2.718203   2.458530   4.206369
    33  H    2.120180   3.228025   4.285920   4.909079   3.902144
    34  H    2.111163   3.137007   4.177909   5.064811   3.985101
    35  H    5.237999   5.444281   6.872100   7.405915   7.425470
    36  H    5.554274   5.888290   7.352803   7.753287   7.744284
    37  H    7.031385   6.734837   8.061708   8.083919   8.951385
    38  H    6.930882   6.958039   8.379175   8.529297   8.995896
    39  H    7.375478   7.206086   8.508915   8.428979   9.219056
    40  H    5.728186   5.075686   6.168955   5.947906   7.243144
    41  H    6.288249   5.831653   6.899874   6.571575   7.735343
    42  H    4.628747   4.086507   5.129465   4.836561   5.992328
    43  H    5.394242   5.737338   7.098080   7.273885   7.343196
    44  H    4.236333   4.422905   5.656736   5.687841   5.936917
    45  H    5.983915   6.055527   7.272052   7.177351   7.647799
                    6          7          8          9         10
     6  O    0.000000
     7  C    3.394260   0.000000
     8  C    3.338829   1.529528   0.000000
     9  C    4.261624   1.530541   2.511285   0.000000
    10  C    4.557658   1.530311   2.495024   2.490067   0.000000
    11  N    4.271606   5.067100   5.236336   6.509768   4.906209
    12  C    3.707948   5.221532   5.105083   6.657926   5.383107
    13  C    2.371705   4.598645   4.357951   5.908963   5.175817
    14  O    4.742276   6.440587   6.145928   7.893913   6.577236
    15  C    5.915572   7.110058   6.933180   8.607033   6.943661
    16  C    5.691713   6.414155   6.545250   7.871411   6.055531
    17  H    6.275297   6.441915   6.584471   7.904436   5.840487
    18  C    6.438464   7.309994   7.672822   8.665037   6.941030
    19  C    7.892090   8.666003   8.960261  10.051363   8.167874
    20  C    6.574875   6.939887   7.586434   8.165672   6.411698
    21  C    6.142526   7.671154   8.018008   8.957336   7.586097
    22  H    2.063820   2.694891   2.834821   2.807922   4.194038
    23  H    2.061533   3.462474   4.104928   3.691477   4.675009
    24  H    4.421272   2.168823   1.100530   2.760888   2.724955
    25  H    2.969312   2.205331   1.101851   2.789251   3.480500
    26  H    3.249373   2.181477   1.101259   3.477989   2.744856
    27  H    5.161931   2.171055   2.757825   1.100453   2.727129
    28  H    4.757168   2.181098   3.476961   1.101143   2.736636
    29  H    4.007715   2.203161   2.789599   1.101954   3.475209
    30  H    5.425774   2.166884   2.775165   2.686015   1.101079
    31  H    4.563713   2.200071   2.722579   3.471202   1.101264
    32  H    4.982655   2.189705   3.467382   2.797685   1.099613
    33  H    2.587942   5.390409   5.220703   6.574061   6.086024
    34  H    2.668576   4.813111   4.211947   6.115024   5.466769
    35  H    6.408108   7.309113   6.971216   8.835094   7.052849
    36  H    6.666367   8.110905   7.960877   9.587497   7.976653
    37  H    8.321564   8.689071   8.984319  10.081636   8.014768
    38  H    8.132787   9.165852   9.296631  10.599925   8.760601
    39  H    8.564463   9.396140   9.804138  10.719684   8.898706
    40  H    6.973673   6.835746   7.490164   8.068273   6.082668
    41  H    7.414458   7.858631   8.589995   9.005219   7.333352
    42  H    5.745563   6.124856   6.886121   7.274101   5.716937
    43  H    6.377424   8.198833   8.361746   9.531458   8.205679
    44  H    5.188530   6.892006   7.291587   8.111903   6.961437
    45  H    6.955513   8.466772   8.933012   9.678461   8.352919
                   11         12         13         14         15
    11  N    0.000000
    12  C    1.275041   0.000000
    13  C    2.484978   1.486922   0.000000
    14  O    2.222574   1.328388   2.371647   0.000000
    15  C    2.332394   2.217658   3.607205   1.442698   0.000000
    16  C    1.467072   2.223742   3.684480   2.352096   1.537415
    17  H    2.077012   3.000522   4.408818   3.180698   2.203322
    18  C    2.496451   3.279629   4.599512   3.394601   2.607180
    19  C    3.805686   4.498818   5.909587   4.261816   3.091503
    20  C    2.958480   4.044483   5.176796   4.557981   3.925590
    21  C    2.999417   3.321094   4.359469   3.339434   3.040664
    22  H    5.888324   5.554745   4.334768   6.667392   7.745583
    23  H    5.442373   5.236679   4.138716   6.406519   7.423488
    24  H    6.057997   5.986081   5.343479   6.959554   7.653675
    25  H    5.738963   5.395884   4.382009   6.380537   7.347509
    26  H    4.425469   4.238609   3.642690   5.192512   5.942477
    27  H    7.207367   7.376737   6.687923   8.566950   9.222738
    28  H    6.735081   7.031894   6.380479   8.322690   8.953006
    29  H    6.958518   6.931617   5.975405   8.134378   8.998161
    30  H    5.833495   6.289636   6.085672   7.417196   7.739704
    31  H    4.088424   4.630106   4.657056   5.748136   5.996404
    32  H    5.076917   5.729296   5.621120   6.975471   7.245733
    33  H    3.138918   2.111267   1.102687   2.666516   3.984185
    34  H    3.226461   2.120019   1.102733   2.589494   3.902483
    35  H    2.968600   2.849973   4.138484   2.061545   1.100206
    36  H    3.202582   3.038834   4.334800   2.063787   1.096784
    37  H    4.083223   4.924262   6.380745   4.757182   3.458478
    38  H    4.147103   4.565893   5.975931   4.007892   2.778437
    39  H    4.645795   5.352557   6.688864   5.162247   4.097246
    40  H    3.221750   4.440070   5.621355   4.982610   4.206214
    41  H    3.997628   5.000959   6.087117   5.426277   4.756821
    42  H    2.722125   3.778033   4.658449   4.564288   4.265501
    43  H    3.397514   3.364802   4.383402   2.969925   2.728049
    44  H    2.688653   2.895917   3.644529   3.250008   3.383327
    45  H    3.998893   4.392683   5.345180   4.421884   4.061203
                   16         17         18         19         20
    16  C    0.000000
    17  H    1.100585   0.000000
    18  C    1.549513   2.165289   0.000000
    19  C    2.484979   2.696252   1.530540   0.000000
    20  C    2.518766   2.720309   1.530298   2.490052   0.000000
    21  C    2.538404   3.477590   1.529529   2.511293   2.495042
    22  H    7.352989   7.754756   8.108685   9.585895   7.973610
    23  H    6.869434   7.404511   7.303946   8.830072   7.047458
    24  H    7.276467   7.183205   8.469360   9.682619   8.353966
    25  H    7.100988   7.278053   8.199783   9.533584   8.205369
    26  H    5.661017   5.693168   6.894791   8.115930   6.962887
    27  H    8.511316   8.432974   9.396178  10.720952   8.897348
    28  H    8.062252   8.085907   8.687062  10.080379   8.011590
    29  H    8.380190   8.531827   9.164262  10.599230   8.757830
    30  H    6.903335   6.576486   7.860521   9.008463   7.333992
    31  H    5.132908   4.841209   6.127040   7.277386   5.718031
    32  H    6.170858   5.950942   6.836000   8.069316   6.081896
    33  H    4.179264   5.065738   4.816500   6.117508   5.471520
    34  H    4.285067   4.906691   5.391081   6.574628   6.085847
    35  H    2.212691   2.394061   3.462331   3.691035   4.674881
    36  H    2.228573   2.938800   2.694845   2.807939   4.193986
    37  H    2.722285   2.466456   2.181102   1.101142   2.736632
    38  H    2.768749   3.096606   2.203178   1.101954   3.475204
    39  H    3.457163   3.702891   2.171051   1.100461   2.727099
    40  H    2.718030   2.458280   2.189703   2.797856   1.099619
    41  H    3.476478   3.696646   2.166882   2.685823   1.101078
    42  H    2.859793   3.191104   2.200092   3.471188   1.101255
    43  H    2.826268   3.829262   2.205314   2.789222   3.480502
    44  H    2.809263   3.798117   2.181462   3.477981   2.744890
    45  H    3.495405   4.311747   2.168826   2.760918   2.724983
                   21         22         23         24         25
    21  C    0.000000
    22  H    7.956706   0.000000
    23  H    6.964051   1.790460   0.000000
    24  H    8.933813   3.711744   5.095617   0.000000
    25  H    8.360948   2.214432   3.781184   1.772613   0.000000
    26  H    7.292973   3.428027   4.461076   1.770969   1.787201
    27  H    9.802140   3.685438   4.760997   2.549701   3.126915
    28  H    8.980394   3.386770   3.782861   3.768504   3.809855
    29  H    9.292938   2.171725   3.298198   3.136919   2.614896
    30  H    8.590250   4.824023   5.547420   2.547751   3.781734
    31  H    6.886995   4.668718   5.067702   3.018012   3.766073
    32  H    7.489090   4.614404   4.735044   3.766181   4.353371
    33  H    4.216248   4.651681   4.189395   6.248060   5.086601
    34  H    5.223546   4.474611   4.673565   5.100525   4.125782
    35  H    4.104918   8.136403   8.031069   7.564376   7.438375
    36  H    2.834655   8.582238   8.132811   8.712933   8.320245
    37  H    3.476969   9.897949   9.259105   9.606631   9.660220
    38  H    2.789599   9.939996   9.264355  10.019467   9.805169
    39  H    2.757855  10.242801   9.332147  10.559285  10.362848
    40  H    3.467386   8.222060   7.458776   8.142313   8.229573
    41  H    2.775413   8.797038   7.720609   9.373528   9.185646
    42  H    2.722467   7.044271   6.031682   7.707979   7.457917
    43  H    1.101855   8.316705   7.431608   9.275967   8.628127
    44  H    1.101250   6.978678   5.908632   8.263938   7.561057
    45  H    1.100525   8.707534   7.555929   9.861751   9.274263
                   26         27         28         29         30
    26  H    0.000000
    27  H    3.766786   0.000000
    28  H    4.332520   1.777891   0.000000
    29  H    3.810268   1.772447   1.783531   0.000000
    30  H    3.151844   2.456353   3.016580   3.715465   0.000000
    31  H    2.511276   3.723497   3.781811   4.358031   1.771090
    32  H    3.735613   3.158088   2.590579   3.815812   1.789153
    33  H    4.613896   7.432584   6.984846   6.511539   7.035372
    34  H    3.413916   6.779718   6.747830   6.117410   6.245672
    35  H    5.916320   9.338369   9.262972   9.269145   7.726970
    36  H    6.983766  10.245605   9.898420   9.941067   8.800999
    37  H    8.131214  10.661526  10.108200  10.722499   8.763597
    38  H    8.382448  11.262144  10.721880  11.090277   9.586931
    39  H    9.013457  11.432980  10.658920  11.260083   9.769892
    40  H    6.863040   8.692075   7.911277   8.773634   6.902529
    41  H    8.010179   9.767504   8.759229   9.583038   8.259423
    42  H    6.371450   8.067454   7.073648   7.824267   6.704184
    43  H    7.563194  10.361714   9.657065   9.802272   9.186599
    44  H    6.654879   9.010170   8.126406   8.377675   8.009115
    45  H    8.264733  10.556090   9.601350  10.014406   9.373092
                   31         32         33         34         35
    31  H    0.000000
    32  H    1.768118   0.000000
    33  H    5.649219   6.444295   0.000000
    34  H    4.930895   6.090040   1.748040   0.000000
    35  H    6.037319   7.462920   4.671712   4.188792   0.000000
    36  H    7.048022   8.224032   4.473677   4.653200   1.790460
    37  H    7.077769   7.913226   6.749884   6.984205   3.782302
    38  H    7.828057   8.775168   6.118813   6.512669   3.297740
    39  H    8.070081   8.692256   6.783073   7.433759   4.760581
    40  H    5.333398   5.738124   6.093802   6.442508   4.734720
    41  H    6.704834   6.901019   6.251273   7.036045   5.547169
    42  H    5.153587   5.331738   4.936626   5.649328   5.067973
    43  H    7.459351   8.229088   4.128606   5.090300   3.781149
    44  H    6.371161   6.861131   3.419453   4.617065   4.461186
    45  H    7.708376   8.140463   5.105530   6.251222   5.095534
                   36         37         38         39         40
    36  H    0.000000
    37  H    3.386827   0.000000
    38  H    2.171800   1.783530   0.000000
    39  H    3.685452   1.777892   1.772444   0.000000
    40  H    4.614351   2.590790   3.815955   3.158324   0.000000
    41  H    4.823968   3.016281   3.715318   2.456135   1.789131
    42  H    4.668744   3.781883   4.358042   3.723357   1.768105
    43  H    2.214197   3.809818   2.614854   3.126925   4.353355
    44  H    3.427797   4.332512   3.810250   3.766810   3.735527
    45  H    3.711589   3.768542   3.136920   2.549755   3.766288
                   41         42         43         44         45
    41  H    0.000000
    42  H    1.771066   0.000000
    43  H    3.781920   3.766004   0.000000
    44  H    3.152214   2.511199   1.787197   0.000000
    45  H    2.548057   3.017770   1.772615   1.770978   0.000000
 Stoichiometry    C15H26N2O2
 Framework group  C1[X(C15H26N2O2)]
 Deg. of freedom   129
 Full point group                 C1      NOp   1
 Largest Abelian subgroup         C1      NOp   1
 Largest concise Abelian subgroup C1      NOp   1
                         Standard orientation:                         
 ---------------------------------------------------------------------
 Center     Atomic      Atomic             Coordinates (Angstroms)
 Number     Number       Type             X           Y           Z
 ---------------------------------------------------------------------
      1          6           0       -1.183039   -1.142715    0.449408
      2          7           0       -1.375540    0.114585    0.360239
      3          6           0       -2.748236    0.399158    0.792644
      4          1           0       -2.693240    1.214419    1.529932
      5          6           0       -3.160170   -0.936690    1.432511
      6          8           0       -2.162865   -1.871848    0.971794
      7          6           0       -3.634687    0.867370   -0.388878
      8          6           0       -3.732434   -0.214957   -1.465201
      9          6           0       -5.022692    1.184942    0.172502
     10          6           0       -3.046372    2.139134   -1.003982
     11          7           0        1.375975    0.113656   -0.362751
     12          6           0        1.183602   -1.143803   -0.449469
     13          6           0       -0.000368   -1.923446   -0.000795
     14          8           0        2.164387   -1.874187   -0.968327
     15          6           0        3.162622   -0.940143   -1.429270
     16          6           0        2.749409    0.397275   -0.793496
     17          1           0        2.695511    1.210594   -1.533020
     18          6           0        3.633887    0.868755    0.388196
     19          6           0        5.022774    1.184935   -0.171784
     20          6           0        3.044470    2.142117    0.998891
     21          6           0        3.729960   -0.210687    1.467566
     22          1           0       -4.142900   -1.308392    1.117846
     23          1           0       -3.115803   -0.918645    2.531676
     24          1           0       -4.365658    0.134432   -2.294732
     25          1           0       -4.174018   -1.152484   -1.090872
     26          1           0       -2.741105   -0.441494   -1.887954
     27          1           0       -5.682227    1.547656   -0.630274
     28          1           0       -4.965104    1.972253    0.940188
     29          1           0       -5.510007    0.304252    0.621068
     30          1           0       -3.740323    2.544873   -1.756434
     31          1           0       -2.088170    1.954471   -1.514406
     32          1           0       -2.859657    2.910088   -0.242461
     33          1           0        0.316289   -2.597072    0.812762
     34          1           0       -0.318233   -2.594523   -0.816047
     35          1           0        3.120543   -0.924768   -2.528564
     36          1           0        4.144689   -1.311088   -1.111656
     37          1           0        4.966372    1.970153   -0.941696
     38          1           0        5.510931    0.303088   -0.617150
     39          1           0        5.680959    1.549902    0.631090
     40          1           0        2.858574    2.910861    0.234929
     41          1           0        3.737341    2.550198    1.751069
     42          1           0        2.085656    1.958739    1.508608
     43          1           0        4.172253   -1.149157    1.096439
     44          1           0        2.737955   -0.436201    1.889254
     45          1           0        4.361784    0.140965    2.297201
 ---------------------------------------------------------------------
 Rotational constants (GHZ):           0.7326459           0.1829328           0.1698707
 Leave Link  202 at Thu Dec  8 09:05:29 2022, MaxMem=  4194304000 cpu:               0.1 elap:               0.0
 (Enter /software/gaussian/G16-A.03/avx/g16/l301.exe)
 Standard basis: def2SVP (5D, 7F)
 Ernie: Thresh=  0.10000D-02 Tol=  0.10000D-05 Strict=F.
 There are   415 symmetry adapted cartesian basis functions of A   symmetry.
 There are   396 symmetry adapted basis functions of A   symmetry.
   396 basis functions,   657 primitive gaussians,   415 cartesian basis functions
    73 alpha electrons       73 beta electrons
       nuclear repulsion energy      1554.6967299258 Hartrees.
 IExCor= 1009 DFT=T Ex+Corr=PBE1PBE ExCW=0 ScaHFX=  0.250000
 ScaDFX=  0.750000  0.750000  1.000000  1.000000 ScalE2=  1.000000  1.000000
 IRadAn=      5 IRanWt=     -1 IRanGd=            0 ICorTp=0 IEmpDi=141
 NAtoms=   45 NActive=   45 NUniq=   45 SFac= 1.00D+00 NAtFMM=   60 NAOKFM=F Big=F
 Integral buffers will be    131072 words long.
 Raffenetti 2 integral format.
 Two-electron integral symmetry is turned on.
 R6Disp:  Grimme-D3(BJ) Dispersion energy=       -0.0457128884 Hartrees.
 Nuclear repulsion after empirical dispersion term =     1554.6510170374 Hartrees.
 Leave Link  301 at Thu Dec  8 09:05:29 2022, MaxMem=  4194304000 cpu:               0.6 elap:               0.1
 (Enter /software/gaussian/G16-A.03/avx/g16/l302.exe)
 NPDir=0 NMtPBC=     1 NCelOv=     1 NCel=       1 NClECP=     1 NCelD=      1
         NCelK=      1 NCelE2=     1 NClLst=     1 CellRange=     0.0.
 One-electron integrals computed using PRISM.
 One-electron integral symmetry used in STVInt
   1 Symmetry operations used in ECPInt.
 ECPInt:  NShTT=   18528 NPrTT=   64586 LenC2=   16488 LenP2D=   40812.
 LDataN:  DoStor=T MaxTD1= 4 Len=   56
 NBasis=   396 RedAO= T EigKep=  8.21D-04  NBF=   396
 NBsUse=   396 1.00D-06 EigRej= -1.00D+00 NBFU=   396
 Precomputing XC quadrature grid using
 IXCGrd= 4 IRadAn=           5 IRanWt=          -1 IRanGd=           0 AccXCQ= 0.00D+00.
 Generated NRdTot=       0 NPtTot=           0 NUsed=           0 NTot=          32
 NSgBfM=   411   411   411   411   411 MxSgAt=    45 MxSgA2=    45.
 Leave Link  302 at Thu Dec  8 09:05:30 2022, MaxMem=  4194304000 cpu:               7.0 elap:               0.9
 (Enter /software/gaussian/G16-A.03/avx/g16/l303.exe)
 DipDrv:  MaxL=1.
 Leave Link  303 at Thu Dec  8 09:05:30 2022, MaxMem=  4194304000 cpu:               0.6 elap:               0.1
 (Enter /software/gaussian/G16-A.03/avx/g16/l401.exe)
 ExpMin= 1.22D-01 ExpMax= 2.27D+03 ExpMxC= 3.41D+02 IAcc=3 IRadAn=         5 AccDes= 0.00D+00
 Harris functional with IExCor= 1009 and IRadAn=       5 diagonalized for initial guess.
 HarFok:  IExCor= 1009 AccDes= 0.00D+00 IRadAn=         5 IDoV= 1 UseB2=F ITyADJ=14
 ICtDFT=  3500011 ScaDFX=  1.000000  1.000000  1.000000  1.000000
 FoFCou: FMM=F IPFlag=           0 FMFlag=      100000 FMFlg1=           0
         NFxFlg=           0 DoJE=T BraDBF=F KetDBF=T FulRan=T
         wScrn=  0.000000 ICntrl=       500 IOpCl=  0 I1Cent=   200000004 NGrid=           0
         NMat0=    1 NMatS0=      1 NMatT0=    0 NMatD0=    1 NMtDS0=    0 NMtDT0=    0
 Petite list used in FoFCou.
 Harris En= -845.885313673274    
 JPrj=0 DoOrth=F DoCkMO=F.
 Leave Link  401 at Thu Dec  8 09:05:35 2022, MaxMem=  4194304000 cpu:              39.1 elap:               4.9
 (Enter /software/gaussian/G16-A.03/avx/g16/l502.exe)
 Integral symmetry usage will be decided dynamically.
 Closed shell SCF:
 Using DIIS extrapolation, IDIIS=  1040.
 NGot=  4194304000 LenX=  4193951585 LenY=  4193778919
 Requested convergence on RMS density matrix=1.00D-08 within 128 cycles.
 Requested convergence on MAX density matrix=1.00D-06.
 Requested convergence on             energy=1.00D-06.
 No special actions if energy rises.
 Fock matrices will be formed incrementally for  20 cycles.
 Integral accuracy reduced to 1.0D-05 until final iterations.

 Cycle   1  Pass 0  IDiag  1:
 FoFJK:  IHMeth= 1 ICntrl=       0 DoSepK=F KAlg= 0 I1Cent=           0 FoldK=F
 IRaf= 820000000 NMat=       1 IRICut=       1 DoRegI=T DoRafI=F ISym2E= 0 IDoP0=0 IntGTp=1.
 FoFCou: FMM=F IPFlag=           0 FMFlag=      100000 FMFlg1=           0
         NFxFlg=           0 DoJE=F BraDBF=F KetDBF=F FulRan=T
         wScrn=  0.000000 ICntrl=         0 IOpCl=  0 I1Cent=           0 NGrid=           0
         NMat0=    1 NMatS0=      1 NMatT0=    0 NMatD0=    1 NMtDS0=    0 NMtDT0=    0
 Symmetry not used in FoFCou.
 E= -845.162051523322    
 DIIS: error= 2.86D-02 at cycle   1 NSaved=   1.
 NSaved= 1 IEnMin= 1 EnMin= -845.162051523322     IErMin= 1 ErrMin= 2.86D-02
 ErrMax= 2.86D-02  0.00D+00 EMaxC= 1.00D-01 BMatC= 4.50D-01 BMatP= 4.50D-01
 IDIUse=3 WtCom= 7.14D-01 WtEn= 2.86D-01
 Coeff-Com:  0.100D+01
 Coeff-En:   0.100D+01
 Coeff:      0.100D+01
 Gap=     0.242 Goal=   None    Shift=    0.000
 GapD=    0.242 DampG=1.000 DampE=0.500 DampFc=0.5000 IDamp=-1.
 Damping current iteration by 5.00D-01
 RMSDP=4.67D-03 MaxDP=2.17D-01              OVMax= 2.55D-01

 Cycle   2  Pass 0  IDiag  1:
 RMSU=  2.32D-03    CP:  9.84D-01
 E= -845.350623965655     Delta-E=       -0.188572442332 Rises=F Damp=T
 DIIS: error= 6.54D-03 at cycle   2 NSaved=   2.
 NSaved= 2 IEnMin= 2 EnMin= -845.350623965655     IErMin= 2 ErrMin= 6.54D-03
 ErrMax= 6.54D-03  0.00D+00 EMaxC= 1.00D-01 BMatC= 4.11D-02 BMatP= 4.50D-01
 IDIUse=3 WtCom= 9.35D-01 WtEn= 6.54D-02
 Coeff-Com:  0.122D+00 0.878D+00
 Coeff-En:   0.204D+00 0.796D+00
 Coeff:      0.127D+00 0.873D+00
 Gap=     0.329 Goal=   None    Shift=    0.000
 RMSDP=1.57D-03 MaxDP=6.31D-02 DE=-1.89D-01 OVMax= 2.25D-01

 Cycle   3  Pass 0  IDiag  1:
 RMSU=  1.40D-03    CP:  9.79D-01  6.97D-01
 E= -845.592018249239     Delta-E=       -0.241394283584 Rises=F Damp=F
 DIIS: error= 1.22D-02 at cycle   3 NSaved=   3.
 NSaved= 3 IEnMin= 3 EnMin= -845.592018249239     IErMin= 2 ErrMin= 6.54D-03
 ErrMax= 1.22D-02  0.00D+00 EMaxC= 1.00D-01 BMatC= 5.71D-02 BMatP= 4.11D-02
 IDIUse=2 WtCom= 0.00D+00 WtEn= 1.00D+00
 Coeff-En:   0.000D+00 0.000D+00 0.100D+01
 Coeff:      0.000D+00 0.000D+00 0.100D+01
 Gap=     0.260 Goal=   None    Shift=    0.000
 RMSDP=2.17D-03 MaxDP=1.01D-01 DE=-2.41D-01 OVMax= 2.28D-01

 Cycle   4  Pass 0  IDiag  1:
 RMSU=  1.17D-03    CP:  9.85D-01  1.19D+00 -2.50D-02
 E= -845.392847830074     Delta-E=        0.199170419165 Rises=F Damp=F
 DIIS: error= 2.58D-02 at cycle   4 NSaved=   4.
 NSaved= 4 IEnMin= 3 EnMin= -845.592018249239     IErMin= 2 ErrMin= 6.54D-03
 ErrMax= 2.58D-02  0.00D+00 EMaxC= 1.00D-01 BMatC= 2.79D-01 BMatP= 4.11D-02
 IDIUse=2 WtCom= 0.00D+00 WtEn= 1.00D+00
 Coeff-En:   0.000D+00 0.000D+00 0.776D+00 0.224D+00
 Coeff:      0.000D+00 0.000D+00 0.776D+00 0.224D+00
 Gap=     0.256 Goal=   None    Shift=    0.000
 RMSDP=1.18D-03 MaxDP=6.38D-02 DE= 1.99D-01 OVMax= 1.19D-01

 Cycle   5  Pass 0  IDiag  1:
 RMSU=  1.84D-04    CP:  9.82D-01  8.89D-01  4.82D-01  4.71D-01
 E= -845.626827618579     Delta-E=       -0.233979788505 Rises=F Damp=F
 DIIS: error= 6.98D-03 at cycle   5 NSaved=   5.
 NSaved= 5 IEnMin= 5 EnMin= -845.626827618579     IErMin= 2 ErrMin= 6.54D-03
 ErrMax= 6.98D-03  0.00D+00 EMaxC= 1.00D-01 BMatC= 1.91D-02 BMatP= 4.11D-02
 IDIUse=3 WtCom= 9.30D-01 WtEn= 6.98D-02
 Coeff-Com: -0.318D-02 0.161D-01 0.290D+00-0.785D-01 0.776D+00
 Coeff-En:   0.000D+00 0.000D+00 0.297D+00 0.000D+00 0.703D+00
 Coeff:     -0.295D-02 0.150D-01 0.290D+00-0.730D-01 0.771D+00
 Gap=     0.274 Goal=   None    Shift=    0.000
 RMSDP=3.83D-04 MaxDP=1.80D-02 DE=-2.34D-01 OVMax= 4.14D-02

 Cycle   6  Pass 0  IDiag  1:
 RMSU=  4.03D-05    CP:  9.81D-01  8.09D-01  6.67D-01  2.95D-01  8.19D-01
 E= -845.643905621633     Delta-E=       -0.017078003054 Rises=F Damp=F
 DIIS: error= 2.47D-04 at cycle   6 NSaved=   6.
 NSaved= 6 IEnMin= 6 EnMin= -845.643905621633     IErMin= 6 ErrMin= 2.47D-04
 ErrMax= 2.47D-04  0.00D+00 EMaxC= 1.00D-01 BMatC= 4.25D-05 BMatP= 1.91D-02
 IDIUse=3 WtCom= 9.98D-01 WtEn= 2.47D-03
 Coeff-Com: -0.316D-02 0.647D-02 0.100D+00-0.530D-01 0.374D+00 0.576D+00
 Coeff-En:   0.000D+00 0.000D+00 0.000D+00 0.000D+00 0.000D+00 0.100D+01
 Coeff:     -0.315D-02 0.646D-02 0.997D-01-0.529D-01 0.373D+00 0.577D+00
 Gap=     0.275 Goal=   None    Shift=    0.000
 RMSDP=1.86D-05 MaxDP=1.28D-03 DE=-1.71D-02 OVMax= 1.01D-03

 Cycle   7  Pass 0  IDiag  1:
 RMSU=  1.00D-05    CP:  9.81D-01  8.13D-01  6.64D-01  2.96D-01  8.60D-01
                    CP:  7.29D-01
 E= -845.643942898503     Delta-E=       -0.000037276870 Rises=F Damp=F
 DIIS: error= 7.74D-05 at cycle   7 NSaved=   7.
 NSaved= 7 IEnMin= 7 EnMin= -845.643942898503     IErMin= 7 ErrMin= 7.74D-05
 ErrMax= 7.74D-05  0.00D+00 EMaxC= 1.00D-01 BMatC= 2.25D-06 BMatP= 4.25D-05
 IDIUse=1 WtCom= 1.00D+00 WtEn= 0.00D+00
 Coeff-Com: -0.137D-02 0.240D-02 0.356D-01-0.229D-01 0.146D+00 0.270D+00
 Coeff-Com:  0.570D+00
 Coeff:     -0.137D-02 0.240D-02 0.356D-01-0.229D-01 0.146D+00 0.270D+00
 Coeff:      0.570D+00
 Gap=     0.275 Goal=   None    Shift=    0.000
 RMSDP=4.94D-06 MaxDP=2.30D-04 DE=-3.73D-05 OVMax= 1.98D-04

 Initial convergence to 1.0D-05 achieved.  Increase integral accuracy.
 Cycle   8  Pass 1  IDiag  1:
 E= -845.643992157634     Delta-E=       -0.000049259131 Rises=F Damp=F
 DIIS: error= 8.36D-05 at cycle   1 NSaved=   1.
 NSaved= 1 IEnMin= 1 EnMin= -845.643992157634     IErMin= 1 ErrMin= 8.36D-05
 ErrMax= 8.36D-05  0.00D+00 EMaxC= 1.00D-01 BMatC= 1.19D-06 BMatP= 1.19D-06
 IDIUse=1 WtCom= 1.00D+00 WtEn= 0.00D+00
 Coeff-Com:  0.100D+01
 Coeff:      0.100D+01
 Gap=     0.275 Goal=   None    Shift=    0.000
 RMSDP=4.94D-06 MaxDP=2.30D-04 DE=-4.93D-05 OVMax= 2.66D-04

 Cycle   9  Pass 1  IDiag  1:
 RMSU=  3.77D-05    CP:  1.00D+00
 E= -845.643992909822     Delta-E=       -0.000000752188 Rises=F Damp=F
 DIIS: error= 3.04D-05 at cycle   2 NSaved=   2.
 NSaved= 2 IEnMin= 2 EnMin= -845.643992909822     IErMin= 2 ErrMin= 3.04D-05
 ErrMax= 3.04D-05  0.00D+00 EMaxC= 1.00D-01 BMatC= 6.28D-07 BMatP= 1.19D-06
 IDIUse=1 WtCom= 1.00D+00 WtEn= 0.00D+00
 Coeff-Com:  0.389D+00 0.611D+00
 Coeff:      0.389D+00 0.611D+00
 Gap=     0.275 Goal=   None    Shift=    0.000
 RMSDP=3.72D-06 MaxDP=2.89D-04 DE=-7.52D-07 OVMax= 3.16D-04

 Cycle  10  Pass 1  IDiag  1:
 RMSU=  3.70D-06    CP:  1.00D+00  1.00D+00
 E= -845.643993167813     Delta-E=       -0.000000257991 Rises=F Damp=F
 DIIS: error= 2.14D-05 at cycle   3 NSaved=   3.
 NSaved= 3 IEnMin= 3 EnMin= -845.643993167813     IErMin= 3 ErrMin= 2.14D-05
 ErrMax= 2.14D-05  0.00D+00 EMaxC= 1.00D-01 BMatC= 3.28D-07 BMatP= 6.28D-07
 IDIUse=1 WtCom= 1.00D+00 WtEn= 0.00D+00
 Coeff-Com:  0.202D-01 0.415D+00 0.564D+00
 Coeff:      0.202D-01 0.415D+00 0.564D+00
 Gap=     0.275 Goal=   None    Shift=    0.000
 RMSDP=1.93D-06 MaxDP=1.02D-04 DE=-2.58D-07 OVMax= 1.93D-04

 Cycle  11  Pass 1  IDiag  1:
 RMSU=  7.43D-07    CP:  1.00D+00  1.01D+00  5.42D-01
 E= -845.643993434392     Delta-E=       -0.000000266579 Rises=F Damp=F
 DIIS: error= 1.14D-05 at cycle   4 NSaved=   4.
 NSaved= 4 IEnMin= 4 EnMin= -845.643993434392     IErMin= 4 ErrMin= 1.14D-05
 ErrMax= 1.14D-05  0.00D+00 EMaxC= 1.00D-01 BMatC= 3.52D-08 BMatP= 3.28D-07
 IDIUse=1 WtCom= 1.00D+00 WtEn= 0.00D+00
 Coeff-Com: -0.503D-02 0.252D+00 0.378D+00 0.374D+00
 Coeff:     -0.503D-02 0.252D+00 0.378D+00 0.374D+00
 Gap=     0.275 Goal=   None    Shift=    0.000
 RMSDP=4.85D-07 MaxDP=2.32D-05 DE=-2.67D-07 OVMax= 4.67D-05

 Cycle  12  Pass 1  IDiag  1:
 RMSU=  1.31D-07    CP:  1.00D+00  1.01D+00  5.88D-01  4.15D-01
 E= -845.643993462726     Delta-E=       -0.000000028333 Rises=F Damp=F
 DIIS: error= 4.66D-07 at cycle   5 NSaved=   5.
 NSaved= 5 IEnMin= 5 EnMin= -845.643993462726     IErMin= 5 ErrMin= 4.66D-07
 ErrMax= 4.66D-07  0.00D+00 EMaxC= 1.00D-01 BMatC= 1.62D-10 BMatP= 3.52D-08
 IDIUse=1 WtCom= 1.00D+00 WtEn= 0.00D+00
 Coeff-Com: -0.275D-02 0.116D+00 0.174D+00 0.184D+00 0.529D+00
 Coeff:     -0.275D-02 0.116D+00 0.174D+00 0.184D+00 0.529D+00
 Gap=     0.275 Goal=   None    Shift=    0.000
 RMSDP=3.68D-08 MaxDP=1.88D-06 DE=-2.83D-08 OVMax= 1.48D-06

 Cycle  13  Pass 1  IDiag  1:
 RMSU=  3.22D-08    CP:  1.00D+00  1.01D+00  5.86D-01  4.32D-01  9.24D-01
 E= -845.643993462880     Delta-E=       -0.000000000154 Rises=F Damp=F
 DIIS: error= 5.36D-08 at cycle   6 NSaved=   6.
 NSaved= 6 IEnMin= 6 EnMin= -845.643993462880     IErMin= 6 ErrMin= 5.36D-08
 ErrMax= 5.36D-08  0.00D+00 EMaxC= 1.00D-01 BMatC= 3.16D-12 BMatP= 1.62D-10
 IDIUse=1 WtCom= 1.00D+00 WtEn= 0.00D+00
 Coeff-Com: -0.305D-03 0.955D-02 0.142D-01 0.194D-01 0.133D+00 0.824D+00
 Coeff:     -0.305D-03 0.955D-02 0.142D-01 0.194D-01 0.133D+00 0.824D+00
 Gap=     0.275 Goal=   None    Shift=    0.000
 RMSDP=8.61D-09 MaxDP=3.51D-07 DE=-1.54D-10 OVMax= 2.95D-07

 SCF Done:  E(RPBE1PBE) =  -845.643993463     A.U. after   13 cycles
            NFock= 13  Conv=0.86D-08     -V/T= 2.0103
 KE= 8.370222556392D+02 PE=-5.073865708666D+03 EE= 1.836548442527D+03
 Leave Link  502 at Thu Dec  8 09:07:20 2022, MaxMem=  4194304000 cpu:             836.4 elap:             104.6
 (Enter /software/gaussian/G16-A.03/avx/g16/l801.exe)
 DoSCS=F DFT=T ScalE2(SS,OS)=  1.000000  1.000000
 Range of M.O.s used for correlation:     1   396
 NBasis=   396 NAE=    73 NBE=    73 NFC=     0 NFV=     0
 NROrb=    396 NOA=    73 NOB=    73 NVA=   323 NVB=   323

 **** Warning!!: The largest alpha MO coefficient is  0.11682982D+02

 Leave Link  801 at Thu Dec  8 09:07:20 2022, MaxMem=  4194304000 cpu:               0.2 elap:               0.0
 (Enter /software/gaussian/G16-A.03/avx/g16/l1101.exe)
 Using compressed storage, NAtomX=    45.
 Will process     46 centers per pass.
   1 Symmetry operations used in ECPInt.
 ECPInt:  NShTT=   18528 NPrTT=   64586 LenC2=   16488 LenP2D=   40812.
 LDataN:  DoStor=T MaxTD1= 5 Len=  102
 R6Disp: Adding Grimme-D3(BJ) dispersion energy 1st derivatives to the gradient.
 Leave Link 1101 at Thu Dec  8 09:07:21 2022, MaxMem=  4194304000 cpu:               7.4 elap:               0.9
 (Enter /software/gaussian/G16-A.03/avx/g16/l1102.exe)
 Symmetrizing basis deriv contribution to polar:
 IMax=3 JMax=2 DiffMx= 0.00D+00
 Leave Link 1102 at Thu Dec  8 09:07:21 2022, MaxMem=  4194304000 cpu:               0.5 elap:               0.1
 (Enter /software/gaussian/G16-A.03/avx/g16/l1110.exe)
 Forming Gx(P) for the SCF density, NAtomX=    45.
 Integral derivatives from FoFJK, PRISM(SPDF).
 Do as many integral derivatives as possible in FoFJK.
 G2DrvN: MDV=    4194300624.
 G2DrvN: will do    46 centers at a time, making    1 passes.
 Calling FoFCou, ICntrl=  3107 FMM=F I1Cent=   0 AccDes= 0.00D+00.
 FoFJK:  IHMeth= 1 ICntrl=    3107 DoSepK=F KAlg= 0 I1Cent=           0 FoldK=F
 IRaf=         0 NMat=       1 IRICut=       1 DoRegI=T DoRafI=F ISym2E= 0 IDoP0=0 IntGTp=1.
 FoFCou: FMM=F IPFlag=           0 FMFlag=      100000 FMFlg1=           0
         NFxFlg=           0 DoJE=F BraDBF=F KetDBF=F FulRan=T
         wScrn=  0.000000 ICntrl=      3107 IOpCl=  0 I1Cent=           0 NGrid=           0
         NMat0=    1 NMatS0=      1 NMatT0=    0 NMatD0=    1 NMtDS0=    0 NMtDT0=    0
 Symmetry not used in FoFCou.
 End of G2Drv F.D. properties file   721 does not exist.
 End of G2Drv F.D. properties file   722 does not exist.
 End of G2Drv F.D. properties file   788 does not exist.
 Leave Link 1110 at Thu Dec  8 09:14:29 2022, MaxMem=  4194304000 cpu:            3423.5 elap:             428.0
 (Enter /software/gaussian/G16-A.03/avx/g16/l1002.exe)
 Minotr:  Closed shell wavefunction.
          IDoAtm=111111111111111111111111111111111111111111111
          Direct CPHF calculation.
          Differentiating once with respect to electric field.
                with respect to dipole field.
          Differentiating once with respect to nuclear coordinates.
          Requested convergence is 1.0D-08 RMS, and 1.0D-07 maximum.
          Secondary convergence is 1.0D-12 RMS, and 1.0D-12 maximum.
          NewPWx=T KeepS1=F KeepF1=F KeepIn=T MapXYZ=F SortEE=F KeepMc=T.
        13635 words used for storage of precomputed grid.
 Keep R1 ints in memory in canonical form, NReq=3125507630.
 FoFCou: FMM=F IPFlag=           0 FMFlag=           0 FMFlg1=           0
         NFxFlg=           0 DoJE=F BraDBF=F KetDBF=F FulRan=T
         wScrn=  0.000000 ICntrl=       600 IOpCl=  0 I1Cent=           0 NGrid=           0
         NMat0=    1 NMatS0=  78606 NMatT0=    0 NMatD0=    1 NMtDS0=    0 NMtDT0=    0
 Symmetry not used in FoFCou.
 Two-electron integral symmetry not used.
          MDV=    4194304000 using IRadAn=       1.
          Solving linear equations simultaneously, MaxMat=       0.
          There are   138 degrees of freedom in the 1st order CPHF.  IDoFFX=6 NUNeed=     3.
    135 vectors produced by pass  0 Test12= 2.36D-14 1.00D-09 XBig12= 1.35D+02 4.66D+00.
 AX will form   135 AO Fock derivatives at one time.
    135 vectors produced by pass  1 Test12= 2.36D-14 1.00D-09 XBig12= 4.85D+01 1.74D+00.
    135 vectors produced by pass  2 Test12= 2.36D-14 1.00D-09 XBig12= 4.40D-01 6.13D-02.
    135 vectors produced by pass  3 Test12= 2.36D-14 1.00D-09 XBig12= 1.40D-03 2.69D-03.
    135 vectors produced by pass  4 Test12= 2.36D-14 1.00D-09 XBig12= 2.86D-06 1.17D-04.
     75 vectors produced by pass  5 Test12= 2.36D-14 1.00D-09 XBig12= 2.81D-09 4.24D-06.
     11 vectors produced by pass  6 Test12= 2.36D-14 1.00D-09 XBig12= 2.59D-12 1.11D-07.
      3 vectors produced by pass  7 Test12= 2.36D-14 1.00D-09 XBig12= 2.56D-15 4.95D-09.
 InvSVY:  IOpt=1 It=  1 EMax= 1.24D-14
 Solved reduced A of dimension   764 with   138 vectors.
 FullF1:  Do perturbations      1 to       3.
 Isotropic polarizability for W=    0.000000      173.76 Bohr**3.
 End of Minotr F.D. properties file   721 does not exist.
 End of Minotr F.D. properties file   722 does not exist.
 End of Minotr F.D. properties file   788 does not exist.
 Leave Link 1002 at Thu Dec  8 09:23:19 2022, MaxMem=  4194304000 cpu:            4234.7 elap:             529.4
 (Enter /software/gaussian/G16-A.03/avx/g16/l601.exe)
 Copying SCF densities to generalized density rwf, IOpCl= 0 IROHF=0.

 **********************************************************************

            Population analysis using the SCF density.

 **********************************************************************

 Orbital symmetries:
       Occupied  (A) (A) (A) (A) (A) (A) (A) (A) (A) (A) (A) (A)
                 (A) (A) (A) (A) (A) (A) (A) (A) (A) (A) (A) (A)
                 (A) (A) (A) (A) (A) (A) (A) (A) (A) (A) (A) (A)
                 (A) (A) (A) (A) (A) (A) (A) (A) (A) (A) (A) (A)
                 (A) (A) (A) (A) (A) (A) (A) (A) (A) (A) (A) (A)
                 (A) (A) (A) (A) (A) (A) (A) (A) (A) (A) (A) (A)
                 (A)
       Virtual   (A) (A) (A) (A) (A) (A) (A) (A) (A) (A) (A) (A)
                 (A) (A) (A) (A) (A) (A) (A) (A) (A) (A) (A) (A)
                 (A) (A) (A) (A) (A) (A) (A) (A) (A) (A) (A) (A)
                 (A) (A) (A) (A) (A) (A) (A) (A) (A) (A) (A) (A)
                 (A) (A) (A) (A) (A) (A) (A) (A) (A) (A) (A) (A)
                 (A) (A) (A) (A) (A) (A) (A) (A) (A) (A) (A) (A)
                 (A) (A) (A) (A) (A) (A) (A) (A) (A) (A) (A) (A)
                 (A) (A) (A) (A) (A) (A) (A) (A) (A) (A) (A) (A)
                 (A) (A) (A) (A) (A) (A) (A) (A) (A) (A) (A) (A)
                 (A) (A) (A) (A) (A) (A) (A) (A) (A) (A) (A) (A)
                 (A) (A) (A) (A) (A) (A) (A) (A) (A) (A) (A) (A)
                 (A) (A) (A) (A) (A) (A) (A) (A) (A) (A) (A) (A)
                 (A) (A) (A) (A) (A) (A) (A) (A) (A) (A) (A) (A)
                 (A) (A) (A) (A) (A) (A) (A) (A) (A) (A) (A) (A)
                 (A) (A) (A) (A) (A) (A) (A) (A) (A) (A) (A) (A)
                 (A) (A) (A) (A) (A) (A) (A) (A) (A) (A) (A) (A)
                 (A) (A) (A) (A) (A) (A) (A) (A) (A) (A) (A) (A)
                 (A) (A) (A) (A) (A) (A) (A) (A) (A) (A) (A) (A)
                 (A) (A) (A) (A) (A) (A) (A) (A) (A) (A) (A) (A)
                 (A) (A) (A) (A) (A) (A) (A) (A) (A) (A) (A) (A)
                 (A) (A) (A) (A) (A) (A) (A) (A) (A) (A) (A) (A)
                 (A) (A) (A) (A) (A) (A) (A) (A) (A) (A) (A) (A)
                 (A) (A) (A) (A) (A) (A) (A) (A) (A) (A) (A) (A)
                 (A) (A) (A) (A) (A) (A) (A) (A) (A) (A) (A) (A)
                 (A) (A) (A) (A) (A) (A) (A) (A) (A) (A) (A) (A)
                 (A) (A) (A) (A) (A) (A) (A) (A) (A) (A) (A) (A)
                 (A) (A) (A) (A) (A) (A) (A) (A) (A) (A) (A)
 The electronic state is 1-A.
 Alpha  occ. eigenvalues --  -19.24339 -19.24334 -14.35281 -14.35276 -10.31488
 Alpha  occ. eigenvalues --  -10.31486 -10.28614 -10.28613 -10.26025 -10.25767
 Alpha  occ. eigenvalues --  -10.25767 -10.24301 -10.24301 -10.22392 -10.22392
 Alpha  occ. eigenvalues --  -10.21900 -10.21899 -10.21168 -10.21168  -1.11895
 Alpha  occ. eigenvalues --   -1.11699  -0.91643  -0.90831  -0.84890  -0.83364
 Alpha  occ. eigenvalues --   -0.80837  -0.76698  -0.72289  -0.69727  -0.69640
 Alpha  occ. eigenvalues --   -0.69022  -0.68961  -0.65437  -0.64949  -0.59573
 Alpha  occ. eigenvalues --   -0.55846  -0.55257  -0.55024  -0.52020  -0.51497
 Alpha  occ. eigenvalues --   -0.51455  -0.50192  -0.47111  -0.47103  -0.46720
 Alpha  occ. eigenvalues --   -0.44995  -0.44958  -0.44304  -0.43949  -0.43325
 Alpha  occ. eigenvalues --   -0.42535  -0.41040  -0.40548  -0.39326  -0.39231
 Alpha  occ. eigenvalues --   -0.38365  -0.38259  -0.37333  -0.36827  -0.36688
 Alpha  occ. eigenvalues --   -0.36620  -0.36605  -0.35107  -0.34353  -0.34272
 Alpha  occ. eigenvalues --   -0.33516  -0.33495  -0.32922  -0.32911  -0.28054
 Alpha  occ. eigenvalues --   -0.25232  -0.24564  -0.24520
 Alpha virt. eigenvalues --    0.02942   0.03231   0.05947   0.06511   0.08087
 Alpha virt. eigenvalues --    0.09331   0.09533   0.09881   0.09988   0.11138
 Alpha virt. eigenvalues --    0.11146   0.12166   0.12179   0.13107   0.14100
 Alpha virt. eigenvalues --    0.14458   0.14571   0.14744   0.15606   0.16417
 Alpha virt. eigenvalues --    0.16436   0.16626   0.17614   0.17711   0.18750
 Alpha virt. eigenvalues --    0.18991   0.20061   0.20277   0.20520   0.20908
 Alpha virt. eigenvalues --    0.21332   0.21556   0.21603   0.22005   0.24342
 Alpha virt. eigenvalues --    0.24439   0.25160   0.25173   0.25665   0.26239
 Alpha virt. eigenvalues --    0.27615   0.28023   0.28665   0.31204   0.32745
 Alpha virt. eigenvalues --    0.35873   0.38918   0.39898   0.40778   0.41215
 Alpha virt. eigenvalues --    0.41511   0.42828   0.43617   0.44035   0.44498
 Alpha virt. eigenvalues --    0.46151   0.47175   0.50515   0.52094   0.52223
 Alpha virt. eigenvalues --    0.52773   0.53567   0.54400   0.54707   0.56854
 Alpha virt. eigenvalues --    0.57038   0.57876   0.57994   0.58150   0.58713
 Alpha virt. eigenvalues --    0.59815   0.60354   0.60540   0.60983   0.61874
 Alpha virt. eigenvalues --    0.63826   0.64520   0.64630   0.65394   0.65434
 Alpha virt. eigenvalues --    0.65782   0.65936   0.66114   0.66301   0.66463
 Alpha virt. eigenvalues --    0.67095   0.67220   0.67727   0.68086   0.68992
 Alpha virt. eigenvalues --    0.69079   0.70033   0.70107   0.70171   0.70592
 Alpha virt. eigenvalues --    0.71281   0.71393   0.72194   0.72199   0.73028
 Alpha virt. eigenvalues --    0.73135   0.73396   0.73723   0.74143   0.74249
 Alpha virt. eigenvalues --    0.74387   0.74578   0.75391   0.75426   0.76211
 Alpha virt. eigenvalues --    0.76435   0.78052   0.78194   0.79145   0.79234
 Alpha virt. eigenvalues --    0.80371   0.81564   0.84006   0.84306   0.87976
 Alpha virt. eigenvalues --    0.88240   0.88806   0.91099   0.93717   0.93767
 Alpha virt. eigenvalues --    0.96354   0.98544   1.01860   1.03721   1.05026
 Alpha virt. eigenvalues --    1.06341   1.08056   1.08128   1.11388   1.11875
 Alpha virt. eigenvalues --    1.13811   1.14677   1.15765   1.15891   1.17540
 Alpha virt. eigenvalues --    1.18140   1.18629   1.20063   1.21141   1.21524
 Alpha virt. eigenvalues --    1.24069   1.25359   1.28425   1.29230   1.30830
 Alpha virt. eigenvalues --    1.32105   1.34020   1.35213   1.38139   1.38682
 Alpha virt. eigenvalues --    1.44115   1.45492   1.47542   1.48377   1.51605
 Alpha virt. eigenvalues --    1.52366   1.54850   1.55279   1.56413   1.56584
 Alpha virt. eigenvalues --    1.56610   1.57116   1.57621   1.58153   1.58666
 Alpha virt. eigenvalues --    1.58691   1.60005   1.60082   1.60627   1.61268
 Alpha virt. eigenvalues --    1.64357   1.65071   1.65905   1.66940   1.68359
 Alpha virt. eigenvalues --    1.68859   1.69728   1.70039   1.72695   1.73381
 Alpha virt. eigenvalues --    1.74984   1.76105   1.77317   1.77935   1.78530
 Alpha virt. eigenvalues --    1.78829   1.79115   1.80291   1.81110   1.81391
 Alpha virt. eigenvalues --    1.82011   1.84068   1.84269   1.85312   1.85503
 Alpha virt. eigenvalues --    1.85668   1.85993   1.86688   1.86909   1.87594
 Alpha virt. eigenvalues --    1.87769   1.88360   1.88545   1.89205   1.90628
 Alpha virt. eigenvalues --    1.91246   1.91779   1.92358   1.93105   1.93382
 Alpha virt. eigenvalues --    1.93559   1.95029   1.95822   1.95885   1.96281
 Alpha virt. eigenvalues --    1.97450   1.98586   1.98846   1.99495   1.99508
 Alpha virt. eigenvalues --    2.02246   2.02300   2.03430   2.04116   2.04867
 Alpha virt. eigenvalues --    2.07646   2.08341   2.09241   2.10709   2.11874
 Alpha virt. eigenvalues --    2.14206   2.17598   2.18326   2.19578   2.19619
 Alpha virt. eigenvalues --    2.22215   2.22228   2.23093   2.24036   2.27442
 Alpha virt. eigenvalues --    2.28887   2.29230   2.30191   2.32450   2.32720
 Alpha virt. eigenvalues --    2.34248   2.36509   2.39181   2.40991   2.41038
 Alpha virt. eigenvalues --    2.42393   2.42589   2.43415   2.43516   2.44682
 Alpha virt. eigenvalues --    2.45004   2.47239   2.48257   2.50978   2.51134
 Alpha virt. eigenvalues --    2.53556   2.54072   2.57792   2.59443   2.62436
 Alpha virt. eigenvalues --    2.64000   2.64018   2.64099   2.66107   2.67150
 Alpha virt. eigenvalues --    2.67325   2.67652   2.67874   2.68995   2.70598
 Alpha virt. eigenvalues --    2.72990   2.74594   2.78257   2.79690   2.83754
 Alpha virt. eigenvalues --    2.85311   2.85439   2.88561   2.88844   2.89463
 Alpha virt. eigenvalues --    2.89935   2.90473   2.90691   2.91988   2.92451
 Alpha virt. eigenvalues --    2.93089   2.94061   2.95515   2.96212   2.98050
 Alpha virt. eigenvalues --    2.98618   2.99414   3.00026   3.00398   3.02773
 Alpha virt. eigenvalues --    3.04853   3.05252   3.05983   3.06380   3.08291
 Alpha virt. eigenvalues --    3.09234   3.12078   3.12166   3.15013   3.15109
 Alpha virt. eigenvalues --    3.17598   3.19673   3.30360   3.33775   3.40686
 Alpha virt. eigenvalues --    3.48091   3.61645   3.67194
     Molecular Orbital Coefficients:
                          69        70        71        72        73
                           O         O         O         O         O
     Eigenvalues --    -0.32911  -0.28054  -0.25232  -0.24564  -0.24520
   1 1   C  1S          0.01157  -0.03775   0.00759   0.00426  -0.03257
   2        2S         -0.03250   0.09978  -0.01975  -0.01239   0.08522
   3        3S         -0.02360  -0.09859  -0.02283  -0.00813   0.00361
   4        4PX         0.04066  -0.00842  -0.05891  -0.06294  -0.03444
   5        4PY         0.00430   0.07409  -0.02318  -0.02560   0.06334
   6        4PZ        -0.00487  -0.01945  -0.12956  -0.15034  -0.03355
   7        5PX         0.00655  -0.10804  -0.00820  -0.02505  -0.07608
   8        5PY        -0.01589  -0.01610  -0.03132  -0.01966  -0.02802
   9        5PZ         0.00542   0.04008  -0.10605  -0.09639   0.01290
  10        6D 0       -0.00075   0.00082   0.00869   0.00952  -0.00002
  11        6D+1        0.00122   0.00287  -0.00305  -0.00320   0.00300
  12        6D-1        0.00202   0.00676  -0.02517  -0.02289   0.00510
  13        6D+2       -0.00244   0.00056   0.00074  -0.00055   0.00079
  14        6D-2       -0.00320  -0.02138  -0.00584  -0.00635  -0.02421
  15 2   N  1S         -0.00026  -0.06357   0.01178   0.00796  -0.07963
  16        2S         -0.00264  -0.13050   0.01935   0.01230  -0.16843
  17        3S          0.02653  -0.15662   0.08708   0.05909  -0.20743
  18        4PX         0.02341   0.24073   0.04838   0.06289   0.26671
  19        4PY         0.00695   0.21696   0.00031   0.01167   0.23755
  20        4PZ        -0.02558  -0.10651   0.26581   0.26738  -0.08626
  21        5PX        -0.01395  -0.15551  -0.05638  -0.06097  -0.16256
  22        5PY        -0.01356  -0.16374  -0.01036  -0.00928  -0.16876
  23        5PZ         0.01390   0.06531  -0.19915  -0.19546   0.05213
  24        6D 0        0.00036  -0.00616  -0.00343  -0.00439  -0.00804
  25        6D+1       -0.00211  -0.00568   0.00131   0.00202  -0.00749
  26        6D-1       -0.00222  -0.00444   0.01396   0.01463  -0.00367
  27        6D+2        0.00241  -0.00355  -0.00135  -0.00093   0.00018
  28        6D-2        0.00245   0.01001   0.00392   0.00474   0.01353
  29 3   C  1S          0.00044  -0.01856   0.00643   0.00447  -0.02412
  30        2S          0.00655   0.04323  -0.01873  -0.01508   0.05570
  31        3S         -0.04755   0.05018  -0.00544   0.02638   0.10148
  32        4PX         0.01948   0.12186   0.01736   0.02123   0.13553
  33        4PY        -0.12477   0.03356  -0.00747  -0.00770   0.02454
  34        4PZ         0.02850  -0.01794   0.11599   0.11086  -0.02063
  35        5PX         0.01090   0.03901  -0.03158  -0.04040   0.03624
  36        5PY        -0.03680  -0.02009   0.01712   0.00474  -0.05701
  37        5PZ         0.02994   0.01151   0.03366   0.01806  -0.00232
  38        6D 0       -0.00436  -0.00316   0.00226   0.00231  -0.00259
  39        6D+1       -0.00342   0.00042  -0.01176  -0.01208   0.00005
  40        6D-1       -0.00936   0.00833   0.00651   0.00669   0.00909
  41        6D+2       -0.00193   0.00283  -0.00733  -0.00739   0.00032
  42        6D-2       -0.00209  -0.01368   0.00488   0.00415  -0.01603
  43 4   H  1S         -0.08624   0.05218   0.09036   0.09201   0.06063
  44        2S         -0.05493   0.01681   0.05951   0.06650   0.03223
  45        3PX         0.00083   0.00145  -0.00039  -0.00015   0.00172
  46        3PY         0.00011  -0.00047  -0.00322  -0.00341  -0.00041
  47        3PZ         0.00356  -0.00202   0.00034   0.00020  -0.00245
  48 5   C  1S         -0.00762   0.02442  -0.00672  -0.00631   0.02356
  49        2S          0.01609  -0.06046   0.01651   0.01891  -0.05831
  50        3S          0.06037  -0.09817   0.03279   0.00398  -0.13978
  51        4PX         0.03538  -0.05819  -0.01593  -0.01590  -0.04531
  52        4PY         0.11028  -0.09378   0.02775   0.02151  -0.09804
  53        4PZ        -0.03031   0.03849  -0.07275  -0.07223   0.03418
  54        5PX         0.02960  -0.02246   0.00708   0.00173  -0.01417
  55        5PY         0.05046  -0.08551   0.02635   0.01679  -0.10062
  56        5PZ        -0.03127   0.03571  -0.02683  -0.01283   0.04461
  57        6D 0       -0.00035  -0.00175  -0.01009  -0.01082  -0.00210
  58        6D+1        0.00009   0.00213   0.00310   0.00384   0.00136
  59        6D-1       -0.00347   0.00008  -0.00307  -0.00369  -0.00046
  60        6D+2       -0.00351   0.00053   0.00216   0.00244   0.00160
  61        6D-2        0.00371   0.00449  -0.00111  -0.00135   0.00535
  62 6   O  1S          0.01134  -0.00707   0.00341   0.00195  -0.01376
  63        2S          0.02238  -0.01664   0.00693   0.00447  -0.03101
  64        3S          0.02026  -0.05461   0.02378   0.01397  -0.07785
  65        4PX         0.00142  -0.02903   0.11211   0.11697  -0.02474
  66        4PY        -0.11229  -0.10968   0.03846   0.03434  -0.09641
  67        4PZ         0.00856   0.06144   0.20666   0.23164   0.07583
  68        5PX         0.00648  -0.02435   0.09727   0.09529  -0.02640
  69        5PY        -0.08285  -0.08390   0.03440   0.02930  -0.07246
  70        5PZ         0.00404   0.04760   0.17385   0.19196   0.06229
  71        6D 0        0.00130   0.00141  -0.00123  -0.00079   0.00120
  72        6D+1        0.00133  -0.00080   0.00030  -0.00017  -0.00104
  73        6D-1        0.00103   0.00039   0.00347   0.00419   0.00047
  74        6D+2        0.00129   0.00373  -0.00099  -0.00091   0.00278
  75        6D-2       -0.00125   0.00167   0.00162   0.00158   0.00123
  76 7   C  1S         -0.00394  -0.00053   0.01986   0.02039   0.00045
  77        2S          0.00994   0.00294  -0.04503  -0.04512   0.00194
  78        3S          0.02768   0.00984  -0.13051  -0.16130  -0.00151
  79        4PX         0.01241  -0.03930  -0.07581  -0.07654  -0.02874
  80        4PY         0.22508  -0.00750   0.04369   0.04358   0.00144
  81        4PZ         0.01505   0.00603  -0.10225  -0.09900  -0.00456
  82        5PX         0.01629  -0.01526  -0.03536  -0.04118  -0.01459
  83        5PY         0.08199   0.04065   0.02076   0.02874   0.06939
  84        5PZ         0.00120   0.02869  -0.08678  -0.08769   0.01821
  85        6D 0       -0.00628  -0.00129  -0.00178  -0.00185  -0.00182
  86        6D+1       -0.00715  -0.00056  -0.00369  -0.00361  -0.00025
  87        6D-1       -0.01081   0.00268   0.00299   0.00301   0.00258
  88        6D+2        0.00040   0.00365  -0.00107  -0.00075   0.00328
  89        6D-2        0.00444  -0.00064   0.00193   0.00195  -0.00024
  90 8   C  1S          0.02061  -0.00070  -0.00101  -0.00041  -0.00005
  91        2S         -0.04726   0.00003   0.00350   0.00023  -0.00048
  92        3S         -0.07299   0.05182   0.00130   0.02239   0.06011
  93        4PX        -0.00998   0.01437  -0.01050  -0.01117   0.00602
  94        4PY        -0.16941   0.00592   0.01205   0.01162   0.00455
  95        4PZ        -0.07431  -0.00079   0.03799   0.03467   0.00113
  96        5PX        -0.00668   0.01126  -0.02425  -0.01612   0.00081
  97        5PY        -0.08849   0.01359   0.01282   0.01332   0.01651
  98        5PZ        -0.05138   0.00747   0.03863   0.03647   0.01269
  99        6D 0       -0.00631   0.00028  -0.00288  -0.00292   0.00020
 100        6D+1       -0.00311  -0.00103  -0.00170  -0.00183  -0.00031
 101        6D-1       -0.00552   0.00094   0.00017   0.00024   0.00063
 102        6D+2       -0.00145   0.00076  -0.00186  -0.00154   0.00040
 103        6D-2        0.00275  -0.00123  -0.00012  -0.00034  -0.00087
 104 9   C  1S         -0.00751  -0.00775  -0.00006  -0.00053  -0.00647
 105        2S          0.01714   0.01808   0.00111   0.00132   0.01707
 106        3S          0.03139   0.00410   0.02180   0.02833  -0.00818
 107        4PX         0.02304   0.04116   0.02784   0.02925   0.03038
 108        4PY        -0.08830  -0.00552  -0.00448  -0.00435  -0.00862
 109        4PZ        -0.01167  -0.01478   0.00184  -0.00013  -0.00782
 110        5PX         0.01463   0.01532   0.03611   0.03884   0.00434
 111        5PY        -0.04169  -0.00981  -0.00584  -0.00676  -0.01583
 112        5PZ        -0.00773  -0.01400  -0.00439  -0.00874  -0.00877
 113        6D 0       -0.00264   0.00004   0.00159   0.00158   0.00014
 114        6D+1       -0.00366  -0.00115  -0.00346  -0.00340  -0.00140
 115        6D-1       -0.00626   0.00140   0.00123   0.00124   0.00123
 116        6D+2        0.00283   0.00034  -0.00139  -0.00127  -0.00024
 117        6D-2        0.00640  -0.00092   0.00182   0.00168  -0.00017
 118 10  C  1S         -0.02455   0.00041  -0.00127  -0.00142  -0.00058
 119        2S          0.05703  -0.00326   0.00355   0.00203   0.00355
 120        3S          0.06998   0.00586   0.00413   0.02358  -0.03963
 121        4PX        -0.02677   0.05284  -0.01012  -0.00656   0.03588
 122        4PY        -0.19350   0.00795  -0.02093  -0.02063   0.00352
 123        4PZ         0.03849  -0.02233   0.02642   0.02312  -0.01443
 124        5PX        -0.01419   0.04471  -0.01693  -0.00607   0.02375
 125        5PY        -0.09497   0.01618  -0.02018  -0.02216   0.02098
 126        5PZ         0.02146  -0.04260   0.03034   0.02366  -0.03103
 127        6D 0       -0.00152  -0.00019  -0.00180  -0.00183  -0.00005
 128        6D+1       -0.00616  -0.00236  -0.00078  -0.00108  -0.00141
 129        6D-1       -0.00638   0.00139   0.00230   0.00228   0.00112
 130        6D+2        0.00155   0.00178   0.00034   0.00068   0.00066
 131        6D-2        0.00349   0.00011   0.00225   0.00208   0.00051
 132 11  N  1S         -0.00028  -0.06360  -0.01173   0.00599   0.07979
 133        2S         -0.00273  -0.13057  -0.01927   0.00818   0.16865
 134        3S          0.02708  -0.15675  -0.08678   0.05346   0.20878
 135        4PX        -0.02382  -0.24096   0.04823  -0.06881   0.26522
 136        4PY         0.00747   0.21724   0.00007   0.01687  -0.23738
 137        4PZ         0.02607   0.10579   0.26635  -0.26477  -0.09171
 138        5PX         0.01417   0.15561  -0.05651   0.06442  -0.16111
 139        5PY        -0.01401  -0.16392   0.00997  -0.01283   0.16859
 140        5PZ        -0.01413  -0.06480  -0.19954   0.19386   0.05616
 141        6D 0        0.00034  -0.00620   0.00338  -0.00452   0.00796
 142        6D+1       -0.00215  -0.00565  -0.00132   0.00185   0.00748
 143        6D-1        0.00228   0.00440   0.01400  -0.01454  -0.00398
 144        6D+2        0.00245  -0.00355   0.00133  -0.00090  -0.00020
 145        6D-2       -0.00252  -0.01003   0.00392  -0.00503   0.01344
 146 12  C  1S          0.01186  -0.03776  -0.00761   0.00338   0.03265
 147        2S         -0.03329   0.09982   0.01981  -0.01001  -0.08547
 148        3S         -0.02439  -0.09865   0.02121  -0.00855  -0.00378
 149        4PX        -0.04150   0.00835  -0.05890   0.06315  -0.03283
 150        4PY         0.00469   0.07413   0.02284  -0.02377  -0.06402
 151        4PZ         0.00485   0.01924  -0.13001   0.15108  -0.02970
 152        5PX        -0.00616   0.10820  -0.00701   0.02709  -0.07545
 153        5PY        -0.01610  -0.01614   0.03129  -0.01947   0.02754
 154        5PZ        -0.00573  -0.03985  -0.10671   0.09581   0.01510
 155        6D 0       -0.00074   0.00085  -0.00861   0.00940   0.00022
 156        6D+1        0.00124   0.00282   0.00310  -0.00316  -0.00303
 157        6D-1       -0.00207  -0.00673  -0.02526   0.02275   0.00561
 158        6D+2       -0.00254   0.00057  -0.00070  -0.00059  -0.00082
 159        6D-2        0.00327   0.02141  -0.00581   0.00689  -0.02406
 160 13  C  1S         -0.00095  -0.01628   0.00000   0.00593   0.00007
 161        2S          0.00272   0.02978  -0.00011  -0.01666  -0.00019
 162        3S         -0.00251   0.27363   0.00156  -0.03446  -0.00048
 163        4PX         0.00015   0.00008   0.03874   0.00078  -0.05482
 164        4PY         0.03066   0.07715   0.00002  -0.01197  -0.00012
 165        4PZ         0.00007   0.00004   0.03931  -0.00035   0.02976
 166        5PX         0.00035   0.00015   0.03746   0.00122  -0.05351
 167        5PY         0.02367   0.13879   0.00079  -0.00015   0.00005
 168        5PZ        -0.00011   0.00004  -0.01623  -0.00049   0.02227
 169        6D 0       -0.00043  -0.00148  -0.00002  -0.00433  -0.00006
 170        6D+1       -0.00091  -0.00030  -0.00003   0.00591   0.00007
 171        6D-1       -0.00000   0.00001  -0.01188   0.00000  -0.00158
 172        6D+2       -0.00069   0.00087   0.00001   0.00405   0.00005
 173        6D-2       -0.00000   0.00000  -0.00363   0.00002  -0.00181
 174 14  O  1S          0.01162  -0.00708  -0.00342   0.00157   0.01380
 175        2S          0.02296  -0.01666  -0.00695   0.00361   0.03110
 176        3S          0.02055  -0.05466  -0.02395   0.01199   0.07815
 177        4PX        -0.00150   0.02922   0.11200  -0.11556  -0.02775
 178        4PY        -0.11505  -0.10986  -0.03793   0.03138   0.09738
 179        4PZ        -0.00878  -0.06103   0.20750  -0.23334   0.06978
 180        5PX        -0.00662   0.02448   0.09711  -0.09405  -0.02886
 181        5PY        -0.08495  -0.08405  -0.03405   0.02698   0.07328
 182        5PZ        -0.00422  -0.04729   0.17456  -0.19332   0.05728
 183        6D 0        0.00134   0.00141   0.00121  -0.00075  -0.00121
 184        6D+1        0.00136  -0.00080  -0.00031  -0.00020   0.00103
 185        6D-1       -0.00106  -0.00038   0.00349  -0.00420   0.00036
 186        6D+2        0.00132   0.00373   0.00099  -0.00083  -0.00280
 187        6D-2        0.00128  -0.00167   0.00162  -0.00160   0.00120
 188 15  C  1S         -0.00779   0.02443   0.00669  -0.00572  -0.02371
 189        2S          0.01647  -0.06049  -0.01642   0.01747   0.05876
 190        3S          0.06175  -0.09817  -0.03272   0.00054   0.13982
 191        4PX        -0.03630   0.05826  -0.01593   0.01679  -0.04497
 192        4PY         0.11304  -0.09394  -0.02790   0.01913   0.09861
 193        4PZ         0.03075  -0.03823  -0.07283   0.07125   0.03562
 194        5PX        -0.03035   0.02254   0.00720  -0.00139  -0.01431
 195        5PY         0.05179  -0.08565  -0.02641   0.01423   0.10110
 196        5PZ         0.03185  -0.03547  -0.02676   0.01167   0.04462
 197        6D 0       -0.00038  -0.00173   0.01011  -0.01086   0.00182
 198        6D+1        0.00010   0.00215  -0.00315   0.00391  -0.00129
 199        6D-1        0.00355  -0.00010  -0.00305   0.00366  -0.00036
 200        6D+2       -0.00360   0.00053  -0.00216   0.00245  -0.00154
 201        6D-2       -0.00380  -0.00449  -0.00110   0.00122   0.00538
 202 16  C  1S          0.00041  -0.01858  -0.00643   0.00386   0.02422
 203        2S          0.00683   0.04329   0.01876  -0.01364  -0.05605
 204        3S         -0.04879   0.05012   0.00532   0.02879  -0.10079
 205        4PX        -0.01960  -0.12189   0.01731  -0.02435   0.13498
 206        4PY        -0.12778   0.03361   0.00773  -0.00733  -0.02477
 207        4PZ        -0.02884   0.01782   0.11622  -0.11011  -0.02305
 208        5PX        -0.01091  -0.03906  -0.03169   0.03944   0.03721
 209        5PY        -0.03767  -0.02012  -0.01691   0.00337   0.05709
 210        5PZ        -0.03057  -0.01153   0.03365  -0.01790  -0.00282
 211        6D 0       -0.00450  -0.00312  -0.00226   0.00224   0.00261
 212        6D+1       -0.00350   0.00041   0.01179  -0.01205  -0.00032
 213        6D-1        0.00957  -0.00831   0.00655  -0.00692   0.00890
 214        6D+2       -0.00202   0.00286   0.00731  -0.00732  -0.00052
 215        6D-2        0.00211   0.01370   0.00490  -0.00377  -0.01614
 216 17  H  1S         -0.08824   0.05209  -0.09064   0.09332  -0.05834
 217        2S         -0.05621   0.01674  -0.05974   0.06715  -0.03056
 218        3PX        -0.00084  -0.00145  -0.00039   0.00010   0.00173
 219        3PY         0.00010  -0.00046   0.00322  -0.00342   0.00032
 220        3PZ        -0.00364   0.00202   0.00032  -0.00013  -0.00245
 221 18  C  1S         -0.00403  -0.00055  -0.01990   0.02035   0.00006
 222        2S          0.01016   0.00297   0.04509  -0.04496  -0.00305
 223        3S          0.02850   0.01012   0.13089  -0.16093  -0.00247
 224        4PX        -0.01323   0.03923  -0.07581   0.07690  -0.02683
 225        4PY         0.23047  -0.00756  -0.04403   0.04377  -0.00037
 226        4PZ        -0.01592  -0.00608  -0.10248   0.09887  -0.00217
 227        5PX        -0.01693   0.01523  -0.03537   0.04132  -0.01359
 228        5PY         0.08390   0.04051  -0.02120   0.03058  -0.06859
 229        5PZ        -0.00141  -0.02890  -0.08689   0.08699   0.02052
 230        6D 0       -0.00650  -0.00128   0.00178  -0.00188   0.00176
 231        6D+1       -0.00727  -0.00055   0.00369  -0.00360   0.00015
 232        6D-1        0.01105  -0.00267   0.00301  -0.00308   0.00251
 233        6D+2        0.00037   0.00366   0.00105  -0.00066  -0.00331
 234        6D-2       -0.00459   0.00064   0.00194  -0.00194  -0.00029
 235 19  C  1S         -0.00762  -0.00775   0.00006  -0.00069   0.00645
 236        2S          0.01738   0.01809  -0.00111   0.00173  -0.01703
 237        3S          0.03190   0.00405  -0.02177   0.02806   0.00890
 238        4PX        -0.02309  -0.04116   0.02790  -0.02993   0.02965
 239        4PY        -0.09033  -0.00548   0.00449  -0.00456   0.00850
 240        4PZ         0.01199   0.01474   0.00187   0.00029  -0.00778
 241        5PX        -0.01471  -0.01530   0.03616  -0.03886   0.00339
 242        5PY        -0.04261  -0.00976   0.00586  -0.00711   0.01564
 243        5PZ         0.00792   0.01400  -0.00435   0.00890  -0.00858
 244        6D 0       -0.00274   0.00004  -0.00159   0.00158  -0.00010
 245        6D+1       -0.00370  -0.00115   0.00347  -0.00343   0.00131
 246        6D-1        0.00640  -0.00139   0.00123  -0.00127   0.00120
 247        6D+2        0.00288   0.00035   0.00138  -0.00126   0.00020
 248        6D-2       -0.00658   0.00092   0.00183  -0.00168  -0.00021
 249 20  C  1S         -0.02517   0.00041   0.00127  -0.00144   0.00054
 250        2S          0.05848  -0.00328  -0.00356   0.00210  -0.00349
 251        3S          0.07167   0.00584  -0.00416   0.02265   0.04028
[...]
 ,0.00000306,0.00000458,0.00002152,0.00022171,-0.00010211,0.00001146,-0
 .00013326,-0.00006007,-0.00013112,-0.00033844,0.00002527,0.00031535,-0
 .00001857,0.00003300,0.00002846,-0.00945343,-0.00289991,-0.00335874,-0
 .00029604,0.00313406,-0.00092995,-0.26187447,-0.04374604,-0.10610465,0
 .00043783,-0.00118308,-0.00010680,0.00000601,0.00000470,0.00000305,0.0
 0000493,-0.00000297,0.00000691,0.00000210,-0.00000038,-0.00000207,-0.0
 0000076,0.00000094,0.00000097,0.00000048,-0.00000116,0.00000435,0.0000
 0272,-0.00000101,-0.00000093,-0.00000109,-0.00000114,0.00000102,0.0000
 0032,0.00000161,0.00000061,0.00000510,0.00000083,-0.00000355,-0.000000
 46,0.00000085,0.00000923,-0.00000355,0.00000552,-0.00000039,0.00001137
 ,0.00002334,-0.00000261,-0.00001322,0.00000170,-0.00000188,-0.00001629
 ,0.00002622,-0.00002119,0.00000002,-0.00006272,-0.00000951,0.00010171,
 -0.00013223,0.00003635,-0.00061227,-0.00022921,-0.00049350,0.00043354,
 -0.00001102,0.00000897,0.00533599,0.00165029,0.00346802,-0.01447528,-0
 .00272191,-0.00860002,0.28039123,-0.00016714,-0.00001677,-0.00005757,0
 .00012041,-0.00006423,-0.00005582,-0.00005604,0.00008182,-0.00003848,0
 .00002210,-0.00001233,0.00002524,-0.00002843,0.00003403,-0.00000624,0.
 00011306,-0.00003516,0.00005012,0.00001077,0.00001184,0.00003838,-0.00
 000600,-0.00000909,-0.00001364,0.00000371,-0.00000662,-0.00002041,-0.0
 0000244,0.00001977,-0.00002248,-0.00016023,-0.00044026,-0.00002873,0.0
 0009086,-0.00077614,0.00005708,-0.00000847,0.00000095,-0.00004034,-0.0
 0055192,0.00036722,-0.00004539,0.00021008,0.00001858,-0.00008535,0.000
 18456,0.00102630,-0.00044359,-0.00005656,-0.00006421,0.00004957,0.0241
 5495,0.00630258,0.01007370,0.00158677,-0.00474318,0.00207577,-0.045721
 50,-0.05601845,-0.02307565,0.00089097,0.00164565,0.00070382,0.00000930
 ,0.00000371,0.00000191,0.00000233,-0.00000575,0.00000088,0.00000626,-0
 .00000146,-0.00000323,-0.00000564,-0.00000755,0.00000404,0.00000098,0.
 00000135,0.00001116,0.00000794,-0.00000288,-0.00000051,0.00000231,-0.0
 0000238,0.00000657,-0.00000741,-0.00000278,-0.00000088,-0.00000377,-0.
 00001199,0.00000143,-0.00000083,0.00001571,-0.00000522,0.00001890,-0.0
 0001403,0.00001555,0.00000595,-0.00002557,0.00001319,0.00003585,0.0000
 1005,0.00000292,-0.00001353,0.00001969,-0.00003793,0.00001235,0.000093
 24,-0.00000634,-0.00006448,0.00001814,0.00025303,0.00167438,0.00030773
 ,0.00080199,-0.00002009,-0.00014211,-0.00018438,-0.01912438,-0.0039093
 2,-0.00764589,-0.00880439,-0.00295990,-0.00544841,0.04622599,0.0596378
 4,0.00014916,0.00026152,0.00011069,-0.00009903,-0.00015280,0.00006607,
 0.00009729,-0.00006700,0.00001699,0.00000380,0.00002037,0.00000569,0.0
 0003490,-0.00004769,0.00004410,-0.00022471,-0.00013649,-0.00014649,0.0
 0000769,0.00001511,-0.00001143,-0.00000151,-0.00000191,0.00000190,-0.0
 0000361,-0.00000857,0.00001262,0.00000456,0.00000233,0.00001465,-0.000
 22081,-0.00043245,0.00030509,0.00010080,0.00125975,0.00000924,0.000007
 24,-0.00000828,0.00008895,0.00102542,-0.00081723,0.00020542,-0.0002654
 6,-0.00016815,-0.00001173,-0.00131452,-0.00082091,0.00003946,-0.000057
 33,0.00007152,0.00008916,-0.00970372,-0.00384172,-0.00605514,-0.000198
 80,0.00253721,-0.00080691,-0.10485270,-0.02162770,-0.09673435,0.000905
 58,-0.00075615,0.00027740,-0.00001644,-0.00000961,-0.00000713,-0.00001
 062,0.00000511,-0.00001863,-0.00000803,0.00000567,0.00000523,0.0000002
 9,-0.00000613,-0.00000305,0.00000217,0.00000546,-0.00001539,-0.0000067
 9,0.00000468,0.00000431,0.00000464,0.00000326,-0.00000141,-0.00000360,
 -0.00000632,-0.00000432,-0.00002560,-0.00000236,0.00000838,0.00000926,
 0.00000523,-0.00004316,0.00002345,-0.00001577,0.00000777,-0.00002114,-
 0.00002118,-0.00001123,-0.00003919,-0.00002322,-0.00000473,0.00003190,
 0.00001974,0.00002936,0.00007089,-0.00010316,0.00002069,0.00033285,0.0
 0012840,0.00021425,-0.00095337,-0.00001614,0.00024232,-0.00023492,-0.0
 0008908,0.00019354,-0.01959339,-0.00303694,-0.00882538,0.02014501,0.00
 416593,0.01027419,0.11459501,0.02343998,0.10003002,-0.00010372,0.00017
 982,-0.00007945,0.00005973,-0.00011253,0.00007109,-0.00000178,0.000013
 64,-0.00000874,0.00001874,-0.00001190,0.00000652,-0.00001325,0.0000195
 5,-0.00002189,0.00006212,-0.00007324,0.00001747,0.00000630,0.00000218,
 0.00001085,-0.00000627,-0.00000088,-0.00000197,0.00000094,-0.00000189,
 -0.00000538,-0.00000244,0.00000471,-0.00000474,-0.00019666,-0.00086229
 ,0.00047061,-0.00145837,0.00144076,-0.00039510,0.00009859,-0.00002663,
 0.00006815,0.00092542,-0.00118566,-0.00020085,0.00033230,0.00022171,0.
 00050444,0.00033896,0.00106379,-0.00075254,-0.00004499,-0.00011520,0.0
 0006231,-0.00267796,0.00019563,0.00007507,0.00048160,-0.00088306,0.000
 45505,0.00034454,0.00007771,0.00064198,-0.09231319,0.09457301,-0.03910
 651,0.00000416,-0.00000173,0.00000510,0.00000794,0.00000030,0.00000776
 ,0.00000212,-0.00000137,-0.00000049,-0.00000227,-0.00000182,0.00000049
 ,0.00000164,0.00000134,0.00000395,0.00000240,-0.00000092,-0.00000033,0
 .00000096,-0.00000229,0.00000264,-0.00000170,-0.00000015,-0.00000049,0
 .00000065,-0.00000224,-0.00000026,-0.00000075,0.00000561,0.00000027,0.
 00000361,-0.00000449,0.00000449,-0.00010093,-0.00003193,-0.00005526,-0
 .00000476,-0.00001355,0.00000324,0.00013303,-0.00007952,-0.00008356,0.
 00036068,0.00000553,0.00021626,-0.00002608,0.00008579,0.00014193,0.000
 28101,0.00010855,-0.00015159,-0.00000972,-0.00007815,0.00006973,0.0005
 2279,0.00031584,-0.00014706,0.00004969,0.00021624,-0.00020935,0.000342
 99,-0.00026650,0.00013963,0.09357766,0.00002958,-0.00009632,0.00000134
 ,-0.00001998,0.00006322,-0.00002204,-0.00000196,-0.00001366,0.00000909
 ,-0.00000988,0.00000425,-0.00000697,0.00000126,-0.00000672,0.00000219,
 -0.00000793,0.00004723,0.00000400,-0.00000544,-0.00000631,-0.00000867,
 0.00000403,0.00000254,0.00000270,-0.00000023,0.00000356,0.00000384,-0.
 00000006,-0.00000296,0.00000432,-0.00000716,0.00047292,-0.00033314,0.0
 0069436,-0.00070253,0.00012796,-0.00006410,0.00004770,-0.00003294,-0.0
 0050963,0.00047190,0.00034345,0.00056086,0.00017721,0.00073271,-0.0003
 8382,-0.00033973,0.00114619,-0.00006330,0.00003338,0.00002444,0.008269
 50,-0.01676199,0.00975137,0.00089012,0.00068077,0.00114680,-0.00025213
 ,-0.00247610,-0.00509591,0.09478349,-0.23935731,0.07682850,-0.00000009
 ,0.00000106,-0.00000163,-0.00000173,-0.00000044,-0.00000027,-0.0000004
 5,-0.00000077,-0.00000038,0.00000182,0.00000360,0.00000003,-0.00000148
 ,-0.00000190,-0.00000057,-0.00000131,-0.00000035,-0.00000077,-0.000001
 75,0.00000101,-0.00000241,0.00000267,0.00000206,0.00000147,0.00000325,
 0.00000234,-0.00000109,-0.00000095,-0.00000755,0.00000613,-0.00000769,
 0.00000573,-0.00000666,0.00000659,0.00001372,0.00001484,0.00001485,0.0
 0000767,0.00000142,-0.00046931,0.00015473,0.00009567,-0.00033564,0.000
 55435,-0.00026212,-0.00005034,0.00035667,-0.00011332,-0.00071536,0.000
 10001,-0.00059196,0.00001174,-0.00009248,-0.00001334,0.00064648,-0.001
 31736,0.00053861,-0.00013275,0.00034946,0.00000016,-0.00009414,0.00023
 718,0.00005299,-0.10381458,0.25844362,0.00007395,-0.00000015,0.0000217
 8,-0.00004781,0.00000593,0.00000345,0.00001888,-0.00001419,0.00000221,
 0.00000054,0.00000006,-0.00000325,0.00000748,-0.00000899,0.00000381,-0
 .00006622,-0.00000737,-0.00003288,-0.00000070,-0.00000498,-0.00000853,
 0.00000196,0.00000271,0.00000467,-0.00000088,0.00000239,0.00000539,0.0
 0000142,-0.00000113,0.00000385,-0.00008686,0.00023054,-0.00005773,0.00
 038674,-0.00014548,0.00028178,-0.00003496,0.00005748,0.00000114,-0.000
 58992,0.00003327,-0.00044132,0.00153224,-0.00018281,-0.00168017,0.0001
 4691,0.00027832,0.00114266,-0.00027799,0.00004415,0.00019142,0.0096429
 4,-0.01864551,0.00976651,0.00080108,0.00020220,0.00109674,0.00021258,-
 0.00275874,-0.00332078,-0.03945590,0.07769451,-0.07760118,-0.00000559,
 -0.00000156,0.00000089,0.00000003,0.00000537,-0.00000211,-0.00000276,0
 .00000116,0.00000244,0.00000050,-0.00000002,-0.00000222,0.00000032,0.0
 0000059,-0.00000435,-0.00000298,0.00000142,0.00000186,0.00000081,0.000
 00014,-0.00000145,0.00000107,-0.00000120,-0.00000088,-0.00000296,0.000
 00166,0.00000233,0.00000097,-0.00000404,-0.00000306,-0.00000060,-0.000
 00052,-0.00000276,-0.00002858,0.00000404,-0.00000864,-0.00001101,-0.00
 000183,-0.00000169,-0.00016819,0.00000847,0.00009799,-0.00036397,0.000
 25197,-0.00118362,0.00020042,0.00020625,0.00003764,-0.00032226,0.00023
 698,-0.00000036,-0.00009637,0.00010655,-0.00009328,0.00042436,-0.00133
 082,0.00058651,-0.00019926,-0.00023502,0.00006104,0.00013624,0.0000529
 3,-0.00012496,0.04168168,-0.08303537,0.08301400,-0.00004079,-0.0000882
 7,-0.00002659,0.00004308,0.00004310,-0.00002400,-0.00001405,0.00001657
 ,-0.00001719,0.00000194,-0.00000382,0.00000130,-0.00000449,0.00000724,
 -0.00001635,0.00004911,0.00003606,0.00005157,0.00000437,-0.00000225,0.
 00000353,-0.00000245,0.00000002,-0.00000020,0.00000003,0.00000086,-0.0
 0000237,-0.00000246,0.00000223,-0.00000196,0.00000169,0.00040304,0.001
 04448,-0.00026554,-0.00058225,0.00112418,0.00006852,0.00005226,-0.0000
 2985,-0.00028702,0.00061575,-0.00007960,-0.00027235,-0.00011697,-0.000
 31983,-0.00065570,-0.00067592,0.00021375,0.00003140,0.00005828,-0.0001
 7038,0.00197494,0.00065382,0.00020015,0.00096587,-0.00033009,0.0000052
 7,0.00061381,0.00053823,0.00043256,-0.27769337,-0.04973806,-0.08813206
 ,0.00000296,0.00000055,0.00000161,0.00000511,-0.00000198,0.00000604,-0
 .00000004,-0.00000024,0.00000065,0.00000164,0.00000148,0.00000032,0.00
 000087,-0.00000141,0.00000152,0.00000050,-0.00000029,0.00000086,0.0000
 0012,-0.00000182,0.00000034,0.00000200,0.00000177,0.00000040,0.0000006
 1,0.00000021,0.00000055,0.00000048,-0.00000099,0.00000217,-0.00000050,
 -0.00000049,-0.00000017,0.00013789,0.00005752,-0.00004689,0.00001830,-
 0.00000826,-0.00001607,0.00006534,-0.00000766,-0.00003667,0.00006142,-
 0.00010160,0.00001255,0.00003950,0.00008781,0.00004283,0.00004608,0.00
 006425,0.00016304,0.00019358,0.00024787,0.00006439,0.00021343,-0.00002
 015,0.00006284,-0.00009764,-0.00000296,-0.00007214,0.00025156,-0.00024
 930,0.00000764,-0.00845242,-0.00351029,-0.00198985,0.29665401,-0.00004
 223,0.00018408,-0.00001257,-0.00000397,-0.00010482,0.00007092,0.000014
 83,0.00000052,-0.00001002,0.00001907,-0.00000975,0.00000518,-0.0000095
 1,0.00000760,-0.00000946,-0.00001538,-0.00008520,-0.00003916,0.0000055
 4,-0.00000245,0.00000494,-0.00000381,0.00000140,0.00000181,0.00000046,
 -0.00000003,-0.00000120,-0.00000021,0.00000529,-0.00000124,-0.00007319
 ,-0.00006585,0.00058548,-0.00025132,0.00098471,0.00020732,-0.00001827,
 0.00008425,0.00007975,0.00045330,-0.00053797,0.00006466,0.00044050,-0.
 00020576,0.00017526,-0.00045333,0.00045850,0.00066783,-0.00009355,-0.0
 0005502,0.00009042,-0.02102356,-0.00491915,-0.00571564,0.00117515,-0.0
 0343798,-0.00339962,-0.00169490,0.00100832,-0.00026529,-0.04797561,-0.
 05711077,-0.01763372,-0.00000090,-0.00000381,0.00000275,0.00000321,0.0
 0000520,0.00000192,-0.00000095,-0.00000023,0.00000158,-0.00000134,-0.0
 0000190,-0.00000060,0.00000142,0.00000107,-0.00000066,-0.00000038,0.00
 000011,0.00000155,0.00000171,-0.00000169,0.00000105,-0.00000103,-0.000
 00128,-0.00000100,-0.00000421,-0.00000154,0.00000232,0.00000116,0.0000
 0135,-0.00000546,0.00000480,-0.00000573,0.00000240,-0.00009225,-0.0001
 0928,-0.00001675,0.00001056,-0.00003066,-0.00002039,-0.00012644,0.0000
 5465,0.00003415,-0.00013022,0.00004261,-0.00006236,-0.00134965,-0.0000
 8341,-0.00088014,-0.00010345,0.00016478,-0.00015409,0.00034060,0.00007
 394,0.00011400,0.00022405,0.00027976,0.00017566,0.00000336,-0.00002403
 ,-0.00004038,0.00068150,-0.00054255,0.00011052,0.02451740,0.00670446,0
 .00811459,0.05456008,0.06013817,0.00036684,-0.00007051,0.00013442,-0.0
 0019009,0.00009741,-0.00003571,0.00006470,-0.00005607,0.00002243,-0.00
 002129,0.00001851,-0.00001122,0.00004277,-0.00004710,0.00004808,-0.000
 22292,0.00003300,-0.00010930,-0.00000681,-0.00000849,-0.00003407,0.000
 00670,0.00000522,0.00001124,-0.00000376,0.00000425,0.00002090,0.000003
 57,-0.00000739,0.00001397,0.00002224,-0.00023562,0.00066606,0.00062074
 ,0.00190157,-0.00112838,0.00008766,0.00004887,0.00008767,0.00081017,-0
 .00027646,0.00028474,-0.00072225,-0.00027297,-0.00066416,-0.00149927,0
 .00005844,0.00060439,0.00001511,-0.00001566,0.00023344,-0.02165101,-0.
 00328830,-0.00781468,0.00154718,-0.00350645,-0.00333460,-0.00013417,0.
 00128818,0.00039737,-0.08651957,-0.01805544,-0.07711303,-0.00001791,-0
 .00000421,-0.00000827,-0.00001345,0.00000948,-0.00001791,-0.00001012,0
 .00000492,0.00000559,0.00000397,0.00000056,-0.00000433,0.00000152,0.00
 000066,-0.00001803,-0.00001011,0.00000470,0.00000334,0.00000156,0.0000
 0352,-0.00000489,0.00000289,-0.00000320,-0.00000153,-0.00001094,0.0000
 0563,0.00000568,0.00000435,-0.00001114,-0.00001538,0.00000093,0.000000
 85,-0.00000617,0.00003619,0.00007261,-0.00001522,-0.00007272,-0.000008
 88,0.00001028,0.00012179,0.00005470,0.00001163,0.00013887,-0.00019364,
 0.00008297,-0.00143590,-0.00068763,-0.00034437,0.00030347,0.00011825,0
 .00011956,-0.00009807,-0.00011122,0.00019402,0.00014913,0.00018986,-0.
 00007981,0.00015375,0.00004375,-0.00000237,0.00023671,-0.00032808,0.00
 051601,-0.00888840,-0.00317238,-0.00422945,0.09426653,0.02213787,0.082
 44534,0.00022144,-0.00004059,0.00007293,-0.00010562,0.00006146,-0.0000
 2690,0.00004065,-0.00003765,0.00001916,-0.00001361,0.00001231,-0.00000
 785,0.00002753,-0.00003052,0.00002874,-0.00013020,0.00002350,-0.000056
 42,-0.00000556,-0.00000338,-0.00002087,0.00000485,0.00000300,0.0000062
 9,-0.00000244,0.00000157,0.00001298,0.00000298,-0.00000673,0.00000960,
 0.00019370,-0.00006948,0.00085169,-0.00003523,0.00085954,-0.00021662,0
 .00007302,-0.00000934,-0.00000025,0.00028015,-0.00016316,-0.00010053,-
 0.00018905,-0.00010485,-0.00032798,-0.00013345,0.00044632,-0.00061661,
 0.00008048,-0.00004353,0.00013239,-0.00185807,-0.00064089,-0.00027402,
 0.00066071,0.00020531,-0.00111182,-0.00001857,-0.00049771,0.00011191,-
 0.12836490,-0.05049144,0.11732793,-0.00001055,-0.00000213,-0.00000418,
 -0.00000657,0.00000456,-0.00001014,-0.00000516,0.00000275,0.00000289,0
 .00000213,0.00000045,-0.00000274,-0.00000004,0.00000094,-0.00001012,-0
 .00000576,0.00000278,0.00000147,0.00000064,0.00000304,-0.00000337,0.00
 000145,-0.00000205,-0.00000085,-0.00000519,0.00000358,0.00000271,0.000
 00209,-0.00000624,-0.00000802,-0.00000047,0.00000188,-0.00000451,0.000
 02412,0.00006424,-0.00001429,-0.00004305,-0.00000099,0.00000619,0.0001
 2435,-0.00004675,0.00001026,0.00010060,-0.00009126,0.00020950,0.000005
 89,0.00015614,0.00004294,-0.00001655,0.00005909,-0.00005945,0.00025845
 ,-0.00017118,0.00012687,0.00003782,0.00008252,-0.00028634,0.00019915,0
 .00050291,0.00002722,-0.00022160,-0.00007172,0.00015609,0.00745667,0.0
 0454285,-0.01151750,-0.01366134,-0.00898906,0.02251943,0.13503409,0.00
 008106,-0.00001463,0.00003582,-0.00004699,0.00001247,0.00000126,0.0000
 2037,-0.00000424,-0.00000049,-0.00000211,0.00000264,-0.00000150,0.0000
 1398,-0.00001151,0.00001253,-0.00006171,0.00000328,-0.00002733,0.00000
 048,-0.00000350,-0.00000738,-0.00000034,0.00000203,0.00000272,-0.00000
 109,0.00000162,0.00000550,-0.00000146,0.00000012,0.00000095,-0.0003959
 7,0.00018374,0.00020014,0.00079407,-0.00062013,0.00026863,-0.00002327,
 0.00005021,-0.00005204,-0.00052163,0.00057635,0.00022809,-0.00005956,-
 0.00027514,0.00001903,-0.00006991,-0.00414472,-0.00320186,0.00079209,0
 .00050486,-0.00113890,0.01334796,0.00661555,-0.01821365,0.00085832,0.0
 0082209,0.00012872,0.00052444,0.00131171,-0.00087280,-0.05124183,-0.07
 439605,0.07168502,-0.00000559,-0.00000129,-0.00000075,-0.00000167,0.00
 000394,-0.00000380,-0.00000276,0.00000139,0.00000232,0.00000137,-0.000
 00077,-0.00000116,0.00000025,-0.00000022,-0.00000492,-0.00000291,0.000
 00155,0.00000150,0.00000123,0.00000054,-0.00000075,0.00000068,-0.00000
 172,-0.00000073,-0.00000342,0.00000095,0.00000270,0.00000039,-0.000001
 46,-0.00000567,0.00000296,-0.00000173,0.00000031,0.00005880,0.00005613
 ,0.00001449,0.00001399,0.00001422,0.00000273,-0.00019069,0.00008306,0.
 00006264,-0.00024789,0.00017413,-0.00023816,0.00019187,0.00003422,0.00
 021719,-0.00012662,-0.00007759,0.00008695,-0.00030790,0.00003090,0.000
 23492,-0.00016662,0.00025721,0.00016516,-0.00027441,-0.00034152,0.0001
 8153,0.00005270,-0.00003868,0.00010218,-0.01547661,-0.00775789,0.01883
 606,-0.00200393,-0.00285988,0.00425802,0.05447987,0.07980778,-0.000122
 12,0.00005518,-0.00005709,0.00006895,-0.00004871,0.00003554,-0.0000172
 1,0.00002314,-0.00000903,0.00000705,-0.00000711,0.00000429,-0.00001354
 ,0.00001875,-0.00001613,0.00009322,-0.00001460,0.00004337,0.00000364,0
 .00000033,0.00000969,-0.00000586,-0.00000053,-0.00000378,0.00000116,-0
 .00000002,-0.00000577,-0.00000588,0.00000492,-0.00000670,-0.00039487,0
 .00007136,0.00068002,-0.00026465,-0.00009311,0.00016028,0.00003392,0.0
 0002957,-0.00000147,0.00012780,0.00022240,-0.00022434,0.00000620,-0.00
 056302,0.00030216,-0.00110330,-0.00446364,-0.00237685,0.00092060,0.000
 32107,-0.00121678,0.01265530,0.00825989,-0.01835778,0.00097109,0.00125
 969,0.00066536,-0.00039318,0.00143233,0.00074552,0.11687865,0.07031421
 ,-0.20561824,0.00000681,0.00000102,0.00000199,0.00000459,-0.00000339,0
 .00000749,0.00000291,-0.00000233,-0.00000209,-0.00000050,0.00000037,0.
 00000244,0.00000064,-0.00000157,0.00000562,0.00000309,-0.00000179,-0.0
 0000204,-0.00000054,-0.00000202,0.00000257,-0.00000020,0.00000189,0.00
 000121,0.00000453,-0.00000169,-0.00000214,-0.00000208,0.00000324,0.000
 00525,0.00000024,-0.00000088,0.00000354,0.00005399,0.00004183,-0.00000
 450,0.00001983,0.00001090,0.00000292,0.00001572,0.00004585,-0.00003097
 ,0.00000482,0.00001778,0.00031302,-0.00012862,-0.00006857,0.00047948,0
 .00001434,-0.00001190,-0.00007796,-0.00085452,-0.00059043,0.00005151,-
 0.00033900,0.00001282,0.00018159,0.00003476,-0.00068087,0.00050893,-0.
 00001441,-0.00008469,-0.00000808,0.00545326,0.00186172,-0.00752546,-0.
 00672886,-0.00438418,0.00907375,-0.12699780,-0.07298523,0.22225968\\0.
 00221437,0.03059617,0.00447327,0.00193669,-0.00116030,0.00751517,0.015
 82467,-0.00968000,0.00359990,-0.00402897,0.00046984,-0.00131353,0.0012
 7848,-0.00589695,0.00051310,-0.01854921,-0.01292816,-0.01024714,0.0000
 6372,-0.00005703,-0.00327798,0.00032164,0.00043841,0.00112062,-0.00060
 540,0.00028662,0.00200506,0.00300524,-0.00130656,0.00314274,-0.0019285
 2,-0.00112729,-0.00749502,-0.00223223,0.03055712,-0.00447221,0.0000010
 1,-0.00144049,-0.00000071,0.01855778,-0.01291427,0.01021918,-0.0012793
 2,-0.00590192,-0.00051131,-0.01582677,-0.00967848,-0.00357030,0.004029
 37,0.00046940,0.00130264,-0.00006604,-0.00006897,0.00327766,0.00060739
 ,0.00029019,-0.00201108,-0.00300669,-0.00129202,-0.00313673,-0.0003203
 6,0.00044095,-0.00111402,-0.00095180,-0.00096550,-0.00071899,-0.000783
 80,0.00042603,-0.00065700,-0.00078801,0.00020038,0.00022865,0.00040704
 ,0.00055026,-0.00032499,-0.00011923,-0.00003265,-0.00135009,-0.0007916
 5,0.00030320,0.00004359,-0.00027642,0.00015356,-0.00045098,0.00051679,
 0.00019502,0.00000443,-0.00100916,0.00144344,-0.00083228,-0.00022224,-
 0.00270813,-0.00314408,-0.00164411,0.00101768,-0.00090315,-0.00023418,
 -0.00062256,-0.00009575,0.00023755,-0.00062811,0.00008899,0.00078584,0
 .00042419,0.00065608,0.00095531,-0.00096262,0.00071893,0.00027661,0.00
 015452,0.00045136,-0.00051883,0.00019412,-0.00000265,0.00078830,0.0003
 0147,-0.00004079,0.00164599,0.00101429,0.00089976,0.00101084,0.0014406
 1,0.00082823,0.00021955,-0.00271309,0.00314308,-0.00040707,0.00055119,
 0.00032345,0.00011674,-0.00003475,0.00134807,0.00078910,0.00020120,-0.
 00023317\\\@

 Writing a WFNX file to "13_lig.wfx"


 ONE THORN OF EXPERIENCE IS WORTH A WHOLE WILDERNESS OF
 WARNING....  LOWELL - AMONG MY BOOKS
 Job cpu time:       0 days  3 hours 20 minutes 10.1 seconds.
 Elapsed time:       0 days  0 hours 25 minutes  1.6 seconds.
 File lengths (MBytes):  RWF=    754 Int=      0 D2E=      0 Chk=     12 Scr=      1
 Normal termination of Gaussian 16 at Thu Dec  8 09:30:33 2022.
