 Entering Gaussian System, Link 0=g16
 Initial command:
 /software/gaussian/G16-A.03/avx2/g16/l1.exe "/scratch/lcmd/5712517.slurm/Gau-118016.inp" -scrdir="/scratch/lcmd/5712517.slurm/"
 Entering Link 1 = /software/gaussian/G16-A.03/avx2/g16/l1.exe PID=    118054.
  
 Copyright (c) 1988,1990,1992,1993,1995,1998,2003,2009,2016,
            Gaussian, Inc.  All Rights Reserved.
  
 This is part of the Gaussian(R) 16 program.  It is based on
 the Gaussian(R) 09 system (copyright 2009, Gaussian, Inc.),
 the Gaussian(R) 03 system (copyright 2003, Gaussian, Inc.),
 the Gaussian(R) 98 system (copyright 1998, Gaussian, Inc.),
 the Gaussian(R) 94 system (copyright 1995, Gaussian, Inc.),
 the Gaussian 92(TM) system (copyright 1992, Gaussian, Inc.),
 the Gaussian 90(TM) system (copyright 1990, Gaussian, Inc.),
 the Gaussian 88(TM) system (copyright 1988, Gaussian, Inc.),
 the Gaussian 86(TM) system (copyright 1986, Carnegie Mellon
 University), and the Gaussian 82(TM) system (copyright 1983,
 Carnegie Mellon University). Gaussian is a federally registered
 trademark of Gaussian, Inc.
  
 This software contains proprietary and confidential information,
 including trade secrets, belonging to Gaussian, Inc.
  
 This software is provided under written license and may be
 used, copied, transmitted, or stored only in accord with that
 written license.
  
 The following legend is applicable only to US Government
 contracts under FAR:
  
                    RESTRICTED RIGHTS LEGEND
  
 Use, reproduction and disclosure by the US Government is
 subject to restrictions as set forth in subparagraphs (a)
 and (c) of the Commercial Computer Software - Restricted
 Rights clause in FAR 52.227-19.
  
 Gaussian, Inc.
 340 Quinnipiac St., Bldg. 40, Wallingford CT 06492
  
  
 ---------------------------------------------------------------
 Warning -- This program may not be used in any manner that
 competes with the business of Gaussian, Inc. or will provide
 assistance to any competitor of Gaussian, Inc.  The licensee
 of this program is prohibited from giving any competitor of
 Gaussian, Inc. access to this program.  By using this program,
 the user acknowledges that Gaussian, Inc. is engaged in the
 business of creating and licensing software in the field of
 computational chemistry and represents and warrants to the
 licensee that it is not a competitor of Gaussian, Inc. and that
 it will not use this program in any manner prohibited above.
 ---------------------------------------------------------------
  

 Cite this work as:
 Gaussian 16, Revision A.03,
 M. J. Frisch, G. W. Trucks, H. B. Schlegel, G. E. Scuseria, 
 M. A. Robb, J. R. Cheeseman, G. Scalmani, V. Barone, 
 G. A. Petersson, H. Nakatsuji, X. Li, M. Caricato, A. V. Marenich, 
 J. Bloino, B. G. Janesko, R. Gomperts, B. Mennucci, H. P. Hratchian, 
 J. V. Ortiz, A. F. Izmaylov, J. L. Sonnenberg, D. Williams-Young, 
 F. Ding, F. Lipparini, F. Egidi, J. Goings, B. Peng, A. Petrone, 
 T. Henderson, D. Ranasinghe, V. G. Zakrzewski, J. Gao, N. Rega, 
 G. Zheng, W. Liang, M. Hada, M. Ehara, K. Toyota, R. Fukuda, 
 J. Hasegawa, M. Ishida, T. Nakajima, Y. Honda, O. Kitao, H. Nakai, 
 T. Vreven, K. Throssell, J. A. Montgomery, Jr., J. E. Peralta, 
 F. Ogliaro, M. J. Bearpark, J. J. Heyd, E. N. Brothers, K. N. Kudin, 
 V. N. Staroverov, T. A. Keith, R. Kobayashi, J. Normand, 
 K. Raghavachari, A. P. Rendell, J. C. Burant, S. S. Iyengar, 
 J. Tomasi, M. Cossi, J. M. Millam, M. Klene, C. Adamo, R. Cammi, 
 J. W. Ochterski, R. L. Martin, K. Morokuma, O. Farkas, 
 J. B. Foresman, and D. J. Fox, Gaussian, Inc., Wallingford CT, 2016.
 
 ******************************************
 Gaussian 16:  ES64L-G16RevA.03 25-Dec-2016
                15-Jan-2023 
 ******************************************
 %nprocs=8
 Will use up to    8 processors via shared memory.
 %mem=32000MB
 %chk=01_sub.chk
 ----------------------------------------------------------------------
 #p pop=(regular,nbo,savenbos) freq=noraman def2svp empiricaldispersion
 =gd3bj output=wfx pbe1pbe
 ----------------------------------------------------------------------
 1/10=4,30=1,38=1/1,3;
 2/12=2,17=6,18=5,40=1/2;
 3/5=43,7=101,11=2,25=1,30=1,71=2,74=-13,124=41,140=1/1,2,3;
 4//1;
 5/5=2,38=5,98=1/2;
 8/6=4,10=90,11=11/1;
 11/6=1,8=1,9=11,15=111,16=1/1,2,10;
 10/6=1/2;
 6/28=1,40=1,73=1/1,7;
 7/8=1,10=1,25=1/1,2,3,16;
 1/10=4,30=1/3;
 99/6=200/99;
 Leave Link    1 at Sun Jan 15 17:40:04 2023, MaxMem=  4194304000 cpu:               0.4 elap:               0.1
 (Enter /software/gaussian/G16-A.03/avx2/g16/l101.exe)
 ------
 01_sub
 ------
 Symbolic Z-matrix:
 Charge =  0 Multiplicity = 1
 C                     2.84577   2.24873   0.21857 
 C                     2.7382    0.70299   0.15363 
 H                     3.01188   0.22469   1.10862 
 N                     1.30307   0.50473  -0.01332 
 C                     0.7352    1.6446    0.04045 
 O                     1.47298   2.72393   0.19682 
 C                    -0.73519   1.64461  -0.04046 
 N                    -1.30307   0.50474   0.01328 
 C                    -2.7382    0.70302  -0.15365 
 H                    -3.0119    0.22474  -1.10864 
 C                    -2.84575   2.24876  -0.21856 
 O                    -1.47296   2.72395  -0.19678 
 C                    -3.52482   0.04228   0.96052 
 C                     3.52484   0.04226  -0.96052 
 H                     3.35582   2.67681  -0.6574 
 H                     3.31451   2.63017   1.13493 
 H                    -3.35582   2.67684   0.65741 
 H                    -3.31447   2.63023  -1.13492 
 H                    -3.24838   0.46153   1.94027 
 H                    -3.30199  -1.03434   0.94863 
 H                    -4.60493   0.18406   0.80692 
 H                     3.24843   0.46152  -1.94028 
 H                     3.30201  -1.03436  -0.94866 
 H                     4.60495   0.18403  -0.80691 
 
 ITRead=  0  0  0  0  0  0  0  0  0  0  0  0  0  0  0  0  0  0  0  0
 ITRead=  0  0  0  0
 MicOpt= -1 -1 -1 -1 -1 -1 -1 -1 -1 -1 -1 -1 -1 -1 -1 -1 -1 -1 -1 -1
 MicOpt= -1 -1 -1 -1
 NAtoms=     24 NQM=       24 NQMF=       0 NMMI=      0 NMMIF=      0
                NMic=       0 NMicF=      0.
                    Isotopes and Nuclear Properties:
 (Nuclear quadrupole moments (NQMom) in fm**2, nuclear magnetic moments (NMagM)
  in nuclear magnetons)

  Atom         1           2           3           4           5           6           7           8           9          10
 IAtWgt=          12          12           1          14          12          16          12          14          12           1
 AtmWgt=  12.0000000  12.0000000   1.0078250  14.0030740  12.0000000  15.9949146  12.0000000  14.0030740  12.0000000   1.0078250
 NucSpn=           0           0           1           2           0           0           0           2           0           1
 AtZEff=  -0.0000000  -0.0000000  -0.0000000  -0.0000000  -0.0000000  -0.0000000  -0.0000000  -0.0000000  -0.0000000  -0.0000000
 NQMom=    0.0000000   0.0000000   0.0000000   2.0440000   0.0000000   0.0000000   0.0000000   2.0440000   0.0000000   0.0000000
 NMagM=    0.0000000   0.0000000   2.7928460   0.4037610   0.0000000   0.0000000   0.0000000   0.4037610   0.0000000   2.7928460
 AtZNuc=   6.0000000   6.0000000   1.0000000   7.0000000   6.0000000   8.0000000   6.0000000   7.0000000   6.0000000   1.0000000

  Atom        11          12          13          14          15          16          17          18          19          20
 IAtWgt=          12          16          12          12           1           1           1           1           1           1
 AtmWgt=  12.0000000  15.9949146  12.0000000  12.0000000   1.0078250   1.0078250   1.0078250   1.0078250   1.0078250   1.0078250
 NucSpn=           0           0           0           0           1           1           1           1           1           1
 AtZEff=  -0.0000000  -0.0000000  -0.0000000  -0.0000000  -0.0000000  -0.0000000  -0.0000000  -0.0000000  -0.0000000  -0.0000000
 NQMom=    0.0000000   0.0000000   0.0000000   0.0000000   0.0000000   0.0000000   0.0000000   0.0000000   0.0000000   0.0000000
 NMagM=    0.0000000   0.0000000   0.0000000   0.0000000   2.7928460   2.7928460   2.7928460   2.7928460   2.7928460   2.7928460
 AtZNuc=   6.0000000   8.0000000   6.0000000   6.0000000   1.0000000   1.0000000   1.0000000   1.0000000   1.0000000   1.0000000

  Atom        21          22          23          24
 IAtWgt=           1           1           1           1
 AtmWgt=   1.0078250   1.0078250   1.0078250   1.0078250
 NucSpn=           1           1           1           1
 AtZEff=  -0.0000000  -0.0000000  -0.0000000  -0.0000000
 NQMom=    0.0000000   0.0000000   0.0000000   0.0000000
 NMagM=    2.7928460   2.7928460   2.7928460   2.7928460
 AtZNuc=   1.0000000   1.0000000   1.0000000   1.0000000
 Leave Link  101 at Sun Jan 15 17:40:07 2023, MaxMem=  4194304000 cpu:               1.2 elap:               0.2
 (Enter /software/gaussian/G16-A.03/avx2/g16/l103.exe)

 GradGradGradGradGradGradGradGradGradGradGradGradGradGradGradGradGradGrad
 Berny optimization.
 Initialization pass.
 Trust Radius=3.00D-01 FncErr=1.00D-07 GrdErr=1.00D-07 EigMax=2.50D+02 EigMin=1.00D-04
 Number of steps in this run=      2 maximum allowed number of steps=      2.
 GradGradGradGradGradGradGradGradGradGradGradGradGradGradGradGradGradGrad

 Leave Link  103 at Sun Jan 15 17:40:09 2023, MaxMem=  4194304000 cpu:               0.1 elap:               0.0
 (Enter /software/gaussian/G16-A.03/avx2/g16/l202.exe)
                          Input orientation:                          
 ---------------------------------------------------------------------
 Center     Atomic      Atomic             Coordinates (Angstroms)
 Number     Number       Type             X           Y           Z
 ---------------------------------------------------------------------
      1          6           0        2.845770    2.248730    0.218570
      2          6           0        2.738200    0.702990    0.153630
      3          1           0        3.011880    0.224690    1.108620
      4          7           0        1.303070    0.504730   -0.013320
      5          6           0        0.735200    1.644600    0.040450
      6          8           0        1.472980    2.723930    0.196820
      7          6           0       -0.735190    1.644610   -0.040460
      8          7           0       -1.303070    0.504740    0.013280
      9          6           0       -2.738200    0.703020   -0.153650
     10          1           0       -3.011900    0.224740   -1.108640
     11          6           0       -2.845750    2.248760   -0.218560
     12          8           0       -1.472960    2.723950   -0.196780
     13          6           0       -3.524820    0.042280    0.960520
     14          6           0        3.524840    0.042260   -0.960520
     15          1           0        3.355820    2.676810   -0.657400
     16          1           0        3.314510    2.630170    1.134930
     17          1           0       -3.355820    2.676840    0.657410
     18          1           0       -3.314470    2.630230   -1.134920
     19          1           0       -3.248380    0.461530    1.940270
     20          1           0       -3.301990   -1.034340    0.948630
     21          1           0       -4.604930    0.184060    0.806920
     22          1           0        3.248430    0.461520   -1.940280
     23          1           0        3.302010   -1.034360   -0.948660
     24          1           0        4.604950    0.184030   -0.806910
 ---------------------------------------------------------------------
                    Distance matrix (angstroms):
                    1          2          3          4          5
     1  C    0.000000
     2  C    1.550839   0.000000
     3  H    2.217323   1.102578   0.000000
     4  N    2.339921   1.458348   2.063299   0.000000
     5  C    2.202545   2.216179   2.887976   1.274626   0.000000
     6  O    1.452873   2.384711   3.073401   2.235593   1.316710
     7  C    3.640787   3.603992   4.168584   2.335501   1.472614
     8  N    4.505166   4.048563   4.460604   2.606276   2.335501
     9  C    5.805901   5.485014   5.906399   4.048565   3.603992
    10  H    6.338006   5.906412   6.418891   4.460615   4.168593
    11  C    5.708282   5.805896   6.337988   4.505161   3.640783
    12  O    4.364605   4.684115   5.297562   3.558783   2.469260
    13  C    6.782575   6.349254   6.540921   4.946792   4.643461
    14  C    2.592277   1.515486   2.139567   2.459132   3.369203
    15  H    1.100330   2.221529   3.041384   3.057213   2.901741
    16  H    1.097693   2.238103   2.424585   3.143543   2.970198
    17  H    6.231820   6.425493   6.838438   5.183936   4.264106
    18  H    6.318705   6.481468   7.130414   5.205518   4.330449
    19  H    6.580046   6.252162   6.319699   4.953189   4.569232
    20  H    7.007602   6.335159   6.440164   4.949814   4.929545
    21  H    7.753834   7.390374   7.622891   5.973281   5.589064
    22  H    2.831411   2.168664   3.067220   2.738516   3.411641
    23  H    3.514151   2.133380   2.429359   2.690617   3.839750
    24  H    2.899881   2.162571   2.491742   3.411018   4.222114
                    6          7          8          9         10
     6  O    0.000000
     7  C    2.469261   0.000000
     8  N    3.558784   1.274629   0.000000
     9  C    4.684116   2.216180   1.458348   0.000000
    10  H    5.297577   2.887983   2.063299   1.102574   0.000000
    11  C    4.364603   2.202540   2.339918   1.550836   2.217319
    12  O    2.972118   1.316706   2.235594   2.384712   3.073414
    13  C    5.722979   3.369192   2.459127   1.515494   2.139580
    14  C    3.569442   4.643478   4.946806   6.349277   6.540964
    15  H    2.068091   4.264084   5.183913   6.425472   6.838430
    16  H    2.068834   4.330467   5.205535   6.481485   7.130439
    17  H    4.850945   2.901762   3.057238   2.221540   3.041383
    18  H    4.970110   2.970181   3.143533   2.238106   2.424587
    19  H    5.518090   3.411612   2.738501   2.168664   3.067221
    20  H    6.122920   3.839731   2.690600   2.133378   2.429361
    21  H    6.615448   4.222102   3.411009   2.162567   2.491740
    22  H    3.583004   4.569272   4.953223   6.252208   6.319764
    23  H    4.333846   4.929573   4.949840   6.335193   6.440216
    24  H    4.155454   5.589082   5.973296   7.390396   7.622933
                   11         12         13         14         15
    11  C    0.000000
    12  O    1.452870   0.000000
    13  C    2.592281   3.569429   0.000000
    14  C    6.782593   5.723003   7.306716   0.000000
    15  H    6.231796   4.850929   7.543316   2.657311   0.000000
    16  H    6.318719   4.970122   7.314645   3.336529   1.793413
    17  H    1.100340   2.068096   2.657319   7.543354   6.839213
    18  H    1.097695   2.068828   3.336555   7.314654   6.687523
    19  H    2.831404   3.582966   1.100954   7.380168   7.434434
    20  H    3.514148   4.333827   1.099502   7.170044   7.789634
    21  H    2.899881   4.155441   1.100151   8.320884   8.469450
    22  H    6.580089   5.518143   7.380198   1.100959   2.562191
    23  H    7.007630   6.122953   7.170058   1.099502   3.722971
    24  H    7.753850   6.615470   8.320881   1.100151   2.792245
                   16         17         18         19         20
    16  H    0.000000
    17  H    6.687564   0.000000
    18  H    7.006825   1.793413   0.000000
    19  H    6.958671   2.562201   3.763565   0.000000
    20  H    7.565806   3.722978   4.215496   1.795509   0.000000
    21  H    8.295093   2.792236   3.379316   1.789329   1.789478
    22  H    3.763552   7.434498   6.958704   7.567510   7.313782
    23  H    4.215481   7.789683   7.565826   7.313769   6.871137
    24  H    3.379287   8.469486   8.295101   8.324590   8.190607
                   21         22         23         24
    21  H    0.000000
    22  H    8.324623   0.000000
    23  H    8.190623   1.795505   0.000000
    24  H    9.350205   1.789322   1.789475   0.000000
 Stoichiometry    C8H12N2O2
 Framework group  C1[X(C8H12N2O2)]
 Deg. of freedom    66
 Full point group                 C1      NOp   1
 Largest Abelian subgroup         C1      NOp   1
 Largest concise Abelian subgroup C1      NOp   1
                         Standard orientation:                         
 ---------------------------------------------------------------------
 Center     Atomic      Atomic             Coordinates (Angstroms)
 Number     Number       Type             X           Y           Z
 ---------------------------------------------------------------------
      1          6           0        2.820913    0.953207    0.434230
      2          6           0        2.718599   -0.592534    0.361316
      3          1           0        2.918903   -1.070824    1.334349
      4          7           0        1.300311   -0.790804    0.085770
      5          6           0        0.729990    0.349063    0.096211
      6          8           0        1.453745    1.428399    0.308196
      7          6           0       -0.729996    0.349064   -0.096225
      8          7           0       -1.300312   -0.790809   -0.085794
      9          6           0       -2.718604   -0.592539   -0.361323
     10          1           0       -2.918923   -1.070829   -1.334349
     11          6           0       -2.820917    0.953199   -0.434234
     12          8           0       -1.453756    1.428398   -0.308179
     13          6           0       -3.587630   -1.253274    0.689841
     14          6           0        3.587650   -1.253269   -0.689815
     15          1           0        3.396066    1.381282   -0.400443
     16          1           0        3.218645    1.334658    1.383563
     17          1           0       -3.396094    1.381284    0.400429
     18          1           0       -3.218633    1.334659   -1.383573
     19          1           0       -3.386460   -0.834014    1.687764
     20          1           0       -3.364535   -2.329893    0.694932
     21          1           0       -4.652942   -1.111502    0.454587
     22          1           0        3.386507   -0.834020   -1.687754
     23          1           0        3.364569   -2.329890   -0.694916
     24          1           0        4.652960   -1.111491   -0.454554
 ---------------------------------------------------------------------
 Rotational constants (GHZ):           2.3455509           0.5087672           0.4456630
 Leave Link  202 at Sun Jan 15 17:40:09 2023, MaxMem=  4194304000 cpu:               0.0 elap:               0.0
 (Enter /software/gaussian/G16-A.03/avx2/g16/l301.exe)
 Standard basis: def2SVP (5D, 7F)
 Ernie: Thresh=  0.10000D-02 Tol=  0.10000D-05 Strict=F.
 There are   240 symmetry adapted cartesian basis functions of A   symmetry.
 There are   228 symmetry adapted basis functions of A   symmetry.
   228 basis functions,   384 primitive gaussians,   240 cartesian basis functions
    45 alpha electrons       45 beta electrons
       nuclear repulsion energy       719.1518783811 Hartrees.
 IExCor= 1009 DFT=T Ex+Corr=PBE1PBE ExCW=0 ScaHFX=  0.250000
 ScaDFX=  0.750000  0.750000  1.000000  1.000000 ScalE2=  1.000000  1.000000
 IRadAn=      5 IRanWt=     -1 IRanGd=            0 ICorTp=0 IEmpDi=141
 NAtoms=   24 NActive=   24 NUniq=   24 SFac= 1.00D+00 NAtFMM=   60 NAOKFM=F Big=F
 Integral buffers will be    131072 words long.
 Raffenetti 2 integral format.
 Two-electron integral symmetry is turned on.
 R6Disp:  Grimme-D3(BJ) Dispersion energy=       -0.0195041483 Hartrees.
 Nuclear repulsion after empirical dispersion term =      719.1323742329 Hartrees.
 Leave Link  301 at Sun Jan 15 17:40:10 2023, MaxMem=  4194304000 cpu:               0.4 elap:               0.1
 (Enter /software/gaussian/G16-A.03/avx2/g16/l302.exe)
 NPDir=0 NMtPBC=     1 NCelOv=     1 NCel=       1 NClECP=     1 NCelD=      1
         NCelK=      1 NCelE2=     1 NClLst=     1 CellRange=     0.0.
 One-electron integrals computed using PRISM.
 One-electron integral symmetry used in STVInt
   1 Symmetry operations used in ECPInt.
 ECPInt:  NShTT=    5886 NPrTT=   21102 LenC2=    5564 LenP2D=   14739.
 LDataN:  DoStor=T MaxTD1= 4 Len=   56
 NBasis=   228 RedAO= T EigKep=  1.05D-03  NBF=   228
 NBsUse=   228 1.00D-06 EigRej= -1.00D+00 NBFU=   228
 Precomputing XC quadrature grid using
 IXCGrd= 4 IRadAn=           5 IRanWt=          -1 IRanGd=           0 AccXCQ= 0.00D+00.
 Generated NRdTot=       0 NPtTot=           0 NUsed=           0 NTot=          32
 NSgBfM=   238   238   238   238   238 MxSgAt=    24 MxSgA2=    24.
 Leave Link  302 at Sun Jan 15 17:40:10 2023, MaxMem=  4194304000 cpu:               1.8 elap:               0.2
 (Enter /software/gaussian/G16-A.03/avx2/g16/l303.exe)
 DipDrv:  MaxL=1.
 Leave Link  303 at Sun Jan 15 17:40:10 2023, MaxMem=  4194304000 cpu:               0.3 elap:               0.0
 (Enter /software/gaussian/G16-A.03/avx2/g16/l401.exe)
 ExpMin= 1.22D-01 ExpMax= 2.27D+03 ExpMxC= 3.41D+02 IAcc=3 IRadAn=         5 AccDes= 0.00D+00
 Harris functional with IExCor= 1009 and IRadAn=       5 diagonalized for initial guess.
 HarFok:  IExCor= 1009 AccDes= 0.00D+00 IRadAn=         5 IDoV= 1 UseB2=F ITyADJ=14
 ICtDFT=  3500011 ScaDFX=  1.000000  1.000000  1.000000  1.000000
 FoFCou: FMM=F IPFlag=           0 FMFlag=      100000 FMFlg1=           0
         NFxFlg=           0 DoJE=T BraDBF=F KetDBF=T FulRan=T
         wScrn=  0.000000 ICntrl=       500 IOpCl=  0 I1Cent=   200000004 NGrid=           0
         NMat0=    1 NMatS0=      1 NMatT0=    0 NMatD0=    1 NMtDS0=    0 NMtDT0=    0
 Petite list used in FoFCou.
 Harris En= -571.051468123780    
 JPrj=0 DoOrth=F DoCkMO=F.
 Leave Link  401 at Sun Jan 15 17:40:11 2023, MaxMem=  4194304000 cpu:               7.4 elap:               0.9
 (Enter /software/gaussian/G16-A.03/avx2/g16/l502.exe)
 Integral symmetry usage will be decided dynamically.
 Closed shell SCF:
 Using DIIS extrapolation, IDIIS=  1040.
 NGot=  4194304000 LenX=  4194184188 LenY=  4194126147
 Requested convergence on RMS density matrix=1.00D-08 within 128 cycles.
 Requested convergence on MAX density matrix=1.00D-06.
 Requested convergence on             energy=1.00D-06.
 No special actions if energy rises.
 Fock matrices will be formed incrementally for  20 cycles.
 Integral accuracy reduced to 1.0D-05 until final iterations.

 Cycle   1  Pass 0  IDiag  1:
 FoFJK:  IHMeth= 1 ICntrl=       0 DoSepK=F KAlg= 0 I1Cent=           0 FoldK=F
 IRaf= 890000000 NMat=       1 IRICut=       1 DoRegI=T DoRafI=F ISym2E= 0 IDoP0=0 IntGTp=1.
 FoFCou: FMM=F IPFlag=           0 FMFlag=      100000 FMFlg1=           0
         NFxFlg=           0 DoJE=F BraDBF=F KetDBF=F FulRan=T
         wScrn=  0.000000 ICntrl=         0 IOpCl=  0 I1Cent=           0 NGrid=           0
         NMat0=    1 NMatS0=      1 NMatT0=    0 NMatD0=    1 NMtDS0=    0 NMtDT0=    0
 Symmetry not used in FoFCou.
 E= -570.706220259580    
 DIIS: error= 2.60D-02 at cycle   1 NSaved=   1.
 NSaved= 1 IEnMin= 1 EnMin= -570.706220259580     IErMin= 1 ErrMin= 2.60D-02
 ErrMax= 2.60D-02  0.00D+00 EMaxC= 1.00D-01 BMatC= 2.33D-01 BMatP= 2.33D-01
 IDIUse=3 WtCom= 7.40D-01 WtEn= 2.60D-01
 Coeff-Com:  0.100D+01
 Coeff-En:   0.100D+01
 Coeff:      0.100D+01
 Gap=     0.175 Goal=   None    Shift=    0.000
 GapD=    0.175 DampG=1.000 DampE=0.500 DampFc=0.5000 IDamp=-1.
 Damping current iteration by 5.00D-01
 RMSDP=6.47D-03 MaxDP=1.61D-01              OVMax= 2.68D-01

 Cycle   2  Pass 0  IDiag  1:
 RMSU=  3.23D-03    CP:  9.99D-01
 E= -570.783630164353     Delta-E=       -0.077409904773 Rises=F Damp=T
 DIIS: error= 1.18D-02 at cycle   2 NSaved=   2.
 NSaved= 2 IEnMin= 2 EnMin= -570.783630164353     IErMin= 2 ErrMin= 1.18D-02
 ErrMax= 1.18D-02  0.00D+00 EMaxC= 1.00D-01 BMatC= 3.42D-02 BMatP= 2.33D-01
 IDIUse=3 WtCom= 8.82D-01 WtEn= 1.18D-01
 Coeff-Com:  0.177D+00 0.823D+00
 Coeff-En:   0.282D+00 0.718D+00
 Coeff:      0.190D+00 0.810D+00
 Gap=     0.235 Goal=   None    Shift=    0.000
 RMSDP=1.99D-03 MaxDP=5.41D-02 DE=-7.74D-02 OVMax= 2.17D-01

 Cycle   3  Pass 0  IDiag  1:
 RMSU=  1.73D-03    CP:  9.89D-01  7.03D-01
 E= -570.907911364381     Delta-E=       -0.124281200028 Rises=F Damp=F
 DIIS: error= 1.40D-02 at cycle   3 NSaved=   3.
 NSaved= 3 IEnMin= 3 EnMin= -570.907911364381     IErMin= 2 ErrMin= 1.18D-02
 ErrMax= 1.40D-02  0.00D+00 EMaxC= 1.00D-01 BMatC= 3.69D-02 BMatP= 3.42D-02
 IDIUse=3 WtCom= 8.60D-01 WtEn= 1.40D-01
 Coeff-Com:  0.319D-01 0.503D+00 0.466D+00
 Coeff-En:   0.000D+00 0.000D+00 0.100D+01
 Coeff:      0.274D-01 0.432D+00 0.540D+00
 Gap=     0.214 Goal=   None    Shift=    0.000
 RMSDP=1.24D-03 MaxDP=3.50D-02 DE=-1.24D-01 OVMax= 9.28D-02

 Cycle   4  Pass 0  IDiag  1:
 RMSU=  6.26D-04    CP:  9.96D-01  8.97D-01  5.04D-01
 E= -570.933925353181     Delta-E=       -0.026013988800 Rises=F Damp=F
 DIIS: error= 7.56D-03 at cycle   4 NSaved=   4.
 NSaved= 4 IEnMin= 4 EnMin= -570.933925353181     IErMin= 4 ErrMin= 7.56D-03
 ErrMax= 7.56D-03  0.00D+00 EMaxC= 1.00D-01 BMatC= 8.38D-03 BMatP= 3.42D-02
 IDIUse=3 WtCom= 9.24D-01 WtEn= 7.56D-02
 Coeff-Com:  0.705D-02 0.988D-01 0.332D+00 0.562D+00
 Coeff-En:   0.000D+00 0.000D+00 0.215D+00 0.785D+00
 Coeff:      0.652D-02 0.913D-01 0.323D+00 0.579D+00
 Gap=     0.215 Goal=   None    Shift=    0.000
 RMSDP=4.93D-04 MaxDP=1.20D-02 DE=-2.60D-02 OVMax= 2.75D-02

 Cycle   5  Pass 0  IDiag  1:
 RMSU=  1.93D-04    CP:  9.93D-01  8.00D-01  6.39D-01  6.41D-01
 E= -570.940710943953     Delta-E=       -0.006785590772 Rises=F Damp=F
 DIIS: error= 1.11D-03 at cycle   5 NSaved=   5.
 NSaved= 5 IEnMin= 5 EnMin= -570.940710943953     IErMin= 5 ErrMin= 1.11D-03
 ErrMax= 1.11D-03  0.00D+00 EMaxC= 1.00D-01 BMatC= 3.12D-04 BMatP= 8.38D-03
 IDIUse=3 WtCom= 9.89D-01 WtEn= 1.11D-02
 Coeff-Com:  0.209D-02 0.964D-02 0.128D+00 0.301D+00 0.559D+00
 Coeff-En:   0.000D+00 0.000D+00 0.000D+00 0.000D+00 0.100D+01
 Coeff:      0.207D-02 0.953D-02 0.126D+00 0.298D+00 0.564D+00
 Gap=     0.216 Goal=   None    Shift=    0.000
 RMSDP=1.02D-04 MaxDP=2.54D-03 DE=-6.79D-03 OVMax= 3.15D-03

 Cycle   6  Pass 0  IDiag  1:
 RMSU=  6.32D-05    CP:  9.93D-01  8.10D-01  6.40D-01  6.65D-01  6.25D-01
 E= -570.940958514995     Delta-E=       -0.000247571042 Rises=F Damp=F
 DIIS: error= 2.36D-04 at cycle   6 NSaved=   6.
 NSaved= 6 IEnMin= 6 EnMin= -570.940958514995     IErMin= 6 ErrMin= 2.36D-04
 ErrMax= 2.36D-04  0.00D+00 EMaxC= 1.00D-01 BMatC= 1.85D-05 BMatP= 3.12D-04
 IDIUse=3 WtCom= 9.98D-01 WtEn= 2.36D-03
 Coeff-Com:  0.404D-03-0.447D-02 0.298D-01 0.859D-01 0.269D+00 0.620D+00
 Coeff-En:   0.000D+00 0.000D+00 0.000D+00 0.000D+00 0.000D+00 0.100D+01
 Coeff:      0.403D-03-0.446D-02 0.297D-01 0.857D-01 0.268D+00 0.620D+00
 Gap=     0.216 Goal=   None    Shift=    0.000
 RMSDP=2.13D-05 MaxDP=5.34D-04 DE=-2.48D-04 OVMax= 5.32D-04

 Cycle   7  Pass 0  IDiag  1:
 RMSU=  1.14D-05    CP:  9.93D-01  8.10D-01  6.41D-01  6.70D-01  6.40D-01
                    CP:  7.31D-01
 E= -570.940973189360     Delta-E=       -0.000014674365 Rises=F Damp=F
 DIIS: error= 3.76D-05 at cycle   7 NSaved=   7.
 NSaved= 7 IEnMin= 7 EnMin= -570.940973189360     IErMin= 7 ErrMin= 3.76D-05
 ErrMax= 3.76D-05  0.00D+00 EMaxC= 1.00D-01 BMatC= 5.94D-07 BMatP= 1.85D-05
 IDIUse=1 WtCom= 1.00D+00 WtEn= 0.00D+00
 Coeff-Com:  0.174D-03-0.218D-02 0.754D-02 0.222D-01 0.899D-01 0.244D+00
 Coeff-Com:  0.639D+00
 Coeff:      0.174D-03-0.218D-02 0.754D-02 0.222D-01 0.899D-01 0.244D+00
 Coeff:      0.639D+00
 Gap=     0.216 Goal=   None    Shift=    0.000
 RMSDP=5.93D-06 MaxDP=1.09D-04 DE=-1.47D-05 OVMax= 1.38D-04

 Initial convergence to 1.0D-05 achieved.  Increase integral accuracy.
 Cycle   8  Pass 1  IDiag  1:
 E= -570.940991581075     Delta-E=       -0.000018391716 Rises=F Damp=F
 DIIS: error= 2.79D-05 at cycle   1 NSaved=   1.
 NSaved= 1 IEnMin= 1 EnMin= -570.940991581075     IErMin= 1 ErrMin= 2.79D-05
 ErrMax= 2.79D-05  0.00D+00 EMaxC= 1.00D-01 BMatC= 1.71D-07 BMatP= 1.71D-07
 IDIUse=1 WtCom= 1.00D+00 WtEn= 0.00D+00
 Coeff-Com:  0.100D+01
 Coeff:      0.100D+01
 Gap=     0.216 Goal=   None    Shift=    0.000
 RMSDP=5.93D-06 MaxDP=1.09D-04 DE=-1.84D-05 OVMax= 1.11D-04

 Cycle   9  Pass 1  IDiag  1:
 RMSU=  1.79D-05    CP:  1.00D+00
 E= -570.940991635475     Delta-E=       -0.000000054400 Rises=F Damp=F
 DIIS: error= 2.78D-05 at cycle   2 NSaved=   2.
 NSaved= 2 IEnMin= 2 EnMin= -570.940991635475     IErMin= 2 ErrMin= 2.78D-05
 ErrMax= 2.78D-05  0.00D+00 EMaxC= 1.00D-01 BMatC= 1.44D-07 BMatP= 1.71D-07
 IDIUse=1 WtCom= 1.00D+00 WtEn= 0.00D+00
 Coeff-Com:  0.473D+00 0.527D+00
 Coeff:      0.473D+00 0.527D+00
 Gap=     0.216 Goal=   None    Shift=    0.000
 RMSDP=2.56D-06 MaxDP=7.62D-05 DE=-5.44D-08 OVMax= 1.72D-04

 Cycle  10  Pass 1  IDiag  1:
 RMSU=  2.54D-06    CP:  1.00D+00  1.01D+00
 E= -570.940991724084     Delta-E=       -0.000000088609 Rises=F Damp=F
 DIIS: error= 1.73D-05 at cycle   3 NSaved=   3.
 NSaved= 3 IEnMin= 3 EnMin= -570.940991724084     IErMin= 3 ErrMin= 1.73D-05
 ErrMax= 1.73D-05  0.00D+00 EMaxC= 1.00D-01 BMatC= 4.44D-08 BMatP= 1.44D-07
 IDIUse=1 WtCom= 1.00D+00 WtEn= 0.00D+00
 Coeff-Com:  0.739D-01 0.351D+00 0.575D+00
 Coeff:      0.739D-01 0.351D+00 0.575D+00
 Gap=     0.216 Goal=   None    Shift=    0.000
 RMSDP=1.20D-06 MaxDP=3.57D-05 DE=-8.86D-08 OVMax= 7.90D-05

 Cycle  11  Pass 1  IDiag  1:
 RMSU=  7.98D-07    CP:  1.00D+00  1.02D+00  6.57D-01
 E= -570.940991755743     Delta-E=       -0.000000031659 Rises=F Damp=F
 DIIS: error= 4.23D-06 at cycle   4 NSaved=   4.
 NSaved= 4 IEnMin= 4 EnMin= -570.940991755743     IErMin= 4 ErrMin= 4.23D-06
 ErrMax= 4.23D-06  0.00D+00 EMaxC= 1.00D-01 BMatC= 6.42D-09 BMatP= 4.44D-08
 IDIUse=1 WtCom= 1.00D+00 WtEn= 0.00D+00
 Coeff-Com: -0.417D-02 0.171D+00 0.368D+00 0.465D+00
 Coeff:     -0.417D-02 0.171D+00 0.368D+00 0.465D+00
 Gap=     0.216 Goal=   None    Shift=    0.000
 RMSDP=4.49D-07 MaxDP=1.38D-05 DE=-3.17D-08 OVMax= 2.12D-05

 Cycle  12  Pass 1  IDiag  1:
 RMSU=  1.52D-07    CP:  1.00D+00  1.02D+00  7.03D-01  5.02D-01
 E= -570.940991761366     Delta-E=       -0.000000005623 Rises=F Damp=F
 DIIS: error= 5.56D-07 at cycle   5 NSaved=   5.
 NSaved= 5 IEnMin= 5 EnMin= -570.940991761366     IErMin= 5 ErrMin= 5.56D-07
 ErrMax= 5.56D-07  0.00D+00 EMaxC= 1.00D-01 BMatC= 8.05D-11 BMatP= 6.42D-09
 IDIUse=1 WtCom= 1.00D+00 WtEn= 0.00D+00
 Coeff-Com: -0.353D-02 0.782D-01 0.167D+00 0.237D+00 0.522D+00
 Coeff:     -0.353D-02 0.782D-01 0.167D+00 0.237D+00 0.522D+00
 Gap=     0.216 Goal=   None    Shift=    0.000
 RMSDP=6.37D-08 MaxDP=2.38D-06 DE=-5.62D-09 OVMax= 1.42D-06

 Cycle  13  Pass 1  IDiag  1:
 RMSU=  3.87D-08    CP:  1.00D+00  1.02D+00  6.91D-01  5.07D-01  7.57D-01
 E= -570.940991761436     Delta-E=       -0.000000000070 Rises=F Damp=F
 DIIS: error= 1.09D-07 at cycle   6 NSaved=   6.
 NSaved= 6 IEnMin= 6 EnMin= -570.940991761436     IErMin= 6 ErrMin= 1.09D-07
 ErrMax= 1.09D-07  0.00D+00 EMaxC= 1.00D-01 BMatC= 4.22D-12 BMatP= 8.05D-11
 IDIUse=1 WtCom= 1.00D+00 WtEn= 0.00D+00
 Coeff-Com: -0.759D-03 0.107D-01 0.185D-01 0.414D-01 0.171D+00 0.759D+00
 Coeff:     -0.759D-03 0.107D-01 0.185D-01 0.414D-01 0.171D+00 0.759D+00
 Gap=     0.216 Goal=   None    Shift=    0.000
 RMSDP=1.31D-08 MaxDP=2.50D-07 DE=-7.03D-11 OVMax= 4.72D-07

 Cycle  14  Pass 1  IDiag  1:
 RMSU=  9.40D-09    CP:  1.00D+00  1.02D+00  6.91D-01  5.17D-01  7.79D-01
                    CP:  1.04D+00
 E= -570.940991761430     Delta-E=        0.000000000006 Rises=F Damp=F
 DIIS: error= 6.37D-08 at cycle   7 NSaved=   7.
 NSaved= 7 IEnMin= 6 EnMin= -570.940991761436     IErMin= 7 ErrMin= 6.37D-08
 ErrMax= 6.37D-08  0.00D+00 EMaxC= 1.00D-01 BMatC= 8.35D-13 BMatP= 4.22D-12
 IDIUse=1 WtCom= 1.00D+00 WtEn= 0.00D+00
 Coeff-Com:  0.133D-03-0.538D-02-0.148D-01-0.107D-01 0.917D-02 0.375D+00
 Coeff-Com:  0.647D+00
 Coeff:      0.133D-03-0.538D-02-0.148D-01-0.107D-01 0.917D-02 0.375D+00
 Coeff:      0.647D+00
 Gap=     0.216 Goal=   None    Shift=    0.000
 RMSDP=5.07D-09 MaxDP=1.04D-07 DE= 6.37D-12 OVMax= 1.79D-07

 SCF Done:  E(RPBE1PBE) =  -570.940991761     A.U. after   14 cycles
            NFock= 14  Conv=0.51D-08     -V/T= 2.0089
 KE= 5.659098837503D+02 PE=-2.768689273527D+03 EE= 9.127060237824D+02
 Leave Link  502 at Sun Jan 15 17:40:28 2023, MaxMem=  4194304000 cpu:             126.5 elap:              15.9
 (Enter /software/gaussian/G16-A.03/avx2/g16/l801.exe)
 DoSCS=F DFT=T ScalE2(SS,OS)=  1.000000  1.000000
 Range of M.O.s used for correlation:     1   228
 NBasis=   228 NAE=    45 NBE=    45 NFC=     0 NFV=     0
 NROrb=    228 NOA=    45 NOB=    45 NVA=   183 NVB=   183
 Leave Link  801 at Sun Jan 15 17:40:29 2023, MaxMem=  4194304000 cpu:               0.3 elap:               0.1
 (Enter /software/gaussian/G16-A.03/avx2/g16/l1101.exe)
 Using compressed storage, NAtomX=    24.
 Will process     25 centers per pass.
   1 Symmetry operations used in ECPInt.
 ECPInt:  NShTT=    5886 NPrTT=   21102 LenC2=    5564 LenP2D=   14739.
 LDataN:  DoStor=T MaxTD1= 5 Len=  102
 R6Disp: Adding Grimme-D3(BJ) dispersion energy 1st derivatives to the gradient.
 Leave Link 1101 at Sun Jan 15 17:40:29 2023, MaxMem=  4194304000 cpu:               1.8 elap:               0.3
 (Enter /software/gaussian/G16-A.03/avx2/g16/l1102.exe)
 Symmetrizing basis deriv contribution to polar:
 IMax=3 JMax=2 DiffMx= 0.00D+00
 Leave Link 1102 at Sun Jan 15 17:40:30 2023, MaxMem=  4194304000 cpu:               0.4 elap:               0.1
 (Enter /software/gaussian/G16-A.03/avx2/g16/l1110.exe)
 Forming Gx(P) for the SCF density, NAtomX=    24.
 Integral derivatives from FoFJK, PRISM(SPDF).
 Do as many integral derivatives as possible in FoFJK.
 G2DrvN: MDV=    4194302136.
 G2DrvN: will do    25 centers at a time, making    1 passes.
 Calling FoFCou, ICntrl=  3107 FMM=F I1Cent=   0 AccDes= 0.00D+00.
 FoFJK:  IHMeth= 1 ICntrl=    3107 DoSepK=F KAlg= 0 I1Cent=           0 FoldK=F
 IRaf=         0 NMat=       1 IRICut=       1 DoRegI=T DoRafI=F ISym2E= 0 IDoP0=0 IntGTp=1.
 FoFCou: FMM=F IPFlag=           0 FMFlag=      100000 FMFlg1=           0
         NFxFlg=           0 DoJE=F BraDBF=F KetDBF=F FulRan=T
         wScrn=  0.000000 ICntrl=      3107 IOpCl=  0 I1Cent=           0 NGrid=           0
         NMat0=    1 NMatS0=      1 NMatT0=    0 NMatD0=    1 NMtDS0=    0 NMtDT0=    0
 Symmetry not used in FoFCou.
 End of G2Drv F.D. properties file   721 does not exist.
 End of G2Drv F.D. properties file   722 does not exist.
 End of G2Drv F.D. properties file   788 does not exist.
 Leave Link 1110 at Sun Jan 15 17:41:08 2023, MaxMem=  4194304000 cpu:             299.7 elap:              37.6
 (Enter /software/gaussian/G16-A.03/avx2/g16/l1002.exe)
 Minotr:  Closed shell wavefunction.
          IDoAtm=111111111111111111111111
          Direct CPHF calculation.
          Differentiating once with respect to electric field.
                with respect to dipole field.
          Differentiating once with respect to nuclear coordinates.
          Requested convergence is 1.0D-08 RMS, and 1.0D-07 maximum.
          Secondary convergence is 1.0D-12 RMS, and 1.0D-12 maximum.
          NewPWx=T KeepS1=F KeepF1=F KeepIn=T MapXYZ=F SortEE=F KeepMc=T.
         7251 words used for storage of precomputed grid.
 Keep R1 ints in memory in canonical form, NReq=349344660.
 FoFCou: FMM=F IPFlag=           0 FMFlag=           0 FMFlg1=           0
         NFxFlg=           0 DoJE=F BraDBF=F KetDBF=F FulRan=T
         wScrn=  0.000000 ICntrl=       600 IOpCl=  0 I1Cent=           0 NGrid=           0
         NMat0=    1 NMatS0=  26106 NMatT0=    0 NMatD0=    1 NMtDS0=    0 NMtDT0=    0
 Symmetry not used in FoFCou.
 Two-electron integral symmetry not used.
          MDV=    4194304000 using IRadAn=       1.
          Solving linear equations simultaneously, MaxMat=       0.
          There are    75 degrees of freedom in the 1st order CPHF.  IDoFFX=6 NUNeed=     3.
     72 vectors produced by pass  0 Test12= 1.10D-14 1.33D-09 XBig12= 8.11D+01 4.93D+00.
 AX will form    72 AO Fock derivatives at one time.
     72 vectors produced by pass  1 Test12= 1.10D-14 1.33D-09 XBig12= 3.78D+01 1.76D+00.
     72 vectors produced by pass  2 Test12= 1.10D-14 1.33D-09 XBig12= 3.16D-01 8.26D-02.
     72 vectors produced by pass  3 Test12= 1.10D-14 1.33D-09 XBig12= 1.45D-03 4.10D-03.
     72 vectors produced by pass  4 Test12= 1.10D-14 1.33D-09 XBig12= 3.21D-06 1.78D-04.
     50 vectors produced by pass  5 Test12= 1.10D-14 1.33D-09 XBig12= 4.04D-09 6.87D-06.
     12 vectors produced by pass  6 Test12= 1.10D-14 1.33D-09 XBig12= 4.09D-12 2.67D-07.
      3 vectors produced by pass  7 Test12= 1.10D-14 1.33D-09 XBig12= 4.73D-15 9.06D-09.
 InvSVY:  IOpt=1 It=  1 EMax= 1.91D-15
 Solved reduced A of dimension   425 with    75 vectors.
 FullF1:  Do perturbations      1 to       3.
 Isotropic polarizability for W=    0.000000      101.90 Bohr**3.
 End of Minotr F.D. properties file   721 does not exist.
 End of Minotr F.D. properties file   722 does not exist.
 End of Minotr F.D. properties file   788 does not exist.
 Leave Link 1002 at Sun Jan 15 17:41:59 2023, MaxMem=  4194304000 cpu:             400.7 elap:              50.3
 (Enter /software/gaussian/G16-A.03/avx2/g16/l601.exe)
 Copying SCF densities to generalized density rwf, IOpCl= 0 IROHF=0.

 **********************************************************************

            Population analysis using the SCF density.

 **********************************************************************

 Orbital symmetries:
       Occupied  (A) (A) (A) (A) (A) (A) (A) (A) (A) (A) (A) (A)
                 (A) (A) (A) (A) (A) (A) (A) (A) (A) (A) (A) (A)
                 (A) (A) (A) (A) (A) (A) (A) (A) (A) (A) (A) (A)
                 (A) (A) (A) (A) (A) (A) (A) (A) (A)
       Virtual   (A) (A) (A) (A) (A) (A) (A) (A) (A) (A) (A) (A)
                 (A) (A) (A) (A) (A) (A) (A) (A) (A) (A) (A) (A)
                 (A) (A) (A) (A) (A) (A) (A) (A) (A) (A) (A) (A)
                 (A) (A) (A) (A) (A) (A) (A) (A) (A) (A) (A) (A)
                 (A) (A) (A) (A) (A) (A) (A) (A) (A) (A) (A) (A)
                 (A) (A) (A) (A) (A) (A) (A) (A) (A) (A) (A) (A)
                 (A) (A) (A) (A) (A) (A) (A) (A) (A) (A) (A) (A)
                 (A) (A) (A) (A) (A) (A) (A) (A) (A) (A) (A) (A)
                 (A) (A) (A) (A) (A) (A) (A) (A) (A) (A) (A) (A)
                 (A) (A) (A) (A) (A) (A) (A) (A) (A) (A) (A) (A)
                 (A) (A) (A) (A) (A) (A) (A) (A) (A) (A) (A) (A)
                 (A) (A) (A) (A) (A) (A) (A) (A) (A) (A) (A) (A)
                 (A) (A) (A) (A) (A) (A) (A) (A) (A) (A) (A) (A)
                 (A) (A) (A) (A) (A) (A) (A) (A) (A) (A) (A) (A)
                 (A) (A) (A) (A) (A) (A) (A) (A) (A) (A) (A) (A)
                 (A) (A) (A)
 The electronic state is 1-A.
 Alpha  occ. eigenvalues --  -19.25464 -19.25455 -14.36190 -14.36183 -10.32175
 Alpha  occ. eigenvalues --  -10.32159 -10.29465 -10.29464 -10.26741 -10.26739
 Alpha  occ. eigenvalues --  -10.22933 -10.22933  -1.13426  -1.12072  -0.93670
 Alpha  occ. eigenvalues --   -0.91154  -0.82649  -0.78583  -0.73030  -0.71357
 Alpha  occ. eigenvalues --   -0.65855  -0.61925  -0.60818  -0.56521  -0.54302
 Alpha  occ. eigenvalues --   -0.52492  -0.51154  -0.48419  -0.47351  -0.46198
 Alpha  occ. eigenvalues --   -0.43836  -0.43052  -0.42547  -0.41501  -0.39967
 Alpha  occ. eigenvalues --   -0.39673  -0.37715  -0.37536  -0.37001  -0.35865
 Alpha  occ. eigenvalues --   -0.35628  -0.29125  -0.27490  -0.25732  -0.24234
 Alpha virt. eigenvalues --   -0.02611   0.06977   0.07297   0.09562   0.09818
 Alpha virt. eigenvalues --    0.09988   0.10565   0.12246   0.12747   0.13033
 Alpha virt. eigenvalues --    0.14381   0.14585   0.15149   0.15189   0.16585
 Alpha virt. eigenvalues --    0.16816   0.17475   0.21317   0.22420   0.24483
 Alpha virt. eigenvalues --    0.25786   0.27048   0.28102   0.31427   0.37685
 Alpha virt. eigenvalues --    0.38868   0.41533   0.41541   0.42027   0.42760
 Alpha virt. eigenvalues --    0.44730   0.47094   0.49015   0.49930   0.51573
 Alpha virt. eigenvalues --    0.53476   0.54758   0.56671   0.57091   0.58374
 Alpha virt. eigenvalues --    0.58773   0.60261   0.60315   0.62801   0.62937
 Alpha virt. eigenvalues --    0.64106   0.64388   0.64896   0.66156   0.66646
 Alpha virt. eigenvalues --    0.67399   0.67560   0.68073   0.68557   0.69212
 Alpha virt. eigenvalues --    0.69517   0.69934   0.70387   0.72148   0.72710
 Alpha virt. eigenvalues --    0.74622   0.76180   0.77075   0.77373   0.79153
 Alpha virt. eigenvalues --    0.79474   0.84114   0.84517   0.90523   0.90822
 Alpha virt. eigenvalues --    0.93540   0.95477   0.96731   0.98175   1.02984
 Alpha virt. eigenvalues --    1.05701   1.08737   1.09542   1.11601   1.15216
 Alpha virt. eigenvalues --    1.24693   1.26343   1.28701   1.29548   1.32719
 Alpha virt. eigenvalues --    1.34668   1.38829   1.42716   1.43937   1.44384
 Alpha virt. eigenvalues --    1.45762   1.48308   1.52451   1.53779   1.53928
 Alpha virt. eigenvalues --    1.55680   1.55762   1.59034   1.60174   1.64063
 Alpha virt. eigenvalues --    1.66863   1.68759   1.70586   1.72380   1.73053
 Alpha virt. eigenvalues --    1.73596   1.74674   1.77216   1.77770   1.79286
 Alpha virt. eigenvalues --    1.79887   1.81315   1.81727   1.82918   1.83168
 Alpha virt. eigenvalues --    1.83754   1.87523   1.87579   1.90953   1.91430
 Alpha virt. eigenvalues --    1.92584   1.92744   1.93578   1.95851   1.98179
 Alpha virt. eigenvalues --    1.98512   1.99686   2.00107   2.02543   2.03089
 Alpha virt. eigenvalues --    2.07799   2.08858   2.09425   2.12628   2.15914
 Alpha virt. eigenvalues --    2.17997   2.23280   2.32425   2.32482   2.33634
 Alpha virt. eigenvalues --    2.34477   2.36668   2.38904   2.39646   2.44501
 Alpha virt. eigenvalues --    2.45416   2.50127   2.50889   2.54145   2.56441
 Alpha virt. eigenvalues --    2.60025   2.64058   2.67595   2.68922   2.69400
 Alpha virt. eigenvalues --    2.73154   2.73240   2.77194   2.82234   2.85236
 Alpha virt. eigenvalues --    2.85854   2.87233   2.89109   2.91825   2.94098
 Alpha virt. eigenvalues --    2.96244   2.97129   2.97344   2.97402   2.99975
 Alpha virt. eigenvalues --    3.01141   3.05622   3.05623   3.09677   3.11659
 Alpha virt. eigenvalues --    3.13671   3.17140   3.22494   3.29768   3.31338
 Alpha virt. eigenvalues --    3.53021   3.56184   3.74043
     Molecular Orbital Coefficients:
                          41        42        43        44        45
                           O         O         O         O         O
     Eigenvalues --    -0.35628  -0.29125  -0.27490  -0.25732  -0.24234
   1 1   C  1S         -0.01297  -0.02451  -0.00500  -0.02753  -0.00298
   2        2S          0.03162   0.06175   0.00940   0.06372   0.00773
   3        3S          0.05977   0.09922   0.05489   0.15561   0.01401
   4        4PX         0.03179  -0.01855   0.00136  -0.03796  -0.00455
   5        4PY        -0.19791  -0.13195  -0.01735  -0.12327  -0.01135
   6        4PZ        -0.03278  -0.00653  -0.09431   0.01158   0.05527
   7        5PX        -0.00715   0.00880  -0.00719  -0.01405   0.00998
   8        5PY        -0.07289  -0.10298  -0.03337  -0.11931  -0.00224
   9        5PZ        -0.01504  -0.00273  -0.02590  -0.00770   0.00329
  10        6D 0       -0.00184  -0.00215  -0.00257  -0.00227   0.00098
  11        6D+1       -0.00232   0.00078  -0.01349   0.00387   0.00878
  12        6D-1        0.00044  -0.00076  -0.00290  -0.00053   0.00245
  13        6D+2       -0.01282   0.00131   0.00270   0.00092  -0.00155
  14        6D-2        0.00099  -0.00222   0.00058  -0.00468  -0.00081
  15 2   C  1S         -0.01095   0.02124   0.00860   0.02390  -0.00355
  16        2S          0.02991  -0.04844  -0.02346  -0.05986   0.01527
  17        3S          0.02649  -0.07373  -0.04568  -0.10267  -0.00462
  18        4PX        -0.03562   0.09652   0.00752   0.11836   0.01057
  19        4PY         0.20682   0.08487   0.00415   0.07879   0.01162
  20        4PZ        -0.01382   0.02377   0.10337   0.00379  -0.10060
  21        5PX         0.00453   0.03785   0.00170   0.04788  -0.03171
  22        5PY         0.08119  -0.00276  -0.02403  -0.01307   0.00706
  23        5PZ        -0.00749   0.01426   0.04384   0.01588  -0.00026
  24        6D 0       -0.00889  -0.00048   0.00434  -0.00135  -0.00682
  25        6D+1        0.00251  -0.00083   0.00963  -0.00428  -0.01641
  26        6D-1        0.00287   0.00253  -0.00643   0.00408   0.00624
  27        6D+2       -0.00799  -0.01212  -0.00525  -0.01158   0.00362
  28        6D-2       -0.00130   0.01214   0.00401   0.01244   0.00024
  29 3   H  1S         -0.09207  -0.02978   0.10282  -0.05378  -0.13026
  30        2S         -0.04877  -0.00369   0.06417  -0.02319  -0.10090
  31        3PX        -0.00001   0.00092   0.00036   0.00141  -0.00025
  32        3PY         0.00207   0.00183   0.00259   0.00117  -0.00321
  33        3PZ         0.00450   0.00201  -0.00185   0.00246   0.00252
  34 4   N  1S         -0.00226   0.06755   0.01875   0.07844  -0.00269
  35        2S         -0.00882   0.13578   0.03746   0.16601  -0.00532
  36        3S          0.05949   0.19486   0.04130   0.17928  -0.00295
  37        4PX         0.00111   0.16757   0.01180   0.19105   0.04462
  38        4PY        -0.05645   0.29800   0.07067   0.30854   0.02088
  39        4PZ         0.00670   0.05045   0.21938  -0.00757  -0.31919
  40        5PX        -0.01014  -0.11144   0.00485  -0.08162  -0.04826
  41        5PY         0.04782  -0.21306  -0.04532  -0.21721  -0.00992
  42        5PZ        -0.00673  -0.03292  -0.17281   0.01351   0.23429
  43        6D 0       -0.00174   0.00817   0.00159   0.00936   0.00162
  44        6D+1       -0.00047  -0.00221   0.00319  -0.00346  -0.00046
  45        6D-1        0.00126  -0.00315  -0.01333   0.00033   0.01784
  46        6D+2       -0.00113   0.00923   0.00085   0.00709   0.00155
  47        6D-2        0.00555  -0.00697  -0.00145  -0.01129  -0.00235
  48 5   C  1S          0.01859   0.04865   0.00662   0.02036  -0.00015
  49        2S         -0.04591  -0.12872  -0.01786  -0.05521   0.00360
  50        3S         -0.07267  -0.05053   0.03342   0.26146  -0.03140
  51        4PX        -0.04002  -0.00544  -0.00076  -0.08272  -0.02453
  52        4PY        -0.05628   0.07444   0.03199   0.05117  -0.01576
  53        4PZ        -0.00371   0.00643  -0.13919   0.04378   0.15534
  54        5PX         0.00115  -0.01383  -0.03457  -0.25169  -0.02693
  55        5PY         0.06824  -0.03849  -0.03775  -0.11163   0.00106
  56        5PZ         0.01018  -0.00684  -0.08746  -0.01012   0.11329
  57        6D 0        0.00051  -0.00251   0.00603  -0.00230  -0.00246
  58        6D+1       -0.00146  -0.00034   0.00807  -0.00292   0.00983
  59        6D-1        0.00031   0.00371   0.02740  -0.00365  -0.02615
  60        6D+2       -0.00459  -0.01605  -0.00171  -0.01280  -0.00342
  61        6D-2       -0.01073   0.01889   0.00125   0.01631   0.00456
  62 6   O  1S          0.03038   0.01272   0.00169   0.00661   0.00041
  63        2S          0.06444   0.02848   0.00247   0.01208  -0.00055
  64        3S          0.04490   0.06805   0.02832   0.08851   0.01103
  65        4PX        -0.09429  -0.02272  -0.03860   0.02297   0.02587
  66        4PY         0.21788  -0.11782  -0.06646  -0.08947   0.02221
  67        4PZ         0.02488  -0.02265   0.29479  -0.09027  -0.22505
  68        5PX        -0.06493  -0.02231  -0.04141   0.01374   0.02350
  69        5PY         0.15351  -0.08485  -0.05505  -0.08261   0.01575
  70        5PZ         0.01908  -0.01848   0.23826  -0.07776  -0.18703
  71        6D 0        0.00403  -0.00093  -0.00123  -0.00098   0.00012
  72        6D+1       -0.00089  -0.00036   0.00106  -0.00063  -0.00132
  73        6D-1       -0.00174   0.00025  -0.00656   0.00133   0.00325
  74        6D+2        0.00389  -0.00269  -0.00123  -0.00047   0.00050
  75        6D-2        0.00097  -0.00326  -0.00013  -0.00389  -0.00035
  76 7   C  1S         -0.01858   0.04865  -0.00662  -0.02036  -0.00015
  77        2S          0.04589  -0.12872   0.01786   0.05521   0.00360
  78        3S          0.07266  -0.05053  -0.03342  -0.26146  -0.03139
  79        4PX        -0.04001   0.00544  -0.00077  -0.08272   0.02453
  80        4PY         0.05625   0.07444  -0.03199  -0.05117  -0.01576
  81        4PZ        -0.00371  -0.00643  -0.13918   0.04378  -0.15535
  82        5PX         0.00116   0.01383  -0.03458  -0.25169   0.02692
  83        5PY        -0.06823  -0.03849   0.03775   0.11163   0.00105
  84        5PZ         0.01017   0.00684  -0.08746  -0.01012  -0.11329
  85        6D 0       -0.00051  -0.00251  -0.00603   0.00230  -0.00246
  86        6D+1        0.00146  -0.00034  -0.00807   0.00292   0.00983
  87        6D-1        0.00031  -0.00371   0.02740  -0.00365   0.02615
  88        6D+2        0.00459  -0.01605   0.00172   0.01280  -0.00342
  89        6D-2       -0.01072  -0.01889   0.00125   0.01631  -0.00456
  90 8   N  1S          0.00225   0.06755  -0.01875  -0.07844  -0.00269
  91        2S          0.00881   0.13578  -0.03746  -0.16601  -0.00532
  92        3S         -0.05948   0.19487  -0.04131  -0.17928  -0.00296
  93        4PX         0.00112  -0.16757   0.01180   0.19105  -0.04462
  94        4PY         0.05642   0.29800  -0.07067  -0.30854   0.02087
  95        4PZ         0.00669  -0.05044   0.21937  -0.00757   0.31920
  96        5PX        -0.01013   0.11144   0.00485  -0.08162   0.04826
  97        5PY        -0.04780  -0.21306   0.04532   0.21721  -0.00992
  98        5PZ        -0.00673   0.03292  -0.17281   0.01351  -0.23429
  99        6D 0        0.00174   0.00817  -0.00159  -0.00936   0.00162
 100        6D+1        0.00047  -0.00221  -0.00319   0.00346  -0.00046
 101        6D-1        0.00126   0.00315  -0.01332   0.00033  -0.01784
 102        6D+2        0.00113   0.00923  -0.00085  -0.00709   0.00155
 103        6D-2        0.00555   0.00697  -0.00145  -0.01129   0.00235
 104 9   C  1S          0.01094   0.02124  -0.00860  -0.02390  -0.00355
 105        2S         -0.02990  -0.04844   0.02345   0.05986   0.01527
 106        3S         -0.02648  -0.07374   0.04568   0.10267  -0.00462
 107        4PX        -0.03561  -0.09652   0.00751   0.11836  -0.01057
 108        4PY        -0.20674   0.08487  -0.00416  -0.07879   0.01162
 109        4PZ        -0.01381  -0.02377   0.10337   0.00378   0.10060
 110        5PX         0.00452  -0.03785   0.00170   0.04788   0.03171
 111        5PY        -0.08116  -0.00276   0.02403   0.01307   0.00705
 112        5PZ        -0.00748  -0.01426   0.04384   0.01588   0.00026
 113        6D 0        0.00889  -0.00048  -0.00434   0.00135  -0.00682
 114        6D+1       -0.00251  -0.00083  -0.00963   0.00428  -0.01641
 115        6D-1        0.00287  -0.00253  -0.00643   0.00408  -0.00624
 116        6D+2        0.00798  -0.01212   0.00525   0.01158   0.00362
 117        6D-2       -0.00130  -0.01214   0.00401   0.01244  -0.00024
 118 10  H  1S          0.09203  -0.02978  -0.10281   0.05378  -0.13026
 119        2S          0.04875  -0.00369  -0.06416   0.02319  -0.10090
 120        3PX        -0.00001  -0.00092   0.00036   0.00141   0.00025
 121        3PY        -0.00207   0.00183  -0.00259  -0.00117  -0.00321
 122        3PZ         0.00450  -0.00201  -0.00185   0.00246  -0.00252
 123 11  C  1S          0.01297  -0.02451   0.00500   0.02753  -0.00298
 124        2S         -0.03161   0.06175  -0.00941  -0.06372   0.00773
 125        3S         -0.05973   0.09922  -0.05489  -0.15561   0.01401
 126        4PX         0.03178   0.01855   0.00136  -0.03796   0.00455
 127        4PY         0.19783  -0.13195   0.01736   0.12326  -0.01135
 128        4PZ        -0.03276   0.00653  -0.09431   0.01158  -0.05527
 129        5PX        -0.00714  -0.00880  -0.00719  -0.01405  -0.00997
 130        5PY         0.07286  -0.10298   0.03337   0.11931  -0.00224
 131        5PZ        -0.01503   0.00273  -0.02590  -0.00769  -0.00329
 132        6D 0        0.00184  -0.00215   0.00258   0.00227   0.00098
 133        6D+1        0.00231   0.00078   0.01349  -0.00387   0.00878
 134        6D-1        0.00044   0.00076  -0.00290  -0.00053  -0.00245
 135        6D+2        0.01281   0.00131  -0.00270  -0.00092  -0.00155
 136        6D-2        0.00099   0.00222   0.00058  -0.00468   0.00081
 137 12  O  1S         -0.03037   0.01272  -0.00169  -0.00661   0.00041
 138        2S         -0.06442   0.02848  -0.00247  -0.01208  -0.00055
 139        3S         -0.04488   0.06805  -0.02832  -0.08851   0.01103
 140        4PX        -0.09425   0.02272  -0.03860   0.02297  -0.02588
 141        4PY        -0.21780  -0.11782   0.06645   0.08947   0.02220
 142        4PZ         0.02485   0.02265   0.29478  -0.09027   0.22506
 143        5PX        -0.06490   0.02231  -0.04141   0.01374  -0.02350
 144        5PY        -0.15345  -0.08485   0.05504   0.08261   0.01575
 145        5PZ         0.01906   0.01848   0.23826  -0.07776   0.18704
 146        6D 0       -0.00403  -0.00093   0.00123   0.00098   0.00012
 147        6D+1        0.00089  -0.00036  -0.00106   0.00063  -0.00132
 148        6D-1       -0.00174  -0.00025  -0.00656   0.00133  -0.00325
 149        6D+2       -0.00389  -0.00269   0.00123   0.00047   0.00050
 150        6D-2        0.00097   0.00326  -0.00013  -0.00389   0.00035
 151 13  C  1S         -0.00407   0.00777  -0.02150  -0.00262  -0.02463
 152        2S          0.00962  -0.02041   0.05412   0.00746   0.05949
 153        3S          0.02320  -0.02815   0.05986   0.00794   0.12653
 154        4PX         0.01642  -0.01035   0.05879  -0.00460   0.06788
 155        4PY         0.18740  -0.02345   0.04253   0.00328   0.04316
 156        4PZ         0.01765   0.01913  -0.06453  -0.00287  -0.06435
 157        5PX         0.01302   0.01470   0.02667  -0.02545   0.03507
 158        5PY         0.09026   0.00557   0.01129  -0.01731   0.04326
 159        5PZ        -0.00401   0.02058  -0.02970  -0.01304  -0.04102
 160        6D 0        0.00901  -0.00086  -0.00093   0.00050  -0.00108
 161        6D+1       -0.00187   0.00186  -0.00243  -0.00137  -0.00243
 162        6D-1        0.00263  -0.00138  -0.00198   0.00214  -0.00269
 163        6D+2        0.00704  -0.00296  -0.00038   0.00324  -0.00205
 164        6D-2        0.00139  -0.00099   0.00205   0.00062   0.00202
 165 14  C  1S          0.00407   0.00777   0.02150   0.00262  -0.02463
 166        2S         -0.00962  -0.02041  -0.05412  -0.00746   0.05949
 167        3S         -0.02322  -0.02815  -0.05986  -0.00794   0.12653
 168        4PX         0.01643   0.01035   0.05879  -0.00460  -0.06787
 169        4PY        -0.18747  -0.02345  -0.04252  -0.00328   0.04316
 170        4PZ         0.01767  -0.01913  -0.06452  -0.00287   0.06434
 171        5PX         0.01303  -0.01469   0.02667  -0.02545  -0.03507
 172        5PY        -0.09030   0.00557  -0.01129   0.01731   0.04326
 173        5PZ        -0.00400  -0.02058  -0.02970  -0.01304   0.04102
 174        6D 0       -0.00901  -0.00086   0.00093  -0.00050  -0.00108
 175        6D+1        0.00187   0.00186   0.00243   0.00137  -0.00243
 176        6D-1        0.00263   0.00138  -0.00198   0.00214   0.00268
 177        6D+2       -0.00704  -0.00296   0.00038  -0.00324  -0.00205
 178        6D-2        0.00139   0.00099   0.00205   0.00062  -0.00202
 179 15  H  1S         -0.02446  -0.02911   0.10127  -0.05887  -0.07284
 180        2S         -0.02034  -0.03103   0.05936  -0.05736  -0.05761
 181        3PX         0.00142   0.00015  -0.00047   0.00014   0.00015
 182        3PY        -0.00377  -0.00261  -0.00330  -0.00139   0.00169
 183        3PZ        -0.00216  -0.00202   0.00097  -0.00208  -0.00078
 184 16  H  1S         -0.06809  -0.03120  -0.10779  -0.01435   0.06658
 185        2S         -0.03432  -0.03111  -0.06828  -0.02419   0.03924
 186        3PX         0.00216   0.00001   0.00066  -0.00023  -0.00040
 187        3PY        -0.00298  -0.00296   0.00232  -0.00313  -0.00166
 188        3PZ         0.00354   0.00191   0.00170   0.00141  -0.00081
 189 17  H  1S          0.02446  -0.02911  -0.10126   0.05887  -0.07285
 190        2S          0.02033  -0.03103  -0.05936   0.05736  -0.05761
 191        3PX         0.00141  -0.00015  -0.00047   0.00014  -0.00015
 192        3PY         0.00377  -0.00261   0.00330   0.00139   0.00169
 193        3PZ        -0.00216   0.00202   0.00097  -0.00208   0.00078
 194 18  H  1S          0.06806  -0.03120   0.10779   0.01434   0.06659
 195        2S          0.03430  -0.03111   0.06828   0.02419   0.03924
 196        3PX         0.00216  -0.00001   0.00066  -0.00023   0.00040
 197        3PY         0.00298  -0.00296  -0.00232   0.00313  -0.00166
 198        3PZ         0.00353  -0.00191   0.00170   0.00141   0.00081
 199 19  H  1S          0.09641  -0.00605  -0.01800   0.00657  -0.01692
 200        2S          0.05091  -0.00310  -0.03810   0.01281  -0.05541
 201        3PX        -0.00174  -0.00039   0.00057   0.00025   0.00043
 202        3PY         0.00335  -0.00126   0.00134   0.00081   0.00061
 203        3PZ        -0.00423   0.00097  -0.00082  -0.00070  -0.00057
 204 20  H  1S         -0.17012   0.02379  -0.00926  -0.01444   0.00048
 205        2S         -0.08196   0.04470  -0.02514  -0.04096  -0.00932
 206        3PX         0.00373  -0.00007   0.00115  -0.00063   0.00134
 207        3PY        -0.00518   0.00060   0.00018  -0.00038   0.00071
 208        3PZ         0.00063   0.00041  -0.00187   0.00003  -0.00165
 209 21  H  1S          0.00976  -0.00655  -0.01633   0.01123  -0.02788
 210        2S          0.00376   0.00655  -0.02163  -0.00104  -0.04158
 211        3PX         0.00080  -0.00015   0.00092  -0.00025   0.00080
 212        3PY         0.00613  -0.00097   0.00154   0.00021   0.00122
 213        3PZ         0.00146  -0.00014  -0.00203   0.00071  -0.00231
 214 22  H  1S         -0.09646  -0.00605   0.01801  -0.00657  -0.01692
 215        2S         -0.05093  -0.00310   0.03810  -0.01281  -0.05542
 216        3PX        -0.00174   0.00039   0.00057   0.00025  -0.00043
 217        3PY        -0.00335  -0.00126  -0.00134  -0.00081   0.00061
 218        3PZ        -0.00423  -0.00097  -0.00082  -0.00070   0.00057
 219 23  H  1S          0.17019   0.02379   0.00926   0.01444   0.00048
 220        2S          0.08199   0.04470   0.02513   0.04096  -0.00931
 221        3PX         0.00374   0.00007   0.00115  -0.00063  -0.00134
 222        3PY         0.00518   0.00060  -0.00018   0.00038   0.00071
 223        3PZ         0.00063  -0.00041  -0.00187   0.00003   0.00165
 224 24  H  1S         -0.00976  -0.00655   0.01632  -0.01123  -0.02788
 225        2S         -0.00376   0.00654   0.02163   0.00104  -0.04158
 226        3PX         0.00080   0.00015   0.00092  -0.00025  -0.00080
 227        3PY        -0.00613  -0.00097  -0.00154  -0.00021   0.00122
 228        3PZ         0.00146   0.00014  -0.00203   0.00071   0.00231
                          46        47        48        49        50
                           V         V         V         V         V
     Eigenvalues --    -0.02611   0.06977   0.07297   0.09562   0.09818
   1 1   C  1S         -0.00401  -0.05054  -0.05428  -0.00463  -0.02074
   2        2S          0.00646   0.09336   0.11272   0.03638   0.04115
   3        3S          0.09757   0.86922   0.84671  -0.43077  -0.04629
   4        4PX         0.00962   0.08849   0.08505  -0.21136  -0.18289
   5        4PY        -0.01293   0.06687   0.07785   0.02514   0.04003
   6        4PZ         0.00814   0.03952   0.02632   0.01368  -0.09204
   7        5PX         0.02282   0.22250   0.24810  -0.52499  -0.51562
   8        5PY        -0.03423   0.22188   0.28484   0.12242   0.13181
   9        5PZ         0.08339   0.09135   0.05292   0.05685  -0.25944
  10        6D 0       -0.00163  -0.00724  -0.00685   0.01021   0.01315
  11        6D+1       -0.01123  -0.00380  -0.00084  -0.00840  -0.00218
  12        6D-1        0.00355  -0.00438  -0.00551   0.00022   0.00317
  13        6D+2        0.00126  -0.00198  -0.00299  -0.00992  -0.01355
  14        6D-2        0.00061  -0.00158  -0.00227   0.00955   0.01142
  15 2   C  1S         -0.00323  -0.03231  -0.03414   0.00104   0.00275
  16        2S          0.01317   0.05906   0.07323  -0.01151  -0.01180
  17        3S         -0.01402   0.55359   0.56184   0.11664  -0.16709
  18        4PX        -0.00702   0.03094   0.02494  -0.00991  -0.05888
  19        4PY        -0.00547  -0.04219  -0.03892   0.04259   0.05041
  20        4PZ        -0.00552   0.09828   0.09047   0.03380  -0.04263
  21        5PX        -0.12340   0.00757   0.03094  -0.23352  -0.35085
  22        5PY        -0.05498  -0.15348  -0.12190   0.15754   0.23712
  23        5PZ         0.06876   0.27140   0.27295   0.07312  -0.08074
  24        6D 0       -0.00868  -0.00561  -0.00328   0.00193   0.00915
  25        6D+1       -0.01981  -0.00227   0.00185  -0.01229  -0.00552
  26        6D-1        0.00098   0.00366   0.00357  -0.00003  -0.00530
  27        6D+2        0.00394   0.00229   0.00131  -0.00329  -0.00873
  28        6D-2        0.00238   0.00272   0.00248  -0.01429  -0.01118
  29 3   H  1S         -0.08461  -0.02482  -0.00904  -0.00487   0.05843
  30        2S         -0.16980  -0.67466  -0.63235  -0.04584   0.39676
  31        3PX        -0.00327   0.00031   0.00068  -0.00303  -0.00256
  32        3PY        -0.00221   0.00034   0.00053   0.00084  -0.00042
  33        3PZ        -0.00009  -0.00299  -0.00261   0.00078   0.00234
  34 4   N  1S         -0.00234   0.01633   0.01138   0.00011  -0.01454
  35        2S          0.00405   0.03696   0.03029   0.01169  -0.01967
  36        3S         -0.13386   0.17369   0.07359  -0.18607  -0.32732
  37        4PX         0.04901  -0.00371  -0.01772   0.09708   0.08845
  38        4PY         0.03362  -0.00803  -0.01280   0.02300   0.04203
  39        4PZ        -0.30479  -0.00079   0.05694  -0.05553   0.02767
  40        5PX        -0.07090  -0.03452  -0.02187  -0.19326  -0.09246
  41        5PY        -0.04781   0.10450   0.06137  -0.09682  -0.07840
  42        5PZ         0.33330  -0.00515  -0.09413   0.06022  -0.03504
  43        6D 0        0.00366  -0.00309  -0.00264   0.00675   0.00404
  44        6D+1        0.01147   0.00537   0.00246   0.00473  -0.00091
  45        6D-1        0.00159  -0.00224  -0.00025  -0.00443  -0.00281
  46        6D+2       -0.00168  -0.00108   0.00116  -0.00244   0.00161
  47        6D-2       -0.00196  -0.00211  -0.00185   0.00566   0.00172
  48 5   C  1S         -0.00210  -0.00828  -0.00880   0.02003  -0.02080
  49        2S          0.00524   0.05393   0.05524  -0.10145   0.03265
  50        3S          0.09283  -0.35521  -0.39871   0.20394   0.80567
  51        4PX         0.03733   0.01404  -0.00541   0.08094  -0.07278
  52        4PY         0.02089   0.01146   0.00585   0.07016   0.04444
  53        4PZ        -0.30804  -0.08207   0.02701  -0.15765  -0.02410
  54        5PX        -0.00929  -0.14075   0.06450   0.12892  -0.60275
  55        5PY        -0.04857   0.05176   0.01146   0.13879  -0.12781
  56        5PZ        -0.30485  -0.10487   0.04702  -0.17947  -0.07570
  57        6D 0        0.00610  -0.00250   0.00068   0.00013   0.00337
  58        6D+1        0.03266  -0.00157  -0.00285  -0.00665  -0.00348
  59        6D-1       -0.01515   0.00098   0.00444  -0.00330   0.00187
  60        6D+2       -0.00570  -0.00069  -0.00336  -0.01131  -0.00957
  61        6D-2        0.00236  -0.00177  -0.00173  -0.01132  -0.00121
  62 6   O  1S          0.00319   0.00722   0.00360  -0.05658  -0.04858
  63        2S          0.00351   0.01337   0.00922  -0.10783  -0.09977
  64        3S          0.05003   0.09460   0.03561  -0.50641  -0.32063
  65        4PX        -0.02931  -0.01018  -0.00596  -0.11452  -0.13966
  66        4PY        -0.01795  -0.01753  -0.01018   0.04244   0.04778
  67        4PZ         0.15597   0.02459  -0.02095   0.05078  -0.00321
  68        5PX        -0.02992  -0.03654  -0.04530  -0.17606  -0.21171
  69        5PY        -0.02407  -0.07561  -0.04427   0.11920   0.03855
  70        5PZ         0.15209   0.01824  -0.02751   0.05550  -0.00244
  71        6D 0        0.00271  -0.00334  -0.00416   0.00340   0.00106
  72        6D+1        0.00899   0.00364   0.00051   0.00527  -0.00050
  73        6D-1        0.00161   0.00144  -0.00032   0.00179   0.00068
  74        6D+2       -0.00138   0.00113   0.00258   0.00461   0.00592
  75        6D-2       -0.00122   0.00252   0.00343  -0.00150   0.00225
  76 7   C  1S          0.00210  -0.00828   0.00880   0.02003   0.02080
  77        2S         -0.00524   0.05393  -0.05525  -0.10145  -0.03265
  78        3S         -0.09282  -0.35524   0.39871   0.20385  -0.80569
  79        4PX         0.03733  -0.01404  -0.00541  -0.08094  -0.07277
  80        4PY        -0.02088   0.01146  -0.00585   0.07015  -0.04444
  81        4PZ        -0.30804   0.08207   0.02701   0.15765  -0.02414
  82        5PX        -0.00930   0.14073   0.06450  -0.12896  -0.60273
  83        5PY         0.04857   0.05176  -0.01146   0.13880   0.12780
  84        5PZ        -0.30485   0.10487   0.04703   0.17947  -0.07575
  85        6D 0       -0.00610  -0.00250  -0.00068   0.00013  -0.00337
  86        6D+1       -0.03266  -0.00157   0.00285  -0.00665   0.00348
  87        6D-1       -0.01515  -0.00098   0.00444   0.00330   0.00187
  88        6D+2        0.00570  -0.00069   0.00336  -0.01131   0.00957
  89        6D-2        0.00236   0.00177  -0.00173   0.01132  -0.00121
  90 8   N  1S          0.00234   0.01633  -0.01138   0.00011   0.01454
  91        2S         -0.00405   0.03696  -0.03029   0.01169   0.01966
  92        3S          0.13386   0.17369  -0.07360  -0.18604   0.32734
  93        4PX         0.04901   0.00372  -0.01772  -0.09708   0.08845
  94        4PY        -0.03362  -0.00803   0.01280   0.02299  -0.04203
  95        4PZ        -0.30479   0.00079   0.05693   0.05553   0.02766
  96        5PX        -0.07090   0.03452  -0.02186   0.19325  -0.09247
  97        5PY         0.04781   0.10450  -0.06137  -0.09680   0.07840
  98        5PZ         0.33331   0.00515  -0.09413  -0.06022  -0.03503
  99        6D 0       -0.00366  -0.00309   0.00264   0.00675  -0.00404
 100        6D+1       -0.01147   0.00537  -0.00245   0.00474   0.00091
 101        6D-1        0.00159   0.00224  -0.00025   0.00443  -0.00281
 102        6D+2        0.00168  -0.00108  -0.00116  -0.00244  -0.00161
 103        6D-2       -0.00196   0.00211  -0.00185  -0.00566   0.00172
 104 9   C  1S          0.00323  -0.03231   0.03414   0.00104  -0.00275
 105        2S         -0.01317   0.05906  -0.07323  -0.01150   0.01180
 106        3S          0.01401   0.55359  -0.56183   0.11665   0.16700
 107        4PX        -0.00702  -0.03095   0.02495   0.00991  -0.05888
 108        4PY         0.00547  -0.04219   0.03892   0.04259  -0.05040
 109        4PZ        -0.00552  -0.09828   0.09046  -0.03380  -0.04261
 110        5PX        -0.12340  -0.00758   0.03095   0.23351  -0.35085
 111        5PY         0.05498  -0.15348   0.12191   0.15752  -0.23709
 112        5PZ         0.06876  -0.27140   0.27294  -0.07315  -0.08069
 113        6D 0        0.00868  -0.00561   0.00328   0.00193  -0.00915
 114        6D+1        0.01981  -0.00227  -0.00185  -0.01229   0.00552
 115        6D-1        0.00098  -0.00366   0.00357   0.00003  -0.00530
 116        6D+2       -0.00394   0.00229  -0.00131  -0.00329   0.00873
 117        6D-2        0.00238  -0.00272   0.00248   0.01429  -0.01118
 118 10  H  1S          0.08461  -0.02482   0.00904  -0.00487  -0.05842
 119        2S          0.16979  -0.67466   0.63234  -0.04588  -0.39663
 120        3PX        -0.00327  -0.00031   0.00068   0.00303  -0.00256
 121        3PY         0.00221   0.00034  -0.00053   0.00084   0.00042
 122        3PZ        -0.00009   0.00300  -0.00261  -0.00078   0.00234
 123 11  C  1S          0.00401  -0.05054   0.05428  -0.00463   0.02074
 124        2S         -0.00646   0.09336  -0.11271   0.03638  -0.04114
 125        3S         -0.09757   0.86924  -0.84670  -0.43072   0.04634
 126        4PX         0.00962  -0.08850   0.08506   0.21135  -0.18290
 127        4PY         0.01292   0.06687  -0.07785   0.02514  -0.04002
 128        4PZ         0.00815  -0.03952   0.02632  -0.01368  -0.09202
 129        5PX         0.02281  -0.22251   0.24811   0.52494  -0.51564
 130        5PY         0.03422   0.22189  -0.28483   0.12242  -0.13180
 131        5PZ         0.08339  -0.09135   0.05292  -0.05685  -0.25939
 132        6D 0        0.00163  -0.00724   0.00685   0.01021  -0.01315
 133        6D+1        0.01123  -0.00380   0.00084  -0.00840   0.00218
 134        6D-1        0.00355   0.00438  -0.00551  -0.00022   0.00317
 135        6D+2       -0.00126  -0.00198   0.00298  -0.00992   0.01355
 136        6D-2        0.00061   0.00158  -0.00228  -0.00955   0.01142
 137 12  O  1S         -0.00319   0.00722  -0.00361  -0.05658   0.04858
 138        2S         -0.00350   0.01338  -0.00923  -0.10782   0.09977
 139        3S         -0.05003   0.09461  -0.03563  -0.50638   0.32064
 140        4PX        -0.02931   0.01018  -0.00596   0.11451  -0.13966
 141        4PY         0.01795  -0.01753   0.01018   0.04244  -0.04779
 142        4PZ         0.15597  -0.02459  -0.02096  -0.05078  -0.00321
 143        5PX        -0.02993   0.03654  -0.04529   0.17604  -0.21171
 144        5PY         0.02407  -0.07561   0.04427   0.11919  -0.03856
 145        5PZ         0.15209  -0.01824  -0.02751  -0.05550  -0.00243
 146        6D 0       -0.00271  -0.00334   0.00416   0.00340  -0.00106
 147        6D+1       -0.00899   0.00364  -0.00051   0.00527   0.00050
 148        6D-1        0.00161  -0.00144  -0.00032  -0.00179   0.00068
 149        6D+2        0.00138   0.00113  -0.00258   0.00461  -0.00592
 150        6D-2       -0.00122  -0.00252   0.00343   0.00150   0.00225
 151 13  C  1S          0.02381  -0.04861   0.04718  -0.05004   0.05847
 152        2S         -0.05005   0.07453  -0.06671   0.08888  -0.08842
 153        3S         -0.26238   0.88189  -0.91676   0.84807  -1.23336
 154        4PX        -0.03546  -0.05678   0.06376  -0.04591   0.05683
 155        4PY        -0.02554  -0.02123   0.02791  -0.00091   0.00133
 156        4PZ         0.03718   0.04458  -0.05651  -0.08455  -0.00074
 157        5PX         0.03032  -0.19217   0.16639  -0.19676   0.15645
 158        5PY        -0.10421  -0.05793   0.08633   0.00701   0.02117
 159        5PZ         0.06316   0.15820  -0.18698  -0.24819   0.07262
 160        6D 0       -0.00112   0.00608  -0.00561   0.00056   0.00407
 161        6D+1        0.00145  -0.00275   0.00275   0.00045   0.00092
 162        6D-1        0.00105  -0.00297   0.00304   0.00303  -0.00209
 163        6D+2        0.00436   0.00128  -0.00337  -0.00216  -0.00344
 164        6D-2        0.00033  -0.00103   0.00029   0.00147  -0.00508
 165 14  C  1S         -0.02381  -0.04861  -0.04719  -0.05004  -0.05847
 166        2S          0.05005   0.07453   0.06671   0.08889   0.08843
 167        3S          0.26238   0.88189   0.91680   0.84810   1.23346
 168        4PX        -0.03546   0.05678   0.06376   0.04591   0.05683
 169        4PY         0.02554  -0.02123  -0.02791  -0.00091  -0.00133
 170        4PZ         0.03718  -0.04458  -0.05651   0.08455  -0.00076
 171        5PX         0.03032   0.19218   0.16640   0.19677   0.15643
 172        5PY         0.10421  -0.05792  -0.08633   0.00700  -0.02118
 173        5PZ         0.06316  -0.15819  -0.18698   0.24819   0.07256
 174        6D 0        0.00112   0.00608   0.00561   0.00056  -0.00407
 175        6D+1       -0.00145  -0.00275  -0.00275   0.00045  -0.00092
 176        6D-1        0.00105   0.00297   0.00304  -0.00303  -0.00209
 177        6D+2       -0.00436   0.00128   0.00337  -0.00216   0.00344
 178        6D-2        0.00033   0.00103   0.00029  -0.00147  -0.00508
 179 15  H  1S          0.03906   0.00460  -0.00576   0.06648   0.03251
 180        2S          0.07099  -0.48753  -0.57810   0.50764  -0.07190
 181        3PX         0.00145   0.00156  -0.00010  -0.00748  -0.00837
 182        3PY        -0.00287   0.00211   0.00265   0.00356   0.00436
 183        3PZ        -0.00008   0.00585   0.00578  -0.00745  -0.00404
 184 16  H  1S         -0.03577  -0.04907  -0.04182   0.02222   0.05067
 185        2S         -0.12676  -0.74623  -0.72733   0.22513   0.47234
 186        3PX        -0.00178   0.00055   0.00048  -0.01122  -0.00876
 187        3PY         0.00297   0.00090  -0.00015   0.00434   0.00408
 188        3PZ        -0.00006  -0.00549  -0.00514   0.00481   0.00505
 189 17  H  1S         -0.03906   0.00459   0.00576   0.06647  -0.03252
 190        2S         -0.07099  -0.48755   0.57811   0.50760   0.07177
 191        3PX         0.00145  -0.00156  -0.00010   0.00748  -0.00837
 192        3PY         0.00287   0.00211  -0.00265   0.00356  -0.00436
 193        3PZ        -0.00008  -0.00585   0.00578   0.00745  -0.00404
 194 18  H  1S          0.03577  -0.04907   0.04182   0.02221  -0.05066
 195        2S          0.12676  -0.74624   0.72732   0.22508  -0.47229
 196        3PX        -0.00178  -0.00055   0.00048   0.01122  -0.00876
 197        3PY        -0.00297   0.00090   0.00015   0.00434  -0.00408
 198        3PZ        -0.00006   0.00549  -0.00514  -0.00481   0.00505
 199 19  H  1S         -0.00059   0.00796  -0.00297  -0.00397   0.02856
 200        2S          0.07189  -0.37332   0.40355   0.02439   0.39132
 201        3PX         0.00023  -0.00278   0.00278   0.00128  -0.00181
 202        3PY         0.00039  -0.00646   0.00713   0.00415  -0.00163
 203        3PZ        -0.00024   0.00011  -0.00014  -0.00324   0.00472
 204 20  H  1S         -0.01950  -0.03003   0.04149   0.00203   0.02814
 205        2S         -0.00846  -0.38258   0.42715  -0.27274   0.42013
 206        3PX        -0.00086  -0.00034   0.00082  -0.00109   0.00208
 207        3PY        -0.00152   0.00302  -0.00300   0.00255  -0.00263
 208        3PZ         0.00070   0.00259  -0.00289  -0.00267   0.00119
 209 21  H  1S          0.03520  -0.01935   0.00692  -0.01812  -0.01602
 210        2S          0.14750  -0.54894   0.52406  -0.68332   0.65036
 211        3PX        -0.00060   0.00182  -0.00159   0.00149  -0.00034
 212        3PY        -0.00049  -0.00109   0.00196  -0.00353   0.00657
 213        3PZ         0.00114   0.00225  -0.00266   0.00149  -0.00416
 214 22  H  1S          0.00059   0.00796   0.00297  -0.00398  -0.02856
 215        2S         -0.07189  -0.37331  -0.40356   0.02438  -0.39143
 216        3PX         0.00023   0.00278   0.00278  -0.00128  -0.00181
 217        3PY        -0.00039  -0.00646  -0.00713   0.00415   0.00163
 218        3PZ        -0.00024  -0.00011  -0.00014   0.00324   0.00472
 219 23  H  1S          0.01950  -0.03003  -0.04149   0.00202  -0.02815
 220        2S          0.00846  -0.38258  -0.42716  -0.27276  -0.42017
 221        3PX        -0.00086   0.00034   0.00082   0.00109   0.00208
 222        3PY         0.00152   0.00302   0.00300   0.00255   0.00263
 223        3PZ         0.00070  -0.00259  -0.00289   0.00267   0.00119
 224 24  H  1S         -0.03519  -0.01935  -0.00692  -0.01812   0.01602
 225        2S         -0.14750  -0.54894  -0.52409  -0.68334  -0.65034
 226        3PX        -0.00060  -0.00182  -0.00159  -0.00149  -0.00034
 227        3PY         0.00049  -0.00109  -0.00196  -0.00353  -0.00657
 228        3PZ         0.00114  -0.00225  -0.00266  -0.00149  -0.00416
     Density Matrix:
                           1         2         3         4         5
   1 1   C  1S          2.08317
   2        2S         -0.17133   0.56657
   3        3S         -0.11861   0.10173   0.11957
   4        4PX        -0.01619   0.02618   0.01845   0.31077
   5        4PY         0.01532  -0.03624  -0.10965   0.04594   0.41987
   6        4PZ        -0.00097  -0.00008  -0.01044  -0.01031   0.00685
   7        5PX        -0.01989   0.03772   0.00334   0.10480   0.03860
   8        5PY         0.01757  -0.02652  -0.07955   0.04130   0.18939
   9        5PZ        -0.00079   0.00315  -0.00775  -0.00374   0.00568
  10        6D 0        0.00328  -0.00388  -0.00078   0.01639   0.00768
  11        6D+1       -0.00060   0.00131  -0.00111  -0.00533  -0.00039
  12        6D-1        0.00000   0.00048  -0.00146  -0.00029  -0.00160
  13        6D+2        0.00009   0.00189  -0.00401  -0.01564   0.01451
  14        6D-2        0.00100  -0.00018  -0.00078   0.01128  -0.00396
  15 2   C  1S          0.01766  -0.03103   0.03556   0.00752   0.07927
  16        2S         -0.02373   0.03885   0.00595  -0.02276  -0.16572
  17        3S         -0.03919   0.08651  -0.04428   0.02096  -0.02048
  18        4PX        -0.00809   0.01169   0.05009   0.02616  -0.05396
  19        4PY        -0.08680   0.18557   0.09275  -0.01959  -0.33525
  20        4PZ        -0.00248  -0.00105   0.04495   0.00090  -0.01813
  21        5PX         0.01478  -0.01850   0.01873   0.01427  -0.03778
  22        5PY        -0.03679   0.07642   0.01098   0.00404  -0.12105
  23        5PZ         0.00977  -0.01116   0.02688  -0.00236  -0.00558
  24        6D 0        0.00568  -0.00878  -0.00317   0.00040   0.00712
  25        6D+1       -0.00008   0.00036  -0.00015   0.00048   0.00059
  26        6D-1       -0.00147   0.00267   0.00186  -0.00088  -0.00237
  27        6D+2        0.00900  -0.01416  -0.01076   0.00195   0.01490
  28        6D-2       -0.00232   0.00517   0.00752   0.00604  -0.00189
  29 3   H  1S          0.02032  -0.05765  -0.00725   0.00391   0.05050
  30        2S          0.01086  -0.03028  -0.00961   0.00140   0.03448
  31        3PX        -0.00081   0.00067   0.00032   0.00013  -0.00041
  32        3PY        -0.00026   0.00218   0.00247  -0.00012  -0.00678
  33        3PZ        -0.00004   0.00151   0.00048  -0.00001  -0.00168
  34 4   N  1S          0.00286  -0.00824   0.05516   0.01343   0.00224
  35        2S          0.00696  -0.01326   0.05182   0.03386   0.01713
  36        3S          0.00003  -0.01515   0.09791   0.02397  -0.06886
  37        4PX        -0.01090   0.02442   0.09027   0.01201  -0.06657
  38        4PY        -0.02705   0.06735   0.16725  -0.02994  -0.05866
  39        4PZ        -0.00259   0.00603   0.00892  -0.00084  -0.01607
  40        5PX         0.01573  -0.03513  -0.04841  -0.00339   0.05123
  41        5PY         0.01859  -0.05457  -0.10965   0.01483   0.04550
  42        5PZ         0.00240  -0.00653  -0.00775   0.00097   0.01002
  43        6D 0       -0.00046   0.00106   0.00506   0.00111  -0.00075
  44        6D+1        0.00010  -0.00048  -0.00033  -0.00071   0.00036
  45        6D-1       -0.00017   0.00034  -0.00041   0.00001  -0.00096
  46        6D+2       -0.00069   0.00223   0.00531  -0.00219  -0.00114
  47        6D-2       -0.00064   0.00188  -0.00386  -0.00053  -0.00528
  48 5   C  1S         -0.00807   0.02052   0.01767  -0.01941  -0.01566
  49        2S          0.02027  -0.04301  -0.05849   0.04494   0.04844
  50        3S          0.01622  -0.03266   0.06920   0.08810   0.05406
  51        4PX         0.02002  -0.04945  -0.07803   0.04283   0.02481
  52        4PY         0.00046   0.00386   0.03118   0.03445  -0.02258
  53        4PZ         0.00054  -0.00002   0.00892   0.01464  -0.00282
  54        5PX         0.04020  -0.00751  -0.10196  -0.01271   0.02129
  55        5PY         0.00406  -0.00466  -0.03120   0.03136  -0.00516
  56        5PZ         0.00353   0.00347  -0.00478   0.00572  -0.00096
  57        6D 0       -0.00086   0.00043   0.00067  -0.00052   0.00260
  58        6D+1       -0.00023   0.00113   0.00040  -0.00327  -0.00055
  59        6D-1        0.00057  -0.00098   0.00101   0.00180  -0.00104
[...]
 0032320,-0.00187235,0.00704659,-0.00192994,-0.03016941,-0.01061150,-0.
 02603404,0.00031518,-0.00102164,0.00036134,-0.00060548,-0.00011524,0.0
 0011663,-0.00001094,-0.00004239,-0.00005795,-0.00005044,0.00000600,-0.
 00000403,0.00008980,-0.00001979,-0.00002142,-0.00014470,0.00000307,0.0
 0000770,-0.00002517,0.00000872,-0.00003242,-0.00007318,-0.00011803,0.0
 0041881,0.00851893,0.00470349,0.01158975,0.10767200,-0.04411758,-0.082
 17035,-0.08549259,-0.00995470,-0.00492503,-0.02354744,0.00024231,0.001
 58846,0.00017165,-0.00329486,-0.00250461,-0.00082336,0.00001622,-0.005
 69385,0.00112153,0.01250371,0.00742081,0.01011479,0.00028806,0.0002892
 7,-0.00042623,-0.00016307,-0.00007491,0.00010941,0.00004559,0.00007006
 ,-0.00000632,-0.00000174,-0.00000097,-0.00000555,-0.00001447,0.0000171
 1,0.00000472,-0.00013755,0.00007832,-0.00001041,-0.00000212,-0.0000003
 7,-0.00001110,-0.00145825,-0.00315372,0.00064087,0.00467599,0.00518041
 ,0.01138900,0.04069281,0.08444013,-0.09825731,-0.08324973,-0.25681936,
 0.00165225,0.00306660,0.00300033,0.00024395,-0.00012906,0.00148777,0.0
 0103346,0.00055011,-0.00036405,0.00175188,0.00141508,-0.00024023,-0.00
 080015,0.00126770,0.00828296,0.00008710,0.00004804,-0.00010604,-0.0000
 4275,0.00001304,0.00004034,0.00004108,0.00000094,-0.00000319,-0.000008
 60,0.00000479,-0.00000259,0.00003280,0.00000461,-0.00000499,-0.0000953
 7,0.00003559,0.00000087,-0.00000701,0.00000598,-0.00000629,-0.00026499
 ,-0.00065112,0.00033580,-0.01008666,-0.00967648,-0.01792278,0.10450030
 ,0.08730112,0.26192852,0.00007204,0.00000811,0.00001579,-0.00003569,0.
 00000225,0.00016088,-0.00001765,0.00000692,-0.00001100,-0.00042304,0.0
 0004950,-0.00021630,0.00020938,0.00085410,-0.00043600,-0.00018895,-0.0
 0001927,-0.00006480,-0.00054211,-0.00691520,0.00307091,0.00060837,0.00
 077115,-0.00106144,0.00196451,0.00093151,0.00169787,0.00059396,-0.0000
 7819,-0.00014095,-0.09409828,0.04783224,0.09050390,-0.03361199,0.01045
 590,0.02295940,0.00094310,-0.00115884,0.00016322,-0.00006205,-0.000026
 96,-0.00004091,-0.00002297,0.00000134,0.00000624,-0.00002943,-0.000008
 44,-0.00000972,0.11619947,0.00001059,0.00000346,0.00001601,-0.00003635
 ,0.00005101,0.00001820,0.00001743,-0.00000289,0.00000533,0.00015261,-0
 .00007108,0.00001205,-0.00012501,0.00015177,-0.00051074,0.00006250,0.0
 0006887,0.00001183,-0.00004701,-0.00472957,0.00229623,0.00282928,-0.00
 085069,0.00015868,0.00918583,-0.00933162,-0.02386261,0.00139970,-0.004
 60948,0.00055519,0.05198033,-0.09093395,-0.08833909,-0.01264113,0.0086
 2802,0.00870000,0.00049899,0.00233356,-0.00174701,-0.00000457,-0.00000
 253,-0.00000087,-0.00000134,0.00000414,0.00000017,0.00000477,0.0000071
 3,0.00000005,-0.04828935,0.09410154,-0.00004016,0.00000755,-0.00000240
 ,-0.00004214,-0.00000249,0.00004469,0.00002244,0.00000203,0.00000638,0
 .00008102,-0.00001062,0.00000152,-0.00012088,-0.00001218,-0.00025309,0
 .00010681,0.00004607,0.00002037,-0.00166394,0.00085376,-0.00093124,-0.
 00006786,0.00026996,-0.00061737,-0.00301995,0.00096239,0.00263032,0.00
 029477,0.00036359,0.00091949,0.09807726,-0.08651820,-0.23404107,0.0007
 4053,0.00286810,0.01003451,0.00045364,0.00131050,0.00154277,-0.0000020
 9,0.00000480,-0.00000103,0.00000624,-0.00000017,-0.00000446,0.00001053
 ,0.00000014,0.00000660,-0.10588679,0.09189126,0.23797333,0.00008980,0.
 00001979,-0.00002143,-0.00001094,0.00004239,-0.00005795,-0.00005045,-0
 .00000600,-0.00000403,-0.00060545,0.00011524,0.00011664,0.00031515,0.0
 0102159,0.00036140,-0.00014470,-0.00000307,0.00000770,-0.00187210,-0.0
 0704672,-0.00193017,0.00015629,0.00081998,0.00032331,0.00308558,0.0010
 8937,-0.00027197,0.00066090,-0.00032165,0.00023916,-0.08740902,0.03904
 635,-0.08872355,-0.03017012,0.01061217,-0.02603490,-0.00007312,0.00011
 790,0.00041885,-0.00002517,-0.00000872,-0.00003242,-0.00002943,-0.0000
 0477,0.00001053,-0.00002255,-0.00000273,-0.00000384,0.00851865,-0.0047
 0379,0.01159001,0.10766735,0.00001446,0.00001711,-0.00000471,-0.000045
 59,0.00007006,0.00000632,0.00000174,-0.00000097,0.00000555,0.00016308,
 -0.00007491,-0.00010941,-0.00028806,0.00028923,0.00042625,0.00013755,0
 .00007832,0.00001041,-0.00001624,-0.00569357,-0.00112180,0.00329470,-0
 .00250452,0.00082328,0.00995392,-0.00492552,0.02354752,-0.00024232,0.0
 0158848,-0.00017161,0.04411791,-0.08217580,0.08549739,-0.01250330,0.00
 742124,-0.01011461,0.00145828,-0.00315392,-0.00064097,0.00000212,-0.00
 000037,0.00001110,0.00000844,0.00000713,-0.00000014,0.00000273,0.00000
 397,-0.00000035,-0.00467551,0.00518053,-0.01138881,-0.04069313,0.08444
 540,0.00003280,-0.00000461,-0.00000499,0.00004108,-0.00000094,-0.00000
 319,-0.00000860,-0.00000479,-0.00000259,-0.00004276,-0.00001304,0.0000
 4034,0.00008710,-0.00004801,-0.00010605,-0.00009537,-0.00003559,0.0000
 0087,0.00175180,-0.00141532,-0.00024039,0.00103345,-0.00055011,-0.0003
 6414,0.00165252,-0.00306668,0.00300086,0.00024392,0.00012911,0.0014877
 8,-0.09825073,0.08325462,-0.25681513,-0.00080138,-0.00126758,0.0082824
 3,-0.00026496,0.00065107,0.00033587,-0.00000702,-0.00000598,-0.0000062
 9,-0.00000972,-0.00000005,0.00000660,-0.00000384,0.00000035,-0.0000045
 2,-0.01008587,0.00967669,-0.01792332,0.10449401,-0.08730602,0.26192500
 ,-0.00002993,-0.00000316,0.00000323,-0.00004282,-0.00001194,0.00001318
 ,0.00001565,0.00000642,0.00000284,0.00009230,0.00000826,-0.00003375,-0
 .00018741,-0.00007143,-0.00000259,0.00009544,0.00004302,0.00000267,0.0
 0024560,-0.00131136,-0.00004051,0.00229070,0.00141064,-0.00052907,0.00
 294282,0.00682250,0.01681765,-0.00127855,-0.00167976,0.00297931,0.0005
 6390,0.00072889,-0.00049353,-0.00066274,0.00049867,0.00022786,-0.06504
 745,-0.02820251,-0.06573034,0.00000947,0.00001224,0.00000962,0.0000086
 6,0.00000244,-0.00000617,0.00000444,-0.00000047,0.00000367,0.00005975,
 0.00011854,-0.00038821,-0.00002016,0.00011181,0.00000042,0.06545313,-0
 .00001468,0.00000302,-0.00000930,0.00000208,0.00000366,-0.00000710,0.0
 0001600,-0.00000129,0.00000454,0.00003602,-0.00003064,0.00002524,-0.00
 005083,0.00003102,0.00008489,0.00002394,-0.00003504,-0.00000769,-0.000
 20767,0.00031825,-0.00024770,0.00135181,0.00032964,-0.00046640,0.00377
 800,0.00458926,0.01457394,-0.00188674,-0.00033196,0.00259480,-0.000016
 90,0.00153462,0.00118131,0.00071871,-0.00005613,0.00000643,-0.02813918
 ,-0.08923907,-0.09643822,0.00000477,-0.00000114,0.00000524,0.00000250,
 -0.00000177,0.00000239,0.00000280,0.00000345,-0.00000011,0.00028673,-0
 .00016812,-0.00053322,0.00002991,0.00005387,-0.00017452,0.03167532,0.0
 9015085,0.00000057,0.00000331,0.00000112,-0.00001781,0.00000222,-0.000
 00712,0.00001744,-0.00000042,0.00000640,0.00007843,-0.00002966,0.00005
 308,-0.00015390,0.00004986,-0.00028819,0.00005992,0.00001338,0.0000186
 8,0.00069017,-0.00000974,0.00033421,-0.00161996,0.00014023,0.00241914,
 -0.00639380,-0.00983018,-0.02269355,0.00311824,0.00269298,-0.00263494,
 0.00028631,-0.00167001,0.00076078,-0.00026059,0.00034434,-0.00010195,-
 0.06390937,-0.09482530,-0.26120832,0.00000498,0.00000361,0.00000133,0.
 00000090,-0.00000142,0.00000122,0.00000805,0.00000242,0.00000211,-0.00
 030376,0.00100320,0.00037668,-0.00023720,-0.00007874,0.00040260,0.0668
 8694,0.10041658,0.28267747,-0.00001968,0.00000828,-0.00000382,-0.00006
 261,0.00001250,0.00001171,0.00001095,0.00000147,0.00000262,0.00010901,
 0.00003680,-0.00005214,-0.00016434,-0.00013912,0.00007314,0.00013759,0
 .00011822,0.00002124,0.00054883,-0.00124067,0.00013007,0.00187533,0.00
 048774,-0.00088107,0.00248995,-0.01838051,-0.00012343,0.00051021,0.000
 39138,-0.00031471,-0.00086404,-0.00046350,0.00295291,-0.00150980,-0.00
 002253,-0.00025613,-0.05681827,0.05957709,-0.00015781,0.00000892,0.000
 00414,0.00000865,0.00001122,0.00000393,-0.00000555,0.00000677,0.000003
 86,0.00000487,-0.00023815,0.00003594,0.00002165,-0.00009003,-0.0006107
 8,0.00015973,0.00067089,-0.00905539,0.00073767,0.05693065,0.00002316,-
 0.00000635,0.00000180,-0.00000732,-0.00000338,0.00000582,-0.00001403,0
 .00000083,-0.00000513,-0.00005940,0.00007351,-0.00002568,0.00003645,-0
 .00009797,0.00002471,-0.00002099,0.00008532,0.00001069,0.00040282,-0.0
 0085768,0.00001778,0.00100337,0.00146692,-0.00115250,0.00299498,-0.014
 63694,-0.00079950,0.00003516,0.00070535,0.00012933,-0.00016516,0.00057
 638,0.00232508,-0.00115662,0.00043354,0.00017693,0.05682361,-0.3158835
 0,-0.00512155,-0.00000476,-0.00000338,-0.00000389,-0.00000271,0.000000
 96,-0.00000102,-0.00000403,-0.00000044,0.00000026,-0.00029030,0.000420
 97,0.00018845,-0.00014214,-0.00064597,0.00015405,0.00220561,-0.0078798
 3,0.00221577,-0.06031183,0.33678980,-0.00001504,-0.00000057,0.00000329
 ,0.00000658,-0.00000012,0.00000142,-0.00000586,-0.00000290,-0.00000276
 ,0.00002369,-0.00001209,-0.00000752,0.00004338,-0.00000242,-0.00009671
 ,0.00000943,-0.00002339,0.00000869,-0.00084591,0.00078248,-0.00024959,
 -0.00121864,-0.00144289,0.00097891,-0.00510344,0.02627623,-0.00103798,
 -0.00078003,0.00018730,0.00056560,0.00287734,0.00009457,-0.00278468,0.
 00147255,0.00098864,0.00008379,0.00046416,-0.00793050,-0.04635573,-0.0
 0000018,0.00000178,0.00000070,0.00000171,0.00000206,-0.00000157,0.0000
 0342,-0.00000174,0.00000043,0.00003219,0.00010821,0.00009095,-0.000255
 32,0.00055797,0.00002985,0.00660766,-0.02614510,0.00174110,-0.00285562
 ,0.00207363,0.04854125,0.00007619,-0.00001763,0.00001223,0.00011289,0.
 00001328,-0.00004413,-0.00006245,-0.00001220,-0.00001589,-0.00031064,0
 .00002837,0.00009164,0.00055987,0.00002811,-0.00015814,-0.00031836,-0.
 00007487,-0.00003604,-0.00101879,0.00242806,0.00013466,-0.00191445,-0.
 00324695,0.00373275,-0.01332995,0.00388173,-0.00576257,0.00055289,0.00
 021003,0.00017028,-0.00032432,0.00033501,0.00033584,0.00134096,-0.0012
 1441,-0.00014378,-0.31211331,0.03601783,-0.03994337,-0.00002711,-0.000
 02467,-0.00002584,-0.00002519,-0.00000300,0.00000870,-0.00001965,-0.00
 000532,-0.00000892,0.00010640,-0.00044461,-0.00016986,0.00003797,-0.00
 019374,0.00007379,-0.00518881,0.00144392,0.00101015,-0.00354221,-0.001
 34319,-0.00046606,0.33541280,0.00000789,-0.00001726,0.00002102,0.00003
 338,0.00000846,-0.00002553,-0.00002990,-0.00000832,-0.00000836,-0.0001
 0209,0.00004566,0.00005509,0.00025247,-0.00020851,-0.00037561,-0.00015
 084,0.00001332,0.00000388,-0.00119217,0.00151776,-0.00028131,-0.001149
 33,-0.00121325,0.00299760,-0.01519511,0.00076807,-0.00334197,0.0005934
 3,0.00034560,-0.00040674,-0.00072471,0.00055485,-0.00024749,0.00131105
 ,-0.00014907,0.00019296,0.03675482,-0.05102672,0.00495395,-0.00001047,
 -0.00001202,-0.00001008,-0.00001288,0.00000190,-0.00000079,-0.00000706
 ,-0.00000101,-0.00000144,0.00024923,-0.00025216,-0.00030233,0.00000971
 ,0.00001821,0.00002608,-0.01236088,0.00072888,-0.00044106,0.02953967,-
 0.00054283,0.00448960,-0.03781269,0.04942201,-0.00002600,0.00003520,-0
 .00002738,-0.00005091,0.00000397,0.00002024,0.00004490,0.00000354,0.00
 001189,0.00018349,-0.00010148,-0.00004784,-0.00041118,0.00035164,0.000
 35458,0.00028616,-0.00000309,0.00000526,0.00184884,-0.00092761,0.00041
 561,0.00277510,0.00351524,-0.00360624,0.02373173,-0.00542731,0.0045507
 1,-0.00044229,-0.00078794,0.00101258,0.00020777,-0.00024512,0.00036439
 ,-0.00078540,0.00031518,-0.00033214,-0.04242268,0.00558594,-0.05332778
 ,0.00001718,0.00001026,0.00001643,0.00002165,-0.00000220,0.00000115,0.
 00001714,0.00000404,0.00000240,-0.00037716,0.00000566,0.00012558,-0.00
 001742,0.00005610,-0.00004656,-0.02632232,0.00513594,-0.00186351,0.000
 53024,-0.00021800,-0.00150832,0.04118865,-0.00730424,0.05388740,0.0005
 6384,-0.00072892,-0.00049356,0.00294259,-0.00682291,0.01681802,-0.0012
 7860,0.00167978,0.00297940,0.00229076,-0.00141067,-0.00052915,0.000245
 59,0.00131139,-0.00004046,-0.00066274,-0.00049869,0.00022783,-0.000187
 39,0.00007144,-0.00000259,0.00009229,-0.00000826,-0.00003375,-0.000042
 82,0.00001194,0.00001318,0.00001565,-0.00000642,0.00000284,-0.00002992
 ,0.00000316,0.00000323,0.00009543,-0.00004302,0.00000267,0.00000947,-0
 .00001224,0.00000962,-0.06504374,0.02819920,-0.06572088,0.00005976,-0.
 00011851,-0.00038820,-0.00002015,-0.00011180,0.00000041,0.00000866,-0.
 00000244,-0.00000617,0.00000444,0.00000047,0.00000367,-0.00000183,-0.0
 0000177,-0.00000421,-0.00000387,0.00000120,0.00000141,0.00001084,0.000
 00343,-0.00000579,0.06544958,0.00001694,0.00153463,-0.00118137,-0.0037
 7768,0.00458936,-0.01457359,0.00188672,-0.00033184,-0.00259477,-0.0013
 5180,0.00032968,0.00046636,0.00020764,0.00031818,0.00024770,-0.0007187
 1,-0.00005609,-0.00000642,0.00005083,0.00003102,-0.00008489,-0.0000360
 2,-0.00003064,-0.00002524,-0.00000208,0.00000366,0.00000710,-0.0000160
 0,-0.00000129,-0.00000454,0.00001468,0.00000302,0.00000930,-0.00002394
 ,-0.00003504,0.00000769,-0.00000477,-0.00000114,-0.00000524,0.02813583
 ,-0.08924011,0.09643595,-0.00028670,-0.00016808,0.00053324,-0.00002990
 ,0.00005386,0.00017450,-0.00000250,-0.00000177,-0.00000239,-0.00000280
 ,0.00000345,0.00000011,0.00000177,-0.00000126,-0.00000301,0.00000148,-
 0.00000041,0.00000355,-0.00000212,0.00000013,0.00000139,-0.03167182,0.
 09015220,0.00028635,0.00167003,0.00076077,-0.00639331,0.00983042,-0.02
 269353,0.00311831,-0.00269297,-0.00263494,-0.00161991,-0.00014032,0.00
 241913,0.00069019,0.00000979,0.00033422,-0.00026066,-0.00034434,-0.000
 10193,-0.00015393,-0.00004984,-0.00028820,0.00007845,0.00002966,0.0000
 5308,-0.00001781,-0.00000222,-0.00000712,0.00001744,0.00000042,0.00000
 640,0.00000056,-0.00000331,0.00000112,0.00005994,-0.00001339,0.0000186
 8,0.00000498,-0.00000361,0.00000134,-0.06389997,0.09482313,-0.26120189
 ,-0.00030376,-0.00100326,0.00037664,-0.00023719,0.00007873,0.00040260,
 0.00000091,0.00000142,0.00000122,0.00000805,-0.00000242,0.00000212,-0.
 00000421,0.00000301,0.00000306,-0.00000283,-0.00000185,-0.00000238,0.0
 0000364,0.00000020,0.00000098,0.06687737,-0.10041512,0.28267169,-0.000
 86415,0.00046346,0.00295291,0.00249023,0.01838110,-0.00012322,0.000510
 22,-0.00039136,-0.00031472,0.00187539,-0.00048783,-0.00088110,0.000548
 87,0.00124067,0.00013013,-0.00150986,0.00002264,-0.00025613,-0.0001643
 3,0.00013911,0.00007315,0.00010900,-0.00003680,-0.00005214,-0.00006261
 ,-0.00001250,0.00001171,0.00001095,-0.00000147,0.00000262,-0.00001968,
 -0.00000828,-0.00000382,0.00013758,-0.00011823,0.00002123,0.00000892,-
 0.00000414,0.00000865,-0.05681831,-0.05957739,-0.00015877,-0.00023817,
 -0.00003596,0.00002165,-0.00009002,0.00061077,0.00015974,0.00001122,-0
 .00000393,-0.00000555,0.00000677,-0.00000386,0.00000487,-0.00000387,-0
 .00000148,-0.00000283,-0.00000989,-0.00000200,0.00000242,0.00001255,0.
 00000018,-0.00000380,0.00067075,0.00905471,0.00073766,0.05693088,0.000
 16525,0.00057652,-0.00232497,-0.00299510,-0.01463642,0.00079942,-0.000
 03514,0.00070537,-0.00012934,-0.00100329,0.00146688,0.00115244,-0.0004
 0283,-0.00085768,-0.00001782,0.00115660,0.00043349,-0.00017690,-0.0000
 3646,-0.00009797,-0.00002470,0.00005941,0.00007351,0.00002568,0.000007
 31,-0.00000338,-0.00000582,0.00001403,0.00000082,0.00000513,-0.0000231
 7,-0.00000635,-0.00000180,0.00002099,0.00008532,-0.00001068,0.00000476
 ,-0.00000338,0.00000389,-0.05682395,-0.31588411,0.00511396,0.00029029,
 0.00042098,-0.00018843,0.00014212,-0.00064594,-0.00015406,0.00000271,0
 .00000096,0.00000102,0.00000404,-0.00000044,-0.00000026,-0.00000120,-0
 .00000041,0.00000185,0.00000200,0.00000338,-0.00000245,0.00000190,0.00
 000170,-0.00000239,-0.00220569,-0.00788043,-0.00221572,0.06031229,0.33
 679035,0.00287741,-0.00009445,-0.00278453,-0.00510375,-0.02627595,-0.0
 0103842,-0.00078002,-0.00018732,0.00056561,-0.00121857,0.00144291,0.00
 097891,-0.00084592,-0.00078245,-0.00024963,0.00147253,-0.00098871,0.00
 008380,0.00004336,0.00000242,-0.00009671,0.00002370,0.00001210,-0.0000
 0752,0.00000657,0.00000012,0.00000142,-0.00000586,0.00000290,-0.000002
 76,-0.00001505,0.00000057,0.00000329,0.00000944,0.00002339,0.00000870,
 -0.00000018,-0.00000178,0.00000070,0.00046326,0.00792293,-0.04635533,0
 .00003219,-0.00010822,0.00009096,-0.00025534,-0.00055790,0.00002985,0.
 00000171,-0.00000206,-0.00000157,0.00000342,0.00000174,0.00000043,0.00
 000141,-0.00000355,-0.00000238,0.00000242,0.00000245,0.00000340,0.0000
 0015,0.00000184,-0.00000215,0.00660764,0.02614532,0.00174138,-0.002854
 38,-0.00206612,0.04854091,-0.00032429,-0.00033498,0.00033581,-0.013329
 82,-0.00388179,-0.00576319,0.00055288,-0.00021004,0.00017029,-0.001914
 37,0.00324692,0.00373275,-0.00101882,-0.00242803,0.00013455,0.00134093
 ,0.00121439,-0.00014369,0.00055986,-0.00002810,-0.00015813,-0.00031064
 ,-0.00002837,0.00009164,0.00011289,-0.00001327,-0.00004413,-0.00006244
 ,0.00001220,-0.00001589,0.00007619,0.00001763,0.00001224,-0.00031836,0
 .00007487,-0.00003603,-0.00002711,0.00002467,-0.00002584,-0.31211285,-
 0.03601533,-0.03994578,0.00010639,0.00044459,-0.00016984,0.00003796,0.
 00019375,0.00007380,-0.00002520,0.00000301,0.00000870,-0.00001965,0.00
 000532,-0.00000892,0.00001084,0.00000212,0.00000364,0.00001255,-0.0000
 0190,0.00000015,-0.00002812,-0.00000714,0.00001210,-0.00518860,-0.0014
 4376,0.00100973,-0.00354247,0.00134312,-0.00046618,0.33541224,0.000724
 64,0.00055481,0.00024749,0.01519486,0.00076792,0.00334250,-0.00059341,
 0.00034557,0.00040671,0.00114937,-0.00121321,-0.00299760,0.00119214,0.
 00151777,0.00028136,-0.00131104,-0.00014907,-0.00019296,-0.00025245,-0
 .00020852,0.00037558,0.00010209,0.00004565,-0.00005509,-0.00003338,0.0
 0000846,0.00002553,0.00002990,-0.00000832,0.00000836,-0.00000789,-0.00
 001726,-0.00002102,0.00015084,0.00001332,-0.00000388,0.00001047,-0.000
 01202,0.00001008,-0.03675226,-0.05102594,-0.00495466,-0.00024920,-0.00
 025216,0.00030231,-0.00000970,0.00001821,-0.00002609,0.00001288,0.0000
 0190,0.00000079,0.00000706,-0.00000101,0.00000144,-0.00000343,0.000000
 13,-0.00000020,-0.00000018,0.00000170,-0.00000184,0.00000714,0.0000046
 1,-0.00000473,0.01236116,0.00072890,0.00044155,-0.02953972,-0.00054281
 ,-0.00449018,0.03781012,0.04942137,0.00020775,0.00024508,0.00036443,0.
 02373144,0.00542730,0.00455134,-0.00044229,0.00078791,0.00101260,0.002
 77504,-0.00351517,-0.00360614,0.00184879,0.00092757,0.00041567,-0.0007
 8535,-0.00031512,-0.00033217,-0.00041116,-0.00035165,0.00035455,0.0001
 8348,0.00010148,-0.00004783,-0.00005090,-0.00000397,0.00002024,0.00004
 490,-0.00000354,0.00001189,-0.00002600,-0.00003520,-0.00002738,0.00028
 615,0.00000309,0.00000526,0.00001718,-0.00001026,0.00001643,-0.0424251
 7,-0.00558659,-0.05332861,-0.00037714,-0.00000566,0.00012557,-0.000017
 42,-0.00005611,-0.00004656,0.00002165,0.00000220,0.00000115,0.00001713
 ,-0.00000404,0.00000240,-0.00000579,-0.00000139,0.00000098,-0.00000380
 ,0.00000239,-0.00000215,0.00001210,0.00000473,-0.00000731,-0.02632254,
 -0.00513563,-0.00186444,0.00052974,0.00021808,-0.00150836,0.04119222,0
 .00730453,0.05388844\\0.00216212,-0.00379108,-0.00105294,0.01396376,-0
 .01121093,0.00220534,-0.00276385,-0.00195348,-0.00198485,-0.00774230,0
 .00360488,0.00080576,-0.00053898,0.03052536,0.00240744,-0.01442684,-0.
 01659652,-0.00312608,0.00053839,0.03053121,-0.00240856,0.00774032,0.00
 360114,-0.00080340,-0.01396441,-0.01120987,-0.00221219,0.00276491,-0.0
 0195230,0.00198602,-0.00215592,-0.00379665,0.00104969,0.01442652,-0.01
 659797,0.00312602,0.00042148,-0.00049928,0.00289343,-0.00042253,-0.000
 49870,-0.00288382,-0.00100994,-0.00053851,0.00028935,-0.00072396,-0.00
 087017,-0.00011085,0.00100670,-0.00053560,-0.00028513,0.00072378,-0.00
 086893,0.00011042,-0.00038793,0.00099929,0.00022880,0.00102570,-0.0003
 1668,-0.00290250,0.00095818,0.00064582,-0.00076106,0.00038792,0.001000
 08,-0.00023160,-0.00102523,-0.00031652,0.00290142,-0.00095787,0.000645
 42,0.00075930\\\@

 Writing a WFNX file to "01_sub.wfx"


 HICKORY, DICKORY, DOCK
 TWO MICE RAN UP THE CLOCK
 THE CLOCK STRUCK ONE...
 THE OTHER ESCAPED WITH MINOR INJURIES.
 Job cpu time:       0 days  0 hours 24 minutes 46.1 seconds.
 Elapsed time:       0 days  0 hours  3 minutes  6.3 seconds.
 File lengths (MBytes):  RWF=    148 Int=      0 D2E=      0 Chk=      5 Scr=      1
 Normal termination of Gaussian 16 at Sun Jan 15 17:43:25 2023.
