 Entering Gaussian System, Link 0=g16
 Initial command:
 /software/gaussian/G16-A.03/avx/g16/l1.exe "/scratch/lcmd/1393736.slurm/Gau-53513.inp" -scrdir="/scratch/lcmd/1393736.slurm/"
 Entering Link 1 = /software/gaussian/G16-A.03/avx/g16/l1.exe PID=     53514.
  
 Copyright (c) 1988,1990,1992,1993,1995,1998,2003,2009,2016,
            Gaussian, Inc.  All Rights Reserved.
  
 This is part of the Gaussian(R) 16 program.  It is based on
 the Gaussian(R) 09 system (copyright 2009, Gaussian, Inc.),
 the Gaussian(R) 03 system (copyright 2003, Gaussian, Inc.),
 the Gaussian(R) 98 system (copyright 1998, Gaussian, Inc.),
 the Gaussian(R) 94 system (copyright 1995, Gaussian, Inc.),
 the Gaussian 92(TM) system (copyright 1992, Gaussian, Inc.),
 the Gaussian 90(TM) system (copyright 1990, Gaussian, Inc.),
 the Gaussian 88(TM) system (copyright 1988, Gaussian, Inc.),
 the Gaussian 86(TM) system (copyright 1986, Carnegie Mellon
 University), and the Gaussian 82(TM) system (copyright 1983,
 Carnegie Mellon University). Gaussian is a federally registered
 trademark of Gaussian, Inc.
  
 This software contains proprietary and confidential information,
 including trade secrets, belonging to Gaussian, Inc.
  
 This software is provided under written license and may be
 used, copied, transmitted, or stored only in accord with that
 written license.
  
 The following legend is applicable only to US Government
 contracts under FAR:
  
                    RESTRICTED RIGHTS LEGEND
  
 Use, reproduction and disclosure by the US Government is
 subject to restrictions as set forth in subparagraphs (a)
 and (c) of the Commercial Computer Software - Restricted
 Rights clause in FAR 52.227-19.
  
 Gaussian, Inc.
 340 Quinnipiac St., Bldg. 40, Wallingford CT 06492
  
  
 ---------------------------------------------------------------
 Warning -- This program may not be used in any manner that
 competes with the business of Gaussian, Inc. or will provide
 assistance to any competitor of Gaussian, Inc.  The licensee
 of this program is prohibited from giving any competitor of
 Gaussian, Inc. access to this program.  By using this program,
 the user acknowledges that Gaussian, Inc. is engaged in the
 business of creating and licensing software in the field of
 computational chemistry and represents and warrants to the
 licensee that it is not a competitor of Gaussian, Inc. and that
 it will not use this program in any manner prohibited above.
 ---------------------------------------------------------------
  

 Cite this work as:
 Gaussian 16, Revision A.03,
 M. J. Frisch, G. W. Trucks, H. B. Schlegel, G. E. Scuseria, 
 M. A. Robb, J. R. Cheeseman, G. Scalmani, V. Barone, 
 G. A. Petersson, H. Nakatsuji, X. Li, M. Caricato, A. V. Marenich, 
 J. Bloino, B. G. Janesko, R. Gomperts, B. Mennucci, H. P. Hratchian, 
 J. V. Ortiz, A. F. Izmaylov, J. L. Sonnenberg, D. Williams-Young, 
 F. Ding, F. Lipparini, F. Egidi, J. Goings, B. Peng, A. Petrone, 
 T. Henderson, D. Ranasinghe, V. G. Zakrzewski, J. Gao, N. Rega, 
 G. Zheng, W. Liang, M. Hada, M. Ehara, K. Toyota, R. Fukuda, 
 J. Hasegawa, M. Ishida, T. Nakajima, Y. Honda, O. Kitao, H. Nakai, 
 T. Vreven, K. Throssell, J. A. Montgomery, Jr., J. E. Peralta, 
 F. Ogliaro, M. J. Bearpark, J. J. Heyd, E. N. Brothers, K. N. Kudin, 
 V. N. Staroverov, T. A. Keith, R. Kobayashi, J. Normand, 
 K. Raghavachari, A. P. Rendell, J. C. Burant, S. S. Iyengar, 
 J. Tomasi, M. Cossi, J. M. Millam, M. Klene, C. Adamo, R. Cammi, 
 J. W. Ochterski, R. L. Martin, K. Morokuma, O. Farkas, 
 J. B. Foresman, and D. J. Fox, Gaussian, Inc., Wallingford CT, 2016.
 
 ******************************************
 Gaussian 16:  ES64L-G16RevA.03 25-Dec-2016
                23-Jan-2023 
 ******************************************
 %nprocs=8
 Will use up to    8 processors via shared memory.
 %mem=32000MB
 %chk=02_sub.chk
 ----------------------------------------------------------------------
 #p pop=(regular,nbo,savenbos) freq=noraman def2svp empiricaldispersion
 =gd3bj output=wfx pbe1pbe
 ----------------------------------------------------------------------
 1/10=4,30=1,38=1/1,3;
 2/12=2,17=6,18=5,40=1/2;
 3/5=43,7=101,11=2,25=1,30=1,71=2,74=-13,124=41,140=1/1,2,3;
 4//1;
 5/5=2,38=5,98=1/2;
 8/6=4,10=90,11=11/1;
 11/6=1,8=1,9=11,15=111,16=1/1,2,10;
 10/6=1/2;
 6/28=1,40=1,73=1/1,7;
 7/8=1,10=1,25=1/1,2,3,16;
 1/10=4,30=1/3;
 99/6=200/99;
 Leave Link    1 at Mon Jan 23 08:46:57 2023, MaxMem=  4194304000 cpu:               1.7 elap:               0.4
 (Enter /software/gaussian/G16-A.03/avx/g16/l101.exe)
 ------
 02_sub
 ------
 Symbolic Z-matrix:
 Charge =  0 Multiplicity = 1
 C                    -2.86074   2.50042  -0.68495 
 C                    -2.78612   1.04256  -0.1633 
 H                    -2.99704   0.30231  -0.9514 
 N                    -1.37514   0.90501   0.16411 
 C                    -0.78429   1.99108  -0.14539 
 O                    -1.48856   2.98233  -0.64991 
 C                     0.67394   2.01437   0.05826 
 N                     1.21513   0.90242   0.36796 
 C                     2.63803   1.12956   0.57642 
 H                     2.84841   0.90268   1.63507 
 C                     2.77748   2.64117   0.25742 
 O                     1.42502   3.09178  -0.02831 
 C                     3.47912   0.20145  -0.28519 
 C                     4.96918   0.31777  -0.00606 
 C                     5.80784  -0.6267   -0.85444 
 C                     7.30009  -0.53874  -0.57205 
 C                     8.13998  -1.48466  -1.41924 
 C                     9.62957  -1.39353  -1.13036 
 C                    -3.66145   0.73238   1.04226 
 C                    -5.15231   0.68806   0.73085 
 C                    -5.54423  -0.36984  -0.29431 
 C                    -7.04826  -0.56099  -0.42005 
 C                    -7.44641  -1.59628  -1.46275 
 C                    -8.94924  -1.79452  -1.57519 
 H                    -3.45704   3.15739  -0.03425 
 H                    -3.21717   2.59416  -1.71903 
 H                     3.15838   3.24693   1.0898 
 H                     3.38449   2.8339   -0.63972 
 H                     3.13058  -0.82159  -0.07033 
 H                     3.26643   0.40802  -1.34959 
 H                     5.15073   0.10723   1.06305 
 H                     5.3146    1.35573  -0.17351 
 H                     5.62371  -0.41837  -1.92411 
 H                     5.46105  -1.6618   -0.6879 
 H                     7.48175  -0.74866   0.49785 
 H                     7.64434   0.49957  -0.73435 
 H                     7.95473  -1.27424  -2.48764 
 H                     7.7921   -2.51983  -1.25569 
 H                     10.01238  -0.37745  -1.31915 
 H                     10.20874  -2.0883   -1.75719 
 H                     9.84761  -1.63546  -0.07765 
 H                    -3.32721  -0.24887   1.41563 
 H                    -3.45284   1.47616   1.83081 
 H                    -5.51112   1.68045   0.39732 
 H                    -5.6878    0.48834   1.67414 
 H                    -5.06296  -1.32742  -0.02841 
 H                    -5.13804  -0.10606  -1.28771 
 H                    -7.52458   0.40689  -0.6643 
 H                    -7.46086  -0.85521   0.56232 
 H                    -6.96055  -2.55717  -1.21871 
 H                    -7.03624  -1.29771  -2.444 
 H                    -9.38022  -2.13065  -0.61833 
 H                    -9.20426  -2.54741  -2.33624 
 H                    -9.45752  -0.85648  -1.85178 
 
 ITRead=  0  0  0  0  0  0  0  0  0  0  0  0  0  0  0  0  0  0  0  0
 ITRead=  0  0  0  0  0  0  0  0  0  0  0  0  0  0  0  0  0  0  0  0
 ITRead=  0  0  0  0  0  0  0  0  0  0  0  0  0  0
 MicOpt= -1 -1 -1 -1 -1 -1 -1 -1 -1 -1 -1 -1 -1 -1 -1 -1 -1 -1 -1 -1
 MicOpt= -1 -1 -1 -1 -1 -1 -1 -1 -1 -1 -1 -1 -1 -1 -1 -1 -1 -1 -1 -1
 MicOpt= -1 -1 -1 -1 -1 -1 -1 -1 -1 -1 -1 -1 -1 -1
 NAtoms=     54 NQM=       54 NQMF=       0 NMMI=      0 NMMIF=      0
                NMic=       0 NMicF=      0.
                    Isotopes and Nuclear Properties:
 (Nuclear quadrupole moments (NQMom) in fm**2, nuclear magnetic moments (NMagM)
  in nuclear magnetons)

  Atom         1           2           3           4           5           6           7           8           9          10
 IAtWgt=          12          12           1          14          12          16          12          14          12           1
 AtmWgt=  12.0000000  12.0000000   1.0078250  14.0030740  12.0000000  15.9949146  12.0000000  14.0030740  12.0000000   1.0078250
 NucSpn=           0           0           1           2           0           0           0           2           0           1
 AtZEff=  -0.0000000  -0.0000000  -0.0000000  -0.0000000  -0.0000000  -0.0000000  -0.0000000  -0.0000000  -0.0000000  -0.0000000
 NQMom=    0.0000000   0.0000000   0.0000000   2.0440000   0.0000000   0.0000000   0.0000000   2.0440000   0.0000000   0.0000000
 NMagM=    0.0000000   0.0000000   2.7928460   0.4037610   0.0000000   0.0000000   0.0000000   0.4037610   0.0000000   2.7928460
 AtZNuc=   6.0000000   6.0000000   1.0000000   7.0000000   6.0000000   8.0000000   6.0000000   7.0000000   6.0000000   1.0000000

  Atom        11          12          13          14          15          16          17          18          19          20
 IAtWgt=          12          16          12          12          12          12          12          12          12          12
 AtmWgt=  12.0000000  15.9949146  12.0000000  12.0000000  12.0000000  12.0000000  12.0000000  12.0000000  12.0000000  12.0000000
 NucSpn=           0           0           0           0           0           0           0           0           0           0
 AtZEff=  -0.0000000  -0.0000000  -0.0000000  -0.0000000  -0.0000000  -0.0000000  -0.0000000  -0.0000000  -0.0000000  -0.0000000
 NQMom=    0.0000000   0.0000000   0.0000000   0.0000000   0.0000000   0.0000000   0.0000000   0.0000000   0.0000000   0.0000000
 NMagM=    0.0000000   0.0000000   0.0000000   0.0000000   0.0000000   0.0000000   0.0000000   0.0000000   0.0000000   0.0000000
 AtZNuc=   6.0000000   8.0000000   6.0000000   6.0000000   6.0000000   6.0000000   6.0000000   6.0000000   6.0000000   6.0000000

  Atom        21          22          23          24          25          26          27          28          29          30
 IAtWgt=          12          12          12          12           1           1           1           1           1           1
 AtmWgt=  12.0000000  12.0000000  12.0000000  12.0000000   1.0078250   1.0078250   1.0078250   1.0078250   1.0078250   1.0078250
 NucSpn=           0           0           0           0           1           1           1           1           1           1
 AtZEff=  -0.0000000  -0.0000000  -0.0000000  -0.0000000  -0.0000000  -0.0000000  -0.0000000  -0.0000000  -0.0000000  -0.0000000
 NQMom=    0.0000000   0.0000000   0.0000000   0.0000000   0.0000000   0.0000000   0.0000000   0.0000000   0.0000000   0.0000000
 NMagM=    0.0000000   0.0000000   0.0000000   0.0000000   2.7928460   2.7928460   2.7928460   2.7928460   2.7928460   2.7928460
 AtZNuc=   6.0000000   6.0000000   6.0000000   6.0000000   1.0000000   1.0000000   1.0000000   1.0000000   1.0000000   1.0000000

  Atom        31          32          33          34          35          36          37          38          39          40
 IAtWgt=           1           1           1           1           1           1           1           1           1           1
 AtmWgt=   1.0078250   1.0078250   1.0078250   1.0078250   1.0078250   1.0078250   1.0078250   1.0078250   1.0078250   1.0078250
 NucSpn=           1           1           1           1           1           1           1           1           1           1
 AtZEff=  -0.0000000  -0.0000000  -0.0000000  -0.0000000  -0.0000000  -0.0000000  -0.0000000  -0.0000000  -0.0000000  -0.0000000
 NQMom=    0.0000000   0.0000000   0.0000000   0.0000000   0.0000000   0.0000000   0.0000000   0.0000000   0.0000000   0.0000000
 NMagM=    2.7928460   2.7928460   2.7928460   2.7928460   2.7928460   2.7928460   2.7928460   2.7928460   2.7928460   2.7928460
 AtZNuc=   1.0000000   1.0000000   1.0000000   1.0000000   1.0000000   1.0000000   1.0000000   1.0000000   1.0000000   1.0000000

  Atom        41          42          43          44          45          46          47          48          49          50
 IAtWgt=           1           1           1           1           1           1           1           1           1           1
 AtmWgt=   1.0078250   1.0078250   1.0078250   1.0078250   1.0078250   1.0078250   1.0078250   1.0078250   1.0078250   1.0078250
 NucSpn=           1           1           1           1           1           1           1           1           1           1
 AtZEff=  -0.0000000  -0.0000000  -0.0000000  -0.0000000  -0.0000000  -0.0000000  -0.0000000  -0.0000000  -0.0000000  -0.0000000
 NQMom=    0.0000000   0.0000000   0.0000000   0.0000000   0.0000000   0.0000000   0.0000000   0.0000000   0.0000000   0.0000000
 NMagM=    2.7928460   2.7928460   2.7928460   2.7928460   2.7928460   2.7928460   2.7928460   2.7928460   2.7928460   2.7928460
 AtZNuc=   1.0000000   1.0000000   1.0000000   1.0000000   1.0000000   1.0000000   1.0000000   1.0000000   1.0000000   1.0000000

  Atom        51          52          53          54
 IAtWgt=           1           1           1           1
 AtmWgt=   1.0078250   1.0078250   1.0078250   1.0078250
 NucSpn=           1           1           1           1
 AtZEff=  -0.0000000  -0.0000000  -0.0000000  -0.0000000
 NQMom=    0.0000000   0.0000000   0.0000000   0.0000000
 NMagM=    2.7928460   2.7928460   2.7928460   2.7928460
 AtZNuc=   1.0000000   1.0000000   1.0000000   1.0000000
 Leave Link  101 at Mon Jan 23 08:46:58 2023, MaxMem=  4194304000 cpu:               1.0 elap:               0.2
 (Enter /software/gaussian/G16-A.03/avx/g16/l103.exe)

 GradGradGradGradGradGradGradGradGradGradGradGradGradGradGradGradGradGrad
 Berny optimization.
 Initialization pass.
 Trust Radius=3.00D-01 FncErr=1.00D-07 GrdErr=1.00D-07 EigMax=2.50D+02 EigMin=1.00D-04
 Number of steps in this run=      2 maximum allowed number of steps=      2.
 GradGradGradGradGradGradGradGradGradGradGradGradGradGradGradGradGradGrad

 Leave Link  103 at Mon Jan 23 08:46:58 2023, MaxMem=  4194304000 cpu:               0.5 elap:               0.1
 (Enter /software/gaussian/G16-A.03/avx/g16/l202.exe)
 Stoichiometry    C18H32N2O2
 Framework group  C1[X(C18H32N2O2)]
 Deg. of freedom   156
 Full point group                 C1      NOp   1
 Largest Abelian subgroup         C1      NOp   1
 Largest concise Abelian subgroup C1      NOp   1
                         Standard orientation:                         
 ---------------------------------------------------------------------
 Center     Atomic      Atomic             Coordinates (Angstroms)
 Number     Number       Type             X           Y           Z
 ---------------------------------------------------------------------
      1          6           0        2.922691   -1.766387   -0.957405
      2          6           0        2.842569   -0.534566   -0.019727
      3          1           0        3.043568    0.410659   -0.548602
      4          7           0        1.433009   -0.513452    0.340379
      5          6           0        0.846820   -1.460141   -0.279786
      6          8           0        1.553791   -2.247290   -1.063177
      7          6           0       -0.609828   -1.555389   -0.085996
      8          7           0       -1.155791   -0.593083    0.547348
      9          6           0       -2.575815   -0.883841    0.684034
     10          1           0       -2.780437   -0.988703    1.762741
     11          6           0       -2.708051   -2.229762   -0.075691
     12          8           0       -1.354788   -2.562373   -0.490283
     13          6           0       -3.428442    0.254305    0.146591
     14          6           0       -4.915832    0.047335    0.384407
     15          6           0       -5.766041    1.197104   -0.135497
     16          6           0       -7.255775    1.016170    0.113996
     17          6           0       -8.107215    2.166952   -0.404329
     18          6           0       -9.594226    1.981059   -0.149618
     19          6           0        3.724088   -0.595723    1.219213
     20          6           0        5.212506   -0.447647    0.928888
     21          6           0        5.590928    0.873387    0.269059
     22          6           0        7.092861    1.105515    0.200001
     23          6           0        7.477534    2.410336   -0.483403
     24          6           0        8.978313    2.645201   -0.537637
     25          1           0        3.527433   -2.584338   -0.538077
     26          1           0        3.272698   -1.540851   -1.973171
     27          1           0       -3.079557   -3.061485    0.536768
     28          1           0       -3.319905   -2.147579   -0.986376
     29          1           0       -3.084802    1.167540    0.658615
     30          1           0       -3.221675    0.380283   -0.931478
     31          1           0       -5.091454   -0.076032    1.468021
     32          1           0       -5.255940   -0.894407   -0.086936
     33          1           0       -5.587858    1.322768   -1.218990
     34          1           0       -5.424553    2.136405    0.334109
     35          1           0       -7.431498    0.891972    1.198178
     36          1           0       -7.594676    0.072549   -0.352548
     37          1           0       -7.927890    2.290249   -1.487248
     38          1           0       -7.764657    3.107231    0.062442
     39          1           0       -9.972001    1.066319   -0.634530
     40          1           0      -10.181912    2.827979   -0.534859
     41          1           0       -9.806641    1.892276    0.928003
     42          1           0        3.386307    0.224411    1.872862
     43          1           0        3.525423   -1.544431    1.747440
     44          1           0        5.575195   -1.290229    0.309746
     45          1           0        5.753111   -0.537661    1.886007
     46          1           0        5.105543    1.702220    0.813780
     47          1           0        5.179676    0.918480   -0.755758
     48          1           0        7.573506    0.260289   -0.327166
     49          1           0        7.510260    1.092821    1.223461
     50          1           0        6.987392    3.248886    0.041497
     51          1           0        7.062600    2.418565   -1.507120
     52          1           0        9.413660    2.680306    0.474070
     53          1           0        9.223515    3.594663   -1.037110
     54          1           0        9.490513    1.838436   -1.086774
 ---------------------------------------------------------------------
 Rotational constants (GHZ):           0.5552653           0.0598710           0.0555051
 Leave Link  202 at Mon Jan 23 08:46:58 2023, MaxMem=  4194304000 cpu:               0.8 elap:               0.2
 (Enter /software/gaussian/G16-A.03/avx/g16/l301.exe)
 Standard basis: def2SVP (5D, 7F)
 Ernie: Thresh=  0.10000D-02 Tol=  0.10000D-05 Strict=F.
 There are   490 symmetry adapted cartesian basis functions of A   symmetry.
 There are   468 symmetry adapted basis functions of A   symmetry.
   468 basis functions,   774 primitive gaussians,   490 cartesian basis functions
    85 alpha electrons       85 beta electrons
       nuclear repulsion energy      1707.5436474246 Hartrees.
 IExCor= 1009 DFT=T Ex+Corr=PBE1PBE ExCW=0 ScaHFX=  0.250000
 ScaDFX=  0.750000  0.750000  1.000000  1.000000 ScalE2=  1.000000  1.000000
 IRadAn=      5 IRanWt=     -1 IRanGd=            0 ICorTp=0 IEmpDi=141
 NAtoms=   54 NActive=   54 NUniq=   54 SFac= 1.00D+00 NAtFMM=   60 NAOKFM=F Big=F
 Integral buffers will be    131072 words long.
 Raffenetti 2 integral format.
 Two-electron integral symmetry is turned on.
 R6Disp:  Grimme-D3(BJ) Dispersion energy=       -0.0461074216 Hartrees.
 Nuclear repulsion after empirical dispersion term =     1707.4975400030 Hartrees.
 Leave Link  301 at Mon Jan 23 08:46:58 2023, MaxMem=  4194304000 cpu:               1.9 elap:               0.4
 (Enter /software/gaussian/G16-A.03/avx/g16/l302.exe)
 NPDir=0 NMtPBC=     1 NCelOv=     1 NCel=       1 NClECP=     1 NCelD=      1
         NCelK=      1 NCelE2=     1 NClLst=     1 CellRange=     0.0.
 One-electron integrals computed using PRISM.
 One-electron integral symmetry used in STVInt
   1 Symmetry operations used in ECPInt.
 ECPInt:  NShTT=   26106 NPrTT=   90482 LenC2=   18181 LenP2D=   43389.
 LDataN:  DoStor=T MaxTD1= 4 Len=   56
 NBasis=   468 RedAO= T EigKep=  8.88D-04  NBF=   468
 NBsUse=   468 1.00D-06 EigRej= -1.00D+00 NBFU=   468
 Precomputing XC quadrature grid using
 IXCGrd= 4 IRadAn=           5 IRanWt=          -1 IRanGd=           0 AccXCQ= 0.00D+00.
 Generated NRdTot=       0 NPtTot=           0 NUsed=           0 NTot=          32
 NSgBfM=   435   435   435   435   435 MxSgAt=    54 MxSgA2=    54.
 Leave Link  302 at Mon Jan 23 08:47:01 2023, MaxMem=  4194304000 cpu:              21.3 elap:               3.1
 (Enter /software/gaussian/G16-A.03/avx/g16/l303.exe)
 DipDrv:  MaxL=1.
 Leave Link  303 at Mon Jan 23 08:47:02 2023, MaxMem=  4194304000 cpu:               3.5 elap:               0.7
 (Enter /software/gaussian/G16-A.03/avx/g16/l401.exe)
 ExpMin= 1.22D-01 ExpMax= 2.27D+03 ExpMxC= 3.41D+02 IAcc=3 IRadAn=         5 AccDes= 0.00D+00
 Harris functional with IExCor= 1009 and IRadAn=       5 diagonalized for initial guess.
 HarFok:  IExCor= 1009 AccDes= 0.00D+00 IRadAn=         5 IDoV= 1 UseB2=F ITyADJ=14
 ICtDFT=  3500011 ScaDFX=  1.000000  1.000000  1.000000  1.000000
 FoFCou: FMM=F IPFlag=           0 FMFlag=      100000 FMFlg1=           0
         NFxFlg=           0 DoJE=T BraDBF=F KetDBF=T FulRan=T
         wScrn=  0.000000 ICntrl=       500 IOpCl=  0 I1Cent=   200000004 NGrid=           0
         NMat0=    1 NMatS0=      1 NMatT0=    0 NMatD0=    1 NMtDS0=    0 NMtDT0=    0
 Petite list used in FoFCou.
 Harris En= -963.641583089859    
 JPrj=0 DoOrth=F DoCkMO=F.
 Leave Link  401 at Mon Jan 23 08:47:09 2023, MaxMem=  4194304000 cpu:              45.2 elap:               6.5
 (Enter /software/gaussian/G16-A.03/avx/g16/l502.exe)
 Integral symmetry usage will be decided dynamically.
 Closed shell SCF:
 Using DIIS extrapolation, IDIIS=  1040.
 NGot=  4194304000 LenX=  4193814398 LenY=  4193573808
 Requested convergence on RMS density matrix=1.00D-08 within 128 cycles.
 Requested convergence on MAX density matrix=1.00D-06.
 Requested convergence on             energy=1.00D-06.
 No special actions if energy rises.
 Fock matrices will be formed incrementally for  20 cycles.
 Integral accuracy reduced to 1.0D-05 until final iterations.

 Cycle   1  Pass 0  IDiag  1:
 FoFJK:  IHMeth= 1 ICntrl=       0 DoSepK=F KAlg= 0 I1Cent=           0 FoldK=F
 IRaf= 600000000 NMat=       1 IRICut=       1 DoRegI=T DoRafI=F ISym2E= 0 IDoP0=0 IntGTp=1.
 FoFCou: FMM=F IPFlag=           0 FMFlag=      100000 FMFlg1=           0
         NFxFlg=           0 DoJE=F BraDBF=F KetDBF=F FulRan=T
         wScrn=  0.000000 ICntrl=         0 IOpCl=  0 I1Cent=           0 NGrid=           0
         NMat0=    1 NMatS0=      1 NMatT0=    0 NMatD0=    1 NMtDS0=    0 NMtDT0=    0
 Symmetry not used in FoFCou.
 E= -962.774495545739    
 DIIS: error= 2.41D-02 at cycle   1 NSaved=   1.
 NSaved= 1 IEnMin= 1 EnMin= -962.774495545739     IErMin= 1 ErrMin= 2.41D-02
 ErrMax= 2.41D-02  0.00D+00 EMaxC= 1.00D-01 BMatC= 5.09D-01 BMatP= 5.09D-01
 IDIUse=3 WtCom= 7.59D-01 WtEn= 2.41D-01
 Coeff-Com:  0.100D+01
 Coeff-En:   0.100D+01
 Coeff:      0.100D+01
 Gap=     0.172 Goal=   None    Shift=    0.000
 GapD=    0.172 DampG=1.000 DampE=0.500 DampFc=0.5000 IDamp=-1.
 Damping current iteration by 5.00D-01
 RMSDP=4.38D-03 MaxDP=1.68D-01              OVMax= 2.07D-01

 Cycle   2  Pass 0  IDiag  1:
 RMSU=  2.18D-03    CP:  9.84D-01
 E= -963.005264553478     Delta-E=       -0.230769007739 Rises=F Damp=T
 DIIS: error= 1.05D-02 at cycle   2 NSaved=   2.
 NSaved= 2 IEnMin= 2 EnMin= -963.005264553478     IErMin= 2 ErrMin= 1.05D-02
 ErrMax= 1.05D-02  0.00D+00 EMaxC= 1.00D-01 BMatC= 4.32D-02 BMatP= 5.09D-01
 IDIUse=3 WtCom= 8.95D-01 WtEn= 1.05D-01
 Coeff-Com:  0.112D+00 0.888D+00
 Coeff-En:   0.175D+00 0.825D+00
 Coeff:      0.119D+00 0.881D+00
 Gap=     0.239 Goal=   None    Shift=    0.000
 RMSDP=1.23D-03 MaxDP=5.59D-02 DE=-2.31D-01 OVMax= 2.44D-01

 Cycle   3  Pass 0  IDiag  1:
 RMSU=  1.13D-03    CP:  9.75D-01  7.74D-01
 E= -963.288725430339     Delta-E=       -0.283460876862 Rises=F Damp=F
 DIIS: error= 1.55D-02 at cycle   3 NSaved=   3.
 NSaved= 3 IEnMin= 3 EnMin= -963.288725430339     IErMin= 2 ErrMin= 1.05D-02
 ErrMax= 1.55D-02  0.00D+00 EMaxC= 1.00D-01 BMatC= 5.74D-02 BMatP= 4.32D-02
 IDIUse=2 WtCom= 0.00D+00 WtEn= 1.00D+00
 Coeff-En:   0.000D+00 0.000D+00 0.100D+01
 Coeff:      0.000D+00 0.000D+00 0.100D+01
 Gap=     0.193 Goal=   None    Shift=    0.000
 RMSDP=1.88D-03 MaxDP=9.36D-02 DE=-2.83D-01 OVMax= 2.28D-01

 Cycle   4  Pass 0  IDiag  1:
 RMSU=  1.03D-03    CP:  9.86D-01  1.20D+00 -1.20D-01
 E= -963.087693133385     Delta-E=        0.201032296955 Rises=F Damp=F
 DIIS: error= 4.17D-02 at cycle   4 NSaved=   4.
 NSaved= 4 IEnMin= 3 EnMin= -963.288725430339     IErMin= 2 ErrMin= 1.05D-02
 ErrMax= 4.17D-02  0.00D+00 EMaxC= 1.00D-01 BMatC= 2.87D-01 BMatP= 4.32D-02
 IDIUse=2 WtCom= 0.00D+00 WtEn= 1.00D+00
 Coeff-En:   0.000D+00 0.000D+00 0.776D+00 0.224D+00
 Coeff:      0.000D+00 0.000D+00 0.776D+00 0.224D+00
 Gap=     0.213 Goal=   None    Shift=    0.000
 RMSDP=1.05D-03 MaxDP=5.47D-02 DE= 2.01D-01 OVMax= 1.16D-01

 Cycle   5  Pass 0  IDiag  1:
 RMSU=  1.55D-04    CP:  9.80D-01  9.30D-01  4.53D-01  4.68D-01
 E= -963.322837863155     Delta-E=       -0.235144729770 Rises=F Damp=F
 DIIS: error= 1.02D-02 at cycle   5 NSaved=   5.
 NSaved= 5 IEnMin= 5 EnMin= -963.322837863155     IErMin= 5 ErrMin= 1.02D-02
 ErrMax= 1.02D-02  0.00D+00 EMaxC= 1.00D-01 BMatC= 2.01D-02 BMatP= 4.32D-02
 IDIUse=3 WtCom= 8.98D-01 WtEn= 1.02D-01
 Coeff-Com: -0.472D-02 0.190D-01 0.249D+00-0.124D+00 0.861D+00
 Coeff-En:   0.000D+00 0.000D+00 0.305D+00 0.000D+00 0.695D+00
 Coeff:     -0.424D-02 0.171D-01 0.255D+00-0.111D+00 0.844D+00
 Gap=     0.214 Goal=   None    Shift=    0.000
 RMSDP=3.41D-04 MaxDP=1.71D-02 DE=-2.35D-01 OVMax= 4.45D-02

 Cycle   6  Pass 0  IDiag  1:
 RMSU=  2.66D-05    CP:  9.78D-01  8.61D-01  6.61D-01  2.83D-01  8.68D-01
 E= -963.340497445798     Delta-E=       -0.017659582644 Rises=F Damp=F
 DIIS: error= 3.22D-04 at cycle   6 NSaved=   6.
 NSaved= 6 IEnMin= 6 EnMin= -963.340497445798     IErMin= 6 ErrMin= 3.22D-04
 ErrMax= 3.22D-04  0.00D+00 EMaxC= 1.00D-01 BMatC= 2.61D-05 BMatP= 2.01D-02
 IDIUse=3 WtCom= 9.97D-01 WtEn= 3.22D-03
 Coeff-Com: -0.216D-02 0.459D-02 0.853D-01-0.474D-01 0.333D+00 0.627D+00
 Coeff-En:   0.000D+00 0.000D+00 0.000D+00 0.000D+00 0.000D+00 0.100D+01
 Coeff:     -0.215D-02 0.457D-02 0.850D-01-0.473D-01 0.332D+00 0.628D+00
 Gap=     0.215 Goal=   None    Shift=    0.000
 RMSDP=1.35D-05 MaxDP=7.24D-04 DE=-1.77D-02 OVMax= 1.80D-03

 Cycle   7  Pass 0  IDiag  1:
 RMSU=  6.49D-06    CP:  9.78D-01  8.63D-01  6.56D-01  2.88D-01  8.89D-01
                    CP:  7.96D-01
 E= -963.340517995424     Delta-E=       -0.000020549625 Rises=F Damp=F
 DIIS: error= 8.71D-05 at cycle   7 NSaved=   7.
 NSaved= 7 IEnMin= 7 EnMin= -963.340517995424     IErMin= 7 ErrMin= 8.71D-05
 ErrMax= 8.71D-05  0.00D+00 EMaxC= 1.00D-01 BMatC= 2.39D-06 BMatP= 2.61D-05
 IDIUse=1 WtCom= 1.00D+00 WtEn= 0.00D+00
 Coeff-Com: -0.710D-03 0.756D-03 0.233D-01-0.150D-01 0.101D+00 0.331D+00
 Coeff-Com:  0.560D+00
 Coeff:     -0.710D-03 0.756D-03 0.233D-01-0.150D-01 0.101D+00 0.331D+00
 Coeff:      0.560D+00
 Gap=     0.215 Goal=   None    Shift=    0.000
 RMSDP=3.44D-06 MaxDP=2.12D-04 DE=-2.05D-05 OVMax= 2.12D-04

 Initial convergence to 1.0D-05 achieved.  Increase integral accuracy.
 Cycle   8  Pass 1  IDiag  1:
 E= -963.340516913595     Delta-E=        0.000001081829 Rises=F Damp=F
 DIIS: error= 7.33D-05 at cycle   1 NSaved=   1.
 NSaved= 1 IEnMin= 1 EnMin= -963.340516913595     IErMin= 1 ErrMin= 7.33D-05
 ErrMax= 7.33D-05  0.00D+00 EMaxC= 1.00D-01 BMatC= 1.33D-06 BMatP= 1.33D-06
 IDIUse=1 WtCom= 1.00D+00 WtEn= 0.00D+00
 Coeff-Com:  0.100D+01
 Coeff:      0.100D+01
 Gap=     0.215 Goal=   None    Shift=    0.000
 RMSDP=3.44D-06 MaxDP=2.12D-04 DE= 1.08D-06 OVMax= 2.35D-04

 Cycle   9  Pass 1  IDiag  1:
 RMSU=  3.41D-05    CP:  1.00D+00
 E= -963.340518017708     Delta-E=       -0.000001104113 Rises=F Damp=F
 DIIS: error= 2.49D-05 at cycle   2 NSaved=   2.
 NSaved= 2 IEnMin= 2 EnMin= -963.340518017708     IErMin= 2 ErrMin= 2.49D-05
 ErrMax= 2.49D-05  0.00D+00 EMaxC= 1.00D-01 BMatC= 3.47D-07 BMatP= 1.33D-06
 IDIUse=1 WtCom= 1.00D+00 WtEn= 0.00D+00
 Coeff-Com:  0.260D+00 0.740D+00
 Coeff:      0.260D+00 0.740D+00
 Gap=     0.215 Goal=   None    Shift=    0.000
 RMSDP=3.07D-06 MaxDP=1.96D-04 DE=-1.10D-06 OVMax= 3.28D-04

 Cycle  10  Pass 1  IDiag  1:
 RMSU=  3.04D-06    CP:  1.00D+00  1.01D+00
 E= -963.340517933370     Delta-E=        0.000000084337 Rises=F Damp=F
 DIIS: error= 3.13D-05 at cycle   3 NSaved=   3.
 NSaved= 3 IEnMin= 2 EnMin= -963.340518017708     IErMin= 2 ErrMin= 2.49D-05
 ErrMax= 3.13D-05  0.00D+00 EMaxC= 1.00D-01 BMatC= 4.41D-07 BMatP= 3.47D-07
 IDIUse=1 WtCom= 1.00D+00 WtEn= 0.00D+00
 Coeff-Com:  0.755D-02 0.529D+00 0.464D+00
 Coeff:      0.755D-02 0.529D+00 0.464D+00
 Gap=     0.215 Goal=   None    Shift=    0.000
 RMSDP=1.79D-06 MaxDP=1.19D-04 DE= 8.43D-08 OVMax= 2.19D-04

 Cycle  11  Pass 1  IDiag  1:
 RMSU=  5.75D-07    CP:  1.00D+00  1.01D+00  4.53D-01
 E= -963.340518310881     Delta-E=       -0.000000377511 Rises=F Damp=F
 DIIS: error= 1.02D-05 at cycle   4 NSaved=   4.
 NSaved= 4 IEnMin= 4 EnMin= -963.340518310881     IErMin= 4 ErrMin= 1.02D-05
 ErrMax= 1.02D-05  0.00D+00 EMaxC= 1.00D-01 BMatC= 2.25D-08 BMatP= 3.47D-07
 IDIUse=1 WtCom= 1.00D+00 WtEn= 0.00D+00
 Coeff-Com: -0.488D-02 0.319D+00 0.303D+00 0.383D+00
 Coeff:     -0.488D-02 0.319D+00 0.303D+00 0.383D+00
 Gap=     0.215 Goal=   None    Shift=    0.000
 RMSDP=3.46D-07 MaxDP=1.89D-05 DE=-3.78D-07 OVMax= 3.83D-05

 Cycle  12  Pass 1  IDiag  1:
 RMSU=  1.07D-07    CP:  1.00D+00  1.02D+00  4.87D-01  4.61D-01
 E= -963.340518329128     Delta-E=       -0.000000018247 Rises=F Damp=F
 DIIS: error= 5.65D-07 at cycle   5 NSaved=   5.
 NSaved= 5 IEnMin= 5 EnMin= -963.340518329128     IErMin= 5 ErrMin= 5.65D-07
 ErrMax= 5.65D-07  0.00D+00 EMaxC= 1.00D-01 BMatC= 1.84D-10 BMatP= 2.25D-08
 IDIUse=1 WtCom= 1.00D+00 WtEn= 0.00D+00
 Coeff-Com: -0.264D-02 0.150D+00 0.143D+00 0.196D+00 0.513D+00
 Coeff:     -0.264D-02 0.150D+00 0.143D+00 0.196D+00 0.513D+00
 Gap=     0.215 Goal=   None    Shift=    0.000
 RMSDP=3.26D-08 MaxDP=1.85D-06 DE=-1.82D-08 OVMax= 1.97D-06

 Cycle  13  Pass 1  IDiag  1:
 RMSU=  2.92D-08    CP:  1.00D+00  1.02D+00  4.84D-01  4.52D-01  9.15D-01
 E= -963.340518329270     Delta-E=       -0.000000000142 Rises=F Damp=F
 DIIS: error= 8.40D-08 at cycle   6 NSaved=   6.
 NSaved= 6 IEnMin= 6 EnMin= -963.340518329270     IErMin= 6 ErrMin= 8.40D-08
 ErrMax= 8.40D-08  0.00D+00 EMaxC= 1.00D-01 BMatC= 4.88D-12 BMatP= 1.84D-10
 IDIUse=1 WtCom= 1.00D+00 WtEn= 0.00D+00
 Coeff-Com: -0.523D-03 0.270D-01 0.255D-01 0.407D-01 0.166D+00 0.742D+00
 Coeff:     -0.523D-03 0.270D-01 0.255D-01 0.407D-01 0.166D+00 0.742D+00
 Gap=     0.215 Goal=   None    Shift=    0.000
 RMSDP=8.84D-09 MaxDP=4.28D-07 DE=-1.42D-10 OVMax= 1.30D-06

 SCF Done:  E(RPBE1PBE) =  -963.340518329     A.U. after   13 cycles
            NFock= 13  Conv=0.88D-08     -V/T= 2.0103
 KE= 9.535308774616D+02 PE=-5.650786507547D+03 EE= 2.026417571754D+03
 Leave Link  502 at Mon Jan 23 08:48:49 2023, MaxMem=  4194304000 cpu:             794.2 elap:              99.9
 (Enter /software/gaussian/G16-A.03/avx/g16/l801.exe)
 DoSCS=F DFT=T ScalE2(SS,OS)=  1.000000  1.000000
 Range of M.O.s used for correlation:     1   468
 NBasis=   468 NAE=    85 NBE=    85 NFC=     0 NFV=     0
 NROrb=    468 NOA=    85 NOB=    85 NVA=   383 NVB=   383
 Leave Link  801 at Mon Jan 23 08:48:49 2023, MaxMem=  4194304000 cpu:               0.6 elap:               0.1
 (Enter /software/gaussian/G16-A.03/avx/g16/l1101.exe)
 Using compressed storage, NAtomX=    54.
 Will process     55 centers per pass.
   1 Symmetry operations used in ECPInt.
 ECPInt:  NShTT=   26106 NPrTT=   90482 LenC2=   18181 LenP2D=   43389.
 LDataN:  DoStor=T MaxTD1= 5 Len=  102
 R6Disp: Adding Grimme-D3(BJ) dispersion energy 1st derivatives to the gradient.
 Leave Link 1101 at Mon Jan 23 08:48:51 2023, MaxMem=  4194304000 cpu:              12.4 elap:               1.8
 (Enter /software/gaussian/G16-A.03/avx/g16/l1102.exe)
 Symmetrizing basis deriv contribution to polar:
 IMax=3 JMax=2 DiffMx= 0.00D+00
 Leave Link 1102 at Mon Jan 23 08:48:51 2023, MaxMem=  4194304000 cpu:               2.6 elap:               0.5
 (Enter /software/gaussian/G16-A.03/avx/g16/l1110.exe)
 Forming Gx(P) for the SCF density, NAtomX=    54.
 Integral derivatives from FoFJK, PRISM(SPDF).
 Do as many integral derivatives as possible in FoFJK.
 G2DrvN: MDV=    4194299976.
 G2DrvN: will do    55 centers at a time, making    1 passes.
 Calling FoFCou, ICntrl=  3107 FMM=F I1Cent=   0 AccDes= 0.00D+00.
 FoFJK:  IHMeth= 1 ICntrl=    3107 DoSepK=F KAlg= 0 I1Cent=           0 FoldK=F
 IRaf=         0 NMat=       1 IRICut=       1 DoRegI=T DoRafI=F ISym2E= 0 IDoP0=0 IntGTp=1.
 FoFCou: FMM=F IPFlag=           0 FMFlag=      100000 FMFlg1=           0
         NFxFlg=           0 DoJE=F BraDBF=F KetDBF=F FulRan=T
         wScrn=  0.000000 ICntrl=      3107 IOpCl=  0 I1Cent=           0 NGrid=           0
         NMat0=    1 NMatS0=      1 NMatT0=    0 NMatD0=    1 NMtDS0=    0 NMtDT0=    0
 Symmetry not used in FoFCou.
 End of G2Drv F.D. properties file   721 does not exist.
 End of G2Drv F.D. properties file   722 does not exist.
 End of G2Drv F.D. properties file   788 does not exist.
 Leave Link 1110 at Mon Jan 23 08:55:02 2023, MaxMem=  4194304000 cpu:            2967.9 elap:             371.4
 (Enter /software/gaussian/G16-A.03/avx/g16/l1002.exe)
 Minotr:  Closed shell wavefunction.
          IDoAtm=11111111111111111111111111111111111111111111111111
          IDoAtm=1111
          Direct CPHF calculation.
          Differentiating once with respect to electric field.
                with respect to dipole field.
          Differentiating once with respect to nuclear coordinates.
          Requested convergence is 1.0D-08 RMS, and 1.0D-07 maximum.
          Secondary convergence is 1.0D-12 RMS, and 1.0D-12 maximum.
          NewPWx=T KeepS1=F KeepF1=F KeepIn=T MapXYZ=F SortEE=F KeepMc=T.
        16744 words used for storage of precomputed grid.
 Two-electron integrals replicated using symmetry.
          MDV=    4194304000 using IRadAn=       1.
          Solving linear equations simultaneously, MaxMat=     384.
 FoF2E skips out because all densities are zero.
 CalDSu exits because no D1Ps are significant.
 FoFJK:  IHMeth= 1 ICntrl=       0 DoSepK=F KAlg= 0 I1Cent=           0 FoldK=F
 IRaf= 570000000 NMat=     162 IRICut=     405 DoRegI=T DoRafI=T ISym2E= 2 IDoP0=3 IntGTp=3.
 FoFCou: FMM=F IPFlag=           0 FMFlag=      100000 FMFlg1=           0
         NFxFlg=           0 DoJE=F BraDBF=F KetDBF=F FulRan=T
         wScrn=  0.000000 ICntrl=         0 IOpCl=  0 I1Cent=           0 NGrid=           0
         NMat0=  162 NMatS0=    162 NMatT0=    0 NMatD0=  162 NMtDS0=    0 NMtDT0=    0
 Integrals replicated using symmetry in FoFCou.
 Raff kept on since  52.24% of shell-pairs survive, threshold=   0.20 IRatSp=52.
          There are   165 degrees of freedom in the 1st order CPHF.  IDoFFX=6 NUNeed=     3.
    162 vectors produced by pass  0 Test12= 3.26D-14 1.00D-09 XBig12= 1.44D+02 4.78D+00.
 AX will form   162 AO Fock derivatives at one time.
    162 vectors produced by pass  1 Test12= 3.26D-14 1.00D-09 XBig12= 3.93D+01 1.63D+00.
    162 vectors produced by pass  2 Test12= 3.26D-14 1.00D-09 XBig12= 4.96D-01 1.14D-01.
    162 vectors produced by pass  3 Test12= 3.26D-14 1.00D-09 XBig12= 2.44D-03 3.34D-03.
    162 vectors produced by pass  4 Test12= 3.26D-14 1.00D-09 XBig12= 4.32D-06 1.39D-04.
     89 vectors produced by pass  5 Test12= 3.26D-14 1.00D-09 XBig12= 4.88D-09 8.66D-06.
     12 vectors produced by pass  6 Test12= 3.26D-14 1.00D-09 XBig12= 4.91D-12 2.87D-07.
      3 vectors produced by pass  7 Test12= 3.26D-14 1.00D-09 XBig12= 5.55D-15 8.81D-09.
      1 vectors produced by pass  8 Test12= 3.26D-14 1.00D-09 XBig12= 7.59D-16 3.17D-09.
 InvSVY:  IOpt=1 It=  1 EMax= 7.11D-15
 Solved reduced A of dimension   915 with   165 vectors.
 FullF1:  Do perturbations      1 to       3.
 Isotropic polarizability for W=    0.000000      218.07 Bohr**3.
 End of Minotr F.D. properties file   721 does not exist.
 End of Minotr F.D. properties file   722 does not exist.
 End of Minotr F.D. properties file   788 does not exist.
 Leave Link 1002 at Mon Jan 23 09:09:35 2023, MaxMem=  4194304000 cpu:            6975.7 elap:             872.4
 (Enter /software/gaussian/G16-A.03/avx/g16/l601.exe)
 Copying SCF densities to generalized density rwf, IOpCl= 0 IROHF=0.

 **********************************************************************

            Population analysis using the SCF density.

 **********************************************************************

 Orbital symmetries:
       Occupied  (A) (A) (A) (A) (A) (A) (A) (A) (A) (A) (A) (A)
                 (A) (A) (A) (A) (A) (A) (A) (A) (A) (A) (A) (A)
                 (A) (A) (A) (A) (A) (A) (A) (A) (A) (A) (A) (A)
                 (A) (A) (A) (A) (A) (A) (A) (A) (A) (A) (A) (A)
                 (A) (A) (A) (A) (A) (A) (A) (A) (A) (A) (A) (A)
                 (A) (A) (A) (A) (A) (A) (A) (A) (A) (A) (A) (A)
                 (A) (A) (A) (A) (A) (A) (A) (A) (A) (A) (A) (A)
                 (A)
       Virtual   (A) (A) (A) (A) (A) (A) (A) (A) (A) (A) (A) (A)
                 (A) (A) (A) (A) (A) (A) (A) (A) (A) (A) (A) (A)
                 (A) (A) (A) (A) (A) (A) (A) (A) (A) (A) (A) (A)
                 (A) (A) (A) (A) (A) (A) (A) (A) (A) (A) (A) (A)
                 (A) (A) (A) (A) (A) (A) (A) (A) (A) (A) (A) (A)
                 (A) (A) (A) (A) (A) (A) (A) (A) (A) (A) (A) (A)
                 (A) (A) (A) (A) (A) (A) (A) (A) (A) (A) (A) (A)
                 (A) (A) (A) (A) (A) (A) (A) (A) (A) (A) (A) (A)
                 (A) (A) (A) (A) (A) (A) (A) (A) (A) (A) (A) (A)
                 (A) (A) (A) (A) (A) (A) (A) (A) (A) (A) (A) (A)
                 (A) (A) (A) (A) (A) (A) (A) (A) (A) (A) (A) (A)
                 (A) (A) (A) (A) (A) (A) (A) (A) (A) (A) (A) (A)
                 (A) (A) (A) (A) (A) (A) (A) (A) (A) (A) (A) (A)
                 (A) (A) (A) (A) (A) (A) (A) (A) (A) (A) (A) (A)
                 (A) (A) (A) (A) (A) (A) (A) (A) (A) (A) (A) (A)
                 (A) (A) (A) (A) (A) (A) (A) (A) (A) (A) (A) (A)
                 (A) (A) (A) (A) (A) (A) (A) (A) (A) (A) (A) (A)
                 (A) (A) (A) (A) (A) (A) (A) (A) (A) (A) (A) (A)
                 (A) (A) (A) (A) (A) (A) (A) (A) (A) (A) (A) (A)
                 (A) (A) (A) (A) (A) (A) (A) (A) (A) (A) (A) (A)
                 (A) (A) (A) (A) (A) (A) (A) (A) (A) (A) (A) (A)
                 (A) (A) (A) (A) (A) (A) (A) (A) (A) (A) (A) (A)
                 (A) (A) (A) (A) (A) (A) (A) (A) (A) (A) (A) (A)
                 (A) (A) (A) (A) (A) (A) (A) (A) (A) (A) (A) (A)
                 (A) (A) (A) (A) (A) (A) (A) (A) (A) (A) (A) (A)
                 (A) (A) (A) (A) (A) (A) (A) (A) (A) (A) (A) (A)
                 (A) (A) (A) (A) (A) (A) (A) (A) (A) (A) (A) (A)
                 (A) (A) (A) (A) (A) (A) (A) (A) (A) (A) (A) (A)
                 (A) (A) (A) (A) (A) (A) (A) (A) (A) (A) (A) (A)
                 (A) (A) (A) (A) (A) (A) (A) (A) (A) (A) (A) (A)
                 (A) (A) (A) (A) (A) (A) (A) (A) (A) (A) (A) (A)
                 (A) (A) (A) (A) (A) (A) (A) (A) (A) (A) (A)
 The electronic state is 1-A.
 Alpha  occ. eigenvalues --  -19.25319 -19.25295 -14.36023 -14.36016 -10.32022
 Alpha  occ. eigenvalues --  -10.31978 -10.29324 -10.29322 -10.26363 -10.26247
 Alpha  occ. eigenvalues --  -10.23203 -10.23173 -10.22923 -10.22903 -10.22887
 Alpha  occ. eigenvalues --  -10.22776 -10.22740 -10.22720 -10.22701 -10.22610
 Alpha  occ. eigenvalues --  -10.22280 -10.22226  -1.13243  -1.11896  -0.93561
 Alpha  occ. eigenvalues --   -0.91074  -0.84000  -0.83147  -0.81799  -0.80059
 Alpha  occ. eigenvalues --   -0.78222  -0.76242  -0.73112  -0.72241  -0.67788
 Alpha  occ. eigenvalues --   -0.66778  -0.65158  -0.62680  -0.61494  -0.59346
 Alpha  occ. eigenvalues --   -0.59025  -0.58701  -0.58216  -0.56061  -0.54107
 Alpha  occ. eigenvalues --   -0.52079  -0.50789  -0.49477  -0.49444  -0.48350
 Alpha  occ. eigenvalues --   -0.47666  -0.46768  -0.45958  -0.45777  -0.44698
 Alpha  occ. eigenvalues --   -0.44247  -0.43483  -0.42755  -0.42184  -0.41863
 Alpha  occ. eigenvalues --   -0.41252  -0.41142  -0.39595  -0.39556  -0.38566
 Alpha  occ. eigenvalues --   -0.38341  -0.38036  -0.37780  -0.37095  -0.35881
 Alpha  occ. eigenvalues --   -0.35586  -0.34987  -0.34925  -0.34002  -0.33854
 Alpha  occ. eigenvalues --   -0.33555  -0.33482  -0.32906  -0.32857  -0.32780
 Alpha  occ. eigenvalues --   -0.32482  -0.29020  -0.27175  -0.25559  -0.23904
 Alpha virt. eigenvalues --   -0.02428   0.05992   0.06280   0.07389   0.07458
 Alpha virt. eigenvalues --    0.07809   0.08151   0.08733   0.08980   0.09060
 Alpha virt. eigenvalues --    0.09137   0.10622   0.11058   0.11267   0.11585
 Alpha virt. eigenvalues --    0.11988   0.12202   0.12807   0.14014   0.14487
 Alpha virt. eigenvalues --    0.14846   0.14868   0.15238   0.15434   0.16216
 Alpha virt. eigenvalues --    0.16542   0.16741   0.16893   0.16940   0.16981
 Alpha virt. eigenvalues --    0.17411   0.18229   0.18608   0.18934   0.19465
 Alpha virt. eigenvalues --    0.20034   0.20392   0.21790   0.22359   0.22618
 Alpha virt. eigenvalues --    0.23002   0.23257   0.24299   0.24637   0.25689
 Alpha virt. eigenvalues --    0.26230   0.27007   0.27439   0.28043   0.29242
 Alpha virt. eigenvalues --    0.29977   0.31041   0.31462   0.33831   0.38666
 Alpha virt. eigenvalues --    0.39861   0.40428   0.41415   0.42259   0.42836
 Alpha virt. eigenvalues --    0.43038   0.43188   0.43509   0.43932   0.44121
 Alpha virt. eigenvalues --    0.44538   0.44783   0.45204   0.45860   0.47050
 Alpha virt. eigenvalues --    0.48046   0.49251   0.50345   0.50595   0.51930
 Alpha virt. eigenvalues --    0.51984   0.53069   0.54273   0.54877   0.56500
 Alpha virt. eigenvalues --    0.56701   0.59003   0.59269   0.59747   0.60751
 Alpha virt. eigenvalues --    0.61402   0.61671   0.62644   0.63025   0.63389
 Alpha virt. eigenvalues --    0.63441   0.64240   0.64668   0.65035   0.65285
 Alpha virt. eigenvalues --    0.65802   0.66050   0.66149   0.66441   0.66535
 Alpha virt. eigenvalues --    0.66631   0.66970   0.67487   0.67608   0.67889
 Alpha virt. eigenvalues --    0.68032   0.68309   0.68936   0.69300   0.69531
 Alpha virt. eigenvalues --    0.69822   0.70035   0.70143   0.70295   0.70509
 Alpha virt. eigenvalues --    0.70646   0.71050   0.71136   0.71331   0.71716
 Alpha virt. eigenvalues --    0.71928   0.72177   0.72718   0.72931   0.73198
 Alpha virt. eigenvalues --    0.73521   0.74115   0.74176   0.74768   0.74847
 Alpha virt. eigenvalues --    0.75498   0.75612   0.76127   0.76366   0.76772
 Alpha virt. eigenvalues --    0.76969   0.77268   0.78365   0.80310   0.82041
 Alpha virt. eigenvalues --    0.82578   0.85997   0.86928   0.87466   0.90876
 Alpha virt. eigenvalues --    0.92125   0.93699   0.93952   0.95204   0.97421
 Alpha virt. eigenvalues --    0.98799   0.99340   1.00554   1.01707   1.03026
 Alpha virt. eigenvalues --    1.03161   1.05232   1.05611   1.05686   1.06995
 Alpha virt. eigenvalues --    1.07249   1.07972   1.08507   1.09770   1.10795
 Alpha virt. eigenvalues --    1.10991   1.13035   1.13877   1.15127   1.17586
 Alpha virt. eigenvalues --    1.22056   1.25116   1.25695   1.26959   1.27448
 Alpha virt. eigenvalues --    1.28165   1.30101   1.32555   1.33157   1.34621
 Alpha virt. eigenvalues --    1.35279   1.35710   1.36073   1.36859   1.38344
 Alpha virt. eigenvalues --    1.39042   1.39312   1.39713   1.39984   1.40915
 Alpha virt. eigenvalues --    1.44345   1.45411   1.46221   1.47069   1.48588
 Alpha virt. eigenvalues --    1.51984   1.52221   1.54377   1.54480   1.55066
 Alpha virt. eigenvalues --    1.55113   1.56455   1.60256   1.60904   1.63130
 Alpha virt. eigenvalues --    1.65185   1.66204   1.66861   1.68642   1.70242
 Alpha virt. eigenvalues --    1.70764   1.72502   1.72892   1.73708   1.74758
 Alpha virt. eigenvalues --    1.75135   1.75549   1.75613   1.76349   1.77066
 Alpha virt. eigenvalues --    1.77202   1.77899   1.78223   1.78704   1.78926
 Alpha virt. eigenvalues --    1.79366   1.79811   1.80174   1.80311   1.80506
 Alpha virt. eigenvalues --    1.81371   1.81703   1.82313   1.82450   1.82705
 Alpha virt. eigenvalues --    1.82852   1.83058   1.83939   1.84309   1.84661
 Alpha virt. eigenvalues --    1.85162   1.85484   1.85585   1.85811   1.86721
 Alpha virt. eigenvalues --    1.86996   1.87141   1.88013   1.88320   1.89363
 Alpha virt. eigenvalues --    1.89766   1.90715   1.91397   1.91774   1.92776
 Alpha virt. eigenvalues --    1.93415   1.93666   1.94198   1.94287   1.94660
 Alpha virt. eigenvalues --    1.95215   1.95661   1.96003   1.96886   1.97378
 Alpha virt. eigenvalues --    1.98024   1.99133   1.99456   2.00421   2.00797
 Alpha virt. eigenvalues --    2.01575   2.02574   2.02851   2.03716   2.05876
 Alpha virt. eigenvalues --    2.06237   2.07374   2.08500   2.08988   2.09924
 Alpha virt. eigenvalues --    2.11040   2.11708   2.12299   2.13415   2.16307
 Alpha virt. eigenvalues --    2.19245   2.19824   2.20275   2.22650   2.25456
 Alpha virt. eigenvalues --    2.27756   2.30867   2.32517   2.33439   2.33845
 Alpha virt. eigenvalues --    2.34121   2.34632   2.36079   2.37643   2.40125
 Alpha virt. eigenvalues --    2.40244   2.40738   2.41073   2.41993   2.42574
 Alpha virt. eigenvalues --    2.42906   2.43669   2.44915   2.45183   2.45832
 Alpha virt. eigenvalues --    2.46839   2.47169   2.49151   2.50023   2.51879
 Alpha virt. eigenvalues --    2.53109   2.54972   2.55823   2.56293   2.57055
 Alpha virt. eigenvalues --    2.57569   2.58390   2.59301   2.59570   2.61280
 Alpha virt. eigenvalues --    2.61493   2.62114   2.64083   2.65368   2.66531
 Alpha virt. eigenvalues --    2.67385   2.69125   2.70383   2.71687   2.72955
 Alpha virt. eigenvalues --    2.74844   2.75359   2.80890   2.83180   2.83746
 Alpha virt. eigenvalues --    2.84406   2.85251   2.86062   2.87814   2.88819
 Alpha virt. eigenvalues --    2.90050   2.90352   2.91211   2.91497   2.93290
 Alpha virt. eigenvalues --    2.93880   2.94125   2.96060   2.97218   2.97791
 Alpha virt. eigenvalues --    2.97996   2.98229   2.99381   3.00183   3.01139
 Alpha virt. eigenvalues --    3.01487   3.02557   3.03927   3.05187   3.07066
 Alpha virt. eigenvalues --    3.07954   3.08282   3.09470   3.09859   3.11395
 Alpha virt. eigenvalues --    3.12078   3.13037   3.13317   3.13742   3.13867
 Alpha virt. eigenvalues --    3.14432   3.18039   3.25546   3.30679   3.34608
 Alpha virt. eigenvalues --    3.53589   3.56578   3.74599
     Molecular Orbital Coefficients:
                          81        82        83        84        85
                           O         O         O         O         O
     Eigenvalues --    -0.32482  -0.29020  -0.27175  -0.25559  -0.23904
   1 1   C  1S          0.00962   0.02453   0.00548   0.02721   0.00245
   2        2S         -0.02656  -0.06144  -0.01065  -0.06249  -0.00630
   3        3S         -0.04538  -0.10745  -0.05939  -0.16171  -0.01296
   4        4PX         0.00288   0.01761  -0.00378   0.03634   0.00559
   5        4PY        -0.04541  -0.10566   0.03309  -0.10618  -0.03785
   6        4PZ        -0.03375  -0.07909  -0.08833  -0.06004   0.04120
   7        5PX         0.00012  -0.00824   0.00509   0.01412  -0.00772
   8        5PY        -0.02427  -0.08608  -0.01479  -0.09639  -0.00365
   9        5PZ        -0.01647  -0.06275  -0.04149  -0.07536   0.00225
  10        6D 0       -0.00189   0.00190   0.00542   0.00156  -0.00381
  11        6D+1        0.00006  -0.00037  -0.01024   0.00064   0.00672
  12        6D-1       -0.00306  -0.00091  -0.00057  -0.00100  -0.00021
  13        6D+2        0.00039  -0.00154  -0.00188  -0.00130   0.00058
  14        6D-2        0.00102  -0.00241   0.00762  -0.00610  -0.00552
  15 2   C  1S          0.00188  -0.02149  -0.00982  -0.02391   0.00410
  16        2S         -0.01337   0.04723   0.02589   0.05877  -0.01707
  17        3S          0.02950   0.08155   0.04633   0.10179   0.01770
  18        4PX         0.02911  -0.09360   0.00065  -0.11807  -0.01792
  19        4PY         0.08088   0.05869  -0.05268   0.06268   0.06716
  20        4PZ        -0.01474   0.06713   0.09915   0.04612  -0.08665
  21        5PX        -0.00300  -0.04216   0.00224  -0.05340   0.02968
  22        5PY         0.00962  -0.01443  -0.05003  -0.02215   0.01181
  23        5PZ        -0.01377   0.00533   0.03261  -0.00534  -0.00509
  24        6D 0        0.00284  -0.00524   0.00161  -0.00583  -0.00053
  25        6D+1        0.00033   0.00557   0.01005   0.00315  -0.01359
  26        6D-1       -0.00964  -0.00724   0.00289  -0.00800  -0.00588
  27        6D+2       -0.00464   0.00871   0.00829   0.00739  -0.00771
  28        6D-2       -0.00187   0.01058  -0.00176   0.01255   0.00938
  29 3   H  1S          0.09191   0.03365  -0.09981   0.05404   0.13113
  30        2S          0.05468   0.00036  -0.05468   0.01610   0.09044
  31        3PX        -0.00020  -0.00081   0.00006  -0.00145  -0.00015
  32        3PY        -0.00228   0.00048   0.00314  -0.00016  -0.00405
  33        3PZ         0.00177   0.00271   0.00030   0.00265  -0.00005
  34 4   N  1S         -0.00868  -0.06749  -0.01907  -0.07859   0.00211
  35        2S         -0.01650  -0.13565  -0.03818  -0.16670   0.00427
  36        3S         -0.05721  -0.19929  -0.04513  -0.17924   0.00196
  37        4PX         0.04561  -0.16134  -0.00595  -0.18538  -0.05201
  38        4PY        -0.00589   0.22395  -0.05570   0.25942   0.19363
  39        4PZ         0.01772   0.20845   0.21304   0.17273  -0.25205
  40        5PX        -0.02557   0.10793  -0.00873   0.08043   0.05103
  41        5PY         0.01433  -0.15974   0.05430  -0.18584  -0.13899
  42        5PZ        -0.00748  -0.14365  -0.16214  -0.11135   0.18783
  43        6D 0        0.00179   0.00047   0.00930  -0.00302  -0.01452
  44        6D+1        0.00158  -0.00542   0.00259  -0.00913  -0.00249
  45        6D-1       -0.00052   0.01200   0.00686   0.01076  -0.00502
  46        6D+2       -0.00137  -0.00448   0.00569  -0.00371  -0.00921
  47        6D-2        0.00316  -0.00435  -0.00288  -0.00734  -0.00177
  48 5   C  1S         -0.00766  -0.04849  -0.00703  -0.02027   0.00031
  49        2S          0.01968   0.12865   0.01893   0.05550  -0.00399
  50        3S          0.05803   0.05277  -0.03107  -0.25704   0.02495
  51        4PX         0.02549   0.00793  -0.00095   0.08326   0.02756
  52        4PY         0.01584   0.05992   0.10287   0.02119  -0.10038
  53        4PZ        -0.00568   0.04707  -0.09793   0.06067   0.12331
  54        5PX        -0.02189   0.01293   0.03413   0.24586   0.03018
  55        5PY         0.01915  -0.02721   0.01866  -0.08753  -0.06380
  56        5PZ         0.01533  -0.02535  -0.09322  -0.07670   0.09548
  57        6D 0       -0.00039  -0.00604  -0.02493   0.00011   0.02077
  58        6D+1       -0.00181   0.00969   0.00681   0.00612   0.01112
  59        6D-1        0.00040  -0.01101  -0.00669  -0.00658   0.00693
  60        6D+2       -0.00243   0.01141  -0.00890   0.01174   0.01453
  61        6D-2       -0.00262   0.01563  -0.00376   0.01513  -0.00120
  62 6   O  1S         -0.00279  -0.01245  -0.00175  -0.00660  -0.00052
  63        2S         -0.00501  -0.02817  -0.00257  -0.01227   0.00002
  64        3S         -0.00081  -0.06507  -0.02847  -0.08695  -0.00950
  65        4PX         0.01624   0.01944   0.04531  -0.02644  -0.03198
  66        4PY         0.02195  -0.08687  -0.20748  -0.03011   0.14020
  67        4PZ         0.03634  -0.08486   0.20354  -0.12066  -0.17696
  68        5PX         0.01247   0.02013   0.04627  -0.01571  -0.02821
  69        5PY         0.01455  -0.06146  -0.16962  -0.03009   0.11501
  70        5PZ         0.02639  -0.06263   0.16374  -0.10688  -0.14869
  71        6D 0        0.00052  -0.00022   0.00531  -0.00042  -0.00243
  72        6D+1        0.00008  -0.00213   0.00098  -0.00260  -0.00140
  73        6D-1        0.00105  -0.00202   0.00116  -0.00146  -0.00104
  74        6D+2       -0.00052   0.00189   0.00357  -0.00044  -0.00185
  75        6D-2       -0.00052  -0.00256  -0.00062  -0.00292   0.00043
  76 7   C  1S          0.00415  -0.04855   0.00748   0.02026   0.00102
  77        2S         -0.00902   0.12883  -0.02010  -0.05519  -0.00585
  78        3S         -0.04129   0.05050   0.03023   0.25658   0.02843
  79        4PX        -0.01649  -0.00543  -0.00077   0.08195  -0.02485
  80        4PY         0.00087   0.06737   0.05029  -0.06868   0.07069
  81        4PZ         0.00338   0.03582  -0.13717   0.00754  -0.13567
  82        5PX        -0.03979  -0.01580   0.03599   0.25039  -0.02347
  83        5PY        -0.00472  -0.03417   0.07839   0.09489   0.06118
  84        5PZ         0.00358  -0.01534  -0.05667   0.04834  -0.09345
  85        6D 0       -0.00022   0.00035  -0.01781   0.00484  -0.02026
  86        6D+1        0.00023  -0.01104  -0.00665   0.01182   0.00531
  87        6D-1        0.00027  -0.00747  -0.01464   0.00878  -0.01301
  88        6D+2       -0.00165   0.01374  -0.01561  -0.00785  -0.00973
  89        6D-2        0.00110  -0.01605   0.00539   0.01254  -0.00913
  90 8   N  1S          0.00049  -0.06754   0.01991   0.07854   0.00447
  91        2S          0.00140  -0.13606   0.03971   0.16692   0.00917
  92        3S          0.00110  -0.19563   0.04950   0.17582   0.01157
  93        4PX        -0.00502   0.17187  -0.00778  -0.19814   0.04513
  94        4PY        -0.00049   0.27339  -0.18076  -0.24935  -0.16154
  95        4PZ         0.00247   0.12194   0.14272  -0.17610   0.26954
  96        5PX         0.00333  -0.11656  -0.00822   0.09097  -0.04711
  97        5PY         0.00327  -0.19120   0.13256   0.16946   0.12116
  98        5PZ        -0.00046  -0.08925  -0.11891   0.13187  -0.19541
  99        6D 0        0.00017  -0.00438   0.01138   0.00292   0.01353
 100        6D+1       -0.00002   0.00215  -0.00319  -0.00351   0.00129
 101        6D-1       -0.00003   0.00948   0.00351  -0.01069   0.00861
 102        6D+2       -0.00011  -0.00675   0.00639   0.00277   0.00730
 103        6D-2       -0.00007   0.00728   0.00092  -0.01175   0.00218
 104 9   C  1S          0.00001  -0.02141   0.01043   0.02371   0.00502
 105        2S          0.00083   0.04842  -0.02708  -0.05938  -0.01938
 106        3S         -0.00592   0.06643  -0.04900  -0.08800   0.01799
 107        4PX        -0.00526   0.09669  -0.00036  -0.12163   0.01327
 108        4PY        -0.00014   0.08121  -0.07051  -0.06176  -0.05233
 109        4PZ         0.00174   0.02774   0.08456  -0.04078   0.08831
 110        5PX        -0.00537   0.04220  -0.00037  -0.05129  -0.03647
 111        5PY        -0.00002  -0.00266  -0.00787   0.01499   0.00658
 112        5PZ         0.00313  -0.01455   0.05216   0.01869   0.00445
 113        6D 0        0.00040  -0.00019   0.00844  -0.00164   0.00929
 114        6D+1        0.00011  -0.00774  -0.00583   0.01087  -0.01351
 115        6D-1       -0.00011  -0.00451   0.00226   0.00411  -0.00041
 116        6D+2       -0.00028   0.01068  -0.00206  -0.01074  -0.00173
 117        6D-2        0.00022  -0.00996   0.00913   0.00827   0.00901
 118 10  H  1S          0.00305   0.03472   0.09943  -0.05754   0.12458
 119        2S          0.00198   0.00687   0.06209  -0.02543   0.09542
 120        3PX         0.00001   0.00099  -0.00026  -0.00161  -0.00007
 121        3PY        -0.00004   0.00265  -0.00151  -0.00229  -0.00165
 122        3PZ        -0.00012  -0.00081  -0.00270   0.00141  -0.00350
 123 11  C  1S          0.00098   0.02464  -0.00576  -0.02740   0.00168
 124        2S         -0.00154  -0.06164   0.01159   0.06290  -0.00427
 125        3S         -0.00446  -0.10387   0.05937   0.15851  -0.01045
 126        4PX        -0.00876  -0.02190  -0.00232   0.04045  -0.00442
 127        4PY         0.00270  -0.11349   0.07048   0.09512   0.02517
 128        4PZ        -0.00106  -0.06620  -0.06622   0.07516  -0.04718
 129        5PX        -0.00644   0.00538   0.00769   0.01681   0.00888
 130        5PY        -0.00017  -0.09050   0.04435   0.10560   0.00270
 131        5PZ        -0.00040  -0.05382  -0.00320   0.05846  -0.00265
 132        6D 0        0.00019   0.00115  -0.00066  -0.00103   0.00043
 133        6D+1        0.00043   0.00212   0.01130  -0.00608   0.00730
 134        6D-1       -0.00008  -0.00129   0.00281   0.00133   0.00175
 135        6D+2       -0.00016  -0.00174   0.00457   0.00120   0.00294
 136        6D-2       -0.00008   0.00131  -0.00682  -0.00173  -0.00405
 137 12  O  1S          0.00265  -0.01249   0.00188   0.00660  -0.00020
 138        2S          0.00638  -0.02810   0.00295   0.01214   0.00083
 139        3S          0.00224  -0.06627   0.02832   0.08768  -0.00853
 140        4PX         0.01144  -0.02389   0.04632  -0.02328   0.02923
 141        4PY        -0.00172  -0.11174  -0.10998   0.12657  -0.10214
 142        4PZ         0.00521  -0.04385   0.27756  -0.02651   0.19181
 143        5PX         0.00812  -0.02306   0.04744  -0.01337   0.02576
 144        5PY        -0.00456  -0.08148  -0.08766   0.11296  -0.08688
 145        5PZ         0.00279  -0.02990   0.22565  -0.01977   0.15861
 146        6D 0        0.00031  -0.00004   0.00488  -0.00142   0.00254
 147        6D+1        0.00031   0.00142  -0.00079  -0.00164  -0.00086
 148        6D-1        0.00013  -0.00197   0.00395   0.00060   0.00148
 149        6D+2       -0.00027   0.00220   0.00231  -0.00086   0.00106
 150        6D-2        0.00021   0.00282   0.00056  -0.00353   0.00090
 151 13  C  1S          0.00092  -0.00703   0.01935   0.00238   0.02248
 152        2S         -0.00251   0.01366  -0.04855  -0.00146  -0.05129
 153        3S          0.00040   0.07981  -0.06456  -0.06682  -0.16088
 154        4PX         0.00544   0.01177  -0.07176   0.00665  -0.07559
 155        4PY         0.00108  -0.02597   0.07949  -0.00260   0.07774
 156        4PZ        -0.00192   0.00412  -0.03443  -0.00066  -0.03190
 157        5PX         0.00404  -0.02806  -0.03253   0.03947  -0.02755
 158        5PY        -0.00116  -0.00428   0.03089  -0.00876   0.07063
 159        5PZ        -0.00191   0.03124  -0.02566  -0.03092  -0.01959
 160        6D 0        0.00019   0.00081   0.00225  -0.00113   0.00241
 161        6D+1        0.00001   0.00123  -0.00144  -0.00087  -0.00110
 162        6D-1       -0.00007  -0.00131   0.00046   0.00071   0.00000
 163        6D+2       -0.00019   0.00284   0.00118  -0.00364   0.00251
 164        6D-2       -0.00026  -0.00187   0.00350   0.00114   0.00343
 165 14  C  1S         -0.00003  -0.00149   0.00024   0.00184  -0.00212
 166        2S          0.00009   0.00676  -0.00096  -0.00784   0.00313
 167        3S          0.00065  -0.06376  -0.00422   0.06580   0.05050
 168        4PX        -0.00712   0.00375   0.03690  -0.01502   0.04003
 169        4PY         0.00449  -0.00179  -0.00721   0.00486  -0.00518
 170        4PZ         0.00167  -0.00553   0.00254   0.00448  -0.00672
 171        5PX        -0.00414  -0.01782   0.03292   0.01325   0.04473
 172        5PY         0.00358  -0.00911  -0.00085   0.00465   0.00858
 173        5PZ         0.00059  -0.00542   0.00344   0.00510  -0.01383
 174        6D 0        0.00026   0.00019   0.00066  -0.00039   0.00023
 175        6D+1        0.00009  -0.00014  -0.00157   0.00035  -0.00145
 176        6D-1       -0.00026   0.00023   0.00011  -0.00029  -0.00001
 177        6D+2       -0.00022  -0.00009   0.00032   0.00005   0.00029
 178        6D-2       -0.00016  -0.00042   0.00321  -0.00082   0.00297
 179 15  C  1S          0.00008  -0.00039   0.00461  -0.00131   0.00495
 180        2S         -0.00008   0.00060  -0.01066   0.00291  -0.00950
 181        3S         -0.00246   0.01773  -0.00674  -0.00649  -0.03446
 182        4PX         0.00612   0.00234  -0.03425   0.00826  -0.02748
 183        4PY        -0.00458   0.00376   0.01532  -0.00813   0.01436
 184        4PZ        -0.00157   0.00418  -0.00403  -0.00032  -0.00173
 185        5PX         0.00358  -0.00049  -0.01492   0.00564  -0.02016
 186        5PY        -0.00146  -0.00512   0.00748   0.00085   0.01517
 187        5PZ        -0.00086   0.00567  -0.00314  -0.00127  -0.00659
 188        6D 0        0.00021  -0.00034  -0.00055   0.00040  -0.00074
 189        6D+1        0.00008   0.00012  -0.00063   0.00016  -0.00064
 190        6D-1       -0.00024   0.00018   0.00056  -0.00034   0.00080
 191        6D+2       -0.00013  -0.00000   0.00197  -0.00061   0.00193
 192        6D-2       -0.00032  -0.00020   0.00064   0.00002   0.00053
 193 16  C  1S         -0.00004   0.00015  -0.00345   0.00092  -0.00384
 194        2S          0.00007   0.00051   0.00731  -0.00268   0.00777
 195        3S          0.00178  -0.00857   0.01430   0.00027   0.02026
 196        4PX        -0.00666  -0.00114   0.03035  -0.00762   0.02493
 197        4PY         0.00495  -0.00187  -0.00462   0.00204  -0.00256
 198        4PZ         0.00050  -0.00090  -0.00119  -0.00003  -0.00139
 199        5PX        -0.00285  -0.00840   0.01772   0.00289   0.01876
 200        5PY         0.00246   0.00206  -0.00207  -0.00321  -0.00203
 201        5PZ        -0.00038  -0.00002  -0.00076   0.00028   0.00051
 202        6D 0        0.00012  -0.00003  -0.00006  -0.00003  -0.00002
 203        6D+1        0.00007   0.00019  -0.00063   0.00008  -0.00043
 204        6D-1       -0.00020   0.00007   0.00023  -0.00007   0.00020
 205        6D+2       -0.00011  -0.00024   0.00063   0.00003   0.00042
 206        6D-2       -0.00037   0.00021   0.00114  -0.00048   0.00101
 207 17  C  1S         -0.00049   0.00012   0.00225  -0.00082   0.00207
 208        2S          0.00114  -0.00043  -0.00477   0.00171  -0.00424
 209        3S          0.00108  -0.00258  -0.00974   0.00808  -0.00717
 210        4PX         0.00534  -0.00013  -0.01581   0.00449  -0.01103
 211        4PY        -0.00500   0.00048   0.01027  -0.00300   0.00796
 212        4PZ         0.00084  -0.00049  -0.00358   0.00164  -0.00347
 213        5PX         0.00202   0.00135  -0.00719   0.00155  -0.00845
 214        5PY        -0.00212   0.00151   0.00622  -0.00409   0.00487
 215        5PZ         0.00069  -0.00146  -0.00265   0.00238  -0.00215
 216        6D 0        0.00008  -0.00002  -0.00027   0.00005  -0.00026
 217        6D+1        0.00014  -0.00003  -0.00028   0.00009  -0.00018
 218        6D-1       -0.00020   0.00008   0.00042  -0.00016   0.00032
 219        6D+2       -0.00014  -0.00004   0.00106  -0.00031   0.00090
 220        6D-2       -0.00026   0.00004   0.00026  -0.00012   0.00009
 221 18  C  1S          0.00047   0.00007  -0.00230   0.00061  -0.00184
 222        2S         -0.00108   0.00009   0.00522  -0.00162   0.00421
 223        3S         -0.00159   0.00080   0.00851  -0.00348   0.00405
 224        4PX        -0.00461  -0.00019   0.01384  -0.00361   0.00955
 225        4PY         0.00283   0.00011  -0.00374   0.00079  -0.00209
 226        4PZ        -0.00067   0.00043   0.00051  -0.00030   0.00028
 227        5PX        -0.00260   0.00006   0.00908  -0.00270   0.00575
 228        5PY         0.00115   0.00103  -0.00134  -0.00050  -0.00127
 229        5PZ        -0.00033  -0.00022  -0.00015   0.00042   0.00012
 230        6D 0       -0.00003  -0.00000   0.00011  -0.00003   0.00014
 231        6D+1        0.00012  -0.00001  -0.00039   0.00012  -0.00030
 232        6D-1       -0.00009  -0.00002   0.00015  -0.00002   0.00010
 233        6D+2       -0.00005  -0.00000   0.00019  -0.00005   0.00007
 234        6D-2       -0.00033  -0.00002   0.00077  -0.00017   0.00058
 235 19  C  1S          0.01502  -0.00761  -0.01851  -0.00350   0.02234
 236        2S         -0.03511   0.01594   0.04620   0.00500  -0.05093
 237        3S         -0.04935   0.08075   0.05857   0.07360  -0.14256
 238        4PX        -0.13380  -0.01159  -0.06913   0.00395   0.07876
 239        4PY        -0.17111  -0.00497   0.00299   0.00263  -0.00089
 240        4PZ         0.05601  -0.02652  -0.08469  -0.00060   0.08545
 241        5PX        -0.07394   0.03103  -0.02930   0.04100   0.03113
 242        5PY        -0.06665   0.02773   0.01691   0.03110   0.00544
 243        5PZ         0.02833  -0.01402  -0.03499  -0.00388   0.06861
 244        6D 0        0.00117  -0.00156   0.00141  -0.00247  -0.00238
 245        6D+1        0.00011   0.00206   0.00421   0.00119  -0.00417
 246        6D-1       -0.01034  -0.00259   0.00152  -0.00260  -0.00262
 247        6D+2       -0.00886   0.00152   0.00155   0.00144  -0.00055
 248        6D-2        0.00664  -0.00027  -0.00001  -0.00024  -0.00019
 249 20  C  1S         -0.01507  -0.00142   0.00194  -0.00224  -0.00417
 250        2S          0.03488   0.00776  -0.00441   0.01062   0.01067
 251        3S          0.03747  -0.07387  -0.00879  -0.08084   0.03013
 252        4PX         0.14499  -0.00432   0.03353  -0.01319  -0.04141
 253        4PY         0.20736  -0.00322  -0.00632  -0.00311  -0.00031
 254        4PZ        -0.08158   0.00239   0.02075  -0.00407  -0.01499
 255        5PX         0.06008   0.02318   0.02714   0.01945  -0.04161
 256        5PY         0.08611  -0.01461  -0.00906  -0.01234  -0.00604
 257        5PZ        -0.03457  -0.00073   0.00562   0.00085   0.00189
 258        6D 0        0.00040  -0.00026   0.00088  -0.00039  -0.00083
 259        6D+1        0.00147   0.00059   0.00420  -0.00069  -0.00415
 260        6D-1       -0.00726  -0.00014  -0.00002  -0.00001   0.00009
 261        6D+2       -0.01062   0.00003   0.00073  -0.00024  -0.00034
 262        6D-2        0.00476   0.00023  -0.00091   0.00002   0.00088
 263 21  C  1S         -0.00382   0.00025   0.00048   0.00038   0.00137
 264        2S          0.00982  -0.00111  -0.00202  -0.00153  -0.00260
 265        3S          0.02151   0.01704   0.00926   0.01881  -0.01034
 266        4PX        -0.15221   0.00417  -0.01942   0.00701   0.02086
 267        4PY        -0.18498   0.00243   0.01192   0.00016  -0.00647
 268        4PZ         0.13086  -0.00111  -0.02174   0.00227   0.01980
 269        5PX        -0.08336  -0.00981  -0.00047  -0.01084  -0.00561
 270        5PY        -0.09849  -0.00961   0.00987  -0.01336  -0.01321
 271        5PZ         0.06382   0.00841  -0.00962   0.00863   0.01356
 272        6D 0       -0.00039  -0.00010   0.00173  -0.00053  -0.00177
 273        6D+1       -0.00495  -0.00019   0.00092  -0.00039  -0.00087
 274        6D-1       -0.00680  -0.00021  -0.00059  -0.00001   0.00070
 275        6D+2       -0.01131   0.00016  -0.00061   0.00026   0.00088
 276        6D-2        0.00382   0.00022  -0.00100   0.00052   0.00110
 277 22  C  1S         -0.00507  -0.00045   0.00365  -0.00130  -0.00442
 278        2S          0.01398   0.00117  -0.00794   0.00311   0.00927
 279        3S          0.01187   0.00912  -0.02628   0.01488   0.03489
 280        4PX         0.15467  -0.00428   0.01918  -0.00733  -0.02056
 281        4PY         0.17822  -0.00181   0.00214  -0.00182  -0.00404
 282        4PZ        -0.14418   0.00054   0.00111   0.00128   0.00030
 283        5PX         0.06922  -0.00284   0.01540  -0.00509  -0.02106
 284        5PY         0.08641   0.00255  -0.00052   0.00402  -0.00229
 285        5PZ        -0.05880  -0.00229  -0.00229  -0.00169   0.00372
 286        6D 0       -0.00183  -0.00011   0.00050  -0.00015  -0.00049
 287        6D+1       -0.00563   0.00009   0.00093  -0.00004  -0.00085
 288        6D-1       -0.00564   0.00005   0.00007   0.00004   0.00009
 289        6D+2       -0.01207   0.00022  -0.00035   0.00026   0.00053
 290        6D-2        0.00422  -0.00005  -0.00053   0.00001   0.00029
 291 23  C  1S         -0.01920   0.00023   0.00057   0.00021  -0.00005
 292        2S          0.04275  -0.00064  -0.00158  -0.00048   0.00014
 293        3S          0.07431  -0.00647   0.00099  -0.00870  -0.00172
 294        4PX        -0.12029   0.00195  -0.00173   0.00177   0.00220
 295        4PY        -0.18720   0.00181  -0.00013   0.00174   0.00240
 296        4PZ         0.13772  -0.00068   0.00178  -0.00135  -0.00277
 297        5PX        -0.04255  -0.00270  -0.00355  -0.00264   0.00214
 298        5PY        -0.09549   0.00230  -0.00141   0.00305   0.00214
 299        5PZ         0.05914  -0.00138   0.00331  -0.00214  -0.00343
 300        6D 0       -0.00202  -0.00001   0.00013   0.00001  -0.00012
 301        6D+1       -0.00348  -0.00001   0.00013  -0.00003  -0.00016
 302        6D-1       -0.00524   0.00010  -0.00012   0.00009   0.00013
 303        6D+2       -0.01142   0.00015  -0.00027   0.00019   0.00028
 304        6D-2        0.00225   0.00003  -0.00036   0.00009   0.00036
 305 24  C  1S          0.01515  -0.00033   0.00079  -0.00042  -0.00092
 306        2S         -0.03436   0.00059  -0.00173   0.00077   0.00171
 307        3S         -0.05881   0.00557  -0.00055   0.00635   0.00355
 308        4PX         0.11504  -0.00185   0.00265  -0.00182  -0.00306
 309        4PY         0.12266  -0.00116   0.00188  -0.00116  -0.00212
 310        4PZ        -0.07820   0.00048  -0.00196   0.00067   0.00183
 311        5PX         0.07195  -0.00312   0.00110  -0.00337  -0.00254
 312        5PY         0.06379  -0.00078   0.00136  -0.00090  -0.00215
 313        5PZ        -0.03358   0.00033  -0.00117   0.00035   0.00125
 314        6D 0       -0.00112  -0.00004  -0.00003  -0.00002   0.00002
 315        6D+1       -0.00559   0.00001  -0.00011   0.00005   0.00015
 316        6D-1       -0.00552   0.00005  -0.00014   0.00006   0.00018
 317        6D+2       -0.00810   0.00013  -0.00018   0.00014   0.00025
 318        6D-2        0.00577  -0.00002   0.00004  -0.00003  -0.00013
 319 25  H  1S          0.01504   0.03151  -0.09673   0.05901   0.07248
 320        2S          0.01677   0.03246  -0.05564   0.05650   0.05685
 321        3PX        -0.00093  -0.00043   0.00035  -0.00036  -0.00011
 322        3PY        -0.00057  -0.00101  -0.00312  -0.00007   0.00182
 323        3PZ        -0.00067  -0.00308  -0.00126  -0.00241   0.00046
 324 26  H  1S          0.01095   0.02949   0.10831   0.01291  -0.06972
 325        2S          0.00971   0.02988   0.07079   0.02303  -0.04360
 326        3PX        -0.00005   0.00005  -0.00048   0.00022   0.00023
 327        3PY        -0.00092  -0.00341   0.00078  -0.00321  -0.00082
 328        3PZ         0.00042  -0.00009   0.00276  -0.00061  -0.00168
 329 27  H  1S         -0.00105   0.02847  -0.11018  -0.01055  -0.06723
 330        2S         -0.00050   0.02908  -0.07100  -0.02157  -0.04133
 331        3PX        -0.00014  -0.00017  -0.00066   0.00039  -0.00036
 332        3PY         0.00003  -0.00146  -0.00282   0.00188  -0.00168
 333        3PZ         0.00005  -0.00310   0.00042   0.00271   0.00001
 334 28  H  1S          0.00520   0.03223   0.09840  -0.06138   0.06818
 335        2S          0.00248   0.03290   0.05568  -0.05804   0.05296
 336        3PX        -0.00001   0.00027   0.00041  -0.00022   0.00008
 337        3PY         0.00015  -0.00324   0.00246   0.00223   0.00118
 338        3PZ         0.00019   0.00030   0.00243  -0.00095   0.00144
 339 29  H  1S          0.00047  -0.02230   0.01215   0.01262   0.00282
 340        2S          0.00072  -0.05401   0.03017   0.04997   0.01449
 341        3PX         0.00004   0.00048  -0.00123   0.00034  -0.00112
 342        3PY        -0.00002   0.00046   0.00124  -0.00060   0.00169
 343        3PZ        -0.00007   0.00025  -0.00153   0.00027  -0.00089
 344 30  H  1S          0.00211   0.00646   0.01913  -0.00671   0.01639
 345        2S          0.00126   0.00292   0.03717  -0.01229   0.05469
 346        3PX         0.00008   0.00077  -0.00064  -0.00062  -0.00054
 347        3PY         0.00004  -0.00146   0.00185   0.00080   0.00095
 348        3PZ         0.00005   0.00038  -0.00010  -0.00035  -0.00038
 349 31  H  1S          0.00279  -0.00305   0.00367   0.00169  -0.00256
 350        2S          0.00166   0.00918   0.00997  -0.01183   0.00993
 351        3PX        -0.00009   0.00039   0.00093  -0.00081   0.00118
 352        3PY         0.00006   0.00024  -0.00050   0.00007  -0.00080
 353        3PZ        -0.00008  -0.00004   0.00024   0.00004   0.00026
 354 32  H  1S         -0.00211   0.00304   0.00091  -0.00568   0.00395
 355        2S         -0.00055   0.00309   0.01488  -0.01108   0.01029
 356        3PX        -0.00015   0.00032   0.00090  -0.00072   0.00096
 357        3PY        -0.00004   0.00035  -0.00042  -0.00024  -0.00030
 358        3PZ         0.00002  -0.00023  -0.00017   0.00016   0.00006
 359 33  H  1S          0.00224  -0.00355  -0.00437   0.00285  -0.00681
 360        2S          0.00157  -0.00182  -0.00316   0.00210  -0.00547
 361        3PX         0.00010   0.00016  -0.00052   0.00004  -0.00012
 362        3PY        -0.00015   0.00021   0.00030  -0.00025   0.00020
 363        3PZ         0.00005   0.00007  -0.00059   0.00008  -0.00070
 364 34  H  1S         -0.00308   0.00548  -0.00424  -0.00269  -0.00197
 365        2S         -0.00179   0.00636  -0.00291  -0.00658   0.00125
 366        3PX         0.00017  -0.00011  -0.00054   0.00025  -0.00022
 367        3PY         0.00003  -0.00043   0.00070   0.00020   0.00043
 368        3PZ         0.00003  -0.00023   0.00014   0.00018   0.00024
 369 35  H  1S          0.00125  -0.00078  -0.00125  -0.00028  -0.00092
 370        2S          0.00084  -0.00193  -0.00255   0.00197  -0.00449
 371        3PX        -0.00012   0.00010   0.00062  -0.00030   0.00041
 372        3PY         0.00013  -0.00018  -0.00009   0.00019   0.00003
 373        3PZ        -0.00003   0.00008   0.00007  -0.00006   0.00003
 374 36  H  1S         -0.00273   0.00312  -0.00051  -0.00151   0.00004
 375        2S         -0.00207   0.00281  -0.00249  -0.00119  -0.00146
 376        3PX        -0.00019   0.00019   0.00057  -0.00036   0.00044
 377        3PY        -0.00001  -0.00004  -0.00014   0.00014   0.00001
 378        3PZ        -0.00003   0.00006  -0.00009  -0.00007  -0.00012
 379 37  H  1S          0.00021   0.00012  -0.00104  -0.00009  -0.00049
 380        2S          0.00024  -0.00034  -0.00003  -0.00031   0.00018
 381        3PX         0.00012  -0.00006  -0.00037   0.00014  -0.00017
 382        3PY        -0.00013  -0.00002   0.00020  -0.00001   0.00016
 383        3PZ         0.00002  -0.00001  -0.00013   0.00004  -0.00005
 384 38  H  1S         -0.00193   0.00038  -0.00071   0.00036  -0.00088
 385        2S         -0.00143   0.00002   0.00039   0.00042  -0.00004
 386        3PX         0.00015  -0.00002  -0.00037   0.00009  -0.00014
 387        3PY        -0.00004   0.00003   0.00024  -0.00011   0.00018
 388        3PZ         0.00006   0.00005  -0.00003  -0.00005  -0.00006
 389 39  H  1S         -0.00129  -0.00013   0.00118  -0.00017   0.00079
 390        2S         -0.00077   0.00017   0.00041  -0.00011   0.00017
 391        3PX        -0.00013   0.00003   0.00033  -0.00012   0.00022
 392        3PY         0.00005  -0.00004  -0.00008   0.00004  -0.00004
 393        3PZ        -0.00007   0.00004   0.00009  -0.00005   0.00004
 394 40  H  1S          0.00459  -0.00010  -0.00951   0.00248  -0.00631
 395        2S          0.00270  -0.00063  -0.00723   0.00258  -0.00511
 396        3PX         0.00000  -0.00003   0.00016  -0.00001   0.00018
 397        3PY        -0.00013   0.00003   0.00027  -0.00010   0.00017
 398        3PZ         0.00008   0.00000  -0.00016   0.00004  -0.00010
 399 41  H  1S         -0.00058   0.00043   0.00112  -0.00057   0.00109
 400        2S         -0.00014   0.00056   0.00016  -0.00061   0.00062
 401        3PX        -0.00011   0.00002   0.00031  -0.00011   0.00021
 402        3PY         0.00011  -0.00003  -0.00015   0.00006  -0.00006
 403        3PZ         0.00001  -0.00003  -0.00003   0.00003  -0.00005
 404 42  H  1S         -0.07720  -0.02254  -0.01331  -0.01221   0.00315
 405        2S         -0.04326  -0.05598  -0.03215  -0.05139   0.01478
 406        3PX        -0.00416  -0.00035  -0.00123   0.00046   0.00127
 407        3PY        -0.00206   0.00044   0.00101  -0.00001  -0.00030
 408        3PZ         0.00444   0.00024  -0.00173   0.00048   0.00205
 409 43  H  1S          0.19456   0.00594  -0.02175   0.00638   0.01944
 410        2S          0.11648   0.00176  -0.03589   0.00933   0.05481
 411        3PX        -0.00123  -0.00093  -0.00064  -0.00084   0.00060
 412        3PY         0.00451  -0.00034  -0.00067  -0.00011   0.00008
 413        3PZ        -0.00433  -0.00144  -0.00184  -0.00081   0.00128
 414 44  H  1S         -0.05197  -0.00042  -0.00548   0.00474   0.00697
 415        2S         -0.03805   0.00007  -0.01611   0.00942   0.01261
 416        3PX         0.00420  -0.00039   0.00121  -0.00082  -0.00134
 417        3PY         0.00287  -0.00002  -0.00007   0.00013   0.00023
 418        3PZ        -0.00362   0.00020   0.00091  -0.00004  -0.00090
 419 45  H  1S         -0.00307   0.00279   0.04077  -0.00899  -0.03870
 420        2S         -0.00843   0.00653   0.02962  -0.00318  -0.03554
 421        3PX         0.00290  -0.00046   0.00036  -0.00056  -0.00045
 422        3PY         0.00531   0.00028   0.00014   0.00010  -0.00002
 423        3PZ        -0.00177   0.00002  -0.00131   0.00041   0.00140
 424 46  H  1S         -0.00779  -0.00263   0.00465  -0.00354  -0.00490
 425        2S         -0.01063  -0.00033   0.00167   0.00016  -0.00073
 426        3PX        -0.00287   0.00037  -0.00043   0.00045   0.00058
 427        3PY        -0.00371   0.00025  -0.00013   0.00026   0.00038
 428        3PZ         0.00364  -0.00018  -0.00111   0.00004   0.00094
 429 47  H  1S         -0.06757  -0.00146   0.02589  -0.00624  -0.02480
 430        2S         -0.03706   0.00391   0.01190  -0.00071  -0.00874
 431        3PX        -0.00538   0.00030   0.00099   0.00013  -0.00108
 432        3PY        -0.00434   0.00038   0.00057   0.00032  -0.00035
 433        3PZ        -0.00065   0.00011   0.00084  -0.00008  -0.00094
 434 48  H  1S          0.00423  -0.00011   0.00224  -0.00077  -0.00112
 435        2S          0.00010  -0.00160   0.00416  -0.00245  -0.00354
 436        3PX         0.00305  -0.00009   0.00042  -0.00017  -0.00037
 437        3PY         0.00442  -0.00017   0.00007  -0.00021   0.00003
 438        3PZ        -0.00419   0.00009   0.00027   0.00009  -0.00022
 439 49  H  1S         -0.08004  -0.00046   0.00810  -0.00074  -0.00696
 440        2S         -0.05312  -0.00092   0.01136  -0.00267  -0.01191
 441        3PX         0.00482  -0.00005   0.00026  -0.00012  -0.00022
 442        3PY         0.00419  -0.00016  -0.00013  -0.00014   0.00017
 443        3PZ         0.00069   0.00006  -0.00016   0.00004   0.00004
 444 50  H  1S         -0.00084  -0.00020   0.00148  -0.00068  -0.00117
 445        2S         -0.00206  -0.00063   0.00053  -0.00098  -0.00067
 446        3PX        -0.00234   0.00014  -0.00003   0.00014   0.00009
 447        3PY        -0.00438   0.00011   0.00004   0.00012   0.00005
[...]
 ,0.00000197,0.00001299,0.00000601,-0.00000408,-0.00002085,0.00001552,0
 .00000091,0.00000097,0.00000086,-0.00000044,-0.00000042,0.00000022,-0.
 00000059,0.00000056,-0.00000149,-0.00000086,-0.00000152,0.00000233,0.0
 0000102,-0.00000019,0.00000172,0.00000034,0.00000042,-0.00000023,-0.00
 000038,-0.00000058,0.00000155,-0.00000022,0.00000042,-0.00000064,0.000
 00055,-0.00000018,0.00000109,0.00000021,0.00000027,-0.00000017,-0.0000
 0004,-0.00000035,0.00000090,-0.00000008,0.00000020,-0.00000037,0.00000
 009,0.00000023,-0.00000008,0.00000031,-0.00000012,-0.00000028,0.000000
 23,-0.00000004,0.00000073,0.00000530,0.00000105,0.00000256,-0.00000652
 ,0.00000027,0.00000199,0.00001764,-0.00000508,-0.00002584,0.00006391,0
 .00016732,0.00032351,0.00000816,-0.00002459,0.00001754,-0.00116052,-0.
 00047058,0.00039764,0.00011563,-0.00017060,0.00106582,-0.00137381,-0.0
 0391324,-0.00215284,0.00235718,0.00124871,-0.00617964,-0.09045028,-0.0
 6861283,0.27433806,0.00001079,0.00000575,0.00000696,0.00000962,0.00001
 922,0.00002870,0.00000394,-0.00000658,-0.00000502,-0.00000785,-0.00000
 746,-0.00001273,0.00000907,-0.00000130,0.00000303,-0.00001387,-0.00000
 336,-0.00000567,0.00001379,0.00000570,0.00000324,-0.00000959,0.0000012
 7,-0.00000395,0.00000336,-0.00000014,0.00000164,-0.00000197,-0.0000003
 3,-0.00000135,0.00000422,-0.00000054,0.00000166,-0.00000987,-0.0000012
 3,-0.00000197,-0.00000087,-0.00000150,0.00000023,0.00000062,0.00000071
 ,0.00000101,-0.00000050,-0.00000071,-0.00000012,0.00000037,0.00000044,
 0.00000072,-0.00000020,-0.00000052,-0.00000013,0.00000009,0.00000028,0
 .00000034,0.00001542,-0.00000003,0.00000506,0.00006151,0.00004608,-0.0
 0009925,-0.00004284,0.00014546,-0.00014970,0.00146578,0.00081541,0.001
 64035,-0.01266062,-0.01057262,0.02968502,-0.08348051,-0.03092487,0.088
 44019,-0.00000014,-0.00000189,-0.00000216,0.00000120,0.00000720,-0.000
 00379,-0.00000072,-0.00000049,-0.00000056,-0.00000047,0.00000006,0.000
 00024,0.00000053,-0.00000019,0.00000058,0.00000046,0.00000057,-0.00000
 091,-0.00000046,0.00000004,-0.00000076,-0.00000007,-0.00000010,0.00000
 007,0.00000017,0.00000023,-0.00000056,0.00000013,0.,0.00000026,-0.0000
 0025,0.00000003,-0.00000046,-0.00000006,-0.00000005,0.00000003,0.00000
 002,0.00000013,-0.00000031,0.00000007,0.00000005,0.00000014,0.,-0.0000
 0009,-0.00000002,-0.00000034,0.00000012,0.00000019,-0.00000009,-0.0000
 0005,-0.00000035,-0.00000422,0.00000355,0.00000390,-0.00000454,-0.0000
 0467,-0.00000339,0.00000170,-0.00000229,0.00000004,-0.00001975,-0.0000
 4418,-0.00005835,-0.00001627,0.00001015,0.00003665,0.00027615,0.000122
 21,-0.00014915,0.00001744,-0.00000209,-0.00013671,0.00007143,-0.000283
 78,-0.00107853,0.00122404,0.00044773,0.00006606,-0.00657395,-0.0010021
 7,-0.00103071,0.09303774,-0.00000238,-0.00000170,0.00000889,0.00000268
 ,-0.00000256,0.00001452,-0.00000138,0.00000114,0.00000143,0.00001405,0
 .00000632,-0.00001200,-0.00000078,-0.00000695,0.00000545,0.00000310,0.
 00000705,-0.00000603,-0.00000936,0.00000088,0.00000043,0.00000716,-0.0
 0000340,-0.00000163,-0.00000234,0.00000057,0.00000095,0.00000089,0.000
 00040,0.00000020,-0.00000221,0.00000059,0.00000042,0.00000545,-0.00000
 133,0.00000006,0.00000073,0.00000132,0.00000097,-0.00000005,-0.0000006
 8,-0.00000064,0.00000045,0.00000074,0.00000066,0.00000003,-0.00000034,
 -0.00000031,0.00000022,0.00000042,0.00000032,0.00000009,-0.00000015,-0
 .00000012,0.00000050,0.00000734,-0.00000896,-0.00001038,-0.00001581,0.
 00000566,-0.00002224,-0.00000439,-0.00022719,0.00020537,0.00013965,0.0
 0108667,-0.00082404,-0.00183529,0.00274142,-0.03127523,-0.07214441,0.0
 7306638,-0.00000039,-0.00000265,-0.00000069,0.00000048,0.00000097,-0.0
 0000236,0.00000010,-0.00000011,0.00000003,0.00000061,0.00000022,-0.000
 00040,-0.00000017,-0.00000026,0.00000030,0.00000002,0.00000028,-0.0000
 0038,-0.00000008,0.00000013,-0.00000020,-0.00000022,-0.00000028,0.0000
 0007,0.00000004,0.00000012,-0.00000031,-0.00000002,-0.00000040,0.00000
 013,-0.00000005,0.00000011,-0.00000015,-0.00000012,-0.00000021,0.00000
 007,0.,0.00000009,-0.00000020,-0.00000005,-0.00000027,0.00000009,-0.00
 000008,-0.00000010,0.00000008,0.00000021,-0.00000006,-0.00000007,-0.00
 000004,0.00000011,-0.00000005,0.00000279,-0.00000082,0.00000272,0.0000
 0117,0.00000071,0.00000130,-0.00000105,-0.00000358,0.00000196,-0.00000
 725,-0.00000021,-0.00003092,0.00004803,-0.00002181,0.00001029,0.000126
 77,-0.00000017,-0.00006584,-0.00001655,-0.00004001,0.00008722,-0.00023
 890,0.00004143,-0.00041928,0.00009555,0.00038151,-0.00074078,-0.000726
 51,0.00097274,-0.00031355,0.03478144,0.07204521,-0.00001597,-0.0000089
 3,-0.00000539,-0.00001164,-0.00000871,0.00000163,-0.00000474,0.0000028
 3,0.00000600,0.00002491,0.00001190,-0.00000082,-0.00001474,-0.00000341
 ,-0.00000043,0.00002308,0.00001120,0.00000245,-0.00002794,-0.00000955,
 -0.00000293,0.00001968,-0.00000320,0.00000327,-0.00000690,0.00000033,-
 0.00000148,0.00000320,0.00000053,0.00000201,-0.00000860,0.00000112,-0.
 00000261,0.00002001,0.00000274,0.00000323,0.00000150,0.00000261,0.0000
 0047,-0.00000095,-0.00000152,-0.00000197,0.00000088,0.00000123,0.00000
 064,-0.00000062,-0.00000095,-0.00000135,0.00000031,0.00000094,0.000000
 45,-0.00000013,-0.00000057,-0.00000068,-0.00001029,0.00002622,0.000014
 95,0.00009752,0.00000268,-0.00002986,-0.00021678,0.00000805,0.00032678
 ,-0.00054467,-0.00038657,0.00120018,-0.00160653,-0.00178141,0.00289137
 ,0.08954967,0.07330569,-0.25523874,-0.00000058,-0.00000223,0.00000036,
 -0.00000209,-0.00000365,0.00000309,0.00000119,0.00000073,0.00000103,0.
 00000124,0.00000010,-0.00000075,-0.00000091,0.00000030,-0.00000053,-0.
 00000050,-0.00000052,0.00000097,0.00000049,-0.00000012,0.00000100,0.00
 000006,0.00000023,-0.00000016,-0.00000018,-0.00000027,0.00000066,-0.00
 000017,-0.00000001,-0.00000031,0.00000030,-0.00000006,0.00000067,0.000
 00010,0.00000014,-0.00000007,0.,-0.00000019,0.00000041,-0.00000008,-0.
 00000005,-0.00000020,0.,0.00000026,0.00000006,0.00000071,-0.00000032,-
 0.00000039,0.00000009,0.00000010,0.00000061,0.00000053,-0.00000396,-0.
 00000431,0.00001989,0.00000871,0.00000657,0.00000146,0.00000713,-0.000
 00008,0.00000646,-0.00000154,-0.00000071,0.00001635,-0.00000523,-0.000
 01599,-0.00011836,-0.00005609,-0.00012715,0.00003121,-0.00001027,-0.00
 007021,0.00034775,0.00048646,0.00025598,0.00051596,-0.00017739,0.00048
 250,-0.00074411,-0.00058744,0.00128899,-0.09740756,-0.07930007,0.27113
 817,0.00001936,0.00002389,-0.00001448,0.00004087,0.00002595,-0.0000516
 7,0.00001923,-0.00000463,-0.00001795,-0.00007119,-0.00004243,0.0000415
 4,0.00001470,0.00004359,-0.00002343,-0.00002944,-0.00005168,0.00002016
 ,0.00006697,0.00001689,0.00000175,-0.00004594,0.00001033,0.00000250,0.
 00001535,-0.00000103,-0.00000152,-0.00000650,-0.00000150,-0.00000247,0
 .00001616,-0.00000244,0.00000178,-0.00004282,-0.00000596,-0.00000366,-
 0.00000405,-0.00000607,-0.00000465,0.00000127,0.00000390,0.00000416,-0
 .00000229,-0.00000283,-0.00000337,0.00000059,0.00000218,0.00000231,-0.
 00000095,-0.00000173,-0.00000179,-0.00000013,0.00000106,0.00000105,0.0
 0004192,-0.00020743,-0.00015568,-0.00075880,0.00013939,0.00012373,0.00
 026359,-0.00152370,-0.00150759,-0.00686174,0.00074837,0.00121888,-0.00
 528155,-0.02318956,-0.02371038,-0.05824566,-0.04006941,-0.04059716,0.0
 0000269,0.00001146,-0.00000067,0.00000434,0.00000178,0.00000264,-0.000
 00226,-0.00000060,-0.00000147,-0.00000381,-0.00000074,0.00000203,0.000
 00162,-0.00000002,-0.00000052,0.00000055,-0.00000066,0.00000050,-0.000
 00009,-0.00000002,-0.00000010,0.00000027,0.00000008,0.00000001,0.00000
 003,-0.00000023,0.00000066,0.00000015,0.00000074,-0.00000018,0.,-0.000
 00013,0.00000004,0.00000005,0.00000011,-0.00000012,0.,-0.00000014,0.00
 000047,0.00000011,0.00000051,-0.00000013,0.00000013,-0.00000021,-0.000
 00028,-0.00000129,0.00000055,0.00000041,0.00000011,-0.00000031,-0.0000
 0024,0.00000605,0.00001025,0.00000937,-0.00011172,-0.00002414,-0.00002
 562,0.00001277,-0.00002476,0.00001716,0.00001764,0.00002959,0.00000110
 ,0.00001895,0.00008515,-0.00004150,0.00003938,-0.00004048,0.00009312,0
 .00006570,-0.00009533,0.00026567,0.00004643,0.00028455,-0.00005083,0.0
 0115050,0.00047994,-0.00017038,0.00118412,-0.00009568,0.00043726,0.001
 73991,0.00906273,0.00763418,0.06427249,0.00001753,0.00001271,-0.000010
 45,0.00002355,0.00001622,-0.00002052,0.00000931,-0.00000142,-0.0000138
 8,-0.00004665,-0.00002821,0.00002173,0.00001342,0.00002667,-0.00001427
 ,-0.00002441,-0.00003287,0.00001303,0.00004559,0.00001595,0.00000051,-
 0.00003122,0.00000462,0.00000214,0.00001080,-0.00000042,-0.00000117,-0
 .00000402,-0.00000092,-0.00000152,0.00001229,-0.00000174,0.00000093,-0
 .00003131,-0.00000685,-0.00000194,-0.00000238,-0.00000320,-0.00000327,
 0.00000105,0.00000259,0.00000269,-0.00000141,-0.00000144,-0.00000261,0
 .00000059,0.00000162,0.00000163,-0.00000056,-0.00000104,-0.00000157,-0
 .00000003,0.00000084,0.00000083,0.00002880,-0.00004815,-0.00003360,-0.
 00014538,0.00006087,0.00006428,0.00027354,0.00011921,-0.00049468,-0.00
 127151,0.00079577,0.00051516,0.00090670,-0.00236837,-0.00054035,-0.041
 28434,-0.17642312,-0.13231933,0.00000239,0.00000705,0.00000197,0.00000
 377,0.00000131,0.00000010,-0.00000153,-0.00000050,-0.00000120,-0.00000
 283,-0.00000043,0.00000170,0.00000127,-0.00000042,-0.00000015,0.000000
 45,-0.00000035,0.00000036,-0.00000001,0.00000010,0.00000002,-0.0000000
 9,-0.00000036,0.00000002,0.00000008,-0.00000011,0.00000054,0.00000011,
 0.00000008,-0.00000002,0.00000003,-0.00000003,0.00000010,-0.00000016,-
 0.00000022,-0.00000009,0.00000005,-0.00000005,0.00000042,0.00000002,0.
 00000009,-0.00000004,0.,-0.00000041,-0.00000025,-0.00000107,0.00000059
 ,0.00000035,0.00000012,-0.00000022,-0.00000018,0.00000276,0.00000221,0
 .00000788,-0.00003374,-0.00001433,-0.00000582,0.00000810,-0.00000741,-
 0.00000627,0.00000246,0.00000075,0.00000102,-0.00010856,-0.00000355,-0
 .00001125,0.00001032,-0.00001858,0.00004061,0.00013163,0.00051026,0.00
 017905,0.00008824,-0.00003441,-0.00015444,-0.00022541,0.00065799,0.000
 26284,-0.00014859,-0.00010050,0.00008314,0.00290489,0.00743374,0.00818
 004,0.04550350,0.18547393,0.00001956,0.00001400,-0.00000437,0.00001949
 ,0.00001720,-0.00001357,0.00001103,-0.00000608,-0.00001266,-0.00004384
 ,-0.00002381,0.00001500,0.00001674,0.00001723,-0.00000884,-0.00002819,
 -0.00002559,0.00000640,0.00004396,0.00001188,0.00000244,-0.00003141,0.
 00000704,0.00000016,0.00001085,-0.00000093,-0.00000046,-0.00000445,-0.
 00000102,-0.00000206,0.00001241,-0.00000192,0.00000181,-0.00002993,-0.
 00000305,-0.00000318,-0.00000258,-0.00000421,-0.00000235,0.00000109,0.
 00000262,0.00000285,-0.00000157,-0.00000215,-0.00000202,0.00000060,0.0
 0000158,0.00000177,-0.00000064,-0.00000148,-0.00000120,-0.00000003,0.0
 0000085,0.00000086,0.00002998,-0.00003717,-0.00002423,-0.00010550,0.00
 006661,0.00005460,0.00028896,-0.00039800,0.00017254,-0.00085566,0.0003
 8413,0.00079843,0.00117209,0.00096243,-0.00099394,-0.04184652,-0.13237
 194,-0.17972498,0.00000135,0.00000543,0.00000011,0.00000300,0.00000319
 ,-0.00000085,-0.00000147,-0.00000055,-0.00000118,-0.00000239,-0.000000
 48,0.00000151,0.00000125,-0.00000010,-0.00000011,0.00000049,-0.0000001
 2,-0.00000013,-0.00000025,0.,-0.00000043,0.00000016,0.00000003,0.00000
 007,0.00000010,-0.00000003,0.00000010,0.00000018,0.00000048,0.,-0.0000
 0013,-0.00000007,-0.00000023,0.,0.00000007,-0.00000005,0.,-0.00000001,
 0.00000012,0.00000013,0.00000038,-0.00000002,0.00000010,-0.00000020,-0
 .00000021,-0.00000110,0.00000049,0.00000046,0.00000004,-0.00000026,-0.
 00000040,0.00000068,0.00000353,0.00000493,-0.00002644,-0.00000899,-0.0
 0000676,0.00000037,-0.00000852,0.00000006,0.00001118,0.00000096,0.0000
 0194,0.00000158,0.00003179,-0.00001698,-0.00010274,-0.00001804,0.00000
 808,0.00008928,-0.00013622,-0.00005494,0.00014033,0.00015418,0.0005126
 0,-0.00023732,0.00006167,-0.00007508,-0.00027686,0.00023274,0.00066395
 ,-0.00652419,-0.01911253,-0.01652586,0.04572122,0.14306993,0.18892985,
 -0.00001485,0.00000450,-0.00001115,0.00000604,0.00002174,0.00000738,0.
 00000128,0.00000160,-0.00000971,-0.00000703,-0.00002684,0.00000504,-0.
 00000968,0.00003677,-0.00001668,0.00002100,-0.00002919,0.00001707,0.00
 001042,0.00001296,-0.00000029,-0.00000396,-0.00000553,0.00000035,0.000
 00225,0.00000099,0.00000008,-0.00000020,-0.00000003,-0.00000011,0.0000
 0181,0.00000009,0.00000011,-0.00000830,-0.00000981,0.00000082,0.000000
 09,0.00000095,-0.00000042,0.00000050,0.00000020,0.00000016,0.,0.000000
 55,-0.00000051,0.00000036,0.00000034,0.00000026,0.00000002,0.00000013,
 -0.00000043,0.00000012,0.00000021,0.00000021,0.00001242,0.00000585,0.0
 0001258,0.00005469,-0.00008181,0.00003539,0.00000984,-0.00020567,0.000
 13580,0.00148372,0.00166040,0.00079038,-0.01490600,0.02907308,-0.00875
 989,-0.09913502,0.10316873,-0.03042863,0.00000117,-0.00000211,-0.00000
 484,-0.00000268,0.00000166,0.00000658,-0.00000052,-0.00000031,-0.00000
 057,-0.00000078,0.00000021,0.00000045,0.00000055,-0.00000091,0.0000004
 9,0.00000026,0.00000035,-0.00000015,-0.00000004,0.00000019,-0.00000009
 ,-0.00000061,-0.00000077,0.00000005,0.00000012,0.00000018,0.,0.0000000
 7,-0.00000072,0.00000022,-0.00000001,0.00000010,-0.00000004,-0.0000003
 4,-0.00000048,0.00000002,0.00000006,0.00000012,0.00000004,-0.00000005,
 -0.00000040,0.00000012,-0.00000015,-0.00000036,-0.00000004,-0.00000024
 ,0.00000022,0.00000007,0.00000002,0.00000002,-0.00000008,0.00001066,0.
 00000123,0.00001036,-0.00000384,-0.00000237,-0.00000330,-0.00002030,-0
 .00006482,-0.00003559,-0.00000425,-0.00000244,-0.00000878,0.00029525,-
 0.00010480,0.00011052,-0.00000713,0.00005081,0.00000933,0.00008807,-0.
 00110396,-0.00033854,0.00002067,-0.00012869,-0.00001580,-0.00650359,-0
 .00152215,-0.00052144,0.00121210,0.00004685,0.00041243,0.00488043,-0.0
 1121878,0.00242632,0.00240620,-0.00663815,0.00252500,0.11010939,-0.000
 00043,-0.00000923,0.00000556,-0.00001093,-0.00001626,0.00000573,-0.000
 00467,0.00000271,0.00000881,0.00002266,0.00002668,-0.00001109,-0.00000
 004,-0.00003115,0.00001452,0.00000031,0.00003007,-0.00001292,-0.000026
 12,-0.00001724,-0.00000008,0.00001519,0.00000291,-0.00000074,-0.000005
 62,-0.00000095,0.00000025,0.00000170,0.00000034,0.00000075,-0.00000651
 ,0.00000044,-0.00000084,0.00001903,0.00001070,0.00000050,0.00000075,0.
 00000050,0.00000135,-0.00000079,-0.00000127,-0.00000109,0.00000042,-0.
 00000009,0.00000124,-0.00000056,-0.00000094,-0.00000079,0.00000009,0.0
 0000014,0.00000087,-0.00000014,-0.00000051,-0.00000049,-0.00000793,0.0
 0002126,0.00002133,0.00010309,-0.00004183,-0.00000252,-0.00021779,0.00
 031242,0.00002816,-0.00054493,0.00124807,-0.00026447,-0.00278106,0.004
 57222,-0.00205008,0.10426330,-0.24731513,0.05935357,-0.00000151,-0.000
 00221,0.00000253,-0.00000094,-0.00000246,-0.00000232,0.00000107,0.0000
 0047,0.00000108,0.00000167,-0.00000010,-0.00000101,-0.00000080,0.00000
 094,-0.00000037,-0.00000038,-0.00000024,0.00000010,0.00000005,-0.00000
 025,0.00000017,0.00000054,0.00000093,-0.00000011,-0.00000015,-0.000000
 18,-0.00000006,-0.00000004,0.00000073,-0.00000024,0.00000001,-0.000000
 13,0.00000009,0.00000039,0.00000065,-0.00000003,-0.00000008,-0.0000001
 5,-0.00000009,0.00000010,0.00000047,-0.00000016,0.00000016,0.00000059,
 0.00000010,0.00000057,-0.00000044,-0.00000019,-0.00000005,0.00000001,0
 .00000020,-0.00000214,-0.00000012,-0.00000411,0.00001999,0.00000734,0.
 00000646,0.00000578,0.00000455,-0.00000468,-0.00000121,-0.00000408,0.0
 0000183,-0.00009326,-0.00013083,-0.00004289,0.00000889,-0.00000945,-0.
 00000478,0.00038122,0.00020878,0.00046090,0.00004611,-0.00007668,-0.00
 000730,-0.00124660,0.00117563,-0.00056938,0.00054971,0.00054017,-0.000
 18679,0.00354448,-0.00695582,0.00029200,0.00890735,-0.01604554,0.00711
 304,-0.11293996,0.26249355,-0.00000740,-0.00000038,0.00000941,-0.00000
 352,-0.00000052,0.00001257,0.00000020,-0.00000079,0.00000181,0.0000150
 1,0.00000410,-0.00001038,-0.00000407,-0.00000300,0.00000324,0.00000936
 ,0.00000489,-0.00000471,-0.00001083,-0.00000020,0.00000064,0.00000824,
 -0.00000330,-0.00000144,-0.00000263,0.00000054,0.00000076,0.00000106,0
 .00000037,0.00000025,-0.00000284,0.00000064,0.00000043,0.00000673,-0.0
 0000093,0.00000007,0.00000079,0.00000120,0.00000126,-0.00000010,-0.000
 00072,-0.00000078,0.00000047,0.00000060,0.00000085,0.,-0.00000038,-0.0
 0000038,0.00000021,0.00000034,0.00000044,0.00000008,-0.00000017,-0.000
 00016,-0.00000037,-0.00000358,0.00000507,-0.00000625,0.00000476,-0.000
 01507,-0.00001198,-0.00020058,-0.00002797,0.00006038,0.00100434,0.0001
 1257,-0.00027979,0.00109963,-0.00122308,-0.03069236,0.05914873,-0.0640
 2202,-0.00000066,-0.00000362,-0.00000311,-0.00000079,0.00000135,-0.000
 00045,0.00000019,-0.00000004,0.00000006,0.00000076,0.00000022,-0.00000
 044,-0.00000023,-0.00000019,0.00000022,-0.00000002,0.00000029,-0.00000
 039,-0.00000009,0.00000009,-0.00000022,-0.00000017,-0.00000018,0.00000
 009,0.00000003,0.00000012,-0.00000035,-0.00000001,-0.00000030,0.000000
 09,-0.00000006,0.00000009,-0.00000017,-0.00000007,-0.00000013,0.000000
 09,0.,0.00000008,-0.00000024,-0.00000003,-0.00000019,0.00000007,-0.000
 00006,-0.00000003,0.00000010,0.00000024,-0.00000010,-0.00000005,-0.000
 00005,0.00000010,-0.00000007,0.00000875,-0.00000097,0.00000171,0.00000
 223,0.00000329,0.00000050,-0.00001010,-0.00002583,0.00000588,-0.000004
 08,0.00000786,-0.00001105,0.00010742,-0.00004499,-0.00001667,0.0000526
 7,0.00001143,-0.00002825,-0.00019720,-0.00034725,0.00008006,-0.0000251
 0,0.00009500,-0.00004293,-0.00029652,-0.00025638,0.00102541,0.00009697
 ,-0.00073564,0.00031881,-0.01324797,0.02320599,-0.00560152,0.01078413,
 -0.01881417,0.00629647,0.03364946,-0.06415151,0.06313301\\-0.00254525,
 -0.00350092,0.00160496,-0.01339348,-0.01090918,-0.00052479,0.00215447,
 -0.00135410,0.00257418,0.00705692,0.00305912,-0.00157665,0.00164492,0.
 02910804,-0.01052177,0.01407065,-0.01537701,0.00895592,-0.00011937,0.0
 3004075,-0.00617335,-0.00758297,0.00360663,-0.00068694,0.01317853,-0.0
 1012535,0.00625651,-0.00263700,-0.00221681,-0.00167383,0.00234083,-0.0
 0385005,0.00047489,-0.01467210,-0.01691948,0.00047733,-0.00068423,-0.0
 0263426,-0.00316487,-0.00026840,0.00146809,0.00155254,-0.00082348,-0.0
 0092778,-0.00051022,-0.00002401,0.00043498,0.00047970,-0.00021710,-0.0
 0027305,-0.00013095,-0.00003544,0.00012873,0.00012489,0.00054196,-0.00
 059854,0.00416291,0.00001764,0.00047682,-0.00166647,0.00065570,-0.0024
 2121,0.00082779,-0.00008180,0.00087645,0.00001612,0.00029864,-0.000423
 87,0.00004740,0.00001869,0.00018859,0.00008991,0.00092578,-0.00074827,
 0.00004537,0.00073253,-0.00069328,0.00045686,-0.00076694,-0.00075600,-
 0.00001110,-0.00097592,-0.00061957,0.00038533,-0.00056442,0.00054190,0
 .00270848,0.00037468,0.00102158,-0.00063547,-0.00052524,-0.00038810,-0
 .00033410,0.00066302,0.00042875,-0.00012227,0.00006375,0.00004718,-0.0
 0010414,-0.00016046,0.00048562,0.00018007,-0.00010137,-0.00005447,-0.0
 0011279,0.00014255,0.00011502,-0.00004493,0.00000665,-0.00000140,-0.00
 003310,0.00000168,0.00015394,0.00002431,0.00004528,0.00003064,-0.00001
 970,-0.00009848,0.00001442,0.00002571,-0.00002100,-0.00003387,-0.00004
 942,0.00046964,-0.00069147,-0.00237333,-0.00030242,0.00127561,-0.00003
 445,-0.00062291,0.00055346,0.00013816,0.00104738,0.00015970,-0.0000048
 0,0.00087118,0.00097610,-0.00060478,0.00009680,-0.00007823,-0.00039668
 ,-0.00041548,0.00016925,-0.00005628,0.00015007,-0.00006975,-0.00001853
 ,0.00003982,0.00030600,-0.00002076,0.00003436,-0.00002770,-0.00000232,
 0.00001834,-0.00003766,-0.00002446,0.00008254,0.00000763,0.00005273,-0
 .00010572,0.00005638,-0.00002881\\\@

 Writing a WFNX file to "02_sub.wfx"


 THERE'S NOTHING WRONG WITH FOLLOWING A TRAIN OF THOUGHT...
 AS LONG AS IT ULTIMATELY PULLS INTO THE STATION.
 Job cpu time:       0 days  3 hours 54 minutes 49.9 seconds.
 Elapsed time:       0 days  0 hours 29 minutes 39.7 seconds.
 File lengths (MBytes):  RWF=   1267 Int=      0 D2E=      0 Chk=     16 Scr=      1
 Normal termination of Gaussian 16 at Mon Jan 23 09:16:39 2023.
