 Entering Gaussian System, Link 0=g16
 Initial command:
 /software/gaussian/G16-A.03/avx/g16/l1.exe "/scratch/lcmd/1387542.slurm/Gau-242731.inp" -scrdir="/scratch/lcmd/1387542.slurm/"
 Entering Link 1 = /software/gaussian/G16-A.03/avx/g16/l1.exe PID=    242732.
  
 Copyright (c) 1988,1990,1992,1993,1995,1998,2003,2009,2016,
            Gaussian, Inc.  All Rights Reserved.
  
 This is part of the Gaussian(R) 16 program.  It is based on
 the Gaussian(R) 09 system (copyright 2009, Gaussian, Inc.),
 the Gaussian(R) 03 system (copyright 2003, Gaussian, Inc.),
 the Gaussian(R) 98 system (copyright 1998, Gaussian, Inc.),
 the Gaussian(R) 94 system (copyright 1995, Gaussian, Inc.),
 the Gaussian 92(TM) system (copyright 1992, Gaussian, Inc.),
 the Gaussian 90(TM) system (copyright 1990, Gaussian, Inc.),
 the Gaussian 88(TM) system (copyright 1988, Gaussian, Inc.),
 the Gaussian 86(TM) system (copyright 1986, Carnegie Mellon
 University), and the Gaussian 82(TM) system (copyright 1983,
 Carnegie Mellon University). Gaussian is a federally registered
 trademark of Gaussian, Inc.
  
 This software contains proprietary and confidential information,
 including trade secrets, belonging to Gaussian, Inc.
  
 This software is provided under written license and may be
 used, copied, transmitted, or stored only in accord with that
 written license.
  
 The following legend is applicable only to US Government
 contracts under FAR:
  
                    RESTRICTED RIGHTS LEGEND
  
 Use, reproduction and disclosure by the US Government is
 subject to restrictions as set forth in subparagraphs (a)
 and (c) of the Commercial Computer Software - Restricted
 Rights clause in FAR 52.227-19.
  
 Gaussian, Inc.
 340 Quinnipiac St., Bldg. 40, Wallingford CT 06492
  
  
 ---------------------------------------------------------------
 Warning -- This program may not be used in any manner that
 competes with the business of Gaussian, Inc. or will provide
 assistance to any competitor of Gaussian, Inc.  The licensee
 of this program is prohibited from giving any competitor of
 Gaussian, Inc. access to this program.  By using this program,
 the user acknowledges that Gaussian, Inc. is engaged in the
 business of creating and licensing software in the field of
 computational chemistry and represents and warrants to the
 licensee that it is not a competitor of Gaussian, Inc. and that
 it will not use this program in any manner prohibited above.
 ---------------------------------------------------------------
  

 Cite this work as:
 Gaussian 16, Revision A.03,
 M. J. Frisch, G. W. Trucks, H. B. Schlegel, G. E. Scuseria, 
 M. A. Robb, J. R. Cheeseman, G. Scalmani, V. Barone, 
 G. A. Petersson, H. Nakatsuji, X. Li, M. Caricato, A. V. Marenich, 
 J. Bloino, B. G. Janesko, R. Gomperts, B. Mennucci, H. P. Hratchian, 
 J. V. Ortiz, A. F. Izmaylov, J. L. Sonnenberg, D. Williams-Young, 
 F. Ding, F. Lipparini, F. Egidi, J. Goings, B. Peng, A. Petrone, 
 T. Henderson, D. Ranasinghe, V. G. Zakrzewski, J. Gao, N. Rega, 
 G. Zheng, W. Liang, M. Hada, M. Ehara, K. Toyota, R. Fukuda, 
 J. Hasegawa, M. Ishida, T. Nakajima, Y. Honda, O. Kitao, H. Nakai, 
 T. Vreven, K. Throssell, J. A. Montgomery, Jr., J. E. Peralta, 
 F. Ogliaro, M. J. Bearpark, J. J. Heyd, E. N. Brothers, K. N. Kudin, 
 V. N. Staroverov, T. A. Keith, R. Kobayashi, J. Normand, 
 K. Raghavachari, A. P. Rendell, J. C. Burant, S. S. Iyengar, 
 J. Tomasi, M. Cossi, J. M. Millam, M. Klene, C. Adamo, R. Cammi, 
 J. W. Ochterski, R. L. Martin, K. Morokuma, O. Farkas, 
 J. B. Foresman, and D. J. Fox, Gaussian, Inc., Wallingford CT, 2016.
 
 ******************************************
 Gaussian 16:  ES64L-G16RevA.03 25-Dec-2016
                15-Jan-2023 
 ******************************************
 %nprocs=8
 Will use up to    8 processors via shared memory.
 %mem=32000MB
 %chk=03_sub.chk
 ----------------------------------------------------------------------
 #p pop=(regular,nbo,savenbos) freq=noraman def2svp empiricaldispersion
 =gd3bj output=wfx pbe1pbe
 ----------------------------------------------------------------------
 1/10=4,30=1,38=1/1,3;
 2/12=2,17=6,18=5,40=1/2;
 3/5=43,7=101,11=2,25=1,30=1,71=2,74=-13,124=41,140=1/1,2,3;
 4//1;
 5/5=2,38=5,98=1/2;
 8/6=4,10=90,11=11/1;
 11/6=1,8=1,9=11,15=111,16=1/1,2,10;
 10/6=1/2;
 6/28=1,40=1,73=1/1,7;
 7/8=1,10=1,25=1/1,2,3,16;
 1/10=4,30=1/3;
 99/6=200/99;
 Leave Link    1 at Sun Jan 15 21:17:51 2023, MaxMem=  4194304000 cpu:               1.2 elap:               0.5
 (Enter /software/gaussian/G16-A.03/avx/g16/l101.exe)
 ------
 03_sub
 ------
 Symbolic Z-matrix:
 Charge =  0 Multiplicity = 1
 C                     2.69324   2.27498   0.56358 
 C                     2.65638   0.74221   0.34143 
 H                     2.73766   0.17583   1.28634 
 N                     1.29424   0.53125  -0.12825 
 C                     0.68266   1.65023  -0.08475 
 O                     1.33722   2.72354   0.30485 
 C                    -0.75818   1.63374  -0.38568 
 N                    -1.28113   0.49404  -0.61623 
 C                    -2.72001   0.67068  -0.73063 
 H                    -3.0413    0.28238  -1.70996 
 C                    -2.86538   2.21389  -0.65463 
 O                    -1.52853   2.70096  -0.36495 
 C                    -3.44968  -0.13398   0.35736 
 C                    -4.9565    0.03919   0.22363 
 C                    -2.94597   0.1861    1.75881 
 C                     3.71456   0.2182   -0.63259 
 C                     3.44407  -1.22824  -1.02731 
 C                     5.09873   0.38078  -0.0142 
 H                     3.35195   2.79148  -0.15114 
 H                     2.95361   2.58074   1.58483 
 H                    -3.52436   2.55833   0.15406 
 H                    -3.18502   2.67219  -1.60042 
 H                    -3.19038  -1.18369   0.13628 
 H                    -5.2786    1.07067   0.44734 
 H                    -5.48216  -0.62175   0.92815 
 H                    -5.3046   -0.21268  -0.79044 
 H                    -3.066     1.25246   2.01802 
 H                    -1.88624  -0.08667   1.88162 
 H                    -3.51033  -0.39256   2.5046 
 H                     3.65853   0.84844  -1.54098 
 H                     3.3407   -1.87095  -0.13968 
 H                     4.26328  -1.614    -1.65233 
 H                     2.51185  -1.3248   -1.60328 
 H                     5.19238  -0.23821   0.89266 
 H                     5.3168    1.42428   0.26542 
 H                     5.87974   0.06059  -0.71917 
 
 ITRead=  0  0  0  0  0  0  0  0  0  0  0  0  0  0  0  0  0  0  0  0
 ITRead=  0  0  0  0  0  0  0  0  0  0  0  0  0  0  0  0
 MicOpt= -1 -1 -1 -1 -1 -1 -1 -1 -1 -1 -1 -1 -1 -1 -1 -1 -1 -1 -1 -1
 MicOpt= -1 -1 -1 -1 -1 -1 -1 -1 -1 -1 -1 -1 -1 -1 -1 -1
 NAtoms=     36 NQM=       36 NQMF=       0 NMMI=      0 NMMIF=      0
                NMic=       0 NMicF=      0.
                    Isotopes and Nuclear Properties:
 (Nuclear quadrupole moments (NQMom) in fm**2, nuclear magnetic moments (NMagM)
  in nuclear magnetons)

  Atom         1           2           3           4           5           6           7           8           9          10
 IAtWgt=          12          12           1          14          12          16          12          14          12           1
 AtmWgt=  12.0000000  12.0000000   1.0078250  14.0030740  12.0000000  15.9949146  12.0000000  14.0030740  12.0000000   1.0078250
 NucSpn=           0           0           1           2           0           0           0           2           0           1
 AtZEff=  -0.0000000  -0.0000000  -0.0000000  -0.0000000  -0.0000000  -0.0000000  -0.0000000  -0.0000000  -0.0000000  -0.0000000
 NQMom=    0.0000000   0.0000000   0.0000000   2.0440000   0.0000000   0.0000000   0.0000000   2.0440000   0.0000000   0.0000000
 NMagM=    0.0000000   0.0000000   2.7928460   0.4037610   0.0000000   0.0000000   0.0000000   0.4037610   0.0000000   2.7928460
 AtZNuc=   6.0000000   6.0000000   1.0000000   7.0000000   6.0000000   8.0000000   6.0000000   7.0000000   6.0000000   1.0000000

  Atom        11          12          13          14          15          16          17          18          19          20
 IAtWgt=          12          16          12          12          12          12          12          12           1           1
 AtmWgt=  12.0000000  15.9949146  12.0000000  12.0000000  12.0000000  12.0000000  12.0000000  12.0000000   1.0078250   1.0078250
 NucSpn=           0           0           0           0           0           0           0           0           1           1
 AtZEff=  -0.0000000  -0.0000000  -0.0000000  -0.0000000  -0.0000000  -0.0000000  -0.0000000  -0.0000000  -0.0000000  -0.0000000
 NQMom=    0.0000000   0.0000000   0.0000000   0.0000000   0.0000000   0.0000000   0.0000000   0.0000000   0.0000000   0.0000000
 NMagM=    0.0000000   0.0000000   0.0000000   0.0000000   0.0000000   0.0000000   0.0000000   0.0000000   2.7928460   2.7928460
 AtZNuc=   6.0000000   8.0000000   6.0000000   6.0000000   6.0000000   6.0000000   6.0000000   6.0000000   1.0000000   1.0000000

  Atom        21          22          23          24          25          26          27          28          29          30
 IAtWgt=           1           1           1           1           1           1           1           1           1           1
 AtmWgt=   1.0078250   1.0078250   1.0078250   1.0078250   1.0078250   1.0078250   1.0078250   1.0078250   1.0078250   1.0078250
 NucSpn=           1           1           1           1           1           1           1           1           1           1
 AtZEff=  -0.0000000  -0.0000000  -0.0000000  -0.0000000  -0.0000000  -0.0000000  -0.0000000  -0.0000000  -0.0000000  -0.0000000
 NQMom=    0.0000000   0.0000000   0.0000000   0.0000000   0.0000000   0.0000000   0.0000000   0.0000000   0.0000000   0.0000000
 NMagM=    2.7928460   2.7928460   2.7928460   2.7928460   2.7928460   2.7928460   2.7928460   2.7928460   2.7928460   2.7928460
 AtZNuc=   1.0000000   1.0000000   1.0000000   1.0000000   1.0000000   1.0000000   1.0000000   1.0000000   1.0000000   1.0000000

  Atom        31          32          33          34          35          36
 IAtWgt=           1           1           1           1           1           1
 AtmWgt=   1.0078250   1.0078250   1.0078250   1.0078250   1.0078250   1.0078250
 NucSpn=           1           1           1           1           1           1
 AtZEff=  -0.0000000  -0.0000000  -0.0000000  -0.0000000  -0.0000000  -0.0000000
 NQMom=    0.0000000   0.0000000   0.0000000   0.0000000   0.0000000   0.0000000
 NMagM=    2.7928460   2.7928460   2.7928460   2.7928460   2.7928460   2.7928460
 AtZNuc=   1.0000000   1.0000000   1.0000000   1.0000000   1.0000000   1.0000000
 Leave Link  101 at Sun Jan 15 21:17:53 2023, MaxMem=  4194304000 cpu:               1.1 elap:               0.5
 (Enter /software/gaussian/G16-A.03/avx/g16/l103.exe)

 GradGradGradGradGradGradGradGradGradGradGradGradGradGradGradGradGradGrad
 Berny optimization.
 Initialization pass.
 Trust Radius=3.00D-01 FncErr=1.00D-07 GrdErr=1.00D-07 EigMax=2.50D+02 EigMin=1.00D-04
 Number of steps in this run=      2 maximum allowed number of steps=      2.
 GradGradGradGradGradGradGradGradGradGradGradGradGradGradGradGradGradGrad

 Leave Link  103 at Sun Jan 15 21:17:57 2023, MaxMem=  4194304000 cpu:               0.3 elap:               0.3
 (Enter /software/gaussian/G16-A.03/avx/g16/l202.exe)
                          Input orientation:                          
 ---------------------------------------------------------------------
 Center     Atomic      Atomic             Coordinates (Angstroms)
 Number     Number       Type             X           Y           Z
 ---------------------------------------------------------------------
      1          6           0        2.693240    2.274980    0.563580
      2          6           0        2.656380    0.742210    0.341430
      3          1           0        2.737660    0.175830    1.286340
      4          7           0        1.294240    0.531250   -0.128250
      5          6           0        0.682660    1.650230   -0.084750
      6          8           0        1.337220    2.723540    0.304850
      7          6           0       -0.758180    1.633740   -0.385680
      8          7           0       -1.281130    0.494040   -0.616230
      9          6           0       -2.720010    0.670680   -0.730630
     10          1           0       -3.041300    0.282380   -1.709960
     11          6           0       -2.865380    2.213890   -0.654630
     12          8           0       -1.528530    2.700960   -0.364950
     13          6           0       -3.449680   -0.133980    0.357360
     14          6           0       -4.956500    0.039190    0.223630
     15          6           0       -2.945970    0.186100    1.758810
     16          6           0        3.714560    0.218200   -0.632590
     17          6           0        3.444070   -1.228240   -1.027310
     18          6           0        5.098730    0.380780   -0.014200
     19          1           0        3.351950    2.791480   -0.151140
     20          1           0        2.953610    2.580740    1.584830
     21          1           0       -3.524360    2.558330    0.154060
     22          1           0       -3.185020    2.672190   -1.600420
     23          1           0       -3.190380   -1.183690    0.136280
     24          1           0       -5.278600    1.070670    0.447340
     25          1           0       -5.482160   -0.621750    0.928150
     26          1           0       -5.304600   -0.212680   -0.790440
     27          1           0       -3.066000    1.252460    2.018020
     28          1           0       -1.886240   -0.086670    1.881620
     29          1           0       -3.510330   -0.392560    2.504600
     30          1           0        3.658530    0.848440   -1.540980
     31          1           0        3.340700   -1.870950   -0.139680
     32          1           0        4.263280   -1.614000   -1.652330
     33          1           0        2.511850   -1.324800   -1.603280
     34          1           0        5.192380   -0.238210    0.892660
     35          1           0        5.316800    1.424280    0.265420
     36          1           0        5.879740    0.060590   -0.719170
 ---------------------------------------------------------------------
                    Distance matrix (angstroms):
                    1          2          3          4          5
     1  C    0.000000
     2  C    1.549223   0.000000
     3  H    2.220537   1.104648   0.000000
     4  N    2.340176   1.456204   2.052035   0.000000
     5  C    2.202970   2.213978   2.876937   1.275946   0.000000
     6  O    1.451529   2.380586   3.068449   2.235075   1.316143
     7  C    3.636562   3.603156   4.140296   2.343967   1.472023
     8  N    4.512130   4.059887   4.457769   2.621458   2.340025
     9  C    5.792412   5.482700   5.839453   4.061589   3.599284
    10  H    6.482622   6.073154   6.510418   4.621758   4.287213
    11  C    5.690872   5.800673   6.270176   4.517830   3.637453
    12  O    4.343612   4.674307   5.225267   3.568151   2.464124
    13  C    6.601597   6.168625   6.264356   4.814886   4.522732
    14  C    7.977020   7.646179   7.768405   6.279944   5.872876
    15  C    6.131287   5.805562   5.703243   4.653977   4.325430
    16  C    2.589259   1.530701   2.153699   2.492049   3.397537
    17  C    3.920105   2.525189   2.797035   2.919911   4.098706
    18  C    3.115799   2.494429   2.703342   3.809172   4.595449
    19  H    1.100680   2.219448   3.047183   3.056687   2.903785
    20  H    1.097376   2.239326   2.432966   3.144608   2.968259
    21  H    6.237511   6.444761   6.794944   5.235232   4.310533
    22  H    6.276513   6.451167   7.045803   5.178289   4.277921
    23  H    6.838272   6.159203   6.189717   4.808618   4.804206
    24  H    8.063133   7.942481   8.109567   6.620008   6.012955
    25  H    8.681078   8.272875   8.266189   6.954494   6.647771
    26  H    8.484531   8.097540   8.315161   6.673576   6.309969
    27  H    6.027420   5.984726   5.947853   4.913076   4.316516
    28  H    5.318483   4.867712   4.669445   3.812723   3.671877
    29  H    7.026209   6.632897   6.390978   5.556007   5.334687
    30  H    2.719554   2.135195   3.048630   2.772415   3.408706
    31  H    4.254705   2.743787   2.566417   3.155740   4.412131
    32  H    4.743358   3.479789   3.763880   3.967381   5.092479
    33  H    4.205544   2.841710   3.263860   2.665185   3.808238
    34  H    3.559511   2.774234   2.520330   4.102417   4.985891
    35  H    2.774105   2.747514   3.041853   4.139259   4.652841
    36  H    4.086900   3.461145   3.729345   4.647313   5.471662
                    6          7          8          9         10
     6  O    0.000000
     7  C    2.460731   0.000000
     8  N    3.560171   1.274969   0.000000
     9  C    4.663429   2.212522   1.454189   0.000000
    10  H    5.402792   2.965220   2.083085   1.101404   0.000000
    11  C    4.340759   2.202090   2.338633   1.551904   2.208031
    12  O    2.943071   1.316369   2.234915   2.382306   3.153895
    13  C    5.575176   3.304711   2.458637   1.537406   2.148009
    14  C    6.842751   4.532079   3.797446   2.512226   2.732380
    15  C    5.186359   3.388351   2.916733   2.546210   3.471415
    16  C    3.578724   4.697885   5.003326   6.451205   6.841527
    17  C    4.672262   5.124600   5.046063   6.456764   6.693878
    18  C    4.442890   6.000942   6.409203   7.856845   8.315370
    19  H    2.066804   4.276510   5.192299   6.457732   7.042666
    20  H    2.066750   4.307796   5.208839   6.418695   7.216443
    21  H    4.866723   2.966132   3.144316   2.234475   2.981252
    22  H    4.907478   2.905774   3.055776   2.231325   2.396632
    23  H    5.982811   3.758451   2.650714   2.100350   2.362242
    24  H    6.820657   4.630893   4.176536   2.844994   3.206377
    25  H    7.621247   5.397163   4.612890   3.471512   3.706059
    26  H    7.344033   4.923721   4.088779   2.732034   2.492615
    27  H    4.948472   3.353980   3.271121   2.830769   3.852207
    28  H    4.557870   3.061532   2.634888   2.844750   3.790753
    29  H    6.168283   4.475929   3.936365   3.495969   4.293955
    30  H    3.508784   4.632358   5.037956   6.432265   6.725823
    31  H    5.031985   5.398535   5.213597   6.598584   6.916107
    32  H    5.586290   6.112878   6.021447   7.405109   7.546951
    33  H    4.627070   4.574779   4.320780   5.667082   5.782031
    34  H    4.896912   6.367693   6.687247   8.128165   8.650903
    35  H    4.186489   6.113361   6.721260   8.133286   8.663942
    36  H    5.364178   6.829934   7.174715   8.621371   8.978631
                   11         12         13         14         15
    11  C    0.000000
    12  O    1.452005   0.000000
    13  C    2.622599   3.499919   0.000000
    14  C    3.142204   4.379774   1.522622   0.000000
    15  C    3.153271   3.583855   1.523232   2.533889   0.000000
    16  C    6.875964   5.807385   7.240882   8.715070   7.076898
    17  C    7.196965   6.372133   7.116074   8.587247   7.113047
    18  C    8.197408   7.030422   8.571951  10.063841   8.240064
    19  H    6.264368   4.886000   7.421527   8.760473   7.078115
    20  H    6.245831   4.889343   7.062472   8.419156   6.369428
    21  H    1.098578   2.067136   2.701007   2.898609   2.921854
    22  H    1.098511   2.066682   3.431842   3.660326   4.185954
    23  H    3.503529   4.254819   1.103632   2.149941   2.137443
    24  H    2.888758   4.169015   2.191855   1.103515   2.818436
    25  H    4.170562   5.323880   2.166725   1.099777   2.788347
    26  H    3.443324   4.788428   2.182743   1.101340   3.495831
    27  H    2.847394   3.184417   2.197093   2.875039   1.103957
    28  H    3.561440   3.598043   2.184022   3.491600   1.101142
    29  H    4.146116   4.661729   2.163604   2.735076   1.099796
    30  H    6.723948   5.632093   7.422634   8.831052   7.412606
    31  H    7.447585   6.683001   7.026619   8.521981   6.881710
    32  H    8.152665   7.336299   8.106730   9.552832   8.176156
    33  H    6.506679   5.836512   6.387644   7.808606   6.585914
    34  H    8.563550   7.442509   8.659250  10.174690   8.195303
    35  H    8.271520   6.991840   8.904370  10.366336   8.487442
    36  H    9.006553   7.872705   9.393341  10.877198   9.167840
                   16         17         18         19         20
    16  C    0.000000
    17  C    1.523535   0.000000
    18  C    1.524718   2.520563   0.000000
    19  H    2.642925   4.115132   2.980179   0.000000
    20  H    3.328302   4.644583   3.463851   1.793510   0.000000
    21  H    7.648332   8.018277   8.895376   6.887027   6.634131
    22  H    7.386675   7.712758   8.739975   6.696762   6.916427
    23  H    7.087641   6.735863   8.436798   7.660722   7.349683
    24  H    9.097795   9.140271  10.410473   8.820757   8.446507
    25  H    9.365953   9.158015  10.669973   9.531868   9.047065
    26  H    9.030826   8.810601  10.449116   9.185289   9.035659
    27  H    7.353327   7.603218   8.458875   6.947224   6.179619
    28  H    6.146801   6.178775   7.252755   6.313042   5.534194
    29  H    7.900255   7.844516   9.003240   8.017603   7.174191
    30  H    1.107029   2.149988   2.150335   2.408537   3.642590
    31  H    2.178825   1.100749   2.859493   4.662458   4.789710
    32  H    2.167469   1.100257   2.713041   4.742610   5.458048
    33  H    2.183941   1.100045   3.482259   4.445024   5.060873
    34  H    2.172245   2.779034   1.101959   3.695365   3.665743
    35  H    2.197322   3.494872   1.102104   2.429690   2.943282
    36  H    2.172635   2.772818   1.099764   3.764325   4.496867
                   21         22         23         24         25
    21  H    0.000000
    22  H    1.790619   0.000000
    23  H    3.756937   4.228944   0.000000
    24  H    2.318729   3.337853   3.088618   0.000000
    25  H    3.813805   4.745583   2.488994   1.771130   0.000000
    26  H    3.426344   3.670308   2.504316   1.783189   1.775505
    27  H    2.321581   3.888818   3.080786   2.719500   3.246276
    28  H    3.558641   4.628471   2.439354   3.860661   3.758465
    29  H    3.772663   5.133197   2.517378   3.082230   2.534923
    30  H    7.575671   7.082639   7.338278   9.158335   9.581768
    31  H    8.175197   8.084485   6.572936   9.126338   8.974610
    32  H    9.017689   8.593677   7.677326  10.132302  10.130007
    33  H    7.389369   6.959186   5.963339   8.404429   8.414667
    34  H    9.184102   9.212313   8.469753  10.561861  10.681487
    35  H    8.914291   8.793155   8.898893  10.602860  11.011039
    36  H    9.769254   9.474541   9.194950  11.264527  11.500957
                   26         27         28         29         30
    26  H    0.000000
    27  H    3.878842   0.000000
    28  H    4.340618   1.789890   0.000000
    29  H    3.756202   1.772084   1.766166   0.000000
    30  H    9.056875   7.618991   6.582788   8.324623   0.000000
    31  H    8.826922   7.446957   5.881344   7.490959   3.075669
    32  H    9.708289   8.683686   7.255214   8.899494   2.538057
    33  H    7.936902   7.132215   5.746363   7.349177   2.457993
    34  H   10.631090   8.466958   7.148977   8.852081   3.075078
    35  H   10.798547   8.565773   7.535175   9.286176   2.518835
    36  H   11.187905   9.430749   8.191229   9.938383   2.495967
                   31         32         33         34         35
    31  H    0.000000
    32  H    1.790332   0.000000
    33  H    1.768445   1.775824   0.000000
    34  H    2.675871   3.038585   3.820423   0.000000
    35  H    3.863628   3.744171   4.349394   1.781231   0.000000
    36  H    3.242434   2.507585   3.747484   1.777566   1.773688
                   36
    36  H    0.000000
 Stoichiometry    C12H20N2O2
 Framework group  C1[X(C12H20N2O2)]
 Deg. of freedom   102
 Full point group                 C1      NOp   1
 Largest Abelian subgroup         C1      NOp   1
 Largest concise Abelian subgroup C1      NOp   1
                         Standard orientation:                         
 ---------------------------------------------------------------------
 Center     Atomic      Atomic             Coordinates (Angstroms)
 Number     Number       Type             X           Y           Z
 ---------------------------------------------------------------------
      1          6           0        2.592655    1.478159    0.645484
      2          6           0        2.607477   -0.065104    0.510532
      3          1           0        2.659915   -0.574749    1.489184
      4          7           0        1.274853   -0.342320   -0.006955
      5          6           0        0.631991    0.758776   -0.055486
      6          8           0        1.238558    1.871184    0.300683
      7          6           0       -0.792313    0.682810   -0.419408
      8          7           0       -1.273074   -0.483013   -0.607214
      9          6           0       -2.709305   -0.355682   -0.796137
     10          1           0       -2.974087   -0.807814   -1.764929
     11          6           0       -2.899572    1.184390   -0.815734
     12          8           0       -1.591261    1.726278   -0.494802
     13          6           0       -3.466886   -1.119031    0.302493
     14          6           0       -4.969965   -0.998259    0.091439
     15          6           0       -3.037759   -0.705831    1.704403
     16          6           0        3.723578   -0.611616   -0.383163
     17          6           0        3.510815   -2.085340   -0.705694
     18          6           0        5.072582   -0.373660    0.286412
     19          1           0        3.269766    1.972846   -0.067468
     20          1           0        2.796877    1.848478    1.658100
     21          1           0       -3.604518    1.554183   -0.058649
     22          1           0       -3.187072    1.579081   -1.799751
     23          1           0       -3.169394   -2.171401    0.154100
     24          1           0       -5.329797    0.034210    0.240683
     25          1           0       -5.509853   -1.633737    0.808515
     26          1           0       -5.263576   -1.316985   -0.921061
     27          1           0       -3.198405    0.369416    1.896124
     28          1           0       -1.977931   -0.939826    1.890211
     29          1           0       -3.620428   -1.258015    2.456162
     30          1           0        3.692934   -0.035438   -1.327935
     31          1           0        3.383592   -2.679841    0.211929
     32          1           0        4.368323   -2.481297   -1.270020
     33          1           0        2.609354   -2.241668   -1.316455
     34          1           0        5.140560   -0.937585    1.230701
     35          1           0        5.249212    0.689911    0.514997
     36          1           0        5.893900   -0.709809   -0.363143
 ---------------------------------------------------------------------
 Rotational constants (GHZ):           1.2130281           0.2422046           0.2222272
 Leave Link  202 at Sun Jan 15 21:17:59 2023, MaxMem=  4194304000 cpu:               0.1 elap:               0.1
 (Enter /software/gaussian/G16-A.03/avx/g16/l301.exe)
 Standard basis: def2SVP (5D, 7F)
 Ernie: Thresh=  0.10000D-02 Tol=  0.10000D-05 Strict=F.
 There are   340 symmetry adapted cartesian basis functions of A   symmetry.
 There are   324 symmetry adapted basis functions of A   symmetry.
   324 basis functions,   540 primitive gaussians,   340 cartesian basis functions
    61 alpha electrons       61 beta electrons
       nuclear repulsion energy      1153.4654302101 Hartrees.
 IExCor= 1009 DFT=T Ex+Corr=PBE1PBE ExCW=0 ScaHFX=  0.250000
 ScaDFX=  0.750000  0.750000  1.000000  1.000000 ScalE2=  1.000000  1.000000
 IRadAn=      5 IRanWt=     -1 IRanGd=            0 ICorTp=0 IEmpDi=141
 NAtoms=   36 NActive=   36 NUniq=   36 SFac= 1.00D+00 NAtFMM=   60 NAOKFM=F Big=F
 Integral buffers will be    131072 words long.
 Raffenetti 2 integral format.
 Two-electron integral symmetry is turned on.
 R6Disp:  Grimme-D3(BJ) Dispersion energy=       -0.0331526450 Hartrees.
 Nuclear repulsion after empirical dispersion term =     1153.4322775651 Hartrees.
 Leave Link  301 at Sun Jan 15 21:18:02 2023, MaxMem=  4194304000 cpu:               0.6 elap:               0.5
 (Enter /software/gaussian/G16-A.03/avx/g16/l302.exe)
 NPDir=0 NMtPBC=     1 NCelOv=     1 NCel=       1 NClECP=     1 NCelD=      1
         NCelK=      1 NCelE2=     1 NClLst=     1 CellRange=     0.0.
 One-electron integrals computed using PRISM.
 One-electron integral symmetry used in STVInt
   1 Symmetry operations used in ECPInt.
 ECPInt:  NShTT=   12246 NPrTT=   43046 LenC2=   10984 LenP2D=   27808.
 LDataN:  DoStor=T MaxTD1= 4 Len=   56
 NBasis=   324 RedAO= T EigKep=  9.58D-04  NBF=   324
 NBsUse=   324 1.00D-06 EigRej= -1.00D+00 NBFU=   324
 Precomputing XC quadrature grid using
 IXCGrd= 4 IRadAn=           5 IRanWt=          -1 IRanGd=           0 AccXCQ= 0.00D+00.
 Generated NRdTot=       0 NPtTot=           0 NUsed=           0 NTot=          32
 NSgBfM=   337   337   337   337   337 MxSgAt=    36 MxSgA2=    36.
 Leave Link  302 at Sun Jan 15 21:18:05 2023, MaxMem=  4194304000 cpu:               5.6 elap:               1.0
 (Enter /software/gaussian/G16-A.03/avx/g16/l303.exe)
 DipDrv:  MaxL=1.
 Leave Link  303 at Sun Jan 15 21:18:08 2023, MaxMem=  4194304000 cpu:               0.7 elap:               0.4
 (Enter /software/gaussian/G16-A.03/avx/g16/l401.exe)
 ExpMin= 1.22D-01 ExpMax= 2.27D+03 ExpMxC= 3.41D+02 IAcc=3 IRadAn=         5 AccDes= 0.00D+00
 Harris functional with IExCor= 1009 and IRadAn=       5 diagonalized for initial guess.
 HarFok:  IExCor= 1009 AccDes= 0.00D+00 IRadAn=         5 IDoV= 1 UseB2=F ITyADJ=14
 ICtDFT=  3500011 ScaDFX=  1.000000  1.000000  1.000000  1.000000
 FoFCou: FMM=F IPFlag=           0 FMFlag=      100000 FMFlg1=           0
         NFxFlg=           0 DoJE=T BraDBF=F KetDBF=T FulRan=T
         wScrn=  0.000000 ICntrl=       500 IOpCl=  0 I1Cent=   200000004 NGrid=           0
         NMat0=    1 NMatS0=      1 NMatT0=    0 NMatD0=    1 NMtDS0=    0 NMtDT0=    0
 Petite list used in FoFCou.
 Harris En= -728.092508660726    
 JPrj=0 DoOrth=F DoCkMO=F.
 Leave Link  401 at Sun Jan 15 21:18:13 2023, MaxMem=  4194304000 cpu:              28.7 elap:               4.0
 (Enter /software/gaussian/G16-A.03/avx/g16/l502.exe)
 Integral symmetry usage will be decided dynamically.
 Closed shell SCF:
 Using DIIS extrapolation, IDIIS=  1040.
 NGot=  4194304000 LenX=  4194066272 LenY=  4193950231
 Requested convergence on RMS density matrix=1.00D-08 within 128 cycles.
 Requested convergence on MAX density matrix=1.00D-06.
 Requested convergence on             energy=1.00D-06.
 No special actions if energy rises.
 Fock matrices will be formed incrementally for  20 cycles.
 Integral accuracy reduced to 1.0D-05 until final iterations.

 Cycle   1  Pass 0  IDiag  1:
 FoFJK:  IHMeth= 1 ICntrl=       0 DoSepK=F KAlg= 0 I1Cent=           0 FoldK=F
 IRaf= 830000000 NMat=       1 IRICut=       1 DoRegI=T DoRafI=F ISym2E= 0 IDoP0=0 IntGTp=1.
 FoFCou: FMM=F IPFlag=           0 FMFlag=      100000 FMFlg1=           0
         NFxFlg=           0 DoJE=F BraDBF=F KetDBF=F FulRan=T
         wScrn=  0.000000 ICntrl=         0 IOpCl=  0 I1Cent=           0 NGrid=           0
         NMat0=    1 NMatS0=      1 NMatT0=    0 NMatD0=    1 NMtDS0=    0 NMtDT0=    0
 Symmetry not used in FoFCou.
 E= -727.533218821469    
 DIIS: error= 1.98D-02 at cycle   1 NSaved=   1.
 NSaved= 1 IEnMin= 1 EnMin= -727.533218821469     IErMin= 1 ErrMin= 1.98D-02
 ErrMax= 1.98D-02  0.00D+00 EMaxC= 1.00D-01 BMatC= 3.52D-01 BMatP= 3.52D-01
 IDIUse=3 WtCom= 8.02D-01 WtEn= 1.98D-01
 Coeff-Com:  0.100D+01
 Coeff-En:   0.100D+01
 Coeff:      0.100D+01
 Gap=     0.169 Goal=   None    Shift=    0.000
 GapD=    0.169 DampG=1.000 DampE=0.500 DampFc=0.5000 IDamp=-1.
 Damping current iteration by 5.00D-01
 RMSDP=5.35D-03 MaxDP=1.72D-01              OVMax= 2.25D-01

 Cycle   2  Pass 0  IDiag  1:
 RMSU=  2.67D-03    CP:  9.90D-01
 E= -727.670279307943     Delta-E=       -0.137060486474 Rises=F Damp=T
 DIIS: error= 1.21D-02 at cycle   2 NSaved=   2.
 NSaved= 2 IEnMin= 2 EnMin= -727.670279307943     IErMin= 2 ErrMin= 1.21D-02
 ErrMax= 1.21D-02  0.00D+00 EMaxC= 1.00D-01 BMatC= 4.02D-02 BMatP= 3.52D-01
 IDIUse=3 WtCom= 8.79D-01 WtEn= 1.21D-01
 Coeff-Com:  0.149D+00 0.851D+00
 Coeff-En:   0.238D+00 0.762D+00
 Coeff:      0.160D+00 0.840D+00
 Gap=     0.233 Goal=   None    Shift=    0.000
 RMSDP=1.68D-03 MaxDP=5.80D-02 DE=-1.37D-01 OVMax= 2.41D-01

 Cycle   3  Pass 0  IDiag  1:
 RMSU=  1.48D-03    CP:  9.83D-01  7.11D-01
 E= -727.862469429079     Delta-E=       -0.192190121136 Rises=F Damp=F
 DIIS: error= 1.60D-02 at cycle   3 NSaved=   3.
 NSaved= 3 IEnMin= 3 EnMin= -727.862469429079     IErMin= 2 ErrMin= 1.21D-02
 ErrMax= 1.60D-02  0.00D+00 EMaxC= 1.00D-01 BMatC= 4.92D-02 BMatP= 4.02D-02
 IDIUse=2 WtCom= 0.00D+00 WtEn= 1.00D+00
 Coeff-En:   0.000D+00 0.000D+00 0.100D+01
 Coeff:      0.000D+00 0.000D+00 0.100D+01
 Gap=     0.193 Goal=   None    Shift=    0.000
 RMSDP=2.42D-03 MaxDP=9.18D-02 DE=-1.92D-01 OVMax= 2.12D-01

 Cycle   4  Pass 0  IDiag  1:
 RMSU=  1.19D-03    CP:  9.94D-01  1.23D+00 -6.21D-02
 E= -727.696480350236     Delta-E=        0.165989078844 Rises=F Damp=F
 DIIS: error= 4.18D-02 at cycle   4 NSaved=   4.
 NSaved= 4 IEnMin= 3 EnMin= -727.862469429079     IErMin= 2 ErrMin= 1.21D-02
 ErrMax= 4.18D-02  0.00D+00 EMaxC= 1.00D-01 BMatC= 2.40D-01 BMatP= 4.02D-02
 IDIUse=2 WtCom= 0.00D+00 WtEn= 1.00D+00
 Coeff-En:   0.000D+00 0.000D+00 0.773D+00 0.227D+00
 Coeff:      0.000D+00 0.000D+00 0.773D+00 0.227D+00
 Gap=     0.213 Goal=   None    Shift=    0.000
 RMSDP=1.35D-03 MaxDP=4.98D-02 DE= 1.66D-01 OVMax= 1.06D-01

 Cycle   5  Pass 0  IDiag  1:
 RMSU=  1.91D-04    CP:  9.88D-01  8.97D-01  4.62D-01  4.81D-01
 E= -727.892723916118     Delta-E=       -0.196243565883 Rises=F Damp=F
 DIIS: error= 1.00D-02 at cycle   5 NSaved=   5.
 NSaved= 5 IEnMin= 5 EnMin= -727.892723916118     IErMin= 5 ErrMin= 1.00D-02
 ErrMax= 1.00D-02  0.00D+00 EMaxC= 1.00D-01 BMatC= 1.60D-02 BMatP= 4.02D-02
 IDIUse=3 WtCom= 9.00D-01 WtEn= 1.00D-01
 Coeff-Com: -0.756D-02 0.262D-01 0.255D+00-0.112D+00 0.839D+00
 Coeff-En:   0.000D+00 0.000D+00 0.290D+00 0.000D+00 0.710D+00
 Coeff:     -0.681D-02 0.236D-01 0.258D+00-0.101D+00 0.826D+00
 Gap=     0.212 Goal=   None    Shift=    0.000
 RMSDP=4.31D-04 MaxDP=1.62D-02 DE=-1.96D-01 OVMax= 4.14D-02

 Cycle   6  Pass 0  IDiag  1:
 RMSU=  3.70D-05    CP:  9.86D-01  8.15D-01  6.57D-01  2.94D-01  8.63D-01
 E= -727.906744016470     Delta-E=       -0.014020100351 Rises=F Damp=F
 DIIS: error= 3.44D-04 at cycle   6 NSaved=   6.
 NSaved= 6 IEnMin= 6 EnMin= -727.906744016470     IErMin= 6 ErrMin= 3.44D-04
 ErrMax= 3.44D-04  0.00D+00 EMaxC= 1.00D-01 BMatC= 3.50D-05 BMatP= 1.60D-02
 IDIUse=3 WtCom= 9.97D-01 WtEn= 3.44D-03
 Coeff-Com: -0.457D-02 0.101D-01 0.990D-01-0.560D-01 0.391D+00 0.561D+00
 Coeff-En:   0.000D+00 0.000D+00 0.000D+00 0.000D+00 0.000D+00 0.100D+01
 Coeff:     -0.456D-02 0.100D-01 0.986D-01-0.558D-01 0.390D+00 0.562D+00
 Gap=     0.212 Goal=   None    Shift=    0.000
 RMSDP=2.12D-05 MaxDP=8.96D-04 DE=-1.40D-02 OVMax= 1.93D-03

 Cycle   7  Pass 0  IDiag  1:
 RMSU=  1.00D-05    CP:  9.86D-01  8.19D-01  6.51D-01  2.99D-01  8.92D-01
                    CP:  7.53D-01
 E= -727.906774517303     Delta-E=       -0.000030500833 Rises=F Damp=F
 DIIS: error= 7.77D-05 at cycle   7 NSaved=   7.
 NSaved= 7 IEnMin= 7 EnMin= -727.906774517303     IErMin= 7 ErrMin= 7.77D-05
 ErrMax= 7.77D-05  0.00D+00 EMaxC= 1.00D-01 BMatC= 1.70D-06 BMatP= 3.50D-05
 IDIUse=1 WtCom= 1.00D+00 WtEn= 0.00D+00
 Coeff-Com: -0.170D-02 0.305D-02 0.300D-01-0.203D-01 0.131D+00 0.263D+00
 Coeff-Com:  0.595D+00
 Coeff:     -0.170D-02 0.305D-02 0.300D-01-0.203D-01 0.131D+00 0.263D+00
 Coeff:      0.595D+00
 Gap=     0.212 Goal=   None    Shift=    0.000
 RMSDP=5.04D-06 MaxDP=1.83D-04 DE=-3.05D-05 OVMax= 1.76D-04

 Initial convergence to 1.0D-05 achieved.  Increase integral accuracy.
 Cycle   8  Pass 1  IDiag  1:
 E= -727.906773760081     Delta-E=        0.000000757221 Rises=F Damp=F
 DIIS: error= 7.41D-05 at cycle   1 NSaved=   1.
 NSaved= 1 IEnMin= 1 EnMin= -727.906773760081     IErMin= 1 ErrMin= 7.41D-05
 ErrMax= 7.41D-05  0.00D+00 EMaxC= 1.00D-01 BMatC= 7.09D-07 BMatP= 7.09D-07
 IDIUse=1 WtCom= 1.00D+00 WtEn= 0.00D+00
 Coeff-Com:  0.100D+01
 Coeff:      0.100D+01
 Gap=     0.212 Goal=   None    Shift=    0.000
 RMSDP=5.04D-06 MaxDP=1.83D-04 DE= 7.57D-07 OVMax= 2.42D-04

 Cycle   9  Pass 1  IDiag  1:
 RMSU=  3.15D-05    CP:  1.00D+00
 E= -727.906774096710     Delta-E=       -0.000000336628 Rises=F Damp=F
 DIIS: error= 4.05D-05 at cycle   2 NSaved=   2.
 NSaved= 2 IEnMin= 2 EnMin= -727.906774096710     IErMin= 2 ErrMin= 4.05D-05
 ErrMax= 4.05D-05  0.00D+00 EMaxC= 1.00D-01 BMatC= 4.66D-07 BMatP= 7.09D-07
 IDIUse=1 WtCom= 1.00D+00 WtEn= 0.00D+00
 Coeff-Com:  0.429D+00 0.571D+00
 Coeff:      0.429D+00 0.571D+00
 Gap=     0.212 Goal=   None    Shift=    0.000
 RMSDP=3.82D-06 MaxDP=1.96D-04 DE=-3.37D-07 OVMax= 2.82D-04

 Cycle  10  Pass 1  IDiag  1:
 RMSU=  3.78D-06    CP:  1.00D+00  1.00D+00
 E= -727.906774334155     Delta-E=       -0.000000237445 Rises=F Damp=F
 DIIS: error= 2.18D-05 at cycle   3 NSaved=   3.
 NSaved= 3 IEnMin= 3 EnMin= -727.906774334155     IErMin= 3 ErrMin= 2.18D-05
 ErrMax= 2.18D-05  0.00D+00 EMaxC= 1.00D-01 BMatC= 1.91D-07 BMatP= 4.66D-07
 IDIUse=1 WtCom= 1.00D+00 WtEn= 0.00D+00
 Coeff-Com:  0.312D-01 0.385D+00 0.583D+00
 Coeff:      0.312D-01 0.385D+00 0.583D+00
 Gap=     0.212 Goal=   None    Shift=    0.000
 RMSDP=1.79D-06 MaxDP=1.07D-04 DE=-2.37D-07 OVMax= 1.55D-04

 Cycle  11  Pass 1  IDiag  1:
 RMSU=  7.62D-07    CP:  1.00D+00  1.01D+00  5.84D-01
 E= -727.906774483226     Delta-E=       -0.000000149071 Rises=F Damp=F
 DIIS: error= 1.15D-05 at cycle   4 NSaved=   4.
 NSaved= 4 IEnMin= 4 EnMin= -727.906774483226     IErMin= 4 ErrMin= 1.15D-05
 ErrMax= 1.15D-05  0.00D+00 EMaxC= 1.00D-01 BMatC= 2.53D-08 BMatP= 1.91D-07
 IDIUse=1 WtCom= 1.00D+00 WtEn= 0.00D+00
 Coeff-Com: -0.476D-02 0.225D+00 0.389D+00 0.390D+00
 Coeff:     -0.476D-02 0.225D+00 0.389D+00 0.390D+00
 Gap=     0.212 Goal=   None    Shift=    0.000
 RMSDP=4.84D-07 MaxDP=2.49D-05 DE=-1.49D-07 OVMax= 4.21D-05

 Cycle  12  Pass 1  IDiag  1:
 RMSU=  1.49D-07    CP:  1.00D+00  1.01D+00  6.33D-01  4.49D-01
 E= -727.906774503560     Delta-E=       -0.000000020334 Rises=F Damp=F
 DIIS: error= 7.32D-07 at cycle   5 NSaved=   5.
 NSaved= 5 IEnMin= 5 EnMin= -727.906774503560     IErMin= 5 ErrMin= 7.32D-07
 ErrMax= 7.32D-07  0.00D+00 EMaxC= 1.00D-01 BMatC= 2.12D-10 BMatP= 2.53D-08
 IDIUse=1 WtCom= 1.00D+00 WtEn= 0.00D+00
 Coeff-Com: -0.313D-02 0.112D+00 0.195D+00 0.210D+00 0.486D+00
 Coeff:     -0.313D-02 0.112D+00 0.195D+00 0.210D+00 0.486D+00
 Gap=     0.212 Goal=   None    Shift=    0.000
 RMSDP=5.02D-08 MaxDP=1.94D-06 DE=-2.03D-08 OVMax= 2.70D-06

 Cycle  13  Pass 1  IDiag  1:
 RMSU=  4.18D-08    CP:  1.00D+00  1.01D+00  6.29D-01  4.52D-01  8.52D-01
 E= -727.906774503731     Delta-E=       -0.000000000171 Rises=F Damp=F
 DIIS: error= 1.84D-07 at cycle   6 NSaved=   6.
 NSaved= 6 IEnMin= 6 EnMin= -727.906774503731     IErMin= 6 ErrMin= 1.84D-07
 ErrMax= 1.84D-07  0.00D+00 EMaxC= 1.00D-01 BMatC= 8.17D-12 BMatP= 2.12D-10
 IDIUse=1 WtCom= 1.00D+00 WtEn= 0.00D+00
 Coeff-Com: -0.102D-02 0.338D-01 0.581D-01 0.684D-01 0.198D+00 0.643D+00
 Coeff:     -0.102D-02 0.338D-01 0.581D-01 0.684D-01 0.198D+00 0.643D+00
 Gap=     0.212 Goal=   None    Shift=    0.000
 RMSDP=1.63D-08 MaxDP=1.15D-06 DE=-1.71D-10 OVMax= 1.95D-06

 Cycle  14  Pass 1  IDiag  1:
 RMSU=  1.46D-08    CP:  1.00D+00  1.01D+00  6.29D-01  4.54D-01  8.89D-01
                    CP:  9.04D-01
 E= -727.906774503726     Delta-E=        0.000000000006 Rises=F Damp=F
 DIIS: error= 1.28D-07 at cycle   7 NSaved=   7.
 NSaved= 7 IEnMin= 6 EnMin= -727.906774503731     IErMin= 7 ErrMin= 1.28D-07
 ErrMax= 1.28D-07  0.00D+00 EMaxC= 1.00D-01 BMatC= 5.67D-12 BMatP= 8.17D-12
 IDIUse=1 WtCom= 1.00D+00 WtEn= 0.00D+00
 Coeff-Com:  0.416D-04-0.377D-02-0.723D-02-0.209D-02 0.176D-01 0.484D+00
 Coeff-Com:  0.512D+00
 Coeff:      0.416D-04-0.377D-02-0.723D-02-0.209D-02 0.176D-01 0.484D+00
 Coeff:      0.512D+00
 Gap=     0.212 Goal=   None    Shift=    0.000
 RMSDP=8.65D-09 MaxDP=5.04D-07 DE= 5.68D-12 OVMax= 9.16D-07

 SCF Done:  E(RPBE1PBE) =  -727.906774504     A.U. after   14 cycles
            NFock= 14  Conv=0.87D-08     -V/T= 2.0098
 KE= 7.208715883957D+02 PE=-3.999367997806D+03 EE= 1.397157357341D+03
 Leave Link  502 at Sun Jan 15 21:19:21 2023, MaxMem=  4194304000 cpu:             536.0 elap:              67.1
 (Enter /software/gaussian/G16-A.03/avx/g16/l801.exe)
 DoSCS=F DFT=T ScalE2(SS,OS)=  1.000000  1.000000
 Range of M.O.s used for correlation:     1   324
 NBasis=   324 NAE=    61 NBE=    61 NFC=     0 NFV=     0
 NROrb=    324 NOA=    61 NOB=    61 NVA=   263 NVB=   263
 Leave Link  801 at Sun Jan 15 21:19:22 2023, MaxMem=  4194304000 cpu:               0.3 elap:               0.1
 (Enter /software/gaussian/G16-A.03/avx/g16/l1101.exe)
 Using compressed storage, NAtomX=    36.
 Will process     37 centers per pass.
   1 Symmetry operations used in ECPInt.
 ECPInt:  NShTT=   12246 NPrTT=   43046 LenC2=   10984 LenP2D=   27808.
 LDataN:  DoStor=T MaxTD1= 5 Len=  102
 R6Disp: Adding Grimme-D3(BJ) dispersion energy 1st derivatives to the gradient.
 Leave Link 1101 at Sun Jan 15 21:19:23 2023, MaxMem=  4194304000 cpu:               4.8 elap:               0.7
 (Enter /software/gaussian/G16-A.03/avx/g16/l1102.exe)
 Symmetrizing basis deriv contribution to polar:
 IMax=3 JMax=2 DiffMx= 0.00D+00
 Leave Link 1102 at Sun Jan 15 21:19:24 2023, MaxMem=  4194304000 cpu:               0.6 elap:               0.1
 (Enter /software/gaussian/G16-A.03/avx/g16/l1110.exe)
 Forming Gx(P) for the SCF density, NAtomX=    36.
 Integral derivatives from FoFJK, PRISM(SPDF).
 Do as many integral derivatives as possible in FoFJK.
 G2DrvN: MDV=    4194301272.
 G2DrvN: will do    37 centers at a time, making    1 passes.
 Calling FoFCou, ICntrl=  3107 FMM=F I1Cent=   0 AccDes= 0.00D+00.
 FoFJK:  IHMeth= 1 ICntrl=    3107 DoSepK=F KAlg= 0 I1Cent=           0 FoldK=F
 IRaf=         0 NMat=       1 IRICut=       1 DoRegI=T DoRafI=F ISym2E= 0 IDoP0=0 IntGTp=1.
 FoFCou: FMM=F IPFlag=           0 FMFlag=      100000 FMFlg1=           0
         NFxFlg=           0 DoJE=F BraDBF=F KetDBF=F FulRan=T
         wScrn=  0.000000 ICntrl=      3107 IOpCl=  0 I1Cent=           0 NGrid=           0
         NMat0=    1 NMatS0=      1 NMatT0=    0 NMatD0=    1 NMtDS0=    0 NMtDT0=    0
 Symmetry not used in FoFCou.
 End of G2Drv F.D. properties file   721 does not exist.
 End of G2Drv F.D. properties file   722 does not exist.
 End of G2Drv F.D. properties file   788 does not exist.
 Leave Link 1110 at Sun Jan 15 21:23:12 2023, MaxMem=  4194304000 cpu:            1812.6 elap:             226.6
 (Enter /software/gaussian/G16-A.03/avx/g16/l1002.exe)
 Minotr:  Closed shell wavefunction.
          IDoAtm=111111111111111111111111111111111111
          Direct CPHF calculation.
          Differentiating once with respect to electric field.
                with respect to dipole field.
          Differentiating once with respect to nuclear coordinates.
          Requested convergence is 1.0D-08 RMS, and 1.0D-07 maximum.
          Secondary convergence is 1.0D-12 RMS, and 1.0D-12 maximum.
          NewPWx=T KeepS1=F KeepF1=F KeepIn=T MapXYZ=F SortEE=F KeepMc=T.
        10911 words used for storage of precomputed grid.
 Keep R1 ints in memory in canonical form, NReq=1405880441.
 FoFCou: FMM=F IPFlag=           0 FMFlag=           0 FMFlg1=           0
         NFxFlg=           0 DoJE=F BraDBF=F KetDBF=F FulRan=T
         wScrn=  0.000000 ICntrl=       600 IOpCl=  0 I1Cent=           0 NGrid=           0
         NMat0=    1 NMatS0=  52650 NMatT0=    0 NMatD0=    1 NMtDS0=    0 NMtDT0=    0
 Symmetry not used in FoFCou.
 Two-electron integral symmetry not used.
          MDV=    4194304000 using IRadAn=       1.
          Solving linear equations simultaneously, MaxMat=       0.
          There are   111 degrees of freedom in the 1st order CPHF.  IDoFFX=6 NUNeed=     3.
    108 vectors produced by pass  0 Test12= 1.60D-14 1.00D-09 XBig12= 1.08D+02 5.17D+00.
 AX will form   108 AO Fock derivatives at one time.
    108 vectors produced by pass  1 Test12= 1.60D-14 1.00D-09 XBig12= 4.40D+01 1.84D+00.
    108 vectors produced by pass  2 Test12= 1.60D-14 1.00D-09 XBig12= 4.35D-01 7.88D-02.
    108 vectors produced by pass  3 Test12= 1.60D-14 1.00D-09 XBig12= 1.38D-03 3.02D-03.
    108 vectors produced by pass  4 Test12= 1.60D-14 1.00D-09 XBig12= 2.13D-06 1.14D-04.
     73 vectors produced by pass  5 Test12= 1.60D-14 1.00D-09 XBig12= 2.32D-09 3.77D-06.
     14 vectors produced by pass  6 Test12= 1.60D-14 1.00D-09 XBig12= 2.62D-12 1.49D-07.
      3 vectors produced by pass  7 Test12= 1.60D-14 1.00D-09 XBig12= 2.93D-15 5.12D-09.
 InvSVY:  IOpt=1 It=  1 EMax= 7.11D-15
 Solved reduced A of dimension   630 with   111 vectors.
 FullF1:  Do perturbations      1 to       3.
 Isotropic polarizability for W=    0.000000      146.53 Bohr**3.
 End of Minotr F.D. properties file   721 does not exist.
 End of Minotr F.D. properties file   722 does not exist.
 End of Minotr F.D. properties file   788 does not exist.
 Leave Link 1002 at Sun Jan 15 21:27:00 2023, MaxMem=  4194304000 cpu:            1819.2 elap:             227.5
 (Enter /software/gaussian/G16-A.03/avx/g16/l601.exe)
 Copying SCF densities to generalized density rwf, IOpCl= 0 IROHF=0.

 **********************************************************************

            Population analysis using the SCF density.

 **********************************************************************

 Orbital symmetries:
       Occupied  (A) (A) (A) (A) (A) (A) (A) (A) (A) (A) (A) (A)
                 (A) (A) (A) (A) (A) (A) (A) (A) (A) (A) (A) (A)
                 (A) (A) (A) (A) (A) (A) (A) (A) (A) (A) (A) (A)
                 (A) (A) (A) (A) (A) (A) (A) (A) (A) (A) (A) (A)
                 (A) (A) (A) (A) (A) (A) (A) (A) (A) (A) (A) (A)
                 (A)
       Virtual   (A) (A) (A) (A) (A) (A) (A) (A) (A) (A) (A) (A)
                 (A) (A) (A) (A) (A) (A) (A) (A) (A) (A) (A) (A)
                 (A) (A) (A) (A) (A) (A) (A) (A) (A) (A) (A) (A)
                 (A) (A) (A) (A) (A) (A) (A) (A) (A) (A) (A) (A)
                 (A) (A) (A) (A) (A) (A) (A) (A) (A) (A) (A) (A)
                 (A) (A) (A) (A) (A) (A) (A) (A) (A) (A) (A) (A)
                 (A) (A) (A) (A) (A) (A) (A) (A) (A) (A) (A) (A)
                 (A) (A) (A) (A) (A) (A) (A) (A) (A) (A) (A) (A)
                 (A) (A) (A) (A) (A) (A) (A) (A) (A) (A) (A) (A)
                 (A) (A) (A) (A) (A) (A) (A) (A) (A) (A) (A) (A)
                 (A) (A) (A) (A) (A) (A) (A) (A) (A) (A) (A) (A)
                 (A) (A) (A) (A) (A) (A) (A) (A) (A) (A) (A) (A)
                 (A) (A) (A) (A) (A) (A) (A) (A) (A) (A) (A) (A)
                 (A) (A) (A) (A) (A) (A) (A) (A) (A) (A) (A) (A)
                 (A) (A) (A) (A) (A) (A) (A) (A) (A) (A) (A) (A)
                 (A) (A) (A) (A) (A) (A) (A) (A) (A) (A) (A) (A)
                 (A) (A) (A) (A) (A) (A) (A) (A) (A) (A) (A) (A)
                 (A) (A) (A) (A) (A) (A) (A) (A) (A) (A) (A) (A)
                 (A) (A) (A) (A) (A) (A) (A) (A) (A) (A) (A) (A)
                 (A) (A) (A) (A) (A) (A) (A) (A) (A) (A) (A) (A)
                 (A) (A) (A) (A) (A) (A) (A) (A) (A) (A) (A) (A)
                 (A) (A) (A) (A) (A) (A) (A) (A) (A) (A) (A)
 The electronic state is 1-A.
 Alpha  occ. eigenvalues --  -19.25484 -19.25457 -14.36274 -14.36228 -10.32253
 Alpha  occ. eigenvalues --  -10.32193 -10.29441 -10.29330 -10.26412 -10.26406
 Alpha  occ. eigenvalues --  -10.23877 -10.23819 -10.22891 -10.22846 -10.22086
 Alpha  occ. eigenvalues --  -10.21459  -1.13489  -1.12095  -0.93730  -0.91347
 Alpha  occ. eigenvalues --   -0.84062  -0.81959  -0.78327  -0.75093  -0.69899
 Alpha  occ. eigenvalues --   -0.69622  -0.67287  -0.65180  -0.64574  -0.58488
 Alpha  occ. eigenvalues --   -0.57640  -0.56086  -0.53729  -0.52561  -0.50900
 Alpha  occ. eigenvalues --   -0.48936  -0.48266  -0.46805  -0.46096  -0.44708
 Alpha  occ. eigenvalues --   -0.44209  -0.43836  -0.42620  -0.41635  -0.39925
 Alpha  occ. eigenvalues --   -0.39742  -0.39411  -0.38857  -0.38413  -0.38066
 Alpha  occ. eigenvalues --   -0.36943  -0.35490  -0.34978  -0.34933  -0.34503
 Alpha  occ. eigenvalues --   -0.33686  -0.33183  -0.29069  -0.27249  -0.25961
 Alpha  occ. eigenvalues --   -0.24012
 Alpha virt. eigenvalues --   -0.02799   0.06055   0.06659   0.08546   0.08736
 Alpha virt. eigenvalues --    0.08844   0.09233   0.10306   0.10647   0.11948
 Alpha virt. eigenvalues --    0.13010   0.13364   0.13779   0.13869   0.14775
 Alpha virt. eigenvalues --    0.14850   0.15184   0.15551   0.16480   0.16961
 Alpha virt. eigenvalues --    0.17433   0.18477   0.18779   0.19045   0.19559
 Alpha virt. eigenvalues --    0.21155   0.22947   0.23913   0.24309   0.25438
 Alpha virt. eigenvalues --    0.26234   0.27052   0.27509   0.28378   0.29306
 Alpha virt. eigenvalues --    0.33137   0.38323   0.39244   0.40452   0.40574
 Alpha virt. eigenvalues --    0.40744   0.42347   0.43072   0.43906   0.44711
 Alpha virt. eigenvalues --    0.45168   0.45822   0.49823   0.52079   0.52450
 Alpha virt. eigenvalues --    0.53363   0.53868   0.54415   0.55932   0.58370
 Alpha virt. eigenvalues --    0.58406   0.58727   0.59801   0.60923   0.62352
 Alpha virt. eigenvalues --    0.62535   0.62890   0.64071   0.64218   0.64376
 Alpha virt. eigenvalues --    0.64438   0.64922   0.65434   0.65758   0.66733
 Alpha virt. eigenvalues --    0.67298   0.67495   0.67803   0.68093   0.68979
 Alpha virt. eigenvalues --    0.69143   0.69567   0.69727   0.70190   0.70490
 Alpha virt. eigenvalues --    0.70835   0.71606   0.71700   0.72510   0.72972
 Alpha virt. eigenvalues --    0.73295   0.73491   0.74214   0.75396   0.75545
 Alpha virt. eigenvalues --    0.76101   0.77135   0.78099   0.79816   0.80789
 Alpha virt. eigenvalues --    0.81752   0.84062   0.87312   0.87427   0.89411
 Alpha virt. eigenvalues --    0.93087   0.94371   0.95543   0.98626   1.00379
 Alpha virt. eigenvalues --    1.04509   1.06608   1.07916   1.09288   1.09540
 Alpha virt. eigenvalues --    1.10200   1.11232   1.12734   1.13101   1.15508
 Alpha virt. eigenvalues --    1.17997   1.19752   1.23056   1.25456   1.27962
 Alpha virt. eigenvalues --    1.31106   1.31385   1.32691   1.34701   1.36422
 Alpha virt. eigenvalues --    1.38685   1.40854   1.44069   1.45205   1.47067
 Alpha virt. eigenvalues --    1.47408   1.48596   1.52797   1.53655   1.54503
 Alpha virt. eigenvalues --    1.54876   1.55381   1.56477   1.58551   1.58877
 Alpha virt. eigenvalues --    1.60426   1.61849   1.64235   1.65443   1.66914
 Alpha virt. eigenvalues --    1.67596   1.69519   1.71232   1.72625   1.73398
 Alpha virt. eigenvalues --    1.73804   1.74934   1.76104   1.77461   1.77763
 Alpha virt. eigenvalues --    1.79386   1.79472   1.79858   1.80673   1.81830
 Alpha virt. eigenvalues --    1.82561   1.83127   1.83630   1.84077   1.85151
 Alpha virt. eigenvalues --    1.85915   1.86651   1.86927   1.88077   1.89096
 Alpha virt. eigenvalues --    1.90167   1.90680   1.92464   1.93784   1.94400
 Alpha virt. eigenvalues --    1.94746   1.95667   1.96127   1.96755   1.96927
 Alpha virt. eigenvalues --    1.97541   1.98601   1.98841   2.00858   2.01588
 Alpha virt. eigenvalues --    2.03502   2.04671   2.05801   2.06897   2.07672
 Alpha virt. eigenvalues --    2.07869   2.11512   2.12138   2.13760   2.17647
 Alpha virt. eigenvalues --    2.20654   2.25661   2.26666   2.28624   2.29035
 Alpha virt. eigenvalues --    2.31018   2.31419   2.33682   2.35078   2.35956
 Alpha virt. eigenvalues --    2.36946   2.39886   2.40472   2.42579   2.42943
 Alpha virt. eigenvalues --    2.43908   2.45502   2.49698   2.51423   2.51798
 Alpha virt. eigenvalues --    2.54293   2.54825   2.57995   2.59911   2.61141
 Alpha virt. eigenvalues --    2.62969   2.65609   2.66767   2.67748   2.68637
 Alpha virt. eigenvalues --    2.69979   2.70639   2.73926   2.74673   2.80009
 Alpha virt. eigenvalues --    2.83720   2.85580   2.86978   2.87314   2.87883
 Alpha virt. eigenvalues --    2.89361   2.89596   2.90255   2.93435   2.93854
 Alpha virt. eigenvalues --    2.94545   2.95192   2.96188   2.98579   3.00191
 Alpha virt. eigenvalues --    3.00726   3.02558   3.03719   3.05606   3.07721
 Alpha virt. eigenvalues --    3.09019   3.09483   3.10365   3.11365   3.13752
 Alpha virt. eigenvalues --    3.14322   3.18538   3.25214   3.30356   3.34656
 Alpha virt. eigenvalues --    3.53009   3.56656   3.74930
     Molecular Orbital Coefficients:
                          57        58        59        60        61
                           O         O         O         O         O
     Eigenvalues --    -0.33183  -0.29069  -0.27249  -0.25961  -0.24012
   1 1   C  1S          0.00092  -0.02364   0.00126  -0.02700  -0.00746
   2        2S         -0.00286   0.05919  -0.00518   0.06264   0.01922
   3        3S          0.00081   0.09306   0.02398   0.14345   0.02865
   4        4PX        -0.01044  -0.00575   0.02179  -0.02437  -0.01570
   5        4PY         0.02295  -0.12920   0.01297  -0.12281  -0.03137
   6        4PZ         0.00039  -0.02114  -0.09098  -0.02422   0.04830
   7        5PX        -0.00649   0.01285  -0.00273  -0.00913   0.01162
   8        5PY         0.00780  -0.10076  -0.00719  -0.11726  -0.01802
   9        5PZ        -0.00121  -0.00361  -0.02601  -0.01246   0.00346
  10        6D 0        0.00001  -0.00232  -0.00612  -0.00286   0.00310
  11        6D+1        0.00034   0.00059  -0.01189   0.00083   0.00760
  12        6D-1        0.00003  -0.00145  -0.00348  -0.00221   0.00248
  13        6D+2        0.00135   0.00171   0.00393   0.00220  -0.00207
  14        6D-2        0.00001  -0.00144   0.00284  -0.00351  -0.00283
  15 2   C  1S         -0.00028   0.02086   0.00598   0.02467  -0.00011
  16        2S         -0.00012  -0.04959  -0.01643  -0.06494   0.00500
  17        3S          0.00263  -0.03140  -0.04115  -0.04869  -0.01538
  18        4PX         0.00002   0.07937  -0.04431   0.09739   0.05906
  19        4PY        -0.02150   0.08475  -0.01264   0.07874   0.02565
  20        4PZ        -0.00321   0.05050   0.10385   0.06110  -0.08915
  21        5PX        -0.00334   0.03981  -0.02133   0.05804  -0.01724
  22        5PY        -0.01040  -0.00896  -0.01893  -0.01894   0.00658
  23        5PZ        -0.00387   0.00912   0.04610   0.00933  -0.00414
  24        6D 0        0.00064   0.00016   0.00706   0.00089  -0.01080
  25        6D+1       -0.00010  -0.00255   0.00846  -0.00208  -0.01370
  26        6D-1       -0.00060   0.00450  -0.00686   0.00454   0.00649
  27        6D+2        0.00135  -0.01357  -0.00467  -0.01440   0.00386
  28        6D-2       -0.00015   0.00954   0.00107   0.01018   0.00213
  29 3   H  1S          0.00809  -0.01804   0.11569  -0.00873  -0.13229
  30        2S          0.00344   0.00457   0.07268   0.01110  -0.10058
  31        3PX         0.00016   0.00038   0.00039   0.00089  -0.00010
  32        3PY        -0.00027   0.00199   0.00255   0.00220  -0.00320
  33        3PZ        -0.00040   0.00184  -0.00215   0.00167   0.00247
  34 4   N  1S         -0.00255   0.06556   0.00024   0.07854   0.01495
  35        2S         -0.00444   0.13237   0.00070   0.16671   0.03257
  36        3S         -0.02464   0.18292  -0.00706   0.16339   0.04549
  37        4PX        -0.00865   0.13263  -0.06476   0.14005   0.12694
  38        4PY        -0.00501   0.29849  -0.02433   0.31569   0.09435
  39        4PZ        -0.00166   0.09535   0.20230   0.12612  -0.28081
  40        5PX         0.00769  -0.09243   0.05890  -0.05044  -0.09421
  41        5PY         0.00283  -0.20830   0.01996  -0.21854  -0.06232
  42        5PZ         0.00097  -0.06434  -0.16034  -0.07369   0.20909
  43        6D 0       -0.00028   0.00718   0.00014   0.00772   0.00377
  44        6D+1        0.00016  -0.00214   0.00466  -0.00357  -0.00310
  45        6D-1       -0.00016  -0.00556  -0.01200  -0.00787   0.01522
  46        6D+2       -0.00023   0.00965  -0.00301   0.00831   0.00392
  47        6D-2       -0.00040  -0.00483   0.00295  -0.00847  -0.00694
  48 5   C  1S         -0.00566   0.04779  -0.00198   0.02147   0.00304
  49        2S          0.01274  -0.12737   0.00400  -0.05906  -0.00627
  50        3S          0.04853  -0.04273   0.01615   0.25166   0.04971
  51        4PX        -0.00601  -0.00838   0.03444  -0.07575  -0.05642
  52        4PY         0.00103   0.07251   0.02028   0.05551  -0.01598
  53        4PZ        -0.00282  -0.00067  -0.14343  -0.02601   0.14492
  54        5PX        -0.02558  -0.01991   0.01860  -0.21799  -0.10210
  55        5PY        -0.02340  -0.04030  -0.00161  -0.13396  -0.00918
  56        5PZ        -0.01053  -0.01576  -0.08575  -0.08487   0.08953
  57        6D 0        0.00027  -0.00159   0.00944  -0.00105  -0.00107
  58        6D+1        0.00055  -0.00161   0.00465  -0.00454   0.01062
  59        6D-1        0.00024   0.00920   0.02537   0.00852  -0.02260
  60        6D+2        0.00173  -0.01743   0.00262  -0.01322  -0.00932
  61        6D-2        0.00080   0.01500  -0.00924   0.01301   0.00863
  62 6   O  1S         -0.00550   0.01267  -0.00098   0.00686   0.00165
  63        2S         -0.01277   0.02815  -0.00227   0.01241   0.00276
  64        3S         -0.00503   0.06981  -0.00288   0.09275   0.01887
  65        4PX         0.01680  -0.01807  -0.08543   0.01428   0.06547
  66        4PY        -0.01631  -0.11913  -0.04367  -0.10315   0.01305
  67        4PZ         0.00558  -0.00555   0.29155   0.00625  -0.21039
  68        5PX         0.00818  -0.01922  -0.07664   0.00458   0.06071
  69        5PY        -0.01307  -0.08734  -0.03603  -0.09337   0.00780
  70        5PZ         0.00285  -0.00571   0.23669  -0.00152  -0.17376
  71        6D 0       -0.00044  -0.00115  -0.00071  -0.00120  -0.00042
  72        6D+1        0.00026  -0.00053   0.00169   0.00008  -0.00145
  73        6D-1       -0.00005  -0.00083  -0.00622  -0.00098   0.00274
  74        6D+2        0.00013  -0.00226  -0.00122  -0.00035   0.00076
  75        6D-2       -0.00036  -0.00335   0.00160  -0.00367  -0.00145
  76 7   C  1S          0.01324   0.04842  -0.00606  -0.02080  -0.00362
  77        2S         -0.03520  -0.12685   0.01457   0.05654   0.01073
  78        3S         -0.06309  -0.07246   0.02147  -0.25123  -0.05609
  79        4PX         0.03877   0.00277   0.02506  -0.08038   0.02137
  80        4PY        -0.04864   0.07277   0.00211  -0.06470   0.00624
  81        4PZ         0.00316  -0.00348  -0.14187   0.01746  -0.15242
  82        5PX        -0.02196   0.00939   0.00276  -0.24639  -0.04703
  83        5PY         0.04886  -0.02766   0.01298   0.10674   0.00156
  84        5PZ         0.00021  -0.00580  -0.08074  -0.02211  -0.12561
  85        6D 0        0.00064  -0.00328  -0.00040   0.00042   0.00647
  86        6D+1        0.00024  -0.00420  -0.00995   0.00287   0.00690
  87        6D-1        0.00385  -0.00050   0.02651  -0.00397   0.02594
  88        6D+2       -0.00059  -0.01301   0.00625   0.00974   0.00280
  89        6D-2        0.00940  -0.02059  -0.00022   0.01808  -0.00247
  90 8   N  1S         -0.01296   0.06682  -0.00830  -0.07786  -0.01458
  91        2S         -0.03028   0.13503  -0.01293  -0.16570  -0.02800
  92        3S          0.01011   0.19724  -0.05372  -0.16332  -0.07167
  93        4PX         0.03036  -0.19003  -0.00953   0.21319  -0.01083
  94        4PY        -0.07653   0.28467  -0.05767  -0.29281  -0.07641
  95        4PZ         0.01620  -0.00002   0.20343  -0.05265   0.31201
  96        5PX        -0.00622   0.13496   0.01804  -0.10329   0.02689
  97        5PY         0.06091  -0.19910   0.03458   0.20824   0.04732
  98        5PZ        -0.00483  -0.00343  -0.16169   0.04934  -0.22917
  99        6D 0       -0.00280   0.00821  -0.00372  -0.00887  -0.00388
 100        6D+1        0.00054  -0.00083  -0.00286   0.00129   0.00119
 101        6D-1       -0.00191  -0.00153  -0.01217   0.00379  -0.01715
 102        6D+2       -0.00155   0.00784  -0.00155  -0.00513  -0.00199
 103        6D-2       -0.00677   0.00856   0.00126  -0.01257   0.00068
 104 9   C  1S          0.00439   0.02092  -0.00632  -0.02342  -0.00779
 105        2S         -0.00185  -0.04651   0.01642   0.05691   0.02719
 106        3S         -0.06057  -0.06758   0.03179   0.10793  -0.02745
 107        4PX         0.07286  -0.10243  -0.00859   0.12312   0.00438
 108        4PY         0.19115   0.08221  -0.03040  -0.06750  -0.02596
 109        4PZ        -0.01155   0.00504   0.10934  -0.01988   0.10481
 110        5PX         0.03117  -0.03900   0.01326   0.04114   0.04236
 111        5PY         0.04984  -0.01310   0.01002   0.02602   0.01068
 112        5PZ        -0.02226  -0.00513   0.04485   0.00886  -0.00670
 113        6D 0       -0.01183  -0.00141  -0.00249   0.00157  -0.00405
 114        6D+1        0.00255  -0.00245  -0.01019   0.00559  -0.01652
 115        6D-1       -0.00535  -0.00282  -0.00696   0.00346  -0.00612
 116        6D+2       -0.00961  -0.01093   0.00298   0.01044   0.00421
 117        6D-2        0.00287  -0.01308   0.00429   0.01330   0.00456
 118 10  H  1S         -0.09835  -0.05074  -0.09635   0.06441  -0.11118
 119        2S         -0.05868  -0.01986  -0.05830   0.03026  -0.08447
 120        3PX         0.00008  -0.00164  -0.00055   0.00229  -0.00002
 121        3PY         0.00233   0.00168  -0.00275  -0.00105  -0.00356
 122        3PZ        -0.00476  -0.00220  -0.00127   0.00215  -0.00117
 123 11  C  1S         -0.01054  -0.02477   0.00300   0.02774   0.00402
 124        2S          0.02208   0.06132  -0.00627  -0.06302  -0.00936
 125        3S          0.09520   0.10952  -0.03596  -0.16917  -0.01678
 126        4PX         0.01529   0.02928   0.01365  -0.04711   0.00272
 127        4PY        -0.18255  -0.13541   0.03022   0.11968   0.02916
 128        4PZ        -0.02886  -0.01161  -0.09053   0.01427  -0.05202
 129        5PX         0.03044   0.00138  -0.00358  -0.02564  -0.00739
 130        5PY        -0.10240  -0.10961   0.03044   0.12244   0.02775
 131        5PZ        -0.00396  -0.00099  -0.02462  -0.00413  -0.00019
 132        6D 0       -0.00149  -0.00140   0.00657   0.00110   0.00454
 133        6D+1       -0.00044   0.00251   0.01223  -0.00421   0.00722
 134        6D-1        0.00049  -0.00096  -0.00267   0.00093  -0.00230
 135        6D+2       -0.00946   0.00049  -0.00243  -0.00027  -0.00169
 136        6D-2       -0.00344   0.00236  -0.00099  -0.00437  -0.00136
 137 12  O  1S          0.01834   0.01301  -0.00263  -0.00636  -0.00230
 138        2S          0.03841   0.02946  -0.00624  -0.01134  -0.00518
 139        3S          0.01464   0.06322  -0.01298  -0.08854  -0.01592
 140        4PX         0.04373   0.02902  -0.06349   0.01496  -0.04002
 141        4PY         0.18315  -0.11350  -0.00767   0.10430   0.00219
 142        4PZ         0.04555   0.02335   0.29510  -0.05447   0.21619
 143        5PX         0.03441   0.02724  -0.05438   0.00131  -0.02990
 144        5PY         0.13596  -0.08085  -0.00732   0.09367   0.00442
 145        5PZ         0.03411   0.01939   0.24094  -0.04391   0.18048
 146        6D 0        0.00352  -0.00082  -0.00096   0.00115  -0.00058
 147        6D+1       -0.00029  -0.00006  -0.00037  -0.00023  -0.00101
 148        6D-1       -0.00110   0.00029  -0.00659   0.00019  -0.00332
 149        6D+2        0.00287  -0.00306   0.00007   0.00120   0.00046
 150        6D-2        0.00123   0.00294   0.00095  -0.00375  -0.00009
 151 13  C  1S          0.00173   0.00477  -0.01816  -0.00128  -0.02342
 152        2S         -0.01014  -0.01377   0.04484   0.00591   0.05017
 153        3S         -0.00009  -0.02689   0.07158  -0.00058   0.20251
 154        4PX         0.02606   0.00818   0.05506  -0.01420   0.06781
 155        4PY        -0.29979  -0.02659   0.06569   0.00001   0.06639
 156        4PZ        -0.06985   0.00461  -0.08828   0.00979  -0.08644
 157        5PX         0.01203   0.03626   0.03397  -0.04342   0.03599
 158        5PY        -0.12296   0.00977   0.03465  -0.03272   0.07149
 159        5PZ        -0.02368   0.03340  -0.05559  -0.02210  -0.06488
 160        6D 0       -0.01427  -0.00147  -0.00002   0.00072   0.00018
 161        6D+1       -0.00142   0.00093  -0.00285  -0.00075  -0.00244
 162        6D-1        0.00528  -0.00068  -0.00333   0.00179  -0.00346
 163        6D+2       -0.01342  -0.00382  -0.00018   0.00344  -0.00109
 164        6D-2       -0.00933  -0.00129   0.00235   0.00073   0.00278
 165 14  C  1S          0.00745   0.00415  -0.00067  -0.00351   0.00158
 166        2S         -0.01968  -0.01119   0.00100   0.01097  -0.00344
 167        3S         -0.00953   0.02931   0.00922  -0.03401  -0.03696
 168        4PX        -0.03788  -0.02052  -0.02500   0.02112  -0.03364
 169        4PY         0.15525   0.00106  -0.00278   0.00309  -0.00550
 170        4PZ         0.01366  -0.00406   0.01378   0.00015   0.00549
 171        5PX        -0.01418   0.00240  -0.02498  -0.00057  -0.04602
 172        5PY         0.05402  -0.00645   0.00158   0.00568  -0.00398
 173        5PZ         0.00391  -0.00880   0.01118   0.00659  -0.00291
 174        6D 0       -0.00714  -0.00007  -0.00091   0.00017  -0.00063
 175        6D+1       -0.00195  -0.00048  -0.00345   0.00112  -0.00339
 176        6D-1        0.00171  -0.00033  -0.00088   0.00062  -0.00064
 177        6D+2       -0.00684  -0.00067   0.00085   0.00018   0.00058
 178        6D-2       -0.01414  -0.00059   0.00258  -0.00046   0.00256
 179 15  C  1S          0.01945   0.00329  -0.00081  -0.00185  -0.00214
 180        2S         -0.04694  -0.00500   0.00083   0.00377   0.00930
 181        3S         -0.04852  -0.07068   0.00664   0.05006  -0.05426
 182        4PX         0.00778  -0.02191   0.02296   0.01038   0.02498
 183        4PY         0.17440   0.01929  -0.00619  -0.00983  -0.00580
 184        4PZ         0.10898   0.00730   0.03783  -0.00858   0.02826
 185        5PX         0.00870  -0.02336   0.02859   0.00394   0.01786
 186        5PY         0.06877   0.01409  -0.01103  -0.00281  -0.00931
 187        5PZ         0.06053   0.00652   0.03444  -0.01773   0.04514
 188        6D 0       -0.00815  -0.00067   0.00189   0.00038   0.00236
 189        6D+1       -0.00330  -0.00065  -0.00088   0.00047  -0.00064
 190        6D-1        0.00819   0.00117  -0.00250  -0.00031  -0.00197
 191        6D+2       -0.01037  -0.00206   0.00121   0.00079   0.00004
 192        6D-2       -0.00194  -0.00002  -0.00088   0.00032  -0.00102
 193 16  C  1S          0.00026   0.00635   0.01764   0.00836  -0.02073
 194        2S         -0.00090  -0.01138  -0.04623  -0.01411   0.05073
 195        3S          0.00095  -0.08835  -0.04469  -0.12399   0.11671
 196        4PX        -0.00093   0.00723   0.08160   0.01741  -0.08944
 197        4PY         0.02169  -0.03438  -0.03606  -0.02383   0.03394
 198        4PZ         0.00233  -0.03879  -0.06217  -0.03328   0.05552
 199        5PX         0.00051   0.00378   0.04093   0.01005  -0.04427
 200        5PY         0.00730   0.00886  -0.00941   0.01110   0.05273
 201        5PZ         0.00268  -0.04908  -0.02092  -0.05188   0.04222
 202        6D 0        0.00070   0.00035   0.00181   0.00089  -0.00154
 203        6D+1       -0.00030   0.00062   0.00253   0.00078  -0.00279
 204        6D-1       -0.00062   0.00039  -0.00287   0.00059   0.00313
 205        6D+2        0.00096  -0.00470  -0.00070  -0.00411  -0.00075
 206        6D-2       -0.00024  -0.00098   0.00272  -0.00069  -0.00308
 207 17  C  1S          0.00241  -0.00004   0.00052   0.00149  -0.00159
 208        2S         -0.00582   0.00260  -0.00003  -0.00484   0.00201
 209        3S         -0.00618   0.00431  -0.00020   0.02860   0.02473
 210        4PX        -0.00091   0.04346  -0.00764   0.03559   0.00743
 211        4PY        -0.02095   0.03488   0.01559   0.02541  -0.00632
 212        4PZ        -0.00668   0.03420   0.01557   0.02468  -0.00945
 213        5PX        -0.00168   0.03261   0.00388   0.01630  -0.00234
 214        5PY        -0.01163   0.04523   0.01762   0.04465   0.00005
 215        5PZ        -0.00560   0.04525   0.00673   0.03653  -0.00265
 216        6D 0        0.00027  -0.00073  -0.00022  -0.00074  -0.00002
 217        6D+1       -0.00017  -0.00185   0.00090  -0.00121  -0.00109
 218        6D-1       -0.00026  -0.00092  -0.00225  -0.00079   0.00215
 219        6D+2        0.00062  -0.00156  -0.00035  -0.00052  -0.00037
 220        6D-2       -0.00038  -0.00006   0.00245   0.00002  -0.00243
 221 18  C  1S         -0.00044   0.00632  -0.00077   0.00502   0.00330
 222        2S          0.00061  -0.01537   0.00154  -0.01369  -0.00770
 223        3S          0.00071   0.01593  -0.00865   0.03187  -0.02672
 224        4PX        -0.00199   0.02089  -0.02877   0.01321   0.03610
 225        4PY        -0.00806   0.00788   0.00081   0.00394  -0.00319
 226        4PZ        -0.00081   0.01747  -0.00019   0.01027   0.00972
 227        5PX        -0.00166  -0.00035  -0.02177  -0.01027   0.03631
 228        5PY        -0.00297  -0.00248  -0.00024  -0.00567  -0.00351
 229        5PZ        -0.00070   0.01190  -0.00497   0.00718   0.01926
 230        6D 0        0.00034   0.00019   0.00204   0.00025  -0.00191
 231        6D+1        0.00005  -0.00006   0.00236   0.00003  -0.00243
 232        6D-1       -0.00055   0.00069  -0.00001   0.00058  -0.00015
 233        6D+2        0.00056  -0.00170  -0.00212  -0.00105   0.00172
 234        6D-2       -0.00058   0.00067   0.00158   0.00038  -0.00158
 235 19  H  1S          0.00272  -0.01858   0.11061  -0.02502  -0.07648
 236        2S          0.00153  -0.01985   0.06908  -0.02855  -0.06335
 237        3PX        -0.00028   0.00060  -0.00039   0.00047   0.00001
 238        3PY         0.00049  -0.00278  -0.00293  -0.00231   0.00135
 239        3PZ         0.00024  -0.00183   0.00107  -0.00174  -0.00097
 240 20  H  1S          0.00499  -0.03995  -0.10356  -0.04528   0.05885
 241        2S          0.00305  -0.03583  -0.06259  -0.04351   0.03223
 242        3PX        -0.00021   0.00008   0.00026  -0.00006  -0.00028
 243        3PY         0.00052  -0.00275   0.00286  -0.00252  -0.00202
 244        3PZ        -0.00039   0.00187   0.00162   0.00167  -0.00065
 245 21  H  1S         -0.05946  -0.04755  -0.09336   0.06250  -0.05542
 246        2S         -0.01827  -0.04400  -0.06030   0.06135  -0.04492
 247        3PX        -0.00320  -0.00092  -0.00064   0.00074  -0.00027
 248        3PY        -0.00314  -0.00263   0.00339   0.00176   0.00240
 249        3PZ         0.00370   0.00208   0.00059  -0.00185   0.00012
 250 22  H  1S         -0.03040  -0.01407   0.11417   0.00685   0.07679
 251        2S         -0.01673  -0.01726   0.07206   0.01721   0.05450
 252        3PX        -0.00008   0.00072   0.00054  -0.00074   0.00026
 253        3PY        -0.00328  -0.00306  -0.00225   0.00266  -0.00098
 254        3PZ        -0.00289  -0.00166   0.00194   0.00125   0.00123
 255 23  H  1S          0.30844   0.03486  -0.02226  -0.01732  -0.01431
 256        2S          0.16027   0.05065  -0.02932  -0.04403  -0.03052
 257        3PX        -0.00565  -0.00048   0.00093  -0.00008   0.00080
 258        3PY         0.00934   0.00090   0.00029  -0.00059   0.00091
 259        3PZ         0.00069  -0.00009  -0.00207   0.00047  -0.00168
 260 24  H  1S          0.17378   0.00401  -0.00252   0.00272  -0.00411
 261        2S          0.11667   0.00586  -0.02005   0.00417  -0.01339
 262        3PX         0.00176  -0.00065  -0.00121   0.00096  -0.00120
 263        3PY        -0.00398  -0.00010  -0.00088   0.00014  -0.00071
 264        3PZ        -0.00087  -0.00008   0.00060  -0.00011   0.00062
 265 25  H  1S         -0.07975   0.00236   0.03079  -0.01083   0.03059
 266        2S         -0.04830   0.00069   0.01983  -0.00796   0.02695
 267        3PX        -0.00299  -0.00065  -0.00036   0.00058  -0.00036
 268        3PY         0.00298   0.00030   0.00075  -0.00036   0.00085
 269        3PZ         0.00384   0.00006  -0.00055   0.00020  -0.00071
 270 26  H  1S         -0.06789   0.00213  -0.01342   0.00078  -0.00704
 271        2S         -0.04349  -0.00815  -0.01571   0.01141  -0.01655
 272        3PX        -0.00174  -0.00070  -0.00085   0.00085  -0.00105
 273        3PY         0.00468   0.00032  -0.00050  -0.00001  -0.00056
 274        3PZ        -0.00269  -0.00004   0.00049  -0.00010   0.00069
 275 27  H  1S          0.18348   0.02280  -0.01275  -0.01117  -0.01028
 276        2S          0.11829   0.01806   0.00295  -0.01292   0.00410
 277        3PX         0.00127  -0.00048   0.00050   0.00048   0.00071
 278        3PY        -0.00482  -0.00063  -0.00116   0.00065  -0.00071
 279        3PZ         0.00102   0.00043   0.00102  -0.00036   0.00074
 280 28  H  1S         -0.03965  -0.02151   0.01428   0.00964   0.01371
 281        2S         -0.02322   0.03463  -0.03746  -0.00367  -0.00126
 282        3PX         0.00193   0.00043  -0.00156  -0.00069  -0.00310
 283        3PY         0.00521   0.00011  -0.00092   0.00043  -0.00049
 284        3PZ         0.00210  -0.00120   0.00334   0.00057   0.00337
 285 29  H  1S         -0.04828   0.00371   0.02336  -0.00548   0.01692
 286        2S         -0.02819   0.00513   0.01869  -0.00530   0.01588
 287        3PX        -0.00175  -0.00033   0.00132   0.00029   0.00155
 288        3PY         0.00471   0.00082   0.00081  -0.00070   0.00041
 289        3PZ         0.00430   0.00000   0.00012   0.00020   0.00015
 290 30  H  1S          0.00980   0.00771   0.02781   0.00756  -0.02195
 291        2S          0.00596   0.00264   0.04528   0.00801  -0.05846
 292        3PX        -0.00002   0.00020   0.00096   0.00029  -0.00111
 293        3PY         0.00027  -0.00110  -0.00118  -0.00085   0.00026
 294        3PZ         0.00055  -0.00103  -0.00069  -0.00095   0.00033
 295 31  H  1S          0.00357   0.00710   0.01310   0.00352  -0.01249
 296        2S          0.00338   0.00617   0.01561   0.00517  -0.01435
 297        3PX         0.00007   0.00079  -0.00065   0.00089   0.00050
 298        3PY        -0.00034   0.00060   0.00071   0.00042  -0.00059
 299        3PZ        -0.00031   0.00043   0.00040   0.00036  -0.00051
 300 32  H  1S          0.00767   0.00573  -0.02678   0.00672   0.02223
 301        2S          0.00471   0.00497  -0.02324   0.00735   0.02157
 302        3PX        -0.00034   0.00096   0.00091   0.00091  -0.00075
 303        3PY        -0.00036   0.00065   0.00001   0.00053  -0.00007
 304        3PZ         0.00014   0.00077  -0.00030   0.00089   0.00040
 305 33  H  1S          0.00393  -0.04733   0.00271  -0.03570  -0.00782
 306        2S         -0.00111   0.03107   0.01511   0.01386  -0.01542
 307        3PX         0.00018  -0.00242  -0.00115  -0.00316   0.00106
 308        3PY        -0.00047   0.00196   0.00120   0.00199  -0.00133
 309        3PZ        -0.00007   0.00094   0.00093   0.00062  -0.00051
 310 34  H  1S          0.00463   0.00542   0.00693   0.00253  -0.00077
 311        2S          0.00363  -0.00272   0.01522  -0.00460  -0.01499
 312        3PX         0.00001   0.00041  -0.00124   0.00033   0.00156
 313        3PY        -0.00016   0.00032   0.00024   0.00016  -0.00021
 314        3PZ        -0.00024   0.00039   0.00037   0.00043  -0.00049
 315 35  H  1S         -0.00945   0.01257   0.00489   0.00599  -0.00602
 316        2S         -0.00613   0.00978   0.01371   0.00455  -0.01017
 317        3PX         0.00009   0.00041  -0.00101   0.00038   0.00109
 318        3PY         0.00018   0.00001   0.00037   0.00013  -0.00017
 319        3PZ         0.00003   0.00052   0.00001   0.00038   0.00005
 320 36  H  1S          0.00252  -0.00538  -0.02769  -0.00382   0.02695
 321        2S          0.00197  -0.00162  -0.01932  -0.00103   0.02577
 322        3PX        -0.00013   0.00074  -0.00020   0.00062   0.00018
 323        3PY        -0.00026   0.00021  -0.00024   0.00018   0.00023
 324        3PZ         0.00012   0.00014  -0.00087   0.00004   0.00105
                          62        63        64        65        66
                           V         V         V         V         V
     Eigenvalues --    -0.02799   0.06055   0.06659   0.08546   0.08736
   1 1   C  1S          0.00441  -0.01227  -0.06623   0.02286   0.00773
   2        2S         -0.01056   0.01603   0.11396  -0.02767  -0.01436
   3        3S         -0.08301   0.27789   1.12708  -0.64541  -0.49348
   4        4PX        -0.00578   0.03034   0.05583  -0.14261  -0.19291
   5        4PY         0.00882   0.01830   0.11935  -0.04976   0.00882
   6        4PZ        -0.00719   0.02045   0.02290   0.10717  -0.15833
   7        5PX        -0.00833   0.06309   0.14787  -0.40689  -0.54333
   8        5PY         0.02268   0.03267   0.27453  -0.07098  -0.03794
   9        5PZ        -0.08634   0.04343   0.04343   0.26812  -0.41849
  10        6D 0        0.00462  -0.00267  -0.00432   0.00170   0.01715
  11        6D+1        0.01017  -0.00062  -0.00215  -0.00925  -0.00751
  12        6D-1       -0.00317  -0.00095  -0.00380  -0.00623   0.00885
  13        6D+2       -0.00321   0.00001  -0.00796  -0.00217  -0.01300
  14        6D-2       -0.00076  -0.00005  -0.00068   0.00631   0.00926
  15 2   C  1S          0.00346  -0.00993  -0.03312  -0.02231   0.02028
  16        2S         -0.01542   0.01521   0.07032   0.01782  -0.03185
  17        3S          0.04522   0.15575   0.36681   0.58168  -0.69138
  18        4PX         0.00566   0.00149  -0.00085  -0.03119  -0.03940
  19        4PY         0.00539  -0.01750  -0.03673  -0.02817   0.07154
  20        4PZ         0.00657   0.03446   0.09517   0.11597  -0.12436
  21        5PX         0.14840  -0.00751  -0.06462  -0.13897  -0.26199
  22        5PY         0.04953  -0.08386  -0.17861  -0.04204   0.30489
  23        5PZ        -0.04669   0.09231   0.27219   0.27362  -0.28338
  24        6D 0        0.01363  -0.00167   0.00291  -0.00345   0.01323
  25        6D+1        0.01506  -0.00103  -0.00232  -0.00859  -0.01105
  26        6D-1       -0.00082   0.00122   0.00137   0.00741  -0.01254
  27        6D+2       -0.00630   0.00084  -0.00022   0.00078  -0.00813
  28        6D-2       -0.00319   0.00209   0.00325  -0.00853  -0.01134
  29 3   H  1S          0.08229  -0.00863   0.01920  -0.06311   0.09170
  30        2S          0.15873  -0.22956  -0.51838  -0.68893   0.89723
  31        3PX         0.00295  -0.00002  -0.00292  -0.00398  -0.00695
  32        3PY         0.00237   0.00044   0.00350   0.00382   0.00030
  33        3PZ         0.00093  -0.00063  -0.00272  -0.00230   0.00343
  34 4   N  1S          0.00154   0.00637   0.00655  -0.00908  -0.02404
  35        2S         -0.00248   0.01015   0.01749  -0.00917  -0.04903
  36        3S          0.09473   0.14288   0.05602  -0.22848  -0.34559
  37        4PX        -0.09721   0.00613   0.01295   0.04421   0.10789
  38        4PY        -0.04294   0.00153  -0.00486   0.03294   0.03907
  39        4PZ         0.29017  -0.01710   0.04127  -0.02511   0.02525
  40        5PX         0.12477  -0.02712  -0.03990  -0.07255  -0.08713
  41        5PY         0.05753   0.06313   0.06168  -0.06404  -0.15235
  42        5PZ        -0.30974   0.01653  -0.06860   0.00454  -0.01170
  43        6D 0       -0.00631  -0.00120  -0.00060   0.00522   0.00484
[...]
 0.00000029,0.00000665,-0.00000518,-0.00000253,0.00000298,0.00001328,-0
 .00000446,-0.00000645,-0.00000054,0.00000660,-0.00015363,-0.00199513,0
 .00067300,-0.02163765,-0.13862239,0.24281159,0.00011175,-0.00024127,-0
 .00016707,-0.00035161,-0.00156697,-0.00118398,-0.00006666,-0.00003804,
 -0.00001368,-0.00062285,0.00082585,0.00067164,0.00035956,-0.00059247,0
 .00006090,0.00031037,0.00062596,0.00010039,0.00021902,-0.00015391,0.00
 002223,-0.00015471,0.00001221,-0.00002082,0.00007110,0.00001667,0.0000
 2198,-0.00002127,-0.00000114,-0.00001050,0.00004288,0.00001221,0.00001
 844,-0.00016664,0.00008205,-0.00002030,-0.00000640,0.00002194,-0.00001
 735,0.00000108,-0.00001051,0.00001614,0.00000383,-0.00000879,0.0000042
 8,0.00390342,-0.00337269,-0.00507235,-0.20164744,0.07102331,0.11852940
 ,0.00108705,-0.00084032,-0.00090876,0.00005059,0.00004970,0.00002202,-
 0.00002799,-0.00000083,-0.00001756,-0.00001202,0.00000652,0.00000359,-
 0.00001114,0.00000267,-0.00000803,0.00000896,0.00000311,0.00000173,-0.
 00000007,0.00000381,-0.00000115,-0.00001064,-0.00000309,0.00000483,-0.
 00000075,0.00000126,-0.00000659,0.00000105,0.00000254,-0.00000400,0.00
 000084,0.00000499,-0.00001833,-0.00000951,-0.00000438,0.00000695,0.000
 08359,0.00052937,0.00010199,-0.00110256,0.00031908,-0.00138926,0.21421
 435,0.00102901,0.00026858,-0.00119660,-0.00266434,-0.00584499,-0.00005
 878,-0.00002545,0.00005280,-0.00020738,-0.00044577,0.00042874,0.000139
 63,-0.00022372,-0.00013598,-0.00000411,0.00053513,-0.00044893,0.000027
 84,-0.00020168,-0.00002389,-0.00006391,0.00014474,0.00006922,0.0000467
 2,-0.00002803,0.00000627,-0.00000842,0.00002664,-0.00000174,0.00000843
 ,-0.00003873,-0.00000549,-0.00001449,0.00010758,0.00003291,0.00002536,
 0.00001208,-0.00003006,0.00001628,0.00000177,0.00001255,-0.00001414,0.
 00000549,0.00000859,-0.00000375,0.02374087,-0.01050785,-0.01878846,0.0
 6952387,-0.07662331,-0.05177667,0.00155448,0.00144603,0.00021356,0.000
 01812,0.00002720,0.00008768,-0.00002234,-0.00035373,-0.00007946,0.0000
 0911,-0.00000317,-0.00000054,0.00000975,0.,0.00000431,0.00000051,0.000
 00531,0.00000115,-0.00000299,-0.00000042,0.00000117,0.00000862,0.00000
 158,-0.00000242,-0.00000076,-0.00000120,0.00000295,-0.00000722,0.00000
 349,0.00000319,-0.00000154,-0.00001358,0.00000815,0.00000734,0.0000025
 3,-0.00000550,0.00026999,0.00064465,0.00052049,-0.01484300,0.00656928,
 0.00912469,-0.07546373,0.08436423,0.00048912,0.00019241,-0.00014258,-0
 .00110947,-0.00215318,0.00051464,-0.00022307,0.00022741,0.00043448,-0.
 00027894,0.00024910,0.00040115,-0.00008727,-0.00009207,0.00005564,0.00
 032800,-0.00020849,-0.00005501,-0.00012219,-0.00000551,-0.00002819,0.0
 0007408,0.00002476,0.00003463,-0.00001791,0.00000537,-0.00000191,0.000
 01396,-0.00000165,0.00000576,-0.00002719,-0.00000289,-0.00000840,0.000
 06780,0.00000850,0.00000969,0.00000487,-0.00001371,0.00000408,-0.00000
 004,0.00000605,-0.00000477,-0.00000495,0.00000433,-0.00000096,0.005269
 19,-0.00169217,-0.00578615,0.11738261,-0.05243134,-0.13441076,0.000842
 76,0.00057882,0.00020933,-0.00002187,-0.00002526,0.00005164,0.00001691
 ,-0.00009994,-0.00003551,0.00000521,-0.00000096,-0.00000173,0.00000449
 ,0.00000002,0.00000378,-0.00000233,0.00000064,-0.00000136,-0.00000079,
 -0.00000164,0.00000051,0.00000438,0.00000155,-0.00000247,0.00000105,-0
 .00000078,0.00000340,-0.00000062,-0.00000087,0.00000254,-0.00000038,-0
 .00000248,0.00000544,0.00000410,0.00000249,-0.00000275,-0.00035574,-0.
 00017103,0.00042088,0.01797265,-0.01040894,-0.01180334,-0.12713620,0.0
 5960075,0.13965462,-0.00005605,0.00002760,-0.00018053,-0.00002998,-0.0
 0034519,0.00031903,-0.00001628,0.00001689,0.00001943,-0.00067275,0.001
 05114,0.00081022,0.00007193,0.00028323,0.00008510,0.00002009,-0.000109
 56,-0.00005898,-0.00008615,0.00008593,0.00000022,0.00009298,-0.0000370
 3,-0.00006156,-0.00005392,-0.00002273,-0.00000661,0.00001121,0.0000030
 0,0.00000526,-0.00002678,-0.00000892,-0.00001572,0.00009373,-0.0000741
 2,0.00001544,0.00000147,-0.00000980,0.00001087,-0.00000058,0.00000454,
 -0.00000989,0.00000142,0.00000382,-0.00000207,-0.00327242,0.00024965,-
 0.00078215,-0.24746397,-0.01828716,-0.12587841,0.00049268,-0.00167902,
 0.00004854,-0.00002446,0.00003187,-0.00001088,-0.00002671,-0.00004865,
 -0.00001521,0.00000686,-0.00000575,-0.00000122,0.00000674,-0.00000205,
 0.00000437,-0.00000451,-0.00000236,-0.00000011,0.00000023,-0.00000161,
 0.00000066,0.00000602,0.00000146,-0.00000265,0.00000012,-0.00000066,0.
 00000342,-0.00000158,-0.00000042,0.00000161,0.00000083,-0.00000388,0.0
 0000885,0.00000521,0.00000198,-0.00000428,0.00032987,-0.00009427,0.000
 06481,0.00372961,0.00009701,0.00357766,-0.01666554,-0.00198490,-0.0123
 6122,0.26333057,-0.00036614,0.00008666,0.00018050,-0.00084343,0.000997
 54,0.00007236,0.00000248,-0.00004747,0.00002436,0.00005198,-0.00023218
 ,0.00052612,0.00026061,-0.00105108,-0.00009175,0.00061593,0.00086471,0
 .00008152,0.00027906,-0.00013159,0.00008243,-0.00016432,-0.00006474,0.
 00000363,0.00006814,0.00001147,0.00002059,-0.00002771,0.00000799,-0.00
 001346,0.00004506,0.00000555,0.00000518,-0.00013432,0.00002544,-0.0000
 1900,-0.00001559,0.00005277,-0.00002360,-0.00000270,-0.00002087,0.0000
 2203,-0.00000690,-0.00001675,0.00000851,-0.02732041,-0.00059752,-0.016
 23500,-0.01574603,-0.04762375,-0.00932034,0.00013900,-0.00633402,-0.00
 154808,-0.00001733,0.00002929,-0.00001676,-0.00000433,0.00008222,0.000
 06970,-0.00001051,0.00000716,0.00000480,-0.00000701,-0.00000305,-0.000
 00471,0.00000131,-0.00000766,0.00000021,0.00000435,0.00000023,-0.00000
 261,-0.00001420,-0.00000228,0.00000493,0.00000143,0.00000347,-0.000004
 67,0.00000607,-0.00000309,-0.00000640,0.00000320,0.00001506,-0.0000154
 3,-0.00001106,-0.00000307,0.00001020,-0.00017597,0.00116612,0.00046956
 ,0.01583240,0.00094670,0.00848907,0.00856122,-0.00022337,0.00651036,0.
 02053684,0.05242644,-0.00032991,0.00009425,0.00009441,-0.00138726,0.00
 023269,-0.00038280,-0.00006438,-0.00004418,0.00011776,-0.00048074,0.00
 048402,0.00037540,0.00046761,-0.00087317,0.00001855,0.00061663,0.00106
 306,0.00017628,0.00023431,-0.00020466,0.00010178,-0.00014578,0.0000393
 1,-0.00007072,0.00007912,0.00002592,0.00003907,-0.00002551,-0.00000436
 ,-0.00000992,0.00003879,0.00001214,0.00001877,-0.00018421,0.00012749,-
 0.00001646,-0.00000717,0.00001015,-0.00002054,0.00000231,-0.00000712,0
 .00001678,0.00000838,-0.00000577,0.00000416,-0.00479546,0.00127295,-0.
 00465602,-0.12422742,-0.01116718,-0.12321519,0.00045110,-0.00179239,0.
 00021070,0.00005257,0.00004585,-0.00002714,0.00003254,0.00005665,0.000
 02790,-0.00001275,0.00000650,0.00000319,-0.00001435,0.00000602,-0.0000
 0940,0.00001284,0.00000866,0.00000406,-0.00000236,0.00000605,-0.000000
 81,-0.00001014,-0.00000380,0.00000389,-0.00000105,0.00000013,-0.000006
 27,-0.00000266,0.00000676,-0.00000333,-0.00000033,-0.00000040,-0.00002
 335,-0.00001053,-0.00000523,0.00000551,0.00061204,-0.00004430,0.000705
 66,-0.02136017,-0.00285357,-0.01219971,0.01620685,0.00182586,0.0103190
 2,0.13476227,0.01161722,0.12772529,-0.00012432,-0.00004829,0.00004651,
 0.00169977,0.00094510,-0.00217343,-0.00028558,-0.00034503,0.00094143,0
 .00021994,-0.00044800,0.00055239,0.00014866,0.00005721,0.00008523,0.00
 007788,-0.00008958,0.00000767,-0.00001362,-0.00002300,-0.00007465,0.00
 001887,0.00000262,0.00001961,-0.00000441,-0.00000287,-0.00000232,0.000
 00390,0.00000100,0.00000186,-0.00000527,-0.00000426,-0.00000223,0.0000
 3665,-0.00000651,0.00001129,0.00000084,-0.00000099,-0.00000183,-0.0000
 0050,0.00000069,0.00000088,-0.00000367,0.00000066,0.00000128,-0.003108
 39,0.01791155,-0.02561367,0.00147412,0.00123781,0.00040718,-0.04625669
 ,0.01028024,-0.01466043,0.00002644,-0.00020043,-0.00004652,-0.00002321
 ,0.00005072,0.00006721,0.00000157,-0.00000005,0.00000008,0.00000385,-0
 .00000087,0.00000183,-0.00000102,-0.00000049,-0.00000038,0.00000015,-0
 .00000075,-0.00000020,0.00000027,0.00000030,-0.00000068,0.00000117,0.0
 0000007,0.00000152,0.00000020,-0.00000048,0.00000043,0.00000103,0.,-0.
 00000032,0.00000047,0.00000068,0.,-0.00545871,-0.00069675,-0.00239126,
 -0.00004928,-0.00064058,0.00035184,-0.00002299,-0.00016896,0.00008403,
 0.00002721,0.00012457,0.00034662,0.05068135,-0.00023710,-0.00026921,0.
 00050461,-0.00040857,-0.00015462,0.00050523,0.00046192,0.00010076,-0.0
 0026958,-0.00001544,0.00020215,-0.00030995,-0.00011212,-0.00024587,-0.
 00009903,0.00031749,0.00012899,-0.00012719,-0.00001357,0.00001118,0.00
 006297,0.00000728,-0.00000196,-0.00001687,-0.00000409,-0.00000223,0.00
 000153,-0.00000243,0.00000075,-0.00000160,-0.00000627,-0.00000118,0.00
 000005,0.00000656,-0.00000230,-0.00000395,-0.00000195,0.00000212,0.000
 00566,0.00000018,-0.00000025,-0.00000329,0.00000210,-0.00000027,-0.000
 00348,-0.00003957,0.00117449,-0.00323437,0.00015387,0.00106663,-0.0010
 5893,0.01088445,-0.13375144,0.12684430,0.00002116,0.00022670,-0.000111
 73,0.00007348,-0.00010527,-0.00006665,0.00000197,-0.00000109,-0.000000
 68,-0.00000090,0.00000052,-0.00000042,-0.00000083,-0.00000129,-0.00000
 086,0.00000012,-0.00000070,0.00000069,0.00000127,0.00000105,-0.0000001
 5,-0.00000162,-0.00000014,-0.00000104,0.00000077,-0.00000174,0.0000009
 7,-0.00000108,0.00000138,0.00000473,0.00000168,0.00000126,-0.00000096,
 -0.00066491,0.00085304,-0.00059750,-0.00010356,0.00028142,0.00035938,0
 .00008002,0.00001168,-0.00004875,0.00009758,0.00000795,0.00002566,-0.0
 1168621,0.13914917,0.00002678,-0.00006840,0.00003626,0.00117847,-0.000
 66910,0.00074264,-0.00058496,0.00024056,0.00054723,0.00000602,-0.00021
 039,0.00029095,0.00013682,-0.00008717,-0.00008486,0.00006496,0.0000459
 3,0.00002859,0.00008658,-0.00000903,-0.00002371,-0.00005955,-0.0000229
 9,0.00000688,0.00002092,0.00000089,-0.00000303,-0.00000865,0.00000184,
 -0.00000303,0.00001966,0.00000351,0.00000422,-0.00004620,-0.00000540,-
 0.00000330,-0.00000260,0.00001364,-0.00000943,-0.00000086,-0.00000574,
 0.00000785,-0.00000337,-0.00000476,0.00000368,-0.00084468,0.00760660,-
 0.01218028,0.00091072,0.00066045,0.00068720,-0.01520706,0.12642742,-0.
 22911245,-0.00008710,-0.00004884,-0.00006277,-0.00002705,0.00002681,0.
 00002462,-0.00000470,0.00000253,0.00000186,-0.00000117,-0.00000133,-0.
 00000132,0.00000083,-0.00000177,-0.00000052,0.00000143,0.00000039,-0.0
 0000116,-0.00000523,-0.00000153,0.00000207,0.00000142,0.00000118,-0.00
 000108,0.00000284,-0.00000102,-0.00000201,0.00000156,0.00000592,-0.000
 00681,-0.00000529,-0.00000175,0.00000418,-0.00292631,-0.00067689,0.000
 07172,-0.00040475,-0.00066924,0.00005015,-0.00001258,-0.00000531,-0.00
 018869,0.00006182,-0.00020404,0.00031476,0.02016475,-0.13769109,0.2454
 6728,-0.00151725,0.00016994,0.00066865,0.00112781,-0.00122812,-0.00027
 755,-0.00002360,0.00008981,0.00007064,0.00023764,0.00038486,0.00008741
 ,-0.00017720,-0.00066664,-0.00025850,0.00084859,0.00048834,0.00009902,
 -0.00009874,-0.00003506,0.00003240,0.00009642,0.00005369,0.00003702,-0
 .00001163,0.00000141,-0.00000984,0.00001876,-0.00000109,0.00000706,-0.
 00003404,-0.00000561,-0.00001336,0.00007302,0.00004895,0.00001626,0.00
 000869,-0.00002128,0.00000925,0.00000131,0.00000893,-0.00000880,0.0000
 0162,0.00000552,-0.00000218,-0.00304427,-0.02897957,-0.00494273,-0.005
 76755,0.00111778,-0.00257370,-0.05551040,-0.04644634,-0.01234452,-0.00
 021087,0.00064970,-0.00045942,-0.00008926,0.00026252,0.00010883,0.0000
 0662,-0.00000163,-0.00000004,0.00000667,-0.00000042,0.00000314,0.00000
 030,0.00000506,-0.00000006,-0.00000257,0.00000026,0.00000100,0.0000057
 9,0.00000105,-0.00000223,0.00000057,-0.00000116,0.00000317,-0.00000518
 ,0.00000322,0.00000280,-0.00000065,-0.00000929,0.00000487,0.00000502,0
 .00000201,-0.00000350,0.00106941,0.00053071,0.00010760,0.00001966,0.00
 014282,0.00016821,0.00019370,0.00006062,-0.00018804,-0.00017691,-0.001
 82195,-0.00059799,-0.00093970,0.00242205,0.00082689,0.05949241,0.00011
 097,0.00001086,-0.00006900,0.00053102,-0.00030708,-0.00048516,-0.00008
 883,-0.00002593,0.00003657,-0.00031548,0.00048532,0.00019207,-0.000086
 17,-0.00078751,-0.00016777,0.00070224,0.00071162,0.00013272,0.00005946
 ,-0.00004296,0.00003929,-0.00001425,0.00002508,0.00001539,0.00001931,0
 .00000028,-0.00000996,0.00000014,0.00000061,0.00000089,-0.00000166,-0.
 00000052,-0.00000121,-0.00003354,0.00005739,0.00000382,0.00000311,-0.0
 0000243,-0.00000242,0.00000093,0.00000007,0.00000134,0.00000203,-0.000
 00139,0.00000104,0.00056971,-0.00100596,0.00054018,-0.00133552,0.00118
 026,-0.00094137,-0.04711062,-0.29192480,-0.06372706,0.00019303,-0.0000
 0692,-0.00001205,-0.00001896,0.00000868,0.00027014,-0.00000248,0.00000
 085,0.00000209,-0.00000028,-0.00000049,-0.00000186,0.00000258,0.000004
 65,0.00000111,-0.00000150,0.00000279,0.00000016,-0.00000082,-0.0000011
 8,0.00000021,0.00000087,-0.00000043,0.00000019,-0.00000307,0.00000457,
 -0.00000046,-0.00000006,-0.00000399,-0.00000405,-0.00000048,-0.0000012
 7,0.00000075,-0.00038779,0.00050779,-0.00019271,0.00023084,0.00022458,
 0.00005585,0.00009992,0.00020253,0.00027272,0.00009856,-0.00033586,-0.
 00002469,-0.00250195,-0.01410550,-0.00611346,0.05151024,0.31250829,-0.
 00031419,-0.00038975,0.00072232,0.00047631,0.00026467,0.00033135,-0.00
 008463,0.00015443,-0.00004973,-0.00006669,0.00023916,-0.00012352,-0.00
 007652,-0.00032689,-0.00015120,0.00041706,0.00030221,-0.00009303,0.000
 03081,-0.00004591,0.00007185,-0.00001527,0.00001435,-0.00000207,0.0000
 1111,-0.00000086,-0.00000301,-0.00000136,-0.00000044,-0.00000037,0.000
 00047,-0.00000008,0.00000239,-0.00002358,0.00003517,-0.00000472,0.0000
 0084,-0.00000022,0.00000024,0.00000064,-0.00000036,0.00000020,0.000000
 90,-0.00000078,-0.00000072,-0.00010305,-0.01259294,-0.00422073,-0.0028
 9354,0.00026449,-0.00077280,-0.01246423,-0.06332504,-0.06262776,-0.000
 07402,0.00031219,-0.00011443,0.00025601,-0.00002919,-0.00013198,-0.000
 00104,0.00000051,0.00000098,-0.00000203,0.00000013,-0.00000208,0.00000
 139,0.00000219,-0.00000045,-0.00000071,0.00000139,0.00000051,-0.000000
 57,-0.00000034,0.00000043,-0.00000009,-0.00000039,-0.00000075,-0.00000
 012,0.00000104,0.00000043,-0.00000070,0.,-0.00000124,-0.00000046,-0.00
 000041,0.00000051,0.00045734,-0.00025497,0.00006075,-0.00022722,-0.000
 37731,0.00011277,-0.00008067,0.00048747,0.00022106,-0.00037529,-0.0009
 3660,0.00026198,0.00490376,0.02445988,0.00785172,0.01544372,0.07059873
 ,0.06325282,-0.00015507,-0.00043511,-0.00008346,-0.00395873,-0.0017711
 9,-0.00459539,0.00024850,-0.00020498,-0.00018096,-0.00143708,0.0013240
 1,0.00139439,-0.00058974,-0.00096364,-0.00036494,0.00037711,0.00054981
 ,0.00026532,0.00041250,0.00010300,-0.00006825,-0.00024080,-0.00007079,
 -0.00004178,0.00007336,-0.00000419,0.00000829,-0.00004382,0.00000443,-
 0.00001498,0.00005417,0.00001784,0.00003366,-0.00025114,0.00001217,-0.
 00003835,-0.00001684,0.00004581,-0.00002699,-0.00000169,-0.00001983,0.
 00002400,-0.00000147,-0.00001475,0.00000621,-0.02015480,0.00848427,0.0
 2034204,0.00117813,0.00137107,0.00129407,-0.18046208,0.05676392,0.1269
 8090,0.00010393,0.00008004,-0.00008665,-0.00000029,0.00009534,0.000062
 46,-0.00002011,0.00000557,0.00000135,-0.00001585,0.00000067,-0.0000091
 5,0.00000470,-0.00000338,0.00000086,0.00000293,0.00000294,-0.00000197,
 -0.00001525,-0.00000365,0.00000499,0.00000057,0.00000208,-0.00000637,0
 .00000575,-0.00000030,-0.00000599,0.00000205,0.00001418,-0.00001928,-0
 .00001279,-0.00000501,0.00000978,0.00098279,0.00039102,-0.00011608,0.0
 0004217,-0.00001052,-0.00007405,0.00023767,-0.00094255,-0.00062698,0.0
 0034981,0.00015625,-0.00026376,0.00187301,-0.00123376,-0.00328037,0.00
 439582,-0.00223148,-0.00519436,0.19703260,-0.00023180,0.00016016,0.000
 01043,-0.00050098,-0.00012355,0.00011579,0.00005954,0.00000024,-0.0002
 6976,-0.00028049,0.00045140,-0.00019334,-0.00012380,-0.00020063,-0.000
 07765,0.00030059,0.00023353,0.00000001,-0.00006469,0.00003906,0.000061
 81,0.00005533,0.00000381,0.00000467,-0.00001438,0.00000154,-0.00000836
 ,0.00000663,0.00000064,0.00000293,-0.00001876,-0.00000258,-0.00000970,
 0.00004831,-0.00000856,0.00001008,0.00000346,-0.00000777,0.00000666,0.
 00000011,0.00000420,-0.00000569,0.00000055,0.00000250,-0.00000131,-0.0
 0231409,-0.00063285,0.00268596,-0.00099725,0.00060697,0.00096626,0.057
 78333,-0.06914589,-0.05353950,-0.00014782,0.00020915,-0.00018488,-0.00
 002568,-0.00000031,0.00015872,0.00000463,-0.00000168,-0.00000091,0.000
 00432,-0.00000048,0.00000319,-0.00000158,-0.00000048,-0.00000013,-0.00
 000036,-0.00000155,0.00000018,0.00000352,0.00000116,-0.00000129,-0.000
 00016,-0.00000006,0.00000181,-0.00000170,-0.00000044,0.00000116,0.0000
 0008,-0.00000297,0.00000502,0.00000284,0.00000181,-0.00000213,0.000357
 47,0.00003984,-0.00018187,-0.00005014,-0.00002779,0.00000915,0.0000137
 2,0.00005950,-0.00032360,0.00012699,-0.00003843,0.00006349,-0.01374716
 ,0.00542381,0.01146157,0.02125870,-0.00738201,-0.01885554,-0.06150928,
 0.07033872,-0.00023948,-0.00003365,-0.00013238,-0.00208840,-0.00065692
 ,-0.00101518,-0.00022666,-0.00017850,0.00034652,-0.00078818,0.00018554
 ,0.00080722,-0.00026328,-0.00027495,-0.00018348,0.00033437,0.00015653,
 0.00019407,0.00004934,0.00005257,-0.00010860,-0.00000743,-0.00001370,0
 .00001101,0.00000136,-0.00000560,-0.00000529,-0.00000295,0.00000136,0.
 00000080,-0.00001154,-0.00000168,0.00000634,-0.00000015,0.00000597,0.0
 0000742,-0.00000180,0.00000025,-0.00000301,-0.00000067,0.00000006,0.00
 000181,-0.00000201,0.00000034,0.00000108,-0.01164215,0.00430422,0.0091
 9587,-0.00028132,0.00060456,0.00056633,0.12867951,-0.05326531,-0.16412
 009,0.00006533,0.00001649,-0.00005127,-0.00002554,0.00008379,0.0000713
 5,-0.00000122,-0.00000055,-0.00000161,0.00000136,0.00000029,0.00000114
 ,-0.00000048,-0.00000006,0.00000016,-0.00000014,-0.00000059,-0.0000001
 2,-0.00000006,0.00000036,-0.00000119,0.00000088,-0.00000011,0.00000156
 ,-0.00000093,0.00000047,0.00000024,0.00000047,-0.00000109,-0.00000100,
 0.00000015,0.00000074,-0.00000031,0.00049985,0.00024364,0.00083775,0.0
 0006198,-0.00009512,-0.00008895,0.00029581,0.00008427,0.00012226,-0.00
 003280,0.00023916,0.00009675,0.01697053,-0.00912756,-0.01445940,0.0039
 8451,-0.00041200,-0.00459170,-0.13532823,0.05808678,0.17249387\\0.0026
 4647,-0.00382048,-0.00125098,0.01356635,-0.00890084,0.00683613,-0.0040
 7098,-0.00122278,-0.00193885,-0.00599613,0.00104054,0.00018170,-0.0027
 5855,0.03080395,0.00460535,-0.01229170,-0.01667505,-0.00792557,-0.0004
 0622,0.02961511,0.00384729,0.00638228,0.00408957,0.00112298,-0.0124935
 9,-0.01101675,-0.00183241,0.00218381,-0.00097495,0.00115652,-0.0016903
 2,-0.00337020,-0.00164082,0.01424240,-0.01578973,-0.00109184,-0.001468
 81,-0.00300969,0.00281527,0.00071097,0.00184032,-0.00149215,0.00032120
 ,0.00192785,-0.00176848,-0.00039480,-0.00026119,-0.00318036,0.00224987
 ,-0.00147114,0.00359462,-0.00066876,0.00026624,0.00165788,-0.00092450,
 -0.00045465,-0.00008098,-0.00077007,-0.00091259,-0.00035009,0.00082307
 ,-0.00121912,-0.00002406,0.00076116,-0.00030535,0.00027045,0.00116829,
 0.00031252,-0.00117933,-0.00073334,0.00035005,0.00025929,0.00102721,0.
 00003466,-0.00032850,-0.00002419,-0.00038363,0.00021724,-0.00018670,0.
 00057628,0.00075709,0.00040766,-0.00199224,0.00244612,0.00129150,-0.00
 012179,-0.00076776,0.00039219,0.00064618,-0.00047116,-0.00180071,0.000
 63469,-0.00079506,-0.00105157,0.00107354,-0.00100451,0.00031464,-0.001
 71377,-0.00204906,-0.00027108,0.00005215,-0.00043313,0.00032901,0.0001
 7369,-0.00005254,-0.00081608,0.00017860,-0.00011031\\\@

 Writing a WFNX file to "03_sub.wfx"


 The earth never tires,
 The earth is rude, silent, incomprehensible at first,
 Nature is rude and incomprehensible at first,
 Be not discouraged, keep on,
 There are divine things well envelop'd,
 I swear to you there are divine things more beautiful than words can tell.
                                 -- Walt Whitman
 Job cpu time:       0 days  1 hours 42 minutes 55.8 seconds.
 Elapsed time:       0 days  0 hours 12 minutes 55.0 seconds.
 File lengths (MBytes):  RWF=    423 Int=      0 D2E=      0 Chk=      8 Scr=      1
 Normal termination of Gaussian 16 at Sun Jan 15 21:31:14 2023.
