 Entering Gaussian System, Link 0=g16
 Initial command:
 /software/gaussian/G16-A.03/avx/g16/l1.exe "/scratch/lcmd/1393737.slurm/Gau-37554.inp" -scrdir="/scratch/lcmd/1393737.slurm/"
 Entering Link 1 = /software/gaussian/G16-A.03/avx/g16/l1.exe PID=     37556.
  
 Copyright (c) 1988,1990,1992,1993,1995,1998,2003,2009,2016,
            Gaussian, Inc.  All Rights Reserved.
  
 This is part of the Gaussian(R) 16 program.  It is based on
 the Gaussian(R) 09 system (copyright 2009, Gaussian, Inc.),
 the Gaussian(R) 03 system (copyright 2003, Gaussian, Inc.),
 the Gaussian(R) 98 system (copyright 1998, Gaussian, Inc.),
 the Gaussian(R) 94 system (copyright 1995, Gaussian, Inc.),
 the Gaussian 92(TM) system (copyright 1992, Gaussian, Inc.),
 the Gaussian 90(TM) system (copyright 1990, Gaussian, Inc.),
 the Gaussian 88(TM) system (copyright 1988, Gaussian, Inc.),
 the Gaussian 86(TM) system (copyright 1986, Carnegie Mellon
 University), and the Gaussian 82(TM) system (copyright 1983,
 Carnegie Mellon University). Gaussian is a federally registered
 trademark of Gaussian, Inc.
  
 This software contains proprietary and confidential information,
 including trade secrets, belonging to Gaussian, Inc.
  
 This software is provided under written license and may be
 used, copied, transmitted, or stored only in accord with that
 written license.
  
 The following legend is applicable only to US Government
 contracts under FAR:
  
                    RESTRICTED RIGHTS LEGEND
  
 Use, reproduction and disclosure by the US Government is
 subject to restrictions as set forth in subparagraphs (a)
 and (c) of the Commercial Computer Software - Restricted
 Rights clause in FAR 52.227-19.
  
 Gaussian, Inc.
 340 Quinnipiac St., Bldg. 40, Wallingford CT 06492
  
  
 ---------------------------------------------------------------
 Warning -- This program may not be used in any manner that
 competes with the business of Gaussian, Inc. or will provide
 assistance to any competitor of Gaussian, Inc.  The licensee
 of this program is prohibited from giving any competitor of
 Gaussian, Inc. access to this program.  By using this program,
 the user acknowledges that Gaussian, Inc. is engaged in the
 business of creating and licensing software in the field of
 computational chemistry and represents and warrants to the
 licensee that it is not a competitor of Gaussian, Inc. and that
 it will not use this program in any manner prohibited above.
 ---------------------------------------------------------------
  

 Cite this work as:
 Gaussian 16, Revision A.03,
 M. J. Frisch, G. W. Trucks, H. B. Schlegel, G. E. Scuseria, 
 M. A. Robb, J. R. Cheeseman, G. Scalmani, V. Barone, 
 G. A. Petersson, H. Nakatsuji, X. Li, M. Caricato, A. V. Marenich, 
 J. Bloino, B. G. Janesko, R. Gomperts, B. Mennucci, H. P. Hratchian, 
 J. V. Ortiz, A. F. Izmaylov, J. L. Sonnenberg, D. Williams-Young, 
 F. Ding, F. Lipparini, F. Egidi, J. Goings, B. Peng, A. Petrone, 
 T. Henderson, D. Ranasinghe, V. G. Zakrzewski, J. Gao, N. Rega, 
 G. Zheng, W. Liang, M. Hada, M. Ehara, K. Toyota, R. Fukuda, 
 J. Hasegawa, M. Ishida, T. Nakajima, Y. Honda, O. Kitao, H. Nakai, 
 T. Vreven, K. Throssell, J. A. Montgomery, Jr., J. E. Peralta, 
 F. Ogliaro, M. J. Bearpark, J. J. Heyd, E. N. Brothers, K. N. Kudin, 
 V. N. Staroverov, T. A. Keith, R. Kobayashi, J. Normand, 
 K. Raghavachari, A. P. Rendell, J. C. Burant, S. S. Iyengar, 
 J. Tomasi, M. Cossi, J. M. Millam, M. Klene, C. Adamo, R. Cammi, 
 J. W. Ochterski, R. L. Martin, K. Morokuma, O. Farkas, 
 J. B. Foresman, and D. J. Fox, Gaussian, Inc., Wallingford CT, 2016.
 
 ******************************************
 Gaussian 16:  ES64L-G16RevA.03 25-Dec-2016
                23-Jan-2023 
 ******************************************
 %nprocs=8
 Will use up to    8 processors via shared memory.
 %mem=32000MB
 %chk=04_sub.chk
 ----------------------------------------------------------------------
 #p pop=(regular,nbo,savenbos) freq=noraman def2svp empiricaldispersion
 =gd3bj output=wfx pbe1pbe
 ----------------------------------------------------------------------
 1/10=4,30=1,38=1/1,3;
 2/12=2,17=6,18=5,40=1/2;
 3/5=43,7=101,11=2,25=1,30=1,71=2,74=-13,124=41,140=1/1,2,3;
 4//1;
 5/5=2,38=5,98=1/2;
 8/6=4,10=90,11=11/1;
 11/6=1,8=1,9=11,15=111,16=1/1,2,10;
 10/6=1/2;
 6/28=1,40=1,73=1/1,7;
 7/8=1,10=1,25=1/1,2,3,16;
 1/10=4,30=1/3;
 99/6=200/99;
 Leave Link    1 at Mon Jan 23 08:47:04 2023, MaxMem=  4194304000 cpu:               0.4 elap:               0.1
 (Enter /software/gaussian/G16-A.03/avx/g16/l101.exe)
 ------
 04_sub
 ------
 Symbolic Z-matrix:
 Charge =  0 Multiplicity = 1
 C                    -2.80346   2.34539  -0.56853 
 C                    -2.69719   0.8028   -0.4575 
 H                    -2.86604   0.29879  -1.42214 
 N                    -1.29059   0.61437  -0.13478 
 C                    -0.72561   1.75697  -0.12372 
 O                    -1.4472    2.83098  -0.36615 
 C                     0.72569   1.75715   0.12591 
 N                     1.29056   0.61451   0.13863 
 C                     2.69763   0.80335   0.45883 
 H                     2.86859   0.29968   1.42325 
 C                     2.80375   2.34605   0.56924 
 O                     1.44758   2.8315    0.36586 
 C                     3.58606   0.16015  -0.59416 
 C                     5.07924   0.16618  -0.26421 
 C                     5.37779  -0.56416   1.04246 
 C                     5.85864  -0.44767  -1.42208 
 C                    -3.58755   0.15963   0.5938 
 C                    -5.08016   0.16611   0.26134 
 C                    -5.3766   -0.56314  -1.04645 
 C                    -5.86162  -0.44852   1.41739 
 H                    -3.43212   2.78802   0.21843 
 H                    -3.14102   2.70707  -1.54851 
 H                     3.43291   2.78849  -0.2174 
 H                     3.14058   2.70808   1.54936 
 H                     3.23652  -0.88051  -0.69868 
 H                     3.41032   0.66647  -1.55991 
 H                     5.41405   1.21723  -0.15754 
 H                     4.94894  -1.57902   1.02785 
 H                     4.96004  -0.04657   1.91985 
 H                     6.46296  -0.65013   1.20452 
 H                     5.56986  -1.50141  -1.56606 
 H                     6.94261  -0.41925  -1.23366 
 H                     5.66516   0.08331  -2.36717 
 H                    -3.23841  -0.88113   0.69871 
 H                    -3.4133    0.66568   1.55997 
 H                    -5.41465   1.21729   0.15493 
 H                    -4.94789  -1.57805  -1.03196 
 H                    -4.95733  -0.04484  -1.92268 
 H                    -6.4615   -0.64887  -1.21039 
 H                    -5.57335  -1.50247   1.56095 
 H                    -6.94527  -0.41966   1.22723 
 H                    -5.66955   0.0816    2.36325 
 
 ITRead=  0  0  0  0  0  0  0  0  0  0  0  0  0  0  0  0  0  0  0  0
 ITRead=  0  0  0  0  0  0  0  0  0  0  0  0  0  0  0  0  0  0  0  0
 ITRead=  0  0
 MicOpt= -1 -1 -1 -1 -1 -1 -1 -1 -1 -1 -1 -1 -1 -1 -1 -1 -1 -1 -1 -1
 MicOpt= -1 -1 -1 -1 -1 -1 -1 -1 -1 -1 -1 -1 -1 -1 -1 -1 -1 -1 -1 -1
 MicOpt= -1 -1
 NAtoms=     42 NQM=       42 NQMF=       0 NMMI=      0 NMMIF=      0
                NMic=       0 NMicF=      0.
                    Isotopes and Nuclear Properties:
 (Nuclear quadrupole moments (NQMom) in fm**2, nuclear magnetic moments (NMagM)
  in nuclear magnetons)

  Atom         1           2           3           4           5           6           7           8           9          10
 IAtWgt=          12          12           1          14          12          16          12          14          12           1
 AtmWgt=  12.0000000  12.0000000   1.0078250  14.0030740  12.0000000  15.9949146  12.0000000  14.0030740  12.0000000   1.0078250
 NucSpn=           0           0           1           2           0           0           0           2           0           1
 AtZEff=  -0.0000000  -0.0000000  -0.0000000  -0.0000000  -0.0000000  -0.0000000  -0.0000000  -0.0000000  -0.0000000  -0.0000000
 NQMom=    0.0000000   0.0000000   0.0000000   2.0440000   0.0000000   0.0000000   0.0000000   2.0440000   0.0000000   0.0000000
 NMagM=    0.0000000   0.0000000   2.7928460   0.4037610   0.0000000   0.0000000   0.0000000   0.4037610   0.0000000   2.7928460
 AtZNuc=   6.0000000   6.0000000   1.0000000   7.0000000   6.0000000   8.0000000   6.0000000   7.0000000   6.0000000   1.0000000

  Atom        11          12          13          14          15          16          17          18          19          20
 IAtWgt=          12          16          12          12          12          12          12          12          12          12
 AtmWgt=  12.0000000  15.9949146  12.0000000  12.0000000  12.0000000  12.0000000  12.0000000  12.0000000  12.0000000  12.0000000
 NucSpn=           0           0           0           0           0           0           0           0           0           0
 AtZEff=  -0.0000000  -0.0000000  -0.0000000  -0.0000000  -0.0000000  -0.0000000  -0.0000000  -0.0000000  -0.0000000  -0.0000000
 NQMom=    0.0000000   0.0000000   0.0000000   0.0000000   0.0000000   0.0000000   0.0000000   0.0000000   0.0000000   0.0000000
 NMagM=    0.0000000   0.0000000   0.0000000   0.0000000   0.0000000   0.0000000   0.0000000   0.0000000   0.0000000   0.0000000
 AtZNuc=   6.0000000   8.0000000   6.0000000   6.0000000   6.0000000   6.0000000   6.0000000   6.0000000   6.0000000   6.0000000

  Atom        21          22          23          24          25          26          27          28          29          30
 IAtWgt=           1           1           1           1           1           1           1           1           1           1
 AtmWgt=   1.0078250   1.0078250   1.0078250   1.0078250   1.0078250   1.0078250   1.0078250   1.0078250   1.0078250   1.0078250
 NucSpn=           1           1           1           1           1           1           1           1           1           1
 AtZEff=  -0.0000000  -0.0000000  -0.0000000  -0.0000000  -0.0000000  -0.0000000  -0.0000000  -0.0000000  -0.0000000  -0.0000000
 NQMom=    0.0000000   0.0000000   0.0000000   0.0000000   0.0000000   0.0000000   0.0000000   0.0000000   0.0000000   0.0000000
 NMagM=    2.7928460   2.7928460   2.7928460   2.7928460   2.7928460   2.7928460   2.7928460   2.7928460   2.7928460   2.7928460
 AtZNuc=   1.0000000   1.0000000   1.0000000   1.0000000   1.0000000   1.0000000   1.0000000   1.0000000   1.0000000   1.0000000

  Atom        31          32          33          34          35          36          37          38          39          40
 IAtWgt=           1           1           1           1           1           1           1           1           1           1
 AtmWgt=   1.0078250   1.0078250   1.0078250   1.0078250   1.0078250   1.0078250   1.0078250   1.0078250   1.0078250   1.0078250
 NucSpn=           1           1           1           1           1           1           1           1           1           1
 AtZEff=  -0.0000000  -0.0000000  -0.0000000  -0.0000000  -0.0000000  -0.0000000  -0.0000000  -0.0000000  -0.0000000  -0.0000000
 NQMom=    0.0000000   0.0000000   0.0000000   0.0000000   0.0000000   0.0000000   0.0000000   0.0000000   0.0000000   0.0000000
 NMagM=    2.7928460   2.7928460   2.7928460   2.7928460   2.7928460   2.7928460   2.7928460   2.7928460   2.7928460   2.7928460
 AtZNuc=   1.0000000   1.0000000   1.0000000   1.0000000   1.0000000   1.0000000   1.0000000   1.0000000   1.0000000   1.0000000

  Atom        41          42
 IAtWgt=           1           1
 AtmWgt=   1.0078250   1.0078250
 NucSpn=           1           1
 AtZEff=  -0.0000000  -0.0000000
 NQMom=    0.0000000   0.0000000
 NMagM=    2.7928460   2.7928460
 AtZNuc=   1.0000000   1.0000000
 Leave Link  101 at Mon Jan 23 08:47:04 2023, MaxMem=  4194304000 cpu:               1.0 elap:               0.1
 (Enter /software/gaussian/G16-A.03/avx/g16/l103.exe)

 GradGradGradGradGradGradGradGradGradGradGradGradGradGradGradGradGradGrad
 Berny optimization.
 Initialization pass.
 Trust Radius=3.00D-01 FncErr=1.00D-07 GrdErr=1.00D-07 EigMax=2.50D+02 EigMin=1.00D-04
 Number of steps in this run=      2 maximum allowed number of steps=      2.
 GradGradGradGradGradGradGradGradGradGradGradGradGradGradGradGradGradGrad

 Leave Link  103 at Mon Jan 23 08:47:04 2023, MaxMem=  4194304000 cpu:               0.2 elap:               0.0
 (Enter /software/gaussian/G16-A.03/avx/g16/l202.exe)
                          Input orientation:                          
 ---------------------------------------------------------------------
 Center     Atomic      Atomic             Coordinates (Angstroms)
 Number     Number       Type             X           Y           Z
 ---------------------------------------------------------------------
      1          6           0       -2.803460    2.345390   -0.568530
      2          6           0       -2.697190    0.802800   -0.457500
      3          1           0       -2.866040    0.298790   -1.422140
      4          7           0       -1.290590    0.614370   -0.134780
      5          6           0       -0.725610    1.756970   -0.123720
      6          8           0       -1.447200    2.830980   -0.366150
      7          6           0        0.725690    1.757150    0.125910
      8          7           0        1.290560    0.614510    0.138630
      9          6           0        2.697630    0.803350    0.458830
     10          1           0        2.868590    0.299680    1.423250
     11          6           0        2.803750    2.346050    0.569240
     12          8           0        1.447580    2.831500    0.365860
     13          6           0        3.586060    0.160150   -0.594160
     14          6           0        5.079240    0.166180   -0.264210
     15          6           0        5.377790   -0.564160    1.042460
     16          6           0        5.858640   -0.447670   -1.422080
     17          6           0       -3.587550    0.159630    0.593800
     18          6           0       -5.080160    0.166110    0.261340
     19          6           0       -5.376600   -0.563140   -1.046450
     20          6           0       -5.861620   -0.448520    1.417390
     21          1           0       -3.432120    2.788020    0.218430
     22          1           0       -3.141020    2.707070   -1.548510
     23          1           0        3.432910    2.788490   -0.217400
     24          1           0        3.140580    2.708080    1.549360
     25          1           0        3.236520   -0.880510   -0.698680
     26          1           0        3.410320    0.666470   -1.559910
     27          1           0        5.414050    1.217230   -0.157540
     28          1           0        4.948940   -1.579020    1.027850
     29          1           0        4.960040   -0.046570    1.919850
     30          1           0        6.462960   -0.650130    1.204520
     31          1           0        5.569860   -1.501410   -1.566060
     32          1           0        6.942610   -0.419250   -1.233660
     33          1           0        5.665160    0.083310   -2.367170
     34          1           0       -3.238410   -0.881130    0.698710
     35          1           0       -3.413300    0.665680    1.559970
     36          1           0       -5.414650    1.217290    0.154930
     37          1           0       -4.947890   -1.578050   -1.031960
     38          1           0       -4.957330   -0.044840   -1.922680
     39          1           0       -6.461500   -0.648870   -1.210390
     40          1           0       -5.573350   -1.502470    1.560950
     41          1           0       -6.945270   -0.419660    1.227230
     42          1           0       -5.669550    0.081600    2.363250
 ---------------------------------------------------------------------
                    Distance matrix (angstroms):
                    1          2          3          4          5
     1  C    0.000000
     2  C    1.550227   0.000000
     3  H    2.218364   1.101393   0.000000
     4  N    2.339518   1.455396   2.058866   0.000000
     5  C    2.204893   2.215621   2.897175   1.274700   0.000000
     6  O    1.454715   2.384184   3.088723   2.234148   1.316420
     7  C    3.644609   3.601008   4.174182   2.332229   1.472612
     8  N    4.500780   4.036456   4.451180   2.595590   2.332163
     9  C    5.804769   5.472088   5.894663   4.036581   3.601018
    10  H    6.350139   5.896461   6.401736   4.452557   4.175534
    11  C    5.721479   5.804839   6.348495   4.500887   3.644666
    12  O    4.379581   4.687501   5.312145   3.558635   2.473269
    13  C    6.752918   6.317508   6.506486   4.919254   4.621866
    14  C    8.184041   7.804839   8.030309   6.386890   6.020518
    15  C    8.831400   8.326089   8.647524   6.873290   6.633183
    16  C    9.141209   8.700363   8.756554   7.341428   7.063889
    17  C    2.596797   1.520408   2.145683   2.452273   3.355150
    18  C    3.259035   2.569173   2.784607   3.836494   4.652012
    19  C    3.912672   3.064619   2.680854   4.348925   5.278830
    20  C    4.593708   3.885181   4.194628   4.943003   5.798086
    21  H    1.100200   2.222184   3.034499   3.071752   2.916389
    22  H    1.097780   2.239092   2.427220   3.130833   2.960899
    23  H    6.261944   6.448158   6.879446   5.200488   4.285569
    24  H    6.320492   6.460429   7.121374   5.182202   4.318707
    25  H    6.848703   6.172570   6.257426   4.800768   4.794304
    26  H    6.512501   6.207703   6.288630   4.912460   4.511956
    27  H    8.304765   8.127358   8.426306   6.731728   6.163432
    28  H    8.834542   8.145099   8.402531   6.715237   6.682474
    29  H    8.496201   8.062654   8.516789   6.612770   6.305200
    30  H    9.898656   9.422402   9.738071   7.969330   7.696356
    31  H    9.268518   8.653462   8.627041   7.320578   7.233970
    32  H   10.152414   9.747901   9.836703   8.370274   8.047950
    33  H    8.948164   8.607752   8.586087   7.324483   6.976829
    34  H    3.493639   2.113140   2.455377   2.593305   3.734987
    35  H    2.779180   2.145181   3.054027   2.716746   3.354013
    36  H    2.935016   2.816285   3.134678   4.177956   4.728213
    37  H    4.495190   3.326274   2.829994   4.357463   5.456639
    38  H    3.490856   2.823735   2.177640   4.132327   4.938647
    39  H    4.770622   4.104171   3.724276   5.430564   6.314218
    40  H    5.197403   4.202464   4.412810   5.069373   6.079691
    41  H    5.293850   4.730635   4.916854   5.907596   6.726586
    42  H    4.683434   4.160731   4.715508   5.069447   5.782251
                    6          7          8          9         10
     6  O    0.000000
     7  C    2.473193   0.000000
     8  N    3.558493   1.274702   0.000000
     9  C    4.687376   2.215653   1.455347   0.000000
    10  H    5.313706   2.898160   2.059016   1.101370   0.000000
    11  C    4.379576   2.204921   2.339530   1.550282   2.218370
    12  O    2.985899   1.316408   2.234129   2.384253   3.089896
    13  C    5.702546   3.354195   2.452090   1.520461   2.145734
    14  C    7.050246   4.651535   3.836323   2.569210   2.784298
    15  C    7.751880   5.279259   4.348749   3.064958   2.680915
    16  C    8.077118   5.796954   4.942813   3.885210   4.194620
    17  C    3.555097   4.623314   4.920371   6.319500   6.510710
    18  C    4.549030   6.021432   6.387659   7.806350   8.034333
    19  C    5.236702   6.632957   6.873303   8.326245   8.650262
    20  C    5.781284   7.065802   7.342952   8.703262   8.762215
    21  H    2.069659   4.284698   5.199444   6.447522   6.880579
    22  H    2.069385   4.319430   5.183064   6.460913   7.123363
    23  H    4.882561   2.917287   3.072883   2.222320   3.033870
    24  H    4.973129   2.960097   3.129819   2.239075   2.426988
    25  H    5.985229   3.733827   2.592862   2.113200   2.455770
    26  H    5.450291   3.352433   2.716822   2.145221   3.054055
    27  H    7.051557   4.727851   4.177817   2.816052   3.133714
    28  H    7.893158   5.457047   4.357296   3.326840   2.830850
    29  H    7.386394   4.939772   4.132173   2.824083   2.177307
    30  H    8.783835   6.314639   5.430392   4.104433   3.724175
    31  H    8.333578   6.078401   5.069072   4.202595   4.413248
    32  H    9.039108   6.725715   5.907411   4.730658   4.916673
    33  H    7.882857   5.780619   5.069352   4.160645   4.715390
    34  H    4.257008   4.796114   4.802312   6.175078   6.262166
    35  H    3.502001   4.514319   4.914176   6.210872   6.294028
    36  H    4.314647   6.164095   6.732269   8.128517   8.429870
    37  H    5.669010   6.682345   6.715345   8.145397   8.405432
    38  H    4.797305   6.304015   6.612100   8.061602   8.518155
    39  H    6.161599   7.696124   7.969342   9.422574   9.740964
    40  H    6.286304   7.236185   7.322422   8.656823   8.633253
    41  H    6.582879   8.049536   8.371586   9.750472   9.842140
    42  H    5.730354   6.979416   7.326395   8.611471   8.592496
                   11         12         13         14         15
    11  C    0.000000
    12  O    1.454724   0.000000
    13  C    2.596857   3.553990   0.000000
    14  C    3.259498   4.548612   1.529212   0.000000
    15  C    3.913942   5.237828   2.532478   1.526406   0.000000
    16  C    4.593754   5.779891   2.493896   1.524775   2.513711
    17  C    6.754980   5.704681   7.271309   8.709160   9.005692
    18  C    8.185535   7.051710   8.708346  10.172984  10.512476
    19  C    8.831306   7.751621   9.003165  10.510395  10.955385
    20  C    9.144267   8.080139   9.678609  11.086390  11.246256
    21  H    6.261348   4.882120   7.537961   8.919094   9.462064
    22  H    6.321036   4.973484   7.256114   8.699323   9.486000
    23  H    1.100181   2.069680   2.659619   3.096628   4.075545
    24  H    1.097796   2.069337   3.359327   3.675418   3.996200
    25  H    3.493651   4.255887   1.102758   2.163317   2.777892
    26  H    2.778884   3.499756   1.104499   2.171272   3.486792
    27  H    2.935321   4.314244   2.156294   1.108234   2.148177
    28  H    4.496481   5.670136   2.740998   2.175344   1.101847
    29  H    3.492616   4.799536   2.872421   2.197633   1.101012
    30  H    4.771844   6.162721   3.488317   2.176743   1.100567
    31  H    5.197482   6.284872   2.764206   2.171722   2.778436
    32  H    5.294100   6.581884   3.465702   2.180530   2.765933
    33  H    4.682965   5.728000   2.733519   2.184631   3.482438
    34  H    6.851215   5.987730   7.023473   8.438446   8.628878
    35  H    6.515896   5.453882   7.340768   8.700596   8.891771
    36  H    8.305893   7.052685   9.093485  10.554726  10.974426
    37  H    8.834609   7.893039   8.720167  10.206621  10.580683
    38  H    8.494727   7.384688   8.648497  10.174861  10.764593
    39  H    9.898560   8.783569  10.098897  11.608111  12.052025
    40  H    9.272022   8.336966   9.555292  10.935871  11.003487
    41  H   10.155072   9.041677  10.703390  12.130806  12.325292
    42  H    8.952263   7.887018   9.716932  11.065586  11.144739
                   16         17         18         19         20
    16  C    0.000000
    17  C    9.677969   0.000000
    18  C   11.084583   1.529201   0.000000
    19  C   11.242111   2.532492   1.526433   0.000000
    20  C   12.059315   2.493901   1.524763   2.513740   0.000000
    21  H    9.973925   2.659604   3.097142   4.075684   4.220802
    22  H    9.537413   3.358323   3.673186   3.993013   5.114291
    23  H    4.219971   7.540279   8.920674   9.461935   9.976926
    24  H    5.116255   7.257784   8.700642   9.485856   9.540500
    25  H    2.754301   7.022843   8.437074   8.625978   9.350964
    26  H    2.693432   7.339315   8.698021   8.887381   9.801856
    27  H    2.137432   9.094605  10.555035  10.972603  11.506340
    28  H    2.847747   8.722555  10.208617  10.580714  10.876487
    29  H    3.483800   8.652296  10.178482  10.766239  10.840773
    30  H    2.702817  10.101556  11.610317  12.051955  12.328067
    31  H    1.102040   9.554172  10.933569  10.998879  11.861209
    32  H    1.100591  10.703223  12.129496  12.321473  13.075826
    33  H    1.101167   9.715236  11.062451  11.139240  12.143821
    34  H    9.351040   1.102763   2.163342   2.778229   2.754067
    35  H    9.803114   1.104506   2.171274   3.486828   2.693704
    36  H   11.504178   2.156281   1.108236   2.148184   2.137407
    37  H   10.872490   2.741013   2.175365   1.101837   2.847816
    38  H   10.835039   2.872417   2.197619   1.101000   3.483786
    39  H   12.323601   3.488318   2.176759   1.100561   2.702818
    40  H   11.861765   2.764300   2.171723   2.778414   1.102052
    41  H   13.075157   3.465703   2.180529   2.766032   1.100587
    42  H   12.145288   2.733453   2.184616   3.482465   1.101167
                   21         22         23         24         25
    21  H    0.000000
    22  H    1.792587   0.000000
    23  H    6.878851   6.707834   0.000000
    24  H    6.706575   7.003949   1.792586   0.000000
    25  H    7.666157   7.366543   3.705639   4.235666   0.000000
    26  H    7.381223   6.861795   2.511138   3.729409   1.779065
    27  H    8.992411   8.794523   2.529300   3.210110   3.071642
    28  H    9.485166   9.510818   4.787916   4.682026   2.530060
    29  H    9.019871   9.232509   3.864910   3.322017   3.243868
    30  H   10.521685  10.539753   4.798663   4.736528   3.753020
    31  H   10.130116   9.674246   4.978823   5.772958   2.565607
    32  H   10.955828  10.561846   4.862137   5.655159   3.772806
    33  H    9.836732   9.225136   4.113691   5.348096   3.100177
    34  H    3.705517   4.234934   7.668890   7.368687   6.624003
    35  H    2.510859   3.728814   7.384846   6.864754   7.191127
    36  H    2.530148   3.207888   8.993699   8.795388   8.942715
    37  H    4.787860   4.679087   9.485146   9.510913   8.220840
    38  H    3.864675   3.318432   9.018418   9.230914   8.326806
    39  H    4.799050   4.733101  10.521446  10.539700   9.714273
    40  H    4.979511   5.771066  10.133488   9.677884   9.116281
    41  H    4.863035   5.652742  10.958367  10.564606  10.372577
    42  H    4.114736   5.346814   9.840822   9.229258   9.466739
                   26         27         28         29         30
    26  H    0.000000
    27  H    2.506973   0.000000
    28  H    3.755806   3.072538   0.000000
    29  H    3.875408   2.473634   1.773186   0.000000
    30  H    4.323670   2.538199   1.785023   1.770523   0.000000
    31  H    3.059960   3.065813   2.668320   3.826226   3.032890
    32  H    3.709757   2.484471   3.230203   3.743541   2.495614
    33  H    2.464964   2.496256   3.847398   4.346562   3.732478
    34  H    7.190413   8.944347   8.223630   8.330802   9.717293
    35  H    7.503029   9.009781   8.674612   8.411280   9.969865
    36  H    9.006896  10.833207  10.769649  10.599362  12.069238
    37  H    8.670425  10.767915  10.108910  10.451110  11.664921
    38  H    8.405661  10.595946  10.449570  10.635754  11.856171
    39  H    9.965195  12.067291  11.665035  11.858024  13.148135
    40  H    9.754506  11.448709  10.536064  10.639585  12.071714
    41  H   10.778964  12.543914  11.952242  11.931275  13.410230
    42  H    9.908446  11.423232  10.830202  10.639606  12.209664
                   31         32         33         34         35
    31  H    0.000000
    32  H    1.779326   0.000000
    33  H    1.778257   1.780250   0.000000
    34  H    9.115896  10.373069   9.465903   0.000000
    35  H    9.755281  10.780831   9.908583   1.779038   0.000000
    36  H   11.446073  12.542261  11.419680   3.071658   2.506753
    37  H   10.531581  11.948535  10.824959   2.530462   3.755981
    38  H   10.633461  11.925750  10.632558   3.244342   3.875270
    39  H   12.066770  13.406097  12.203692   3.753254   4.323709
    40  H   11.573648  12.869828  12.010368   2.565437   3.060505
    41  H   12.868610  14.104226  13.122333   3.772678   3.709918
    42  H   12.011234  13.124603  12.282204   3.099675   2.465172
                   36         37         38         39         40
    36  H    0.000000
    37  H    3.072539   0.000000
    38  H    2.473576   1.773190   0.000000
    39  H    2.538217   1.785001   1.770519   0.000000
    40  H    3.065807   2.668351   3.826205   3.032782   0.000000
    41  H    2.484397   3.230377   3.743572   2.495709   1.779329
    42  H    2.496286   3.847425   4.346543   3.732516   1.778262
                   41         42
    41  H    0.000000
    42  H    1.780243   0.000000
 Stoichiometry    C14H24N2O2
 Framework group  C1[X(C14H24N2O2)]
 Deg. of freedom   120
 Full point group                 C1      NOp   1
 Largest Abelian subgroup         C1      NOp   1
 Largest concise Abelian subgroup C1      NOp   1
                         Standard orientation:                         
 ---------------------------------------------------------------------
 Center     Atomic      Atomic             Coordinates (Angstroms)
 Number     Number       Type             X           Y           Z
 ---------------------------------------------------------------------
      1          6           0        2.789274    1.548402    0.634602
      2          6           0        2.685679    0.005923    0.519569
      3          1           0        2.832138   -0.499064    1.487352
      4          7           0        1.286950   -0.182211    0.164126
      5          6           0        0.722325    0.960386    0.141129
      6          8           0        1.438049    2.034166    0.401319
      7          6           0       -0.722796    0.960786   -0.142089
      8          7           0       -1.287165   -0.181854   -0.169066
      9          6           0       -2.686441    0.007279   -0.521617
     10          1           0       -2.834967   -0.495413   -1.490254
     11          6           0       -2.790044    1.550088   -0.632890
     12          8           0       -1.438978    2.035363   -0.397622
     13          6           0       -3.599020   -0.637013    0.509833
     14          6           0       -5.084147   -0.630682    0.145352
     15          6           0       -5.352282   -1.359699   -1.168632
     16          6           0       -5.890159   -1.245728    1.284212
     17          6           0        3.600209   -0.636156   -0.511455
     18          6           0        5.084708   -0.629980   -0.144465
     19          6           0        5.350776   -1.360553    1.169106
     20          6           0        5.892795   -1.243415   -1.282707
     21          1           0        3.435993    1.991847   -0.137118
     22          1           0        3.104001    1.909092    1.622513
     23          1           0       -3.437298    1.991713    0.139398
     24          1           0       -3.104072    1.913108   -1.620189
     25          1           0       -3.251949   -1.677770    0.621372
     26          1           0       -3.445746   -0.131672    1.479913
     27          1           0       -5.416443    0.420468    0.032015
     28          1           0       -4.923838   -2.374563   -1.145113
     29          1           0       -4.914322   -0.841206   -2.035572
     30          1           0       -6.433398   -1.445529   -1.355901
     31          1           0       -5.604746   -2.299607    1.433778
     32          1           0       -6.969470   -1.217142    1.070734
     33          1           0       -5.718672   -0.715705    2.234074
     34          1           0        3.253645   -1.676817   -0.625491
     35          1           0        3.448387   -0.129127   -1.480891
     36          1           0        5.416591    0.421099   -0.029258
     37          1           0        4.922565   -2.375458    1.143646
     38          1           0        4.911275   -0.843155    2.035904
     39          1           0        6.431586   -1.446424    1.358073
     40          1           0        5.607981   -2.297225   -1.433984
     41          1           0        6.971743   -1.214723   -1.067439
     42          1           0        5.722686   -0.712337   -2.232227
 ---------------------------------------------------------------------
 Rotational constants (GHZ):           0.9820581           0.1382096           0.1303993
 Leave Link  202 at Mon Jan 23 08:47:04 2023, MaxMem=  4194304000 cpu:               0.1 elap:               0.0
 (Enter /software/gaussian/G16-A.03/avx/g16/l301.exe)
 Standard basis: def2SVP (5D, 7F)
 Ernie: Thresh=  0.10000D-02 Tol=  0.10000D-05 Strict=F.
 There are   390 symmetry adapted cartesian basis functions of A   symmetry.
 There are   372 symmetry adapted basis functions of A   symmetry.
   372 basis functions,   618 primitive gaussians,   390 cartesian basis functions
    69 alpha electrons       69 beta electrons
       nuclear repulsion energy      1334.4488573413 Hartrees.
 IExCor= 1009 DFT=T Ex+Corr=PBE1PBE ExCW=0 ScaHFX=  0.250000
 ScaDFX=  0.750000  0.750000  1.000000  1.000000 ScalE2=  1.000000  1.000000
 IRadAn=      5 IRanWt=     -1 IRanGd=            0 ICorTp=0 IEmpDi=141
 NAtoms=   42 NActive=   42 NUniq=   42 SFac= 1.00D+00 NAtFMM=   60 NAOKFM=F Big=F
 Integral buffers will be    131072 words long.
 Raffenetti 2 integral format.
 Two-electron integral symmetry is turned on.
 R6Disp:  Grimme-D3(BJ) Dispersion energy=       -0.0377652930 Hartrees.
 Nuclear repulsion after empirical dispersion term =     1334.4110920482 Hartrees.
 Leave Link  301 at Mon Jan 23 08:47:04 2023, MaxMem=  4194304000 cpu:               0.5 elap:               0.1
 (Enter /software/gaussian/G16-A.03/avx/g16/l302.exe)
 NPDir=0 NMtPBC=     1 NCelOv=     1 NCel=       1 NClECP=     1 NCelD=      1
         NCelK=      1 NCelE2=     1 NClLst=     1 CellRange=     0.0.
 One-electron integrals computed using PRISM.
 One-electron integral symmetry used in STVInt
   1 Symmetry operations used in ECPInt.
 ECPInt:  NShTT=   16290 NPrTT=   56922 LenC2=   13584 LenP2D=   33535.
 LDataN:  DoStor=T MaxTD1= 4 Len=   56
 NBasis=   372 RedAO= T EigKep=  9.01D-04  NBF=   372
 NBsUse=   372 1.00D-06 EigRej= -1.00D+00 NBFU=   372
 Precomputing XC quadrature grid using
 IXCGrd= 4 IRadAn=           5 IRanWt=          -1 IRanGd=           0 AccXCQ= 0.00D+00.
 Generated NRdTot=       0 NPtTot=           0 NUsed=           0 NTot=          32
 NSgBfM=   378   378   378   378   378 MxSgAt=    42 MxSgA2=    42.
 Leave Link  302 at Mon Jan 23 08:47:05 2023, MaxMem=  4194304000 cpu:               6.3 elap:               0.8
 (Enter /software/gaussian/G16-A.03/avx/g16/l303.exe)
 DipDrv:  MaxL=1.
 Leave Link  303 at Mon Jan 23 08:47:05 2023, MaxMem=  4194304000 cpu:               0.5 elap:               0.1
 (Enter /software/gaussian/G16-A.03/avx/g16/l401.exe)
 ExpMin= 1.22D-01 ExpMax= 2.27D+03 ExpMxC= 3.41D+02 IAcc=3 IRadAn=         5 AccDes= 0.00D+00
 Harris functional with IExCor= 1009 and IRadAn=       5 diagonalized for initial guess.
 HarFok:  IExCor= 1009 AccDes= 0.00D+00 IRadAn=         5 IDoV= 1 UseB2=F ITyADJ=14
 ICtDFT=  3500011 ScaDFX=  1.000000  1.000000  1.000000  1.000000
 FoFCou: FMM=F IPFlag=           0 FMFlag=      100000 FMFlg1=           0
         NFxFlg=           0 DoJE=T BraDBF=F KetDBF=T FulRan=T
         wScrn=  0.000000 ICntrl=       500 IOpCl=  0 I1Cent=   200000004 NGrid=           0
         NMat0=    1 NMatS0=      1 NMatT0=    0 NMatD0=    1 NMtDS0=    0 NMtDT0=    0
 Petite list used in FoFCou.
 Harris En= -806.605651232765    
 JPrj=0 DoOrth=F DoCkMO=F.
 Leave Link  401 at Mon Jan 23 08:47:09 2023, MaxMem=  4194304000 cpu:              31.6 elap:               4.0
 (Enter /software/gaussian/G16-A.03/avx/g16/l502.exe)
 Integral symmetry usage will be decided dynamically.
 Closed shell SCF:
 Using DIIS extrapolation, IDIIS=  1040.
 NGot=  4194304000 LenX=  4193992314 LenY=  4193839773
 Requested convergence on RMS density matrix=1.00D-08 within 128 cycles.
 Requested convergence on MAX density matrix=1.00D-06.
 Requested convergence on             energy=1.00D-06.
 No special actions if energy rises.
 Fock matrices will be formed incrementally for  20 cycles.
 Integral accuracy reduced to 1.0D-05 until final iterations.

 Cycle   1  Pass 0  IDiag  1:
 FoFJK:  IHMeth= 1 ICntrl=       0 DoSepK=F KAlg= 0 I1Cent=           0 FoldK=F
 IRaf= 750000000 NMat=       1 IRICut=       1 DoRegI=T DoRafI=F ISym2E= 0 IDoP0=0 IntGTp=1.
 FoFCou: FMM=F IPFlag=           0 FMFlag=      100000 FMFlg1=           0
         NFxFlg=           0 DoJE=F BraDBF=F KetDBF=F FulRan=T
         wScrn=  0.000000 ICntrl=         0 IOpCl=  0 I1Cent=           0 NGrid=           0
         NMat0=    1 NMatS0=      1 NMatT0=    0 NMatD0=    1 NMtDS0=    0 NMtDT0=    0
 Symmetry not used in FoFCou.
 E= -805.940699819720    
 DIIS: error= 2.08D-02 at cycle   1 NSaved=   1.
 NSaved= 1 IEnMin= 1 EnMin= -805.940699819720     IErMin= 1 ErrMin= 2.08D-02
 ErrMax= 2.08D-02  0.00D+00 EMaxC= 1.00D-01 BMatC= 4.10D-01 BMatP= 4.10D-01
 IDIUse=3 WtCom= 7.92D-01 WtEn= 2.08D-01
 Coeff-Com:  0.100D+01
 Coeff-En:   0.100D+01
 Coeff:      0.100D+01
 Gap=     0.172 Goal=   None    Shift=    0.000
 GapD=    0.172 DampG=1.000 DampE=0.500 DampFc=0.5000 IDamp=-1.
 Damping current iteration by 5.00D-01
 RMSDP=5.07D-03 MaxDP=1.69D-01              OVMax= 2.32D-01

 Cycle   2  Pass 0  IDiag  1:
 RMSU=  2.53D-03    CP:  9.88D-01
 E= -806.109320638266     Delta-E=       -0.168620818547 Rises=F Damp=T
 DIIS: error= 1.20D-02 at cycle   2 NSaved=   2.
 NSaved= 2 IEnMin= 2 EnMin= -806.109320638266     IErMin= 2 ErrMin= 1.20D-02
 ErrMax= 1.20D-02  0.00D+00 EMaxC= 1.00D-01 BMatC= 4.14D-02 BMatP= 4.10D-01
 IDIUse=3 WtCom= 8.80D-01 WtEn= 1.20D-01
 Coeff-Com:  0.136D+00 0.864D+00
 Coeff-En:   0.217D+00 0.783D+00
 Coeff:      0.145D+00 0.855D+00
 Gap=     0.237 Goal=   None    Shift=    0.000
 RMSDP=1.52D-03 MaxDP=5.91D-02 DE=-1.69D-01 OVMax= 2.40D-01

 Cycle   3  Pass 0  IDiag  1:
 RMSU=  1.34D-03    CP:  9.80D-01  7.27D-01
 E= -806.335795433145     Delta-E=       -0.226474794879 Rises=F Damp=F
 DIIS: error= 1.62D-02 at cycle   3 NSaved=   3.
 NSaved= 3 IEnMin= 3 EnMin= -806.335795433145     IErMin= 2 ErrMin= 1.20D-02
 ErrMax= 1.62D-02  0.00D+00 EMaxC= 1.00D-01 BMatC= 5.11D-02 BMatP= 4.14D-02
 IDIUse=2 WtCom= 0.00D+00 WtEn= 1.00D+00
 Coeff-En:   0.000D+00 0.000D+00 0.100D+01
 Coeff:      0.000D+00 0.000D+00 0.100D+01
 Gap=     0.195 Goal=   None    Shift=    0.000
 RMSDP=2.20D-03 MaxDP=9.66D-02 DE=-2.26D-01 OVMax= 2.18D-01

 Cycle   4  Pass 0  IDiag  1:
 RMSU=  1.15D-03    CP:  9.91D-01  1.20D+00 -6.37D-02
 E= -806.162539818843     Delta-E=        0.173255614302 Rises=F Damp=F
 DIIS: error= 4.29D-02 at cycle   4 NSaved=   4.
 NSaved= 4 IEnMin= 3 EnMin= -806.335795433145     IErMin= 2 ErrMin= 1.20D-02
 ErrMax= 4.29D-02  0.00D+00 EMaxC= 1.00D-01 BMatC= 2.50D-01 BMatP= 4.14D-02
 IDIUse=2 WtCom= 0.00D+00 WtEn= 1.00D+00
 Coeff-En:   0.000D+00 0.000D+00 0.773D+00 0.227D+00
 Coeff:      0.000D+00 0.000D+00 0.773D+00 0.227D+00
 Gap=     0.215 Goal=   None    Shift=    0.000
 RMSDP=1.23D-03 MaxDP=5.19D-02 DE= 1.73D-01 OVMax= 1.10D-01

 Cycle   5  Pass 0  IDiag  1:
 RMSU=  1.83D-04    CP:  9.85D-01  8.99D-01  4.65D-01  4.73D-01
 E= -806.367324645140     Delta-E=       -0.204784826298 Rises=F Damp=F
 DIIS: error= 1.02D-02 at cycle   5 NSaved=   5.
 NSaved= 5 IEnMin= 5 EnMin= -806.367324645140     IErMin= 5 ErrMin= 1.02D-02
 ErrMax= 1.02D-02  0.00D+00 EMaxC= 1.00D-01 BMatC= 1.66D-02 BMatP= 4.14D-02
 IDIUse=3 WtCom= 8.98D-01 WtEn= 1.02D-01
 Coeff-Com: -0.513D-02 0.195D-01 0.263D+00-0.102D+00 0.825D+00
 Coeff-En:   0.000D+00 0.000D+00 0.291D+00 0.000D+00 0.709D+00
 Coeff:     -0.461D-02 0.175D-01 0.266D+00-0.918D-01 0.813D+00
 Gap=     0.214 Goal=   None    Shift=    0.000
 RMSDP=3.93D-04 MaxDP=1.69D-02 DE=-2.05D-01 OVMax= 4.04D-02

 Cycle   6  Pass 0  IDiag  1:
 RMSU=  3.68D-05    CP:  9.83D-01  8.23D-01  6.62D-01  2.89D-01  8.43D-01
 E= -806.381989819844     Delta-E=       -0.014665174703 Rises=F Damp=F
 DIIS: error= 3.66D-04 at cycle   6 NSaved=   6.
 NSaved= 6 IEnMin= 6 EnMin= -806.381989819844     IErMin= 6 ErrMin= 3.66D-04
 ErrMax= 3.66D-04  0.00D+00 EMaxC= 1.00D-01 BMatC= 3.82D-05 BMatP= 1.66D-02
 IDIUse=3 WtCom= 9.96D-01 WtEn= 3.66D-03
 Coeff-Com: -0.351D-02 0.725D-02 0.983D-01-0.532D-01 0.383D+00 0.568D+00
 Coeff-En:   0.000D+00 0.000D+00 0.000D+00 0.000D+00 0.000D+00 0.100D+01
 Coeff:     -0.349D-02 0.722D-02 0.980D-01-0.530D-01 0.382D+00 0.569D+00
 Gap=     0.215 Goal=   None    Shift=    0.000
 RMSDP=1.99D-05 MaxDP=8.53D-04 DE=-1.47D-02 OVMax= 1.87D-03

 Cycle   7  Pass 0  IDiag  1:
 RMSU=  9.23D-06    CP:  9.83D-01  8.27D-01  6.56D-01  2.94D-01  8.71D-01
                    CP:  7.62D-01
 E= -806.382022392595     Delta-E=       -0.000032572752 Rises=F Damp=F
 DIIS: error= 9.51D-05 at cycle   7 NSaved=   7.
 NSaved= 7 IEnMin= 7 EnMin= -806.382022392595     IErMin= 7 ErrMin= 9.51D-05
 ErrMax= 9.51D-05  0.00D+00 EMaxC= 1.00D-01 BMatC= 2.07D-06 BMatP= 3.82D-05
 IDIUse=1 WtCom= 1.00D+00 WtEn= 0.00D+00
 Coeff-Com: -0.147D-02 0.260D-02 0.327D-01-0.217D-01 0.142D+00 0.276D+00
 Coeff-Com:  0.570D+00
 Coeff:     -0.147D-02 0.260D-02 0.327D-01-0.217D-01 0.142D+00 0.276D+00
 Coeff:      0.570D+00
 Gap=     0.215 Goal=   None    Shift=    0.000
 RMSDP=4.55D-06 MaxDP=1.80D-04 DE=-3.26D-05 OVMax= 1.75D-04

 Initial convergence to 1.0D-05 achieved.  Increase integral accuracy.
 Cycle   8  Pass 1  IDiag  1:
 E= -806.382028032062     Delta-E=       -0.000005639467 Rises=F Damp=F
 DIIS: error= 7.88D-05 at cycle   1 NSaved=   1.
 NSaved= 1 IEnMin= 1 EnMin= -806.382028032062     IErMin= 1 ErrMin= 7.88D-05
 ErrMax= 7.88D-05  0.00D+00 EMaxC= 1.00D-01 BMatC= 9.30D-07 BMatP= 9.30D-07
 IDIUse=1 WtCom= 1.00D+00 WtEn= 0.00D+00
 Coeff-Com:  0.100D+01
 Coeff:      0.100D+01
 Gap=     0.215 Goal=   None    Shift=    0.000
 RMSDP=4.55D-06 MaxDP=1.80D-04 DE=-5.64D-06 OVMax= 2.17D-04

 Cycle   9  Pass 1  IDiag  1:
 RMSU=  3.45D-05    CP:  1.00D+00
 E= -806.382028569389     Delta-E=       -0.000000537327 Rises=F Damp=F
 DIIS: error= 4.22D-05 at cycle   2 NSaved=   2.
 NSaved= 2 IEnMin= 2 EnMin= -806.382028569389     IErMin= 2 ErrMin= 4.22D-05
 ErrMax= 4.22D-05  0.00D+00 EMaxC= 1.00D-01 BMatC= 4.82D-07 BMatP= 9.30D-07
 IDIUse=1 WtCom= 1.00D+00 WtEn= 0.00D+00
 Coeff-Com:  0.385D+00 0.615D+00
 Coeff:      0.385D+00 0.615D+00
 Gap=     0.215 Goal=   None    Shift=    0.000
 RMSDP=3.84D-06 MaxDP=1.94D-04 DE=-5.37D-07 OVMax= 3.19D-04

 Cycle  10  Pass 1  IDiag  1:
 RMSU=  3.80D-06    CP:  1.00D+00  1.00D+00
 E= -806.382028736510     Delta-E=       -0.000000167121 Rises=F Damp=F
 DIIS: error= 3.10D-05 at cycle   3 NSaved=   3.
 NSaved= 3 IEnMin= 3 EnMin= -806.382028736510     IErMin= 3 ErrMin= 3.10D-05
 ErrMax= 3.10D-05  0.00D+00 EMaxC= 1.00D-01 BMatC= 2.91D-07 BMatP= 4.82D-07
 IDIUse=1 WtCom= 1.00D+00 WtEn= 0.00D+00
 Coeff-Com:  0.239D-01 0.432D+00 0.544D+00
 Coeff:      0.239D-01 0.432D+00 0.544D+00
 Gap=     0.215 Goal=   None    Shift=    0.000
 RMSDP=1.93D-06 MaxDP=9.36D-05 DE=-1.67D-07 OVMax= 1.91D-04

 Cycle  11  Pass 1  IDiag  1:
 RMSU=  7.15D-07    CP:  1.00D+00  1.01D+00  5.44D-01
 E= -806.382028972178     Delta-E=       -0.000000235668 Rises=F Damp=F
 DIIS: error= 1.37D-05 at cycle   4 NSaved=   4.
 NSaved= 4 IEnMin= 4 EnMin= -806.382028972178     IErMin= 4 ErrMin= 1.37D-05
 ErrMax= 1.37D-05  0.00D+00 EMaxC= 1.00D-01 BMatC= 2.90D-08 BMatP= 2.91D-07
 IDIUse=1 WtCom= 1.00D+00 WtEn= 0.00D+00
 Coeff-Com: -0.485D-02 0.257D+00 0.361D+00 0.387D+00
 Coeff:     -0.485D-02 0.257D+00 0.361D+00 0.387D+00
 Gap=     0.215 Goal=   None    Shift=    0.000
 RMSDP=4.59D-07 MaxDP=2.33D-05 DE=-2.36D-07 OVMax= 4.41D-05

 Cycle  12  Pass 1  IDiag  1:
 RMSU=  1.37D-07    CP:  1.00D+00  1.01D+00  5.91D-01  4.45D-01
 E= -806.382028995306     Delta-E=       -0.000000023128 Rises=F Damp=F
 DIIS: error= 7.16D-07 at cycle   5 NSaved=   5.
 NSaved= 5 IEnMin= 5 EnMin= -806.382028995306     IErMin= 5 ErrMin= 7.16D-07
 ErrMax= 7.16D-07  0.00D+00 EMaxC= 1.00D-01 BMatC= 1.94D-10 BMatP= 2.90D-08
 IDIUse=1 WtCom= 1.00D+00 WtEn= 0.00D+00
 Coeff-Com: -0.290D-02 0.124D+00 0.174D+00 0.202D+00 0.503D+00
 Coeff:     -0.290D-02 0.124D+00 0.174D+00 0.202D+00 0.503D+00
 Gap=     0.215 Goal=   None    Shift=    0.000
 RMSDP=4.09D-08 MaxDP=1.46D-06 DE=-2.31D-08 OVMax= 1.59D-06

 Cycle  13  Pass 1  IDiag  1:
 RMSU=  3.38D-08    CP:  1.00D+00  1.01D+00  5.87D-01  4.46D-01  8.74D-01
 E= -806.382028995483     Delta-E=       -0.000000000177 Rises=F Damp=F
 DIIS: error= 7.49D-08 at cycle   6 NSaved=   6.
 NSaved= 6 IEnMin= 6 EnMin= -806.382028995483     IErMin= 6 ErrMin= 7.49D-08
 ErrMax= 7.49D-08  0.00D+00 EMaxC= 1.00D-01 BMatC= 3.34D-12 BMatP= 1.94D-10
 IDIUse=1 WtCom= 1.00D+00 WtEn= 0.00D+00
 Coeff-Com: -0.287D-03 0.953D-02 0.123D-01 0.218D-01 0.957D-01 0.861D+00
 Coeff:     -0.287D-03 0.953D-02 0.123D-01 0.218D-01 0.957D-01 0.861D+00
 Gap=     0.215 Goal=   None    Shift=    0.000
 RMSDP=8.40D-09 MaxDP=2.95D-07 DE=-1.77D-10 OVMax= 3.13D-07

 SCF Done:  E(RPBE1PBE) =  -806.382028995     A.U. after   13 cycles
            NFock= 13  Conv=0.84D-08     -V/T= 2.0100
 KE= 7.984341471121D+02 PE=-4.542366974334D+03 EE= 1.603139706178D+03
 Leave Link  502 at Mon Jan 23 08:48:23 2023, MaxMem=  4194304000 cpu:             589.8 elap:              73.8
 (Enter /software/gaussian/G16-A.03/avx/g16/l801.exe)
 DoSCS=F DFT=T ScalE2(SS,OS)=  1.000000  1.000000
 Range of M.O.s used for correlation:     1   372
 NBasis=   372 NAE=    69 NBE=    69 NFC=     0 NFV=     0
 NROrb=    372 NOA=    69 NOB=    69 NVA=   303 NVB=   303
 Leave Link  801 at Mon Jan 23 08:48:23 2023, MaxMem=  4194304000 cpu:               0.2 elap:               0.0
 (Enter /software/gaussian/G16-A.03/avx/g16/l1101.exe)
 Using compressed storage, NAtomX=    42.
 Will process     43 centers per pass.
   1 Symmetry operations used in ECPInt.
 ECPInt:  NShTT=   16290 NPrTT=   56922 LenC2=   13584 LenP2D=   33535.
 LDataN:  DoStor=T MaxTD1= 5 Len=  102
 R6Disp: Adding Grimme-D3(BJ) dispersion energy 1st derivatives to the gradient.
 Leave Link 1101 at Mon Jan 23 08:48:24 2023, MaxMem=  4194304000 cpu:               6.2 elap:               0.8
 (Enter /software/gaussian/G16-A.03/avx/g16/l1102.exe)
 Symmetrizing basis deriv contribution to polar:
 IMax=3 JMax=2 DiffMx= 0.00D+00
 Leave Link 1102 at Mon Jan 23 08:48:24 2023, MaxMem=  4194304000 cpu:               0.4 elap:               0.1
 (Enter /software/gaussian/G16-A.03/avx/g16/l1110.exe)
 Forming Gx(P) for the SCF density, NAtomX=    42.
 Integral derivatives from FoFJK, PRISM(SPDF).
 Do as many integral derivatives as possible in FoFJK.
 G2DrvN: MDV=    4194300840.
 G2DrvN: will do    43 centers at a time, making    1 passes.
 Calling FoFCou, ICntrl=  3107 FMM=F I1Cent=   0 AccDes= 0.00D+00.
 FoFJK:  IHMeth= 1 ICntrl=    3107 DoSepK=F KAlg= 0 I1Cent=           0 FoldK=F
 IRaf=         0 NMat=       1 IRICut=       1 DoRegI=T DoRafI=F ISym2E= 0 IDoP0=0 IntGTp=1.
 FoFCou: FMM=F IPFlag=           0 FMFlag=      100000 FMFlg1=           0
         NFxFlg=           0 DoJE=F BraDBF=F KetDBF=F FulRan=T
         wScrn=  0.000000 ICntrl=      3107 IOpCl=  0 I1Cent=           0 NGrid=           0
         NMat0=    1 NMatS0=      1 NMatT0=    0 NMatD0=    1 NMtDS0=    0 NMtDT0=    0
 Symmetry not used in FoFCou.
 End of G2Drv F.D. properties file   721 does not exist.
 End of G2Drv F.D. properties file   722 does not exist.
 End of G2Drv F.D. properties file   788 does not exist.
 Leave Link 1110 at Mon Jan 23 08:53:06 2023, MaxMem=  4194304000 cpu:            2259.2 elap:             282.4
 (Enter /software/gaussian/G16-A.03/avx/g16/l1002.exe)
 Minotr:  Closed shell wavefunction.
          IDoAtm=111111111111111111111111111111111111111111
          Direct CPHF calculation.
          Differentiating once with respect to electric field.
                with respect to dipole field.
          Differentiating once with respect to nuclear coordinates.
          Requested convergence is 1.0D-08 RMS, and 1.0D-07 maximum.
          Secondary convergence is 1.0D-12 RMS, and 1.0D-12 maximum.
          NewPWx=T KeepS1=F KeepF1=F KeepIn=T MapXYZ=F SortEE=F KeepMc=T.
        12853 words used for storage of precomputed grid.
 Keep R1 ints in memory in canonical form, NReq=2436596185.
 FoFCou: FMM=F IPFlag=           0 FMFlag=           0 FMFlg1=           0
         NFxFlg=           0 DoJE=F BraDBF=F KetDBF=F FulRan=T
         wScrn=  0.000000 ICntrl=       600 IOpCl=  0 I1Cent=           0 NGrid=           0
         NMat0=    1 NMatS0=  69378 NMatT0=    0 NMatD0=    1 NMtDS0=    0 NMtDT0=    0
 Symmetry not used in FoFCou.
 Two-electron integral symmetry not used.
          MDV=    4194304000 using IRadAn=       1.
          Solving linear equations simultaneously, MaxMat=       0.
          There are   129 degrees of freedom in the 1st order CPHF.  IDoFFX=6 NUNeed=     3.
    126 vectors produced by pass  0 Test12= 2.09D-14 1.00D-09 XBig12= 1.21D+02 4.93D+00.
 AX will form   126 AO Fock derivatives at one time.
    126 vectors produced by pass  1 Test12= 2.09D-14 1.00D-09 XBig12= 4.59D+01 1.79D+00.
    126 vectors produced by pass  2 Test12= 2.09D-14 1.00D-09 XBig12= 5.30D-01 1.20D-01.
    126 vectors produced by pass  3 Test12= 2.09D-14 1.00D-09 XBig12= 1.98D-03 4.78D-03.
    126 vectors produced by pass  4 Test12= 2.09D-14 1.00D-09 XBig12= 4.03D-06 1.78D-04.
     73 vectors produced by pass  5 Test12= 2.09D-14 1.00D-09 XBig12= 4.97D-09 6.71D-06.
     13 vectors produced by pass  6 Test12= 2.09D-14 1.00D-09 XBig12= 4.85D-12 2.66D-07.
      3 vectors produced by pass  7 Test12= 2.09D-14 1.00D-09 XBig12= 5.19D-15 7.51D-09.
 InvSVY:  IOpt=1 It=  1 EMax= 5.33D-15
 Solved reduced A of dimension   719 with   129 vectors.
 FullF1:  Do perturbations      1 to       3.
 Isotropic polarizability for W=    0.000000      171.04 Bohr**3.
 End of Minotr F.D. properties file   721 does not exist.
 End of Minotr F.D. properties file   722 does not exist.
 End of Minotr F.D. properties file   788 does not exist.
 Leave Link 1002 at Mon Jan 23 08:59:17 2023, MaxMem=  4194304000 cpu:            2963.5 elap:             370.5
 (Enter /software/gaussian/G16-A.03/avx/g16/l601.exe)
 Copying SCF densities to generalized density rwf, IOpCl= 0 IROHF=0.

 **********************************************************************

            Population analysis using the SCF density.

 **********************************************************************

 Orbital symmetries:
       Occupied  (A) (A) (A) (A) (A) (A) (A) (A) (A) (A) (A) (A)
                 (A) (A) (A) (A) (A) (A) (A) (A) (A) (A) (A) (A)
                 (A) (A) (A) (A) (A) (A) (A) (A) (A) (A) (A) (A)
                 (A) (A) (A) (A) (A) (A) (A) (A) (A) (A) (A) (A)
                 (A) (A) (A) (A) (A) (A) (A) (A) (A) (A) (A) (A)
                 (A) (A) (A) (A) (A) (A) (A) (A) (A)
       Virtual   (A) (A) (A) (A) (A) (A) (A) (A) (A) (A) (A) (A)
                 (A) (A) (A) (A) (A) (A) (A) (A) (A) (A) (A) (A)
                 (A) (A) (A) (A) (A) (A) (A) (A) (A) (A) (A) (A)
                 (A) (A) (A) (A) (A) (A) (A) (A) (A) (A) (A) (A)
                 (A) (A) (A) (A) (A) (A) (A) (A) (A) (A) (A) (A)
                 (A) (A) (A) (A) (A) (A) (A) (A) (A) (A) (A) (A)
                 (A) (A) (A) (A) (A) (A) (A) (A) (A) (A) (A) (A)
                 (A) (A) (A) (A) (A) (A) (A) (A) (A) (A) (A) (A)
                 (A) (A) (A) (A) (A) (A) (A) (A) (A) (A) (A) (A)
                 (A) (A) (A) (A) (A) (A) (A) (A) (A) (A) (A) (A)
                 (A) (A) (A) (A) (A) (A) (A) (A) (A) (A) (A) (A)
                 (A) (A) (A) (A) (A) (A) (A) (A) (A) (A) (A) (A)
                 (A) (A) (A) (A) (A) (A) (A) (A) (A) (A) (A) (A)
                 (A) (A) (A) (A) (A) (A) (A) (A) (A) (A) (A) (A)
                 (A) (A) (A) (A) (A) (A) (A) (A) (A) (A) (A) (A)
                 (A) (A) (A) (A) (A) (A) (A) (A) (A) (A) (A) (A)
                 (A) (A) (A) (A) (A) (A) (A) (A) (A) (A) (A) (A)
                 (A) (A) (A) (A) (A) (A) (A) (A) (A) (A) (A) (A)
                 (A) (A) (A) (A) (A) (A) (A) (A) (A) (A) (A) (A)
                 (A) (A) (A) (A) (A) (A) (A) (A) (A) (A) (A) (A)
                 (A) (A) (A) (A) (A) (A) (A) (A) (A) (A) (A) (A)
                 (A) (A) (A) (A) (A) (A) (A) (A) (A) (A) (A) (A)
                 (A) (A) (A) (A) (A) (A) (A) (A) (A) (A) (A) (A)
                 (A) (A) (A) (A) (A) (A) (A) (A) (A) (A) (A) (A)
                 (A) (A) (A) (A) (A) (A) (A) (A) (A) (A) (A) (A)
                 (A) (A) (A)
 The electronic state is 1-A.
 Alpha  occ. eigenvalues --  -19.25315 -19.25307 -14.36034 -14.36027 -10.32007
 Alpha  occ. eigenvalues --  -10.31991 -10.29344 -10.29343 -10.26280 -10.26278
 Alpha  occ. eigenvalues --  -10.24043 -10.24043 -10.22798 -10.22798 -10.22608
 Alpha  occ. eigenvalues --  -10.22607 -10.22410 -10.22410  -1.13235  -1.11895
 Alpha  occ. eigenvalues --   -0.93582  -0.91102  -0.84326  -0.83248  -0.80507
 Alpha  occ. eigenvalues --   -0.76950  -0.71610  -0.70447  -0.69876  -0.69858
 Alpha  occ. eigenvalues --   -0.65886  -0.62327  -0.61785  -0.57764  -0.57521
 Alpha  occ. eigenvalues --   -0.55509  -0.54021  -0.52375  -0.51177  -0.48492
 Alpha  occ. eigenvalues --   -0.47881  -0.47806  -0.47396  -0.46573  -0.45084
 Alpha  occ. eigenvalues --   -0.44169  -0.43307  -0.42112  -0.41365  -0.41349
 Alpha  occ. eigenvalues --   -0.40543  -0.39969  -0.39648  -0.39625  -0.37585
 Alpha  occ. eigenvalues --   -0.37583  -0.37335  -0.35964  -0.35931  -0.34618
 Alpha  occ. eigenvalues --   -0.34539  -0.33888  -0.33835  -0.33188  -0.33144
 Alpha  occ. eigenvalues --   -0.29045  -0.27167  -0.25549  -0.23875
 Alpha virt. eigenvalues --   -0.02413   0.05801   0.05805   0.08298   0.08519
 Alpha virt. eigenvalues --    0.08642   0.08781   0.09070   0.09260   0.11332
 Alpha virt. eigenvalues --    0.11333   0.12229   0.12960   0.13005   0.13295
 Alpha virt. eigenvalues --    0.13320   0.14558   0.14597   0.15560   0.15710
 Alpha virt. eigenvalues --    0.16105   0.16887   0.17359   0.17697   0.17874
 Alpha virt. eigenvalues --    0.18736   0.18874   0.19208   0.20537   0.22001
 Alpha virt. eigenvalues --    0.22116   0.22926   0.23711   0.24104   0.24678
 Alpha virt. eigenvalues --    0.26458   0.26629   0.28054   0.28785   0.28938
 Alpha virt. eigenvalues --    0.29218   0.33295   0.38549   0.39673   0.40174
 Alpha virt. eigenvalues --    0.40277   0.41163   0.42044   0.42897   0.43148
 Alpha virt. eigenvalues --    0.43571   0.43897   0.45212   0.46870   0.48427
 Alpha virt. eigenvalues --    0.48465   0.49506   0.51967   0.54010   0.54190
 Alpha virt. eigenvalues --    0.56179   0.56886   0.57315   0.58091   0.58543
 Alpha virt. eigenvalues --    0.60260   0.60332   0.60870   0.61670   0.61997
 Alpha virt. eigenvalues --    0.62705   0.63318   0.63490   0.64104   0.64222
 Alpha virt. eigenvalues --    0.65148   0.65559   0.65815   0.66172   0.66547
 Alpha virt. eigenvalues --    0.66849   0.66977   0.67538   0.67685   0.68120
 Alpha virt. eigenvalues --    0.68152   0.68768   0.69188   0.69303   0.69382
 Alpha virt. eigenvalues --    0.70151   0.70907   0.71451   0.71687   0.72152
 Alpha virt. eigenvalues --    0.72278   0.72836   0.73556   0.73958   0.74161
 Alpha virt. eigenvalues --    0.74293   0.74322   0.74798   0.75306   0.76129
 Alpha virt. eigenvalues --    0.76799   0.77092   0.77736   0.79200   0.81419
 Alpha virt. eigenvalues --    0.82594   0.84052   0.86968   0.88577   0.89134
 Alpha virt. eigenvalues --    0.90646   0.94695   0.96248   0.97040   0.97417
 Alpha virt. eigenvalues --    0.98574   1.03468   1.05099   1.05109   1.09245
 Alpha virt. eigenvalues --    1.09544   1.09557   1.10039   1.10362   1.10979
 Alpha virt. eigenvalues --    1.14219   1.14376   1.15556   1.18110   1.21891
 Alpha virt. eigenvalues --    1.23313   1.26608   1.27421   1.28959   1.29125
 Alpha virt. eigenvalues --    1.30552   1.32176   1.32549   1.32628   1.33326
 Alpha virt. eigenvalues --    1.37629   1.42983   1.44430   1.45684   1.46918
 Alpha virt. eigenvalues --    1.47109   1.50088   1.53282   1.54546   1.54547
 Alpha virt. eigenvalues --    1.55621   1.55906   1.56115   1.56315   1.58477
 Alpha virt. eigenvalues --    1.58573   1.59159   1.60831   1.61964   1.62192
 Alpha virt. eigenvalues --    1.63521   1.66362   1.66800   1.69180   1.72804
 Alpha virt. eigenvalues --    1.73206   1.73342   1.74585   1.74796   1.75572
 Alpha virt. eigenvalues --    1.76541   1.77552   1.78892   1.79108   1.79430
 Alpha virt. eigenvalues --    1.79657   1.81109   1.81502   1.82502   1.82630
 Alpha virt. eigenvalues --    1.83302   1.83349   1.83942   1.84098   1.84715
 Alpha virt. eigenvalues --    1.84837   1.85895   1.86552   1.86588   1.88142
 Alpha virt. eigenvalues --    1.88605   1.89255   1.89345   1.90595   1.91384
 Alpha virt. eigenvalues --    1.91661   1.92130   1.93527   1.95172   1.95818
 Alpha virt. eigenvalues --    1.96469   1.97293   1.97509   1.97636   1.98088
 Alpha virt. eigenvalues --    1.99198   2.00122   2.00952   2.01858   2.03608
 Alpha virt. eigenvalues --    2.03961   2.05885   2.06194   2.07452   2.10196
 Alpha virt. eigenvalues --    2.10897   2.13653   2.14891   2.17236   2.18680
 Alpha virt. eigenvalues --    2.18773   2.23478   2.24985   2.27226   2.28847
 Alpha virt. eigenvalues --    2.28856   2.29218   2.29570   2.33774   2.34243
 Alpha virt. eigenvalues --    2.35720   2.36501   2.36696   2.40311   2.40594
 Alpha virt. eigenvalues --    2.42455   2.42632   2.43603   2.44890   2.46457
 Alpha virt. eigenvalues --    2.47036   2.50379   2.50638   2.53601   2.54235
 Alpha virt. eigenvalues --    2.57373   2.58360   2.60529   2.60728   2.62743
 Alpha virt. eigenvalues --    2.63167   2.63605   2.65791   2.66510   2.67761
 Alpha virt. eigenvalues --    2.69553   2.71308   2.72161   2.73820   2.74382
 Alpha virt. eigenvalues --    2.80819   2.84205   2.85172   2.85691   2.86722
 Alpha virt. eigenvalues --    2.87448   2.88154   2.89308   2.90226   2.91010
 Alpha virt. eigenvalues --    2.92082   2.93520   2.93944   2.94405   2.95200
 Alpha virt. eigenvalues --    2.96130   2.97985   2.98255   3.00299   3.01550
 Alpha virt. eigenvalues --    3.03793   3.04362   3.06218   3.08576   3.10110
 Alpha virt. eigenvalues --    3.10930   3.11375   3.12279   3.13617   3.13859
 Alpha virt. eigenvalues --    3.15032   3.17896   3.25317   3.30510   3.34184
 Alpha virt. eigenvalues --    3.53580   3.56527   3.74537
     Molecular Orbital Coefficients:
                          65        66        67        68        69
                           O         O         O         O         O
     Eigenvalues --    -0.33144  -0.29045  -0.27167  -0.25549  -0.23875
   1 1   C  1S         -0.00484  -0.02455  -0.00598   0.02716  -0.00213
   2        2S          0.01130   0.06147   0.01195  -0.06248   0.00540
   3        3S          0.04609   0.10728   0.06044  -0.16126   0.01442
   4        4PX         0.00199  -0.01972   0.00706   0.03910  -0.00764
   5        4PY        -0.09369  -0.13104  -0.02184   0.12084  -0.00819
   6        4PZ        -0.01389  -0.00899  -0.09236  -0.00809   0.05360
   7        5PX         0.00048   0.00613  -0.00532   0.01559   0.00798
   8        5PY        -0.05357  -0.10619  -0.03537   0.12139  -0.00249
   9        5PZ        -0.00176  -0.00495  -0.02668   0.01072   0.00344
  10        6D 0       -0.00164  -0.00206  -0.00488   0.00159   0.00262
  11        6D+1       -0.00064   0.00127  -0.01241  -0.00434   0.00822
  12        6D-1       -0.00091  -0.00056  -0.00291   0.00049   0.00259
  13        6D+2       -0.00445   0.00124   0.00341  -0.00061  -0.00200
  14        6D-2        0.00032  -0.00223   0.00079   0.00480  -0.00096
  15 2   C  1S         -0.00107   0.02140   0.01022  -0.02374  -0.00437
  16        2S          0.00690  -0.04724  -0.02723   0.05822   0.01864
  17        3S         -0.03762  -0.07968  -0.04464   0.10199  -0.02504
  18        4PX        -0.01315   0.09404  -0.00408  -0.11979   0.02064
  19        4PY         0.08340   0.08396   0.01084  -0.07558   0.00797
  20        4PZ         0.02651   0.02792   0.11145  -0.00705  -0.10625
  21        5PX        -0.00201   0.04305  -0.00385  -0.05395  -0.03313
  22        5PY         0.01888  -0.01053  -0.02381   0.02287   0.00739
  23        5PZ         0.02048   0.01388   0.05219  -0.01027  -0.00761
  24        6D 0       -0.00239  -0.00073   0.00422   0.00172  -0.00754
  25        6D+1        0.00154  -0.00158   0.00879   0.00490  -0.01535
  26        6D-1        0.00302   0.00366  -0.00622  -0.00528   0.00645
  27        6D+2       -0.00744  -0.01152  -0.00566   0.01067   0.00449
  28        6D-2       -0.00148   0.01213   0.00472  -0.01233  -0.00009
  29 3   H  1S         -0.01774  -0.03404   0.09932   0.05717  -0.12851
  30        2S         -0.01109  -0.00085   0.05577   0.01858  -0.09035
  31        3PX        -0.00054   0.00073   0.00012  -0.00134   0.00001
  32        3PY         0.00168   0.00186   0.00281  -0.00122  -0.00340
  33        3PZ         0.00139   0.00204  -0.00143  -0.00242   0.00212
  34 4   N  1S         -0.00925   0.06748   0.02073  -0.07831  -0.00343
  35        2S         -0.02311   0.13558   0.04162  -0.16611  -0.00707
  36        3S          0.00870   0.19953   0.04842  -0.18015  -0.00536
  37        4PX         0.02187   0.16402  -0.00144  -0.19212   0.06438
  38        4PY        -0.03681   0.29842   0.07550  -0.30717   0.01978
  39        4PZ        -0.00024   0.05967   0.21365  -0.00408  -0.31231
  40        5PX        -0.01281  -0.10983   0.01571   0.08590  -0.06081
  41        5PY         0.02693  -0.21010  -0.04752   0.21414  -0.01001
  42        5PZ        -0.00127  -0.03774  -0.16822  -0.01008   0.22890
  43        6D 0       -0.00073   0.00789   0.00214  -0.00892   0.00149
  44        6D+1        0.00007  -0.00246   0.00334   0.00411  -0.00073
  45        6D-1        0.00116  -0.00343  -0.01313   0.00025   0.01749
  46        6D+2       -0.00167   0.00929   0.00069  -0.00706   0.00162
  47        6D-2        0.00116  -0.00677  -0.00051   0.01145  -0.00357
  48 5   C  1S          0.00320   0.04846   0.00754  -0.02013  -0.00063
  49        2S         -0.00837  -0.12872  -0.02025   0.05503   0.00489
  50        3S         -0.03503  -0.05156   0.03502  -0.25389  -0.02780
  51        4PX        -0.01146  -0.00703   0.00650   0.08460  -0.03405
  52        4PY        -0.03609   0.07630   0.03487  -0.05142  -0.01685
  53        4PZ        -0.00473   0.00670  -0.13987  -0.04031   0.15408
  54        5PX         0.01520  -0.01407  -0.03453   0.24474  -0.03335
  55        5PY         0.02453  -0.03681  -0.03724   0.10910  -0.00072
  56        5PZ         0.00551  -0.00711  -0.09183   0.02406   0.11180
  57        6D 0        0.00006  -0.00251   0.00684   0.00265  -0.00137
  58        6D+1       -0.00046  -0.00090   0.00750   0.00356   0.00969
  59        6D-1       -0.00097   0.00481   0.02674   0.00274  -0.02548
  60        6D+2       -0.00170  -0.01554  -0.00236   0.01227  -0.00394
  61        6D-2       -0.00407   0.01878  -0.00032  -0.01667   0.00624
  62 6   O  1S          0.01104   0.01239   0.00180  -0.00659   0.00049
  63        2S          0.02289   0.02803   0.00263  -0.01230  -0.00016
  64        3S          0.01832   0.06504   0.03004  -0.08594   0.00959
  65        4PX        -0.02347  -0.02030  -0.05959  -0.03015   0.04119
  66        4PY         0.08289  -0.11873  -0.06465   0.09009   0.02104
  67        4PZ        -0.00096  -0.02558   0.28370   0.09101  -0.21834
  68        5PX        -0.01499  -0.02063  -0.05826  -0.01904   0.03578
  69        5PY         0.06078  -0.08542  -0.05438   0.08240   0.01530
  70        5PZ        -0.00079  -0.02070   0.22901   0.07858  -0.18190
  71        6D 0        0.00143  -0.00102  -0.00104   0.00107  -0.00005
  72        6D+1       -0.00057  -0.00042   0.00110   0.00055  -0.00129
  73        6D-1       -0.00046   0.00002  -0.00635  -0.00110   0.00309
  74        6D+2        0.00118  -0.00268  -0.00122   0.00048   0.00051
  75        6D-2       -0.00051  -0.00321   0.00029   0.00390  -0.00051
  76 7   C  1S         -0.00312   0.04845  -0.00760   0.02012  -0.00068
  77        2S          0.00814  -0.12870   0.02043  -0.05501   0.00500
  78        3S          0.03487  -0.05158  -0.03473   0.25387  -0.02858
  79        4PX        -0.01144   0.00701   0.00647   0.08467   0.03375
  80        4PY         0.03552   0.07629  -0.03437   0.05156  -0.01633
  81        4PZ        -0.00445  -0.00655  -0.13992  -0.04054  -0.15411
  82        5PX         0.01518   0.01409  -0.03465   0.24484   0.03224
  83        5PY        -0.02443  -0.03679   0.03757  -0.10915  -0.00032
  84        5PZ         0.00542   0.00690  -0.09163   0.02333  -0.11199
  85        6D 0       -0.00007  -0.00255  -0.00666  -0.00263  -0.00120
  86        6D+1        0.00043  -0.00097  -0.00752  -0.00359   0.00967
  87        6D-1       -0.00097  -0.00469   0.02677   0.00288   0.02552
  88        6D+2        0.00169  -0.01555   0.00249  -0.01226  -0.00379
  89        6D-2       -0.00403  -0.01878  -0.00024  -0.01667  -0.00621
  90 8   N  1S          0.00908   0.06747  -0.02080   0.07830  -0.00367
  91        2S          0.02271   0.13556  -0.04172   0.16610  -0.00757
  92        3S         -0.00883   0.19950  -0.04896   0.18000  -0.00629
  93        4PX         0.02170  -0.16415  -0.00099  -0.19233  -0.06345
  94        4PY         0.03612   0.29855  -0.07661   0.30718   0.01771
  95        4PZ        -0.00017  -0.05822   0.21329  -0.00192   0.31255
  96        5PX        -0.01268   0.10993   0.01542   0.08611   0.06029
  97        5PY        -0.02642  -0.21017   0.04831  -0.21411  -0.00861
  98        5PZ        -0.00131   0.03671  -0.16798  -0.01158  -0.22903
  99        6D 0        0.00072   0.00791  -0.00222   0.00893   0.00136
 100        6D+1       -0.00006  -0.00243  -0.00334  -0.00407  -0.00070
 101        6D-1        0.00114   0.00332  -0.01311   0.00011  -0.01751
 102        6D+2        0.00164   0.00930  -0.00075   0.00705   0.00154
 103        6D-2        0.00114   0.00679  -0.00052   0.01148   0.00352
 104 9   C  1S          0.00106   0.02138  -0.01021   0.02373  -0.00443
 105        2S         -0.00679  -0.04718   0.02719  -0.05817   0.01880
 106        3S          0.03699  -0.07974   0.04467  -0.10210  -0.02503
 107        4PX        -0.01279  -0.09414  -0.00380  -0.11989  -0.02014
 108        4PY        -0.08221   0.08403  -0.01150   0.07555   0.00727
 109        4PZ         0.02596  -0.02725   0.11139  -0.00619   0.10639
 110        5PX        -0.00184  -0.04304  -0.00351  -0.05378   0.03340
 111        5PY        -0.01874  -0.01047   0.02356  -0.02284   0.00729
 112        5PZ         0.02019  -0.01374   0.05229  -0.01008   0.00765
 113        6D 0        0.00236  -0.00075  -0.00420  -0.00175  -0.00750
 114        6D+1       -0.00152  -0.00161  -0.00880  -0.00497  -0.01538
 115        6D-1        0.00295  -0.00362  -0.00620  -0.00524  -0.00641
 116        6D+2        0.00734  -0.01152   0.00565  -0.01068   0.00449
 117        6D-2       -0.00144  -0.01213   0.00476  -0.01232   0.00017
 118 10  H  1S          0.01744  -0.03432  -0.09905  -0.05764  -0.12826
 119        2S          0.01090  -0.00102  -0.05558  -0.01885  -0.09015
 120        3PX        -0.00053  -0.00074   0.00011  -0.00135  -0.00002
 121        3PY        -0.00166   0.00186  -0.00281   0.00121  -0.00340
 122        3PZ         0.00137  -0.00204  -0.00143  -0.00242  -0.00211
 123 11  C  1S          0.00477  -0.02454   0.00604  -0.02716  -0.00202
 124        2S         -0.01115   0.06147  -0.01212   0.06247   0.00509
 125        3S         -0.04518   0.10728  -0.06058   0.16131   0.01404
 126        4PX         0.00191   0.01975   0.00704   0.03915   0.00755
 127        4PY         0.09233  -0.13106   0.02248  -0.12079  -0.00749
 128        4PZ        -0.01345   0.00849  -0.09229  -0.00863  -0.05366
 129        5PX         0.00047  -0.00614  -0.00526   0.01558  -0.00787
 130        5PY         0.05272  -0.10619   0.03562  -0.12141  -0.00210
 131        5PZ        -0.00160   0.00467  -0.02661   0.01036  -0.00347
 132        6D 0        0.00161  -0.00205   0.00490  -0.00156   0.00265
 133        6D+1        0.00064   0.00129   0.01240   0.00439   0.00821
 134        6D-1       -0.00091   0.00054  -0.00292   0.00046  -0.00260
 135        6D+2        0.00438   0.00124  -0.00341   0.00060  -0.00200
 136        6D-2        0.00031   0.00223   0.00073   0.00480   0.00090
 137 12  O  1S         -0.01088   0.01239  -0.00183   0.00658   0.00045
 138        2S         -0.02258   0.02803  -0.00269   0.01229  -0.00022
 139        3S         -0.01796   0.06503  -0.03021   0.08596   0.00924
 140        4PX        -0.02303   0.02028  -0.05955  -0.03022  -0.04105
 141        4PY        -0.08161  -0.11876   0.06358  -0.09039   0.02044
 142        4PZ        -0.00117   0.02539   0.28382   0.09131   0.21833
 143        5PX        -0.01466   0.02061  -0.05820  -0.01909  -0.03559
 144        5PY        -0.05985  -0.08545   0.05353  -0.08267   0.01485
 145        5PZ        -0.00092   0.02055   0.22914   0.07876   0.18190
 146        6D 0       -0.00141  -0.00102   0.00100  -0.00107  -0.00006
 147        6D+1        0.00056  -0.00041  -0.00110  -0.00054  -0.00129
 148        6D-1       -0.00044  -0.00001  -0.00636  -0.00110  -0.00309
 149        6D+2       -0.00116  -0.00268   0.00119  -0.00049   0.00050
 150        6D-2       -0.00051   0.00322   0.00029   0.00391   0.00050
 151 13  C  1S         -0.01164   0.00739  -0.01802   0.00293  -0.02152
 152        2S          0.03129  -0.01522   0.04532  -0.00351   0.04922
 153        3S          0.01662  -0.08214   0.05253  -0.07220   0.14270
 154        4PX        -0.08226  -0.01267   0.07738   0.00702   0.08304
 155        4PY         0.13904  -0.01825   0.04461   0.00328   0.04608
 156        4PZ        -0.02504   0.01802  -0.06734   0.00019  -0.06567
 157        5PX        -0.03865   0.02946   0.03829   0.04229   0.03806
 158        5PY         0.05147   0.01678   0.00713   0.02658   0.04570
 159        5PZ        -0.01686   0.02843  -0.03591   0.02139  -0.05296
 160        6D 0        0.00502  -0.00062  -0.00088  -0.00019  -0.00097
 161        6D+1       -0.00063   0.00185  -0.00340   0.00102  -0.00331
 162        6D-1        0.00329  -0.00155  -0.00236  -0.00238  -0.00306
 163        6D+2        0.00745  -0.00287  -0.00003  -0.00316  -0.00147
 164        6D-2        0.00889  -0.00089   0.00221  -0.00042   0.00240
 165 14  C  1S         -0.00905   0.00149   0.00124   0.00223   0.00356
 166        2S          0.02850  -0.00902  -0.00265  -0.01127  -0.00753
 167        3S          0.00960   0.07691   0.00220   0.08107  -0.03440
 168        4PX         0.07747  -0.00360  -0.03993  -0.01539  -0.04462
 169        4PY        -0.19496  -0.00339  -0.00260  -0.00532  -0.00648
 170        4PZ         0.02133  -0.00274   0.01366   0.00102   0.00646
 171        5PX         0.03086   0.02278  -0.02529   0.01941  -0.03670
 172        5PY        -0.06747  -0.01515   0.00348  -0.01101  -0.00383
 173        5PZ         0.01788  -0.00539   0.00441  -0.00777  -0.01609
 174        6D 0        0.00742   0.00013   0.00025   0.00019   0.00049
 175        6D+1       -0.00037   0.00022  -0.00371  -0.00075  -0.00363
 176        6D-1        0.00342  -0.00012  -0.00097  -0.00030  -0.00062
 177        6D+2        0.01116   0.00020  -0.00030   0.00018  -0.00042
 178        6D-2        0.00907  -0.00046   0.00140   0.00038   0.00132
 179 15  C  1S         -0.01164  -0.00065  -0.00107  -0.00103  -0.00294
 180        2S          0.02814   0.00240   0.00321   0.00366   0.00864
 181        3S          0.04435  -0.02084  -0.00080  -0.02296  -0.00513
 182        4PX        -0.01858   0.00342   0.01746   0.00666   0.01900
 183        4PY         0.10764   0.00179   0.00110   0.00148   0.00527
 184        4PZ         0.03093   0.00189  -0.01833  -0.00138  -0.01503
 185        5PX        -0.00085  -0.00728   0.00333  -0.00779   0.00117
 186        5PY         0.04426  -0.00170  -0.00012  -0.00346  -0.00059
 187        5PZ         0.02244  -0.00993  -0.01319  -0.01199  -0.01777
 188        6D 0        0.00691  -0.00008   0.00109   0.00025   0.00133
 189        6D+1        0.00187  -0.00027  -0.00137  -0.00069  -0.00144
 190        6D-1       -0.00228  -0.00011  -0.00060  -0.00029  -0.00060
 191        6D+2        0.00653  -0.00013  -0.00088  -0.00031  -0.00101
 192        6D-2        0.00453  -0.00008  -0.00040  -0.00021  -0.00051
 193 16  C  1S         -0.01085   0.00044  -0.00781  -0.00198  -0.00804
 194        2S          0.02633  -0.00194   0.01844   0.00359   0.01746
 195        3S          0.02860  -0.00717   0.01914   0.00389   0.03941
 196        4PX        -0.01170  -0.00255   0.03226   0.00723   0.02820
 197        4PY         0.10138   0.00395   0.01061   0.00621   0.01179
 198        4PZ        -0.04156   0.00046  -0.01979  -0.00595  -0.01812
 199        5PX        -0.00189  -0.00303   0.01684   0.00286   0.02244
 200        5PY         0.03512   0.00206   0.00805   0.00405   0.01196
 201        5PZ        -0.02233   0.00426  -0.01202  -0.00190  -0.01589
 202        6D 0        0.00399   0.00009   0.00127   0.00052   0.00146
 203        6D+1       -0.00271   0.00025  -0.00072   0.00002  -0.00069
 204        6D-1        0.00476   0.00006  -0.00090  -0.00019  -0.00087
 205        6D+2        0.00862   0.00006  -0.00180  -0.00046  -0.00182
 206        6D-2        0.00194  -0.00012   0.00004  -0.00011  -0.00001
 207 17  C  1S          0.01181   0.00743   0.01801  -0.00301  -0.02148
 208        2S         -0.03177  -0.01530  -0.04530   0.00368   0.04914
 209        3S         -0.01687  -0.08239  -0.05229   0.07281   0.14225
 210        4PX        -0.08337   0.01287   0.07747   0.00670  -0.08304
 211        4PY        -0.14129  -0.01835  -0.04438  -0.00305   0.04586
 212        4PZ        -0.02577  -0.01824  -0.06722   0.00050   0.06548
 213        5PX        -0.03911  -0.02931   0.03841   0.04215  -0.03826
 214        5PY        -0.05229   0.01670  -0.00705  -0.02639   0.04562
 215        5PZ        -0.01726  -0.02859  -0.03567   0.02170   0.05270
 216        6D 0       -0.00509  -0.00061   0.00089   0.00017  -0.00098
 217        6D+1        0.00065   0.00186   0.00339  -0.00103  -0.00331
 218        6D-1        0.00339   0.00155  -0.00237  -0.00237   0.00306
 219        6D+2       -0.00756  -0.00288   0.00003   0.00315  -0.00146
 220        6D-2        0.00903   0.00089   0.00221  -0.00043  -0.00240
 221 18  C  1S          0.00919   0.00149  -0.00124  -0.00222   0.00356
 222        2S         -0.02896  -0.00904   0.00267   0.01127  -0.00756
 223        3S         -0.00977   0.07696  -0.00241  -0.08130  -0.03402
 224        4PX         0.07849   0.00353  -0.03993  -0.01523   0.04459
 225        4PY         0.19816  -0.00335   0.00259   0.00528  -0.00649
 226        4PZ         0.02207   0.00281   0.01359   0.00096  -0.00639
 227        5PX         0.03125  -0.02284  -0.02520   0.01959   0.03648
 228        5PY         0.06859  -0.01514  -0.00345   0.01101  -0.00388
 229        5PZ         0.01835   0.00536   0.00434  -0.00768   0.01618
 230        6D 0       -0.00754   0.00013  -0.00024  -0.00018   0.00048
 231        6D+1        0.00040   0.00023   0.00372   0.00073  -0.00363
 232        6D-1        0.00352   0.00011  -0.00097  -0.00030   0.00062
 233        6D+2       -0.01134   0.00020   0.00029  -0.00018  -0.00042
 234        6D-2        0.00921   0.00047   0.00139   0.00037  -0.00132
 235 19  C  1S          0.01183  -0.00065   0.00108   0.00102  -0.00295
 236        2S         -0.02861   0.00239  -0.00323  -0.00363   0.00866
 237        3S         -0.04511  -0.02086   0.00090   0.02299  -0.00524
 238        4PX        -0.01886  -0.00336   0.01752   0.00658  -0.01904
 239        4PY        -0.10946   0.00176  -0.00106  -0.00144   0.00524
 240        4PZ         0.03128  -0.00197  -0.01831  -0.00130   0.01500
 241        5PX        -0.00086   0.00728   0.00331  -0.00779  -0.00114
 242        5PY        -0.04502  -0.00172   0.00017   0.00349  -0.00064
 243        5PZ         0.02275   0.00988  -0.01321  -0.01192   0.01779
 244        6D 0       -0.00703  -0.00009  -0.00109  -0.00024   0.00133
 245        6D+1       -0.00188  -0.00026   0.00137   0.00069  -0.00144
 246        6D-1       -0.00229   0.00011  -0.00060  -0.00028   0.00060
 247        6D+2       -0.00663  -0.00013   0.00088   0.00031  -0.00100
 248        6D-2        0.00461   0.00008  -0.00040  -0.00021   0.00051
 249 20  C  1S          0.01103   0.00047   0.00781   0.00194  -0.00803
 250        2S         -0.02679  -0.00200  -0.01844  -0.00351   0.01745
 251        3S         -0.02906  -0.00725  -0.01910  -0.00371   0.03936
 252        4PX        -0.01169   0.00264   0.03227   0.00711  -0.02820
 253        4PY        -0.10302   0.00391  -0.01059  -0.00615   0.01178
 254        4PZ        -0.04242  -0.00053  -0.01974  -0.00586   0.01808
 255        5PX        -0.00183   0.00310   0.01684   0.00276  -0.02244
 256        5PY        -0.03569   0.00204  -0.00804  -0.00401   0.01193
 257        5PZ        -0.02276  -0.00430  -0.01199  -0.00183   0.01586
 258        6D 0       -0.00404   0.00009  -0.00127  -0.00052   0.00146
 259        6D+1        0.00276   0.00025   0.00072  -0.00002  -0.00070
 260        6D-1        0.00485  -0.00006  -0.00090  -0.00018   0.00087
 261        6D+2       -0.00876   0.00006   0.00179   0.00045  -0.00181
 262        6D-2        0.00195   0.00012   0.00004  -0.00011   0.00001
 263 21  H  1S         -0.01605  -0.03167   0.09716   0.06131  -0.07065
 264        2S         -0.00389  -0.03246   0.05520   0.05787  -0.05539
 265        3PX         0.00120   0.00045  -0.00044  -0.00040   0.00016
 266        3PY        -0.00162  -0.00252  -0.00335   0.00131   0.00177
 267        3PZ        -0.00128  -0.00200   0.00062   0.00198  -0.00056
 268 22  H  1S         -0.03851  -0.02913  -0.10879   0.01064   0.06804
 269        2S         -0.02349  -0.02977  -0.07142   0.02163   0.04273
 270        3PX         0.00062  -0.00017   0.00045   0.00034  -0.00022
 271        3PY        -0.00121  -0.00290   0.00212   0.00307  -0.00151
 272        3PZ         0.00207   0.00178   0.00191  -0.00120  -0.00095
 273 23  H  1S          0.01584  -0.03190  -0.09692  -0.06162  -0.07041
 274        2S          0.00382  -0.03265  -0.05498  -0.05811  -0.05511
 275        3PX         0.00118  -0.00045  -0.00044  -0.00041  -0.00016
 276        3PY         0.00160  -0.00252   0.00335  -0.00131   0.00178
 277        3PZ        -0.00126   0.00199   0.00062   0.00198   0.00056
 278 24  H  1S          0.03795  -0.02889   0.10891  -0.01026   0.06824
 279        2S          0.02315  -0.02960   0.07153  -0.02137   0.04295
 280        3PX         0.00060   0.00018   0.00045   0.00034   0.00022
 281        3PY         0.00119  -0.00289  -0.00212  -0.00307  -0.00150
 282        3PZ         0.00204  -0.00178   0.00191  -0.00120   0.00096
 283 25  H  1S         -0.16041   0.02168  -0.01092   0.01225  -0.00153
 284        2S         -0.09540   0.05594  -0.03010   0.05185  -0.01251
 285        3PX         0.00167  -0.00033   0.00128   0.00051   0.00118
 286        3PY        -0.00432   0.00052   0.00015   0.00034   0.00090
 287        3PZ         0.00045  -0.00003  -0.00187  -0.00048  -0.00167
 288 26  H  1S          0.05042  -0.00622  -0.01945  -0.00660  -0.01733
 289        2S          0.03275  -0.00200  -0.03520  -0.01085  -0.05427
 290        3PX        -0.00278  -0.00095   0.00068  -0.00081   0.00049
 291        3PY         0.00359  -0.00106   0.00148  -0.00053   0.00062
 292        3PZ        -0.00289   0.00100  -0.00114   0.00059  -0.00090
 293 27  H  1S         -0.21700  -0.00214   0.00011  -0.00503  -0.00341
 294        2S         -0.13260  -0.00182  -0.01233  -0.00979  -0.00834
 295        3PX        -0.00203  -0.00033  -0.00116  -0.00076  -0.00133
 296        3PY         0.00635   0.00013  -0.00046   0.00010  -0.00025
[...]
 -0.00001432,0.00000943,0.00000293,0.00000147,0.00000879,0.00000160,0.0
 0000775,0.00103334,0.00046449,0.00025599,0.01134494,0.01487499,-0.0180
 5725,0.08239332,0.10377369,-0.21503498,-0.00247803,-0.00431354,-0.0041
 9108,-0.00004659,0.00011161,0.00002486,-0.00011210,-0.00016540,0.00002
 886,0.00000936,0.00000254,-0.00000242,0.00001036,0.00000281,0.00000626
 ,-0.00000478,0.00000060,-0.00000154,-0.00000328,-0.00000165,0.00000211
 ,0.00000018,-0.00000030,0.00000160,-0.00000302,-0.00000045,-0.00000094
 ,-0.00000371,-0.00000030,-0.00000564,0.00000749,-0.00000280,0.00000053
 ,-0.00000223,-0.00000101,-0.00000120,0.00000797,-0.00000191,-0.0000017
 5,-0.00000283,-0.00000022,0.00000119,0.00001570,-0.00007769,0.00000502
 ,-0.00004869,-0.00015313,0.00008166,0.00021414,-0.00016989,0.00111129,
 -0.00014492,-0.00114013,-0.00015454,-0.09020324,-0.11068984,0.23209823
 ,-0.00001734,0.00010654,-0.00007196,0.00032803,0.00034839,0.00009506,0
 .00010714,-0.00008781,-0.00035231,-0.00031156,-0.00026361,-0.00000111,
 0.00000522,0.00034350,-0.00005806,0.00003349,-0.00027741,0.00002699,0.
 00020541,0.00007920,0.00004897,-0.00013940,0.00001313,0.00000345,0.000
 04296,0.00000322,-0.00000348,-0.00001823,-0.00000517,-0.00000938,0.000
 04722,-0.00000605,0.00000682,-0.00013359,-0.00003280,-0.00002492,-0.00
 001098,-0.00001443,-0.00002060,0.00001333,0.00000600,0.00001365,-0.000
 00923,-0.00000215,-0.00000172,-0.00000914,-0.00000154,-0.00000851,0.00
 119115,-0.00128895,-0.00089813,-0.00511369,0.00050622,0.00033198,-0.31
 580845,-0.01886835,-0.03762614,0.00084652,0.00040606,0.00136915,0.0000
 1263,-0.00001891,-0.00001709,0.00000783,0.00000504,0.00004115,-0.00001
 161,-0.00000327,0.00000458,-0.00000767,-0.00000182,-0.00000628,0.00000
 585,-0.00000122,0.00000021,0.00000244,0.00000014,-0.00000002,-0.000000
 65,-0.00000048,-0.00000141,0.00000393,-0.00000122,-0.00000009,0.000004
 30,0.00000192,0.00000748,-0.00000881,0.00000242,-0.00000033,0.00000258
 ,0.00000117,0.00000071,-0.00000924,0.00000222,0.00000164,0.00000322,-0
 .00000056,0.00000021,0.00025729,-0.00003461,0.00019037,-0.00040261,-0.
 00011435,-0.00006301,0.00025029,-0.00040152,-0.00019168,-0.00914497,-0
 .00281279,-0.00089465,-0.00985933,0.00026496,-0.00246355,0.33693010,-0
 .00002307,0.00013238,-0.00000792,0.00008311,0.00019042,-0.00021536,0.0
 0014396,-0.00019136,-0.00004372,-0.00011100,-0.00013882,0.00001342,-0.
 00006374,0.00016355,-0.00002975,0.00006838,-0.00010514,0.00001009,0.00
 009462,0.00001747,0.00002407,-0.00006023,0.00001521,0.00000554,0.00001
 527,0.00000399,-0.00000378,-0.00000927,-0.00000320,-0.00000403,0.00001
 570,-0.00000124,0.00000159,-0.00004785,-0.00000419,-0.00000694,-0.0000
 0571,-0.00000909,-0.00000967,0.00000361,0.00000374,0.00000589,-0.00000
 297,-0.00000162,-0.00000092,-0.00000347,-0.00000110,-0.00000316,0.0003
 6530,-0.00137351,-0.00234934,-0.01626858,-0.00160459,-0.00165360,-0.01
 862400,-0.04722698,-0.00264382,0.00004379,0.00042573,0.00097950,0.0000
 1438,0.00001441,-0.00003882,0.00001049,0.00002563,0.00002717,-0.000004
 47,-0.00000115,0.00000152,-0.00000282,-0.00000007,-0.00000186,0.000000
 85,0.00000105,-0.00000041,0.00000073,-0.00000064,0.00000066,0.00000065
 ,0.00000025,-0.00000030,0.00000092,0.00000004,-0.00000016,0.00000121,0
 .00000082,0.00000279,-0.00000241,0.00000107,0.00000006,0.00000036,0.00
 000091,0.00000010,-0.00000257,0.00000107,0.00000096,0.00000072,-0.0000
 0045,0.00000029,-0.00029082,0.00023148,-0.00019364,-0.00082054,0.00035
 703,-0.00028066,-0.00020917,0.00011039,0.00056331,0.02835085,0.0041319
 1,0.00353618,-0.01522631,-0.00168396,-0.00303755,0.02206205,0.04647468
 ,-0.00004199,-0.00002809,0.00007955,0.00073077,0.00001712,-0.00091592,
 -0.00018464,0.00022660,0.00056885,-0.00008969,0.00009557,0.00044932,0.
 00009489,0.00000110,0.00002449,-0.00000264,-0.00001469,0.00003117,0.00
 000832,-0.00000151,-0.00006373,-0.00000100,-0.00000201,0.00001558,0.00
 000200,-0.00000208,-0.00000070,0.00000296,-0.00000007,0.00000069,0.000
 00276,-0.00000162,0.00000171,-0.00000493,0.00000207,0.00000182,0.00000
 036,-0.00000038,-0.00000103,-0.00000008,0.00000026,0.00000069,0.000000
 13,-0.00000021,-0.00000032,-0.00000018,-0.00000023,-0.00000031,0.00027
 307,-0.00340294,-0.00533466,-0.02790039,-0.00014077,-0.00458015,-0.035
 83941,-0.00249467,-0.04911118,-0.00179385,0.00014815,0.00139160,-0.000
 01118,0.00011160,-0.00000463,-0.00002977,-0.00006961,0.00001020,-0.000
 00106,-0.00000026,0.00000047,0.00000096,0.00000039,0.00000017,-0.00000
 018,0.00000066,-0.00000053,-0.00000079,-0.00000076,0.00000066,0.000000
 37,0.00000026,0.00000009,0.00000024,-0.00000011,-0.00000016,0.00000027
 ,0.00000029,0.00000054,-0.00000034,-0.00000006,0.00000022,-0.00000005,
 0.00000033,-0.00000007,-0.00000017,0.00000012,0.00000022,-0.00000014,-
 0.00000019,0.00000019,0.00033100,0.00001605,0.00006267,-0.00185593,-0.
 00026576,-0.00031715,0.00047238,0.00003431,0.00076541,-0.00066090,-0.0
 0018166,-0.00153020,0.02432402,0.00066258,0.00381081,0.04112198,0.0052
 8303,0.05467026,0.00006215,-0.00002112,-0.00011873,0.00003143,0.000045
 11,0.00004551,0.00003691,0.00000119,-0.00004141,0.00007166,0.00012834,
 -0.00007441,0.00001622,-0.00015032,0.00002841,-0.00011744,0.00012755,0
 .00000511,-0.00005044,-0.00002377,-0.00001004,0.00003180,0.00000147,-0
 .00000807,-0.00001304,-0.00000044,0.00000307,0.00000203,0.00000112,0.0
 0000150,-0.00001116,0.00000159,-0.00000115,0.00003165,0.00001434,0.000
 00638,0.00000159,0.00000276,0.00000424,-0.00000346,-0.00000125,-0.0000
 0294,0.00000221,0.00000031,0.00000057,0.00000217,0.00000056,0.00000206
 ,0.00158890,-0.00149916,-0.00008756,0.00362082,-0.01684958,0.00192789,
 0.00035389,-0.00005520,-0.00074437,-0.06610313,0.07157239,-0.00917867,
 -0.00001143,0.00006146,0.00004840,0.00000761,0.00004701,-0.00001230,0.
 00000275,0.00000118,-0.00000157,0.00000112,0.00000018,0.00000145,-0.00
 000170,0.00000046,0.00000055,-0.00000011,0.00000035,-0.00000051,0.0000
 0031,0.00000016,0.00000022,-0.00000136,0.00000073,0.00000030,-0.000001
 27,-0.00000093,-0.00000223,0.00000257,-0.00000036,-0.00000005,-0.00000
 078,-0.00000041,-0.00000005,0.00000250,-0.00000053,-0.00000038,-0.0000
 0078,0.00000026,-0.00000026,-0.00017766,0.00049921,0.00015251,-0.00003
 454,0.00002455,-0.00005599,-0.00113994,-0.00179748,0.00277463,0.000135
 88,0.00035695,-0.00007737,-0.00012371,-0.00008655,-0.00018573,-0.00010
 543,0.00021794,0.00001355,0.06736863,0.00026114,0.00001721,-0.00016357
 ,-0.00011192,0.00039861,-0.00005550,0.00002581,-0.00000449,-0.00002164
 ,-0.00008787,0.00001447,0.00005536,0.00003658,-0.00013967,0.00003283,-
 0.00016052,0.00013965,-0.00001132,0.00004780,-0.00002232,-0.00000996,-
 0.00003596,0.00002756,-0.00000876,0.00000553,-0.00000367,0.00000467,-0
 .00000825,-0.00000102,-0.00000442,0.00001247,-0.00000391,0.00000391,-0
 .00002629,0.00002378,-0.00000137,-0.00000446,-0.00000659,-0.00000576,0
 .00000234,0.00000132,0.00000462,-0.00000254,-0.00000222,-0.00000072,-0
 .00000243,-0.00000090,-0.00000193,0.00124540,0.00058877,-0.00058123,0.
 00362469,-0.01378326,0.00149180,-0.00002788,0.00104131,-0.00105406,0.0
 7076634,-0.29394890,0.03026814,0.00003172,0.00007812,0.00006594,-0.000
 00736,0.00004079,-0.00003153,-0.00000175,-0.00000021,-0.00000050,-0.00
 000200,-0.00000126,-0.00000055,0.00000020,0.00000158,0.00000148,0.0000
 0095,0.00000092,-0.00000171,0.00000098,0.00000172,-0.00000054,0.000000
 43,0.00000179,0.00000111,0.00000036,-0.00000093,0.00000101,-0.00000117
 ,0.00000091,-0.00000033,0.00000041,0.00000096,0.00000061,-0.00000140,0
 .00000035,0.00000075,0.00000037,0.00000022,-0.00000108,-0.00093139,0.0
 0022791,0.00005330,0.00001236,-0.00005977,0.00003880,-0.00192915,0.000
 13740,0.00235506,0.00007418,0.00041747,0.00073573,-0.00013680,0.000271
 14,-0.00004111,-0.00001436,-0.00002449,0.00010527,-0.07528972,0.315940
 11,-0.00013384,-0.00000819,0.00010514,-0.00013310,-0.00010647,-0.00007
 361,0.00000295,0.00001630,-0.00002521,0.00001961,-0.00006855,-0.000019
 32,-0.00002945,0.00008757,-0.00001456,0.00012258,-0.00007400,-0.000005
 60,-0.00001479,-0.00001042,0.00000476,0.00001345,-0.00000213,-0.000005
 95,-0.00000242,-0.00000083,0.00000206,-0.00000005,0.00000044,0.,-0.000
 00521,0.00000043,-0.00000036,0.00001219,0.00000026,0.00000239,0.000001
 07,0.00000240,0.00000222,-0.00000079,-0.00000129,-0.00000101,0.0000004
 5,0.00000039,0.00000013,0.00000085,0.00000073,0.00000073,-0.00144572,-
 0.00021772,0.00049785,-0.00687777,0.02481888,-0.00402723,-0.00082377,0
 .00105736,0.00166016,-0.00899203,0.02951771,-0.04924318,-0.00000753,-0
 .00007630,-0.00007940,-0.00001356,-0.00002376,0.00003381,0.00000141,0.
 00000068,-0.00000075,0.00000060,-0.00000056,0.00000050,-0.00000009,-0.
 00000064,0.00000089,0.00000017,0.00000088,-0.00000083,-0.00000035,-0.0
 0000008,-0.00000028,-0.00000042,0.00000043,0.00000066,-0.00000035,-0.0
 0000095,-0.00000120,0.00000071,-0.00000010,-0.00000007,-0.00000005,-0.
 00000061,0.00000031,0.00000071,-0.00000042,-0.00000027,-0.00000012,0.0
 0000049,-0.00000051,0.00044348,-0.00039103,0.00032237,0.00011778,-0.00
 016222,-0.00001616,0.00295951,0.00234950,-0.00354808,0.00035319,-0.000
 58442,-0.00025034,0.00006141,-0.00034972,0.00029308,-0.00009316,-0.000
 01598,-0.00007577,0.00717499,-0.03619424,0.05199684,-0.00007565,0.0001
 3771,0.00006060,-0.00040317,0.00041445,-0.00099808,-0.00006759,0.00000
 477,0.00012250,-0.00045223,-0.00039515,0.00039835,-0.00006866,0.000379
 36,-0.00008401,0.00005494,-0.00030373,0.00007209,0.00024499,0.00005591
 ,0.00000531,-0.00015495,0.00002118,0.00001462,0.00004700,0.00000319,-0
 .00000575,-0.00001930,-0.00000546,-0.00001000,0.00005014,-0.00000883,0
 .00001036,-0.00015321,-0.00003102,-0.00002869,-0.00001182,-0.00001625,
 -0.00002241,0.00001349,0.00000688,0.00001486,-0.00000949,-0.00000243,-
 0.00000195,-0.00000958,-0.00000178,-0.00000896,-0.00066943,-0.00236532
 ,0.00399101,-0.01458151,0.00143738,-0.00457744,0.00054841,0.00012822,-
 0.00134812,-0.31155529,0.00966061,-0.05010258,0.00001565,0.00002248,-0
 .00003905,0.00001041,-0.00005829,0.00003574,-0.00001336,-0.00000325,0.
 00000454,-0.00000850,-0.00000167,-0.00000671,0.00000560,-0.00000061,-0
 .00000019,0.00000218,-0.00000035,0.00000026,-0.00000023,-0.00000037,-0
 .00000135,0.00000407,-0.00000126,-0.00000024,0.00000463,0.00000213,0.0
 0000796,-0.00000923,0.00000258,-0.00000016,0.00000250,0.00000140,0.000
 00071,-0.00000956,0.00000243,0.00000188,0.00000319,-0.00000064,0.00000
 026,0.00039002,0.00001004,-0.00002654,0.00031050,0.00006008,-0.0000081
 0,0.00063756,-0.00034411,-0.00005146,0.00000808,-0.00004185,-0.0000369
 7,0.00043938,-0.00006248,0.00000498,0.00048315,0.00029110,0.00081583,-
 0.00617871,-0.00142462,-0.00093348,0.33462408,-0.00000110,0.00008465,-
 0.00005342,-0.00073091,0.00075104,-0.00021171,-0.00001666,-0.00000254,
 0.00003947,-0.00025178,-0.00025135,0.00026552,-0.00012947,0.00018786,-
 0.00006977,0.00011204,-0.00011092,0.00003676,0.00010268,-0.00000387,-0
 .00001144,-0.00005503,0.00001618,0.00000226,0.00001487,0.00000161,-0.0
 0000157,-0.00000936,-0.00000236,-0.00000443,0.00001311,-0.00000384,0.0
 0000507,-0.00005458,-0.00000763,-0.00000845,-0.00000499,-0.00000644,-0
 .00000785,0.00000363,0.00000256,0.00000522,-0.00000302,-0.00000130,-0.
 00000063,-0.00000303,-0.00000050,-0.00000276,-0.00106776,-0.00110192,0
 .00245126,-0.01411618,-0.00076121,-0.00328140,0.00056352,-0.00000375,-
 0.00056216,0.01028496,-0.04597474,0.00163129,0.00001438,-0.00000302,-0
 .00003391,-0.00000188,0.00000081,0.00001494,-0.00000465,-0.00000035,0.
 00000067,-0.00000329,-0.00000072,-0.00000208,0.00000132,0.00000008,0.0
 0000060,0.00000111,0.00000038,-0.00000040,0.00000017,0.00000010,-0.000
 00059,0.00000076,0.00000028,0.00000037,0.00000115,0.00000008,0.0000019
 0,-0.00000222,0.00000107,-0.00000011,0.00000053,0.00000035,0.00000042,
 -0.00000243,0.00000075,0.00000071,0.00000084,0.00000004,-0.00000024,-0
 .00036198,0.00030641,0.00005420,0.00032938,-0.00002149,0.00026303,-0.0
 0017435,0.00033152,-0.00067556,0.00011933,-0.00000659,0.00004748,-0.00
 003150,-0.00018250,-0.00008210,0.00015452,0.00031116,-0.00009634,0.029
 31390,0.00085790,0.00559119,-0.00839579,0.04542696,0.00007481,-0.00009
 753,-0.00002821,0.00126017,-0.00002812,0.00095074,-0.00009015,-0.00010
 298,0.00008487,0.00035713,0.00033576,-0.00038729,0.00017529,-0.0001746
 5,0.00007398,-0.00007436,0.00014195,-0.00004578,-0.00011237,0.00002700
 ,0.00002539,0.00005988,-0.00002375,-0.00000161,-0.00001470,-0.00000014
 ,0.00000109,0.00001146,0.00000161,0.00000466,-0.00001076,0.00000540,-0
 .00000699,0.00006033,0.00000257,0.00001008,0.00000572,0.00000653,0.000
 00873,-0.00000300,-0.00000220,-0.00000537,0.00000296,0.00000129,0.0000
 0039,0.00000309,0.00000059,0.00000280,0.00167332,0.00194756,-0.0042133
 1,0.02478924,-0.00227877,0.00401252,0.00136894,0.00013041,0.00160995,-
 0.05202960,0.00160048,-0.05548289,-0.00003070,0.00001489,0.00001599,-0
 .00001118,0.00003390,-0.00000847,0.00000492,0.00000037,0.00000050,0.00
 000438,0.00000139,0.00000160,-0.00000117,-0.00000067,-0.00000041,-0.00
 000119,0.00000015,0.00000067,-0.00000045,-0.00000070,0.00000045,-0.000
 00061,-0.00000073,-0.00000047,-0.00000071,0.00000024,-0.00000173,0.000
 00162,-0.00000096,0.00000022,-0.00000037,-0.00000075,-0.00000027,0.000
 00186,-0.00000070,-0.00000093,-0.00000053,0.00000024,0.00000032,-0.000
 13689,-0.00008102,-0.00016621,0.00011765,0.00032266,0.00019911,-0.0006
 1823,-0.00031105,0.00091555,-0.00007886,-0.00000938,-0.00007071,-0.000
 23391,0.00007741,0.00027669,-0.00055735,-0.00008696,-0.00035486,-0.002
 74375,-0.00051569,-0.00186379,0.05219736,-0.00363571,0.05808437,0.0000
 3208,-0.00001962,-0.00000663,0.00011894,-0.00006492,-0.00014994,0.0001
 0876,0.00005040,-0.00003757,0.00005387,0.00007995,-0.00010710,0.000001
 03,-0.00012158,0.00003556,-0.00004546,0.00008694,-0.00002300,-0.000072
 52,-0.00002481,0.00000073,0.00004424,-0.00000149,-0.00001058,-0.000015
 43,-0.00000176,0.00000318,0.00000313,0.00000198,0.00000225,-0.00001703
 ,0.00000207,-0.00000190,0.00004605,0.00001444,0.00000713,0.00000285,0.
 00000463,0.00000651,-0.00000429,-0.00000236,-0.00000435,0.00000272,0.0
 0000057,0.00000077,0.00000287,0.00000057,0.00000278,0.00101413,0.00090
 583,0.00134738,0.00166199,0.00968707,0.01352048,-0.00171314,-0.0017326
 4,0.00197770,-0.05540966,-0.02539761,-0.04374969,0.00000544,-0.0000196
 2,0.00002416,0.00000746,0.00002398,-0.00001957,0.00000440,0.00000119,-
 0.00000233,0.00000174,-0.00000026,0.00000221,-0.00000171,0.00000031,0.
 00000050,-0.00000021,0.00000043,-0.00000080,0.00000015,0.00000048,0.00
 000033,-0.00000143,0.00000092,0.00000042,-0.00000174,-0.00000116,-0.00
 000283,0.00000322,-0.00000072,-0.00000015,-0.00000078,-0.00000037,-0.0
 0000012,0.00000319,-0.00000084,-0.00000054,-0.00000103,0.00000030,-0.0
 0000042,-0.00004759,0.00002870,-0.00004188,-0.00030478,-0.00041759,-0.
 00023197,0.00042904,0.00004435,-0.00068594,-0.00002167,-0.00013451,-0.
 00022258,0.00046011,0.00024576,0.00096347,0.00033784,-0.00000697,0.000
 22348,0.00070128,0.00405777,0.00822094,-0.00344850,-0.01561021,-0.0254
 1929,0.05606041,-0.00005454,0.00000930,0.00003713,0.00021728,0.0000099
 6,0.00016029,-0.00000773,-0.00001640,0.00007295,0.00003465,0.00001121,
 -0.00003815,-0.00001910,0.00004730,-0.00001019,0.00007459,-0.00002963,
 -0.00000743,-0.00002766,0.00000777,0.00000264,0.00001725,-0.00001034,0
 .00001022,-0.00000273,0.00000206,-0.00000517,0.00000524,-0.00000054,0.
 00000227,-0.00000553,0.00000200,-0.00000421,0.00001623,-0.00000604,0.0
 0000349,0.00000205,0.00000093,0.00000257,-0.00000126,0.00000034,-0.000
 00225,0.00000135,-0.00000002,-0.00000007,0.00000094,-0.00000051,0.0000
 0087,0.00031889,0.00024821,0.00034067,0.00285443,0.00666799,0.01292261
 ,-0.00141160,-0.00038735,0.00172747,-0.02472787,-0.11299210,-0.1162516
 0,-0.00000344,-0.00002266,-0.00002032,0.00000474,-0.00000329,-0.000000
 86,0.00000097,-0.00000025,0.00000098,0.00000208,0.00000161,0.00000062,
 -0.00000056,0.00000021,-0.00000110,-0.00000072,-0.00000082,0.00000155,
 0.00000005,-0.00000029,0.00000050,-0.00000005,-0.00000077,-0.00000089,
 -0.00000032,0.00000123,0.00000022,0.00000056,-0.00000045,0.00000019,-0
 .00000026,0.00000022,-0.00000049,0.00000064,0.00000004,-0.00000024,-0.
 00000030,-0.00000040,0.00000091,-0.00008822,-0.00008338,-0.00015465,0.
 00014547,0.00017654,-0.00020650,0.00061468,0.00077905,-0.00019418,-0.0
 0022516,0.00023647,0.00037010,-0.00018129,0.00053367,0.00070144,-0.000
 05330,-0.00024278,-0.00000172,-0.00664425,-0.01222837,-0.02515500,0.00
 082337,0.00016526,0.00270005,0.02832044,0.11712502,0.00004163,-0.00004
 321,-0.00007414,-0.00003487,0.00024843,0.00026103,-0.00019650,-0.00004
 445,0.00023368,0.00005537,0.00008015,0.00008283,0.00005017,-0.00005252
 ,-0.00001317,-0.00002169,0.00005191,0.00002669,-0.00001323,-0.00001729
 ,-0.00002339,0.00000432,0.00000653,0.00001424,-0.00000060,-0.00000093,
 -0.00000417,0.00000301,-0.00000084,0.00000130,0.00000250,-0.00000013,-
 0.00000415,0.00000884,0.00001429,0.00000911,0.00000067,-0.00000081,-0.
 00000130,-0.00000077,0.00000040,-0.00000013,0.00000076,-0.00000062,-0.
 00000050,-0.00000011,-0.00000070,-0.00000029,-0.00170133,-0.00067835,0
 .00054481,-0.00571751,-0.01309538,-0.01893990,0.00330566,0.00381664,-0
 .00315956,-0.04231664,-0.11485213,-0.24420539,-0.00000553,0.00004421,-
 0.00001493,-0.00003270,-0.00002582,0.00002770,-0.00000016,-0.00000070,
 0.00000099,0.00000248,0.00000117,0.00000134,-0.00000077,0.00000175,-0.
 00000104,-0.00000096,-0.00000177,0.00000159,0.00000087,0.00000083,0.00
 000041,0.00000017,-0.00000002,-0.00000055,-0.00000033,0.00000089,0.000
 00118,0.00000022,-0.00000029,0.00000019,-0.00000026,0.00000108,-0.0000
 0051,0.00000027,0.00000024,0.00000032,-0.00000042,-0.00000091,0.000000
 89,0.00000781,0.00006927,0.00003314,0.00088076,0.00028096,0.00058941,-
 0.00045697,0.00022432,0.00056300,0.00008575,-0.00007271,0.00015447,-0.
 00011886,-0.00093831,-0.00142142,0.00010056,0.00017215,0.00040400,0.00
 115619,0.00348713,0.00432960,0.00053300,-0.00166973,-0.00364138,0.0443
 7921,0.12299528,0.26422400\\-0.00251087,-0.00382809,0.00055193,-0.0129
 7000,-0.01085172,-0.00375025,0.00207834,-0.00192655,0.00213168,0.00707
 182,0.00340682,-0.00045453,0.00101781,0.03083400,-0.00229577,0.0143169
 0,-0.01690691,0.00491578,-0.00101765,0.03085782,0.00224055,-0.00705786
 ,0.00342113,0.00047181,0.01296103,-0.01086269,0.00371240,-0.00207645,-
 0.00192266,-0.00212660,0.00250547,-0.00382638,-0.00053272,-0.01432013,
 -0.01691687,-0.00486064,-0.00068660,-0.00182633,-0.00399686,0.00040698
 ,0.00088293,0.00173458,-0.00043606,-0.00193026,-0.00022767,-0.00093381
 ,-0.00037013,-0.00071151,0.00067147,-0.00182249,0.00397639,-0.00039774
 ,0.00088623,-0.00171585,0.00043669,-0.00193893,0.00020699,0.00092872,-
 0.00035954,0.00070636,0.00096072,-0.00071986,-0.00015044,0.00074182,-0
 .00078144,0.00026665,-0.00095816,-0.00072743,0.00014893,-0.00074549,-0
 .00077437,-0.00026501,-0.00056155,0.00001553,0.00242612,0.00039559,0.0
 0123030,-0.00030405,0.00058920,0.00057334,-0.00019538,-0.00098050,0.00
 095604,0.00030416,-0.00010464,-0.00007686,0.00039279,-0.00008930,0.000
 69082,-0.00016083,-0.00011070,0.00032848,0.00027559,-0.00039918,0.0002
 4724,0.00027801,0.00012349,0.00003886,-0.00016928,0.00057134,0.0000165
 6,-0.00242310,-0.00039249,0.00122997,0.00030886,-0.00059174,0.00057394
 ,0.00019597,0.00097629,0.00096127,-0.00030133,0.00010298,-0.00007831,-
 0.00038489,0.00009333,0.00069002,0.00016201,0.00011280,0.00032121,-0.0
 0027453,0.00040200,0.00024673,-0.00027526,-0.00012388,0.00003858,0.000
 16893\\\@

 Writing a WFNX file to "04_sub.wfx"


 The theorems and results in mathematical physics are
 not theorems and results about Nature, but about our
 description of it.
                   --Gerard 't Hooft
 Job cpu time:       0 days  2 hours 17 minutes 41.3 seconds.
 Elapsed time:       0 days  0 hours 17 minutes 12.8 seconds.
 File lengths (MBytes):  RWF=    630 Int=      0 D2E=      0 Chk=     11 Scr=      1
 Normal termination of Gaussian 16 at Mon Jan 23 09:04:20 2023.
