 Entering Gaussian System, Link 0=g16
 Initial command:
 /software/gaussian/G16-A.03/avx/g16/l1.exe "/scratch/lcmd/1393738.slurm/Gau-37553.inp" -scrdir="/scratch/lcmd/1393738.slurm/"
 Entering Link 1 = /software/gaussian/G16-A.03/avx/g16/l1.exe PID=     37555.
  
 Copyright (c) 1988,1990,1992,1993,1995,1998,2003,2009,2016,
            Gaussian, Inc.  All Rights Reserved.
  
 This is part of the Gaussian(R) 16 program.  It is based on
 the Gaussian(R) 09 system (copyright 2009, Gaussian, Inc.),
 the Gaussian(R) 03 system (copyright 2003, Gaussian, Inc.),
 the Gaussian(R) 98 system (copyright 1998, Gaussian, Inc.),
 the Gaussian(R) 94 system (copyright 1995, Gaussian, Inc.),
 the Gaussian 92(TM) system (copyright 1992, Gaussian, Inc.),
 the Gaussian 90(TM) system (copyright 1990, Gaussian, Inc.),
 the Gaussian 88(TM) system (copyright 1988, Gaussian, Inc.),
 the Gaussian 86(TM) system (copyright 1986, Carnegie Mellon
 University), and the Gaussian 82(TM) system (copyright 1983,
 Carnegie Mellon University). Gaussian is a federally registered
 trademark of Gaussian, Inc.
  
 This software contains proprietary and confidential information,
 including trade secrets, belonging to Gaussian, Inc.
  
 This software is provided under written license and may be
 used, copied, transmitted, or stored only in accord with that
 written license.
  
 The following legend is applicable only to US Government
 contracts under FAR:
  
                    RESTRICTED RIGHTS LEGEND
  
 Use, reproduction and disclosure by the US Government is
 subject to restrictions as set forth in subparagraphs (a)
 and (c) of the Commercial Computer Software - Restricted
 Rights clause in FAR 52.227-19.
  
 Gaussian, Inc.
 340 Quinnipiac St., Bldg. 40, Wallingford CT 06492
  
  
 ---------------------------------------------------------------
 Warning -- This program may not be used in any manner that
 competes with the business of Gaussian, Inc. or will provide
 assistance to any competitor of Gaussian, Inc.  The licensee
 of this program is prohibited from giving any competitor of
 Gaussian, Inc. access to this program.  By using this program,
 the user acknowledges that Gaussian, Inc. is engaged in the
 business of creating and licensing software in the field of
 computational chemistry and represents and warrants to the
 licensee that it is not a competitor of Gaussian, Inc. and that
 it will not use this program in any manner prohibited above.
 ---------------------------------------------------------------
  

 Cite this work as:
 Gaussian 16, Revision A.03,
 M. J. Frisch, G. W. Trucks, H. B. Schlegel, G. E. Scuseria, 
 M. A. Robb, J. R. Cheeseman, G. Scalmani, V. Barone, 
 G. A. Petersson, H. Nakatsuji, X. Li, M. Caricato, A. V. Marenich, 
 J. Bloino, B. G. Janesko, R. Gomperts, B. Mennucci, H. P. Hratchian, 
 J. V. Ortiz, A. F. Izmaylov, J. L. Sonnenberg, D. Williams-Young, 
 F. Ding, F. Lipparini, F. Egidi, J. Goings, B. Peng, A. Petrone, 
 T. Henderson, D. Ranasinghe, V. G. Zakrzewski, J. Gao, N. Rega, 
 G. Zheng, W. Liang, M. Hada, M. Ehara, K. Toyota, R. Fukuda, 
 J. Hasegawa, M. Ishida, T. Nakajima, Y. Honda, O. Kitao, H. Nakai, 
 T. Vreven, K. Throssell, J. A. Montgomery, Jr., J. E. Peralta, 
 F. Ogliaro, M. J. Bearpark, J. J. Heyd, E. N. Brothers, K. N. Kudin, 
 V. N. Staroverov, T. A. Keith, R. Kobayashi, J. Normand, 
 K. Raghavachari, A. P. Rendell, J. C. Burant, S. S. Iyengar, 
 J. Tomasi, M. Cossi, J. M. Millam, M. Klene, C. Adamo, R. Cammi, 
 J. W. Ochterski, R. L. Martin, K. Morokuma, O. Farkas, 
 J. B. Foresman, and D. J. Fox, Gaussian, Inc., Wallingford CT, 2016.
 
 ******************************************
 Gaussian 16:  ES64L-G16RevA.03 25-Dec-2016
                23-Jan-2023 
 ******************************************
 %nprocs=8
 Will use up to    8 processors via shared memory.
 %mem=32000MB
 %chk=05_sub.chk
 ----------------------------------------------------------------------
 #p pop=(regular,nbo,savenbos) freq=noraman def2svp empiricaldispersion
 =gd3bj output=wfx pbe1pbe
 ----------------------------------------------------------------------
 1/10=4,30=1,38=1/1,3;
 2/12=2,17=6,18=5,40=1/2;
 3/5=43,7=101,11=2,25=1,30=1,71=2,74=-13,124=41,140=1/1,2,3;
 4//1;
 5/5=2,38=5,98=1/2;
 8/6=4,10=90,11=11/1;
 11/6=1,8=1,9=11,15=111,16=1/1,2,10;
 10/6=1/2;
 6/28=1,40=1,73=1/1,7;
 7/8=1,10=1,25=1/1,2,3,16;
 1/10=4,30=1/3;
 99/6=200/99;
 Leave Link    1 at Mon Jan 23 08:47:04 2023, MaxMem=  4194304000 cpu:               0.4 elap:               0.1
 (Enter /software/gaussian/G16-A.03/avx/g16/l101.exe)
 ------
 05_sub
 ------
 Symbolic Z-matrix:
 Charge =  0 Multiplicity = 1
 C                    -2.71432   2.39676  -0.64576 
 C                    -2.75108   0.88223  -0.31306 
 H                    -2.93168   0.26812  -1.21138 
 N                    -1.3761    0.62296   0.09266 
 C                    -0.73486   1.7262    0.05279 
 O                    -1.36421   2.81847  -0.32248 
 C                     0.70579   1.67915   0.35019 
 N                     1.20724   0.53056   0.583 
 C                     2.65075   0.68061   0.67476 
 H                     2.9762    0.27198   1.64251 
 C                     2.8229    2.22077   0.62178 
 O                     1.49757   2.73152   0.3209 
 C                     3.34145  -0.11498  -0.44568 
 C                     4.86451  -0.01092  -0.35135 
 C                     5.46273  -0.47739   0.96759 
 C                     2.82793   0.2675   -1.82799 
 C                    -3.75871   0.51914   0.78609 
 C                    -3.55337  -0.89219   1.34942 
 C                    -3.78944  -2.04294   0.38229 
 C                    -5.17937   0.74595   0.28061 
 H                    -3.40072   2.9917   -0.0268 
 H                    -2.88552   2.62825  -1.70554 
 H                     3.49933   2.56596  -0.17178 
 H                     3.13591   2.65952   1.57952 
 H                     3.05104  -1.16347  -0.25492 
 H                     5.1864    1.0251   -0.569 
 H                     5.28181  -0.6181   -1.17132 
 H                     5.20591   0.18744   1.80781 
 H                     6.56096  -0.51118   0.91309 
 H                     5.10784  -1.48737   1.2266 
 H                     2.9781    1.3376   -2.05285 
 H                     1.75981   0.02949  -1.94897 
 H                     3.36553  -0.30222  -2.59997 
 H                    -3.57289   1.2241    1.61894 
 H                    -4.22425  -0.99457   2.21976 
 H                    -2.53099  -0.96221   1.75774 
 H                    -4.81993  -2.05216  -0.00517 
 H                    -3.62541  -3.00365   0.8923 
 H                    -3.09567  -2.0151   -0.47264 
 H                    -5.39809   0.11412  -0.59372 
 H                    -5.35472   1.79253  -0.01497 
 H                    -5.91275   0.50077   1.06318 
 
 ITRead=  0  0  0  0  0  0  0  0  0  0  0  0  0  0  0  0  0  0  0  0
 ITRead=  0  0  0  0  0  0  0  0  0  0  0  0  0  0  0  0  0  0  0  0
 ITRead=  0  0
 MicOpt= -1 -1 -1 -1 -1 -1 -1 -1 -1 -1 -1 -1 -1 -1 -1 -1 -1 -1 -1 -1
 MicOpt= -1 -1 -1 -1 -1 -1 -1 -1 -1 -1 -1 -1 -1 -1 -1 -1 -1 -1 -1 -1
 MicOpt= -1 -1
 NAtoms=     42 NQM=       42 NQMF=       0 NMMI=      0 NMMIF=      0
                NMic=       0 NMicF=      0.
                    Isotopes and Nuclear Properties:
 (Nuclear quadrupole moments (NQMom) in fm**2, nuclear magnetic moments (NMagM)
  in nuclear magnetons)

  Atom         1           2           3           4           5           6           7           8           9          10
 IAtWgt=          12          12           1          14          12          16          12          14          12           1
 AtmWgt=  12.0000000  12.0000000   1.0078250  14.0030740  12.0000000  15.9949146  12.0000000  14.0030740  12.0000000   1.0078250
 NucSpn=           0           0           1           2           0           0           0           2           0           1
 AtZEff=  -0.0000000  -0.0000000  -0.0000000  -0.0000000  -0.0000000  -0.0000000  -0.0000000  -0.0000000  -0.0000000  -0.0000000
 NQMom=    0.0000000   0.0000000   0.0000000   2.0440000   0.0000000   0.0000000   0.0000000   2.0440000   0.0000000   0.0000000
 NMagM=    0.0000000   0.0000000   2.7928460   0.4037610   0.0000000   0.0000000   0.0000000   0.4037610   0.0000000   2.7928460
 AtZNuc=   6.0000000   6.0000000   1.0000000   7.0000000   6.0000000   8.0000000   6.0000000   7.0000000   6.0000000   1.0000000

  Atom        11          12          13          14          15          16          17          18          19          20
 IAtWgt=          12          16          12          12          12          12          12          12          12          12
 AtmWgt=  12.0000000  15.9949146  12.0000000  12.0000000  12.0000000  12.0000000  12.0000000  12.0000000  12.0000000  12.0000000
 NucSpn=           0           0           0           0           0           0           0           0           0           0
 AtZEff=  -0.0000000  -0.0000000  -0.0000000  -0.0000000  -0.0000000  -0.0000000  -0.0000000  -0.0000000  -0.0000000  -0.0000000
 NQMom=    0.0000000   0.0000000   0.0000000   0.0000000   0.0000000   0.0000000   0.0000000   0.0000000   0.0000000   0.0000000
 NMagM=    0.0000000   0.0000000   0.0000000   0.0000000   0.0000000   0.0000000   0.0000000   0.0000000   0.0000000   0.0000000
 AtZNuc=   6.0000000   8.0000000   6.0000000   6.0000000   6.0000000   6.0000000   6.0000000   6.0000000   6.0000000   6.0000000

  Atom        21          22          23          24          25          26          27          28          29          30
 IAtWgt=           1           1           1           1           1           1           1           1           1           1
 AtmWgt=   1.0078250   1.0078250   1.0078250   1.0078250   1.0078250   1.0078250   1.0078250   1.0078250   1.0078250   1.0078250
 NucSpn=           1           1           1           1           1           1           1           1           1           1
 AtZEff=  -0.0000000  -0.0000000  -0.0000000  -0.0000000  -0.0000000  -0.0000000  -0.0000000  -0.0000000  -0.0000000  -0.0000000
 NQMom=    0.0000000   0.0000000   0.0000000   0.0000000   0.0000000   0.0000000   0.0000000   0.0000000   0.0000000   0.0000000
 NMagM=    2.7928460   2.7928460   2.7928460   2.7928460   2.7928460   2.7928460   2.7928460   2.7928460   2.7928460   2.7928460
 AtZNuc=   1.0000000   1.0000000   1.0000000   1.0000000   1.0000000   1.0000000   1.0000000   1.0000000   1.0000000   1.0000000

  Atom        31          32          33          34          35          36          37          38          39          40
 IAtWgt=           1           1           1           1           1           1           1           1           1           1
 AtmWgt=   1.0078250   1.0078250   1.0078250   1.0078250   1.0078250   1.0078250   1.0078250   1.0078250   1.0078250   1.0078250
 NucSpn=           1           1           1           1           1           1           1           1           1           1
 AtZEff=  -0.0000000  -0.0000000  -0.0000000  -0.0000000  -0.0000000  -0.0000000  -0.0000000  -0.0000000  -0.0000000  -0.0000000
 NQMom=    0.0000000   0.0000000   0.0000000   0.0000000   0.0000000   0.0000000   0.0000000   0.0000000   0.0000000   0.0000000
 NMagM=    2.7928460   2.7928460   2.7928460   2.7928460   2.7928460   2.7928460   2.7928460   2.7928460   2.7928460   2.7928460
 AtZNuc=   1.0000000   1.0000000   1.0000000   1.0000000   1.0000000   1.0000000   1.0000000   1.0000000   1.0000000   1.0000000

  Atom        41          42
 IAtWgt=           1           1
 AtmWgt=   1.0078250   1.0078250
 NucSpn=           1           1
 AtZEff=  -0.0000000  -0.0000000
 NQMom=    0.0000000   0.0000000
 NMagM=    2.7928460   2.7928460
 AtZNuc=   1.0000000   1.0000000
 Leave Link  101 at Mon Jan 23 08:47:04 2023, MaxMem=  4194304000 cpu:               1.0 elap:               0.1
 (Enter /software/gaussian/G16-A.03/avx/g16/l103.exe)

 GradGradGradGradGradGradGradGradGradGradGradGradGradGradGradGradGradGrad
 Berny optimization.
 Initialization pass.
 Trust Radius=3.00D-01 FncErr=1.00D-07 GrdErr=1.00D-07 EigMax=2.50D+02 EigMin=1.00D-04
 Number of steps in this run=      2 maximum allowed number of steps=      2.
 GradGradGradGradGradGradGradGradGradGradGradGradGradGradGradGradGradGrad

 Leave Link  103 at Mon Jan 23 08:47:04 2023, MaxMem=  4194304000 cpu:               0.2 elap:               0.0
 (Enter /software/gaussian/G16-A.03/avx/g16/l202.exe)
                          Input orientation:                          
 ---------------------------------------------------------------------
 Center     Atomic      Atomic             Coordinates (Angstroms)
 Number     Number       Type             X           Y           Z
 ---------------------------------------------------------------------
      1          6           0       -2.714320    2.396760   -0.645760
      2          6           0       -2.751080    0.882230   -0.313060
      3          1           0       -2.931680    0.268120   -1.211380
      4          7           0       -1.376100    0.622960    0.092660
      5          6           0       -0.734860    1.726200    0.052790
      6          8           0       -1.364210    2.818470   -0.322480
      7          6           0        0.705790    1.679150    0.350190
      8          7           0        1.207240    0.530560    0.583000
      9          6           0        2.650750    0.680610    0.674760
     10          1           0        2.976200    0.271980    1.642510
     11          6           0        2.822900    2.220770    0.621780
     12          8           0        1.497570    2.731520    0.320900
     13          6           0        3.341450   -0.114980   -0.445680
     14          6           0        4.864510   -0.010920   -0.351350
     15          6           0        5.462730   -0.477390    0.967590
     16          6           0        2.827930    0.267500   -1.827990
     17          6           0       -3.758710    0.519140    0.786090
     18          6           0       -3.553370   -0.892190    1.349420
     19          6           0       -3.789440   -2.042940    0.382290
     20          6           0       -5.179370    0.745950    0.280610
     21          1           0       -3.400720    2.991700   -0.026800
     22          1           0       -2.885520    2.628250   -1.705540
     23          1           0        3.499330    2.565960   -0.171780
     24          1           0        3.135910    2.659520    1.579520
     25          1           0        3.051040   -1.163470   -0.254920
     26          1           0        5.186400    1.025100   -0.569000
     27          1           0        5.281810   -0.618100   -1.171320
     28          1           0        5.205910    0.187440    1.807810
     29          1           0        6.560960   -0.511180    0.913090
     30          1           0        5.107840   -1.487370    1.226600
     31          1           0        2.978100    1.337600   -2.052850
     32          1           0        1.759810    0.029490   -1.948970
     33          1           0        3.365530   -0.302220   -2.599970
     34          1           0       -3.572890    1.224100    1.618940
     35          1           0       -4.224250   -0.994570    2.219760
     36          1           0       -2.530990   -0.962210    1.757740
     37          1           0       -4.819930   -2.052160   -0.005170
     38          1           0       -3.625410   -3.003650    0.892300
     39          1           0       -3.095670   -2.015100   -0.472640
     40          1           0       -5.398090    0.114120   -0.593720
     41          1           0       -5.354720    1.792530   -0.014970
     42          1           0       -5.912750    0.500770    1.063180
 ---------------------------------------------------------------------
                    Distance matrix (angstroms):
                    1          2          3          4          5
     1  C    0.000000
     2  C    1.551078   0.000000
     3  H    2.213206   1.103053   0.000000
     4  N    2.341466   1.456846   2.060646   0.000000
     5  C    2.203607   2.216140   2.924062   1.276682   0.000000
     6  O    1.450912   2.381706   3.122722   2.234446   1.315280
     7  C    3.633735   3.609007   4.202463   2.348643   1.471779
     8  N    4.513445   4.073683   4.518776   2.631087   2.341459
     9  C    5.785579   5.495107   5.906877   4.069114   3.597563
    10  H    6.490985   6.082631   6.561078   4.633329   4.291146
    11  C    5.683171   5.808173   6.347323   4.523778   3.636758
    12  O    4.334341   4.676837   5.294759   3.571568   2.462985
    13  C    6.559056   6.175025   6.331289   4.805168   4.500524
    14  C    7.957529   7.667881   7.848445   6.288415   5.876552
    15  C    8.816336   8.423497   8.704586   6.981824   6.640993
    16  C    6.053755   5.813627   5.792522   4.635635   4.284695
    17  C    2.581938   1.534693   2.176437   2.483637   3.337423
    18  C    3.937250   2.560483   2.879325   2.935239   4.059706
    19  C    4.682276   3.180931   2.935393   3.607647   4.862658
    20  C    3.108023   2.503519   2.739793   3.809897   4.557023
    21  H    1.099186   2.225722   3.006845   3.118379   2.952056
    22  H    1.098194   2.237333   2.411750   3.087565   2.920746
    23  H    6.233998   6.474761   6.907874   5.254997   4.322499
    24  H    6.264671   6.434071   7.093910   5.168807   4.264370
    25  H    6.787295   6.152468   6.225528   4.786618   4.772622
    26  H    8.019272   7.942890   8.178563   6.608019   5.994955
    27  H    8.561757   8.216746   8.261260   6.889531   6.572253
    28  H    8.580859   8.264049   8.679999   6.815737   6.382838
    29  H    9.844641   9.495216   9.758632   8.059547   7.679517
    30  H    8.931875   8.351538   8.582504   6.912365   6.770672
    31  H    5.958638   6.004809   6.064434   4.906422   4.286117
    32  H    5.226869   4.873551   4.755109   3.788719   3.620669
    33  H    6.933109   6.636701   6.473664   5.530757   5.288178
    34  H    2.690937   2.127174   3.055447   2.741676   3.280144
    35  H    4.689586   3.479624   3.877866   3.905498   4.926885
    36  H    4.134380   2.781836   3.238817   2.572747   3.655200
    37  H    4.963551   3.603551   3.225543   4.361858   5.564815
    38  H    5.688598   4.161419   3.951102   4.341788   5.606384
    39  H    4.431693   2.922110   2.405353   3.199351   4.454978
    40  H    3.523603   2.770456   2.547233   4.111744   4.976192
    41  H    2.781133   2.774247   3.102635   4.148361   4.620833
    42  H    4.092091   3.469251   3.756931   4.640909   5.416005
                    6          7          8          9         10
     6  O    0.000000
     7  C    2.456712   0.000000
     8  N    3.559042   1.274720   0.000000
     9  C    4.656698   2.210271   1.454186   0.000000
    10  H    5.402310   2.967319   2.078135   1.099744   0.000000
    11  C    4.333678   2.202105   2.338519   1.550656   2.205260
    12  O    2.934499   1.317291   2.235445   2.379343   3.159484
    13  C    5.546489   3.286186   2.455556   1.537991   2.154921
    14  C    6.841289   4.543506   3.813376   2.536109   2.760657
    15  C    7.689869   5.259308   4.390110   3.055151   2.683264
    16  C    5.133035   3.352716   2.916969   2.542796   3.473669
    17  C    3.499925   4.633292   4.970114   6.412460   6.793641
    18  C    4.621328   5.074514   5.027427   6.435835   6.639012
    19  C    5.478298   5.836273   5.624055   6.998522   7.260915
    20  C    4.383435   5.959095   6.397392   7.840306   8.282073
    21  H    2.065141   4.327624   5.259502   6.515644   7.130819
    22  H    2.064806   4.245506   5.136964   6.333199   7.149910
    23  H    4.872422   2.977037   3.156932   2.234113   2.971137
    24  H    4.888144   2.894453   3.040607   2.229362   2.393705
    25  H    5.945994   3.734547   2.640350   2.103608   2.380411
    26  H    6.796134   4.620450   4.171977   2.845195   3.216046
    27  H    7.529949   5.341564   4.582486   3.466574   3.745093
    28  H    7.391003   4.959933   4.196100   2.838285   2.237427
    29  H    8.684557   6.276736   5.464110   4.094741   3.741109
    30  H    7.926370   5.492994   4.438574   3.322944   2.795028
    31  H    4.903347   3.324853   3.276425   2.824650   3.845937
    32  H    4.492592   3.019681   2.639560   2.846347   3.799623
    33  H    6.107054   4.438861   3.934849   3.492953   4.298828
    34  H    3.345055   4.485967   4.940021   6.318271   6.617981
    35  H    5.402045   5.911799   5.874188   7.242850   7.333747
    36  H    4.470149   4.408483   4.193178   5.542755   5.644966
    37  H    5.980445   6.677016   6.583553   7.983821   8.300369
    38  H    6.362845   6.401702   5.995066   7.280885   7.407687
    39  H    5.136526   5.364292   5.109774   6.450172   6.824383
    40  H    4.864079   6.371627   6.722237   8.167850   8.669162
    41  H    4.131741   6.072559   6.708909   8.111698   8.629226
    42  H    5.289707   6.760326   7.136226   8.574191   8.910746
                   11         12         13         14         15
    11  C    0.000000
    12  O    1.451859   0.000000
    13  C    2.619941   3.477082   0.000000
    14  C    3.177356   4.394221   1.529522   0.000000
    15  C    3.790561   5.141771   2.574588   1.521533   0.000000
    16  C    3.133155   3.529728   1.523409   2.530937   3.913093
    17  C    6.800010   5.721845   7.234061   8.714049   9.276905
    18  C    7.132797   6.300883   7.166937   8.633074   9.033710
    19  C    7.871443   7.124024   7.433179   8.919539   9.401924
    20  C    8.144189   6.966035   8.594945  10.092163  10.734188
    21  H    6.304636   4.917503   7.435306   8.799721   9.569960
    22  H    6.178067   4.829969   6.920095   8.298314   9.299672
    23  H    1.098386   2.068136   2.699516   2.921690   3.796720
    24  H    1.098973   2.067236   3.441153   3.721232   3.953322
    25  H    3.503389   4.232704   1.104563   2.150894   2.789531
    26  H    2.904086   4.160680   2.172287   1.106491   2.166782
    27  H    4.161806   5.269454   2.131826   1.102342   2.151155
    28  H    3.349602   4.736563   2.940389   2.194965   1.101783
    29  H    4.639128   6.041830   3.516884   2.174169   1.100101
    30  H    4.397392   5.626133   2.792867   2.174636   1.101405
    31  H    2.820943   3.125647   2.196590   2.876135   4.311686
    32  H    3.541274   3.538650   2.186856   3.491874   4.740766
    33  H    4.127905   4.606988   2.162546   2.718104   4.142031
    34  H    6.549337   5.446723   7.339202   8.751973   9.217470
    35  H    7.909126   7.087217   8.069577   9.496512   9.781257
    36  H    6.331343   5.651323   6.329171   7.748976   8.047294
    37  H    8.778602   7.930998   8.399693   9.903276  10.447931
    38  H    8.303520   7.711264   7.659748   9.087455   9.433024
    39  H    7.360015   6.652666   6.711758   8.209501   8.813911
    40  H    8.573219   7.432189   8.743796  10.266223  10.988402
    41  H    8.213544   6.924478   8.913331  10.382593  11.096629
    42  H    8.914304   7.774321   9.396596  10.881730  11.417858
                   16         17         18         19         20
    16  C    0.000000
    17  C    7.090879   0.000000
    18  C    7.222313   1.533414   0.000000
    19  C    7.349358   2.593888   1.521609   0.000000
    20  C    8.294092   1.524870   2.543567   3.117716   0.000000
    21  H    7.032896   2.627261   4.123334   5.066168   2.881231
    22  H    6.183174   3.379205   4.708747   5.195779   3.570657
    23  H    2.911482   7.601719   8.000839   8.641477   8.879016
    24  H    4.174654   7.262682   7.577206   8.456179   8.630921
    25  H    2.138224   7.091373   6.801892   6.926158   8.465951
    26  H    2.778740   9.061305   9.150952   9.533285  10.404276
    27  H    2.690173   9.319644   9.191826   9.312972  10.649179
    28  H    4.345140   9.028751   8.837461   9.376728  10.511818
    29  H    4.696315  10.371754  10.130904  10.476584  11.824371
    30  H    4.196198   9.101420   8.682504   8.954502  10.569262
    31  H    1.103733   7.356226   7.694641   7.947173   8.505257
    32  H    1.100984   6.178541   6.321294   6.365840   7.323699
    33  H    1.099794   7.930626   7.988550   7.944657   9.078090
    34  H    7.332592   1.106859   2.133473   3.499964   2.144885
    35  H    8.228630   2.136225   1.103655   2.159730   2.775242
    36  H    6.564120   2.155411   1.103127   2.154887   3.480466
    37  H    8.197149   2.892035   2.187377   1.100963   2.835540
    38  H    7.729553   3.526911   2.161576   1.099991   4.104687
    39  H    6.491246   2.906268   2.188680   1.101362   3.540140
    40  H    8.319516   2.180707   2.862070   2.862387   1.100682
    41  H    8.518716   2.193278   3.509151   4.161580   1.101565
    42  H    9.209385   2.171867   2.754804   3.382679   1.100171
                   21         22         23         24         25
    21  H    0.000000
    22  H    1.793236   0.000000
    23  H    6.914692   6.566781   0.000000
    24  H    6.739298   6.859316   1.791055   0.000000
    25  H    7.677414   7.191953   3.757196   4.241182   0.000000
    26  H    8.826105   8.307690   2.319103   3.389982   3.073800
    27  H    9.472429   8.805081   3.783458   4.786941   2.472560
    28  H    9.236003   9.152728   3.533914   3.232367   3.274642
    29  H   10.601350  10.293164   4.474295   4.714704   3.756231
    30  H    9.696838   9.456721   4.579547   4.605405   2.555433
    31  H    6.894220   6.014020   2.306290   3.868655   3.081108
    32  H    6.253039   5.328405   3.552184   4.610960   2.441359
    33  H    7.953191   6.961558   3.760381   5.127647   2.517919
    34  H    2.421263   3.673729   7.417787   6.860757   7.286171
    35  H    4.649256   5.506814   8.834621   8.242223   7.686508
    36  H    4.424299   5.001140   7.248158   6.727737   5.937202
    37  H    5.239766   5.342232   9.516558   9.381181   7.924917
    38  H    6.069551   6.246159   9.105753   8.846424   7.019784
    39  H    5.035859   4.808836   8.035587   8.055807   6.209245
    40  H    3.548429   3.724245   9.238703   9.166853   8.551890
    41  H    2.292654   3.106993   8.889150   8.682446   8.913603
    42  H    3.701768   4.621266   9.714802   9.316923   9.211765
                   26         27         28         29         30
    26  H    0.000000
    27  H    1.752712   0.000000
    28  H    2.520175   3.087049   0.000000
    29  H    2.538929   2.447942   1.767697   0.000000
    30  H    3.089151   2.556544   1.775503   1.778424   0.000000
    31  H    2.678816   3.147846   4.603336   5.005165   4.824007
    32  H    3.825843   3.664505   5.100387   5.615581   4.857408
    33  H    3.033510   2.411006   4.801592   4.753528   4.368394
    34  H    9.030606   9.464933   8.841813  10.305549   9.102806
    35  H   10.020807  10.099818   9.512874  10.874824   9.397719
    36  H    8.301881   8.350907   7.822009   9.142233   7.675261
    37  H   10.483991  10.269449  10.431691  11.521392  10.019823
    38  H    9.798685   9.449230   9.434693  10.486895   8.870204
    39  H    8.822969   8.521850   8.886387   9.870792   8.394254
    40  H   10.623649  10.720543  10.872789  12.069812  10.782064
    41  H   10.583530  10.967409  10.836316  12.171763  11.034691
    42  H   11.230764  11.470093  11.147971  12.515591  11.199679
                   31         32         33         34         35
    31  H    0.000000
    32  H    1.790579   0.000000
    33  H    1.771568   1.764134   0.000000
    34  H    7.510685   6.526466   8.262598   0.000000
    35  H    8.692989   7.364508   9.017422   2.389090   0.000000
    36  H    7.082358   5.756226   7.361669   2.425855   1.755460
    37  H    8.746013   7.169700   8.763392   3.863512   2.534491
    38  H    8.433665   6.802452   8.268429   4.290062   2.481363
    39  H    7.115360   5.471342   7.014741   3.885211   3.092603
    40  H    8.589908   7.285561   8.999967   3.075593   3.243881
    41  H    8.590448   7.580581   9.333433   2.483484   3.746986
    42  H    9.458179   8.256109  10.007494   2.511378   2.534709
                   36         37         38         39         40
    36  H    0.000000
    37  H    3.087894   0.000000
    38  H    2.472695   1.771345   0.000000
    39  H    2.530224   1.786890   1.766612   0.000000
    40  H    3.861103   2.318066   3.882157   3.138372   0.000000
    41  H    4.324875   3.881718   5.178513   4.450934   1.775920
    42  H    3.749537   2.975412   4.188327   4.077289   1.777552
                   41         42
    41  H    0.000000
    42  H    1.772695   0.000000
 Stoichiometry    C14H24N2O2
 Framework group  C1[X(C14H24N2O2)]
 Deg. of freedom   120
 Full point group                 C1      NOp   1
 Largest Abelian subgroup         C1      NOp   1
 Largest concise Abelian subgroup C1      NOp   1
                         Standard orientation:                         
 ---------------------------------------------------------------------
 Center     Atomic      Atomic             Coordinates (Angstroms)
 Number     Number       Type             X           Y           Z
 ---------------------------------------------------------------------
      1          6           0       -2.672343   -1.814301    0.573471
      2          6           0       -2.742759   -0.266725    0.496712
      3          1           0       -2.902776    0.187382    1.489137
      4          7           0       -1.385967    0.083539    0.098177
      5          6           0       -0.727302   -0.998020   -0.064013
      6          8           0       -1.327478   -2.149660    0.144496
      7          6           0        0.701874   -0.873538   -0.392788
      8          7           0        1.178096    0.307609   -0.447708
      9          6           0        2.619874    0.203934   -0.606397
     10          1           0        2.907028    0.772764   -1.502729
     11          6           0        2.816738   -1.320142   -0.813697
     12          8           0        1.509869   -1.900145   -0.561539
     13          6           0        3.335201    0.818073    0.608739
     14          6           0        4.855703    0.761783    0.452717
     15          6           0        5.402983    1.450969   -0.788481
     16          6           0        2.873400    0.202998    1.923728
     17          6           0       -3.791466    0.251861   -0.496549
     18          6           0       -3.626012    1.740520   -0.824995
     19          6           0       -3.847230    2.711391    0.325555
     20          6           0       -5.191100   -0.083735    0.007066
     21          1           0       -3.369818   -2.313016   -0.114295
     22          1           0       -2.804963   -2.220471    1.585137
     23          1           0        3.524102   -1.777479   -0.108764
     24          1           0        3.104487   -1.588859   -1.839725
     25          1           0        3.022972    1.877570    0.602578
     26          1           0        5.200093   -0.289206    0.486498
     27          1           0        5.290710    1.234043    1.348762
     28          1           0        5.128545    0.928435   -1.718839
     29          1           0        6.501784    1.497533   -0.762232
     30          1           0        5.024639    2.482418   -0.866342
     31          1           0        3.046931   -0.886259    1.964158
     32          1           0        1.806411    0.396199    2.114449
     33          1           0        3.427604    0.648648    2.762657
     34          1           0       -3.622710   -0.302508   -1.439593
     35          1           0       -4.326727    1.971157   -1.645884
     36          1           0       -2.618838    1.897450   -1.246733
     37          1           0       -4.864385    2.635872    0.740059
     38          1           0       -3.714546    3.746057   -0.023501
     39          1           0       -3.125265    2.557261    1.142873
     40          1           0       -5.390269    0.391024    0.979916
     41          1           0       -5.340891   -1.168020    0.130895
     42          1           0       -5.953515    0.272016   -0.701834
 ---------------------------------------------------------------------
 Rotational constants (GHZ):           0.8497500           0.1844324           0.1658274
 Leave Link  202 at Mon Jan 23 08:47:04 2023, MaxMem=  4194304000 cpu:               0.1 elap:               0.0
 (Enter /software/gaussian/G16-A.03/avx/g16/l301.exe)
 Standard basis: def2SVP (5D, 7F)
 Ernie: Thresh=  0.10000D-02 Tol=  0.10000D-05 Strict=F.
 There are   390 symmetry adapted cartesian basis functions of A   symmetry.
 There are   372 symmetry adapted basis functions of A   symmetry.
   372 basis functions,   618 primitive gaussians,   390 cartesian basis functions
    69 alpha electrons       69 beta electrons
       nuclear repulsion energy      1389.9300210824 Hartrees.
 IExCor= 1009 DFT=T Ex+Corr=PBE1PBE ExCW=0 ScaHFX=  0.250000
 ScaDFX=  0.750000  0.750000  1.000000  1.000000 ScalE2=  1.000000  1.000000
 IRadAn=      5 IRanWt=     -1 IRanGd=            0 ICorTp=0 IEmpDi=141
 NAtoms=   42 NActive=   42 NUniq=   42 SFac= 1.00D+00 NAtFMM=   60 NAOKFM=F Big=F
 Integral buffers will be    131072 words long.
 Raffenetti 2 integral format.
 Two-electron integral symmetry is turned on.
 R6Disp:  Grimme-D3(BJ) Dispersion energy=       -0.0399281982 Hartrees.
 Nuclear repulsion after empirical dispersion term =     1389.8900928842 Hartrees.
 Leave Link  301 at Mon Jan 23 08:47:04 2023, MaxMem=  4194304000 cpu:               0.5 elap:               0.1
 (Enter /software/gaussian/G16-A.03/avx/g16/l302.exe)
 NPDir=0 NMtPBC=     1 NCelOv=     1 NCel=       1 NClECP=     1 NCelD=      1
         NCelK=      1 NCelE2=     1 NClLst=     1 CellRange=     0.0.
 One-electron integrals computed using PRISM.
 One-electron integral symmetry used in STVInt
   1 Symmetry operations used in ECPInt.
 ECPInt:  NShTT=   16290 NPrTT=   56922 LenC2=   14258 LenP2D=   35421.
 LDataN:  DoStor=T MaxTD1= 4 Len=   56
 NBasis=   372 RedAO= T EigKep=  9.02D-04  NBF=   372
 NBsUse=   372 1.00D-06 EigRej= -1.00D+00 NBFU=   372
 Precomputing XC quadrature grid using
 IXCGrd= 4 IRadAn=           5 IRanWt=          -1 IRanGd=           0 AccXCQ= 0.00D+00.
 Generated NRdTot=       0 NPtTot=           0 NUsed=           0 NTot=          32
 NSgBfM=   386   386   386   386   386 MxSgAt=    42 MxSgA2=    42.
 Leave Link  302 at Mon Jan 23 08:47:05 2023, MaxMem=  4194304000 cpu:               6.4 elap:               0.8
 (Enter /software/gaussian/G16-A.03/avx/g16/l303.exe)
 DipDrv:  MaxL=1.
 Leave Link  303 at Mon Jan 23 08:47:05 2023, MaxMem=  4194304000 cpu:               0.5 elap:               0.1
 (Enter /software/gaussian/G16-A.03/avx/g16/l401.exe)
 ExpMin= 1.22D-01 ExpMax= 2.27D+03 ExpMxC= 3.41D+02 IAcc=3 IRadAn=         5 AccDes= 0.00D+00
 Harris functional with IExCor= 1009 and IRadAn=       5 diagonalized for initial guess.
 HarFok:  IExCor= 1009 AccDes= 0.00D+00 IRadAn=         5 IDoV= 1 UseB2=F ITyADJ=14
 ICtDFT=  3500011 ScaDFX=  1.000000  1.000000  1.000000  1.000000
 FoFCou: FMM=F IPFlag=           0 FMFlag=      100000 FMFlg1=           0
         NFxFlg=           0 DoJE=T BraDBF=F KetDBF=T FulRan=T
         wScrn=  0.000000 ICntrl=       500 IOpCl=  0 I1Cent=   200000004 NGrid=           0
         NMat0=    1 NMatS0=      1 NMatT0=    0 NMatD0=    1 NMtDS0=    0 NMtDT0=    0
 Petite list used in FoFCou.
 Harris En= -806.608456008091    
 JPrj=0 DoOrth=F DoCkMO=F.
 Leave Link  401 at Mon Jan 23 08:47:09 2023, MaxMem=  4194304000 cpu:              33.2 elap:               4.2
 (Enter /software/gaussian/G16-A.03/avx/g16/l502.exe)
 Integral symmetry usage will be decided dynamically.
 Closed shell SCF:
 Using DIIS extrapolation, IDIIS=  1040.
 NGot=  4194304000 LenX=  4193992314 LenY=  4193839773
 Requested convergence on RMS density matrix=1.00D-08 within 128 cycles.
 Requested convergence on MAX density matrix=1.00D-06.
 Requested convergence on             energy=1.00D-06.
 No special actions if energy rises.
 Fock matrices will be formed incrementally for  20 cycles.
 Integral accuracy reduced to 1.0D-05 until final iterations.

 Cycle   1  Pass 0  IDiag  1:
 FoFJK:  IHMeth= 1 ICntrl=       0 DoSepK=F KAlg= 0 I1Cent=           0 FoldK=F
 IRaf= 800000000 NMat=       1 IRICut=       1 DoRegI=T DoRafI=F ISym2E= 0 IDoP0=0 IntGTp=1.
 FoFCou: FMM=F IPFlag=           0 FMFlag=      100000 FMFlg1=           0
         NFxFlg=           0 DoJE=F BraDBF=F KetDBF=F FulRan=T
         wScrn=  0.000000 ICntrl=         0 IOpCl=  0 I1Cent=           0 NGrid=           0
         NMat0=    1 NMatS0=      1 NMatT0=    0 NMatD0=    1 NMtDS0=    0 NMtDT0=    0
 Symmetry not used in FoFCou.
 E= -805.947978968791    
 DIIS: error= 2.27D-02 at cycle   1 NSaved=   1.
 NSaved= 1 IEnMin= 1 EnMin= -805.947978968791     IErMin= 1 ErrMin= 2.27D-02
 ErrMax= 2.27D-02  0.00D+00 EMaxC= 1.00D-01 BMatC= 4.07D-01 BMatP= 4.07D-01
 IDIUse=3 WtCom= 7.73D-01 WtEn= 2.27D-01
 Coeff-Com:  0.100D+01
 Coeff-En:   0.100D+01
 Coeff:      0.100D+01
 Gap=     0.168 Goal=   None    Shift=    0.000
 GapD=    0.168 DampG=1.000 DampE=0.500 DampFc=0.5000 IDamp=-1.
 Damping current iteration by 5.00D-01
 RMSDP=4.97D-03 MaxDP=1.73D-01              OVMax= 2.25D-01

 Cycle   2  Pass 0  IDiag  1:
 RMSU=  2.48D-03    CP:  9.87D-01
 E= -806.112009831982     Delta-E=       -0.164030863190 Rises=F Damp=T
 DIIS: error= 1.10D-02 at cycle   2 NSaved=   2.
 NSaved= 2 IEnMin= 2 EnMin= -806.112009831982     IErMin= 2 ErrMin= 1.10D-02
 ErrMax= 1.10D-02  0.00D+00 EMaxC= 1.00D-01 BMatC= 4.37D-02 BMatP= 4.07D-01
 IDIUse=3 WtCom= 8.90D-01 WtEn= 1.10D-01
 Coeff-Com:  0.142D+00 0.858D+00
 Coeff-En:   0.227D+00 0.773D+00
 Coeff:      0.152D+00 0.848D+00
 Gap=     0.235 Goal=   None    Shift=    0.000
 RMSDP=1.56D-03 MaxDP=5.98D-02 DE=-1.64D-01 OVMax= 2.47D-01

 Cycle   3  Pass 0  IDiag  1:
 RMSU=  1.39D-03    CP:  9.80D-01  7.17D-01
 E= -806.336812390228     Delta-E=       -0.224802558247 Rises=F Damp=F
 DIIS: error= 1.47D-02 at cycle   3 NSaved=   3.
 NSaved= 3 IEnMin= 3 EnMin= -806.336812390228     IErMin= 2 ErrMin= 1.10D-02
 ErrMax= 1.47D-02  0.00D+00 EMaxC= 1.00D-01 BMatC= 5.42D-02 BMatP= 4.37D-02
 IDIUse=2 WtCom= 0.00D+00 WtEn= 1.00D+00
 Coeff-En:   0.000D+00 0.000D+00 0.100D+01
 Coeff:      0.000D+00 0.000D+00 0.100D+01
 Gap=     0.192 Goal=   None    Shift=    0.000
 RMSDP=2.26D-03 MaxDP=9.81D-02 DE=-2.25D-01 OVMax= 2.09D-01

 Cycle   4  Pass 0  IDiag  1:
 RMSU=  1.15D-03    CP:  9.90D-01  1.22D+00 -6.28D-02
 E= -806.150599222904     Delta-E=        0.186213167324 Rises=F Damp=F
 DIIS: error= 3.97D-02 at cycle   4 NSaved=   4.
 NSaved= 4 IEnMin= 3 EnMin= -806.336812390228     IErMin= 2 ErrMin= 1.10D-02
 ErrMax= 3.97D-02  0.00D+00 EMaxC= 1.00D-01 BMatC= 2.67D-01 BMatP= 4.37D-02
 IDIUse=2 WtCom= 0.00D+00 WtEn= 1.00D+00
 Coeff-En:   0.000D+00 0.000D+00 0.775D+00 0.225D+00
 Coeff:      0.000D+00 0.000D+00 0.775D+00 0.225D+00
 Gap=     0.213 Goal=   None    Shift=    0.000
 RMSDP=1.26D-03 MaxDP=5.36D-02 DE= 1.86D-01 OVMax= 1.12D-01

 Cycle   5  Pass 0  IDiag  1:
 RMSU=  1.86D-04    CP:  9.85D-01  9.02D-01  4.63D-01  4.72D-01
 E= -806.369704909942     Delta-E=       -0.219105687038 Rises=F Damp=F
 DIIS: error= 9.51D-03 at cycle   5 NSaved=   5.
 NSaved= 5 IEnMin= 5 EnMin= -806.369704909942     IErMin= 5 ErrMin= 9.51D-03
 ErrMax= 9.51D-03  0.00D+00 EMaxC= 1.00D-01 BMatC= 1.81D-02 BMatP= 4.37D-02
 IDIUse=3 WtCom= 9.05D-01 WtEn= 9.51D-02
 Coeff-Com: -0.595D-02 0.235D-01 0.260D+00-0.110D+00 0.832D+00
 Coeff-En:   0.000D+00 0.000D+00 0.296D+00 0.000D+00 0.704D+00
 Coeff:     -0.539D-02 0.212D-01 0.263D+00-0.992D-01 0.820D+00
 Gap=     0.212 Goal=   None    Shift=    0.000
 RMSDP=4.06D-04 MaxDP=1.74D-02 DE=-2.19D-01 OVMax= 4.39D-02

 Cycle   6  Pass 0  IDiag  1:
 RMSU=  3.65D-05    CP:  9.83D-01  8.21D-01  6.60D-01  2.89D-01  8.44D-01
 E= -806.385650808555     Delta-E=       -0.015945898613 Rises=F Damp=F
 DIIS: error= 2.92D-04 at cycle   6 NSaved=   6.
 NSaved= 6 IEnMin= 6 EnMin= -806.385650808555     IErMin= 6 ErrMin= 2.92D-04
 ErrMax= 2.92D-04  0.00D+00 EMaxC= 1.00D-01 BMatC= 4.02D-05 BMatP= 1.81D-02
 IDIUse=3 WtCom= 9.97D-01 WtEn= 2.92D-03
 Coeff-Com: -0.392D-02 0.912D-02 0.104D+00-0.583D-01 0.403D+00 0.545D+00
 Coeff-En:   0.000D+00 0.000D+00 0.000D+00 0.000D+00 0.000D+00 0.100D+01
 Coeff:     -0.390D-02 0.910D-02 0.104D+00-0.581D-01 0.402D+00 0.547D+00
 Gap=     0.212 Goal=   None    Shift=    0.000
 RMSDP=2.02D-05 MaxDP=8.44D-04 DE=-1.59D-02 OVMax= 1.89D-03

 Cycle   7  Pass 0  IDiag  1:
 RMSU=  9.96D-06    CP:  9.83D-01  8.25D-01  6.54D-01  2.92D-01  8.80D-01
                    CP:  7.25D-01
 E= -806.385686146308     Delta-E=       -0.000035337754 Rises=F Damp=F
 DIIS: error= 8.26D-05 at cycle   7 NSaved=   7.
 NSaved= 7 IEnMin= 7 EnMin= -806.385686146308     IErMin= 7 ErrMin= 8.26D-05
 ErrMax= 8.26D-05  0.00D+00 EMaxC= 1.00D-01 BMatC= 2.14D-06 BMatP= 4.02D-05
 IDIUse=1 WtCom= 1.00D+00 WtEn= 0.00D+00
 Coeff-Com: -0.141D-02 0.260D-02 0.315D-01-0.207D-01 0.133D+00 0.251D+00
 Coeff-Com:  0.604D+00
 Coeff:     -0.141D-02 0.260D-02 0.315D-01-0.207D-01 0.133D+00 0.251D+00
 Coeff:      0.604D+00
 Gap=     0.212 Goal=   None    Shift=    0.000
 RMSDP=5.05D-06 MaxDP=2.37D-04 DE=-3.53D-05 OVMax= 2.92D-04

 Initial convergence to 1.0D-05 achieved.  Increase integral accuracy.
 Cycle   8  Pass 1  IDiag  1:
 E= -806.385647420273     Delta-E=        0.000038726035 Rises=F Damp=F
 DIIS: error= 8.16D-05 at cycle   1 NSaved=   1.
 NSaved= 1 IEnMin= 1 EnMin= -806.385647420273     IErMin= 1 ErrMin= 8.16D-05
 ErrMax= 8.16D-05  0.00D+00 EMaxC= 1.00D-01 BMatC= 1.06D-06 BMatP= 1.06D-06
 IDIUse=1 WtCom= 1.00D+00 WtEn= 0.00D+00
 Coeff-Com:  0.100D+01
 Coeff:      0.100D+01
 Gap=     0.212 Goal=   None    Shift=    0.000
 RMSDP=5.05D-06 MaxDP=2.37D-04 DE= 3.87D-05 OVMax= 3.97D-04

 Cycle   9  Pass 1  IDiag  1:
 RMSU=  3.36D-05    CP:  1.00D+00
 E= -806.385647821799     Delta-E=       -0.000000401526 Rises=F Damp=F
 DIIS: error= 3.84D-05 at cycle   2 NSaved=   2.
 NSaved= 2 IEnMin= 2 EnMin= -806.385647821799     IErMin= 2 ErrMin= 3.84D-05
 ErrMax= 3.84D-05  0.00D+00 EMaxC= 1.00D-01 BMatC= 8.29D-07 BMatP= 1.06D-06
 IDIUse=1 WtCom= 1.00D+00 WtEn= 0.00D+00
 Coeff-Com:  0.458D+00 0.542D+00
 Coeff:      0.458D+00 0.542D+00
 Gap=     0.212 Goal=   None    Shift=    0.000
 RMSDP=4.21D-06 MaxDP=2.85D-04 DE=-4.02D-07 OVMax= 4.53D-04

 Cycle  10  Pass 1  IDiag  1:
 RMSU=  4.19D-06    CP:  1.00D+00  9.98D-01
 E= -806.385648289855     Delta-E=       -0.000000468055 Rises=F Damp=F
 DIIS: error= 2.33D-05 at cycle   3 NSaved=   3.
 NSaved= 3 IEnMin= 3 EnMin= -806.385648289855     IErMin= 3 ErrMin= 2.33D-05
 ErrMax= 2.33D-05  0.00D+00 EMaxC= 1.00D-01 BMatC= 2.96D-07 BMatP= 8.29D-07
 IDIUse=1 WtCom= 1.00D+00 WtEn= 0.00D+00
 Coeff-Com:  0.326D-01 0.369D+00 0.598D+00
 Coeff:      0.326D-01 0.369D+00 0.598D+00
 Gap=     0.212 Goal=   None    Shift=    0.000
 RMSDP=1.86D-06 MaxDP=1.44D-04 DE=-4.68D-07 OVMax= 2.28D-04

 Cycle  11  Pass 1  IDiag  1:
 RMSU=  8.18D-07    CP:  1.00D+00  1.01D+00  6.15D-01
 E= -806.385648524496     Delta-E=       -0.000000234641 Rises=F Damp=F
 DIIS: error= 1.03D-05 at cycle   4 NSaved=   4.
 NSaved= 4 IEnMin= 4 EnMin= -806.385648524496     IErMin= 4 ErrMin= 1.03D-05
 ErrMax= 1.03D-05  0.00D+00 EMaxC= 1.00D-01 BMatC= 3.49D-08 BMatP= 2.96D-07
 IDIUse=1 WtCom= 1.00D+00 WtEn= 0.00D+00
 Coeff-Com: -0.484D-02 0.212D+00 0.391D+00 0.401D+00
 Coeff:     -0.484D-02 0.212D+00 0.391D+00 0.401D+00
 Gap=     0.212 Goal=   None    Shift=    0.000
 RMSDP=4.94D-07 MaxDP=2.95D-05 DE=-2.35D-07 OVMax= 4.28D-05

 Cycle  12  Pass 1  IDiag  1:
 RMSU=  1.53D-07    CP:  1.00D+00  1.01D+00  6.50D-01  4.57D-01
 E= -806.385648552630     Delta-E=       -0.000000028135 Rises=F Damp=F
 DIIS: error= 8.72D-07 at cycle   5 NSaved=   5.
 NSaved= 5 IEnMin= 5 EnMin= -806.385648552630     IErMin= 5 ErrMin= 8.72D-07
 ErrMax= 8.72D-07  0.00D+00 EMaxC= 1.00D-01 BMatC= 2.84D-10 BMatP= 3.49D-08
 IDIUse=1 WtCom= 1.00D+00 WtEn= 0.00D+00
 Coeff-Com: -0.315D-02 0.111D+00 0.206D+00 0.223D+00 0.463D+00
 Coeff:     -0.315D-02 0.111D+00 0.206D+00 0.223D+00 0.463D+00
 Gap=     0.212 Goal=   None    Shift=    0.000
 RMSDP=5.42D-08 MaxDP=2.46D-06 DE=-2.81D-08 OVMax= 3.85D-06

 Cycle  13  Pass 1  IDiag  1:
 RMSU=  4.51D-08    CP:  1.00D+00  1.01D+00  6.47D-01  4.58D-01  8.31D-01
 E= -806.385648552850     Delta-E=       -0.000000000220 Rises=F Damp=F
 DIIS: error= 1.98D-07 at cycle   6 NSaved=   6.
 NSaved= 6 IEnMin= 6 EnMin= -806.385648552850     IErMin= 6 ErrMin= 1.98D-07
 ErrMax= 1.98D-07  0.00D+00 EMaxC= 1.00D-01 BMatC= 1.63D-11 BMatP= 2.84D-10
 IDIUse=1 WtCom= 1.00D+00 WtEn= 0.00D+00
 Coeff-Com: -0.130D-02 0.432D-01 0.798D-01 0.901D-01 0.233D+00 0.556D+00
 Coeff:     -0.130D-02 0.432D-01 0.798D-01 0.901D-01 0.233D+00 0.556D+00
 Gap=     0.212 Goal=   None    Shift=    0.000
 RMSDP=1.87D-08 MaxDP=1.54D-06 DE=-2.20D-10 OVMax= 2.25D-06

 Cycle  14  Pass 1  IDiag  1:
 RMSU=  1.55D-08    CP:  1.00D+00  1.01D+00  6.48D-01  4.60D-01  8.69D-01
                    CP:  8.18D-01
 E= -806.385648552872     Delta-E=       -0.000000000021 Rises=F Damp=F
 DIIS: error= 1.14D-07 at cycle   7 NSaved=   7.
 NSaved= 7 IEnMin= 7 EnMin= -806.385648552872     IErMin= 7 ErrMin= 1.14D-07
 ErrMax= 1.14D-07  0.00D+00 EMaxC= 1.00D-01 BMatC= 6.41D-12 BMatP= 1.63D-11
 IDIUse=1 WtCom= 1.00D+00 WtEn= 0.00D+00
 Coeff-Com:  0.898D-05-0.217D-02-0.438D-02-0.742D-03 0.192D-01 0.397D+00
 Coeff-Com:  0.591D+00
 Coeff:      0.898D-05-0.217D-02-0.438D-02-0.742D-03 0.192D-01 0.397D+00
 Coeff:      0.591D+00
 Gap=     0.212 Goal=   None    Shift=    0.000
 RMSDP=8.22D-09 MaxDP=5.07D-07 DE=-2.14D-11 OVMax= 7.85D-07

 SCF Done:  E(RPBE1PBE) =  -806.385648553     A.U. after   14 cycles
            NFock= 14  Conv=0.82D-08     -V/T= 2.0101
 KE= 7.983566199921D+02 PE=-4.653407611557D+03 EE= 1.658775250128D+03
 Leave Link  502 at Mon Jan 23 08:48:41 2023, MaxMem=  4194304000 cpu:             729.9 elap:              91.3
 (Enter /software/gaussian/G16-A.03/avx/g16/l801.exe)
 DoSCS=F DFT=T ScalE2(SS,OS)=  1.000000  1.000000
 Range of M.O.s used for correlation:     1   372
 NBasis=   372 NAE=    69 NBE=    69 NFC=     0 NFV=     0
 NROrb=    372 NOA=    69 NOB=    69 NVA=   303 NVB=   303
 Leave Link  801 at Mon Jan 23 08:48:41 2023, MaxMem=  4194304000 cpu:               0.2 elap:               0.0
 (Enter /software/gaussian/G16-A.03/avx/g16/l1101.exe)
 Using compressed storage, NAtomX=    42.
 Will process     43 centers per pass.
   1 Symmetry operations used in ECPInt.
 ECPInt:  NShTT=   16290 NPrTT=   56922 LenC2=   14258 LenP2D=   35421.
 LDataN:  DoStor=T MaxTD1= 5 Len=  102
 R6Disp: Adding Grimme-D3(BJ) dispersion energy 1st derivatives to the gradient.
 Leave Link 1101 at Mon Jan 23 08:48:41 2023, MaxMem=  4194304000 cpu:               6.2 elap:               0.8
 (Enter /software/gaussian/G16-A.03/avx/g16/l1102.exe)
 Symmetrizing basis deriv contribution to polar:
 IMax=3 JMax=2 DiffMx= 0.00D+00
 Leave Link 1102 at Mon Jan 23 08:48:42 2023, MaxMem=  4194304000 cpu:               0.5 elap:               0.1
 (Enter /software/gaussian/G16-A.03/avx/g16/l1110.exe)
 Forming Gx(P) for the SCF density, NAtomX=    42.
 Integral derivatives from FoFJK, PRISM(SPDF).
 Do as many integral derivatives as possible in FoFJK.
 G2DrvN: MDV=    4194300840.
 G2DrvN: will do    43 centers at a time, making    1 passes.
 Calling FoFCou, ICntrl=  3107 FMM=F I1Cent=   0 AccDes= 0.00D+00.
 FoFJK:  IHMeth= 1 ICntrl=    3107 DoSepK=F KAlg= 0 I1Cent=           0 FoldK=F
 IRaf=         0 NMat=       1 IRICut=       1 DoRegI=T DoRafI=F ISym2E= 0 IDoP0=0 IntGTp=1.
 FoFCou: FMM=F IPFlag=           0 FMFlag=      100000 FMFlg1=           0
         NFxFlg=           0 DoJE=F BraDBF=F KetDBF=F FulRan=T
         wScrn=  0.000000 ICntrl=      3107 IOpCl=  0 I1Cent=           0 NGrid=           0
         NMat0=    1 NMatS0=      1 NMatT0=    0 NMatD0=    1 NMtDS0=    0 NMtDT0=    0
 Symmetry not used in FoFCou.
 End of G2Drv F.D. properties file   721 does not exist.
 End of G2Drv F.D. properties file   722 does not exist.
 End of G2Drv F.D. properties file   788 does not exist.
 Leave Link 1110 at Mon Jan 23 08:54:11 2023, MaxMem=  4194304000 cpu:            2636.9 elap:             329.6
 (Enter /software/gaussian/G16-A.03/avx/g16/l1002.exe)
 Minotr:  Closed shell wavefunction.
          IDoAtm=111111111111111111111111111111111111111111
          Direct CPHF calculation.
          Differentiating once with respect to electric field.
                with respect to dipole field.
          Differentiating once with respect to nuclear coordinates.
          Requested convergence is 1.0D-08 RMS, and 1.0D-07 maximum.
          Secondary convergence is 1.0D-12 RMS, and 1.0D-12 maximum.
          NewPWx=T KeepS1=F KeepF1=F KeepIn=T MapXYZ=F SortEE=F KeepMc=T.
        12776 words used for storage of precomputed grid.
 Keep R1 ints in memory in canonical form, NReq=2436596108.
 FoFCou: FMM=F IPFlag=           0 FMFlag=           0 FMFlg1=           0
         NFxFlg=           0 DoJE=F BraDBF=F KetDBF=F FulRan=T
         wScrn=  0.000000 ICntrl=       600 IOpCl=  0 I1Cent=           0 NGrid=           0
         NMat0=    1 NMatS0=  69378 NMatT0=    0 NMatD0=    1 NMtDS0=    0 NMtDT0=    0
 Symmetry not used in FoFCou.
 Two-electron integral symmetry not used.
          MDV=    4194304000 using IRadAn=       1.
          Solving linear equations simultaneously, MaxMat=       0.
          There are   129 degrees of freedom in the 1st order CPHF.  IDoFFX=6 NUNeed=     3.
    126 vectors produced by pass  0 Test12= 2.09D-14 1.00D-09 XBig12= 1.21D+02 5.16D+00.
 AX will form   126 AO Fock derivatives at one time.
    126 vectors produced by pass  1 Test12= 2.09D-14 1.00D-09 XBig12= 4.92D+01 1.77D+00.
    126 vectors produced by pass  2 Test12= 2.09D-14 1.00D-09 XBig12= 4.85D-01 9.17D-02.
    126 vectors produced by pass  3 Test12= 2.09D-14 1.00D-09 XBig12= 1.58D-03 3.13D-03.
    126 vectors produced by pass  4 Test12= 2.09D-14 1.00D-09 XBig12= 2.51D-06 1.14D-04.
     79 vectors produced by pass  5 Test12= 2.09D-14 1.00D-09 XBig12= 2.58D-09 3.95D-06.
     16 vectors produced by pass  6 Test12= 2.09D-14 1.00D-09 XBig12= 2.70D-12 1.41D-07.
      3 vectors produced by pass  7 Test12= 2.09D-14 1.00D-09 XBig12= 2.84D-15 4.06D-09.
 InvSVY:  IOpt=1 It=  1 EMax= 5.33D-15
 Solved reduced A of dimension   728 with   129 vectors.
 FullF1:  Do perturbations      1 to       3.
 Isotropic polarizability for W=    0.000000      168.56 Bohr**3.
 End of Minotr F.D. properties file   721 does not exist.
 End of Minotr F.D. properties file   722 does not exist.
 End of Minotr F.D. properties file   788 does not exist.
 Leave Link 1002 at Mon Jan 23 09:00:46 2023, MaxMem=  4194304000 cpu:            3160.9 elap:             395.2
 (Enter /software/gaussian/G16-A.03/avx/g16/l601.exe)
 Copying SCF densities to generalized density rwf, IOpCl= 0 IROHF=0.

 **********************************************************************

            Population analysis using the SCF density.

 **********************************************************************

 Orbital symmetries:
       Occupied  (A) (A) (A) (A) (A) (A) (A) (A) (A) (A) (A) (A)
                 (A) (A) (A) (A) (A) (A) (A) (A) (A) (A) (A) (A)
                 (A) (A) (A) (A) (A) (A) (A) (A) (A) (A) (A) (A)
                 (A) (A) (A) (A) (A) (A) (A) (A) (A) (A) (A) (A)
                 (A) (A) (A) (A) (A) (A) (A) (A) (A) (A) (A) (A)
                 (A) (A) (A) (A) (A) (A) (A) (A) (A)
       Virtual   (A) (A) (A) (A) (A) (A) (A) (A) (A) (A) (A) (A)
                 (A) (A) (A) (A) (A) (A) (A) (A) (A) (A) (A) (A)
                 (A) (A) (A) (A) (A) (A) (A) (A) (A) (A) (A) (A)
                 (A) (A) (A) (A) (A) (A) (A) (A) (A) (A) (A) (A)
                 (A) (A) (A) (A) (A) (A) (A) (A) (A) (A) (A) (A)
                 (A) (A) (A) (A) (A) (A) (A) (A) (A) (A) (A) (A)
                 (A) (A) (A) (A) (A) (A) (A) (A) (A) (A) (A) (A)
                 (A) (A) (A) (A) (A) (A) (A) (A) (A) (A) (A) (A)
                 (A) (A) (A) (A) (A) (A) (A) (A) (A) (A) (A) (A)
                 (A) (A) (A) (A) (A) (A) (A) (A) (A) (A) (A) (A)
                 (A) (A) (A) (A) (A) (A) (A) (A) (A) (A) (A) (A)
                 (A) (A) (A) (A) (A) (A) (A) (A) (A) (A) (A) (A)
                 (A) (A) (A) (A) (A) (A) (A) (A) (A) (A) (A) (A)
                 (A) (A) (A) (A) (A) (A) (A) (A) (A) (A) (A) (A)
                 (A) (A) (A) (A) (A) (A) (A) (A) (A) (A) (A) (A)
                 (A) (A) (A) (A) (A) (A) (A) (A) (A) (A) (A) (A)
                 (A) (A) (A) (A) (A) (A) (A) (A) (A) (A) (A) (A)
                 (A) (A) (A) (A) (A) (A) (A) (A) (A) (A) (A) (A)
                 (A) (A) (A) (A) (A) (A) (A) (A) (A) (A) (A) (A)
                 (A) (A) (A) (A) (A) (A) (A) (A) (A) (A) (A) (A)
                 (A) (A) (A) (A) (A) (A) (A) (A) (A) (A) (A) (A)
                 (A) (A) (A) (A) (A) (A) (A) (A) (A) (A) (A) (A)
                 (A) (A) (A) (A) (A) (A) (A) (A) (A) (A) (A) (A)
                 (A) (A) (A) (A) (A) (A) (A) (A) (A) (A) (A) (A)
                 (A) (A) (A) (A) (A) (A) (A) (A) (A) (A) (A) (A)
                 (A) (A) (A)
 The electronic state is 1-A.
 Alpha  occ. eigenvalues --  -19.25436 -19.25409 -14.36268 -14.36241 -10.32246
 Alpha  occ. eigenvalues --  -10.32122 -10.29360 -10.29299 -10.26352 -10.26301
 Alpha  occ. eigenvalues --  -10.23656 -10.23638 -10.23351 -10.22838 -10.22701
 Alpha  occ. eigenvalues --  -10.22070 -10.21867 -10.21509  -1.13457  -1.12047
 Alpha  occ. eigenvalues --   -0.93670  -0.91317  -0.84308  -0.82579  -0.79210
 Alpha  occ. eigenvalues --   -0.76108  -0.74146  -0.73082  -0.67773  -0.66419
 Alpha  occ. eigenvalues --   -0.65043  -0.63640  -0.63157  -0.57864  -0.56350
 Alpha  occ. eigenvalues --   -0.55950  -0.53475  -0.52644  -0.50866  -0.48833
 Alpha  occ. eigenvalues --   -0.48369  -0.47276  -0.46296  -0.45567  -0.44921
 Alpha  occ. eigenvalues --   -0.43960  -0.43677  -0.42557  -0.41761  -0.41249
 Alpha  occ. eigenvalues --   -0.40601  -0.39101  -0.38952  -0.38820  -0.38070
 Alpha  occ. eigenvalues --   -0.37736  -0.37077  -0.36576  -0.36136  -0.34714
 Alpha  occ. eigenvalues --   -0.33773  -0.33423  -0.33002  -0.32885  -0.32601
 Alpha  occ. eigenvalues --   -0.28962  -0.27120  -0.25951  -0.23943
 Alpha virt. eigenvalues --   -0.02739   0.05922   0.06392   0.07912   0.08290
 Alpha virt. eigenvalues --    0.08744   0.08854   0.09194   0.09924   0.11256
 Alpha virt. eigenvalues --    0.11764   0.12413   0.13141   0.13351   0.14343
 Alpha virt. eigenvalues --    0.14818   0.15112   0.15243   0.15396   0.15747
 Alpha virt. eigenvalues --    0.16538   0.16773   0.16871   0.17529   0.18323
 Alpha virt. eigenvalues --    0.18801   0.18895   0.19998   0.21060   0.21642
 Alpha virt. eigenvalues --    0.22452   0.23842   0.24687   0.25019   0.25425
 Alpha virt. eigenvalues --    0.26076   0.26933   0.28002   0.28375   0.29138
 Alpha virt. eigenvalues --    0.29798   0.33359   0.38572   0.39566   0.40435
 Alpha virt. eigenvalues --    0.40904   0.41711   0.42068   0.42268   0.43660
 Alpha virt. eigenvalues --    0.44130   0.44604   0.46026   0.47666   0.49198
 Alpha virt. eigenvalues --    0.50054   0.50534   0.52368   0.52727   0.53951
 Alpha virt. eigenvalues --    0.54617   0.55488   0.57238   0.57932   0.58657
 Alpha virt. eigenvalues --    0.59215   0.60526   0.61515   0.61744   0.62258
 Alpha virt. eigenvalues --    0.62728   0.63213   0.63918   0.64423   0.64952
 Alpha virt. eigenvalues --    0.65362   0.65801   0.66447   0.66546   0.67078
 Alpha virt. eigenvalues --    0.67131   0.67875   0.68020   0.68578   0.69038
 Alpha virt. eigenvalues --    0.69262   0.69506   0.69713   0.69966   0.70216
 Alpha virt. eigenvalues --    0.70753   0.71007   0.71251   0.71558   0.71830
 Alpha virt. eigenvalues --    0.72608   0.73138   0.73648   0.73767   0.74140
 Alpha virt. eigenvalues --    0.74449   0.74834   0.75841   0.76045   0.77152
 Alpha virt. eigenvalues --    0.77594   0.78317   0.78637   0.79618   0.81334
 Alpha virt. eigenvalues --    0.82876   0.85031   0.86399   0.89456   0.89909
 Alpha virt. eigenvalues --    0.91011   0.93352   0.94884   0.96283   0.97607
 Alpha virt. eigenvalues --    1.00337   1.02868   1.03680   1.05538   1.08520
 Alpha virt. eigenvalues --    1.09506   1.11064   1.11666   1.12211   1.13523
 Alpha virt. eigenvalues --    1.15723   1.16424   1.17163   1.17788   1.20916
 Alpha virt. eigenvalues --    1.22792   1.25113   1.26016   1.27510   1.30033
 Alpha virt. eigenvalues --    1.31956   1.33912   1.35687   1.37018   1.37408
 Alpha virt. eigenvalues --    1.40285   1.40935   1.41987   1.44766   1.46260
 Alpha virt. eigenvalues --    1.46768   1.47943   1.48940   1.52709   1.54222
 Alpha virt. eigenvalues --    1.54836   1.55379   1.55906   1.56673   1.57521
 Alpha virt. eigenvalues --    1.60608   1.62180   1.64461   1.64902   1.65836
 Alpha virt. eigenvalues --    1.66949   1.68123   1.70351   1.71168   1.72196
 Alpha virt. eigenvalues --    1.72508   1.73657   1.74406   1.75313   1.75581
 Alpha virt. eigenvalues --    1.76611   1.77574   1.78168   1.78655   1.78720
 Alpha virt. eigenvalues --    1.79860   1.80602   1.81334   1.81514   1.81866
 Alpha virt. eigenvalues --    1.82683   1.82902   1.84033   1.84377   1.84935
 Alpha virt. eigenvalues --    1.85961   1.86421   1.87640   1.88154   1.88299
 Alpha virt. eigenvalues --    1.89744   1.90906   1.90960   1.91916   1.92402
 Alpha virt. eigenvalues --    1.93272   1.93831   1.94310   1.95653   1.96174
 Alpha virt. eigenvalues --    1.96422   1.97762   1.98149   1.98644   1.98963
 Alpha virt. eigenvalues --    1.99563   2.00752   2.01174   2.03807   2.04046
 Alpha virt. eigenvalues --    2.05168   2.06413   2.06809   2.07698   2.09466
 Alpha virt. eigenvalues --    2.09608   2.10939   2.11321   2.14476   2.19339
 Alpha virt. eigenvalues --    2.21199   2.22190   2.25459   2.26785   2.27784
 Alpha virt. eigenvalues --    2.29726   2.31388   2.32305   2.34176   2.34563
 Alpha virt. eigenvalues --    2.35520   2.35812   2.37603   2.40070   2.40678
 Alpha virt. eigenvalues --    2.42024   2.42331   2.44521   2.46144   2.47068
 Alpha virt. eigenvalues --    2.48683   2.51067   2.51882   2.54202   2.54665
 Alpha virt. eigenvalues --    2.56114   2.57310   2.59340   2.59966   2.60832
 Alpha virt. eigenvalues --    2.62121   2.62679   2.66205   2.68702   2.69297
 Alpha virt. eigenvalues --    2.69884   2.70700   2.71677   2.74371   2.75324
 Alpha virt. eigenvalues --    2.80457   2.83241   2.85072   2.85660   2.86374
 Alpha virt. eigenvalues --    2.87392   2.88535   2.90378   2.92566   2.92627
 Alpha virt. eigenvalues --    2.93866   2.94990   2.96025   2.96851   2.98029
 Alpha virt. eigenvalues --    2.99601   2.99759   3.01432   3.01781   3.02336
 Alpha virt. eigenvalues --    3.02833   3.04038   3.04912   3.06222   3.09158
 Alpha virt. eigenvalues --    3.10492   3.11256   3.11539   3.12804   3.14105
 Alpha virt. eigenvalues --    3.14448   3.18820   3.25823   3.30452   3.35325
 Alpha virt. eigenvalues --    3.53009   3.56765   3.75033
     Molecular Orbital Coefficients:
                          65        66        67        68        69
                           O         O         O         O         O
     Eigenvalues --    -0.32601  -0.28962  -0.27120  -0.25951  -0.23943
   1 1   C  1S         -0.01789   0.02325   0.00036   0.02825  -0.00353
   2        2S          0.04483  -0.05835  -0.00149  -0.06624   0.00790
   3        3S          0.07989  -0.08853   0.01914  -0.14338   0.02416
   4        4PX        -0.02573  -0.00103  -0.02569  -0.01930   0.01623
   5        4PY         0.14215  -0.12813   0.00071  -0.13017   0.01003
   6        4PZ        -0.02588   0.00821  -0.09216   0.02089   0.05066
   7        5PX        -0.01111   0.01779  -0.00038  -0.00242  -0.00498
   8        5PY         0.07242  -0.09583   0.00663  -0.11864   0.01109
   9        5PZ        -0.01654   0.00080  -0.02613   0.00927   0.00262
  10        6D 0       -0.00261   0.00170  -0.00799   0.00285   0.00479
  11        6D+1        0.00054   0.00132   0.01073   0.00114  -0.00655
  12        6D-1        0.00158  -0.00001   0.00460  -0.00121  -0.00348
  13        6D+2       -0.00720  -0.00154   0.00340  -0.00263  -0.00182
  14        6D-2        0.00139   0.00169   0.00158   0.00378  -0.00135
  15 2   C  1S          0.00366  -0.01837   0.00357  -0.02446  -0.00022
  16        2S          0.00697   0.04259  -0.00940   0.06425   0.00585
  17        3S         -0.11558   0.02928  -0.03809   0.04759  -0.03098
  18        4PX         0.07432   0.08185   0.04593   0.10128  -0.05053
  19        4PY        -0.14026   0.08745  -0.00538   0.08887  -0.00581
  20        4PZ         0.01789  -0.02240   0.11148  -0.04526  -0.09929
  21        5PX         0.02626   0.03774   0.01020   0.05582   0.02453
  22        5PY        -0.05953  -0.00278   0.00436  -0.01181   0.00279
  23        5PZ         0.06747  -0.00577   0.05595  -0.00788  -0.00509
  24        6D 0       -0.01236   0.00060   0.00537  -0.00027  -0.00828
  25        6D+1       -0.00254  -0.00311  -0.01033  -0.00209   0.01575
  26        6D-1       -0.00464   0.00377   0.00572   0.00333  -0.00414
  27        6D+2       -0.00504   0.01400  -0.00398   0.01588   0.00389
  28        6D-2       -0.00340  -0.00800   0.00092  -0.00946   0.00056
  29 3   H  1S         -0.08313   0.03292   0.11023   0.01599  -0.12357
  30        2S         -0.06854   0.01271   0.06398   0.00055  -0.09102
  31        3PX         0.00164   0.00064   0.00048   0.00107  -0.00063
  32        3PY        -0.00202   0.00173  -0.00258   0.00229   0.00324
  33        3PZ         0.00359  -0.00207  -0.00206  -0.00177   0.00223
  34 4   N  1S          0.00051  -0.06233  -0.00341  -0.07969   0.01078
  35        2S         -0.00501  -0.12583  -0.00865  -0.16914   0.02430
  36        3S          0.07447  -0.17791   0.00477  -0.16796   0.02590
  37        4PX         0.00785   0.12980   0.06104   0.14233  -0.10458
  38        4PY         0.02135   0.29520   0.01836   0.33642  -0.04415
  39        4PZ        -0.03936  -0.04413   0.20063  -0.08796  -0.29570
  40        5PX        -0.01063  -0.09338  -0.05763  -0.05225   0.08054
  41        5PY        -0.02432  -0.20472  -0.01592  -0.23052   0.02746
  42        5PZ         0.02086   0.02796  -0.15924   0.04918   0.21888
  43        6D 0       -0.00117  -0.00755   0.00176  -0.00944   0.00039
  44        6D+1       -0.00030  -0.00152  -0.00487  -0.00201   0.00242
  45        6D-1       -0.00440  -0.00183   0.01154  -0.00495  -0.01615
  46        6D+2       -0.00110  -0.00984  -0.00206  -0.00930   0.00167
  47        6D-2        0.00363   0.00483   0.00371   0.00884  -0.00616
  48 5   C  1S          0.01330  -0.04672  -0.00236  -0.02239   0.00133
  49        2S         -0.03550   0.12455   0.00511   0.06134  -0.00247
  50        3S         -0.06461   0.05113  -0.00518  -0.24793   0.04934
  51        4PX         0.03497  -0.00809  -0.03776  -0.07598   0.05080
  52        4PY         0.02177   0.06797  -0.00031   0.05259  -0.00006
  53        4PZ         0.01270   0.00122  -0.14227   0.03739   0.14391
  54        5PX        -0.00919  -0.01662  -0.02367  -0.21846   0.08208
  55        5PY        -0.03690  -0.03500  -0.00088  -0.14280  -0.00404
  56        5PZ         0.01898   0.00569  -0.08291   0.06973   0.09488
  57        6D 0       -0.00002   0.00302   0.00378   0.00193   0.00372
  58        6D+1       -0.00119  -0.00298  -0.00580  -0.00488  -0.01047
  59        6D-1        0.00473   0.00499  -0.02659   0.00730   0.02347
  60        6D+2        0.00058   0.01826  -0.00042   0.01521  -0.00505
  61        6D-2       -0.00451  -0.01426  -0.00883  -0.01230   0.00816
  62 6   O  1S          0.01196  -0.01276  -0.00091  -0.00720   0.00060
  63        2S          0.02345  -0.02837  -0.00212  -0.01305   0.00148
  64        3S          0.02051  -0.06758  -0.00434  -0.09525   0.00379
  65        4PX         0.04322  -0.01556   0.08953   0.01099  -0.06525
  66        4PY        -0.10634  -0.11240   0.00033  -0.10378   0.00669
  67        4PZ        -0.04373   0.00294   0.29118  -0.03004  -0.20696
  68        5PX         0.03042  -0.01684   0.07782   0.00195  -0.05812
  69        5PY        -0.07615  -0.08234   0.00138  -0.09472   0.00625
  70        5PZ        -0.03386   0.00294   0.23734  -0.02066  -0.17093
  71        6D 0        0.00116   0.00091   0.00064   0.00097  -0.00084
  72        6D+1        0.00119  -0.00025  -0.00146   0.00058   0.00127
  73        6D-1       -0.00011  -0.00117   0.00623  -0.00164  -0.00270
  74        6D+2        0.00246   0.00198  -0.00039   0.00017   0.00044
  75        6D-2       -0.00054   0.00332   0.00201   0.00365  -0.00132
  76 7   C  1S         -0.00305  -0.04861  -0.00198   0.02025  -0.00403
  77        2S          0.00554   0.12733   0.00341  -0.05511   0.01184
  78        3S          0.03998   0.06679   0.03050   0.25029  -0.03811
  79        4PX        -0.00818   0.00327  -0.02584  -0.07630  -0.02531
  80        4PY        -0.00756   0.07259   0.00576  -0.06272   0.00673
  81        4PZ        -0.00009   0.00905  -0.14322  -0.00634  -0.15533
  82        5PX        -0.03575   0.01488  -0.01474  -0.24511   0.03672
  83        5PY         0.01307  -0.03298   0.00729   0.10014   0.01215
  84        5PZ         0.00397   0.00135  -0.08038   0.04106  -0.12480
  85        6D 0        0.00052   0.00274  -0.00501  -0.00056   0.00150
  86        6D+1       -0.00155  -0.00139   0.01021   0.00019  -0.00673
  87        6D-1        0.00078  -0.00273  -0.02582   0.00006  -0.02710
  88        6D+2        0.00106   0.01297   0.00225  -0.00986   0.00012
  89        6D-2       -0.00034   0.02136  -0.00279  -0.01762  -0.00135
  90 8   N  1S          0.00060  -0.06840  -0.00049   0.07692  -0.01164
  91        2S          0.00097  -0.13818   0.00346   0.16315  -0.02167
  92        3S         -0.00653  -0.20221  -0.03825   0.16709  -0.06453
  93        4PX        -0.00250  -0.19633   0.02536   0.20717   0.00976
  94        4PY        -0.00941   0.28792   0.00490  -0.29220   0.03297
  95        4PZ         0.00256   0.03015   0.20297  -0.00390   0.31881
  96        5PX         0.00230   0.13674  -0.02680  -0.09658  -0.02331
  97        5PY         0.00497  -0.20187   0.00483   0.20809  -0.01626
  98        5PZ        -0.00072  -0.01798  -0.16187  -0.00721  -0.23476
  99        6D 0        0.00015  -0.00856  -0.00038   0.00933  -0.00039
 100        6D+1       -0.00031  -0.00153   0.00337   0.00211  -0.00078
 101        6D-1       -0.00001   0.00078   0.01259   0.00012   0.01778
 102        6D+2        0.00020  -0.00780   0.00033   0.00513   0.00004
 103        6D-2        0.00047  -0.00880   0.00180   0.01196   0.00088
 104 9   C  1S          0.00023  -0.02132  -0.00340   0.02350  -0.00649
 105        2S         -0.00164   0.04649   0.00945  -0.05669   0.02418
 106        3S          0.00485   0.08027   0.02348  -0.11502  -0.03312
 107        4PX        -0.00089  -0.10609   0.01757   0.11971  -0.00265
 108        4PY         0.01316   0.08303   0.01188  -0.06893   0.01240
 109        4PZ        -0.00230   0.00123   0.11673   0.00465   0.11302
 110        5PX        -0.00491  -0.04196  -0.01011   0.04491  -0.03895
 111        5PY         0.00479  -0.01485  -0.01199   0.02755  -0.00801
 112        5PZ        -0.00025   0.00250   0.05057  -0.00439  -0.00075
 113        6D 0        0.00023   0.00046  -0.00012  -0.00025  -0.00149
 114        6D+1        0.00042  -0.00058   0.01062   0.00221   0.01717
 115        6D-1       -0.00103  -0.00398   0.00721   0.00373   0.00647
 116        6D+2        0.00091   0.01082   0.00240  -0.01023   0.00408
 117        6D-2       -0.00017   0.01376   0.00153  -0.01393   0.00213
 118 10  H  1S          0.00811   0.05124  -0.09991  -0.05259  -0.11303
 119        2S          0.00352   0.01536  -0.05236  -0.01708  -0.07702
 120        3PX        -0.00007  -0.00176   0.00113   0.00222   0.00045
 121        3PY         0.00015   0.00145   0.00282  -0.00111   0.00373
 122        3PZ         0.00036   0.00226  -0.00107  -0.00196  -0.00076
 123 11  C  1S         -0.00048   0.02517   0.00070  -0.02729   0.00350
 124        2S          0.00053  -0.06203  -0.00114   0.06181  -0.00854
 125        3S          0.00285  -0.11657  -0.02147   0.17038  -0.01128
 126        4PX        -0.00491   0.03011  -0.01585  -0.04570  -0.00453
 127        4PY        -0.01638  -0.13767  -0.00869   0.11874  -0.02129
 128        4PZ         0.00995  -0.00689  -0.09062   0.00851  -0.05491
 129        5PX        -0.00416   0.00336   0.00212  -0.02776   0.00457
 130        5PY        -0.00599  -0.11202  -0.01567   0.12098  -0.02351
 131        5PZ         0.00363  -0.01456  -0.02582   0.02049  -0.00200
 132        6D 0       -0.00059   0.00131   0.00706  -0.00148   0.00522
 133        6D+1        0.00061   0.00194  -0.01235  -0.00241  -0.00757
 134        6D-1       -0.00025  -0.00147   0.00166   0.00123   0.00155
 135        6D+2        0.00119  -0.00075  -0.00171   0.00064  -0.00125
 136        6D-2        0.00025  -0.00278   0.00060   0.00473  -0.00050
 137 12  O  1S         -0.00430  -0.01312  -0.00160   0.00623  -0.00253
 138        2S         -0.01014  -0.02963  -0.00435   0.01124  -0.00546
 139        3S         -0.00111  -0.06543  -0.00276   0.08620  -0.01722
 140        4PX         0.00885   0.03160   0.05743   0.00760   0.03950
 141        4PY         0.01906  -0.11287  -0.01018   0.09816  -0.02240
 142        4PZ        -0.01817  -0.02635   0.29307   0.03155   0.21850
 143        5PX         0.00313   0.03044   0.04757  -0.00507   0.02942
 144        5PY         0.01605  -0.08071  -0.00742   0.08861  -0.02108
 145        5PZ        -0.01291  -0.02063   0.24009   0.02548   0.18237
 146        6D 0       -0.00056   0.00087   0.00010  -0.00107  -0.00000
 147        6D+1       -0.00001  -0.00038   0.00053   0.00007   0.00105
 148        6D-1       -0.00061   0.00004   0.00647  -0.00010   0.00334
 149        6D+2       -0.00002   0.00315   0.00047  -0.00125   0.00085
 150        6D-2        0.00022  -0.00289   0.00116   0.00357  -0.00009
 151 13  C  1S         -0.00060  -0.00583  -0.01607   0.00388  -0.02218
 152        2S          0.00176   0.01575   0.04046  -0.01128   0.04810
 153        3S          0.00323   0.04246   0.04704  -0.02793   0.18092
 154        4PX         0.01179   0.01327  -0.05907  -0.01013  -0.07140
 155        4PY        -0.01862  -0.02472  -0.05289   0.00584  -0.05513
 156        4PZ         0.00329  -0.00880  -0.09718   0.00008  -0.09815
 157        5PX         0.00751   0.04633  -0.04024  -0.04563  -0.03900
 158        5PY        -0.00837   0.01693  -0.02433  -0.03138  -0.05775
 159        5PZ         0.00161  -0.02787  -0.06026   0.01911  -0.07661
 160        6D 0        0.00070   0.00122   0.00106  -0.00036   0.00129
 161        6D+1       -0.00031   0.00093   0.00342  -0.00099   0.00323
 162        6D-1       -0.00010  -0.00158   0.00343   0.00197   0.00360
 163        6D+2        0.00125   0.00384  -0.00023  -0.00312  -0.00092
 164        6D-2        0.00065   0.00133   0.00197  -0.00097   0.00246
 165 14  C  1S         -0.00141  -0.00435   0.00077   0.00350   0.00284
 166        2S          0.00355   0.01414  -0.00377  -0.01304  -0.00766
 167        3S          0.00104  -0.05245   0.01790   0.05498  -0.02522
 168        4PX        -0.01182  -0.02515   0.03155   0.01966   0.03880
 169        4PY         0.01237   0.00085   0.00251   0.00243   0.00522
 170        4PZ        -0.00029   0.00004   0.02646   0.00294   0.01974
 171        5PX        -0.00509   0.00540   0.01973  -0.00811   0.04441
 172        5PY         0.00362  -0.01305  -0.00357   0.01089   0.00577
 173        5PZ        -0.00170   0.01201   0.01749  -0.00980   0.00346
 174        6D 0        0.00032  -0.00033   0.00090   0.00035   0.00110
 175        6D+1       -0.00030  -0.00043   0.00447   0.00074   0.00436
 176        6D-1        0.00000  -0.00034   0.00134   0.00050   0.00105
 177        6D+2        0.00087   0.00083   0.00018  -0.00031  -0.00011
 178        6D-2        0.00093   0.00075   0.00177   0.00000   0.00178
 179 15  C  1S         -0.00068   0.00051   0.00082  -0.00045  -0.00072
 180        2S          0.00153  -0.00212  -0.00148   0.00185   0.00264
 181        3S          0.00232   0.02151  -0.00550  -0.01909  -0.00925
 182        4PX         0.00390   0.01004  -0.01318  -0.00678  -0.01493
 183        4PY        -0.00617   0.00045   0.00287  -0.00023  -0.00070
 184        4PZ         0.00312   0.00095  -0.02764  -0.00223  -0.02356
 185        5PX         0.00132  -0.00420  -0.00196   0.00594  -0.00223
 186        5PY        -0.00143  -0.00205   0.00282   0.00284   0.00229
 187        5PZ         0.00188   0.00871  -0.01585  -0.00860  -0.02021
 188        6D 0        0.00024  -0.00038   0.00176   0.00048   0.00196
 189        6D+1       -0.00028  -0.00064   0.00094   0.00059   0.00089
 190        6D-1        0.00027  -0.00000   0.00076   0.00016   0.00070
 191        6D+2        0.00065   0.00096  -0.00105  -0.00068  -0.00118
 192        6D-2        0.00028   0.00036  -0.00042  -0.00027  -0.00046
 193 16  C  1S         -0.00121  -0.00323  -0.00019   0.00196  -0.00146
 194        2S          0.00321   0.00551  -0.00082  -0.00478   0.00730
 195        3S          0.00187   0.06472   0.00820  -0.03950  -0.05089
 196        4PX        -0.00530  -0.02219  -0.02251   0.01187  -0.02559
 197        4PY         0.01128   0.01918   0.00013  -0.01015   0.00159
 198        4PZ        -0.00604  -0.00449   0.03659   0.00373   0.02782
 199        5PX        -0.00188  -0.02615  -0.02856   0.00766  -0.01759
 200        5PY         0.00468   0.01347   0.00593  -0.00472   0.00234
 201        5PZ        -0.00230  -0.00337   0.03075   0.01118   0.04071
 202        6D 0        0.00034   0.00080   0.00252  -0.00062   0.00293
 203        6D+1       -0.00050  -0.00066   0.00078   0.00034   0.00047
 204        6D-1        0.00028   0.00068   0.00172  -0.00025   0.00132
 205        6D+2        0.00094   0.00226   0.00146  -0.00089   0.00030
 206        6D-2        0.00014   0.00013  -0.00100  -0.00026  -0.00111
 207 17  C  1S         -0.01835  -0.00180   0.01646  -0.00634  -0.02123
 208        2S          0.04507   0.00239  -0.04230   0.01077   0.04983
 209        3S          0.08840   0.05673  -0.04204   0.10896   0.13118
 210        4PX        -0.10257  -0.01372  -0.08080   0.00865   0.09114
 211        4PY         0.25297  -0.04557   0.04423  -0.03065  -0.03835
 212        4PZ         0.07630   0.03057  -0.07886   0.03423   0.07242
 213        5PX         0.00438  -0.01053  -0.03693   0.00220   0.04408
 214        5PY         0.11093   0.00324   0.01433   0.01323  -0.05403
 215        5PZ         0.03605   0.03913  -0.03672   0.04689   0.06325
 216        6D 0       -0.01214   0.00009   0.00059  -0.00054  -0.00044
 217        6D+1       -0.00440   0.00019  -0.00368   0.00105   0.00378
 218        6D-1       -0.00973   0.00117   0.00340   0.00092  -0.00346
 219        6D+2       -0.00290   0.00470  -0.00095   0.00411  -0.00035
 220        6D-2        0.01129   0.00242   0.00256   0.00149  -0.00286
 221 18  C  1S         -0.01669   0.00024  -0.00103  -0.00143  -0.00075
 222        2S          0.03539  -0.00228   0.00541   0.00666  -0.00122
 223        3S          0.07230  -0.00743  -0.01067  -0.04308   0.03064
 224        4PX         0.16758   0.06613   0.01135   0.04808  -0.00402
 225        4PY        -0.25064   0.04373  -0.02132   0.03127   0.01056
 226        4PZ         0.02226  -0.03455   0.03340  -0.02712  -0.02227
 227        5PX         0.06718   0.05271  -0.00345   0.02879   0.00209
 228        5PY        -0.09911   0.04816  -0.02282   0.05013   0.00558
 229        5PZ         0.02912  -0.05196   0.01016  -0.04646  -0.00468
 230        6D 0       -0.01010   0.00039  -0.00194   0.00074   0.00142
 231        6D+1       -0.01094  -0.00263  -0.00199  -0.00134   0.00166
 232        6D-1       -0.00834  -0.00051   0.00243  -0.00070  -0.00228
 233        6D+2       -0.00246   0.00366  -0.00134   0.00184   0.00014
 234        6D-2        0.00569   0.00051   0.00215   0.00021  -0.00214
 235 19  C  1S          0.01166   0.00160  -0.00129   0.00091   0.00114
 236        2S         -0.02571  -0.00555   0.00140  -0.00317  -0.00022
 237        3S         -0.06944   0.02343   0.02492   0.02538  -0.03057
 238        4PX        -0.12937  -0.02107  -0.00472  -0.00760   0.00156
 239        4PY         0.17917  -0.01189   0.00360  -0.00590   0.00036
 240        4PZ         0.02876   0.02163  -0.02789   0.01710   0.02039
 241        5PX        -0.05353  -0.00530   0.00211   0.00239  -0.00152
 242        5PY         0.10392  -0.01847  -0.00602  -0.01441   0.01067
 243        5PZ         0.03409   0.02008  -0.01656   0.01986   0.00945
 244        6D 0       -0.01120   0.00082  -0.00138   0.00073   0.00087
 245        6D+1       -0.00928  -0.00219  -0.00126  -0.00143   0.00068
 246        6D-1       -0.00451  -0.00002   0.00015  -0.00010  -0.00008
 247        6D+2       -0.00333   0.00289  -0.00128   0.00194   0.00081
 248        6D-2       -0.00020  -0.00091  -0.00015  -0.00076   0.00004
 249 20  C  1S         -0.01477  -0.00703  -0.00089  -0.00535   0.00355
 250        2S          0.03559   0.01625   0.00182   0.01383  -0.00798
 251        3S          0.06200  -0.00163  -0.00316  -0.02018  -0.03755
 252        4PX         0.09680   0.03499   0.03015   0.01975  -0.03926
 253        4PY        -0.08214   0.01265   0.00563   0.00581  -0.00293
 254        4PZ        -0.07384  -0.02187   0.00627  -0.01323   0.00284
 255        5PX         0.05391   0.01278   0.02508  -0.00240  -0.04319
 256        5PY        -0.03420   0.00210   0.00678  -0.00468  -0.00553
 257        5PZ        -0.03574  -0.01788  -0.00182  -0.01285   0.01313
 258        6D 0       -0.00737  -0.00008   0.00172  -0.00029  -0.00149
 259        6D+1        0.00075  -0.00033  -0.00329   0.00009   0.00321
 260        6D-1       -0.00573   0.00073   0.00002   0.00063   0.00015
 261        6D+2       -0.00362   0.00196  -0.00218   0.00124   0.00177
 262        6D-2        0.00866  -0.00067   0.00171  -0.00044  -0.00172
 263 21  H  1S         -0.01224   0.02825   0.10480   0.02903  -0.06931
 264        2S         -0.01341   0.02968   0.06348   0.03574  -0.05434
 265        3PX        -0.00149   0.00109   0.00033   0.00090  -0.00005
 266        3PY         0.00212  -0.00263   0.00300  -0.00262  -0.00168
 267        3PZ        -0.00062   0.00163   0.00080   0.00171  -0.00060
 268 22  H  1S         -0.05359   0.02862  -0.11202   0.04434   0.06815
 269        2S         -0.03379   0.02580  -0.06979   0.04127   0.04349
 270        3PX        -0.00086  -0.00013   0.00000  -0.00032   0.00006
 271        3PY         0.00182  -0.00275  -0.00272  -0.00247   0.00152
 272        3PZ         0.00278  -0.00169   0.00188  -0.00174  -0.00091
 273 23  H  1S          0.01030   0.04693  -0.09481  -0.05295  -0.05690
 274        2S          0.00462   0.04502  -0.06385  -0.05453  -0.04681
 275        3PX        -0.00043  -0.00102   0.00073   0.00077   0.00033
 276        3PY        -0.00012  -0.00250  -0.00317   0.00184  -0.00242
 277        3PZ        -0.00034  -0.00238   0.00029   0.00196  -0.00016
 278 24  H  1S         -0.00715   0.01593   0.11222  -0.01652   0.07799
 279        2S         -0.00439   0.01809   0.07158  -0.02291   0.05754
 280        3PX         0.00004   0.00071  -0.00048  -0.00068  -0.00022
 281        3PY        -0.00061  -0.00318   0.00221   0.00248   0.00089
 282        3PZ         0.00002   0.00132   0.00210  -0.00106   0.00134
 283 25  H  1S         -0.02148  -0.03532  -0.02107   0.01877  -0.01428
 284        2S         -0.01142  -0.05473  -0.02518   0.04850  -0.02999
 285        3PX        -0.00023  -0.00039  -0.00103  -0.00006  -0.00089
 286        3PY         0.00065   0.00089   0.00002  -0.00048  -0.00063
[...]
 000289,-0.00000176,-0.00000513,-0.00000258,0.00000294,0.00000379,-0.00
 000018,-0.00000229,-0.00000559,-0.00000100,-0.00095753,-0.00281270,-0.
 00313169,0.00379611,-0.02142003,0.01044414,-0.02036219,0.11720954,-0.1
 0802202,-0.00039159,0.00005848,-0.00039835,-0.00001097,0.00010589,-0.0
 0001352,-0.00002799,-0.00004267,0.00002851,0.00000248,0.00000225,-0.00
 000082,0.00000235,-0.00000125,0.00000139,0.00000005,-0.00000352,0.0000
 0234,-0.00000181,-0.00000131,0.00000107,0.00000427,-0.00000042,-0.0000
 0207,-0.00000111,-0.00000203,-0.00000174,0.00000192,-0.00000069,0.0000
 0027,-0.00000091,-0.00000089,0.00000162,-0.00000210,-0.00000264,0.0000
 0144,-0.00000261,0.00000612,0.00000287,0.00000480,-0.00000002,-0.00000
 377,0.00007103,-0.00114322,0.00025591,0.00036033,0.00043483,0.00096845
 ,0.00003537,0.00057999,0.00084592,-0.00000464,0.00793095,-0.00547136,0
 .02242371,-0.12109671,0.11475599,0.00013170,0.00006757,-0.00017161,0.0
 0033803,-0.00019008,0.00089448,0.00012177,-0.00018568,-0.00039902,0.00
 024618,0.00027117,-0.00003142,-0.00014378,-0.00015815,0.00002479,-0.00
 018681,0.00020144,-0.00015644,-0.00001477,-0.00008110,0.00003724,0.000
 00702,0.00003678,-0.00001387,-0.00001646,0.00000853,0.00000252,-0.0000
 0327,-0.00000180,-0.00000120,-0.00000327,0.00000233,-0.00000218,0.0000
 2666,0.00005313,-0.00000715,-0.00000420,-0.00001001,0.00000336,-0.0000
 0288,0.00000340,-0.00000073,0.00000139,-0.00000128,0.00000005,-0.00000
 371,0.00000254,-0.00000304,-0.00003250,-0.00028556,0.00049531,0.004405
 60,0.00134410,-0.00563095,-0.15886097,-0.00698021,0.13499813,-0.000007
 37,0.00022383,0.00006808,-0.00002027,-0.00007691,-0.00000611,-0.000008
 08,0.00002562,-0.00000286,0.00000243,0.00000197,-0.00000140,0.00000044
 ,0.00000065,0.00000143,-0.00000549,0.00000646,-0.00000190,0.00000233,0
 .00000230,0.00000032,0.00000140,-0.00000170,-0.00000095,-0.00000121,-0
 .00000084,-0.00000081,0.00000212,0.00000031,-0.00000010,-0.00000153,0.
 00000174,-0.00000001,0.00000455,0.00000440,0.00000041,0.00000108,-0.00
 000569,0.00000875,0.00000397,-0.00000178,-0.00000106,-0.00002817,0.000
 15926,-0.00010515,0.00097893,-0.00126895,-0.00127146,0.00061797,0.0005
 1417,-0.00022611,-0.01532580,-0.00192646,0.02287204,0.00321125,0.00025
 047,-0.00538110,0.16462334,0.00013540,-0.00003693,0.00022545,-0.000234
 57,-0.00102172,-0.00005536,-0.00015282,-0.00101960,0.00069696,0.000336
 19,0.00033087,0.00026428,-0.00020898,-0.00024080,0.00002929,0.00002219
 ,0.00046000,-0.00010380,-0.00020281,-0.00002427,-0.00005719,0.00014450
 ,-0.00005689,0.00004338,-0.00003572,0.00000680,-0.00000219,0.00002311,
 0.00000453,0.00000812,-0.00003441,0.00000826,-0.00001460,0.00011624,-0
 .00001220,0.00002132,0.00001553,0.00003926,0.00001543,-0.00000493,-0.0
 0001195,-0.00001150,0.00000681,0.00000708,-0.00000032,-0.00000218,-0.0
 0001268,-0.00000473,0.00070623,0.00127087,-0.00001103,0.01734176,0.002
 10699,-0.01971862,-0.00719913,-0.04594545,0.00870469,-0.00001520,-0.00
 012354,0.00007320,-0.00000138,0.00009167,-0.00003439,0.,-0.00000985,-0
 .00002501,0.00000883,0.00000567,-0.00000083,0.00000858,-0.00000070,0.0
 0000451,-0.00000087,-0.00000687,0.00000324,-0.00000328,-0.00000178,0.0
 0000298,0.00001111,-0.00000191,-0.00000309,-0.00000288,-0.00000266,-0.
 00000393,0.00000476,-0.00000207,0.00000052,-0.00000189,-0.00000238,0.0
 0000204,-0.00000560,-0.00000460,0.00000351,-0.00000502,0.00001553,0.00
 001229,0.00001273,-0.00000140,-0.00000805,-0.00023481,0.00022442,0.000
 17513,-0.00098570,-0.00366768,-0.00370226,-0.00009226,0.00088105,0.000
 71868,0.00076975,-0.00154467,-0.00071467,-0.01831509,-0.00034396,0.020
 08352,0.00808778,0.04859029,0.00000052,0.00002511,0.00029715,0.0004750
 3,-0.00015366,-0.00009476,0.00005195,0.00031483,0.00050345,0.00005837,
 0.00033057,0.00027525,-0.00017088,-0.00027485,0.00000697,-0.00015310,0
 .00036545,-0.00014280,-0.00007898,-0.00011969,-0.00001159,0.00005301,0
 .00005080,0.00002698,-0.00003137,0.00000848,-0.00001040,0.00000428,-0.
 00000322,0.00000226,-0.00001630,0.00000577,-0.00001183,0.00008568,0.00
 008370,0.00000304,-0.00000219,-0.00001273,0.00000517,-0.00000807,0.000
 00277,-0.00000254,0.00000569,-0.00000167,-0.00000144,-0.00001005,0.000
 00191,-0.00000027,-0.00009267,0.00095511,0.00038056,0.01237071,0.00183
 686,-0.01551450,0.13374261,0.00823271,-0.20843198,-0.00007345,-0.00017
 837,0.00002516,-0.00001805,0.00011658,-0.00002886,-0.00000084,-0.00002
 799,0.00000301,0.00000556,0.00000216,-0.00000181,0.00000654,0.00000362
 ,0.00000622,-0.00001032,0.00001025,-0.00000442,0.00000451,0.00000432,0
 .00000107,0.00000233,-0.00000251,0.00000007,-0.00000298,0.00000065,-0.
 00000005,0.00000604,-0.00000054,0.00000082,-0.00000332,0.00000150,-0.0
 0000126,0.00000536,0.00000715,0.00000079,0.00000171,-0.00000910,0.0000
 1222,0.00000288,-0.00000364,-0.00000053,-0.00006783,0.00001819,0.00005
 419,-0.00115107,-0.00374420,-0.00172420,0.00008277,0.00044780,0.000230
 76,-0.00835782,-0.00071683,0.01012740,0.00914130,-0.00081715,-0.010750
 93,-0.14588627,-0.00670853,0.22478525,-0.00013128,-0.00000824,-0.00001
 931,0.00171379,-0.00113708,-0.00206576,-0.00026261,0.00033457,0.001000
 92,0.00028963,0.00046069,0.00045930,0.00019449,-0.00007866,0.00009063,
 0.00006657,0.00014775,0.00004724,0.00001189,0.00002976,-0.00006781,0.0
 0000525,0.00000186,0.00002017,0.00000166,0.00000181,-0.00000119,0.0000
 0215,-0.00000121,0.00000081,0.00000108,0.00000290,-0.00000255,0.000024
 45,0.00000725,0.00001045,0.00000016,-0.00000250,-0.00000390,-0.0000009
 6,0.00000051,0.00000261,0.00000111,-0.00000045,-0.00000087,-0.00000399
 ,0.00000073,0.00000223,-0.00592470,-0.01960549,-0.02470499,0.00094655,
 -0.00067637,0.00041973,0.00015736,0.00027442,0.00009852,-0.05456135,-0
 .02908098,-0.03915818,0.00000566,0.00018233,-0.00008917,-0.00004212,-0
 .00006593,0.00007436,0.00000051,-0.00000061,0.00000081,0.00000353,0.00
 000124,0.00000159,-0.00000073,0.00000092,-0.00000047,0.00000063,0.0000
 0038,-0.00000019,-0.00000113,0.00000022,0.00000050,-0.00000004,0.00000
 067,0.00000077,0.00000069,-0.00000016,0.00000059,-0.00000019,-0.000000
 13,-0.00000027,0.00000088,0.00000065,-0.00000017,0.00000141,-0.0000015
 4,-0.00000215,-0.00000107,-0.00000014,0.00000105,-0.00583911,0.0011685
 4,-0.00199613,-0.00004119,0.00007003,0.00001878,0.00007438,-0.00003103
 ,0.00020521,0.00019550,0.00063368,-0.00002733,0.00011979,-0.00001076,0
 .00018236,-0.00014930,0.00011746,0.00006342,0.05964696,0.00014205,-0.0
 0043538,-0.00045316,0.00024140,0.00013466,-0.00035492,-0.00038594,0.00
 013645,0.00021966,0.00002543,0.00012761,0.00025455,0.00009284,-0.00014
 006,0.00007625,-0.00023525,0.00009585,0.00012877,0.00001730,0.00001949
 ,-0.00004957,-0.00000934,-0.00000457,0.00001522,0.00000573,-0.00000162
 ,-0.00000137,0.00000208,0.00000056,0.00000100,0.00000664,-0.00000121,-
 0.00000011,-0.00000978,-0.00000740,0.00000351,0.00000171,0.00000168,-0
 .00000489,0.00000066,-0.00000030,0.00000239,0.00000025,0.00000045,-0.0
 0000076,-0.00000130,0.00000003,0.00000289,-0.00006152,0.00318087,0.004
 46073,-0.00034727,0.00026608,0.00059660,0.00040622,-0.00070392,0.00010
 614,-0.02954616,-0.13803552,-0.12706234,-0.00002068,0.00021944,0.00003
 479,-0.00011594,-0.00004870,0.00012166,-0.00000192,-0.00000103,0.00000
 093,0.00000071,0.00000047,0.00000006,0.00000115,-0.00000161,0.00000082
 ,-0.00000024,-0.00000115,-0.00000040,-0.00000137,0.00000127,0.00000074
 ,0.00000068,0.00000082,0.00000098,-0.00000079,-0.00000015,0.00000048,0
 .00000053,-0.00000104,-0.00000011,-0.00000078,-0.00000181,-0.00000103,
 0.00000079,0.00000134,-0.00000441,-0.00000171,0.00000140,0.00000106,0.
 00097362,0.00071485,0.00055459,0.00005626,-0.00005416,0.00001913,-0.00
 007838,0.00002616,-0.00024341,0.00064073,-0.00132156,0.00035344,-0.000
 04431,0.00012364,0.00007327,-0.00003030,-0.00000612,-0.00005539,0.0316
 3632,0.14618407,0.00003801,0.00008463,0.00000990,0.00109752,0.00076722
 ,0.00089274,-0.00057724,-0.00020748,0.00048158,0.00001880,0.00018289,0
 .00020137,0.00013081,0.00009712,-0.00011121,0.00008967,-0.00004540,0.0
 0003480,0.00009508,0.00000795,-0.00001287,-0.00006372,0.00002843,0.000
 00128,0.00001986,0.00000015,-0.00000179,-0.00000859,-0.00000288,-0.000
 00330,0.00002118,-0.00000406,0.00000485,-0.00004875,0.00001097,-0.0000
 0462,-0.00000513,-0.00001743,-0.00001058,0.00000264,0.00000539,0.00000
 769,-0.00000282,-0.00000348,-0.00000089,-0.00000305,0.00000554,0.00000
 349,-0.00154430,-0.00578824,-0.00901102,0.00012599,-0.00104502,-0.0000
 4887,-0.00070819,-0.00044545,-0.00003138,-0.03982307,-0.12630363,-0.21
 887224,-0.00009798,0.00000055,-0.00004680,-0.00000808,-0.00002763,0.00
 002641,-0.00000475,-0.00000281,0.00000175,-0.00000142,0.00000139,-0.00
 000147,0.00000059,0.00000290,-0.00000070,0.00000157,0.00000024,-0.0000
 0189,-0.00000603,0.00000179,0.00000207,0.00000188,0.00000199,0.0000026
 6,-0.00000299,0.00000080,0.00000028,0.00000145,0.00000054,-0.00000096,
 0.00000341,0.00000155,-0.00000223,0.00000109,-0.00000674,-0.00000678,-
 0.00000547,0.00000174,0.00000455,-0.00220330,0.00079964,0.00039845,-0.
 00005754,-0.00002573,0.00007170,0.00002298,0.00021196,0.00016139,0.000
 60595,0.00057037,0.00035556,0.00045713,0.00006756,0.00025578,0.0000846
 7,0.00000492,0.00000125,0.04594537,0.13771372,0.23283561,-0.00172661,0
 .00021525,0.00085165,0.00106198,0.00097322,-0.00033908,-0.00003112,-0.
 00009081,0.00005061,0.00020159,-0.00044474,0.00006274,-0.00019681,0.00
 071390,-0.00029591,0.00091391,-0.00056051,0.00010798,-0.00010013,0.000
 03131,0.00004331,0.00009614,-0.00005202,0.00003848,-0.00000965,-0.0000
 0224,-0.00000932,0.00001610,0.00000159,0.00000569,-0.00003584,0.000006
 37,-0.00001519,0.00007575,-0.00004830,0.00001624,0.00001013,0.00002132
 ,0.00001086,-0.00000362,-0.00000726,-0.00000854,0.00000439,0.00000409,
 -0.00000048,0.00000062,-0.00000551,-0.00000234,-0.00204558,0.03002169,
 -0.00685212,-0.00616915,-0.00107171,-0.00132813,-0.00019616,-0.0005734
 7,-0.00035771,-0.05118997,0.03693298,-0.01006596,-0.00045776,-0.000981
 68,-0.00036369,0.00007249,-0.00023764,-0.00002216,0.00000697,0.0000020
 0,-0.00000004,0.00000685,0.00000051,0.00000380,-0.00000022,-0.00000485
 ,-0.00000020,-0.00000200,-0.00000081,0.00000235,0.00000645,-0.00000161
 ,-0.00000115,-0.00000202,-0.00000055,-0.00000200,0.00000378,-0.0000015
 0,0.00000059,-0.00000133,-0.00000196,0.00000051,-0.00000504,-0.0000026
 4,0.00000286,-0.00000014,0.00000863,0.00000606,0.00000530,-0.00000244,
 -0.00000370,0.00123806,-0.00049410,0.00006038,0.00010834,-0.00010360,-
 0.00017536,-0.00019311,0.00170441,-0.00084039,0.00026239,0.00007281,0.
 00023114,0.00012577,0.00008019,0.00009676,0.00003389,0.00003144,0.0000
 7827,-0.00049105,-0.00536690,0.00213842,0.05560466,-0.00033391,-0.0000
 9129,-0.00022639,-0.00044137,-0.00046330,0.00062941,0.00007110,-0.0000
 1919,-0.00003029,0.00033397,0.00048827,-0.00025216,0.00008587,-0.00091
 425,0.00018485,-0.00087575,0.00081372,-0.00001602,-0.00004913,-0.00003
 705,-0.00003630,0.00000563,0.00002810,-0.00001866,-0.00001786,0.000001
 61,0.00001033,-0.00000203,0.00000073,-0.00000113,0.00000563,-0.0000008
 7,0.00000260,0.00002780,0.00006022,-0.00000596,-0.00000360,-0.00000448
 ,0.00000151,-0.00000188,0.00000044,-0.00000005,0.00000069,-0.00000165,
 0.00000065,-0.00000224,-0.00000082,-0.00000077,-0.00036772,-0.00247240
 ,0.00007028,0.00112530,0.00114558,0.00010368,-0.00022796,0.00016618,0.
 00014355,0.03747348,-0.29393901,0.06832656,-0.00040539,0.00014779,0.00
 014276,0.00016626,-0.00001747,-0.00022429,0.00000182,0.00000067,-0.000
 00203,-0.00000044,-0.00000069,0.00000147,-0.00000277,0.00000519,-0.000
 00116,0.00000179,0.00000307,-0.00000041,0.00000024,-0.00000110,-0.0000
 0034,-0.00000115,-0.00000101,-0.00000022,0.00000153,0.,-0.00000048,-0.
 00000081,0.00000240,-0.00000015,0.00000360,0.00000456,0.00000035,-0.00
 000009,-0.00000476,0.00000340,0.00000005,-0.00000105,-0.00000044,0.000
 32015,0.00066649,0.00006949,-0.00013166,0.00006611,-0.00008484,-0.0000
 9621,-0.00041692,0.00011307,0.00018756,0.00027485,0.00008055,0.0001175
 7,-0.00002459,0.00005759,0.00006319,-0.00002934,-0.00003373,0.00228576
 ,-0.01482240,0.00634734,-0.04070471,0.31486238,0.00006453,0.00042388,0
 .00052585,0.00035144,-0.00030187,0.00022680,-0.00010084,-0.00012823,-0
 .00002987,-0.00013328,-0.00023090,-0.00008503,-0.00007002,0.00034438,-
 0.00012101,0.00035551,-0.00031263,-0.00009410,0.00004759,0.00004373,0.
 00006647,-0.00002604,-0.00000847,-0.00000332,0.00001264,0.00000089,-0.
 00000276,-0.00000223,-0.00000012,-0.00000086,0.00000325,-0.00000043,0.
 00000395,-0.00003344,-0.00003329,-0.00000661,-0.00000061,-0.00000263,-
 0.00000124,0.00000209,0.00000137,0.00000104,-0.00000183,0.00000012,0.0
 0000020,0.00000063,0.00000167,-0.00000038,-0.00023686,0.01029995,-0.00
 466509,-0.00313064,-0.00040551,-0.00037586,-0.00028154,-0.00046734,-0.
 00004636,-0.01000356,0.06800025,-0.06408734,0.00000603,-0.00023703,0.0
 0010977,0.00021142,-0.00003586,-0.00014000,-0.00000190,-0.00000084,0.0
 0000101,-0.00000279,0.00000019,-0.00000258,0.00000145,-0.00000173,-0.0
 0000047,-0.00000062,-0.00000123,0.00000003,-0.00000133,0.00000050,0.00
 000029,0.00000119,0.00000059,0.00000021,-0.00000184,0.00000034,0.00000
 007,0.00000085,-0.00000082,-0.00000020,0.00000023,-0.00000084,0.000000
 06,-0.00000064,-0.00000080,-0.00000182,-0.00000091,0.00000053,0.000001
 02,0.00033513,0.00035430,0.00007573,0.00002341,-0.00037888,0.00042200,
 -0.00028563,0.00094107,-0.00001972,0.00040124,0.00017394,0.00003115,0.
 00022248,0.00007248,0.00013700,-0.00002729,0.00007075,0.00002869,0.003
 96025,-0.02395962,0.00777422,0.01300140,-0.07539542,0.06544113,-0.0001
 7067,0.00045649,-0.00013887,-0.00432305,0.00165893,-0.00438705,0.00022
 240,0.00017397,-0.00012177,-0.00145539,-0.00111126,0.00158693,-0.00056
 026,0.00104509,-0.00032864,0.00042452,-0.00055344,0.00028001,0.0004248
 2,-0.00008942,-0.00010423,-0.00024426,0.00007191,-0.00004611,0.0000669
 4,0.00000931,0.00000691,-0.00003920,-0.00000720,-0.00001221,0.00005395
 ,-0.00001701,0.00003844,-0.00024917,-0.00000872,-0.00003866,-0.0000229
 1,-0.00005017,-0.00003224,0.00001018,0.00001779,0.00002398,-0.00001118
 ,-0.00000782,-0.00000003,-0.00000104,0.00001547,0.00000638,-0.01959063
 ,-0.00655543,0.02299617,0.00135719,-0.00114320,0.00152791,0.00002132,0
 .00034899,-0.00008380,-0.16321571,-0.04098916,0.13097212,0.00014218,-0
 .00006822,-0.00007814,0.00000731,-0.00009376,0.00006679,-0.00002030,-0
 .00000648,0.00000086,-0.00001579,-0.00000041,-0.00001014,0.00000503,0.
 00000408,0.00000047,0.00000206,-0.00000140,-0.00000480,-0.00001728,0.0
 0000464,0.00000304,0.00000591,0.00000303,0.00000532,-0.00000986,0.0000
 0329,-0.00000029,0.00000419,0.00000158,-0.00000121,0.00000611,0.000000
 37,-0.00000614,0.00000110,-0.00001423,-0.00002068,-0.00001324,0.000005
 26,0.00001048,0.00085842,-0.00049262,-0.00010837,0.00017270,0.00069385
 ,-0.00090396,0.00032426,-0.00034871,-0.00026251,-0.00011379,0.00009805
 ,0.00012571,0.00002336,0.00005480,0.00003495,0.00005781,-0.00016087,-0
 .00011300,0.00398475,0.00200677,-0.00573164,0.00300176,0.00138766,-0.0
 0465896,0.17889545,0.00017219,0.00008431,-0.00021328,0.00081889,-0.000
 33815,0.00033466,-0.00009563,0.00002180,0.00028729,0.00041732,0.000537
 39,-0.00000026,0.00017434,-0.00035271,0.00011461,-0.00039479,0.0003452
 2,0.00003125,0.00002592,0.00005511,-0.00005633,-0.00003136,-0.00000523
 ,-0.00000234,0.00000622,0.00000190,0.00000888,-0.00000120,0.00000082,-
 0.00000134,0.00001400,-0.00000095,0.00000703,-0.00002616,-0.00000905,-
 0.00000708,-0.00000286,-0.00000351,-0.00000425,0.00000233,0.00000196,0
 .00000296,-0.00000189,-0.00000010,0.00000035,0.00000015,0.00000122,0.0
 0000052,0.00337954,-0.00040274,-0.00410631,0.00091575,0.00047107,-0.00
 101431,0.00001629,-0.00000310,0.00005620,-0.04175516,-0.05909613,0.045
 00239,0.00017697,0.00033300,0.00019188,0.00002771,-0.00001960,-0.00009
 649,-0.00000270,-0.00000118,0.00000079,-0.00000313,-0.00000029,-0.0000
 0272,0.00000143,-0.00000096,0.00000009,-0.00000023,-0.00000110,-0.0000
 0045,-0.00000222,0.00000095,0.00000034,0.00000141,0.00000033,0.0000004
 4,-0.00000226,0.00000044,-0.00000006,0.00000096,-0.00000046,-0.0000001
 3,0.00000102,-0.00000061,-0.00000062,-0.00000049,-0.00000136,-0.000003
 24,-0.00000158,0.00000139,0.00000122,-0.00035847,0.00004109,0.00028042
 ,-0.00003277,0.00012821,0.00030661,-0.00012990,-0.00001105,-0.00001795
 ,-0.00006425,-0.00005788,-0.00012430,-0.00005759,-0.00001052,0.0000237
 2,-0.00012666,0.00008872,0.00003750,0.01334083,0.00435252,-0.01299335,
 -0.02006012,-0.00547472,0.02117355,0.04365815,0.05932392,-0.00028514,-
 0.00000840,-0.00011777,-0.00183120,0.00059802,-0.00042233,-0.00021082,
 0.00016805,0.00029910,-0.00057749,-0.00003309,0.00067234,-0.00022557,0
 .00023440,-0.00014069,0.00034840,-0.00013849,0.00016915,0.00002452,-0.
 00003769,-0.00009614,0.00000908,0.00000862,0.00001028,-0.00000285,0.00
 000640,-0.00000502,-0.00000102,-0.00000108,0.00000166,-0.00001536,0.00
 000433,0.00000291,0.00002266,-0.00000588,0.00001153,-0.00000058,0.0000
 0264,-0.00000048,-0.00000256,-0.00000083,0.00000017,0.00000212,0.00000
 095,-0.00000031,-0.00000152,-0.00000131,0.00000017,-0.00880829,-0.0027
 8685,0.00859244,-0.00037604,-0.00004845,0.00085297,0.00016324,-0.00012
 242,0.00004780,0.13216130,0.04468842,-0.19016647,0.00004948,-0.0000520
 8,-0.00007325,-0.00001789,-0.00004427,0.00007066,0.00000063,0.00000106
 ,-0.00000154,0.00000271,-0.00000034,0.00000192,-0.00000083,-0.00000028
 ,-0.00000004,-0.00000013,0.00000039,0.00000067,0.00000103,-0.00000069,
 -0.00000072,-0.00000127,-0.00000039,-0.00000045,0.00000246,-0.00000039
 ,0.00000029,-0.00000111,-0.00000010,0.00000025,-0.00000134,-0.00000040
 ,0.00000073,0.00000054,0.00000192,0.00000087,0.00000102,-0.00000117,-0
 .00000104,0.00050027,-0.00020315,0.00068832,0.00029332,-0.00019088,-0.
 00003301,-0.00002301,-0.00020999,0.00011298,0.00006196,-0.00008957,-0.
 00019573,-0.00001250,-0.00002490,0.00002892,-0.00016136,0.00001588,-0.
 00004356,0.01553279,0.00744811,-0.01535977,0.00387339,0.00004178,-0.00
 516204,-0.14049303,-0.04921787,0.20025421\\-0.00246464,-0.00392162,-0.
 00012025,-0.01405148,-0.00892986,-0.00474097,0.00442695,-0.00090739,0.
 00063359,0.00542976,0.00085405,-0.00065979,0.00384014,0.03111198,-0.00
 412702,0.01178804,-0.01747120,0.00764682,0.00124117,0.02939462,-0.0038
 8064,-0.00575164,0.00401332,-0.00040011,0.01166288,-0.01069146,0.00105
 983,-0.00170300,-0.00083949,-0.00088975,0.00162552,-0.00323648,0.00183
 881,-0.01440315,-0.01520687,0.00137191,0.00127334,-0.00310850,-0.00302
 149,-0.00012688,0.00144356,0.00150630,-0.00034723,-0.00109186,-0.00000
 302,-0.00048423,0.00197627,0.00187933,0.00060630,0.00034995,0.00307166
 ,-0.00236846,-0.00127345,-0.00232300,-0.00026457,-0.00042172,-0.001234
 39,0.00055264,0.00019347,-0.00162740,0.00079111,-0.00094073,0.00033286
 ,0.00089411,-0.00067014,0.00052250,-0.00083204,-0.00130461,-0.00003059
 ,-0.00077391,-0.00022330,-0.00029958,-0.00110604,0.00035499,0.00084773
 ,0.00069452,0.00039485,-0.00036782,-0.00111833,0.00014329,0.00026926,0
 .00019659,0.00024470,0.00044542,-0.00018547,0.00030439,0.00002323,-0.0
 0029139,0.00033736,-0.00020643,0.00039915,0.00063097,-0.00064028,-0.00
 045506,-0.00199001,-0.00274064,-0.00132912,-0.00011967,0.00080458,-0.0
 0035073,0.00050103,0.00057931,0.00141769,0.00104925,0.00055051,0.00041
 992,-0.00113602,0.00253669,-0.00020626,0.00035634,0.00089217,0.0002002
 0,0.00051257,0.00014505,0.00026336,-0.00095371,-0.00016051,0.00034638,
 0.00003211,0.00040258,-0.00027266,0.00015700,0.00010615,0.00081652,0.0
 0008206,0.00000736\\\@

 Writing a WFNX file to "05_sub.wfx"


 DON'T WORRY CHARLIE BROWN...WE LEARN MORE FROM LOSING 
 THAN WE DO FROM WINNING.
 THEN THAT MAKES ME THE SMARTEST PERSON IN THE WORLD...
 CHARLES SCHULZ 'PEANUTS'
 Job cpu time:       0 days  2 hours 35 minutes  4.4 seconds.
 Elapsed time:       0 days  0 hours 19 minutes 23.1 seconds.
 File lengths (MBytes):  RWF=    630 Int=      0 D2E=      0 Chk=     11 Scr=      1
 Normal termination of Gaussian 16 at Mon Jan 23 09:06:31 2023.
