 Entering Gaussian System, Link 0=g16
 Initial command:
 /software/gaussian/G16-A.03/avx2/g16/l1.exe "/scratch/lcmd/5712523.slurm/Gau-173121.inp" -scrdir="/scratch/lcmd/5712523.slurm/"
 Entering Link 1 = /software/gaussian/G16-A.03/avx2/g16/l1.exe PID=    173132.
  
 Copyright (c) 1988,1990,1992,1993,1995,1998,2003,2009,2016,
            Gaussian, Inc.  All Rights Reserved.
  
 This is part of the Gaussian(R) 16 program.  It is based on
 the Gaussian(R) 09 system (copyright 2009, Gaussian, Inc.),
 the Gaussian(R) 03 system (copyright 2003, Gaussian, Inc.),
 the Gaussian(R) 98 system (copyright 1998, Gaussian, Inc.),
 the Gaussian(R) 94 system (copyright 1995, Gaussian, Inc.),
 the Gaussian 92(TM) system (copyright 1992, Gaussian, Inc.),
 the Gaussian 90(TM) system (copyright 1990, Gaussian, Inc.),
 the Gaussian 88(TM) system (copyright 1988, Gaussian, Inc.),
 the Gaussian 86(TM) system (copyright 1986, Carnegie Mellon
 University), and the Gaussian 82(TM) system (copyright 1983,
 Carnegie Mellon University). Gaussian is a federally registered
 trademark of Gaussian, Inc.
  
 This software contains proprietary and confidential information,
 including trade secrets, belonging to Gaussian, Inc.
  
 This software is provided under written license and may be
 used, copied, transmitted, or stored only in accord with that
 written license.
  
 The following legend is applicable only to US Government
 contracts under FAR:
  
                    RESTRICTED RIGHTS LEGEND
  
 Use, reproduction and disclosure by the US Government is
 subject to restrictions as set forth in subparagraphs (a)
 and (c) of the Commercial Computer Software - Restricted
 Rights clause in FAR 52.227-19.
  
 Gaussian, Inc.
 340 Quinnipiac St., Bldg. 40, Wallingford CT 06492
  
  
 ---------------------------------------------------------------
 Warning -- This program may not be used in any manner that
 competes with the business of Gaussian, Inc. or will provide
 assistance to any competitor of Gaussian, Inc.  The licensee
 of this program is prohibited from giving any competitor of
 Gaussian, Inc. access to this program.  By using this program,
 the user acknowledges that Gaussian, Inc. is engaged in the
 business of creating and licensing software in the field of
 computational chemistry and represents and warrants to the
 licensee that it is not a competitor of Gaussian, Inc. and that
 it will not use this program in any manner prohibited above.
 ---------------------------------------------------------------
  

 Cite this work as:
 Gaussian 16, Revision A.03,
 M. J. Frisch, G. W. Trucks, H. B. Schlegel, G. E. Scuseria, 
 M. A. Robb, J. R. Cheeseman, G. Scalmani, V. Barone, 
 G. A. Petersson, H. Nakatsuji, X. Li, M. Caricato, A. V. Marenich, 
 J. Bloino, B. G. Janesko, R. Gomperts, B. Mennucci, H. P. Hratchian, 
 J. V. Ortiz, A. F. Izmaylov, J. L. Sonnenberg, D. Williams-Young, 
 F. Ding, F. Lipparini, F. Egidi, J. Goings, B. Peng, A. Petrone, 
 T. Henderson, D. Ranasinghe, V. G. Zakrzewski, J. Gao, N. Rega, 
 G. Zheng, W. Liang, M. Hada, M. Ehara, K. Toyota, R. Fukuda, 
 J. Hasegawa, M. Ishida, T. Nakajima, Y. Honda, O. Kitao, H. Nakai, 
 T. Vreven, K. Throssell, J. A. Montgomery, Jr., J. E. Peralta, 
 F. Ogliaro, M. J. Bearpark, J. J. Heyd, E. N. Brothers, K. N. Kudin, 
 V. N. Staroverov, T. A. Keith, R. Kobayashi, J. Normand, 
 K. Raghavachari, A. P. Rendell, J. C. Burant, S. S. Iyengar, 
 J. Tomasi, M. Cossi, J. M. Millam, M. Klene, C. Adamo, R. Cammi, 
 J. W. Ochterski, R. L. Martin, K. Morokuma, O. Farkas, 
 J. B. Foresman, and D. J. Fox, Gaussian, Inc., Wallingford CT, 2016.
 
 ******************************************
 Gaussian 16:  ES64L-G16RevA.03 25-Dec-2016
                15-Jan-2023 
 ******************************************
 %nprocs=8
 Will use up to    8 processors via shared memory.
 %mem=32000MB
 %chk=07_sub.chk
 ----------------------------------------------------------------------
 #p pop=(regular,nbo,savenbos) freq=noraman def2svp empiricaldispersion
 =gd3bj output=wfx pbe1pbe
 ----------------------------------------------------------------------
 1/10=4,30=1,38=1/1,3;
 2/12=2,17=6,18=5,40=1/2;
 3/5=43,7=101,11=2,25=1,30=1,71=2,74=-13,124=41,140=1/1,2,3;
 4//1;
 5/5=2,38=5,98=1/2;
 8/6=4,10=90,11=11/1;
 11/6=1,8=1,9=11,15=111,16=1/1,2,10;
 10/6=1/2;
 6/28=1,40=1,73=1/1,7;
 7/8=1,10=1,25=1/1,2,3,16;
 1/10=4,30=1/3;
 99/6=200/99;
 Leave Link    1 at Sun Jan 15 17:39:52 2023, MaxMem=  4194304000 cpu:               0.4 elap:               0.1
 (Enter /software/gaussian/G16-A.03/avx2/g16/l101.exe)
 ------
 07_sub
 ------
 Symbolic Z-matrix:
 Charge =  0 Multiplicity = 1
 C                     2.48873   2.409     0.82134 
 C                     2.54237   0.89663   0.48307 
 H                     2.73424   0.26749   1.36719 
 N                     1.16818   0.62914   0.07014 
 C                     0.53157   1.73346   0.06657 
 O                     1.15626   2.83477   0.42706 
 C                    -0.89276   1.67199  -0.30208 
 N                    -1.42053   0.51189  -0.36727 
 C                    -2.82059   0.6787   -0.73762 
 H                    -2.98523   0.11074  -1.66777 
 C                    -2.92239   2.21276  -0.95615 
 O                    -1.62016   2.73124  -0.58088 
 C                    -3.77664   0.17536   0.32432 
 C                    -3.3867    0.13373   1.77501 
 C                    -3.5833   -1.13947   1.00615 
 C                     3.52316   0.54091  -0.6022 
 C                     3.84821  -0.90075  -0.85213 
 C                     4.8731   -0.00624  -0.22884 
 H                     3.2136    3.00323   0.24885 
 H                     2.59866   2.62946   1.89195 
 H                    -3.66897   2.68752  -0.30513 
 H                    -3.10312   2.5036   -2.0002 
 H                    -4.81117   0.46082   0.10135 
 H                    -4.13169   0.42537   2.51952 
 H                    -2.3589    0.40114   2.0377 
 H                    -4.47691  -1.7345    1.20964 
 H                    -2.70625  -1.72997   0.72486 
 H                     3.47431   1.20105  -1.47649 
 H                     3.99184  -1.20816  -1.89058 
 H                     3.33778  -1.6361   -0.2214 
 H                     5.73388   0.3074   -0.82449 
 H                     5.08897  -0.14156   0.83511 
 
 ITRead=  0  0  0  0  0  0  0  0  0  0  0  0  0  0  0  0  0  0  0  0
 ITRead=  0  0  0  0  0  0  0  0  0  0  0  0
 MicOpt= -1 -1 -1 -1 -1 -1 -1 -1 -1 -1 -1 -1 -1 -1 -1 -1 -1 -1 -1 -1
 MicOpt= -1 -1 -1 -1 -1 -1 -1 -1 -1 -1 -1 -1
 NAtoms=     32 NQM=       32 NQMF=       0 NMMI=      0 NMMIF=      0
                NMic=       0 NMicF=      0.
                    Isotopes and Nuclear Properties:
 (Nuclear quadrupole moments (NQMom) in fm**2, nuclear magnetic moments (NMagM)
  in nuclear magnetons)

  Atom         1           2           3           4           5           6           7           8           9          10
 IAtWgt=          12          12           1          14          12          16          12          14          12           1
 AtmWgt=  12.0000000  12.0000000   1.0078250  14.0030740  12.0000000  15.9949146  12.0000000  14.0030740  12.0000000   1.0078250
 NucSpn=           0           0           1           2           0           0           0           2           0           1
 AtZEff=  -0.0000000  -0.0000000  -0.0000000  -0.0000000  -0.0000000  -0.0000000  -0.0000000  -0.0000000  -0.0000000  -0.0000000
 NQMom=    0.0000000   0.0000000   0.0000000   2.0440000   0.0000000   0.0000000   0.0000000   2.0440000   0.0000000   0.0000000
 NMagM=    0.0000000   0.0000000   2.7928460   0.4037610   0.0000000   0.0000000   0.0000000   0.4037610   0.0000000   2.7928460
 AtZNuc=   6.0000000   6.0000000   1.0000000   7.0000000   6.0000000   8.0000000   6.0000000   7.0000000   6.0000000   1.0000000

  Atom        11          12          13          14          15          16          17          18          19          20
 IAtWgt=          12          16          12          12          12          12          12          12           1           1
 AtmWgt=  12.0000000  15.9949146  12.0000000  12.0000000  12.0000000  12.0000000  12.0000000  12.0000000   1.0078250   1.0078250
 NucSpn=           0           0           0           0           0           0           0           0           1           1
 AtZEff=  -0.0000000  -0.0000000  -0.0000000  -0.0000000  -0.0000000  -0.0000000  -0.0000000  -0.0000000  -0.0000000  -0.0000000
 NQMom=    0.0000000   0.0000000   0.0000000   0.0000000   0.0000000   0.0000000   0.0000000   0.0000000   0.0000000   0.0000000
 NMagM=    0.0000000   0.0000000   0.0000000   0.0000000   0.0000000   0.0000000   0.0000000   0.0000000   2.7928460   2.7928460
 AtZNuc=   6.0000000   8.0000000   6.0000000   6.0000000   6.0000000   6.0000000   6.0000000   6.0000000   1.0000000   1.0000000

  Atom        21          22          23          24          25          26          27          28          29          30
 IAtWgt=           1           1           1           1           1           1           1           1           1           1
 AtmWgt=   1.0078250   1.0078250   1.0078250   1.0078250   1.0078250   1.0078250   1.0078250   1.0078250   1.0078250   1.0078250
 NucSpn=           1           1           1           1           1           1           1           1           1           1
 AtZEff=  -0.0000000  -0.0000000  -0.0000000  -0.0000000  -0.0000000  -0.0000000  -0.0000000  -0.0000000  -0.0000000  -0.0000000
 NQMom=    0.0000000   0.0000000   0.0000000   0.0000000   0.0000000   0.0000000   0.0000000   0.0000000   0.0000000   0.0000000
 NMagM=    2.7928460   2.7928460   2.7928460   2.7928460   2.7928460   2.7928460   2.7928460   2.7928460   2.7928460   2.7928460
 AtZNuc=   1.0000000   1.0000000   1.0000000   1.0000000   1.0000000   1.0000000   1.0000000   1.0000000   1.0000000   1.0000000

  Atom        31          32
 IAtWgt=           1           1
 AtmWgt=   1.0078250   1.0078250
 NucSpn=           1           1
 AtZEff=  -0.0000000  -0.0000000
 NQMom=    0.0000000   0.0000000
 NMagM=    2.7928460   2.7928460
 AtZNuc=   1.0000000   1.0000000
 Leave Link  101 at Sun Jan 15 17:39:54 2023, MaxMem=  4194304000 cpu:               1.1 elap:               0.9
 (Enter /software/gaussian/G16-A.03/avx2/g16/l103.exe)

 GradGradGradGradGradGradGradGradGradGradGradGradGradGradGradGradGradGrad
 Berny optimization.
 Initialization pass.
 Trust Radius=3.00D-01 FncErr=1.00D-07 GrdErr=1.00D-07 EigMax=2.50D+02 EigMin=1.00D-04
 Number of steps in this run=      2 maximum allowed number of steps=      2.
 GradGradGradGradGradGradGradGradGradGradGradGradGradGradGradGradGradGrad

 Leave Link  103 at Sun Jan 15 17:39:55 2023, MaxMem=  4194304000 cpu:               0.2 elap:               0.0
 (Enter /software/gaussian/G16-A.03/avx2/g16/l202.exe)
                          Input orientation:                          
 ---------------------------------------------------------------------
 Center     Atomic      Atomic             Coordinates (Angstroms)
 Number     Number       Type             X           Y           Z
 ---------------------------------------------------------------------
      1          6           0        2.488730    2.409000    0.821340
      2          6           0        2.542370    0.896630    0.483070
      3          1           0        2.734240    0.267490    1.367190
      4          7           0        1.168180    0.629140    0.070140
      5          6           0        0.531570    1.733460    0.066570
      6          8           0        1.156260    2.834770    0.427060
      7          6           0       -0.892760    1.671990   -0.302080
      8          7           0       -1.420530    0.511890   -0.367270
      9          6           0       -2.820590    0.678700   -0.737620
     10          1           0       -2.985230    0.110740   -1.667770
     11          6           0       -2.922390    2.212760   -0.956150
     12          8           0       -1.620160    2.731240   -0.580880
     13          6           0       -3.776640    0.175360    0.324320
     14          6           0       -3.386700    0.133730    1.775010
     15          6           0       -3.583300   -1.139470    1.006150
     16          6           0        3.523160    0.540910   -0.602200
     17          6           0        3.848210   -0.900750   -0.852130
     18          6           0        4.873100   -0.006240   -0.228840
     19          1           0        3.213600    3.003230    0.248850
     20          1           0        2.598660    2.629460    1.891950
     21          1           0       -3.668970    2.687520   -0.305130
     22          1           0       -3.103120    2.503600   -2.000200
     23          1           0       -4.811170    0.460820    0.101350
     24          1           0       -4.131690    0.425370    2.519520
     25          1           0       -2.358900    0.401140    2.037700
     26          1           0       -4.476910   -1.734500    1.209640
     27          1           0       -2.706250   -1.729970    0.724860
     28          1           0        3.474310    1.201050   -1.476490
     29          1           0        3.991840   -1.208160   -1.890580
     30          1           0        3.337780   -1.636100   -0.221400
     31          1           0        5.733880    0.307400   -0.824490
     32          1           0        5.088970   -0.141560    0.835110
 ---------------------------------------------------------------------
                    Distance matrix (angstroms):
                    1          2          3          4          5
     1  C    0.000000
     2  C    1.550667   0.000000
     3  H    2.223577   1.101953   0.000000
     4  N    2.340097   1.459610   2.065351   0.000000
     5  C    2.203748   2.217447   2.948294   1.274679   0.000000
     6  O    1.453345   2.383448   3.156706   2.234354   1.316463
     7  C    3.638644   3.608014   4.232518   2.339564   1.472548
     8  N    4.504901   4.071324   4.508902   2.628021   2.343319
     9  C    5.797687   5.504445   5.954448   4.070039   3.605027
    10  H    6.437539   5.983151   6.476719   4.532095   4.243706
    11  C    5.698965   5.802340   6.417121   4.504874   3.633941
    12  O    4.353509   4.671663   5.368970   3.552111   2.458597
    13  C    6.670160   6.362022   6.594515   4.972099   4.588549
    14  C    6.372364   6.115962   6.135969   4.888655   4.564071
    15  C    7.035293   6.476353   6.482376   5.155643   5.105751
    16  C    2.566373   1.505422   2.139077   2.450664   3.289231
    17  C    3.950080   2.592017   2.744284   3.220824   4.333956
    18  C    3.552673   2.598902   2.682715   3.770879   4.686439
    19  H    1.098313   2.223325   2.994118   3.138787   2.973016
    20  H    1.098587   2.234012   2.423357   3.060481   2.899602
    21  H    6.266081   6.512242   7.046581   5.270273   4.323532
    22  H    6.264090   6.373424   7.100301   5.103324   4.251544
    23  H    7.589620   7.376326   7.653296   5.981800   5.492330
    24  H    7.116780   6.993732   6.963748   5.842055   5.429001
    25  H    5.386144   5.165736   5.138825   4.045191   3.743694
    26  H    8.114155   7.531337   7.485551   6.225134   6.198244
    27  H    6.642906   5.874138   5.831069   4.583150   4.786666
    28  H    2.776785   2.191132   3.083140   2.835028   3.365147
    29  H    4.764210   3.487882   3.791064   3.897839   4.945405
    30  H    4.262749   2.746575   2.551771   3.150154   4.394505
    31  H    4.201961   3.498949   3.715225   4.663635   5.467327
    32  H    3.642361   2.772534   2.448507   4.068384   4.987609
                    6          7          8          9         10
     6  O    0.000000
     7  C    2.466209   0.000000
     8  N    3.559014   1.276175   0.000000
     9  C    4.671237   2.211978   1.457790   0.000000
    10  H    5.381505   2.946361   2.073767   1.102209   0.000000
    11  C    4.351500   2.199918   2.344210   1.552887   2.220099
    12  O    2.955532   1.314858   2.238525   2.382965   3.148296
    13  C    5.605044   3.308934   2.478468   1.514959   2.144511
    14  C    5.454454   3.591696   2.932268   2.632638   3.466185
    15  C    6.212355   4.105457   3.048089   2.632148   3.011737
    16  C    3.453026   4.568344   4.949354   6.346691   6.609056
    17  C    4.778811   5.422024   5.476337   6.854245   6.955881
    18  C    4.724028   6.005578   6.316439   7.740857   7.989841
    19  H    2.071904   4.351772   5.297314   6.541255   7.103902
    20  H    2.066052   4.233265   5.073664   6.331538   7.084870
    21  H    4.882687   2.956121   3.129331   2.223096   2.994008
    22  H    4.913612   2.908759   3.076439   2.237005   2.418716
    23  H    6.430548   4.121119   3.423252   2.171117   2.566398
    24  H    6.176246   4.472824   3.961241   3.520244   4.352788
    25  H    4.568705   3.039605   2.583928   2.827118   3.769235
    26  H    7.295428   5.170648   4.107843   3.515502   3.729545
    27  H    5.987029   3.989572   2.805666   2.820215   3.031620
    28  H    3.415538   4.546683   5.066041   6.359603   6.553703
    29  H    5.455021   5.888796   5.879863   7.162315   7.104129
    30  H    5.016793   5.370981   5.222706   6.599265   6.717432
    31  H    5.376670   6.785822   7.171921   8.562965   8.762002
    32  H    4.948864   6.353209   6.651790   8.106013   8.456995
                   11         12         13         14         15
    11  C    0.000000
    12  O    1.451018   0.000000
    13  C    2.553497   3.464436   0.000000
    14  C    3.463695   3.926568   1.502760   0.000000
    15  C    3.940161   4.621145   1.493670   1.500278   0.000000
    16  C    6.668244   5.590326   7.367438   7.318681   7.477449
    17  C    7.452905   6.570236   7.789762   7.766334   7.664042
    18  C    8.137727   7.055505   8.669312   8.500547   8.620911
    19  H    6.302955   4.911992   7.540955   7.357116   7.995831
    20  H    6.226340   4.891185   7.008889   6.485898   7.294251
    21  H    1.098456   2.067746   2.592055   3.305829   4.046313
    22  H    1.098768   2.065299   3.358232   4.466420   4.747702
    23  H    2.784796   3.975272   1.096109   2.221990   2.210714
    24  H    4.091143   4.608394   2.237737   1.092867   2.244938
    25  H    3.544379   3.582187   2.235315   1.094023   2.221875
    26  H    4.763196   5.595518   2.218498   2.235729   1.092707
    27  H    4.291577   4.773567   2.221812   2.244817   1.094089
    28  H    6.497083   5.394184   7.541302   7.667130   7.839094
    29  H    7.770613   6.980597   8.195681   8.347459   8.110395
    30  H    7.385344   6.616952   7.361669   7.234403   7.046621
    31  H    8.864465   7.747016   9.580563   9.485386   9.604922
    32  H    8.540101   7.434409   8.885966   8.532068   8.731171
                   16         17         18         19         20
    16  C    0.000000
    17  C    1.498835   0.000000
    18  C    1.503698   1.496342   0.000000
    19  H    2.623573   4.105599   3.469732   0.000000
    20  H    3.381941   4.642600   4.076486   1.793776   0.000000
    21  H    7.511519   8.347628   8.957071   6.912043   6.641816
    22  H    7.050826   7.824874   8.547345   6.723750   6.904706
    23  H    8.364356   8.817475   9.701147   8.419177   7.925581
    24  H    8.267721   8.763870   9.424755   8.108920   7.109815
    25  H    6.448817   6.969523   7.589795   6.404968   5.437284
    26  H    8.512425   8.617056   9.616590   9.083675   8.341066
    27  H    6.761918   6.792308   7.831177   7.594366   6.964826
    28  H    1.096610   2.224228   2.229528   2.508510   3.762115
    29  H    2.222348   1.092478   2.232176   4.787340   5.565592
    30  H    2.217825   1.095034   2.239131   4.664755   4.817421
    31  H    2.234104   2.239674   1.092754   3.843354   4.754010
    32  H    2.232350   2.227697   1.094030   3.708156   3.872610
                   21         22         23         24         25
    21  H    0.000000
    22  H    1.796462   0.000000
    23  H    2.535358   3.392182   0.000000
    24  H    3.648298   5.079849   2.512070   0.000000
    25  H    3.525999   4.612899   3.125163   1.837259   0.000000
    26  H    4.743581   5.491071   2.481827   2.549510   3.119713
    27  H    4.637017   5.050403   3.101453   3.146136   2.527020
    28  H    7.389731   6.725585   8.466800   8.626761   6.856801
    29  H    8.739450   8.007973   9.178576   9.386647   7.638922
    30  H    8.233787   7.860435   8.420607   8.219202   6.458022
    31  H    9.713305   9.181403  10.586727  10.417571   8.584521
    32  H    9.273907   9.063454   9.945554   9.390379   7.563829
                   26         27         28         29         30
    26  H    0.000000
    27  H    1.835829   0.000000
    28  H    8.891268   7.185829   0.000000
    29  H    9.033722   7.209523   2.498720   0.000000
    30  H    7.945246   6.118375   3.105368   1.843119   0.000000
    31  H   10.609773   8.819703   2.515824   2.543260   3.143597
    32  H    9.704833   7.956171   3.123015   3.125814   2.533087
                   31         32
    31  H    0.000000
    32  H    1.836232   0.000000
 Stoichiometry    C12H16N2O2
 Framework group  C1[X(C12H16N2O2)]
 Deg. of freedom    90
 Full point group                 C1      NOp   1
 Largest Abelian subgroup         C1      NOp   1
 Largest concise Abelian subgroup C1      NOp   1
                         Standard orientation:                         
 ---------------------------------------------------------------------
 Center     Atomic      Atomic             Coordinates (Angstroms)
 Number     Number       Type             X           Y           Z
 ---------------------------------------------------------------------
      1          6           0       -2.445327   -1.338784    1.119004
      2          6           0       -2.520940    0.114857    0.584422
      3          1           0       -2.662883    0.858007    1.385596
      4          7           0       -1.173171    0.316361    0.061567
      5          6           0       -0.535876   -0.782239    0.169920
      6          8           0       -1.136923   -1.821517    0.710031
      7          6           0        0.864852   -0.779252   -0.284338
      8          7           0        1.385975    0.358460   -0.534665
      9          6           0        2.762776    0.135150   -0.958580
     10          1           0        2.872791    0.572256   -1.964412
     11          6           0        2.854567   -1.414938   -0.974681
     12          8           0        1.576921   -1.870639   -0.459503
     13          6           0        3.777282    0.770641   -0.030125
     14          6           0        3.471128    1.008755    1.421722
     15          6           0        3.621063    2.166157    0.478972
     16          6           0       -3.562992    0.327671   -0.481004
     17          6           0       -3.904376    1.724706   -0.903208
     18          6           0       -4.890252    0.927984   -0.108022
     19          1           0       -3.200799   -2.000085    0.673769
     20          1           0       -2.493276   -1.413025    2.214030
     21          1           0        3.638095   -1.802551   -0.309515
     22          1           0        2.975620   -1.844230   -1.978846
     23          1           0        4.797818    0.451697   -0.271446
     24          1           0        4.258109    0.815152    2.154890
     25          1           0        2.460560    0.785119    1.776161
     26          1           0        4.523828    2.777763    0.549414
     27          1           0        2.728286    2.718821    0.171495
     28          1           0       -3.563215   -0.444028   -1.260129
     29          1           0       -4.107878    1.890935   -1.963616
     30          1           0       -3.359898    2.534939   -0.407057
     31          1           0       -5.783230    0.542438   -0.606072
     32          1           0       -5.044972    1.206042    0.938710
 ---------------------------------------------------------------------
 Rotational constants (GHZ):           1.0831460           0.2644740           0.2383359
 Leave Link  202 at Sun Jan 15 17:39:55 2023, MaxMem=  4194304000 cpu:               0.6 elap:               0.7
 (Enter /software/gaussian/G16-A.03/avx2/g16/l301.exe)
 Standard basis: def2SVP (5D, 7F)
 Ernie: Thresh=  0.10000D-02 Tol=  0.10000D-05 Strict=F.
 There are   320 symmetry adapted cartesian basis functions of A   symmetry.
 There are   304 symmetry adapted basis functions of A   symmetry.
   304 basis functions,   512 primitive gaussians,   320 cartesian basis functions
    59 alpha electrons       59 beta electrons
       nuclear repulsion energy      1097.3818489983 Hartrees.
 IExCor= 1009 DFT=T Ex+Corr=PBE1PBE ExCW=0 ScaHFX=  0.250000
 ScaDFX=  0.750000  0.750000  1.000000  1.000000 ScalE2=  1.000000  1.000000
 IRadAn=      5 IRanWt=     -1 IRanGd=            0 ICorTp=0 IEmpDi=141
 NAtoms=   32 NActive=   32 NUniq=   32 SFac= 1.00D+00 NAtFMM=   60 NAOKFM=F Big=F
 Integral buffers will be    131072 words long.
 Raffenetti 2 integral format.
 Two-electron integral symmetry is turned on.
 R6Disp:  Grimme-D3(BJ) Dispersion energy=       -0.0287534112 Hartrees.
 Nuclear repulsion after empirical dispersion term =     1097.3530955872 Hartrees.
 Leave Link  301 at Sun Jan 15 17:39:57 2023, MaxMem=  4194304000 cpu:               0.5 elap:               0.8
 (Enter /software/gaussian/G16-A.03/avx2/g16/l302.exe)
 NPDir=0 NMtPBC=     1 NCelOv=     1 NCel=       1 NClECP=     1 NCelD=      1
         NCelK=      1 NCelE2=     1 NClLst=     1 CellRange=     0.0.
 One-electron integrals computed using PRISM.
 One-electron integral symmetry used in STVInt
   1 Symmetry operations used in ECPInt.
 ECPInt:  NShTT=   10440 NPrTT=   37384 LenC2=    9458 LenP2D=   24219.
 LDataN:  DoStor=T MaxTD1= 4 Len=   56
 NBasis=   304 RedAO= T EigKep=  8.87D-04  NBF=   304
 NBsUse=   304 1.00D-06 EigRej= -1.00D+00 NBFU=   304
 Precomputing XC quadrature grid using
 IXCGrd= 4 IRadAn=           5 IRanWt=          -1 IRanGd=           0 AccXCQ= 0.00D+00.
 Generated NRdTot=       0 NPtTot=           0 NUsed=           0 NTot=          32
 NSgBfM=   317   317   317   317   317 MxSgAt=    32 MxSgA2=    32.
 Leave Link  302 at Sun Jan 15 17:39:59 2023, MaxMem=  4194304000 cpu:              10.0 elap:               1.5
 (Enter /software/gaussian/G16-A.03/avx2/g16/l303.exe)
 DipDrv:  MaxL=1.
 Leave Link  303 at Sun Jan 15 17:40:03 2023, MaxMem=  4194304000 cpu:               0.6 elap:               0.4
 (Enter /software/gaussian/G16-A.03/avx2/g16/l401.exe)
 ExpMin= 1.22D-01 ExpMax= 2.27D+03 ExpMxC= 3.41D+02 IAcc=3 IRadAn=         5 AccDes= 0.00D+00
 Harris functional with IExCor= 1009 and IRadAn=       5 diagonalized for initial guess.
 HarFok:  IExCor= 1009 AccDes= 0.00D+00 IRadAn=         5 IDoV= 1 UseB2=F ITyADJ=14
 ICtDFT=  3500011 ScaDFX=  1.000000  1.000000  1.000000  1.000000
 FoFCou: FMM=F IPFlag=           0 FMFlag=      100000 FMFlg1=           0
         NFxFlg=           0 DoJE=T BraDBF=F KetDBF=T FulRan=T
         wScrn=  0.000000 ICntrl=       500 IOpCl=  0 I1Cent=   200000004 NGrid=           0
         NMat0=    1 NMatS0=      1 NMatT0=    0 NMatD0=    1 NMtDS0=    0 NMtDT0=    0
 Petite list used in FoFCou.
 Harris En= -725.579047061162    
 JPrj=0 DoOrth=F DoCkMO=F.
 Leave Link  401 at Sun Jan 15 17:40:08 2023, MaxMem=  4194304000 cpu:              12.4 elap:               2.9
 (Enter /software/gaussian/G16-A.03/avx2/g16/l502.exe)
 Integral symmetry usage will be decided dynamically.
 Closed shell SCF:
 Using DIIS extrapolation, IDIIS=  1040.
 NGot=  4194304000 LenX=  4194093108 LenY=  4193990267
 Requested convergence on RMS density matrix=1.00D-08 within 128 cycles.
 Requested convergence on MAX density matrix=1.00D-06.
 Requested convergence on             energy=1.00D-06.
 No special actions if energy rises.
 Fock matrices will be formed incrementally for  20 cycles.
 Integral accuracy reduced to 1.0D-05 until final iterations.

 Cycle   1  Pass 0  IDiag  1:
 FoFJK:  IHMeth= 1 ICntrl=       0 DoSepK=F KAlg= 0 I1Cent=           0 FoldK=F
 IRaf= 840000000 NMat=       1 IRICut=       1 DoRegI=T DoRafI=F ISym2E= 0 IDoP0=0 IntGTp=1.
 FoFCou: FMM=F IPFlag=           0 FMFlag=      100000 FMFlg1=           0
         NFxFlg=           0 DoJE=F BraDBF=F KetDBF=F FulRan=T
         wScrn=  0.000000 ICntrl=         0 IOpCl=  0 I1Cent=           0 NGrid=           0
         NMat0=    1 NMatS0=      1 NMatT0=    0 NMatD0=    1 NMtDS0=    0 NMtDT0=    0
 Symmetry not used in FoFCou.
 E= -725.129939591873    
 DIIS: error= 2.71D-02 at cycle   1 NSaved=   1.
 NSaved= 1 IEnMin= 1 EnMin= -725.129939591873     IErMin= 1 ErrMin= 2.71D-02
 ErrMax= 2.71D-02  0.00D+00 EMaxC= 1.00D-01 BMatC= 2.89D-01 BMatP= 2.89D-01
 IDIUse=3 WtCom= 7.29D-01 WtEn= 2.71D-01
 Coeff-Com:  0.100D+01
 Coeff-En:   0.100D+01
 Coeff:      0.100D+01
 Gap=     0.175 Goal=   None    Shift=    0.000
 GapD=    0.175 DampG=1.000 DampE=0.500 DampFc=0.5000 IDamp=-1.
 Damping current iteration by 5.00D-01
 RMSDP=5.30D-03 MaxDP=1.61D-01              OVMax= 2.59D-01

 Cycle   2  Pass 0  IDiag  1:
 RMSU=  2.64D-03    CP:  9.91D-01
 E= -725.235472401914     Delta-E=       -0.105532810041 Rises=F Damp=T
 DIIS: error= 1.07D-02 at cycle   2 NSaved=   2.
 NSaved= 2 IEnMin= 2 EnMin= -725.235472401914     IErMin= 2 ErrMin= 1.07D-02
 ErrMax= 1.07D-02  0.00D+00 EMaxC= 1.00D-01 BMatC= 3.91D-02 BMatP= 2.89D-01
 IDIUse=3 WtCom= 8.93D-01 WtEn= 1.07D-01
 Coeff-Com:  0.166D+00 0.834D+00
 Coeff-En:   0.261D+00 0.739D+00
 Coeff:      0.176D+00 0.824D+00
 Gap=     0.235 Goal=   None    Shift=    0.000
 RMSDP=1.72D-03 MaxDP=5.31D-02 DE=-1.06D-01 OVMax= 2.24D-01

 Cycle   3  Pass 0  IDiag  1:
 RMSU=  1.53D-03    CP:  9.85D-01  7.05D-01
 E= -725.397549688035     Delta-E=       -0.162077286121 Rises=F Damp=F
 DIIS: error= 1.31D-02 at cycle   3 NSaved=   3.
 NSaved= 3 IEnMin= 3 EnMin= -725.397549688035     IErMin= 2 ErrMin= 1.07D-02
 ErrMax= 1.31D-02  0.00D+00 EMaxC= 1.00D-01 BMatC= 4.15D-02 BMatP= 3.91D-02
 IDIUse=3 WtCom= 8.69D-01 WtEn= 1.31D-01
 Coeff-Com:  0.290D-01 0.502D+00 0.469D+00
 Coeff-En:   0.000D+00 0.000D+00 0.100D+01
 Coeff:      0.252D-01 0.436D+00 0.539D+00
 Gap=     0.214 Goal=   None    Shift=    0.000
 RMSDP=1.06D-03 MaxDP=3.94D-02 DE=-1.62D-01 OVMax= 9.65D-02

 Cycle   4  Pass 0  IDiag  1:
 RMSU=  6.16D-04    CP:  9.90D-01  8.93D-01  5.45D-01
 E= -725.425217992623     Delta-E=       -0.027668304589 Rises=F Damp=F
 DIIS: error= 7.58D-03 at cycle   4 NSaved=   4.
 NSaved= 4 IEnMin= 4 EnMin= -725.425217992623     IErMin= 4 ErrMin= 7.58D-03
 ErrMax= 7.58D-03  0.00D+00 EMaxC= 1.00D-01 BMatC= 1.13D-02 BMatP= 3.91D-02
 IDIUse=3 WtCom= 9.24D-01 WtEn= 7.58D-02
 Coeff-Com:  0.161D-02 0.110D+00 0.350D+00 0.538D+00
 Coeff-En:   0.000D+00 0.000D+00 0.249D+00 0.751D+00
 Coeff:      0.148D-02 0.102D+00 0.343D+00 0.554D+00
 Gap=     0.216 Goal=   None    Shift=    0.000
 RMSDP=4.29D-04 MaxDP=1.38D-02 DE=-2.77D-02 OVMax= 3.14D-02

 Cycle   5  Pass 0  IDiag  1:
 RMSU=  1.71D-04    CP:  9.88D-01  8.09D-01  6.68D-01  5.77D-01
 E= -725.434578541725     Delta-E=       -0.009360549102 Rises=F Damp=F
 DIIS: error= 8.07D-04 at cycle   5 NSaved=   5.
 NSaved= 5 IEnMin= 5 EnMin= -725.434578541725     IErMin= 5 ErrMin= 8.07D-04
 ErrMax= 8.07D-04  0.00D+00 EMaxC= 1.00D-01 BMatC= 2.92D-04 BMatP= 1.13D-02
 IDIUse=3 WtCom= 9.92D-01 WtEn= 8.07D-03
 Coeff-Com: -0.327D-03 0.144D-01 0.123D+00 0.262D+00 0.601D+00
 Coeff-En:   0.000D+00 0.000D+00 0.000D+00 0.000D+00 0.100D+01
 Coeff:     -0.324D-03 0.143D-01 0.122D+00 0.260D+00 0.604D+00
 Gap=     0.217 Goal=   None    Shift=    0.000
 RMSDP=8.45D-05 MaxDP=2.58D-03 DE=-9.36D-03 OVMax= 3.19D-03

 Cycle   6  Pass 0  IDiag  1:
 RMSU=  5.34D-05    CP:  9.88D-01  8.14D-01  6.72D-01  6.11D-01  6.48D-01
 E= -725.434811874072     Delta-E=       -0.000233332347 Rises=F Damp=F
 DIIS: error= 2.57D-04 at cycle   6 NSaved=   6.
 NSaved= 6 IEnMin= 6 EnMin= -725.434811874072     IErMin= 6 ErrMin= 2.57D-04
 ErrMax= 2.57D-04  0.00D+00 EMaxC= 1.00D-01 BMatC= 2.86D-05 BMatP= 2.92D-04
 IDIUse=3 WtCom= 9.97D-01 WtEn= 2.57D-03
 Coeff-Com: -0.465D-03-0.222D-02 0.324D-01 0.832D-01 0.313D+00 0.574D+00
 Coeff-En:   0.000D+00 0.000D+00 0.000D+00 0.000D+00 0.000D+00 0.100D+01
 Coeff:     -0.464D-03-0.221D-02 0.323D-01 0.830D-01 0.312D+00 0.575D+00
 Gap=     0.217 Goal=   None    Shift=    0.000
 RMSDP=2.00D-05 MaxDP=6.61D-04 DE=-2.33D-04 OVMax= 7.17D-04

 Cycle   7  Pass 0  IDiag  1:
 RMSU=  1.08D-05    CP:  9.88D-01  8.14D-01  6.73D-01  6.17D-01  6.71D-01
                    CP:  7.04D-01
 E= -725.434834091116     Delta-E=       -0.000022217044 Rises=F Damp=F
 DIIS: error= 5.00D-05 at cycle   7 NSaved=   7.
 NSaved= 7 IEnMin= 7 EnMin= -725.434834091116     IErMin= 7 ErrMin= 5.00D-05
 ErrMax= 5.00D-05  0.00D+00 EMaxC= 1.00D-01 BMatC= 1.14D-06 BMatP= 2.86D-05
 IDIUse=1 WtCom= 1.00D+00 WtEn= 0.00D+00
 Coeff-Com: -0.126D-03-0.168D-02 0.876D-02 0.235D-01 0.114D+00 0.253D+00
 Coeff-Com:  0.602D+00
 Coeff:     -0.126D-03-0.168D-02 0.876D-02 0.235D-01 0.114D+00 0.253D+00
 Coeff:      0.602D+00
 Gap=     0.217 Goal=   None    Shift=    0.000
 RMSDP=5.28D-06 MaxDP=1.30D-04 DE=-2.22D-05 OVMax= 1.62D-04

 Initial convergence to 1.0D-05 achieved.  Increase integral accuracy.
 Cycle   8  Pass 1  IDiag  1:
 E= -725.434818817645     Delta-E=        0.000015273471 Rises=F Damp=F
 DIIS: error= 7.95D-05 at cycle   1 NSaved=   1.
 NSaved= 1 IEnMin= 1 EnMin= -725.434818817645     IErMin= 1 ErrMin= 7.95D-05
 ErrMax= 7.95D-05  0.00D+00 EMaxC= 1.00D-01 BMatC= 5.72D-07 BMatP= 5.72D-07
 IDIUse=1 WtCom= 1.00D+00 WtEn= 0.00D+00
 Coeff-Com:  0.100D+01
 Coeff:      0.100D+01
 Gap=     0.217 Goal=   None    Shift=    0.000
 RMSDP=5.28D-06 MaxDP=1.30D-04 DE= 1.53D-05 OVMax= 1.75D-04

 Cycle   9  Pass 1  IDiag  1:
 RMSU=  3.38D-05    CP:  1.00D+00
 E= -725.434819270370     Delta-E=       -0.000000452725 Rises=F Damp=F
 DIIS: error= 2.87D-05 at cycle   2 NSaved=   2.
 NSaved= 2 IEnMin= 2 EnMin= -725.434819270370     IErMin= 2 ErrMin= 2.87D-05
 ErrMax= 2.87D-05  0.00D+00 EMaxC= 1.00D-01 BMatC= 1.96D-07 BMatP= 5.72D-07
 IDIUse=1 WtCom= 1.00D+00 WtEn= 0.00D+00
 Coeff-Com:  0.309D+00 0.691D+00
 Coeff:      0.309D+00 0.691D+00
 Gap=     0.217 Goal=   None    Shift=    0.000
 RMSDP=3.28D-06 MaxDP=1.37D-04 DE=-4.53D-07 OVMax= 2.49D-04

 Cycle  10  Pass 1  IDiag  1:
 RMSU=  3.24D-06    CP:  1.00D+00  1.01D+00
 E= -725.434819255205     Delta-E=        0.000000015166 Rises=F Damp=F
 DIIS: error= 3.18D-05 at cycle   3 NSaved=   3.
 NSaved= 3 IEnMin= 2 EnMin= -725.434819270370     IErMin= 2 ErrMin= 2.87D-05
 ErrMax= 3.18D-05  0.00D+00 EMaxC= 1.00D-01 BMatC= 2.17D-07 BMatP= 1.96D-07
 IDIUse=1 WtCom= 1.00D+00 WtEn= 0.00D+00
 Coeff-Com:  0.176D-01 0.509D+00 0.473D+00
 Coeff:      0.176D-01 0.509D+00 0.473D+00
 Gap=     0.217 Goal=   None    Shift=    0.000
 RMSDP=1.79D-06 MaxDP=8.88D-05 DE= 1.52D-08 OVMax= 1.43D-04

 Cycle  11  Pass 1  IDiag  1:
 RMSU=  7.12D-07    CP:  1.00D+00  1.02D+00  5.05D-01
 E= -725.434819428904     Delta-E=       -0.000000173699 Rises=F Damp=F
 DIIS: error= 4.30D-06 at cycle   4 NSaved=   4.
 NSaved= 4 IEnMin= 4 EnMin= -725.434819428904     IErMin= 4 ErrMin= 4.30D-06
 ErrMax= 4.30D-06  0.00D+00 EMaxC= 1.00D-01 BMatC= 8.99D-09 BMatP= 1.96D-07
 IDIUse=1 WtCom= 1.00D+00 WtEn= 0.00D+00
 Coeff-Com: -0.452D-02 0.275D+00 0.285D+00 0.444D+00
 Coeff:     -0.452D-02 0.275D+00 0.285D+00 0.444D+00
 Gap=     0.217 Goal=   None    Shift=    0.000
 RMSDP=3.61D-07 MaxDP=1.67D-05 DE=-1.74D-07 OVMax= 2.30D-05

 Cycle  12  Pass 1  IDiag  1:
 RMSU=  1.60D-07    CP:  1.00D+00  1.02D+00  5.34D-01  5.66D-01
 E= -725.434819436894     Delta-E=       -0.000000007990 Rises=F Damp=F
 DIIS: error= 8.02D-07 at cycle   5 NSaved=   5.
 NSaved= 5 IEnMin= 5 EnMin= -725.434819436894     IErMin= 5 ErrMin= 8.02D-07
 ErrMax= 8.02D-07  0.00D+00 EMaxC= 1.00D-01 BMatC= 1.73D-10 BMatP= 8.99D-09
 IDIUse=1 WtCom= 1.00D+00 WtEn= 0.00D+00
 Coeff-Com: -0.285D-02 0.131D+00 0.135D+00 0.239D+00 0.498D+00
 Coeff:     -0.285D-02 0.131D+00 0.135D+00 0.239D+00 0.498D+00
 Gap=     0.217 Goal=   None    Shift=    0.000
 RMSDP=6.64D-08 MaxDP=2.90D-06 DE=-7.99D-09 OVMax= 3.62D-06

 Cycle  13  Pass 1  IDiag  1:
 RMSU=  5.02D-08    CP:  1.00D+00  1.02D+00  5.24D-01  5.50D-01  8.28D-01
 E= -725.434819437025     Delta-E=       -0.000000000131 Rises=F Damp=F
 DIIS: error= 1.93D-07 at cycle   6 NSaved=   6.
 NSaved= 6 IEnMin= 6 EnMin= -725.434819437025     IErMin= 6 ErrMin= 1.93D-07
 ErrMax= 1.93D-07  0.00D+00 EMaxC= 1.00D-01 BMatC= 1.38D-11 BMatP= 1.73D-10
 IDIUse=1 WtCom= 1.00D+00 WtEn= 0.00D+00
 Coeff-Com: -0.967D-03 0.394D-01 0.389D-01 0.812D-01 0.247D+00 0.594D+00
 Coeff:     -0.967D-03 0.394D-01 0.389D-01 0.812D-01 0.247D+00 0.594D+00
 Gap=     0.217 Goal=   None    Shift=    0.000
 RMSDP=1.89D-08 MaxDP=1.04D-06 DE=-1.31D-10 OVMax= 2.00D-06

 Cycle  14  Pass 1  IDiag  1:
 RMSU=  1.58D-08    CP:  1.00D+00  1.02D+00  5.24D-01  5.58D-01  8.65D-01
                    CP:  8.74D-01
 E= -725.434819437045     Delta-E=       -0.000000000020 Rises=F Damp=F
 DIIS: error= 8.49D-08 at cycle   7 NSaved=   7.
 NSaved= 7 IEnMin= 7 EnMin= -725.434819437045     IErMin= 7 ErrMin= 8.49D-08
 ErrMax= 8.49D-08  0.00D+00 EMaxC= 1.00D-01 BMatC= 4.44D-12 BMatP= 1.38D-11
 IDIUse=1 WtCom= 1.00D+00 WtEn= 0.00D+00
 Coeff-Com: -0.580D-04-0.113D-02-0.292D-02 0.562D-02 0.571D-01 0.397D+00
 Coeff-Com:  0.545D+00
 Coeff:     -0.580D-04-0.113D-02-0.292D-02 0.562D-02 0.571D-01 0.397D+00
 Coeff:      0.545D+00
 Gap=     0.217 Goal=   None    Shift=    0.000
 RMSDP=9.35D-09 MaxDP=3.88D-07 DE=-1.98D-11 OVMax= 7.99D-07

 SCF Done:  E(RPBE1PBE) =  -725.434819437     A.U. after   14 cycles
            NFock= 14  Conv=0.94D-08     -V/T= 2.0095
 KE= 7.185931059365D+02 PE=-3.882247713953D+03 EE= 1.340866692992D+03
 Leave Link  502 at Sun Jan 15 17:40:39 2023, MaxMem=  4194304000 cpu:             236.9 elap:              29.8
 (Enter /software/gaussian/G16-A.03/avx2/g16/l801.exe)
 DoSCS=F DFT=T ScalE2(SS,OS)=  1.000000  1.000000
 Range of M.O.s used for correlation:     1   304
 NBasis=   304 NAE=    59 NBE=    59 NFC=     0 NFV=     0
 NROrb=    304 NOA=    59 NOB=    59 NVA=   245 NVB=   245
 Leave Link  801 at Sun Jan 15 17:40:40 2023, MaxMem=  4194304000 cpu:               0.4 elap:               0.1
 (Enter /software/gaussian/G16-A.03/avx2/g16/l1101.exe)
 Using compressed storage, NAtomX=    32.
 Will process     33 centers per pass.
   1 Symmetry operations used in ECPInt.
 ECPInt:  NShTT=   10440 NPrTT=   37384 LenC2=    9458 LenP2D=   24219.
 LDataN:  DoStor=T MaxTD1= 5 Len=  102
 R6Disp: Adding Grimme-D3(BJ) dispersion energy 1st derivatives to the gradient.
 Leave Link 1101 at Sun Jan 15 17:40:41 2023, MaxMem=  4194304000 cpu:               4.2 elap:               0.7
 (Enter /software/gaussian/G16-A.03/avx2/g16/l1102.exe)
 Symmetrizing basis deriv contribution to polar:
 IMax=3 JMax=2 DiffMx= 0.00D+00
 Leave Link 1102 at Sun Jan 15 17:40:42 2023, MaxMem=  4194304000 cpu:               0.8 elap:               0.2
 (Enter /software/gaussian/G16-A.03/avx2/g16/l1110.exe)
 Forming Gx(P) for the SCF density, NAtomX=    32.
 Integral derivatives from FoFJK, PRISM(SPDF).
 Do as many integral derivatives as possible in FoFJK.
 G2DrvN: MDV=    4194301560.
 G2DrvN: will do    33 centers at a time, making    1 passes.
 Calling FoFCou, ICntrl=  3107 FMM=F I1Cent=   0 AccDes= 0.00D+00.
 FoFJK:  IHMeth= 1 ICntrl=    3107 DoSepK=F KAlg= 0 I1Cent=           0 FoldK=F
 IRaf=         0 NMat=       1 IRICut=       1 DoRegI=T DoRafI=F ISym2E= 0 IDoP0=0 IntGTp=1.
 FoFCou: FMM=F IPFlag=           0 FMFlag=      100000 FMFlg1=           0
         NFxFlg=           0 DoJE=F BraDBF=F KetDBF=F FulRan=T
         wScrn=  0.000000 ICntrl=      3107 IOpCl=  0 I1Cent=           0 NGrid=           0
         NMat0=    1 NMatS0=      1 NMatT0=    0 NMatD0=    1 NMtDS0=    0 NMtDT0=    0
 Symmetry not used in FoFCou.
 End of G2Drv F.D. properties file   721 does not exist.
 End of G2Drv F.D. properties file   722 does not exist.
 End of G2Drv F.D. properties file   788 does not exist.
 Leave Link 1110 at Sun Jan 15 17:41:59 2023, MaxMem=  4194304000 cpu:             612.6 elap:              76.8
 (Enter /software/gaussian/G16-A.03/avx2/g16/l1002.exe)
 Minotr:  Closed shell wavefunction.
          IDoAtm=11111111111111111111111111111111
          Direct CPHF calculation.
          Differentiating once with respect to electric field.
                with respect to dipole field.
          Differentiating once with respect to nuclear coordinates.
          Requested convergence is 1.0D-08 RMS, and 1.0D-07 maximum.
          Secondary convergence is 1.0D-12 RMS, and 1.0D-12 maximum.
          NewPWx=T KeepS1=F KeepF1=F KeepIn=T MapXYZ=F SortEE=F KeepMc=T.
         9670 words used for storage of precomputed grid.
 Keep R1 ints in memory in canonical form, NReq=1091201233.
 FoFCou: FMM=F IPFlag=           0 FMFlag=           0 FMFlg1=           0
         NFxFlg=           0 DoJE=F BraDBF=F KetDBF=F FulRan=T
         wScrn=  0.000000 ICntrl=       600 IOpCl=  0 I1Cent=           0 NGrid=           0
         NMat0=    1 NMatS0=  46360 NMatT0=    0 NMatD0=    1 NMtDS0=    0 NMtDT0=    0
 Symmetry not used in FoFCou.
 Two-electron integral symmetry not used.
          MDV=    4194304000 using IRadAn=       1.
          Solving linear equations simultaneously, MaxMat=       0.
          There are    99 degrees of freedom in the 1st order CPHF.  IDoFFX=6 NUNeed=     3.
     96 vectors produced by pass  0 Test12= 1.46D-14 1.01D-09 XBig12= 1.05D+02 4.78D+00.
 AX will form    96 AO Fock derivatives at one time.
     96 vectors produced by pass  1 Test12= 1.46D-14 1.01D-09 XBig12= 4.34D+01 1.47D+00.
     96 vectors produced by pass  2 Test12= 1.46D-14 1.01D-09 XBig12= 4.93D-01 8.70D-02.
     96 vectors produced by pass  3 Test12= 1.46D-14 1.01D-09 XBig12= 3.31D-03 4.56D-03.
     96 vectors produced by pass  4 Test12= 1.46D-14 1.01D-09 XBig12= 7.52D-06 1.81D-04.
     78 vectors produced by pass  5 Test12= 1.46D-14 1.01D-09 XBig12= 8.65D-09 7.27D-06.
     18 vectors produced by pass  6 Test12= 1.46D-14 1.01D-09 XBig12= 8.55D-12 2.40D-07.
      3 vectors produced by pass  7 Test12= 1.46D-14 1.01D-09 XBig12= 8.65D-15 6.59D-09.
 InvSVY:  IOpt=1 It=  1 EMax= 3.55D-15
 Solved reduced A of dimension   579 with    99 vectors.
 FullF1:  Do perturbations      1 to       3.
 Isotropic polarizability for W=    0.000000      138.80 Bohr**3.
 End of Minotr F.D. properties file   721 does not exist.
 End of Minotr F.D. properties file   722 does not exist.
 End of Minotr F.D. properties file   788 does not exist.
 Leave Link 1002 at Sun Jan 15 17:43:55 2023, MaxMem=  4194304000 cpu:             919.5 elap:             115.3
 (Enter /software/gaussian/G16-A.03/avx2/g16/l601.exe)
 Copying SCF densities to generalized density rwf, IOpCl= 0 IROHF=0.

 **********************************************************************

            Population analysis using the SCF density.

 **********************************************************************

 Orbital symmetries:
       Occupied  (A) (A) (A) (A) (A) (A) (A) (A) (A) (A) (A) (A)
                 (A) (A) (A) (A) (A) (A) (A) (A) (A) (A) (A) (A)
                 (A) (A) (A) (A) (A) (A) (A) (A) (A) (A) (A) (A)
                 (A) (A) (A) (A) (A) (A) (A) (A) (A) (A) (A) (A)
                 (A) (A) (A) (A) (A) (A) (A) (A) (A) (A) (A)
       Virtual   (A) (A) (A) (A) (A) (A) (A) (A) (A) (A) (A) (A)
                 (A) (A) (A) (A) (A) (A) (A) (A) (A) (A) (A) (A)
                 (A) (A) (A) (A) (A) (A) (A) (A) (A) (A) (A) (A)
                 (A) (A) (A) (A) (A) (A) (A) (A) (A) (A) (A) (A)
                 (A) (A) (A) (A) (A) (A) (A) (A) (A) (A) (A) (A)
                 (A) (A) (A) (A) (A) (A) (A) (A) (A) (A) (A) (A)
                 (A) (A) (A) (A) (A) (A) (A) (A) (A) (A) (A) (A)
                 (A) (A) (A) (A) (A) (A) (A) (A) (A) (A) (A) (A)
                 (A) (A) (A) (A) (A) (A) (A) (A) (A) (A) (A) (A)
                 (A) (A) (A) (A) (A) (A) (A) (A) (A) (A) (A) (A)
                 (A) (A) (A) (A) (A) (A) (A) (A) (A) (A) (A) (A)
                 (A) (A) (A) (A) (A) (A) (A) (A) (A) (A) (A) (A)
                 (A) (A) (A) (A) (A) (A) (A) (A) (A) (A) (A) (A)
                 (A) (A) (A) (A) (A) (A) (A) (A) (A) (A) (A) (A)
                 (A) (A) (A) (A) (A) (A) (A) (A) (A) (A) (A) (A)
                 (A) (A) (A) (A) (A) (A) (A) (A) (A) (A) (A) (A)
                 (A) (A) (A) (A) (A) (A) (A) (A) (A) (A) (A) (A)
                 (A) (A) (A) (A) (A) (A) (A) (A) (A) (A) (A) (A)
                 (A) (A) (A) (A) (A) (A) (A) (A) (A) (A) (A) (A)
                 (A) (A) (A) (A) (A) (A) (A) (A) (A) (A) (A) (A)
                 (A) (A) (A) (A) (A)
 The electronic state is 1-A.
 Alpha  occ. eigenvalues --  -19.25670 -19.25567 -14.36571 -14.36328 -10.32536
 Alpha  occ. eigenvalues --  -10.32291 -10.29566 -10.29383 -10.26979 -10.26827
 Alpha  occ. eigenvalues --  -10.24268 -10.24007 -10.23897 -10.23454 -10.22995
 Alpha  occ. eigenvalues --  -10.22761  -1.13649  -1.12259  -0.93977  -0.91867
 Alpha  occ. eigenvalues --   -0.88327  -0.87128  -0.81283  -0.76880  -0.68413
 Alpha  occ. eigenvalues --   -0.66602  -0.65547  -0.61121  -0.60440  -0.59092
 Alpha  occ. eigenvalues --   -0.57913  -0.56389  -0.54644  -0.52704  -0.51638
 Alpha  occ. eigenvalues --   -0.50751  -0.49477  -0.48614  -0.47493  -0.46637
 Alpha  occ. eigenvalues --   -0.45197  -0.43466  -0.41788  -0.41219  -0.39111
 Alpha  occ. eigenvalues --   -0.38675  -0.37915  -0.37563  -0.37212  -0.37007
 Alpha  occ. eigenvalues --   -0.36278  -0.31330  -0.30889  -0.30436  -0.29767
 Alpha  occ. eigenvalues --   -0.28868  -0.27603  -0.25984  -0.24504
 Alpha virt. eigenvalues --   -0.02828   0.06908   0.07110   0.07338   0.08410
 Alpha virt. eigenvalues --    0.09164   0.10115   0.10396   0.10869   0.11517
 Alpha virt. eigenvalues --    0.12695   0.13420   0.13692   0.14389   0.14905
 Alpha virt. eigenvalues --    0.15318   0.15510   0.15857   0.16636   0.17453
 Alpha virt. eigenvalues --    0.17788   0.19328   0.19684   0.20981   0.22819
 Alpha virt. eigenvalues --    0.24577   0.25526   0.26246   0.27276   0.27510
 Alpha virt. eigenvalues --    0.28491   0.29977   0.30906   0.32103   0.37504
 Alpha virt. eigenvalues --    0.39318   0.39761   0.40624   0.41453   0.42542
 Alpha virt. eigenvalues --    0.44722   0.45539   0.46253   0.48822   0.50270
 Alpha virt. eigenvalues --    0.51056   0.51852   0.52987   0.53578   0.54292
 Alpha virt. eigenvalues --    0.55939   0.56540   0.56896   0.57832   0.58726
 Alpha virt. eigenvalues --    0.59279   0.59704   0.59911   0.60692   0.61242
 Alpha virt. eigenvalues --    0.62907   0.63421   0.64606   0.64892   0.65601
 Alpha virt. eigenvalues --    0.65680   0.66389   0.66748   0.67319   0.67874
 Alpha virt. eigenvalues --    0.68053   0.68896   0.69128   0.69508   0.69922
 Alpha virt. eigenvalues --    0.69992   0.70211   0.70377   0.70809   0.71544
 Alpha virt. eigenvalues --    0.71848   0.72065   0.73466   0.74336   0.74897
 Alpha virt. eigenvalues --    0.75672   0.77004   0.78277   0.78898   0.80493
 Alpha virt. eigenvalues --    0.83715   0.83982   0.86157   0.87479   0.87735
 Alpha virt. eigenvalues --    0.91129   0.92847   0.94546   0.96111   0.98401
 Alpha virt. eigenvalues --    0.99960   1.03827   1.07521   1.08092   1.10641
 Alpha virt. eigenvalues --    1.11057   1.13492   1.16835   1.20977   1.22985
 Alpha virt. eigenvalues --    1.27413   1.30136   1.31147   1.33306   1.34914
 Alpha virt. eigenvalues --    1.35686   1.37566   1.39573   1.42489   1.42576
 Alpha virt. eigenvalues --    1.45619   1.47269   1.48316   1.50499   1.52114
 Alpha virt. eigenvalues --    1.54534   1.55065   1.56249   1.57067   1.58209
 Alpha virt. eigenvalues --    1.58847   1.62211   1.63672   1.63813   1.65235
 Alpha virt. eigenvalues --    1.66049   1.67116   1.69228   1.70248   1.70718
 Alpha virt. eigenvalues --    1.71383   1.71611   1.72211   1.72554   1.73391
 Alpha virt. eigenvalues --    1.74773   1.76606   1.77282   1.78272   1.79581
 Alpha virt. eigenvalues --    1.80347   1.81168   1.82635   1.84159   1.84525
 Alpha virt. eigenvalues --    1.85874   1.86922   1.88087   1.89285   1.90978
 Alpha virt. eigenvalues --    1.93140   1.93982   1.94235   1.95304   1.95980
 Alpha virt. eigenvalues --    1.96753   1.98081   2.00041   2.00439   2.00807
 Alpha virt. eigenvalues --    2.01855   2.03916   2.04375   2.06380   2.07039
 Alpha virt. eigenvalues --    2.07773   2.09643   2.10956   2.12265   2.13903
 Alpha virt. eigenvalues --    2.16443   2.21521   2.21849   2.23069   2.24060
 Alpha virt. eigenvalues --    2.25936   2.27652   2.28298   2.28852   2.30150
 Alpha virt. eigenvalues --    2.32547   2.33371   2.35749   2.37143   2.37738
 Alpha virt. eigenvalues --    2.38096   2.43394   2.45554   2.52789   2.53858
 Alpha virt. eigenvalues --    2.55661   2.56206   2.59723   2.60996   2.63240
 Alpha virt. eigenvalues --    2.64616   2.65815   2.67163   2.67890   2.69900
 Alpha virt. eigenvalues --    2.70224   2.75015   2.76382   2.78010   2.80750
 Alpha virt. eigenvalues --    2.82810   2.84217   2.84914   2.86155   2.87412
 Alpha virt. eigenvalues --    2.88328   2.89416   2.93487   2.94821   2.96237
 Alpha virt. eigenvalues --    2.97550   2.98253   2.99178   3.00807   3.02519
 Alpha virt. eigenvalues --    3.04764   3.06403   3.10288   3.12096   3.12795
 Alpha virt. eigenvalues --    3.14042   3.14432   3.15315   3.17617   3.22082
 Alpha virt. eigenvalues --    3.30034   3.31622   3.53031   3.56007   3.73624
     Molecular Orbital Coefficients:
                          55        56        57        58        59
                           O         O         O         O         O
     Eigenvalues --    -0.29767  -0.28868  -0.27603  -0.25984  -0.24504
   1 1   C  1S          0.00949   0.02368  -0.00984   0.02787   0.00148
   2        2S         -0.02445  -0.05901   0.02402  -0.06472  -0.00677
   3        3S         -0.03515  -0.10021   0.06322  -0.15766   0.01347
   4        4PX         0.01843   0.00386  -0.02533  -0.02559   0.01798
   5        4PY        -0.05776  -0.11898   0.01799  -0.12344   0.00378
   6        4PZ         0.02489   0.04643  -0.09994   0.03277   0.05442
   7        5PX         0.01485   0.01745  -0.00381   0.00176   0.00116
   8        5PY        -0.03436  -0.08975   0.03492  -0.11359  -0.00586
   9        5PZ         0.01378   0.03211  -0.03624   0.04477   0.00140
  10        6D 0        0.00057   0.00093  -0.01065  -0.00080   0.00741
  11        6D+1       -0.00007   0.00110   0.00745   0.00314  -0.00516
  12        6D-1        0.00013   0.00040  -0.00074  -0.00025   0.00000
  13        6D+2        0.00129  -0.00032   0.00380  -0.00063  -0.00219
  14        6D-2        0.00007   0.00201   0.00246   0.00531  -0.00150
  15 2   C  1S         -0.00347  -0.01534   0.00731  -0.02315  -0.00333
  16        2S          0.00528   0.03373  -0.01901   0.05723   0.01454
  17        3S          0.02655   0.06885  -0.03547   0.10942  -0.03550
  18        4PX         0.02603   0.08172   0.01265   0.11630  -0.02355
  19        4PY         0.03788   0.07653  -0.00724   0.07978  -0.01685
  20        4PZ        -0.02671  -0.04779   0.10344  -0.03678  -0.09518
  21        5PX         0.01323   0.03186  -0.01737   0.04144   0.05410
  22        5PY         0.00231  -0.00387   0.02593  -0.01854  -0.00165
  23        5PZ        -0.01692  -0.01940   0.03889  -0.01698  -0.00383
  24        6D 0       -0.00231  -0.00319   0.00227  -0.00173  -0.00578
  25        6D+1       -0.00083  -0.00204  -0.00944  -0.00448   0.01473
  26        6D-1        0.00384   0.00800   0.00258   0.00938  -0.00522
  27        6D+2        0.00680   0.01292  -0.00979   0.01174   0.00827
  28        6D-2       -0.00103  -0.00664   0.00167  -0.01032   0.00303
  29 3   H  1S          0.00786   0.03096   0.07899   0.05718  -0.11243
  30        2S          0.00293   0.00890   0.04580   0.02563  -0.08262
  31        3PX         0.00015   0.00071   0.00025   0.00131  -0.00027
  32        3PY         0.00070   0.00098  -0.00268   0.00038   0.00345
  33        3PZ        -0.00107  -0.00238   0.00007  -0.00284   0.00055
  34 4   N  1S         -0.01047  -0.05044   0.01961  -0.07732  -0.00638
  35        2S         -0.01888  -0.10007   0.03652  -0.16342  -0.01291
  36        3S         -0.04026  -0.14404   0.07747  -0.17395  -0.02139
  37        4PX         0.05823   0.13805   0.02734   0.17557  -0.08989
  38        4PY         0.06115   0.23209  -0.03024   0.31373  -0.07332
  39        4PZ        -0.03399  -0.10481   0.22497  -0.08972  -0.30213
  40        5PX        -0.04205  -0.08987  -0.03595  -0.07733   0.08410
  41        5PY        -0.04874  -0.16852   0.00699  -0.22056   0.04904
  42        5PZ         0.02723   0.07206  -0.16996   0.04749   0.21810
  43        6D 0       -0.00144  -0.00460  -0.00195  -0.00715   0.00665
  44        6D+1       -0.00150  -0.00388  -0.00383  -0.00655   0.00284
  45        6D-1       -0.00135  -0.00596   0.01252  -0.00614  -0.01521
  46        6D+2       -0.00210  -0.00742  -0.00195  -0.00872   0.00521
  47        6D-2        0.00137   0.00461   0.00055   0.00934  -0.00478
  48 5   C  1S         -0.01737  -0.03926   0.00674  -0.02167  -0.00335
  49        2S          0.04402   0.10602  -0.01763   0.05931   0.01199
  50        3S          0.09273   0.01261   0.00381  -0.25258  -0.00912
  51        4PX         0.01480  -0.00760  -0.01730  -0.08953   0.05638
  52        4PY         0.00256   0.04282  -0.05747   0.03911   0.04634
  53        4PZ        -0.01659  -0.02507  -0.12591  -0.03545   0.14227
  54        5PX         0.05779  -0.02545   0.01758  -0.22866   0.05434
  55        5PY        -0.00293  -0.04253   0.00598  -0.11064   0.01807
  56        5PZ        -0.02199   0.01001  -0.09357   0.07556   0.10358
  57        6D 0       -0.00008   0.00020   0.01562   0.00266  -0.00694
  58        6D+1       -0.00031   0.00034  -0.00247  -0.00127  -0.01223
  59        6D-1        0.00366   0.00834  -0.02349   0.00344   0.02259
  60        6D+2        0.00686   0.01512   0.00117   0.01454  -0.00899
  61        6D-2       -0.00431  -0.01348  -0.00482  -0.01582   0.00616
  62 6   O  1S         -0.00861  -0.01181   0.00185  -0.00736  -0.00077
  63        2S         -0.01935  -0.02591   0.00225  -0.01387  -0.00168
  64        3S         -0.02319  -0.06151   0.03131  -0.08772  -0.00576
  65        4PX        -0.02566  -0.01477   0.10216   0.04436  -0.07787
  66        4PY        -0.01256  -0.08231   0.11053  -0.07440  -0.06627
  67        4PZ         0.01481   0.04120   0.25522   0.09586  -0.20860
  68        5PX        -0.02229  -0.01574   0.09067   0.03252  -0.06333
  69        5PY        -0.00465  -0.05904   0.09312  -0.06883  -0.05412
  70        5PZ         0.00973   0.03360   0.20415   0.08372  -0.17388
  71        6D 0        0.00027   0.00120  -0.00262   0.00118   0.00062
  72        6D+1       -0.00105  -0.00141  -0.00168  -0.00120   0.00153
  73        6D-1       -0.00013  -0.00018   0.00547   0.00055  -0.00297
  74        6D+2        0.00081   0.00178  -0.00231   0.00001   0.00142
  75        6D-2        0.00031   0.00271   0.00085   0.00394  -0.00052
  76 7   C  1S         -0.01116  -0.04748  -0.00371   0.01906  -0.00194
  77        2S          0.02869   0.12561   0.00847  -0.05197   0.00824
  78        3S         -0.07763   0.09183  -0.00149   0.24858  -0.02942
  79        4PX        -0.02084   0.00814  -0.02331  -0.08802  -0.05625
  80        4PY         0.03475   0.05555   0.00446  -0.05505  -0.01189
  81        4PZ         0.00905   0.00312  -0.13503  -0.01920  -0.13959
  82        5PX         0.05143   0.00080   0.02174  -0.24510  -0.02945
  83        5PY        -0.05409  -0.01312  -0.03035   0.09555  -0.01700
  84        5PZ        -0.01603   0.01016  -0.08307   0.03800  -0.10474
  85        6D 0        0.00120   0.00314  -0.00147  -0.00238   0.00699
  86        6D+1       -0.00309  -0.00327   0.00657   0.00606  -0.00741
  87        6D-1        0.00069  -0.00363  -0.02712  -0.00289  -0.02448
  88        6D+2        0.00716   0.01364   0.00737  -0.00989   0.00062
  89        6D-2        0.01462   0.01449  -0.00262  -0.01551  -0.00970
  90 8   N  1S         -0.02727  -0.05641  -0.01262   0.07492  -0.00344
  91        2S         -0.05816  -0.11209  -0.02233   0.15925  -0.00639
  92        3S         -0.03211  -0.18063  -0.04780   0.16244  -0.00863
  93        4PX        -0.12274  -0.13643   0.02064   0.19242   0.07862
  94        4PY         0.14455   0.24362   0.08306  -0.28781   0.02995
  95        4PZ        -0.01593   0.03112   0.20472   0.01998   0.30758
  96        5PX         0.07070   0.10145  -0.02692  -0.09317  -0.07253
  97        5PY        -0.11270  -0.16638  -0.04981   0.19942  -0.02673
  98        5PZ         0.02119  -0.02430  -0.16196  -0.02647  -0.22209
  99        6D 0       -0.00604  -0.00576  -0.00500   0.00780  -0.00284
 100        6D+1        0.00002  -0.00202   0.00233   0.00285  -0.00099
 101        6D-1        0.00007  -0.00032   0.01186   0.00213   0.01664
 102        6D+2       -0.00316  -0.00748  -0.00141   0.00620  -0.00082
 103        6D-2       -0.00813  -0.00493   0.00122   0.01180   0.00459
 104 9   C  1S         -0.01258  -0.01728  -0.00559   0.02228  -0.00214
 105        2S          0.03624   0.03570   0.01761  -0.05735   0.01505
 106        3S          0.04425   0.05337   0.01595  -0.06169  -0.06112
 107        4PX        -0.06893  -0.07112   0.01190   0.11596   0.01643
 108        4PY        -0.05856   0.12211   0.03073  -0.07747   0.01144
 109        4PZ         0.08162  -0.00704   0.10690   0.00017   0.09969
 110        5PX         0.00097  -0.02710  -0.00119   0.03593  -0.04657
 111        5PY        -0.02988   0.01111  -0.01956   0.01236  -0.00992
 112        5PZ         0.04368  -0.00588   0.03704   0.00259  -0.00930
 113        6D 0       -0.01397   0.00731  -0.00609  -0.00372  -0.00956
 114        6D+1       -0.00779  -0.00114   0.00797   0.00660   0.01408
 115        6D-1        0.00267  -0.00550   0.00516   0.00536   0.00469
 116        6D+2       -0.00003   0.01435   0.00735  -0.01130   0.00664
 117        6D-2        0.00994   0.00711   0.00584  -0.00988   0.00295
 118 10  H  1S         -0.10474   0.08399  -0.09808  -0.06486  -0.12015
 119        2S         -0.07162   0.03835  -0.05955  -0.02831  -0.08816
 120        3PX         0.00064  -0.00152   0.00001   0.00181   0.00010
 121        3PY         0.00226   0.00094   0.00325  -0.00097   0.00370
 122        3PZ        -0.00203   0.00310  -0.00146  -0.00249  -0.00188
 123 11  C  1S         -0.01204   0.03256   0.00691  -0.02798   0.00054
 124        2S          0.03103  -0.08128  -0.01528   0.06467  -0.00203
 125        3S          0.02366  -0.12527  -0.05695   0.14677   0.01191
 126        4PX         0.02485   0.00285  -0.02360  -0.03960  -0.01723
 127        4PY         0.05131  -0.17108  -0.04096   0.12220  -0.01315
 128        4PZ         0.02473  -0.00975  -0.09089  -0.01100  -0.05223
 129        5PX         0.00115  -0.00834   0.00228  -0.01476   0.00266
 130        5PY        -0.00205  -0.11415  -0.03980   0.11348  -0.00781
 131        5PZ         0.01208  -0.00113  -0.02234   0.00115  -0.00017
 132        6D 0       -0.00299   0.00239   0.00898   0.00034   0.00571
 133        6D+1        0.00317   0.00072  -0.00921  -0.00467  -0.00580
 134        6D-1        0.00078  -0.00007   0.00370  -0.00013   0.00311
 135        6D+2       -0.00437   0.00154  -0.00428  -0.00041  -0.00264
 136        6D-2       -0.00345  -0.00025  -0.00075   0.00372  -0.00067
 137 12  O  1S         -0.00108  -0.01416  -0.00173   0.00592  -0.00088
 138        2S         -0.00380  -0.03086  -0.00236   0.01069  -0.00238
 139        3S         -0.03344  -0.05963  -0.02748   0.08052  -0.00372
 140        4PX        -0.04050   0.04843   0.10179   0.03386   0.07048
 141        4PY        -0.13136  -0.06053  -0.00725   0.09189   0.01171
 142        4PZ        -0.03103  -0.00433   0.28111   0.06720   0.20966
 143        5PX        -0.03138   0.04185   0.08949   0.02365   0.05663
 144        5PY        -0.09691  -0.04238  -0.00880   0.08511   0.01050
 145        5PZ        -0.02533  -0.00617   0.22519   0.05762   0.17389
 146        6D 0        0.00120   0.00034  -0.00093  -0.00116  -0.00103
 147        6D+1        0.00050  -0.00081   0.00047  -0.00018   0.00073
 148        6D-1       -0.00071   0.00159   0.00651  -0.00004   0.00311
 149        6D+2        0.00299   0.00160   0.00007  -0.00057   0.00031
 150        6D-2       -0.00120  -0.00271   0.00155   0.00396   0.00095
 151 13  C  1S          0.00162  -0.00142  -0.02072  -0.00141  -0.02613
 152        2S         -0.00048   0.00368   0.04873   0.00577   0.06145
 153        3S         -0.04065   0.02076   0.08786  -0.04171   0.16918
 154        4PX         0.06031  -0.00163  -0.06221  -0.02060  -0.07891
 155        4PY         0.27588  -0.17488  -0.04796   0.02833  -0.03806
 156        4PZ        -0.24458   0.06965  -0.08405  -0.01349  -0.06995
 157        5PX         0.04321  -0.00202  -0.04922  -0.00341  -0.07786
 158        5PY         0.15626  -0.07784  -0.00183  -0.00677  -0.03783
 159        5PZ        -0.12473   0.02911  -0.03974  -0.00910  -0.05260
 160        6D 0       -0.01670   0.00728  -0.00168  -0.00086  -0.00173
 161        6D+1        0.00240  -0.00050   0.00161  -0.00000   0.00137
 162        6D-1        0.00435  -0.00108   0.00286   0.00187   0.00238
 163        6D+2       -0.00666   0.00911   0.00181  -0.00433  -0.00009
 164        6D-2       -0.00187  -0.00110   0.00153   0.00128   0.00214
 165 14  C  1S          0.01288  -0.01042  -0.00394   0.00259  -0.00440
 166        2S         -0.02504   0.02116   0.00606  -0.00723   0.01400
 167        3S         -0.13696   0.12328   0.02315  -0.02575  -0.02986
 168        4PX        -0.04899   0.00567  -0.02217   0.00558  -0.02545
 169        4PY         0.15971   0.01826   0.06439  -0.01186   0.02776
 170        4PZ         0.22752  -0.09912   0.03025   0.01577   0.02660
 171        5PX        -0.03660   0.01302  -0.01830  -0.00996  -0.00696
 172        5PY         0.06483   0.02063   0.04001  -0.01085   0.02187
 173        5PZ         0.17039  -0.07155   0.03507   0.00735   0.04550
 174        6D 0       -0.00311  -0.00213  -0.00176   0.00115  -0.00004
 175        6D+1        0.00342  -0.00130   0.00165   0.00044   0.00144
 176        6D-1       -0.01345   0.00466  -0.00087  -0.00068  -0.00002
 177        6D+2        0.00535  -0.00581  -0.00279   0.00163  -0.00219
 178        6D-2        0.00265  -0.00174   0.00058   0.00087   0.00012
 179 15  C  1S         -0.01514   0.00372  -0.00139   0.00110  -0.00111
 180        2S          0.03158  -0.00590   0.00390  -0.00530   0.00372
 181        3S          0.16360  -0.07057  -0.01567   0.03127   0.01077
 182        4PX         0.00685  -0.05368  -0.00147   0.03203   0.00678
 183        4PY        -0.20401   0.10202   0.00249  -0.02433   0.00328
 184        4PZ        -0.11458   0.15146   0.05900  -0.03570   0.02187
 185        5PX         0.00077  -0.03670  -0.00145   0.01997   0.00738
 186        5PY        -0.15170   0.10666   0.01402  -0.05388  -0.00046
 187        5PZ        -0.04901   0.07918   0.04243  -0.02336   0.02335
 188        6D 0        0.00946  -0.00138   0.00358  -0.00015   0.00238
 189        6D+1       -0.00485   0.00123  -0.00067   0.00033  -0.00062
 190        6D-1        0.00942  -0.00861  -0.00100   0.00225   0.00058
 191        6D+2       -0.00224   0.00215   0.00043  -0.00073  -0.00021
 192        6D-2       -0.00396   0.00124   0.00299   0.00102   0.00333
 193 16  C  1S         -0.00082  -0.00339   0.02177   0.00012  -0.02718
 194        2S          0.00151   0.00789  -0.05353  -0.00034   0.06424
 195        3S         -0.00072   0.01930  -0.07181   0.00968   0.16406
 196        4PX        -0.05853  -0.05879  -0.07540  -0.03507   0.09634
 197        4PY        -0.06718  -0.06116   0.02736  -0.01651  -0.00854
 198        4PZ         0.06024   0.06147  -0.07350   0.01459   0.06452
 199        5PX        -0.04104  -0.05955  -0.03076  -0.05571   0.04679
 200        5PY        -0.02717  -0.00802  -0.01041   0.02073   0.00368
 201        5PZ         0.03259   0.03489  -0.04627   0.00762   0.07584
 202        6D 0        0.00013  -0.00055  -0.00020  -0.00140   0.00023
 203        6D+1       -0.00118  -0.00104  -0.00344  -0.00061   0.00394
 204        6D-1        0.00318   0.00430  -0.00017   0.00358  -0.00174
 205        6D+2        0.00472   0.00576  -0.00113   0.00373  -0.00108
 206        6D-2       -0.00068  -0.00015   0.00151   0.00054  -0.00163
 207 17  C  1S          0.00389   0.00460   0.00031   0.00256  -0.00208
 208        2S         -0.00932  -0.01168  -0.00167  -0.00703   0.00529
 209        3S         -0.04318  -0.05154   0.02064  -0.03085   0.01265
 210        4PX        -0.05128  -0.03809   0.04422  -0.00182  -0.01893
 211        4PY         0.07012   0.07409  -0.01886   0.03420  -0.00246
 212        4PZ        -0.00693  -0.01337  -0.00137  -0.00993   0.00087
 213        5PX        -0.02534  -0.02499   0.03520  -0.01043  -0.02878
 214        5PY         0.05303   0.06405  -0.02306   0.03934  -0.00470
 215        5PZ        -0.00876  -0.00547  -0.00237   0.00427  -0.00015
 216        6D 0        0.00224   0.00239  -0.00119   0.00103   0.00075
 217        6D+1       -0.00008   0.00058   0.00044   0.00081  -0.00023
 218        6D-1       -0.00033  -0.00030   0.00136   0.00007  -0.00146
 219        6D+2        0.00059  -0.00005  -0.00315  -0.00110   0.00285
 220        6D-2        0.00386   0.00380   0.00057   0.00188  -0.00229
 221 18  C  1S         -0.00413  -0.00368   0.00051  -0.00153   0.00173
 222        2S          0.00732   0.00612   0.00033   0.00255  -0.00235
 223        3S          0.04004   0.01522   0.00110  -0.02291  -0.05701
 224        4PX         0.05468   0.05320   0.01245   0.02505  -0.03045
 225        4PY        -0.03284  -0.05049  -0.03680  -0.04161   0.04289
 226        4PZ        -0.01139  -0.00483   0.01814   0.00535  -0.00735
 227        5PX         0.04353   0.03908   0.01156   0.01492  -0.04239
 228        5PY        -0.01435  -0.02329  -0.02642  -0.02154   0.03609
 229        5PZ        -0.01158  -0.00528   0.01236   0.00625   0.00070
 230        6D 0       -0.00198  -0.00205   0.00118  -0.00073  -0.00081
 231        6D+1        0.00056   0.00090  -0.00205   0.00032   0.00199
 232        6D-1       -0.00114  -0.00069   0.00264   0.00045  -0.00218
 233        6D+2       -0.00229  -0.00207   0.00057  -0.00075   0.00026
 234        6D-2       -0.00297  -0.00341  -0.00097  -0.00183   0.00164
 235 19  H  1S          0.00335   0.02799   0.08227   0.06246  -0.06047
 236        2S          0.01062   0.03420   0.04498   0.06218  -0.04735
 237        3PX         0.00027   0.00087   0.00023   0.00109  -0.00023
 238        3PY        -0.00108  -0.00176   0.00360  -0.00083  -0.00226
 239        3PZ         0.00079   0.00202  -0.00098   0.00210   0.00053
 240 20  H  1S          0.01705   0.02633  -0.11681   0.00544   0.07649
 241        2S          0.01291   0.02498  -0.07773   0.01606   0.05183
 242        3PX         0.00037  -0.00008   0.00041  -0.00043  -0.00041
 243        3PY        -0.00164  -0.00312  -0.00106  -0.00332   0.00084
 244        3PZ        -0.00057  -0.00082   0.00280  -0.00018  -0.00155
 245 21  H  1S          0.02125   0.02573  -0.09126  -0.06149  -0.06174
 246        2S         -0.00199   0.03834  -0.05382  -0.05947  -0.05085
 247        3PX        -0.00030  -0.00066   0.00080   0.00075   0.00051
 248        3PY         0.00057  -0.00327  -0.00348   0.00154  -0.00207
 249        3PZ        -0.00146  -0.00119   0.00058   0.00177   0.00052
 250 22  H  1S         -0.02969   0.03943   0.11736  -0.00584   0.07450
 251        2S         -0.02078   0.03713   0.07671  -0.01732   0.04931
 252        3PX         0.00074   0.00012  -0.00013  -0.00066  -0.00004
 253        3PY         0.00014  -0.00326   0.00216   0.00300   0.00128
 254        3PZ        -0.00064   0.00227   0.00214  -0.00120   0.00105
 255 23  H  1S          0.03309   0.04374  -0.00038  -0.03225  -0.02154
 256        2S          0.02264   0.02293  -0.00856  -0.02245  -0.03079
 257        3PX         0.00011  -0.00200  -0.00174   0.00053  -0.00094
 258        3PY         0.00835  -0.00477  -0.00132   0.00073  -0.00066
 259        3PZ        -0.00686   0.00329  -0.00233  -0.00132  -0.00199
 260 24  H  1S          0.08344  -0.06192  -0.00240   0.01739   0.00062
 261        2S          0.04865  -0.04494  -0.00530   0.01747  -0.00404
 262        3PX        -0.00443   0.00286  -0.00053  -0.00063  -0.00094
 263        3PY         0.00586  -0.00029   0.00211   0.00001   0.00077
 264        3PZ         0.00276  -0.00021   0.00065  -0.00032   0.00052
 265 25  H  1S          0.07643  -0.04037   0.00012   0.00364   0.00664
 266        2S          0.03685  -0.05192  -0.03959   0.00228  -0.01091
 267        3PX         0.00302  -0.00168   0.00173  -0.00033   0.00335
 268        3PY         0.00519  -0.00012   0.00262   0.00009   0.00219
 269        3PZ         0.00420  -0.00065   0.00259  -0.00002   0.00248
 270 26  H  1S         -0.11050   0.02175   0.00836   0.01152   0.01478
 271        2S         -0.06725   0.01246   0.00612   0.01124   0.00941
 272        3PX         0.00560  -0.00209  -0.00038  -0.00007  -0.00059
 273        3PY        -0.00182   0.00124  -0.00043  -0.00030  -0.00015
 274        3PZ        -0.00321   0.00447   0.00171  -0.00102   0.00049
 275 27  H  1S         -0.07092   0.04495  -0.02450  -0.02374  -0.02322
 276        2S         -0.06256  -0.01003  -0.02379   0.01933  -0.01899
 277        3PX        -0.00303   0.00117  -0.00009  -0.00105   0.00072
 278        3PY        -0.00204   0.00239   0.00109  -0.00118   0.00121
 279        3PZ        -0.00414   0.00517   0.00142  -0.00187   0.00048
 280 28  H  1S          0.00764   0.00800   0.01140   0.00733  -0.01570
 281        2S          0.00618   0.00874   0.01727   0.01302  -0.03396
 282        3PX        -0.00146  -0.00089  -0.00108   0.00025   0.00131
 283        3PY        -0.00175  -0.00201   0.00107  -0.00111  -0.00013
 284        3PZ         0.00211   0.00242  -0.00156   0.00125   0.00063
 285 29  H  1S          0.02559   0.03077  -0.01397   0.01588   0.00761
 286        2S          0.01595   0.02220  -0.01084   0.01569   0.00333
 287        3PX        -0.00130  -0.00062   0.00107   0.00052  -0.00027
 288        3PY         0.00155   0.00145  -0.00025   0.00049   0.00008
 289        3PZ         0.00137   0.00151  -0.00074   0.00071   0.00031
 290 30  H  1S          0.02116   0.02616   0.01537   0.01822  -0.02022
 291        2S          0.00917   0.00121   0.01710  -0.00826  -0.01570
 292        3PX        -0.00217  -0.00206   0.00101  -0.00079  -0.00031
 293        3PY         0.00099   0.00129  -0.00092   0.00094   0.00029
 294        3PZ        -0.00054  -0.00087   0.00000  -0.00065  -0.00027
 295 31  H  1S         -0.02599  -0.02147  -0.00833  -0.00705   0.01619
 296        2S         -0.01417  -0.00906  -0.00518   0.00102   0.01371
 297        3PX         0.00030   0.00068   0.00011   0.00073  -0.00004
 298        3PY        -0.00150  -0.00192  -0.00141  -0.00143   0.00157
 299        3PZ        -0.00090  -0.00061   0.00039   0.00001  -0.00008
 300 32  H  1S         -0.02610  -0.02476   0.01559  -0.00744  -0.00520
 301        2S         -0.01647  -0.01277   0.01709   0.00097  -0.01158
 302        3PX         0.00110   0.00118   0.00080   0.00074  -0.00112
 303        3PY        -0.00054  -0.00107  -0.00117  -0.00105   0.00112
 304        3PZ         0.00110   0.00107   0.00041   0.00047  -0.00093
                          60        61        62        63        64
                           V         V         V         V         V
     Eigenvalues --    -0.02828   0.06908   0.07110   0.07338   0.08410
   1 1   C  1S         -0.00262   0.01624   0.03364   0.02784  -0.00310
   2        2S          0.00225  -0.03240  -0.05272  -0.05797   0.01800
   3        3S          0.08473  -0.24230  -0.79260  -0.44560  -0.02467
   4        4PX         0.00474  -0.01699   0.14708  -0.00525   0.01292
   5        4PY        -0.00151  -0.00254   0.08444  -0.02069  -0.02263
   6        4PZ         0.00672  -0.06852  -0.06959  -0.12837   0.00889
   7        5PX         0.03849  -0.06163   0.39803  -0.05329  -0.00117
   8        5PY         0.02006   0.01248   0.23557  -0.00105  -0.08842
   9        5PZ         0.06834  -0.18238  -0.19512  -0.31812   0.03302
  10        6D 0       -0.00576   0.00686   0.01025   0.01066  -0.00202
  11        6D+1        0.00858  -0.00266   0.00539  -0.00037   0.00061
  12        6D-1       -0.00412  -0.00163   0.00099  -0.00588   0.00076
  13        6D+2        0.00450   0.00048  -0.00164   0.00229  -0.00061
  14        6D-2        0.00209  -0.00069   0.00863  -0.00198  -0.00084
  15 2   C  1S         -0.00343   0.01191   0.03032   0.02870  -0.00403
  16        2S          0.01312  -0.00457  -0.06051  -0.03331   0.01329
  17        3S         -0.03655  -0.40127  -0.51396  -0.77025   0.09775
  18        4PX         0.00235   0.00768   0.03886  -0.01278  -0.00932
  19        4PY        -0.00079  -0.04724  -0.04350  -0.10585   0.00478
  20        4PZ         0.00108  -0.09416  -0.03111  -0.15909   0.02903
  21        5PX         0.11951   0.00367   0.11011   0.03833  -0.00479
  22        5PY         0.03819  -0.16045  -0.14218  -0.35474   0.01429
  23        5PZ         0.05050  -0.17232  -0.06252  -0.32418   0.10463
  24        6D 0       -0.01109   0.00340  -0.00184   0.00069   0.00121
  25        6D+1        0.01636  -0.00513   0.00620  -0.00308   0.00103
  26        6D-1       -0.00269   0.00564   0.00146   0.01171   0.00110
  27        6D+2        0.00723  -0.00468  -0.00442  -0.00531   0.00150
  28        6D-2        0.00642   0.00050  -0.01120   0.00238  -0.00010
  29 3   H  1S         -0.07726   0.04056  -0.00670   0.05892   0.00414
  30        2S         -0.14891   0.51805   0.36973   0.99314  -0.11422
  31        3PX         0.00345  -0.00126  -0.00046  -0.00168   0.00130
  32        3PY         0.00169   0.00248   0.00396   0.00495  -0.00140
  33        3PZ        -0.00148   0.00203   0.00027   0.00307   0.00022
  34 4   N  1S         -0.00239  -0.01012  -0.01057  -0.00567   0.00126
  35        2S          0.00168  -0.02388  -0.02391  -0.01711   0.00748
  36        3S         -0.14163  -0.07870  -0.15957  -0.03884  -0.06362
  37        4PX        -0.09234   0.01848  -0.03512  -0.01491  -0.00678
  38        4PY        -0.09147   0.00878  -0.02845  -0.01033   0.01012
  39        4PZ        -0.28000   0.03388   0.00371  -0.03323   0.00333
  40        5PX         0.09461  -0.04861   0.00153  -0.02950   0.02599
  41        5PY         0.11936   0.02789   0.10966   0.07412   0.03894
  42        5PZ         0.30250  -0.03911  -0.01165   0.06820  -0.03104
  43        6D 0        0.00758  -0.00201   0.00426  -0.00112   0.00187
  44        6D+1       -0.00898   0.00431   0.00184   0.00429  -0.00012
  45        6D-1       -0.00054  -0.00133   0.00116   0.00045   0.00055
  46        6D+2       -0.00292   0.00322  -0.00024  -0.00010  -0.00061
  47        6D-2       -0.00357   0.00162   0.00435   0.00385   0.00173
  48 5   C  1S         -0.00180   0.00255   0.01491   0.00593   0.01162
  49        2S          0.00351  -0.01114  -0.09598  -0.03112  -0.04566
  50        3S          0.14014   0.07278   0.55430   0.23404  -0.10097
  51        4PX        -0.09180   0.04287  -0.00244  -0.00614  -0.04767
  52        4PY        -0.08481   0.04070  -0.01540  -0.00136  -0.01685
  53        4PZ        -0.28297   0.09215  -0.00023   0.00418   0.00602
  54        5PX        -0.01235  -0.02488   0.01824   0.02818  -0.27933
  55        5PY         0.04416   0.09974   0.00098   0.05235  -0.02325
  56        5PZ        -0.32221   0.13344  -0.02339   0.01792   0.09330
  57        6D 0        0.01142   0.00239   0.00110   0.00043  -0.00024
  58        6D+1       -0.02887  -0.00165   0.00247  -0.00375   0.00336
  59        6D-1        0.01440  -0.00253   0.00139   0.00243   0.00094
  60        6D+2       -0.01429   0.00038  -0.00165  -0.00020  -0.00255
  61        6D-2       -0.00122   0.00409  -0.00201  -0.00096  -0.00476
  62 6   O  1S          0.00115   0.00407  -0.02825  -0.00359  -0.00853
  63        2S          0.00000   0.00689  -0.05644  -0.01104  -0.01198
  64        3S          0.04707   0.03432  -0.25438  -0.00023  -0.11833
  65        4PX         0.06713  -0.00847   0.05270   0.00824  -0.00341
  66        4PY         0.04681  -0.00598  -0.03705  -0.00188  -0.00322
  67        4PZ         0.13622  -0.02954   0.00303   0.02248   0.00254
  68        5PX         0.07916  -0.01521   0.04641  -0.00659   0.01471
  69        5PY         0.05574  -0.01636  -0.09860  -0.01339  -0.03943
  70        5PZ         0.12354  -0.02062   0.01371   0.04408   0.00886
  71        6D 0        0.00602  -0.00203   0.00309   0.00012   0.00029
  72        6D+1       -0.00677   0.00409   0.00337   0.00322  -0.00084
  73        6D-1       -0.00062   0.00100   0.00353  -0.00059   0.00015
  74        6D+2       -0.00246   0.00041   0.00066   0.00083   0.00092
  75        6D-2       -0.00233   0.00068  -0.00247  -0.00090  -0.00000
  76 7   C  1S          0.00126   0.00685   0.00844  -0.00511   0.01052
  77        2S         -0.00078  -0.03811  -0.03618   0.02215  -0.08047
  78        3S         -0.16114   0.22364  -0.04656  -0.15679   0.58091
  79        4PX        -0.09063  -0.05007   0.02720  -0.02520   0.01889
  80        4PY        -0.01872   0.02324  -0.00911  -0.02276  -0.04139
  81        4PZ        -0.30249  -0.10146   0.00123  -0.09110   0.03513
  82        5PX        -0.01766   0.00673   0.23678   0.01466  -0.06427
  83        5PY        -0.15102   0.02998  -0.02051  -0.06431  -0.04273
  84        5PZ        -0.30013  -0.14286  -0.06473  -0.10760   0.04902
  85        6D 0       -0.01846   0.00249   0.00211  -0.00031   0.00176
  86        6D+1        0.02614  -0.00274   0.00176   0.00359   0.00482
  87        6D-1        0.01236   0.00269  -0.00070   0.00260  -0.00100
  88        6D+2        0.00851   0.00108  -0.00300  -0.00088  -0.00439
  89        6D-2        0.00987  -0.00685   0.00235   0.00379   0.00422
  90 8   N  1S          0.00008  -0.02232  -0.00299   0.00433  -0.01151
  91        2S         -0.00835  -0.05559  -0.00253   0.01073  -0.02016
  92        3S          0.14576  -0.09788  -0.07575   0.04308  -0.22233
  93        4PX        -0.09111   0.01065   0.01040  -0.03290   0.06460
  94        4PY        -0.00721  -0.00761   0.00202   0.00378  -0.03016
  95        4PZ        -0.29484  -0.03611   0.00882  -0.04817   0.01597
  96        5PX         0.09526   0.03433  -0.02906   0.00668  -0.08777
  97        5PY        -0.01157   0.05967   0.04566  -0.02083   0.11391
  98        5PZ         0.32508   0.02545  -0.01086   0.07824  -0.04892
  99        6D 0       -0.00639  -0.00109   0.00185  -0.00179   0.00567
 100        6D+1        0.01002   0.00486   0.00080   0.00101   0.00483
 101        6D-1       -0.00181   0.00403   0.00059   0.00083  -0.00100
 102        6D+2        0.00335   0.00252   0.00019   0.00016   0.00047
 103        6D-2        0.00061   0.00265  -0.00139  -0.00014  -0.00613
 104 9   C  1S          0.00236   0.02872   0.00201  -0.01747   0.02283
 105        2S         -0.01412  -0.04407   0.00792   0.03663  -0.03796
 106        3S          0.08017  -0.62636  -0.08847   0.29027  -0.52198
 107        4PX         0.00181  -0.05222   0.00368   0.02760  -0.00629
 108        4PY         0.00329  -0.01549  -0.00907   0.01064  -0.07698
 109        4PZ        -0.00297   0.06820   0.01214  -0.00941   0.13856
 110        5PX         0.12200  -0.03940  -0.01032   0.04023  -0.18080
 111        5PY        -0.02137  -0.11012  -0.03364   0.03540  -0.26906
[...]
 .00009050,0.00004995,0.00011507,-0.00064826,0.00002189,0.00056279,-0.0
 0001035,-0.00019045,0.00016900,-0.00103829,0.00116376,0.00005631,0.000
 24698,-0.00018069,-0.00002596,0.00022744,0.00002473,-0.00048791,0.0002
 3144,-0.00007380,-0.00391417,0.00090758,-0.00000474,0.00928706,-0.0058
 4684,-0.00283622,-0.24548384,0.12785106,0.06561708,0.00000726,-0.00000
 925,0.00001372,-0.00000868,0.00000018,0.00000331,0.00001373,0.00000989
 ,-0.00000883,0.00000725,0.00000634,-0.00000033,0.00000471,-0.00000082,
 0.00000564,-0.00003692,-0.00002828,-0.00002640,-0.00003151,0.00001632,
 -0.00000287,0.00040589,0.00100568,0.00006447,0.00024162,-0.00194563,-0
 .00031534,0.00047493,0.00069692,-0.00053092,-0.01296936,0.01286229,0.0
 0370621,0.25163875,-0.00003055,0.00000583,-0.00001924,-0.00008672,0.00
 001828,-0.00001107,0.00001853,-0.00000057,0.00001143,0.00016880,0.0000
 3314,0.00000033,-0.00018666,-0.00021386,-0.00015664,0.00013819,0.00010
 920,0.00007429,-0.00032826,-0.00096250,-0.00018384,0.00070377,0.000718
 31,-0.00029818,0.00169763,0.00143297,0.00050499,-0.00035811,-0.0002160
 0,0.00060161,0.00051835,0.00027930,-0.00008936,-0.00069366,0.00108402,
 0.00000076,0.01266495,-0.01072371,-0.00636013,0.01042275,-0.00905041,-
 0.00074190,0.12355035,-0.12771921,-0.03937882,0.00001871,-0.00001033,0
 .00002430,-0.00001251,0.00000684,-0.00000573,0.00001638,0.00001551,-0.
 00000943,0.00001045,0.00000834,0.00000075,0.00000985,0.,0.00000912,-0.
 00008076,0.00021326,-0.00006421,-0.00007198,0.00005647,0.00001667,-0.0
 0046611,-0.00232408,-0.00094226,0.00007073,-0.00193884,0.00117940,0.00
 040760,0.00141975,-0.00114647,-0.01356096,0.01115473,0.00419836,-0.134
 54196,0.13660508,0.00001701,-0.00000774,0.00001347,0.00002130,-0.00001
 876,0.00002953,-0.00003290,0.00000140,-0.00001278,-0.00008772,0.000050
 83,-0.00010653,0.00011982,-0.00000911,0.00008282,-0.00006296,0.0000197
 8,-0.00000877,0.00028246,0.00019451,0.00004838,0.00008760,-0.00000144,
 -0.00062572,-0.00009415,-0.00217896,0.00090099,0.00001911,-0.00006548,
 -0.00046868,-0.00037575,0.00004703,0.00028078,0.00010535,-0.00045665,-
 0.00001534,-0.02272548,0.01101518,0.00585126,0.02110902,-0.00958776,-0
 .00688593,0.06575501,-0.04156358,-0.05532287,-0.00001543,0.00001180,-0
 .00001111,-0.00000009,-0.00001317,0.00000547,-0.00000657,-0.00000587,0
 .00000068,-0.00000309,0.00000086,-0.00000352,-0.00000635,-0.00000648,-
 0.00000527,0.00001995,-0.00019809,-0.00008545,0.00002982,-0.00011303,-
 0.00002430,0.00000741,0.00479041,-0.00020184,-0.00032194,-0.00483950,0
 .00006989,0.00002378,0.00288571,0.00066294,0.00251013,-0.00274782,-0.0
 0167835,-0.06638445,0.04278894,0.05751434,0.00050575,-0.00085898,-0.00
 031198,0.00020234,-0.01222707,0.01682683,-0.00216093,0.00100946,0.0027
 2931,0.00242878,-0.00051743,-0.00054630,-0.00017619,0.00068448,-0.0003
 4423,-0.00048211,0.00007994,0.00016400,0.00002132,0.00003342,0.0001269
 2,-0.00002835,-0.00003652,-0.00005274,-0.00001064,0.00000469,0.0000068
 5,-0.00000881,-0.00000435,-0.00000441,-0.00000577,0.00000357,0.0000080
 6,-0.00002189,0.00000069,-0.00002119,-0.00000760,0.00000226,-0.0000015
 8,0.00000873,-0.00000265,-0.00000564,0.00000209,0.00000061,0.00000251,
 -0.04289967,0.01004747,-0.00413679,-0.00333171,-0.00228000,0.00557620,
 -0.00073985,0.01678951,-0.02245712,0.00026945,0.00012882,-0.00038588,0
 .00006345,-0.00004607,-0.00008605,0.00000057,-0.00000136,-0.00000378,-
 0.00000641,0.00000408,-0.00000334,0.00000033,0.00000118,-0.00000340,-0
 .00000026,-0.00000007,-0.00000291,0.00000053,-0.00000368,0.00000449,-0
 .00000090,0.00000062,-0.00000137,0.00000197,0.00000013,0.00000567,0.04
 643828,0.00024418,0.00134881,-0.00070739,0.00047281,0.00401012,-0.0079
 7426,0.00133907,0.00034959,-0.00163211,-0.00071213,-0.00004731,-0.0001
 6272,-0.00002341,0.00055450,0.00043032,-0.00059408,-0.00017424,-0.0002
 1143,-0.00006897,0.00002933,-0.00004742,0.00005173,0.00000864,-0.00003
 203,-0.00003474,0.00000049,0.00000760,0.00000208,-0.00000570,0.0000023
 7,-0.00001434,-0.00000302,0.00000812,0.00004302,-0.00001841,0.00000918
 ,-0.00000491,-0.00000537,-0.00000122,0.00000325,-0.00000551,-0.0000035
 4,0.00000582,0.00000443,0.00000008,0.01098374,-0.14449786,0.13953668,0
 .00159610,-0.01500125,0.02127648,0.00056547,-0.00061889,-0.00521919,-0
 .00031197,-0.00006066,0.00026440,-0.00002843,0.00006198,0.00009098,0.0
 0000440,-0.00000273,-0.00000397,-0.00000149,0.00000536,0.00000026,0.00
 000483,0.00000362,-0.00000550,0.00000326,0.00000198,-0.00000245,-0.000
 00248,-0.00000288,0.00000787,0.00000273,0.00000267,-0.00000121,-0.0000
 0081,-0.00000494,0.00000532,-0.01478217,0.15455400,0.00033148,0.001769
 00,0.00086207,-0.00207869,0.01280662,-0.01729338,0.00305657,-0.0010132
 4,-0.00234113,-0.00099341,-0.00089072,0.00110835,0.00085735,0.00078365
 ,0.00039859,-0.00048281,-0.00088543,-0.00025231,-0.00018463,-0.0000283
 5,-0.00022149,0.00008275,0.00002088,0.00003880,-0.00002971,0.00000316,
 0.00000343,0.00001437,-0.00000215,0.00000657,0.00000100,0.00000034,-0.
 00000236,0.00007511,-0.00003756,0.00003363,0.00000467,-0.00000796,0.00
 000361,-0.00000460,-0.00000118,0.00000170,-0.00000057,-0.00000157,-0.0
 0000051,-0.00535429,0.14029984,-0.23065950,-0.00021205,-0.00837360,0.0
 0980693,0.00192001,0.00333390,-0.00678859,-0.00036637,-0.00110823,-0.0
 0004834,-0.00037745,-0.00006334,0.00036865,0.00000418,-0.00000016,0.00
 000032,0.00000563,0.00000076,0.00000481,0.00000467,0.00000145,-0.00000
 033,0.00000292,0.00000189,0.,-0.00000201,0.00000354,0.00000153,0.00000
 190,0.00000025,-0.00000023,-0.00000255,-0.00000297,-0.00000286,0.00377
 493,-0.14573630,0.24263419,-0.00083476,-0.00009719,0.00065083,0.001315
 98,0.00378144,0.00054812,0.00015806,-0.00011669,-0.00026012,0.00020454
 ,-0.00014612,-0.00033970,0.00015211,0.00011746,0.00002421,-0.00042095,
 0.00035215,-0.00000317,0.00013148,0.00006043,0.00006018,-0.00008094,-0
 .00006750,-0.00007309,0.00000568,0.00000539,0.00001929,-0.00002556,-0.
 00000131,-0.00001133,0.00001304,0.00000616,0.00001518,-0.00005822,-0.0
 0003598,-0.00001669,-0.00001120,0.00001032,-0.00000868,0.00000779,-0.0
 0000100,-0.00000709,-0.00000406,-0.00000211,0.00000141,-0.00481017,0.0
 0045572,0.01751991,-0.04307273,0.00646715,0.04484106,0.00472259,-0.005
 77037,-0.02816258,0.00000232,0.00005171,-0.00005436,0.00000101,0.00025
 916,0.00008165,-0.00000385,-0.00000134,-0.00000408,-0.00000850,0.00000
 462,-0.00000440,-0.00000431,-0.00000161,0.00000268,-0.00000180,-0.0000
 0238,-0.00000215,0.00000134,-0.00000144,-0.00000318,-0.00000081,-0.000
 00182,0.00000080,0.00000300,0.00000213,0.00000748,0.00042473,-0.001925
 19,-0.00107182,0.04403506,0.00060377,0.00010531,-0.00076239,-0.0031832
 5,-0.00329553,0.00008567,0.00008314,-0.00001145,-0.00027299,0.00009856
 ,0.00025675,0.00030673,-0.00012465,-0.00007377,-0.00000469,0.00038999,
 -0.00014268,-0.00001715,-0.00011420,-0.00004335,-0.00004989,0.00008554
 ,0.00005072,0.00003696,-0.00001246,0.00000136,-0.00000632,0.00001820,0
 .00000119,0.00000604,-0.00001773,-0.00000607,-0.00001555,0.00006887,0.
 00002397,0.00002353,0.00000307,-0.00000717,0.00000554,-0.00000155,-0.0
 0000183,0.00000118,0.00000561,0.00000279,-0.00000176,0.00168452,-0.007
 20004,-0.02412112,0.00546239,-0.06478908,-0.07289675,0.00105370,-0.005
 44240,-0.00394460,0.00002681,0.00013074,0.00005708,-0.00001745,-0.0002
 3322,-0.00006681,0.00000573,-0.00000068,0.00000279,0.00000786,-0.00000
 144,0.00000437,0.00000448,0.00000335,-0.00000528,0.00000131,0.00000135
 ,-0.00000013,-0.00000069,-0.00000487,0.00000550,0.00000033,0.00000285,
 -0.00000013,0.00000085,-0.00000156,0.00000282,0.00168369,0.00178448,0.
 00046308,-0.00676626,0.07045336,-0.00013538,0.00021534,0.00020707,-0.0
 0014758,0.00059595,0.00048078,-0.00007848,0.00010618,0.00022605,0.0000
 1109,0.00000420,-0.00007427,-0.00002748,-0.00002282,-0.00002107,0.0000
 4909,-0.00002279,-0.00000751,-0.00007429,-0.00001243,-0.00000681,0.000
 04451,0.00002645,0.00002198,-0.00001152,-0.00000396,-0.00000559,0.0000
 1070,-0.00000082,0.00000591,-0.00001287,-0.00000406,-0.00000713,0.0000
 3740,0.00001268,0.00000767,0.00000378,-0.00000632,0.00000340,-0.000003
 66,-0.00000026,0.00000369,0.00000199,0.00000269,-0.00000066,-0.0019764
 3,0.00179654,0.00421488,0.04372821,-0.07766778,-0.32240555,0.00235885,
 -0.00089524,-0.00735835,-0.00001950,0.00000193,-0.00002143,0.00001326,
 0.00003388,0.00001017,0.00000280,-0.00000012,0.00000049,0.00000246,-0.
 00000098,0.00000218,0.00000345,0.00000087,-0.00000196,0.00000173,0.000
 00156,0.00000051,-0.00000121,0.00000165,0.00000276,0.00000220,0.000001
 21,-0.00000112,-0.00000315,-0.00000302,-0.00000361,-0.00030050,-0.0002
 4765,0.00062550,-0.04342233,0.08305203,0.33263027,0.00034763,0.0000269
 9,-0.00021457,0.00010505,-0.00123389,-0.00035987,0.00011595,-0.0001781
 9,0.00010483,0.00039486,-0.00036303,-0.00000255,-0.00011304,0.00033119
 ,-0.00004109,-0.00014099,-0.00049878,-0.00001851,-0.00011000,0.0001304
 4,-0.00008166,0.00008843,-0.00003053,0.00000825,-0.00004506,-0.0000096
 8,-0.00000626,0.00000663,0.00000154,0.00000262,-0.00002467,-0.00000513
 ,-0.00001118,0.00009283,-0.00007351,0.00004040,0.00000245,-0.00000343,
 0.00000648,-0.00000065,-0.00000172,-0.00000587,-0.00000619,0.00000791,
 0.00000231,0.00761892,0.01207459,-0.01433047,-0.10060136,-0.09601353,0
 .08418075,-0.01129168,-0.01461241,0.01727679,-0.00009952,-0.00011094,-
 0.00000467,-0.00007923,-0.00011052,0.00001439,0.00000752,-0.00000396,-
 0.00000122,0.00000565,-0.00000060,0.00000642,0.00000815,-0.00000023,-0
 .00000498,0.00000713,-0.00000145,-0.00000141,-0.00000457,0.00000340,0.
 00001025,0.00000893,-0.00000183,-0.00000221,-0.00001020,-0.00000805,0.
 00000241,0.00047898,0.00343288,0.00120063,-0.00140943,-0.00117919,-0.0
 0011287,0.10413498,-0.00052876,0.00006410,-0.00002233,-0.00020962,0.00
 171095,0.00264286,0.00019895,-0.00015855,-0.00088382,0.00029842,0.0002
 3845,-0.00055864,0.00031584,-0.00022559,0.00013721,0.00000713,0.000677
 75,-0.00004829,0.00005360,-0.00011934,0.00012824,-0.00006385,0.0000189
 3,-0.00001418,0.00003083,0.00001305,0.00000652,-0.00000296,-0.00000091
 ,-0.00000283,0.00001600,0.00000157,0.00000200,-0.00005666,0.00005758,-
 0.00003089,-0.00000155,0.00000444,-0.00000391,0.00000340,0.00000152,0.
 00000169,0.00000211,-0.00000513,0.00000030,-0.01194209,-0.01651015,0.0
 1291256,-0.09361828,-0.17229924,0.11165378,0.00091386,-0.00459167,-0.0
 0013519,0.00003303,0.00026613,0.00002187,0.00005152,0.00004684,-0.0000
 1801,-0.00000397,0.00000317,0.00000159,-0.00000444,-0.00000014,-0.0000
 0473,-0.00000565,-0.00000058,0.00000234,-0.00000487,-0.00000055,0.0000
 0056,0.00000380,-0.00000423,-0.00000576,-0.00000607,0.00000071,0.00000
 127,0.00000688,0.00000756,-0.00000018,-0.00159038,-0.00278645,-0.00179
 309,0.00559383,0.00799052,-0.00590467,0.10027852,0.18529657,0.00011018
 ,-0.00003138,-0.00006364,0.00126929,-0.00185096,0.00098032,-0.00043901
 ,0.00002806,0.00004018,-0.00004365,-0.00008289,-0.00014619,-0.00011833
 ,0.00000850,-0.00005437,0.00002307,-0.00015332,-0.00001309,0.00001489,
 0.00005805,0.00001536,-0.00000828,-0.00004364,-0.00002976,-0.00000931,
 -0.00000264,0.00000371,-0.00001038,0.00000393,-0.00000668,0.00000103,-
 0.00000154,-0.00000337,0.00001953,-0.00005221,0.00001430,-0.00000430,0
 .00000774,-0.00000050,0.00000463,0.00000039,-0.00000778,-0.00000686,0.
 00000086,0.00000167,-0.00214086,-0.00161147,-0.00139168,0.08533261,0.1
 1554532,-0.15331544,-0.00693959,-0.01142156,0.00879452,0.00002140,0.00
 003440,-0.00008039,0.00000116,-0.00000731,-0.00000001,0.00000200,-0.00
 000176,-0.00000030,0.00000104,0.00000019,0.00000149,-0.00000016,-0.000
 00179,-0.00000024,0.00000094,-0.00000330,-0.00000136,-0.00000064,-0.00
 000123,0.00000187,0.00000171,-0.00000260,0.00000014,-0.00000172,0.0000
 0037,0.00000729,-0.00008994,0.00044102,0.00036554,0.01046488,0.0187202
 2,-0.00995096,-0.08636456,-0.11829564,0.15426539,-0.00029239,-0.000161
 37,0.00007447,-0.00134981,-0.00194973,-0.00309927,-0.00002467,-0.00008
 550,-0.00001450,-0.00116310,0.00089198,0.00101988,-0.00031940,-0.00074
 354,-0.00019075,0.00038218,0.00054030,0.00018142,0.00030322,0.00000776
 ,0.00000354,-0.00016420,-0.00003228,-0.00000733,0.00006128,-0.00000076
 ,-0.00000405,-0.00002542,0.00000243,-0.00000987,0.00003682,0.00001384,
 0.00002598,-0.00017505,0.00003511,-0.00005350,-0.00000285,0.00001166,-
 0.00001005,0.00000085,0.00000467,0.00000301,-0.00000292,-0.00000651,-0
 .00000092,-0.01348326,-0.00689602,0.00992721,-0.00695906,0.00015129,0.
 00259812,-0.22541109,-0.06893336,0.12899723,0.00002334,0.00005280,-0.0
 0005201,0.00001595,0.00007109,0.00004272,-0.00001494,0.00000285,-0.000
 00094,-0.00000955,-0.00000067,-0.00000880,-0.00001199,-0.00000424,0.00
 000983,-0.00000753,-0.00000218,0.00000234,0.00000482,0.00000094,-0.000
 01495,-0.00000609,-0.00000259,0.00000282,0.00000638,0.00000833,-0.0000
 0300,0.00156686,0.00099260,0.00079524,0.00088456,-0.00071812,0.0003091
 2,-0.00078179,0.00112503,-0.00047512,0.23946664,0.00024019,0.00026048,
 -0.00004732,0.00328733,0.00106563,0.00257264,-0.00001528,-0.00000142,0
 .00021030,0.00131119,-0.00083320,-0.00108656,0.00057276,0.00066721,0.0
 0031324,-0.00033446,-0.00039082,-0.00016961,-0.00027190,-0.00012403,0.
 00005078,0.00012851,0.00006331,0.00000896,-0.00003834,0.00000428,0.000
 00952,0.00002587,-0.00000349,0.00000950,-0.00001459,-0.00001413,-0.000
 02240,0.00014052,0.00000545,0.00003300,0.00000185,-0.00001020,0.000006
 17,-0.00000031,-0.00000448,0.00000007,0.00000820,0.00000343,-0.0000007
 0,0.01505246,0.00551402,-0.01679400,-0.01718120,-0.00741199,0.01787553
 ,-0.06990921,-0.05996425,0.05058149,-0.00003173,-0.00011593,0.00005032
 ,-0.00004706,-0.00005371,-0.00001568,0.00001182,-0.00000036,0.00000330
 ,0.00000784,0.00000045,0.00000508,0.00000692,0.00000515,-0.00000768,0.
 00000350,0.00000315,-0.00000116,-0.00000220,-0.00000401,0.00001014,0.0
 0000126,0.00000361,-0.00000134,-0.00000054,-0.00000450,0.00000248,-0.0
 0222294,0.00007558,-0.00072313,0.00278380,0.00097030,0.00074402,-0.004
 46985,-0.00022147,-0.00251586,0.07286721,0.06205897,0.00005076,0.00018
 323,-0.00001133,0.00024566,-0.00042902,-0.00069160,-0.00024774,-0.0001
 4092,0.00045613,-0.00014858,-0.00023109,0.00035464,0.00006651,0.000074
 96,-0.00000860,0.00006694,-0.00002464,0.00002767,-0.00000872,-0.000021
 88,-0.00003457,0.00001072,0.00000485,0.00001104,-0.00000323,-0.0000014
 3,-0.00000233,0.00000232,-0.00000039,0.00000169,-0.00000475,-0.0000013
 0,0.00000144,0.00002038,0.00000291,0.00000620,0.00000117,-0.00000248,0
 .00000116,-0.00000210,-0.00000029,0.00000148,0.00000049,-0.00000032,-0
 .00000050,-0.00624260,-0.00161345,0.00036829,-0.01178261,-0.00349056,0
 .00727714,0.13297670,0.05108567,-0.14467673,-0.00000181,-0.00006369,0.
 00000439,-0.00002049,0.00001449,0.00001441,0.00000125,-0.00000005,-0.0
 0000049,0.00000146,0.00000046,0.00000117,0.00000146,0.00000033,0.00000
 001,0.00000074,0.00000080,-0.00000010,-0.00000066,0.00000124,0.,0.0000
 0049,0.00000058,-0.00000015,-0.00000040,-0.00000078,-0.00000154,-0.000
 48894,0.00068972,0.00119528,0.00083669,-0.00090231,0.00130697,-0.00207
 585,0.00007849,-0.00058662,-0.13504728,-0.05162406,0.14491957,-0.00039
 903,0.00015111,0.00028794,0.00184675,0.00191525,-0.00186653,-0.0003647
 3,-0.00042704,0.00077363,0.00045070,-0.00043970,0.00041995,0.00024117,
 0.00011555,0.00009748,0.00001507,0.00002809,0.00000453,-0.00003843,-0.
 00003098,-0.00004224,0.00003185,0.00001761,0.00002770,-0.00000467,-0.0
 0000018,-0.00000491,0.00000996,0.00000019,0.00000477,-0.00000463,-0.00
 000302,-0.00000492,0.00003521,0.00000307,0.00001418,0.00000482,-0.0000
 0516,0.00000335,-0.00000444,0.00000032,0.00000365,0.00000069,0.0000003
 0,-0.00000112,-0.00484911,0.00026084,-0.02011928,-0.00530084,0.0023456
 1,-0.00914543,-0.05631239,0.00358497,-0.04755224,-0.00005082,-0.000090
 08,-0.00003959,-0.00004420,0.00010924,0.00004350,0.00000194,0.00000021
 ,0.00000120,0.00000429,-0.00000154,0.00000268,0.00000253,0.00000052,-0
 .00000031,0.00000109,0.00000115,0.00000072,-0.00000066,0.00000202,-0.0
 0000002,0.00000104,0.00000076,-0.00000019,-0.00000143,-0.00000134,-0.0
 0000344,-0.00253305,-0.00124286,-0.00097246,-0.00131601,0.00084713,-0.
 00025340,0.00129429,-0.00089360,-0.00061564,0.00745221,-0.00191163,0.0
 2179203,0.05983085,0.00018182,-0.00017626,0.00015879,-0.00283014,0.000
 49669,-0.00014209,0.00008138,0.00025218,-0.00066201,-0.00036233,0.0003
 5846,-0.00000350,-0.00013641,0.00004689,-0.00000682,-0.00023003,-0.000
 02498,-0.00009391,0.00002537,0.00002983,0.00002436,-0.00003476,-0.0000
 1175,-0.00000623,0.00000979,0.00000295,0.00000007,-0.00000429,-0.00000
 097,-0.00000122,0.00000700,0.00000595,0.00000647,-0.00004565,-0.000003
 19,-0.00002075,0.00000122,0.00000255,-0.00000053,-0.00000015,0.0000011
 9,0.00000052,-0.00000205,-0.00000356,0.00000099,0.00082656,-0.00558788
 ,0.02145340,-0.00212366,0.00387855,-0.02794272,0.00437434,-0.03968776,
 0.04049853,0.00004238,-0.00000939,0.00012205,0.00010111,-0.00003603,-0
 .00006258,-0.00000301,0.00000118,-0.00000108,-0.00000412,-0.00000024,-
 0.00000223,-0.00000198,-0.00000148,0.00000269,-0.00000078,0.00000003,0
 .00000027,0.00000036,0.00000297,-0.00000311,-0.00000173,-0.00000113,-0
 .00000002,0.00000072,0.00000192,-0.00000345,0.00409905,0.00043965,0.00
 118061,-0.00501313,-0.00052390,-0.00180426,0.00262300,0.00052416,0.001
 23205,0.00275695,-0.00154303,0.00641093,-0.00433679,0.04156639,-0.0001
 7422,-0.00007336,0.00020520,0.00146270,-0.00057270,0.00025349,-0.00059
 909,0.00018904,0.00052981,-0.00008469,-0.00006803,0.00006210,0.0001082
 6,-0.00021150,-0.00011478,0.00013008,0.00012117,0.00012712,0.00006086,
 -0.00003729,-0.00000233,-0.00004137,0.00000212,0.00001465,0.00002122,-
 0.00000057,-0.00000661,-0.00000358,0.00000170,-0.00000087,0.00001258,0
 .00000144,0.00000351,-0.00003196,0.00001187,-0.00000757,0.00000250,0.0
 0000175,-0.00000094,-0.00000187,0.00000251,0.00000313,-0.00000101,-0.0
 0000278,-0.00000086,-0.00017239,-0.00078621,0.00063434,-0.00059139,0.0
 0202322,-0.00663954,-0.05140650,0.03948887,-0.32898489,-0.00000953,-0.
 00000569,-0.00008370,0.00000783,0.00008145,0.00008358,-0.00000364,0.00
 000175,0.00000121,0.00000017,-0.00000141,-0.00000106,-0.00000321,-0.00
 000150,0.00000340,-0.00000263,-0.00000016,0.00000145,0.00000160,0.0000
 0146,-0.00000556,-0.00000225,-0.00000083,0.00000074,0.00000169,0.00000
 274,-0.00000336,0.00002231,-0.00078202,0.00015150,-0.00162959,0.000294
 33,0.00011573,0.00078328,0.00013089,0.00116059,-0.00500059,0.00052297,
 -0.00993413,0.05714440,-0.04033524,0.34243463\\0.00214528,-0.00412251,
 0.00046470,0.01567992,-0.00941167,0.00335215,-0.00365569,-0.00160889,-
 0.00177085,-0.00597433,0.00350541,0.00187235,-0.00409458,0.03100482,0.
 00324702,-0.01230315,-0.01769160,-0.00711136,-0.00092987,0.02913745,-0
 .00195163,0.00888389,0.00297484,-0.00121553,-0.01227699,-0.01109723,-0
 .00376873,0.00272877,-0.00135139,0.00162850,-0.00152023,-0.00362774,-0
 .00054520,0.01309668,-0.01498250,0.00534323,0.00013185,-0.00156037,0.0
 0072015,-0.00106789,-0.00038459,0.00060916,0.00132229,0.00226892,0.001
 85014,-0.00243082,0.00216060,-0.00205129,0.00246158,-0.00233146,0.0006
 5707,-0.00082140,-0.00178148,0.00003334,-0.00066445,-0.00104193,-0.000
 40264,-0.00076569,-0.00036599,-0.00051790,0.00081334,-0.00095459,0.000
 26365,0.00070934,-0.00036544,0.00042658,0.00079367,0.00062519,-0.00108
 057,0.00064474,0.00090689,0.00000541,0.00001942,-0.00017379,0.00176918
 ,0.00034359,0.00039461,-0.00041379,-0.00156331,-0.00241381,-0.00181683
 ,0.00012703,0.00081997,-0.00015694,0.00021904,0.00120587,-0.00044118,-
 0.00127065,-0.00021280,0.00111588,-0.00049837,0.00097334,-0.00000504,-
 0.00028299,-0.00049813,-0.00010903\\\@

 Writing a WFNX file to "07_sub.wfx"


 MAN IS THE MEASURE OF ALL THINGS.
  -- PROTAGORAS (5TH CENTURY B.C.)
 Job cpu time:       0 days  0 hours 45 minutes 53.3 seconds.
 Elapsed time:       0 days  0 hours  5 minutes 49.9 seconds.
 File lengths (MBytes):  RWF=    343 Int=      0 D2E=      0 Chk=      7 Scr=      1
 Normal termination of Gaussian 16 at Sun Jan 15 17:46:01 2023.
