 Entering Gaussian System, Link 0=g16
 Initial command:
 /software/gaussian/G16-A.03/avx/g16/l1.exe "/scratch/lcmd/1393739.slurm/Gau-104371.inp" -scrdir="/scratch/lcmd/1393739.slurm/"
 Entering Link 1 = /software/gaussian/G16-A.03/avx/g16/l1.exe PID=    104372.
  
 Copyright (c) 1988,1990,1992,1993,1995,1998,2003,2009,2016,
            Gaussian, Inc.  All Rights Reserved.
  
 This is part of the Gaussian(R) 16 program.  It is based on
 the Gaussian(R) 09 system (copyright 2009, Gaussian, Inc.),
 the Gaussian(R) 03 system (copyright 2003, Gaussian, Inc.),
 the Gaussian(R) 98 system (copyright 1998, Gaussian, Inc.),
 the Gaussian(R) 94 system (copyright 1995, Gaussian, Inc.),
 the Gaussian 92(TM) system (copyright 1992, Gaussian, Inc.),
 the Gaussian 90(TM) system (copyright 1990, Gaussian, Inc.),
 the Gaussian 88(TM) system (copyright 1988, Gaussian, Inc.),
 the Gaussian 86(TM) system (copyright 1986, Carnegie Mellon
 University), and the Gaussian 82(TM) system (copyright 1983,
 Carnegie Mellon University). Gaussian is a federally registered
 trademark of Gaussian, Inc.
  
 This software contains proprietary and confidential information,
 including trade secrets, belonging to Gaussian, Inc.
  
 This software is provided under written license and may be
 used, copied, transmitted, or stored only in accord with that
 written license.
  
 The following legend is applicable only to US Government
 contracts under FAR:
  
                    RESTRICTED RIGHTS LEGEND
  
 Use, reproduction and disclosure by the US Government is
 subject to restrictions as set forth in subparagraphs (a)
 and (c) of the Commercial Computer Software - Restricted
 Rights clause in FAR 52.227-19.
  
 Gaussian, Inc.
 340 Quinnipiac St., Bldg. 40, Wallingford CT 06492
  
  
 ---------------------------------------------------------------
 Warning -- This program may not be used in any manner that
 competes with the business of Gaussian, Inc. or will provide
 assistance to any competitor of Gaussian, Inc.  The licensee
 of this program is prohibited from giving any competitor of
 Gaussian, Inc. access to this program.  By using this program,
 the user acknowledges that Gaussian, Inc. is engaged in the
 business of creating and licensing software in the field of
 computational chemistry and represents and warrants to the
 licensee that it is not a competitor of Gaussian, Inc. and that
 it will not use this program in any manner prohibited above.
 ---------------------------------------------------------------
  

 Cite this work as:
 Gaussian 16, Revision A.03,
 M. J. Frisch, G. W. Trucks, H. B. Schlegel, G. E. Scuseria, 
 M. A. Robb, J. R. Cheeseman, G. Scalmani, V. Barone, 
 G. A. Petersson, H. Nakatsuji, X. Li, M. Caricato, A. V. Marenich, 
 J. Bloino, B. G. Janesko, R. Gomperts, B. Mennucci, H. P. Hratchian, 
 J. V. Ortiz, A. F. Izmaylov, J. L. Sonnenberg, D. Williams-Young, 
 F. Ding, F. Lipparini, F. Egidi, J. Goings, B. Peng, A. Petrone, 
 T. Henderson, D. Ranasinghe, V. G. Zakrzewski, J. Gao, N. Rega, 
 G. Zheng, W. Liang, M. Hada, M. Ehara, K. Toyota, R. Fukuda, 
 J. Hasegawa, M. Ishida, T. Nakajima, Y. Honda, O. Kitao, H. Nakai, 
 T. Vreven, K. Throssell, J. A. Montgomery, Jr., J. E. Peralta, 
 F. Ogliaro, M. J. Bearpark, J. J. Heyd, E. N. Brothers, K. N. Kudin, 
 V. N. Staroverov, T. A. Keith, R. Kobayashi, J. Normand, 
 K. Raghavachari, A. P. Rendell, J. C. Burant, S. S. Iyengar, 
 J. Tomasi, M. Cossi, J. M. Millam, M. Klene, C. Adamo, R. Cammi, 
 J. W. Ochterski, R. L. Martin, K. Morokuma, O. Farkas, 
 J. B. Foresman, and D. J. Fox, Gaussian, Inc., Wallingford CT, 2016.
 
 ******************************************
 Gaussian 16:  ES64L-G16RevA.03 25-Dec-2016
                23-Jan-2023 
 ******************************************
 %nprocs=8
 Will use up to    8 processors via shared memory.
 %mem=32000MB
 %chk=08_sub.chk
 ----------------------------------------------------------------------
 #p pop=(regular,nbo,savenbos) freq=noraman def2svp empiricaldispersion
 =gd3bj output=wfx pbe1pbe
 ----------------------------------------------------------------------
 1/10=4,30=1,38=1/1,3;
 2/12=2,17=6,18=5,40=1/2;
 3/5=43,7=101,11=2,25=1,30=1,71=2,74=-13,124=41,140=1/1,2,3;
 4//1;
 5/5=2,38=5,98=1/2;
 8/6=4,10=90,11=11/1;
 11/6=1,8=1,9=11,15=111,16=1/1,2,10;
 10/6=1/2;
 6/28=1,40=1,73=1/1,7;
 7/8=1,10=1,25=1/1,2,3,16;
 1/10=4,30=1/3;
 99/6=200/99;
 Leave Link    1 at Mon Jan 23 08:46:57 2023, MaxMem=  4194304000 cpu:               0.5 elap:               0.1
 (Enter /software/gaussian/G16-A.03/avx/g16/l101.exe)
 ------
 08_sub
 ------
 Symbolic Z-matrix:
 Charge =  0 Multiplicity = 1
 C                     2.27247   2.63499   0.82237 
 C                     2.24476   1.09521   0.6919 
 H                     2.0787    0.60112   1.66664 
 N                     1.0203    0.88121  -0.06772 
 C                     0.40004   1.99329  -0.1457 
 O                     0.9667    3.06755   0.36206 
 C                    -0.96266   1.98565  -0.70092 
 N                    -1.45065   0.87222  -1.08303 
 C                    -2.86936   1.10028  -1.34867 
 H                    -3.11011   0.72935  -2.35701 
 C                    -2.98061   2.64231  -1.27315 
 O                    -1.71416   3.0718   -0.72121 
 C                    -3.73801   0.34708  -0.32817 
 C                    -3.32283   0.63767   1.11639 
 C                    -4.17955  -0.12935   2.11754 
 C                    -4.13292  -1.62593   1.83269 
 C                    -4.58858  -1.92      0.40841 
 C                    -3.75161  -1.15517  -0.60932 
 C                     3.47607   0.47848   0.03835 
 C                     3.27757  -1.01023  -0.2529 
 C                     4.53486  -1.64885  -0.82976 
 C                     5.74615  -1.42404   0.06691 
 C                     5.95798   0.06093   0.33671 
 C                     4.70515   0.70165   0.92266 
 H                     3.0238    3.09876   0.16385 
 H                     2.40534   3.005     1.84604 
 H                    -3.77772   2.99346  -0.60389 
 H                    -3.09328   3.12048  -2.25702 
 H                    -4.76771   0.73008  -0.47536 
 H                    -3.36891   1.72118   1.32605 
 H                    -2.27406   0.32466   1.25969 
 H                    -5.22524   0.22675   2.06455 
 H                    -3.8282    0.08037   3.14032 
 H                    -4.75474  -2.17507   2.55795 
 H                    -3.09543  -1.98066   1.96257 
 H                    -5.65335  -1.64043   0.29986 
 H                    -4.52571  -2.99921   0.19821 
 H                    -4.12509  -1.33648  -1.63121 
 H                    -2.72069  -1.54441  -0.59785 
 H                     3.63995   1.00141  -0.92479 
 H                     2.43855  -1.15813  -0.9524 
 H                     2.98101  -1.52297   0.679 
 H                     4.737    -1.21797  -1.82724 
 H                     4.36179  -2.72453  -0.98825 
 H                     6.6493   -1.86393  -0.38554 
 H                     5.59056  -1.94876   1.02668 
 H                     6.21731   0.57019  -0.60911 
 H                     6.81121   0.21601   1.01626 
 H                     4.8751    1.78011   1.08633 
 H                     4.50191   0.26345   1.91726 
 
 ITRead=  0  0  0  0  0  0  0  0  0  0  0  0  0  0  0  0  0  0  0  0
 ITRead=  0  0  0  0  0  0  0  0  0  0  0  0  0  0  0  0  0  0  0  0
 ITRead=  0  0  0  0  0  0  0  0  0  0
 MicOpt= -1 -1 -1 -1 -1 -1 -1 -1 -1 -1 -1 -1 -1 -1 -1 -1 -1 -1 -1 -1
 MicOpt= -1 -1 -1 -1 -1 -1 -1 -1 -1 -1 -1 -1 -1 -1 -1 -1 -1 -1 -1 -1
 MicOpt= -1 -1 -1 -1 -1 -1 -1 -1 -1 -1
 NAtoms=     50 NQM=       50 NQMF=       0 NMMI=      0 NMMIF=      0
                NMic=       0 NMicF=      0.
                    Isotopes and Nuclear Properties:
 (Nuclear quadrupole moments (NQMom) in fm**2, nuclear magnetic moments (NMagM)
  in nuclear magnetons)

  Atom         1           2           3           4           5           6           7           8           9          10
 IAtWgt=          12          12           1          14          12          16          12          14          12           1
 AtmWgt=  12.0000000  12.0000000   1.0078250  14.0030740  12.0000000  15.9949146  12.0000000  14.0030740  12.0000000   1.0078250
 NucSpn=           0           0           1           2           0           0           0           2           0           1
 AtZEff=  -0.0000000  -0.0000000  -0.0000000  -0.0000000  -0.0000000  -0.0000000  -0.0000000  -0.0000000  -0.0000000  -0.0000000
 NQMom=    0.0000000   0.0000000   0.0000000   2.0440000   0.0000000   0.0000000   0.0000000   2.0440000   0.0000000   0.0000000
 NMagM=    0.0000000   0.0000000   2.7928460   0.4037610   0.0000000   0.0000000   0.0000000   0.4037610   0.0000000   2.7928460
 AtZNuc=   6.0000000   6.0000000   1.0000000   7.0000000   6.0000000   8.0000000   6.0000000   7.0000000   6.0000000   1.0000000

  Atom        11          12          13          14          15          16          17          18          19          20
 IAtWgt=          12          16          12          12          12          12          12          12          12          12
 AtmWgt=  12.0000000  15.9949146  12.0000000  12.0000000  12.0000000  12.0000000  12.0000000  12.0000000  12.0000000  12.0000000
 NucSpn=           0           0           0           0           0           0           0           0           0           0
 AtZEff=  -0.0000000  -0.0000000  -0.0000000  -0.0000000  -0.0000000  -0.0000000  -0.0000000  -0.0000000  -0.0000000  -0.0000000
 NQMom=    0.0000000   0.0000000   0.0000000   0.0000000   0.0000000   0.0000000   0.0000000   0.0000000   0.0000000   0.0000000
 NMagM=    0.0000000   0.0000000   0.0000000   0.0000000   0.0000000   0.0000000   0.0000000   0.0000000   0.0000000   0.0000000
 AtZNuc=   6.0000000   8.0000000   6.0000000   6.0000000   6.0000000   6.0000000   6.0000000   6.0000000   6.0000000   6.0000000

  Atom        21          22          23          24          25          26          27          28          29          30
 IAtWgt=          12          12          12          12           1           1           1           1           1           1
 AtmWgt=  12.0000000  12.0000000  12.0000000  12.0000000   1.0078250   1.0078250   1.0078250   1.0078250   1.0078250   1.0078250
 NucSpn=           0           0           0           0           1           1           1           1           1           1
 AtZEff=  -0.0000000  -0.0000000  -0.0000000  -0.0000000  -0.0000000  -0.0000000  -0.0000000  -0.0000000  -0.0000000  -0.0000000
 NQMom=    0.0000000   0.0000000   0.0000000   0.0000000   0.0000000   0.0000000   0.0000000   0.0000000   0.0000000   0.0000000
 NMagM=    0.0000000   0.0000000   0.0000000   0.0000000   2.7928460   2.7928460   2.7928460   2.7928460   2.7928460   2.7928460
 AtZNuc=   6.0000000   6.0000000   6.0000000   6.0000000   1.0000000   1.0000000   1.0000000   1.0000000   1.0000000   1.0000000

  Atom        31          32          33          34          35          36          37          38          39          40
 IAtWgt=           1           1           1           1           1           1           1           1           1           1
 AtmWgt=   1.0078250   1.0078250   1.0078250   1.0078250   1.0078250   1.0078250   1.0078250   1.0078250   1.0078250   1.0078250
 NucSpn=           1           1           1           1           1           1           1           1           1           1
 AtZEff=  -0.0000000  -0.0000000  -0.0000000  -0.0000000  -0.0000000  -0.0000000  -0.0000000  -0.0000000  -0.0000000  -0.0000000
 NQMom=    0.0000000   0.0000000   0.0000000   0.0000000   0.0000000   0.0000000   0.0000000   0.0000000   0.0000000   0.0000000
 NMagM=    2.7928460   2.7928460   2.7928460   2.7928460   2.7928460   2.7928460   2.7928460   2.7928460   2.7928460   2.7928460
 AtZNuc=   1.0000000   1.0000000   1.0000000   1.0000000   1.0000000   1.0000000   1.0000000   1.0000000   1.0000000   1.0000000

  Atom        41          42          43          44          45          46          47          48          49          50
 IAtWgt=           1           1           1           1           1           1           1           1           1           1
 AtmWgt=   1.0078250   1.0078250   1.0078250   1.0078250   1.0078250   1.0078250   1.0078250   1.0078250   1.0078250   1.0078250
 NucSpn=           1           1           1           1           1           1           1           1           1           1
 AtZEff=  -0.0000000  -0.0000000  -0.0000000  -0.0000000  -0.0000000  -0.0000000  -0.0000000  -0.0000000  -0.0000000  -0.0000000
 NQMom=    0.0000000   0.0000000   0.0000000   0.0000000   0.0000000   0.0000000   0.0000000   0.0000000   0.0000000   0.0000000
 NMagM=    2.7928460   2.7928460   2.7928460   2.7928460   2.7928460   2.7928460   2.7928460   2.7928460   2.7928460   2.7928460
 AtZNuc=   1.0000000   1.0000000   1.0000000   1.0000000   1.0000000   1.0000000   1.0000000   1.0000000   1.0000000   1.0000000
 Leave Link  101 at Mon Jan 23 08:46:57 2023, MaxMem=  4194304000 cpu:               1.0 elap:               0.1
 (Enter /software/gaussian/G16-A.03/avx/g16/l103.exe)

 GradGradGradGradGradGradGradGradGradGradGradGradGradGradGradGradGradGrad
 Berny optimization.
 Initialization pass.
 Trust Radius=3.00D-01 FncErr=1.00D-07 GrdErr=1.00D-07 EigMax=2.50D+02 EigMin=1.00D-04
 Number of steps in this run=      2 maximum allowed number of steps=      2.
 GradGradGradGradGradGradGradGradGradGradGradGradGradGradGradGradGradGrad

 Leave Link  103 at Mon Jan 23 08:46:57 2023, MaxMem=  4194304000 cpu:               0.2 elap:               0.0
 (Enter /software/gaussian/G16-A.03/avx/g16/l202.exe)
                          Input orientation:                          
 ---------------------------------------------------------------------
 Center     Atomic      Atomic             Coordinates (Angstroms)
 Number     Number       Type             X           Y           Z
 ---------------------------------------------------------------------
      1          6           0        2.272470    2.634990    0.822370
      2          6           0        2.244760    1.095210    0.691900
      3          1           0        2.078700    0.601120    1.666640
      4          7           0        1.020300    0.881210   -0.067720
      5          6           0        0.400040    1.993290   -0.145700
      6          8           0        0.966700    3.067550    0.362060
      7          6           0       -0.962660    1.985650   -0.700920
      8          7           0       -1.450650    0.872220   -1.083030
      9          6           0       -2.869360    1.100280   -1.348670
     10          1           0       -3.110110    0.729350   -2.357010
     11          6           0       -2.980610    2.642310   -1.273150
     12          8           0       -1.714160    3.071800   -0.721210
     13          6           0       -3.738010    0.347080   -0.328170
     14          6           0       -3.322830    0.637670    1.116390
     15          6           0       -4.179550   -0.129350    2.117540
     16          6           0       -4.132920   -1.625930    1.832690
     17          6           0       -4.588580   -1.920000    0.408410
     18          6           0       -3.751610   -1.155170   -0.609320
     19          6           0        3.476070    0.478480    0.038350
     20          6           0        3.277570   -1.010230   -0.252900
     21          6           0        4.534860   -1.648850   -0.829760
     22          6           0        5.746150   -1.424040    0.066910
     23          6           0        5.957980    0.060930    0.336710
     24          6           0        4.705150    0.701650    0.922660
     25          1           0        3.023800    3.098760    0.163850
     26          1           0        2.405340    3.005000    1.846040
     27          1           0       -3.777720    2.993460   -0.603890
     28          1           0       -3.093280    3.120480   -2.257020
     29          1           0       -4.767710    0.730080   -0.475360
     30          1           0       -3.368910    1.721180    1.326050
     31          1           0       -2.274060    0.324660    1.259690
     32          1           0       -5.225240    0.226750    2.064550
     33          1           0       -3.828200    0.080370    3.140320
     34          1           0       -4.754740   -2.175070    2.557950
     35          1           0       -3.095430   -1.980660    1.962570
     36          1           0       -5.653350   -1.640430    0.299860
     37          1           0       -4.525710   -2.999210    0.198210
     38          1           0       -4.125090   -1.336480   -1.631210
     39          1           0       -2.720690   -1.544410   -0.597850
     40          1           0        3.639950    1.001410   -0.924790
     41          1           0        2.438550   -1.158130   -0.952400
     42          1           0        2.981010   -1.522970    0.679000
     43          1           0        4.737000   -1.217970   -1.827240
     44          1           0        4.361790   -2.724530   -0.988250
     45          1           0        6.649300   -1.863930   -0.385540
     46          1           0        5.590560   -1.948760    1.026680
     47          1           0        6.217310    0.570190   -0.609110
     48          1           0        6.811210    0.216010    1.016260
     49          1           0        4.875100    1.780110    1.086330
     50          1           0        4.501910    0.263450    1.917260
 ---------------------------------------------------------------------
                    Distance matrix (angstroms):
                    1          2          3          4          5
     1  C    0.000000
     2  C    1.545546   0.000000
     3  H    2.210648   1.105359   0.000000
     4  N    2.331509   1.456750   2.051016   0.000000
     5  C    2.203391   2.216103   2.835597   1.275745   0.000000
     6  O    1.450527   2.373259   3.003623   2.228826   1.316419
     7  C    3.634298   3.608376   4.095380   2.356451   1.471489
     8  N    4.538670   4.105625   4.482242   2.671428   2.358058
     9  C    5.788537   5.506194   5.815888   4.101010   3.596329
    10  H    6.535449   6.172871   6.567340   4.724849   4.336887
    11  C    5.655626   5.793050   6.197212   4.534514   3.622315
    12  O    4.297285   4.645087   5.117800   3.564128   2.442179
    13  C    6.533310   6.115045   6.154504   4.795273   4.457214
    14  C    5.948371   5.602463   5.429607   4.508238   4.158165
    15  C    7.137759   6.693561   6.316850   5.730186   5.531772
    16  C    7.759201   7.027148   6.600875   6.037631   6.128663
    17  C    8.245805   7.474382   7.238219   6.287528   6.364527
    18  C    7.259793   6.535582   6.500543   5.216445   5.231055
    19  C    2.591115   1.524338   2.149189   2.490833   3.433727
    20  C    3.931165   2.528284   2.778196   2.950780   4.160866
    21  C    5.118518   3.884569   4.162583   4.397049   5.552464
    22  C    5.395637   4.358551   4.484484   5.259844   6.348562
    23  C    4.521574   3.870904   4.136343   5.021664   5.904018
    24  C    3.108986   2.502331   2.731639   3.819845   4.619924
    25  H    1.101466   2.213584   3.064278   2.997526   2.863914
    26  H    1.096568   2.237213   2.432595   3.176680   3.001968
    27  H    6.226357   6.446138   6.721328   5.269732   4.320180
    28  H    6.205612   6.425926   6.963595   5.170000   4.234562
    29  H    7.407896   7.118325   7.174826   5.804315   5.330105
    30  H    5.737065   5.683949   5.571983   4.681165   4.055253
    31  H    5.118575   4.619076   4.380475   3.595076   3.451124
    32  H    7.972345   7.644560   7.324345   6.631867   6.296796
    33  H    7.008363   6.626123   6.110187   5.868630   5.686405
    34  H    8.690834   7.947948   7.429506   7.041738   7.159379
    35  H    7.170679   6.292313   5.790059   5.408476   5.696963
    36  H    9.020580   8.367650   8.165613   7.143626   7.074318
    37  H    8.851499   7.927627   7.664000   6.773965   7.021848
    38  H    7.919685   7.203121   7.288149   5.817017   5.811274
    39  H    6.664537   5.769466   5.724103   4.489953   4.739063
    40  H    2.755205   2.137531   3.051761   2.758910   3.476755
    41  H    4.191080   2.796215   3.175504   2.636854   3.838976
    42  H    4.220334   2.719760   2.510250   3.190933   4.439101
    43  H    5.285796   4.231800   4.752141   4.616961   5.652344
    44  H    6.030593   4.679224   4.829171   5.001429   6.217972
    45  H    6.391867   5.414551   5.583753   6.270761   7.347715
    46  H    5.662352   4.535660   4.386866   5.485774   6.622366
    47  H    4.676997   4.213007   4.723144   5.234381   6.006712
    48  H    5.146768   4.661616   4.792489   5.928924   6.753664
    49  H    2.752122   2.746516   3.089762   4.123025   4.646451
    50  H    3.434150   2.699640   2.459426   4.055044   4.906474
                    6          7          8          9         10
     6  O    0.000000
     7  C    2.454152   0.000000
     8  N    3.570902   1.274311   0.000000
     9  C    4.638114   2.199765   1.461271   0.000000
    10  H    5.429632   2.988723   2.096961   1.101045   0.000000
    11  C    4.293716   2.197902   2.347369   1.547881   2.202485
    12  O    2.891453   1.320941   2.244661   2.369617   3.179873
    13  C    5.478291   3.244445   2.465279   1.537297   2.157911
    14  C    4.987324   3.269567   2.897847   2.548757   3.481115
    15  C    6.307596   4.771302   4.323620   3.904254   4.680028
    16  C    7.085029   5.432609   4.683668   4.376055   4.913967
    17  C    7.465852   5.443529   4.457296   3.894244   4.105177
    18  C    6.406043   4.201355   3.103084   2.532204   2.649030
    19  C    3.620084   4.745567   5.068046   6.524948   7.012735
    20  C    4.727218   5.211101   5.156433   6.590881   6.946645
    21  C    6.032962   6.591579   6.499713   7.915141   8.150699
    22  C    6.565412   7.564634   7.641276   9.088623   9.431109
    23  C    5.826945   7.257857   7.586940   9.046695   9.483310
    24  C    4.459570   6.033965   6.476555   7.917768   8.475570
    25  H    2.066863   4.228322   5.151009   6.403981   7.042279
    26  H    2.067799   4.343904   5.291206   6.454192   7.298246
    27  H    4.842321   2.991598   3.185041   2.227991   2.940294
    28  H    4.831751   2.872077   3.021781   2.226308   2.393279
    29  H    6.248880   4.013196   3.375256   2.122134   2.507637
    30  H    4.641067   3.157308   3.194389   2.790913   3.823040
    31  H    4.339552   2.884900   2.542865   2.785590   3.734069
    32  H    7.022018   5.376908   4.956957   4.238313   4.927126
    33  H    6.295478   5.157183   4.910851   4.702193   5.581887
    34  H    8.064854   6.504744   5.784438   5.435463   5.941153
    35  H    6.674351   5.232065   4.485522   4.528533   5.099328
    36  H    8.123670   6.012702   5.088073   4.240253   4.375258
    37  H    8.185291   6.192947   5.107401   4.684245   4.736584
    38  H    7.021035   4.680059   3.511622   2.755809   2.413426
    39  H    5.982345   3.944948   2.772815   2.753220   2.901082
    40  H    3.615409   4.711992   5.094697   6.523846   6.905692
    41  H    4.663745   4.638408   4.389221   5.781985   6.026868
    42  H    5.023024   5.455926   5.336787   6.724561   7.168825
    43  H    6.113418   6.634599   6.573413   7.966180   8.102459
    44  H    6.848223   7.114641   6.835938   8.188321   8.344584
    45  H    7.561107   8.535846   8.578007  10.015940  10.288726
    46  H    6.854573   7.836382   7.873210   9.301031   9.712018
    47  H    5.894818   7.318738   7.688526   9.132115   9.491114
    48  H    6.535867   8.155574   8.549618  10.004412  10.491666
    49  H    4.178236   6.108678   6.748741   8.146659   8.759239
    50  H    4.772770   6.299394   6.693677   8.105690   8.742385
                   11         12         13         14         15
    11  C    0.000000
    12  O    1.446719   0.000000
    13  C    2.595134   3.416804   0.000000
    14  C    3.137770   3.448127   1.530872   0.000000
    15  C    4.540521   4.938017   2.530502   1.524661   0.000000
    16  C    5.402956   5.868686   2.952632   2.508628   1.524161
    17  C    5.121317   5.869957   2.530943   2.940244   2.508956
    18  C    3.931408   4.693719   1.528393   2.525114   2.944691
    19  C    6.934761   5.851558   7.224580   6.885677   7.956193
    20  C    7.317566   6.465265   7.146070   6.939439   7.874235
    21  C    8.665618   7.832405   8.525005   8.411835   9.323969
    22  C    9.720458   8.745852   9.656202   9.359405  10.217672
    23  C    9.442116   8.309408   9.722971   9.331343  10.294517
    24  C    8.225488   7.037575   8.542672   8.030572   9.003121
    25  H    6.190820   4.819992   7.316823   6.873428   8.131780
    26  H    6.234529   4.854433   7.037931   6.240879   7.297852
    27  H    1.098453   2.068376   2.661001   2.952293   4.161681
    28  H    1.099701   2.064716   3.439169   4.194870   5.556811
    29  H    2.736205   3.855939   1.108439   2.151717   2.794223
    30  H    2.784798   2.958656   2.181932   1.104570   2.169805
    31  H    3.505138   3.432817   2.159850   1.103825   2.138440
    32  H    4.691858   5.308715   2.819830   2.164954   1.105931
    33  H    5.173071   5.322521   3.479898   2.159230   1.101593
    34  H    6.405624   6.894031   3.965434   3.469866   2.170202
    35  H    5.644016   5.885400   3.328479   2.761048   2.150972
    36  H    5.287699   6.226148   2.830750   3.359730   2.785572
    37  H    6.031499   6.753318   3.477816   3.939146   3.469834
    38  H    4.155576   5.106233   2.163820   3.477096   3.938687
    39  H    4.248790   4.726279   2.164579   2.839483   3.391756
    40  H    6.829767   5.744080   7.430908   7.264918   8.466343
    41  H    6.626728   5.932180   6.387896   6.379521   7.367643
    42  H    7.530031   6.716928   7.046752   6.678179   7.435401
    43  H    8.646981   7.825784   8.747708   8.778908   9.810772
    44  H    9.099175   8.401543   8.687765   8.647964   9.451740
    45  H   10.669078   9.717076  10.620173  10.390244  11.248919
    46  H    9.991601   9.034383   9.701996   9.281497   9.997764
    47  H    9.451792   8.317382   9.961782   9.695162  10.771197
    48  H   10.344470   9.157307  10.635352  10.143303  11.051194
    49  H    8.247588   6.953705   8.845341   8.277205   9.311075
    50  H    8.475010   7.313541   8.540798   7.874515   8.692649
                   16         17         18         19         20
    16  C    0.000000
    17  C    1.524033   0.000000
    18  C    2.516034   1.523568   0.000000
    19  C    8.095982   8.421890   7.438256   0.000000
    20  C    7.722961   7.946152   7.039703   1.529865   0.000000
    21  C    9.067501   9.211066   8.304089   2.529859   1.523608
    22  C   10.037667  10.352258   9.525598   2.962037   2.523372
    23  C   10.339715  10.731223   9.831074   2.534412   2.946120
    24  C    9.184621   9.670104   8.792698   1.530505   2.520012
    25  H    8.736496   9.121189   8.037406   2.661985   4.137859
    26  H    8.012149   8.673945   7.825844   3.285956   4.613936
    27  H    5.234678   5.081765   4.148716   7.704224   8.119719
    28  H    6.350983   5.894648   4.629200   7.443470   7.852833
    29  H    3.358696   2.799297   2.145827   8.263601   8.234361
    30  H    3.470380   3.948145   3.487908   7.075042   7.357267
    31  H    2.754722   3.334693   2.804683   5.880419   5.906814
    32  H    2.163179   2.785080   3.351249   8.937654   8.899352
    33  H    2.171223   3.470301   3.948699   7.945632   7.949548
    34  H    1.101915   2.170989   3.475351   9.007549   8.589280
    35  H    1.104123   2.156059   2.779681   7.275617   6.816537
    36  H    2.159047   1.106200   2.163030   9.375739   8.970174
    37  H    2.170647   1.101286   2.156808   8.726303   8.065403
    38  H    3.475981   2.171490   1.103005   7.991192   7.536946
    39  H    2.812217   2.154679   1.102014   6.549555   6.031871
    40  H    8.655872   8.832936   7.706200   1.108130   2.151616
    41  H    7.152607   7.198111   6.199661   2.176356   1.102329
    42  H    7.207607   7.584823   6.864635   2.159009   1.104214
    43  H    9.604010   9.615478   8.575767   2.819275   2.156766
    44  H    9.018022   9.094342   8.272469   3.478172   2.157567
    45  H   11.010607  11.266031  10.427432   3.966857   3.480655
    46  H    9.762169  10.197940   9.517480   3.367396   2.805011
    47  H   10.858756  11.135693  10.117126   2.818158   3.356588
    48  H   11.128040  11.614096  10.774777   3.485449   3.949816
    49  H    9.659326  10.183891   9.268831   2.179401   3.483050
    50  H    8.839525   9.470010   8.747381   2.151485   2.798368
                   21         22         23         24         25
    21  C    0.000000
    22  C    1.523739   0.000000
    23  C    2.511826   1.524073   0.000000
    24  C    2.936805   2.516853   1.524284   0.000000
    25  H    5.080390   5.279802   4.227021   3.024709   0.000000
    26  H    5.775213   5.826037   4.854573   3.383368   1.794728
    27  H    9.523710  10.519904  10.211186   8.918623   6.845523
    28  H    9.108902  10.207293   9.900181   8.762227   6.578735
    29  H    9.608471  10.745955  10.777182   9.575508   8.168651
    30  H    8.858566   9.724308   9.525025   8.148166   6.641926
    31  H    7.390665   8.294844   8.287818   6.997505   6.079788
    32  H   10.351544  11.273290  11.317126  10.007102   8.939114
    33  H    9.417670  10.167462  10.179878   8.838669   8.057292
    34  H    9.902028  10.818411  11.166735  10.021936   9.697973
    35  H    8.131945   9.059630   9.422088   8.314159   8.153581
    36  H   10.250646  11.403933  11.735373  10.638221   9.887940
    37  H    9.218141  10.392762  10.922060   9.971458   9.704716
    38  H    8.702565  10.016619  10.367920   9.415379   8.602338
    39  H    7.260007   8.493749   8.875237   7.905684   7.425522
    40  H    2.798888   3.361898   2.801633   2.153504   2.442060
    41  H    2.156470   3.471299   3.941358   3.480245   4.439554
    42  H    2.169482   2.833803   3.389432   2.825060   4.650548
    43  H    1.105208   2.156073   2.794469   3.353790   5.053083
    44  H    1.100981   2.172807   3.473058   3.938043   6.085085
    45  H    2.171278   1.101769   2.169022   3.474666   6.170443
    46  H    2.156576   1.104852   2.156365   2.796327   5.728018
    47  H    2.793468   2.157765   1.105067   2.156439   4.146039
    48  H    3.473796   2.173794   1.101744   2.163353   4.835424
    49  H    3.942706   3.473402   2.165673   1.103969   2.452982
    50  H    3.347252   2.796346   2.158539   1.105692   3.646675
                   26         27         28         29         30
    26  H    0.000000
    27  H    6.650753   0.000000
    28  H    6.861724   1.793720   0.000000
    29  H    7.875075   2.473760   3.419363   0.000000
    30  H    5.938059   2.347443   3.856475   2.486765   0.000000
    31  H    5.424464   3.585585   4.566725   3.064809   1.775773
    32  H    8.123557   4.107380   5.620934   2.629414   2.494928
    33  H    7.006115   4.744233   6.238081   3.791826   2.488932
    34  H    8.866041   6.137223   7.347601   4.200123   4.314958
    35  H    7.424881   5.638626   6.620164   4.011002   3.766108
    36  H    9.429378   5.080127   5.979787   2.646628   4.191915
    37  H    9.316938   6.092204   6.747638   3.797350   4.989217
    38  H    8.578242   4.463679   4.617441   2.453491   4.320472
    39  H    7.276394   4.659358   4.965165   3.062450   3.845212
    40  H    3.635400   7.687202   7.183431   8.424034   7.396517
    41  H    5.016375   7.483259   7.114048   7.464790   6.870833
    42  H    4.711251   8.229482   8.190167   8.151775   7.159935
    43  H    6.063258   9.577744   8.962151   9.796019   9.180829
    44  H    6.684939   9.954635   9.557823   9.774720   9.213254
    45  H    6.833566  11.504984  11.102461  11.708333  10.777156
    46  H    5.946151  10.716761  10.577758  10.803984   9.686598
    47  H    5.146569  10.284595   9.793195  10.986998   9.847093
    48  H    5.280028  11.066370  10.828168  11.685914  10.295453
    49  H    2.859586   8.899458   8.744693   9.824725   8.247705
    50  H    3.452068   9.075320   9.125467   9.584792   8.026476
                   31         32         33         34         35
    31  H    0.000000
    32  H    3.060531   0.000000
    33  H    2.451897   1.769302   0.000000
    34  H    3.753385   2.496708   2.506919   0.000000
    35  H    2.546211   3.069063   2.484329   1.773579   0.000000
    36  H    4.025227   2.604567   3.789530   2.488435   3.069742
    37  H    4.152683   3.792016   4.315825   2.509987   2.489199
    38  H    3.813529   4.160848   4.986292   4.318420   3.793471
    39  H    2.672706   4.061792   4.223790   3.807120   2.624213
    40  H    6.340777   9.387643   8.552584   9.627581   7.911696
    41  H    5.413012   8.351859   7.586593   8.068466   6.308608
    42  H    5.600598   8.504341   7.415803   7.987335   6.227371
    43  H    7.814333  10.792566   9.986240  10.499479   8.734490
    44  H    7.641027  10.485265   9.591063   9.797375   8.054242
    45  H    9.333974  12.303600  11.224527  11.781896  10.024321
    46  H    8.189932  11.081135   9.863969  10.460461   8.736322
    47  H    8.698049  11.755780  10.733612  11.745323   9.992372
    48  H    9.089180  12.082018  10.850211  11.910721  10.191289
    49  H    7.297868  10.265803   9.102495  10.513940   8.856666
    50  H    6.808077   9.728334   8.421409   9.593875   7.921973
                   36         37         38         39         40
    36  H    0.000000
    37  H    1.768668   0.000000
    38  H    2.481329   2.504385   0.000000
    39  H    3.068485   2.451174   1.755963   0.000000
    40  H    9.738815   9.162101   8.140062   6.858996   0.000000
    41  H    8.202415   7.294820   6.601058   5.185815   2.471384
    42  H    8.643478   7.665591   7.474524   5.842961   3.062489
    43  H   10.614255   9.647438   8.865050   7.565388   2.635068
    44  H   10.155665   8.970551   8.623643   7.190731   3.795749
    45  H   12.323754  11.247687  10.858977   9.377840   4.190125
    46  H   11.271595  10.204348  10.091240   8.478176   4.039383
    47  H   12.108907  11.349223  10.566235   9.184743   2.632183
    48  H   12.622395  11.812392  11.358784   9.826574   3.800187
    49  H   11.098058  10.583283   9.904624   8.460787   2.485271
    50  H   10.458014   9.751821   9.464489   7.858759   3.060197
                   41         42         43         44         45
    41  H    0.000000
    42  H    1.757509   0.000000
    43  H    2.460040   3.075348   0.000000
    44  H    2.480675   2.475888   1.764769   0.000000
    45  H    4.306959   3.834821   2.480454   2.517259   0.000000
    46  H    3.804868   2.666820   3.067161   2.484278   1.767057
    47  H    4.169408   4.063765   2.621579   3.800248   2.482245
    48  H    4.988390   4.219980   3.800544   4.320242   2.513446
    49  H    4.327407   3.829338   4.182875   4.985895   4.311985
    50  H    3.809632   2.652870   4.033752   4.170090   3.799989
                   46         47         48         49         50
    46  H    0.000000
    47  H    3.068181   0.000000
    48  H    2.485221   1.766349   0.000000
    49  H    3.797356   2.477892   2.489948   0.000000
    50  H    2.621481   3.069077   2.479298   1.769173   0.000000
 Stoichiometry    C18H28N2O2
 Framework group  C1[X(C18H28N2O2)]
 Deg. of freedom   144
 Full point group                 C1      NOp   1
 Largest Abelian subgroup         C1      NOp   1
 Largest concise Abelian subgroup C1      NOp   1
                         Standard orientation:                         
 ---------------------------------------------------------------------
 Center     Atomic      Atomic             Coordinates (Angstroms)
 Number     Number       Type             X           Y           Z
 ---------------------------------------------------------------------
      1          6           0       -2.176874   -1.960975    1.132054
      2          6           0       -2.173582   -0.471528    0.719442
      3          1           0       -2.007132    0.196223    1.584440
      4          7           0       -0.958712   -0.385062   -0.079768
      5          6           0       -0.322309   -1.484000    0.042093
      6          8           0       -0.868471   -2.453539    0.745414
      7          6           0        1.035569   -1.560734   -0.519653
      8          7           0        1.503498   -0.530557   -1.105868
      9          6           0        2.923302   -0.784698   -1.340139
     10          1           0        3.150209   -0.603129   -2.402140
     11          6           0        3.058538   -2.284639   -0.982612
     12          8           0        1.803268   -2.621779   -0.347294
     13          6           0        3.788679    0.155554   -0.485544
     14          6           0        3.389689    0.131140    0.992218
     15          6           0        4.242771    1.081240    1.825375
     16          6           0        4.171137    2.498733    1.269813
     17          6           0        4.610713    2.530854   -0.189097
     18          6           0        3.777210    1.580109   -1.039165
     19          6           0       -3.419367   -0.002639   -0.023372
     20          6           0       -3.245839    1.409225   -0.586412
     21          6           0       -4.517310    1.913437   -1.257615
     22          6           0       -5.717736    1.841829   -0.321864
     23          6           0       -5.904822    0.429501    0.219550
     24          6           0       -4.637705   -0.075156    0.900122
     25          1           0       -2.926401   -2.548391    0.578540
     26          1           0       -2.295807   -2.137363    2.207789
     27          1           0        3.866286   -2.495460   -0.268681
     28          1           0        3.170461   -2.934692   -1.862523
     29          1           0        4.822842   -0.234195   -0.570628
     30          1           0        3.453897   -0.894313    1.397679
     31          1           0        2.337489    0.451134    1.086598
     32          1           0        5.293277    0.735533    1.827732
     33          1           0        3.902952    1.059277    2.873015
     34          1           0        4.790420    3.180629    1.874562
     35          1           0        3.129474    2.857400    1.343185
     36          1           0        5.678685    2.250352   -0.255667
     37          1           0        4.529778    3.551756   -0.594114
     38          1           0        4.139594    1.574614   -2.080927
     39          1           0        2.740632    1.950915   -1.088601
     40          1           0       -3.583105   -0.696560   -0.871673
     41          1           0       -2.414862    1.436665   -1.310189
     42          1           0       -2.949539    2.089143    0.231638
     43          1           0       -4.720978    1.303122   -2.156236
     44          1           0       -4.361867    2.943581   -1.613704
     45          1           0       -6.631095    2.178465   -0.837950
     46          1           0       -5.562341    2.536775    0.522884
     47          1           0       -6.164063   -0.249068   -0.613224
     48          1           0       -6.750060    0.391131    0.925198
     49          1           0       -4.789944   -1.107034    1.261781
     50          1           0       -4.433072    0.541836    1.794550
 ---------------------------------------------------------------------
 Rotational constants (GHZ):           0.4751376           0.1269178           0.1120977
 Leave Link  202 at Mon Jan 23 08:46:57 2023, MaxMem=  4194304000 cpu:               0.1 elap:               0.0
 (Enter /software/gaussian/G16-A.03/avx/g16/l301.exe)
 Standard basis: def2SVP (5D, 7F)
 Ernie: Thresh=  0.10000D-02 Tol=  0.10000D-05 Strict=F.
 There are   470 symmetry adapted cartesian basis functions of A   symmetry.
 There are   448 symmetry adapted basis functions of A   symmetry.
   448 basis functions,   746 primitive gaussians,   470 cartesian basis functions
    83 alpha electrons       83 beta electrons
       nuclear repulsion energy      1867.0965573434 Hartrees.
 IExCor= 1009 DFT=T Ex+Corr=PBE1PBE ExCW=0 ScaHFX=  0.250000
 ScaDFX=  0.750000  0.750000  1.000000  1.000000 ScalE2=  1.000000  1.000000
 IRadAn=      5 IRanWt=     -1 IRanGd=            0 ICorTp=0 IEmpDi=141
 NAtoms=   50 NActive=   50 NUniq=   50 SFac= 1.00D+00 NAtFMM=   60 NAOKFM=F Big=F
 Integral buffers will be    131072 words long.
 Raffenetti 2 integral format.
 Two-electron integral symmetry is turned on.
 R6Disp:  Grimme-D3(BJ) Dispersion energy=       -0.0513721053 Hartrees.
 Nuclear repulsion after empirical dispersion term =     1867.0451852381 Hartrees.
 Leave Link  301 at Mon Jan 23 08:46:57 2023, MaxMem=  4194304000 cpu:               0.5 elap:               0.1
 (Enter /software/gaussian/G16-A.03/avx/g16/l302.exe)
 NPDir=0 NMtPBC=     1 NCelOv=     1 NCel=       1 NClECP=     1 NCelD=      1
         NCelK=      1 NCelE2=     1 NClLst=     1 CellRange=     0.0.
 One-electron integrals computed using PRISM.
 One-electron integral symmetry used in STVInt
   1 Symmetry operations used in ECPInt.
 ECPInt:  NShTT=   23436 NPrTT=   82180 LenC2=   19914 LenP2D=   48518.
 LDataN:  DoStor=T MaxTD1= 4 Len=   56
 NBasis=   448 RedAO= T EigKep=  8.38D-04  NBF=   448
 NBsUse=   448 1.00D-06 EigRej= -1.00D+00 NBFU=   448
 Precomputing XC quadrature grid using
 IXCGrd= 4 IRadAn=           5 IRanWt=          -1 IRanGd=           0 AccXCQ= 0.00D+00.
 Generated NRdTot=       0 NPtTot=           0 NUsed=           0 NTot=          32
 NSgBfM=   464   464   464   464   464 MxSgAt=    50 MxSgA2=    50.
 Leave Link  302 at Mon Jan 23 08:46:58 2023, MaxMem=  4194304000 cpu:               8.5 elap:               1.1
 (Enter /software/gaussian/G16-A.03/avx/g16/l303.exe)
 DipDrv:  MaxL=1.
 Leave Link  303 at Mon Jan 23 08:46:58 2023, MaxMem=  4194304000 cpu:               0.6 elap:               0.1
 (Enter /software/gaussian/G16-A.03/avx/g16/l401.exe)
 ExpMin= 1.22D-01 ExpMax= 2.27D+03 ExpMxC= 3.41D+02 IAcc=3 IRadAn=         5 AccDes= 0.00D+00
 Harris functional with IExCor= 1009 and IRadAn=       5 diagonalized for initial guess.
 HarFok:  IExCor= 1009 AccDes= 0.00D+00 IRadAn=         5 IDoV= 1 UseB2=F ITyADJ=14
 ICtDFT=  3500011 ScaDFX=  1.000000  1.000000  1.000000  1.000000
 FoFCou: FMM=F IPFlag=           0 FMFlag=      100000 FMFlg1=           0
         NFxFlg=           0 DoJE=T BraDBF=F KetDBF=T FulRan=T
         wScrn=  0.000000 ICntrl=       500 IOpCl=  0 I1Cent=   200000004 NGrid=           0
         NMat0=    1 NMatS0=      1 NMatT0=    0 NMatD0=    1 NMtDS0=    0 NMtDT0=    0
 Petite list used in FoFCou.
 Harris En= -961.216742448399    
 JPrj=0 DoOrth=F DoCkMO=F.
 Leave Link  401 at Mon Jan 23 08:47:04 2023, MaxMem=  4194304000 cpu:              45.2 elap:               5.7
 (Enter /software/gaussian/G16-A.03/avx/g16/l502.exe)
 Integral symmetry usage will be decided dynamically.
 Closed shell SCF:
 Using DIIS extrapolation, IDIIS=  1040.
 NGot=  4194304000 LenX=  4193853234 LenY=  4193631864
 Requested convergence on RMS density matrix=1.00D-08 within 128 cycles.
 Requested convergence on MAX density matrix=1.00D-06.
 Requested convergence on             energy=1.00D-06.
 No special actions if energy rises.
 Fock matrices will be formed incrementally for  20 cycles.
 Integral accuracy reduced to 1.0D-05 until final iterations.

 Cycle   1  Pass 0  IDiag  1:
 FoFJK:  IHMeth= 1 ICntrl=       0 DoSepK=F KAlg= 0 I1Cent=           0 FoldK=F
 IRaf= 760000000 NMat=       1 IRICut=       1 DoRegI=T DoRafI=F ISym2E= 0 IDoP0=0 IntGTp=1.
 FoFCou: FMM=F IPFlag=           0 FMFlag=      100000 FMFlg1=           0
         NFxFlg=           0 DoJE=F BraDBF=F KetDBF=F FulRan=T
         wScrn=  0.000000 ICntrl=         0 IOpCl=  0 I1Cent=           0 NGrid=           0
         NMat0=    1 NMatS0=      1 NMatT0=    0 NMatD0=    1 NMtDS0=    0 NMtDT0=    0
 Symmetry not used in FoFCou.
 E= -960.470010541887    
 DIIS: error= 2.10D-02 at cycle   1 NSaved=   1.
 NSaved= 1 IEnMin= 1 EnMin= -960.470010541887     IErMin= 1 ErrMin= 2.10D-02
 ErrMax= 2.10D-02  0.00D+00 EMaxC= 1.00D-01 BMatC= 4.58D-01 BMatP= 4.58D-01
 IDIUse=3 WtCom= 7.90D-01 WtEn= 2.10D-01
 Coeff-Com:  0.100D+01
 Coeff-En:   0.100D+01
 Coeff:      0.100D+01
 Gap=     0.169 Goal=   None    Shift=    0.000
 GapD=    0.169 DampG=1.000 DampE=0.500 DampFc=0.5000 IDamp=-1.
 Damping current iteration by 5.00D-01
 RMSDP=4.55D-03 MaxDP=1.68D-01              OVMax= 2.31D-01

 Cycle   2  Pass 0  IDiag  1:
 RMSU=  2.26D-03    CP:  9.84D-01
 E= -960.651109470085     Delta-E=       -0.181098928198 Rises=F Damp=T
 DIIS: error= 1.16D-02 at cycle   2 NSaved=   2.
 NSaved= 2 IEnMin= 2 EnMin= -960.651109470085     IErMin= 2 ErrMin= 1.16D-02
 ErrMax= 1.16D-02  0.00D+00 EMaxC= 1.00D-01 BMatC= 5.35D-02 BMatP= 4.58D-01
 IDIUse=3 WtCom= 8.84D-01 WtEn= 1.16D-01
 Coeff-Com:  0.154D+00 0.846D+00
 Coeff-En:   0.244D+00 0.756D+00
 Coeff:      0.165D+00 0.835D+00
 Gap=     0.229 Goal=   None    Shift=    0.000
 RMSDP=1.50D-03 MaxDP=5.24D-02 DE=-1.81D-01 OVMax= 2.40D-01

 Cycle   3  Pass 0  IDiag  1:
 RMSU=  1.41D-03    CP:  9.74D-01  7.80D-01
 E= -960.927684647683     Delta-E=       -0.276575177598 Rises=F Damp=F
 DIIS: error= 1.52D-02 at cycle   3 NSaved=   3.
 NSaved= 3 IEnMin= 3 EnMin= -960.927684647683     IErMin= 2 ErrMin= 1.16D-02
 ErrMax= 1.52D-02  0.00D+00 EMaxC= 1.00D-01 BMatC= 4.91D-02 BMatP= 5.35D-02
 IDIUse=3 WtCom= 8.48D-01 WtEn= 1.52D-01
 Coeff-Com:  0.303D-01 0.483D+00 0.487D+00
 Coeff-En:   0.000D+00 0.000D+00 0.100D+01
 Coeff:      0.257D-01 0.409D+00 0.565D+00
 Gap=     0.206 Goal=   None    Shift=    0.000
 RMSDP=8.96D-04 MaxDP=4.49D-02 DE=-2.77D-01 OVMax= 9.78D-02

 Cycle   4  Pass 0  IDiag  1:
 RMSU=  5.87D-04    CP:  9.79D-01  9.32D-01  5.90D-01
 E= -960.953909243559     Delta-E=       -0.026224595876 Rises=F Damp=F
 DIIS: error= 1.13D-02 at cycle   4 NSaved=   4.
 NSaved= 4 IEnMin= 4 EnMin= -960.953909243559     IErMin= 4 ErrMin= 1.13D-02
 ErrMax= 1.13D-02  0.00D+00 EMaxC= 1.00D-01 BMatC= 2.08D-02 BMatP= 4.91D-02
 IDIUse=3 WtCom= 8.87D-01 WtEn= 1.13D-01
 Coeff-Com:  0.291D-02 0.133D+00 0.392D+00 0.472D+00
 Coeff-En:   0.000D+00 0.000D+00 0.329D+00 0.671D+00
 Coeff:      0.259D-02 0.118D+00 0.385D+00 0.494D+00
 Gap=     0.211 Goal=   None    Shift=    0.000
 RMSDP=4.16D-04 MaxDP=1.95D-02 DE=-2.62D-02 OVMax= 4.63D-02

 Cycle   5  Pass 0  IDiag  1:
 RMSU=  1.77D-04    CP:  9.77D-01  8.56D-01  6.98D-01  4.95D-01
 E= -960.971508552079     Delta-E=       -0.017599308519 Rises=F Damp=F
 DIIS: error= 1.10D-03 at cycle   5 NSaved=   5.
 NSaved= 5 IEnMin= 5 EnMin= -960.971508552079     IErMin= 5 ErrMin= 1.10D-03
 ErrMax= 1.10D-03  0.00D+00 EMaxC= 1.00D-01 BMatC= 4.22D-04 BMatP= 2.08D-02
 IDIUse=3 WtCom= 9.89D-01 WtEn= 1.10D-02
 Coeff-Com: -0.312D-03 0.744D-02 0.112D+00 0.215D+00 0.666D+00
 Coeff-En:   0.000D+00 0.000D+00 0.000D+00 0.000D+00 0.100D+01
 Coeff:     -0.309D-03 0.735D-02 0.111D+00 0.213D+00 0.669D+00
 Gap=     0.211 Goal=   None    Shift=    0.000
 RMSDP=7.69D-05 MaxDP=2.50D-03 DE=-1.76D-02 OVMax= 4.59D-03

 Cycle   6  Pass 0  IDiag  1:
 RMSU=  4.42D-05    CP:  9.77D-01  8.60D-01  7.08D-01  5.45D-01  6.99D-01
 E= -960.971865694608     Delta-E=       -0.000357142530 Rises=F Damp=F
 DIIS: error= 2.27D-04 at cycle   6 NSaved=   6.
 NSaved= 6 IEnMin= 6 EnMin= -960.971865694608     IErMin= 6 ErrMin= 2.27D-04
 ErrMax= 2.27D-04  0.00D+00 EMaxC= 1.00D-01 BMatC= 3.44D-05 BMatP= 4.22D-04
 IDIUse=3 WtCom= 9.98D-01 WtEn= 2.27D-03
 Coeff-Com: -0.363D-03-0.332D-02 0.350D-01 0.788D-01 0.340D+00 0.550D+00
 Coeff-En:   0.000D+00 0.000D+00 0.000D+00 0.000D+00 0.000D+00 0.100D+01
 Coeff:     -0.362D-03-0.331D-02 0.349D-01 0.787D-01 0.339D+00 0.551D+00
 Gap=     0.211 Goal=   None    Shift=    0.000
 RMSDP=1.89D-05 MaxDP=9.38D-04 DE=-3.57D-04 OVMax= 7.39D-04

 Cycle   7  Pass 0  IDiag  1:
 RMSU=  8.20D-06    CP:  9.77D-01  8.61D-01  7.09D-01  5.49D-01  7.23D-01
                    CP:  6.35D-01
 E= -960.971895715968     Delta-E=       -0.000030021360 Rises=F Damp=F
 DIIS: error= 4.83D-05 at cycle   7 NSaved=   7.
 NSaved= 7 IEnMin= 7 EnMin= -960.971895715968     IErMin= 7 ErrMin= 4.83D-05
 ErrMax= 4.83D-05  0.00D+00 EMaxC= 1.00D-01 BMatC= 1.44D-06 BMatP= 3.44D-05
 IDIUse=1 WtCom= 1.00D+00 WtEn= 0.00D+00
 Coeff-Com: -0.376D-04-0.180D-02 0.893D-02 0.207D-01 0.111D+00 0.233D+00
 Coeff-Com:  0.628D+00
 Coeff:     -0.376D-04-0.180D-02 0.893D-02 0.207D-01 0.111D+00 0.233D+00
 Coeff:      0.628D+00
 Gap=     0.211 Goal=   None    Shift=    0.000
 RMSDP=3.61D-06 MaxDP=1.61D-04 DE=-3.00D-05 OVMax= 1.89D-04

 Initial convergence to 1.0D-05 achieved.  Increase integral accuracy.
 Cycle   8  Pass 1  IDiag  1:
 E= -960.971872318108     Delta-E=        0.000023397860 Rises=F Damp=F
 DIIS: error= 8.55D-05 at cycle   1 NSaved=   1.
 NSaved= 1 IEnMin= 1 EnMin= -960.971872318108     IErMin= 1 ErrMin= 8.55D-05
 ErrMax= 8.55D-05  0.00D+00 EMaxC= 1.00D-01 BMatC= 2.88D-06 BMatP= 2.88D-06
 IDIUse=1 WtCom= 1.00D+00 WtEn= 0.00D+00
 Coeff-Com:  0.100D+01
 Coeff:      0.100D+01
 Gap=     0.211 Goal=   None    Shift=    0.000
 RMSDP=3.61D-06 MaxDP=1.61D-04 DE= 2.34D-05 OVMax= 3.44D-04

 Cycle   9  Pass 1  IDiag  1:
 RMSU=  5.71D-05    CP:  1.00D+00
 E= -960.971875006254     Delta-E=       -0.000002688146 Rises=F Damp=F
 DIIS: error= 4.01D-05 at cycle   2 NSaved=   2.
 NSaved= 2 IEnMin= 2 EnMin= -960.971875006254     IErMin= 2 ErrMin= 4.01D-05
 ErrMax= 4.01D-05  0.00D+00 EMaxC= 1.00D-01 BMatC= 4.13D-07 BMatP= 2.88D-06
 IDIUse=1 WtCom= 1.00D+00 WtEn= 0.00D+00
 Coeff-Com:  0.173D+00 0.827D+00
 Coeff:      0.173D+00 0.827D+00
 Gap=     0.211 Goal=   None    Shift=    0.000
 RMSDP=3.11D-06 MaxDP=1.92D-04 DE=-2.69D-06 OVMax= 2.85D-04

 Cycle  10  Pass 1  IDiag  1:
 RMSU=  3.03D-06    CP:  1.00D+00  1.01D+00
 E= -960.971874877901     Delta-E=        0.000000128353 Rises=F Damp=F
 DIIS: error= 5.09D-05 at cycle   3 NSaved=   3.
 NSaved= 3 IEnMin= 2 EnMin= -960.971875006254     IErMin= 2 ErrMin= 4.01D-05
 ErrMax= 5.09D-05  0.00D+00 EMaxC= 1.00D-01 BMatC= 5.86D-07 BMatP= 4.13D-07
 IDIUse=1 WtCom= 1.00D+00 WtEn= 0.00D+00
 Coeff-Com: -0.894D-04 0.545D+00 0.455D+00
 Coeff:     -0.894D-04 0.545D+00 0.455D+00
 Gap=     0.211 Goal=   None    Shift=    0.000
 RMSDP=1.87D-06 MaxDP=1.08D-04 DE= 1.28D-07 OVMax= 2.03D-04

 Cycle  11  Pass 1  IDiag  1:
 RMSU=  7.01D-07    CP:  1.00D+00  1.02D+00  4.41D-01
 E= -960.971875313600     Delta-E=       -0.000000435699 Rises=F Damp=F
 DIIS: error= 1.00D-05 at cycle   4 NSaved=   4.
 NSaved= 4 IEnMin= 4 EnMin= -960.971875313600     IErMin= 4 ErrMin= 1.00D-05
 ErrMax= 1.00D-05  0.00D+00 EMaxC= 1.00D-01 BMatC= 2.48D-08 BMatP= 4.13D-07
 IDIUse=1 WtCom= 1.00D+00 WtEn= 0.00D+00
 Coeff-Com: -0.458D-02 0.334D+00 0.298D+00 0.372D+00
 Coeff:     -0.458D-02 0.334D+00 0.298D+00 0.372D+00
 Gap=     0.211 Goal=   None    Shift=    0.000
 RMSDP=4.26D-07 MaxDP=2.38D-05 DE=-4.36D-07 OVMax= 5.09D-05

 Cycle  12  Pass 1  IDiag  1:
 RMSU=  1.90D-07    CP:  1.00D+00  1.02D+00  4.80D-01  4.84D-01
 E= -960.971875335521     Delta-E=       -0.000000021922 Rises=F Damp=F
 DIIS: error= 8.85D-07 at cycle   5 NSaved=   5.
 NSaved= 5 IEnMin= 5 EnMin= -960.971875335521     IErMin= 5 ErrMin= 8.85D-07
 ErrMax= 8.85D-07  0.00D+00 EMaxC= 1.00D-01 BMatC= 4.37D-10 BMatP= 2.48D-08
 IDIUse=1 WtCom= 1.00D+00 WtEn= 0.00D+00
 Coeff-Com: -0.243D-02 0.156D+00 0.139D+00 0.206D+00 0.502D+00
 Coeff:     -0.243D-02 0.156D+00 0.139D+00 0.206D+00 0.502D+00
 Gap=     0.211 Goal=   None    Shift=    0.000
 RMSDP=7.57D-08 MaxDP=4.79D-06 DE=-2.19D-08 OVMax= 4.38D-06

 Cycle  13  Pass 1  IDiag  1:
 RMSU=  6.01D-08    CP:  1.00D+00  1.02D+00  4.71D-01  4.86D-01  8.11D-01
 E= -960.971875335910     Delta-E=       -0.000000000389 Rises=F Damp=F
 DIIS: error= 1.17D-07 at cycle   6 NSaved=   6.
 NSaved= 6 IEnMin= 6 EnMin= -960.971875335910     IErMin= 6 ErrMin= 1.17D-07
 ErrMax= 1.17D-07  0.00D+00 EMaxC= 1.00D-01 BMatC= 1.24D-11 BMatP= 4.37D-10
 IDIUse=1 WtCom= 1.00D+00 WtEn= 0.00D+00
 Coeff-Com: -0.487D-03 0.283D-01 0.244D-01 0.481D-01 0.167D+00 0.733D+00
 Coeff:     -0.487D-03 0.283D-01 0.244D-01 0.481D-01 0.167D+00 0.733D+00
 Gap=     0.211 Goal=   None    Shift=    0.000
 RMSDP=1.51D-08 MaxDP=4.91D-07 DE=-3.89D-10 OVMax= 1.02D-06

 Cycle  14  Pass 1  IDiag  1:
 RMSU=  1.26D-08    CP:  1.00D+00  1.02D+00  4.71D-01  4.95D-01  8.30D-01
                    CP:  9.43D-01
 E= -960.971875335919     Delta-E=       -0.000000000009 Rises=F Damp=F
 DIIS: error= 6.43D-08 at cycle   7 NSaved=   7.
 NSaved= 7 IEnMin= 7 EnMin= -960.971875335919     IErMin= 7 ErrMin= 6.43D-08
 ErrMax= 6.43D-08  0.00D+00 EMaxC= 1.00D-01 BMatC= 3.27D-12 BMatP= 1.24D-11
 IDIUse=1 WtCom= 1.00D+00 WtEn= 0.00D+00
 Coeff-Com:  0.349D-04-0.374D-02-0.409D-02 0.252D-02 0.242D-01 0.387D+00
 Coeff-Com:  0.595D+00
 Coeff:      0.349D-04-0.374D-02-0.409D-02 0.252D-02 0.242D-01 0.387D+00
 Coeff:      0.595D+00
 Gap=     0.211 Goal=   None    Shift=    0.000
 RMSDP=5.99D-09 MaxDP=3.12D-07 DE=-8.64D-12 OVMax= 7.06D-07

 SCF Done:  E(RPBE1PBE) =  -960.971875336     A.U. after   14 cycles
            NFock= 14  Conv=0.60D-08     -V/T= 2.0102
 KE= 9.512543701016D+02 PE=-5.965538654383D+03 EE= 2.186267223707D+03
 Leave Link  502 at Mon Jan 23 08:49:23 2023, MaxMem=  4194304000 cpu:            1113.3 elap:             139.2
 (Enter /software/gaussian/G16-A.03/avx/g16/l801.exe)
 DoSCS=F DFT=T ScalE2(SS,OS)=  1.000000  1.000000
 Range of M.O.s used for correlation:     1   448
 NBasis=   448 NAE=    83 NBE=    83 NFC=     0 NFV=     0
 NROrb=    448 NOA=    83 NOB=    83 NVA=   365 NVB=   365
 Leave Link  801 at Mon Jan 23 08:49:23 2023, MaxMem=  4194304000 cpu:               0.2 elap:               0.0
 (Enter /software/gaussian/G16-A.03/avx/g16/l1101.exe)
 Using compressed storage, NAtomX=    50.
 Will process     51 centers per pass.
   1 Symmetry operations used in ECPInt.
 ECPInt:  NShTT=   23436 NPrTT=   82180 LenC2=   19914 LenP2D=   48518.
 LDataN:  DoStor=T MaxTD1= 5 Len=  102
 R6Disp: Adding Grimme-D3(BJ) dispersion energy 1st derivatives to the gradient.
 Leave Link 1101 at Mon Jan 23 08:49:24 2023, MaxMem=  4194304000 cpu:               9.4 elap:               1.2
 (Enter /software/gaussian/G16-A.03/avx/g16/l1102.exe)
 Symmetrizing basis deriv contribution to polar:
 IMax=3 JMax=2 DiffMx= 0.00D+00
 Leave Link 1102 at Mon Jan 23 08:49:25 2023, MaxMem=  4194304000 cpu:               0.6 elap:               0.1
 (Enter /software/gaussian/G16-A.03/avx/g16/l1110.exe)
 Forming Gx(P) for the SCF density, NAtomX=    50.
 Integral derivatives from FoFJK, PRISM(SPDF).
 Do as many integral derivatives as possible in FoFJK.
 G2DrvN: MDV=    4194300264.
 G2DrvN: will do    51 centers at a time, making    1 passes.
 Calling FoFCou, ICntrl=  3107 FMM=F I1Cent=   0 AccDes= 0.00D+00.
 FoFJK:  IHMeth= 1 ICntrl=    3107 DoSepK=F KAlg= 0 I1Cent=           0 FoldK=F
 IRaf=         0 NMat=       1 IRICut=       1 DoRegI=T DoRafI=F ISym2E= 0 IDoP0=0 IntGTp=1.
 FoFCou: FMM=F IPFlag=           0 FMFlag=      100000 FMFlg1=           0
         NFxFlg=           0 DoJE=F BraDBF=F KetDBF=F FulRan=T
         wScrn=  0.000000 ICntrl=      3107 IOpCl=  0 I1Cent=           0 NGrid=           0
         NMat0=    1 NMatS0=      1 NMatT0=    0 NMatD0=    1 NMtDS0=    0 NMtDT0=    0
 Symmetry not used in FoFCou.
 End of G2Drv F.D. properties file   721 does not exist.
 End of G2Drv F.D. properties file   722 does not exist.
 End of G2Drv F.D. properties file   788 does not exist.
 Leave Link 1110 at Mon Jan 23 08:58:13 2023, MaxMem=  4194304000 cpu:            4228.5 elap:             528.6
 (Enter /software/gaussian/G16-A.03/avx/g16/l1002.exe)
 Minotr:  Closed shell wavefunction.
          IDoAtm=11111111111111111111111111111111111111111111111111
          Direct CPHF calculation.
          Differentiating once with respect to electric field.
                with respect to dipole field.
          Differentiating once with respect to nuclear coordinates.
          Requested convergence is 1.0D-08 RMS, and 1.0D-07 maximum.
          Secondary convergence is 1.0D-12 RMS, and 1.0D-12 maximum.
          NewPWx=T KeepS1=F KeepF1=F KeepIn=T MapXYZ=F SortEE=F KeepMc=T.
        15244 words used for storage of precomputed grid.
 Two-electron integrals replicated using symmetry.
          MDV=    4194304000 using IRadAn=       1.
          Solving linear equations simultaneously, MaxMat=     384.
 FoF2E skips out because all densities are zero.
 CalDSu exits because no D1Ps are significant.
 FoFJK:  IHMeth= 1 ICntrl=       0 DoSepK=F KAlg= 0 I1Cent=           0 FoldK=F
 IRaf= 730000000 NMat=     150 IRICut=     375 DoRegI=T DoRafI=T ISym2E= 2 IDoP0=3 IntGTp=3.
 FoFCou: FMM=F IPFlag=           0 FMFlag=      100000 FMFlg1=           0
         NFxFlg=           0 DoJE=F BraDBF=F KetDBF=F FulRan=T
         wScrn=  0.000000 ICntrl=         0 IOpCl=  0 I1Cent=           0 NGrid=           0
         NMat0=  150 NMatS0=    150 NMatT0=    0 NMatD0=  150 NMtDS0=    0 NMtDT0=    0
 Integrals replicated using symmetry in FoFCou.
 Raff kept on since  66.93% of shell-pairs survive, threshold=   0.20 IRatSp=67.
          There are   153 degrees of freedom in the 1st order CPHF.  IDoFFX=6 NUNeed=     3.
    150 vectors produced by pass  0 Test12= 3.03D-14 1.00D-09 XBig12= 1.41D+02 4.90D+00.
 AX will form   150 AO Fock derivatives at one time.
    150 vectors produced by pass  1 Test12= 3.03D-14 1.00D-09 XBig12= 4.84D+01 1.82D+00.
    150 vectors produced by pass  2 Test12= 3.03D-14 1.00D-09 XBig12= 5.69D-01 1.06D-01.
    150 vectors produced by pass  3 Test12= 3.03D-14 1.00D-09 XBig12= 2.32D-03 3.01D-03.
    150 vectors produced by pass  4 Test12= 3.03D-14 1.00D-09 XBig12= 3.43D-06 1.12D-04.
     91 vectors produced by pass  5 Test12= 3.03D-14 1.00D-09 XBig12= 3.44D-09 3.43D-06.
     15 vectors produced by pass  6 Test12= 3.03D-14 1.00D-09 XBig12= 3.37D-12 1.45D-07.
      3 vectors produced by pass  7 Test12= 3.03D-14 1.00D-09 XBig12= 3.61D-15 3.96D-09.
      2 vectors produced by pass  8 Test12= 3.03D-14 1.00D-09 XBig12= 5.22D-16 1.41D-09.
 InvSVY:  IOpt=1 It=  1 EMax= 3.55D-15
 Solved reduced A of dimension   861 with   153 vectors.
 FullF1:  Do perturbations      1 to       3.
 Isotropic polarizability for W=    0.000000      205.07 Bohr**3.
 End of Minotr F.D. properties file   721 does not exist.
 End of Minotr F.D. properties file   722 does not exist.
 End of Minotr F.D. properties file   788 does not exist.
 Leave Link 1002 at Mon Jan 23 09:15:24 2023, MaxMem=  4194304000 cpu:            8247.3 elap:            1031.1
 (Enter /software/gaussian/G16-A.03/avx/g16/l601.exe)
 Copying SCF densities to generalized density rwf, IOpCl= 0 IROHF=0.

 **********************************************************************

            Population analysis using the SCF density.

 **********************************************************************

 Orbital symmetries:
       Occupied  (A) (A) (A) (A) (A) (A) (A) (A) (A) (A) (A) (A)
                 (A) (A) (A) (A) (A) (A) (A) (A) (A) (A) (A) (A)
                 (A) (A) (A) (A) (A) (A) (A) (A) (A) (A) (A) (A)
                 (A) (A) (A) (A) (A) (A) (A) (A) (A) (A) (A) (A)
                 (A) (A) (A) (A) (A) (A) (A) (A) (A) (A) (A) (A)
                 (A) (A) (A) (A) (A) (A) (A) (A) (A) (A) (A) (A)
                 (A) (A) (A) (A) (A) (A) (A) (A) (A) (A) (A)
       Virtual   (A) (A) (A) (A) (A) (A) (A) (A) (A) (A) (A) (A)
                 (A) (A) (A) (A) (A) (A) (A) (A) (A) (A) (A) (A)
                 (A) (A) (A) (A) (A) (A) (A) (A) (A) (A) (A) (A)
                 (A) (A) (A) (A) (A) (A) (A) (A) (A) (A) (A) (A)
                 (A) (A) (A) (A) (A) (A) (A) (A) (A) (A) (A) (A)
                 (A) (A) (A) (A) (A) (A) (A) (A) (A) (A) (A) (A)
                 (A) (A) (A) (A) (A) (A) (A) (A) (A) (A) (A) (A)
                 (A) (A) (A) (A) (A) (A) (A) (A) (A) (A) (A) (A)
                 (A) (A) (A) (A) (A) (A) (A) (A) (A) (A) (A) (A)
                 (A) (A) (A) (A) (A) (A) (A) (A) (A) (A) (A) (A)
                 (A) (A) (A) (A) (A) (A) (A) (A) (A) (A) (A) (A)
                 (A) (A) (A) (A) (A) (A) (A) (A) (A) (A) (A) (A)
                 (A) (A) (A) (A) (A) (A) (A) (A) (A) (A) (A) (A)
                 (A) (A) (A) (A) (A) (A) (A) (A) (A) (A) (A) (A)
                 (A) (A) (A) (A) (A) (A) (A) (A) (A) (A) (A) (A)
                 (A) (A) (A) (A) (A) (A) (A) (A) (A) (A) (A) (A)
                 (A) (A) (A) (A) (A) (A) (A) (A) (A) (A) (A) (A)
                 (A) (A) (A) (A) (A) (A) (A) (A) (A) (A) (A) (A)
                 (A) (A) (A) (A) (A) (A) (A) (A) (A) (A) (A) (A)
                 (A) (A) (A) (A) (A) (A) (A) (A) (A) (A) (A) (A)
                 (A) (A) (A) (A) (A) (A) (A) (A) (A) (A) (A) (A)
                 (A) (A) (A) (A) (A) (A) (A) (A) (A) (A) (A) (A)
                 (A) (A) (A) (A) (A) (A) (A) (A) (A) (A) (A) (A)
                 (A) (A) (A) (A) (A) (A) (A) (A) (A) (A) (A) (A)
                 (A) (A) (A) (A) (A) (A) (A) (A) (A) (A) (A) (A)
                 (A) (A) (A) (A) (A) (A) (A) (A) (A) (A) (A) (A)
                 (A) (A) (A) (A) (A) (A) (A) (A) (A) (A) (A) (A)
                 (A) (A) (A) (A) (A) (A) (A) (A) (A) (A) (A) (A)
                 (A) (A) (A) (A) (A) (A) (A) (A) (A) (A) (A) (A)
                 (A) (A) (A) (A) (A) (A) (A) (A) (A) (A) (A) (A)
                 (A) (A) (A) (A) (A)
 The electronic state is 1-A.
 Alpha  occ. eigenvalues --  -19.25515 -19.25433 -14.36551 -14.36388 -10.32316
 Alpha  occ. eigenvalues --  -10.32254 -10.29428 -10.29302 -10.26467 -10.26439
 Alpha  occ. eigenvalues --  -10.23508 -10.23505 -10.23103 -10.22742 -10.22370
 Alpha  occ. eigenvalues --  -10.22315 -10.22216 -10.22187 -10.22160 -10.22122
 Alpha  occ. eigenvalues --  -10.21939 -10.21778  -1.13566  -1.12105  -0.93736
 Alpha  occ. eigenvalues --   -0.91505  -0.85845  -0.85090  -0.81764  -0.78644
 Alpha  occ. eigenvalues --   -0.75585  -0.75524  -0.75303  -0.73817  -0.66852
 Alpha  occ. eigenvalues --   -0.65374  -0.64993  -0.61894  -0.61744  -0.59868
 Alpha  occ. eigenvalues --   -0.59143  -0.56874  -0.56376  -0.55281  -0.53905
 Alpha  occ. eigenvalues --   -0.52507  -0.51485  -0.49219  -0.48571  -0.47940
 Alpha  occ. eigenvalues --   -0.47291  -0.45846  -0.45188  -0.44789  -0.44702
 Alpha  occ. eigenvalues --   -0.44545  -0.44052  -0.42074  -0.41475  -0.41013
 Alpha  occ. eigenvalues --   -0.40521  -0.39989  -0.38918  -0.38666  -0.38201
 Alpha  occ. eigenvalues --   -0.38141  -0.37173  -0.36771  -0.36123  -0.34932
 Alpha  occ. eigenvalues --   -0.34621  -0.34615  -0.34401  -0.32375  -0.32190
 Alpha  occ. eigenvalues --   -0.31476  -0.31110  -0.30953  -0.30441  -0.28845
 Alpha  occ. eigenvalues --   -0.27171  -0.26337  -0.24101
 Alpha virt. eigenvalues --   -0.03007   0.06220   0.06428   0.07001   0.07745
 Alpha virt. eigenvalues --    0.08214   0.08591   0.09107   0.09817   0.10559
 Alpha virt. eigenvalues --    0.11299   0.11791   0.12061   0.12342   0.12663
 Alpha virt. eigenvalues --    0.12992   0.13886   0.14577   0.14641   0.14888
 Alpha virt. eigenvalues --    0.15439   0.15650   0.15708   0.16155   0.16261
 Alpha virt. eigenvalues --    0.16883   0.17084   0.17712   0.17833   0.18426
 Alpha virt. eigenvalues --    0.19087   0.19308   0.19554   0.20801   0.21498
 Alpha virt. eigenvalues --    0.22810   0.23116   0.23511   0.24401   0.25198
 Alpha virt. eigenvalues --    0.25488   0.25762   0.27155   0.27294   0.27755
 Alpha virt. eigenvalues --    0.28557   0.29179   0.29302   0.29526   0.29945
 Alpha virt. eigenvalues --    0.31008   0.33353   0.38461   0.39782   0.42105
 Alpha virt. eigenvalues --    0.42263   0.42592   0.43463   0.44057   0.44244
 Alpha virt. eigenvalues --    0.44487   0.44815   0.45299   0.45711   0.45888
 Alpha virt. eigenvalues --    0.47383   0.48371   0.50988   0.51534   0.51943
 Alpha virt. eigenvalues --    0.53165   0.53894   0.54535   0.56814   0.57013
 Alpha virt. eigenvalues --    0.58883   0.59705   0.59925   0.61274   0.61790
 Alpha virt. eigenvalues --    0.62417   0.62749   0.63362   0.63821   0.64077
 Alpha virt. eigenvalues --    0.64288   0.64875   0.65015   0.65167   0.65573
 Alpha virt. eigenvalues --    0.65769   0.65884   0.66627   0.66747   0.66948
 Alpha virt. eigenvalues --    0.67349   0.67705   0.67751   0.67946   0.68470
 Alpha virt. eigenvalues --    0.68781   0.68979   0.69092   0.69413   0.69513
 Alpha virt. eigenvalues --    0.70037   0.70134   0.70535   0.70627   0.71186
 Alpha virt. eigenvalues --    0.71433   0.71593   0.71950   0.72044   0.72540
 Alpha virt. eigenvalues --    0.73477   0.73827   0.73916   0.74139   0.74396
 Alpha virt. eigenvalues --    0.74579   0.74874   0.75323   0.75618   0.75881
 Alpha virt. eigenvalues --    0.75956   0.76712   0.77902   0.78309   0.79225
 Alpha virt. eigenvalues --    0.80857   0.81898   0.84205   0.84863   0.85674
 Alpha virt. eigenvalues --    0.89514   0.91103   0.91832   0.92370   0.93114
 Alpha virt. eigenvalues --    0.96176   0.96650   0.98076   0.99980   1.01130
 Alpha virt. eigenvalues --    1.03380   1.04103   1.06199   1.07582   1.08756
 Alpha virt. eigenvalues --    1.09643   1.10318   1.11398   1.12592   1.13198
 Alpha virt. eigenvalues --    1.13911   1.14204   1.14694   1.16981   1.17316
 Alpha virt. eigenvalues --    1.18998   1.21331   1.22606   1.26181   1.27354
 Alpha virt. eigenvalues --    1.28598   1.29414   1.30538   1.30648   1.31236
 Alpha virt. eigenvalues --    1.32536   1.33539   1.35843   1.36047   1.37441
 Alpha virt. eigenvalues --    1.38155   1.39740   1.40354   1.41029   1.43444
 Alpha virt. eigenvalues --    1.44508   1.45983   1.47419   1.49007   1.49790
 Alpha virt. eigenvalues --    1.53367   1.54571   1.55236   1.55890   1.58657
 Alpha virt. eigenvalues --    1.59626   1.60632   1.62486   1.62733   1.65847
 Alpha virt. eigenvalues --    1.66900   1.67768   1.69312   1.71248   1.72505
 Alpha virt. eigenvalues --    1.73104   1.73555   1.74768   1.75559   1.75869
 Alpha virt. eigenvalues --    1.76344   1.76350   1.76956   1.77497   1.77968
 Alpha virt. eigenvalues --    1.78126   1.78164   1.79290   1.79755   1.80170
 Alpha virt. eigenvalues --    1.80903   1.81395   1.81622   1.82315   1.82879
 Alpha virt. eigenvalues --    1.83783   1.84135   1.84639   1.85607   1.85816
 Alpha virt. eigenvalues --    1.86397   1.86637   1.86685   1.87052   1.87739
 Alpha virt. eigenvalues --    1.87886   1.88736   1.89366   1.89490   1.90254
 Alpha virt. eigenvalues --    1.90509   1.90771   1.90846   1.91545   1.92058
 Alpha virt. eigenvalues --    1.92639   1.93118   1.93813   1.93958   1.94433
 Alpha virt. eigenvalues --    1.95774   1.96133   1.96403   1.98298   1.98784
 Alpha virt. eigenvalues --    1.99014   1.99367   2.00287   2.00528   2.01440
 Alpha virt. eigenvalues --    2.02908   2.03247   2.04352   2.04775   2.05642
 Alpha virt. eigenvalues --    2.06199   2.07206   2.07920   2.08509   2.09361
 Alpha virt. eigenvalues --    2.09541   2.10840   2.13545   2.15068   2.15497
 Alpha virt. eigenvalues --    2.16062   2.16605   2.19198   2.21820   2.24372
 Alpha virt. eigenvalues --    2.25244   2.26459   2.27820   2.28621   2.29236
 Alpha virt. eigenvalues --    2.29540   2.31228   2.32050   2.34072   2.34543
 Alpha virt. eigenvalues --    2.36569   2.38454   2.38983   2.41149   2.42509
 Alpha virt. eigenvalues --    2.46111   2.46206   2.46738   2.47062   2.47455
 Alpha virt. eigenvalues --    2.48031   2.48393   2.48610   2.49111   2.49976
 Alpha virt. eigenvalues --    2.53222   2.54412   2.56522   2.58032   2.58581
 Alpha virt. eigenvalues --    2.59092   2.59770   2.60339   2.61763   2.63373
 Alpha virt. eigenvalues --    2.63758   2.64505   2.64736   2.67369   2.69520
 Alpha virt. eigenvalues --    2.70211   2.71062   2.72028   2.72173   2.75182
 Alpha virt. eigenvalues --    2.76391   2.80824   2.83643   2.85716   2.86584
 Alpha virt. eigenvalues --    2.87577   2.87972   2.89484   2.90119   2.91322
 Alpha virt. eigenvalues --    2.91998   2.92709   2.92800   2.94456   2.95608
 Alpha virt. eigenvalues --    2.95991   2.96512   2.97103   2.98212   2.98665
 Alpha virt. eigenvalues --    2.99970   3.00926   3.02499   3.03549   3.04582
 Alpha virt. eigenvalues --    3.05463   3.05919   3.06393   3.07072   3.09130
 Alpha virt. eigenvalues --    3.10348   3.10911   3.12178   3.12948   3.13947
 Alpha virt. eigenvalues --    3.15609   3.18737   3.19186   3.19465   3.24031
 Alpha virt. eigenvalues --    3.30200   3.35272   3.52424   3.56555   3.74774
     Molecular Orbital Coefficients:
                          79        80        81        82        83
                           O         O         O         O         O
     Eigenvalues --    -0.30441  -0.28845  -0.27171  -0.26337  -0.24101
   1 1   C  1S         -0.00047   0.02025   0.00682   0.02687  -0.01165
   2        2S          0.00135  -0.05016  -0.01935  -0.06182   0.03101
   3        3S          0.00148  -0.08530   0.00023  -0.14575   0.03511
   4        4PX        -0.00563   0.00500  -0.03163  -0.01937   0.02321
   5        4PY         0.01206  -0.10534  -0.05785  -0.11175   0.05873
   6        4PZ        -0.00118   0.05576  -0.06848   0.06202   0.03183
   7        5PX        -0.00435   0.01252   0.00147  -0.01156  -0.01557
   8        5PY         0.00651  -0.08996  -0.01837  -0.11432   0.02797
   9        5PZ         0.00057   0.02206  -0.01993   0.03833  -0.00157
  10        6D 0        0.00003   0.00379  -0.00688   0.00478   0.00357
  11        6D+1        0.00006  -0.00073   0.00942  -0.00041  -0.00634
  12        6D-1        0.00003  -0.00195   0.00095  -0.00287  -0.00078
  13        6D+2       -0.00049  -0.00157   0.00503  -0.00207  -0.00319
  14        6D-2        0.00015  -0.00018   0.00609   0.00195  -0.00548
  15 2   C  1S          0.00027  -0.01867   0.00432  -0.02511   0.00045
  16        2S         -0.00022   0.04499  -0.01297   0.06611   0.00396
  17        3S          0.00058   0.02725  -0.03949   0.05277  -0.01546
  18        4PX        -0.00185   0.05244   0.07502   0.07378  -0.08206
  19        4PY        -0.00718   0.05367   0.04802   0.05443  -0.05196
  20        4PZ         0.00521  -0.08790   0.06956  -0.10773  -0.05932
  21        5PX        -0.00338   0.02804   0.04648   0.05256   0.00654
  22        5PY        -0.00069  -0.01797   0.02487  -0.02920  -0.01662
  23        5PZ         0.00168  -0.01740   0.02840  -0.02047   0.00225
  24        6D 0        0.00029  -0.00307   0.00637  -0.00436  -0.01139
  25        6D+1        0.00034  -0.00240  -0.00486  -0.00205   0.00756
  26        6D-1       -0.00063   0.00623   0.00985   0.00715  -0.01143
  27        6D+2       -0.00110   0.01183  -0.00429   0.01369   0.00569
  28        6D-2        0.00016  -0.00845  -0.00065  -0.01050   0.00354
  29 3   H  1S         -0.00066  -0.00949   0.11631  -0.01577  -0.13481
  30        2S          0.00005  -0.01892   0.07198  -0.02852  -0.10048
  31        3PX         0.00006   0.00036  -0.00108   0.00074   0.00084
  32        3PY        -0.00021   0.00216  -0.00243   0.00257   0.00343
  33        3PZ         0.00018  -0.00165  -0.00195  -0.00186   0.00202
  34 4   N  1S          0.00130  -0.05521  -0.01068  -0.07682   0.02042
  35        2S          0.00230  -0.11136  -0.02017  -0.16227   0.04370
  36        3S          0.00843  -0.15330  -0.04847  -0.16033   0.06838
  37        4PX        -0.00717   0.09370   0.11718   0.10042  -0.18422
  38        4PY        -0.00512   0.21477   0.11168   0.26419  -0.17279
  39        4PZ         0.00689  -0.18681   0.13847  -0.25247  -0.20433
  40        5PX         0.00734  -0.06896  -0.09728  -0.02769   0.13052
  41        5PY         0.00414  -0.14949  -0.08200  -0.18659   0.12022
  42        5PZ        -0.00621   0.13379  -0.11532   0.15659   0.15902
  43        6D 0        0.00009  -0.00190  -0.00331  -0.00102   0.00778
  44        6D+1        0.00008  -0.00238  -0.00543  -0.00485   0.00613
  45        6D-1        0.00023  -0.01047   0.00759  -0.01456  -0.00890
  46        6D+2        0.00024  -0.00586  -0.00735  -0.00571   0.00782
  47        6D-2        0.00008   0.00222   0.00449   0.00461  -0.00847
  48 5   C  1S          0.00457  -0.04333  -0.00880  -0.02297   0.00445
  49        2S         -0.01103   0.11588   0.02171   0.06364  -0.01075
  50        3S         -0.03962   0.05141   0.02791  -0.23150   0.07848
  51        4PX        -0.00812   0.00794  -0.05613  -0.06191   0.08010
  52        4PY         0.00076   0.06238  -0.04323   0.07416   0.04624
  53        4PZ         0.00410  -0.00088  -0.12630   0.03980   0.12402
  54        5PX        -0.02289   0.00172  -0.04223  -0.18070   0.14021
  55        5PY        -0.00342  -0.02426  -0.02919  -0.09710   0.02635
  56        5PZ         0.01266   0.02475  -0.06386   0.15030   0.05548
  57        6D 0       -0.00025  -0.00557   0.01753  -0.00476  -0.00676
  58        6D+1        0.00045  -0.00071   0.00069  -0.00380  -0.01078
  59        6D-1       -0.00099   0.01582  -0.01242   0.01594   0.01530
  60        6D+2       -0.00107   0.01150   0.00968   0.00848  -0.01671
  61        6D-2        0.00065  -0.01029  -0.01558  -0.01175   0.00999
  62 6   O  1S          0.00313  -0.01241  -0.00338  -0.00684   0.00248
  63        2S          0.00711  -0.02777  -0.00680  -0.01286   0.00419
  64        3S          0.00625  -0.06100  -0.02421  -0.08884   0.02891
  65        4PX         0.00815  -0.03738   0.11467  -0.00430  -0.09439
  66        4PY        -0.00312  -0.11297   0.08832  -0.12091  -0.05679
  67        4PZ        -0.00595  -0.00398   0.25446  -0.01386  -0.19180
  68        5PX         0.00531  -0.03459   0.09832  -0.01134  -0.08727
  69        5PY        -0.00361  -0.08171   0.07151  -0.10353  -0.04201
  70        5PZ        -0.00384  -0.00296   0.20695  -0.00129  -0.15763
  71        6D 0        0.00017   0.00174  -0.00222   0.00186   0.00019
  72        6D+1        0.00024  -0.00102  -0.00229  -0.00032   0.00170
  73        6D-1       -0.00011  -0.00077   0.00450  -0.00122  -0.00224
  74        6D+2       -0.00024   0.00258  -0.00238   0.00107   0.00159
  75        6D-2        0.00012   0.00228   0.00230   0.00334  -0.00182
  76 7   C  1S         -0.00246  -0.04651  -0.00978   0.01902  -0.00276
  77        2S          0.00782   0.12187   0.02445  -0.05173   0.00767
  78        3S          0.02407   0.05720   0.03999   0.23575  -0.07505
  79        4PX         0.01691   0.01119  -0.05081  -0.07918  -0.03213
  80        4PY        -0.01126   0.06988  -0.04631  -0.05743  -0.05173
  81        4PZ         0.00782  -0.00224  -0.12380   0.01607  -0.13695
  82        5PX        -0.02772   0.02400  -0.02394  -0.22086   0.06243
  83        5PY         0.02390  -0.02754  -0.02571   0.11655  -0.03718
  84        5PZ         0.00379   0.02032  -0.07305   0.01720  -0.13419
  85        6D 0       -0.00077   0.00292   0.01072   0.00136   0.01948
  86        6D+1        0.00291  -0.01199   0.00829   0.00775  -0.00430
  87        6D-1       -0.00000   0.00565  -0.01922  -0.00409  -0.01539
  88        6D+2       -0.00166   0.01182   0.01579  -0.00889   0.00884
  89        6D-2       -0.00508   0.01758  -0.00026  -0.01532  -0.00599
  90 8   N  1S          0.00745  -0.06677  -0.00849   0.07271  -0.01559
  91        2S          0.01470  -0.13673  -0.01238   0.15503  -0.02929
  92        3S          0.00923  -0.18648  -0.06884   0.14652  -0.08356
  93        4PX         0.04205  -0.19251   0.02170   0.19990   0.03390
  94        4PY        -0.04396   0.26489   0.11409  -0.25386   0.17120
  95        4PZ         0.00593  -0.08320   0.17340   0.11117   0.26479
  96        5PX        -0.02074   0.13814  -0.02751  -0.09538  -0.04568
  97        5PY         0.03009  -0.18268  -0.07928   0.17472  -0.11367
  98        5PZ        -0.00746   0.06234  -0.13894  -0.09508  -0.19610
  99        6D 0        0.00241  -0.00489  -0.00923   0.00525  -0.01128
 100        6D+1       -0.00128   0.00103   0.00154  -0.00151  -0.00179
 101        6D-1        0.00018  -0.00757   0.00704   0.00753   0.01108
 102        6D+2        0.00067  -0.00634  -0.00405   0.00395  -0.00652
 103        6D-2        0.00347  -0.00929   0.00332   0.01192   0.00154
 104 9   C  1S          0.00367  -0.01813  -0.00718   0.02020  -0.00797
 105        2S         -0.01464   0.03875   0.01781  -0.04779   0.02973
 106        3S          0.01392   0.07419   0.03478  -0.11135  -0.04850
 107        4PX         0.03419  -0.10867   0.01865   0.11729   0.00455
 108        4PY         0.04407   0.07122   0.07586  -0.05875   0.06310
 109        4PZ        -0.04599  -0.04022   0.09519   0.03397   0.08994
 110        5PX         0.00726  -0.03377  -0.01747   0.03487  -0.04411
 111        5PY         0.01217  -0.00930   0.01250   0.01551  -0.00232
 112        5PZ        -0.00465   0.00301   0.04636  -0.01287  -0.01166
 113        6D 0        0.01011   0.00275  -0.00532  -0.00251  -0.00673
 114        6D+1        0.00248  -0.00691   0.00829   0.00871   0.01330
 115        6D-1        0.00156  -0.00056   0.00492   0.00018   0.00335
 116        6D+2        0.00173   0.01329   0.00435  -0.01168   0.00584
 117        6D-2       -0.00376   0.00928   0.00732  -0.00877   0.00914
 118 10  H  1S          0.07413   0.06471  -0.08757  -0.06140  -0.09966
 119        2S          0.06107   0.02815  -0.05285  -0.02692  -0.07568
 120        3PX        -0.00018  -0.00213   0.00104   0.00233   0.00053
 121        3PY         0.00088   0.00180   0.00250  -0.00134   0.00315
 122        3PZ         0.00210   0.00197  -0.00152  -0.00171  -0.00161
 123 11  C  1S          0.00621   0.02539   0.00546  -0.02626   0.00724
 124        2S         -0.01309  -0.06227  -0.01332   0.05991  -0.01799
 125        3S         -0.03979  -0.11481  -0.03530   0.15712  -0.01528
 126        4PX         0.00252   0.02555  -0.02885  -0.04108  -0.00852
 127        4PY        -0.05471  -0.12422  -0.07012   0.10691  -0.05477
 128        4PZ         0.02203   0.05377  -0.06793  -0.03567  -0.03600
 129        5PX         0.01310  -0.00099   0.00094  -0.02093   0.00755
 130        5PY        -0.03428  -0.10278  -0.04425   0.10987  -0.02990
 131        5PZ         0.00087   0.02854  -0.01220  -0.02199   0.01237
 132        6D 0        0.00118   0.00019   0.00766  -0.00035   0.00495
 133        6D+1       -0.00173   0.00411  -0.00863  -0.00476  -0.00428
 134        6D-1        0.00039  -0.00203   0.00660   0.00128   0.00485
 135        6D+2        0.00316   0.00112  -0.00449  -0.00055  -0.00319
 136        6D-2        0.00120  -0.00107  -0.00307   0.00271  -0.00260
 137 12  O  1S         -0.00175  -0.01273  -0.00434   0.00521  -0.00264
 138        2S         -0.00390  -0.02814  -0.01068   0.00893  -0.00526
 139        3S          0.01955  -0.06506  -0.01114   0.07920  -0.02286
 140        4PX         0.02289   0.01960   0.10626   0.01676   0.06622
 141        4PY         0.07001  -0.12050   0.09742   0.10307   0.05906
 142        4PZ        -0.01642  -0.01960   0.25824   0.00987   0.19371
 143        5PX         0.01876   0.02120   0.08659   0.00237   0.04973
 144        5PY         0.05504  -0.08966   0.08205   0.09177   0.04485
 145        5PZ        -0.01357  -0.01971   0.21100   0.00525   0.16379
 146        6D 0       -0.00126   0.00049  -0.00425  -0.00052  -0.00237
 147        6D+1       -0.00044   0.00048  -0.00044  -0.00130   0.00083
 148        6D-1       -0.00072   0.00133   0.00455  -0.00117   0.00247
 149        6D+2       -0.00134   0.00260  -0.00143  -0.00071  -0.00033
 150        6D-2       -0.00016  -0.00306   0.00160   0.00321   0.00032
 151 13  C  1S          0.00142   0.00322  -0.01494  -0.00242  -0.02206
 152        2S         -0.00271  -0.00301   0.03449   0.00093   0.04937
 153        3S         -0.01881  -0.04481   0.08020   0.04766   0.18999
[...]
 .00000035,-0.00000040,-0.00000176,0.00000096,0.00000033,0.00000105,-0.
 00000024,0.00000008,-0.00000002,-0.00000073,0.00000097,0.00000081,-0.0
 0000088,-0.00000152,-0.00000059,0.00000035,-0.00000033,0.00000023,-0.0
 0000058,0.00000085,0.00000155,0.00000016,-0.00000044,0.00000012,-0.000
 00045,-0.00000061,-0.00000128,0.00000069,-0.00019430,-0.00000795,0.000
 19966,-0.00007142,0.00006994,0.00001422,0.00019812,-0.00003388,-0.0000
 5152,-0.00048361,0.00020977,-0.00105012,0.00043188,0.00025945,-0.00030
 205,0.00046355,0.00101094,-0.00000459,-0.00134305,-0.00628546,-0.00164
 918,0.02766491,0.11220685,0.00004496,0.00005818,-0.00007401,-0.0001752
 7,-0.00012181,0.00029213,-0.00022489,0.00002144,0.00009549,0.00014387,
 -0.00013124,0.00003915,0.00001641,0.00012302,0.00002843,-0.00001700,-0
 .00010639,0.00000209,-0.00006325,0.00003013,-0.00002928,0.00003600,-0.
 00000376,0.00002451,-0.00001275,0.00000348,-0.00000802,0.00000593,0.00
 000020,0.00000368,-0.00000998,-0.00000046,-0.00001142,0.00004500,-0.00
 002111,0.00001570,0.00000314,-0.00000493,0.00000211,-0.00000591,0.0000
 0427,0.00000024,-0.00000086,-0.00000108,0.00000028,-0.00000492,0.00000
 082,-0.00000040,-0.00000067,-0.00000069,-0.00000002,-0.00000381,-0.000
 00017,-0.00000213,-0.00109052,0.00003967,0.00044831,0.00008013,-0.0000
 3729,0.00011554,-0.00012514,-0.00060819,0.00095571,-0.00198315,-0.0033
 0423,0.00492328,0.04956293,0.10267228,-0.23982504,0.00273658,0.0052608
 9,-0.01190374,-0.00000094,-0.00002329,0.00000771,-0.00003029,0.0000227
 4,0.00001624,0.00000335,-0.00000041,-0.00000027,0.00000326,-0.00000082
 ,0.00000450,0.00000561,0.00000069,-0.00000058,-0.00000065,0.00000023,0
 .00000012,0.00000152,-0.00000255,0.00000085,0.00000395,-0.00000029,0.0
 0000045,-0.00000169,0.00000124,0.00000135,0.00000086,0.00000083,-0.000
 00069,0.00000262,-0.00000187,0.00000016,0.00000292,-0.00000118,0.00000
 040,-0.00000095,0.00000155,-0.00000026,0.00000150,0.00000005,0.0000025
 1,0.00000042,-0.00000213,-0.00000098,0.00059311,0.00002113,0.00067066,
 0.00001604,0.00005879,-0.00000453,-0.00012583,-0.00005425,-0.00013258,
 0.00047477,0.00017443,0.00015432,0.00009431,0.00002449,0.00018375,-0.0
 0008807,0.00055277,0.00065013,-0.00055264,-0.00144324,0.00104500,-0.05
 684978,-0.10977818,0.25761097,-0.00004700,-0.00018251,-0.00004510,-0.0
 0048328,-0.00073422,-0.00141835,-0.00002787,-0.00004814,0.00003884,-0.
 00077058,0.00049602,0.00032161,-0.00008843,-0.00044193,-0.00017790,0.0
 0005435,0.00033288,0.00013678,0.00024693,-0.00002274,0.00003134,-0.000
 14107,-0.00002255,-0.00005405,0.00005329,-0.00000623,0.00001619,-0.000
 02035,0.00000270,-0.00000988,0.00003652,0.00000667,0.00002745,-0.00014
 973,0.00003299,-0.00004142,-0.00000776,0.00002106,-0.00001581,0.000006
 90,-0.00001342,0.00000260,0.00000353,0.00000585,-0.00000837,-0.0000001
 2,0.00000016,0.00000253,0.00000461,0.00000069,-0.00000642,0.00000499,0
 .00000332,0.00001049,-0.00290790,0.00316099,0.00436868,0.00059874,0.00
 042294,0.00021566,0.00110919,-0.00108815,0.00042402,-0.00236653,0.0002
 1793,-0.00115488,-0.20462467,-0.02770350,-0.12925060,-0.02030373,-0.00
 373361,-0.01716110,0.00003762,-0.00000987,-0.00002507,-0.00000712,0.00
 003578,0.00003394,-0.00001378,0.00000445,0.00000082,-0.00000742,-0.000
 00123,-0.00000870,-0.00001604,-0.00000513,0.00000695,0.00000285,-0.000
 00303,-0.00000390,0.00000041,0.00000960,-0.00001133,-0.00000810,-0.000
 00255,0.00000109,0.00000179,-0.00000185,0.00000613,-0.00000553,-0.0000
 0526,0.00000479,0.00000019,0.00000369,-0.00000377,-0.00000528,0.000001
 90,0.00000252,-0.00000016,-0.00000696,0.00000210,-0.00000122,0.0000001
 4,-0.00000160,0.00000094,0.00000870,-0.00000156,0.00020561,0.00012766,
 -0.00000305,0.00003320,-0.00004205,-0.00005878,-0.00003464,-0.00008316
 ,0.00002300,-0.00003502,0.00004468,-0.00012948,-0.00013778,0.00013180,
 -0.00025970,0.00057817,-0.00027562,0.00012361,0.00002448,-0.00013396,0
 .00011745,0.00583684,0.00122625,0.00514442,0.22179651,-0.00001386,0.00
 010168,0.00004215,0.00052789,0.00055039,0.00049597,0.00003630,-0.00000
 127,-0.00004133,0.00034811,-0.00018571,-0.00016843,0.00009232,0.000139
 47,0.00011014,-0.00003307,-0.00008550,-0.00005707,-0.00010616,-0.00002
 294,-0.00001078,0.00005442,0.00002495,0.00003072,-0.00001639,0.0000038
 4,-0.00000736,0.00000989,-0.00000192,0.00000509,-0.00001082,-0.0000024
 1,-0.00001081,0.00004990,0.00000361,0.00001546,0.00000318,-0.00001040,
 0.00000627,-0.00000091,0.00000499,-0.00000063,-0.00000143,-0.00000280,
 0.00000140,0.00000260,-0.00000125,-0.00000096,-0.00000164,0.00000060,0
 .00000124,0.00000365,-0.00000331,-0.00000348,0.00241902,-0.00110632,-0
 .00187144,0.00045358,-0.00026289,-0.00009745,0.00058559,-0.00708843,0.
 00002963,-0.02595434,-0.00338762,-0.02108297,-0.02707785,-0.05069446,-
 0.02129276,0.01090215,0.00116621,0.01000597,-0.00001970,0.00000520,0.0
 0002397,0.00000818,-0.00000336,-0.00002161,0.00000455,-0.00000120,0.00
 000053,0.00000272,0.00000028,0.00000248,0.00000490,0.00000402,-0.00000
 251,-0.00000165,0.00000257,0.00000154,-0.00000044,-0.00000464,0.000002
 85,0.00000176,0.00000157,-0.00000055,-0.00000007,0.00000113,-0.0000005
 3,0.00000064,0.00000158,-0.00000070,-0.00000102,-0.00000103,-0.0000002
 6,-0.00000027,-0.00000017,-0.00000003,0.00000160,0.00000368,-0.0000006
 7,0.00000130,-0.00000007,0.00000175,-0.00000183,-0.00000333,-0.0000010
 8,-0.00034630,-0.00001157,-0.00030333,-0.00001899,0.00015654,0.0000795
 1,-0.00005001,0.00006788,0.00006000,0.00021615,0.00007879,-0.00005981,
 -0.00170826,-0.00035460,-0.00115746,0.00049627,0.00110715,-0.00003203,
 -0.00003720,0.00114981,0.00049922,0.01133788,0.00137013,0.00845260,0.0
 2860930,0.05658418,0.00001428,0.00002159,0.00001023,0.00036404,0.00000
 006,0.00061185,-0.00006677,0.00005803,0.00001577,0.00022643,-0.0000753
 5,-0.00011355,0.00008533,0.00002486,0.00005414,-0.00004005,0.00000428,
 -0.00002438,-0.00000382,-0.00004501,0.00001733,-0.00000363,0.00001366,
 0.00000462,0.00000492,-0.00000015,0.00000073,0.00000155,-0.00000044,0.
 00000019,0.00000707,-0.00000036,-0.00000005,-0.00000811,0.00001485,-0.
 00000162,0.00000024,-0.00000056,0.00000056,0.00000261,-0.00000159,0.00
 000018,0.00000059,-0.00000015,-0.00000076,0.00000373,-0.00000122,0.000
 00002,0.00000048,0.00000095,-0.00000039,0.00000431,-0.00000146,0.00000
 066,0.00196620,-0.00123796,-0.00086201,0.00021247,-0.00004490,-0.00014
 265,0.00031755,-0.00193923,0.00071880,-0.00243675,0.00100036,-0.003444
 02,-0.13132342,-0.02217003,-0.15363067,0.01275907,0.00207861,0.0086743
 6,-0.00001015,-0.00001749,-0.00000956,-0.00000586,-0.00000821,0.000001
 74,-0.00000077,0.00000019,0.00000159,0.00000002,-0.00000046,-0.0000014
 6,-0.00000231,0.00000143,-0.00000017,-0.00000009,0.00000093,-0.0000000
 2,-0.00000116,0.00000002,-0.00000048,-0.00000245,0.00000069,-0.0000005
 0,0.00000117,-0.00000036,0.00000045,-0.00000100,-0.00000052,0.00000101
 ,-0.00000190,0.00000097,-0.00000082,-0.00000265,0.00000086,0.00000022,
 0.00000138,0.00000016,0.00000013,0.00000042,0.00000006,-0.00000005,-0.
 00000134,0.00000054,-0.00000079,0.00021814,-0.00013307,0.00029922,-0.0
 0001704,0.00006806,-0.00001868,-0.00005396,0.00002327,0.00000977,0.000
 34477,0.00011300,0.00050275,-0.00065751,-0.00011126,0.00002028,0.00005
 396,-0.00014017,-0.00018808,0.00033293,-0.00021521,0.00078181,-0.02018
 676,-0.00402905,-0.01565273,0.13881676,0.02599475,0.16110499,-0.001521
 34,0.00030004,0.00022088,0.00095174,-0.00142283,0.00000373,-0.00000585
 ,0.00007492,-0.00001023,0.00006126,0.00046374,0.00006870,-0.00013083,-
 0.00065192,-0.00026442,0.00071235,0.00045972,0.00026096,-0.00006356,-0
 .00003369,0.00001094,0.00006641,0.00004337,0.00003941,-0.00000666,0.00
 000379,-0.00000469,0.00001192,-0.00000095,0.00000575,-0.00002415,-0.00
 000264,-0.00001601,0.00004557,0.00004595,0.00002447,0.00000251,-0.0000
 1105,0.00000721,0.00000183,0.00000334,-0.00000113,-0.00000290,-0.00000
 297,0.00000161,0.00000659,-0.00000344,-0.00000097,-0.00000315,0.000003
 06,0.00000144,0.00000856,-0.00000595,-0.00000383,-0.00379959,-0.026006
 67,-0.00150571,-0.00465025,0.00085756,-0.00364585,-0.00046028,0.000141
 89,0.00003098,-0.00521926,0.00125618,0.00242867,0.00459651,0.02846867,
 0.00330973,-0.05243188,-0.04130276,-0.00572718,-0.00008640,0.00047081,
 -0.00049395,-0.00022636,0.00031011,0.00012469,0.00000516,-0.00000147,0
 .00000113,0.00000420,0.00000026,0.00000298,0.00000444,0.00000534,-0.00
 000286,-0.00000439,0.00000590,0.00000169,-0.00000073,-0.00000767,0.000
 00235,0.00000144,0.00000235,-0.00000075,0.00000017,0.00000045,-0.00000
 003,0.00000047,0.00000266,-0.00000073,-0.00000231,-0.00000042,-0.00000
 056,-0.00000146,-0.00000039,0.00000002,0.00000246,0.00000469,-0.000000
 49,0.00000096,0.00000079,0.00000191,-0.00000201,-0.00000271,-0.0000012
 7,0.00090732,0.00060009,0.00015896,-0.00002482,-0.00168566,-0.00058178
 ,0.00007627,0.00033572,0.00013536,0.00010638,-0.00002294,0.00001129,0.
 00020457,-0.00003775,0.00004510,0.00019954,0.00169520,0.00055283,-0.00
 005541,-0.00025649,-0.00012575,0.00096952,-0.00056535,-0.00009677,0.00
 087832,-0.00019430,-0.00062513,0.06048358,-0.00016845,-0.00007197,-0.0
 0012714,0.00047273,-0.00041844,-0.00026384,-0.00008251,0.00001863,-0.0
 0005733,-0.00031922,0.00062561,0.00006781,-0.00010814,-0.00094849,-0.0
 0027732,0.00089206,0.00085549,0.00036994,0.00000341,-0.00002580,0.0000
 4786,0.00002144,0.00003546,0.00002069,0.00000952,0.00000200,-0.0000075
 4,0.00000413,0.00000035,0.00000313,-0.00001526,-0.00000183,-0.00000766
 ,-0.00000989,0.00006426,0.00001157,0.00000109,-0.00000532,0.00000305,0
 .00000430,-0.00000138,-0.00000042,-0.00000270,-0.00000218,-0.00000121,
 0.00000848,-0.00000418,-0.00000033,-0.00000194,0.00000240,0.00000004,0
 .00000980,-0.00000507,-0.00000114,-0.00029767,-0.00325014,0.00037020,-
 0.00101810,0.00146218,-0.00102378,0.00004457,0.00034636,0.00049038,0.0
 0365634,0.00066259,-0.00136712,-0.00302075,-0.01216217,-0.00056331,-0.
 04047474,-0.29859241,-0.03387396,0.00013717,0.00003572,-0.00006492,0.0
 0001209,0.00000685,0.00033192,-0.00000008,-0.00000080,0.00000132,0.000
 00130,-0.00000023,-0.00000062,-0.00000032,0.00000419,-0.00000111,-0.00
 000396,0.00000698,0.00000032,-0.00000064,-0.00000552,-0.00000075,-0.00
 000137,0.00000232,-0.00000073,0.00000107,-0.00000044,0.00000243,-0.000
 00022,0.00000150,0.00000007,-0.00000370,0.00000020,-0.00000119,-0.0000
 0335,0.00000040,0.00000019,0.00000308,0.00000449,0.00000055,0.00000111
 ,0.00000084,0.00000189,-0.00000288,-0.00000115,-0.00000153,-0.00017174
 ,0.00053410,-0.00028853,0.00019768,-0.00044419,-0.00009280,0.00011261,
 0.00023227,0.00007088,-0.00001384,-0.00001455,-0.00008731,-0.00002675,
 -0.00003870,0.00001151,-0.00029719,-0.00094877,-0.00040662,-0.00001908
 ,0.00043106,0.00004950,-0.00000923,0.00074198,-0.00033586,0.00025654,0
 .00030510,0.00038925,0.04165244,0.32172654,-0.00071504,-0.00024477,0.0
 0079822,0.00067602,0.00008980,0.00032542,-0.00008751,0.00012468,-0.000
 03839,0.00009395,0.00018428,-0.00012433,-0.00006118,-0.00027141,-0.000
 15615,0.00047507,0.00024130,-0.00005716,-0.00004004,-0.00003206,0.0000
 6513,0.00002322,0.00001885,0.00000910,-0.00000180,0.00000269,-0.000005
 62,0.00000387,-0.00000121,0.00000232,-0.00001069,-0.00000087,-0.000003
 87,0.00001226,0.00002815,0.00000428,0.00000146,-0.00000608,0.00000466,
 0.00000100,0.00000214,-0.00000073,-0.00000082,-0.00000133,0.00000117,0
 .00000212,-0.00000092,-0.00000064,-0.00000116,0.00000113,0.00000053,0.
 00000492,-0.00000280,-0.00000206,-0.00253599,-0.01998348,-0.00326083,-
 0.00346308,0.00087512,-0.00177092,-0.00001116,0.00044885,0.00022103,0.
 00251811,-0.00010080,-0.00043519,-0.00210539,-0.01302720,-0.00279202,-
 0.00531062,-0.03219364,-0.05146378,-0.00009405,0.00037616,-0.00026959,
 0.00027683,-0.00000850,-0.00010208,0.00000213,-0.00000060,0.00000031,0
 .00000016,0.00000055,-0.00000018,0.00000169,0.00000292,-0.00000163,-0.
 00000116,0.00000184,0.00000157,-0.00000088,-0.00000242,0.00000131,0.00
 000040,0.00000086,-0.00000029,0.00000012,0.00000078,-0.00000076,0.0000
 0013,0.00000104,-0.00000023,-0.00000098,-0.00000028,-0.00000065,-0.000
 00098,-0.00000006,0.00000038,0.00000131,0.00000221,-0.00000055,0.00000
 044,-0.00000005,0.00000065,-0.00000106,-0.00000122,-0.00000098,0.00064
 473,-0.00022695,0.00041136,-0.00021568,-0.00115436,0.00003017,-0.00017
 682,-0.00036264,0.00015018,0.00002961,0.00002144,-0.00003885,0.0000383
 4,0.00004025,0.00001669,-0.00007448,-0.00071851,0.00018592,-0.00000800
 ,-0.00042069,0.00018080,-0.00056928,-0.00020281,0.00022490,-0.00012251
 ,0.00057440,0.00040985,0.00675400,0.03900203,0.05312573,-0.00006942,-0
 .00002987,0.00003810,0.00144675,0.00082692,-0.00215800,-0.00029889,-0.
 00035542,0.00074071,0.00012065,-0.00031269,0.00050503,0.00006812,0.000
 07021,0.00009455,0.00003154,-0.00003495,-0.00001288,0.00001519,-0.0000
 3205,-0.00004633,0.00000359,0.00000059,0.00001039,-0.00000070,-0.00000
 332,0.00000093,0.00000150,0.00000069,0.00000052,-0.00000123,-0.0000032
 5,-0.00000128,0.00002022,0.00000014,0.00001192,0.00000049,0.00000039,-
 0.00000154,-0.00000426,0.00000131,-0.00000003,0.00000041,-0.00000049,0
 .00000076,-0.00000235,0.00000048,-0.00000022,0.00000026,-0.00000036,-0
 .00000023,-0.00000150,0.00000019,0.00000028,0.00253731,0.01144425,-0.0
 2467790,0.00109713,0.00102484,0.00033783,-0.00019678,0.00006883,-0.000
 01332,0.00097837,-0.00139103,-0.00045294,-0.00682847,-0.01133956,0.025
 70647,-0.05325012,-0.01978693,0.04212567,0.00003283,-0.00018092,-0.000
 00290,-0.00000885,0.00003110,0.00005472,0.00000105,0.00000006,0.000000
 62,0.00000205,-0.00000043,0.00000121,0.00000064,-0.00000035,0.00000116
 ,0.00000018,0.00000013,0.00000003,0.00000124,-0.00000057,-0.00000077,0
 .00000144,0.00000008,0.00000010,-0.00000106,0.00000013,0.00000062,0.00
 000110,0.00000039,-0.00000021,0.00000056,-0.00000114,0.00000027,0.0000
 0068,-0.00000023,0.00000026,-0.00000023,0.00000033,0.00000020,0.000000
 74,0.00000014,0.00000052,0.00000026,-0.00000030,-0.00000076,-0.0040529
 1,-0.00086512,-0.00315702,-0.00005353,0.00016093,0.00031522,-0.0000776
 5,-0.00041607,0.00041505,-0.00015054,-0.00001447,-0.00003659,0.0001062
 9,-0.00001006,0.00002108,-0.00002888,-0.00015017,-0.00042454,0.0002836
 5,0.00074288,-0.00039925,-0.00416861,0.00307646,0.00244212,0.00069513,
 -0.00057734,-0.00028780,-0.00158648,-0.00142928,0.00404846,0.06333310,
 -0.00033317,-0.00020124,0.00054600,-0.00035412,0.00001801,0.00058679,0
 .00040662,0.00013247,-0.00013114,0.00008450,0.00009832,-0.00027129,-0.
 00005033,-0.00020079,-0.00009181,0.00031311,0.00008649,-0.00011626,-0.
 00001948,0.00000179,0.00006260,0.00000507,-0.00000392,-0.00001626,-0.0
 0000327,-0.00000218,0.00000082,-0.00000228,0.00000039,-0.00000196,-0.0
 0000312,-0.00000097,0.00000086,0.00000444,-0.00000423,-0.00000540,-0.0
 0000054,0.00000165,0.00000292,0.00000227,-0.00000058,-0.00000185,0.000
 00117,0.00000102,0.00000390,-0.00000007,0.00000145,-0.00000071,0.00000
 011,-0.00000050,0.00000209,-0.00000317,0.00000175,-0.00000157,0.000925
 23,0.00096252,-0.00410480,0.00036301,0.00080993,-0.00102568,-0.0000086
 7,-0.00004705,-0.00003600,0.00003397,0.00136622,-0.00107949,0.00272430
 ,0.00484406,-0.01294022,-0.01979277,-0.09156287,0.09447111,0.00002768,
 0.00019163,-0.00013321,0.00008952,-0.00014787,-0.00004991,0.00000167,-
 0.00000066,-0.00000023,-0.00000099,0.00000066,-0.00000094,-0.00000022,
 -0.00000110,-0.00000175,0.00000125,-0.00000235,0.00000143,-0.00000144,
 0.00000238,0.00000410,-0.00000066,-0.00000047,-0.00000056,0.00000081,-
 0.00000036,-0.00000459,0.00000078,0.00000019,-0.00000071,-0.00000024,0
 .00000088,0.00000169,0.00000080,0.00000009,-0.00000117,-0.00000076,-0.
 00000141,-0.00000101,-0.00000108,-0.00000058,-0.00000227,0.00000072,-0
 .00000003,0.00000181,-0.00049208,0.00082882,-0.00068155,0.00001077,0.0
 0004274,0.00009248,-0.00022016,0.00021817,0.00013814,-0.00000899,-0.00
 010126,0.00019671,-0.00002421,-0.00003071,0.00000731,-0.00003315,0.000
 14570,0.00021403,0.00009296,-0.00004398,0.00040059,0.00236535,-0.00037
 312,-0.00154050,-0.00059702,0.00040182,0.00036277,-0.00498900,-0.01116
 612,0.02692422,0.01948489,0.09373520,-0.00000291,0.00002063,-0.0000567
 7,0.00160833,-0.00015246,0.00024155,-0.00092408,0.00012894,0.00071252,
 -0.00005301,-0.00043187,0.00061572,0.00018373,0.00003886,0.00002392,-0
 .00002407,-0.00000290,0.00004728,0.00004306,-0.00000967,-0.00007802,-0
 .00002362,-0.00001128,0.00002241,0.00001109,0.00000163,-0.00000515,-0.
 00000052,0.00000152,0.00000074,0.00000535,0.00000050,0.00000075,-0.000
 00515,-0.00000359,0.00000716,0.00000151,0.00000310,-0.00000537,-0.0000
 0741,-0.00000053,0.00000190,0.00000117,0.00000129,-0.00000348,-0.00000
 918,0.00000164,0.00000050,0.00000188,-0.00000066,-0.00000385,-0.000002
 74,0.00000111,0.00000278,0.00256836,0.00873764,-0.01941033,0.00111242,
 0.00115192,0.00058292,-0.00007004,-0.00029481,-0.00001732,-0.00067706,
 0.00106499,0.00025501,0.00240301,0.00515591,-0.01115139,0.04204254,0.0
 9315143,-0.25219180,-0.00007337,-0.00015881,-0.00002589,-0.00006759,0.
 00009904,0.00002746,-0.00000253,0.00000183,0.00000066,0.00000203,-0.00
 000204,0.00000177,-0.00000027,-0.00000140,0.00000348,0.00000096,-0.000
 00112,-0.00000160,0.00000289,0.00000147,-0.00000575,0.00000192,-0.0000
 0181,0.00000126,-0.00000210,0.00000100,0.00000561,-0.00000096,-0.00000
 143,0.00000164,0.00000404,-0.00000144,-0.00000185,0.00000129,-0.000000
 77,0.00000246,-0.00000135,-0.00000105,0.00000075,0.00000244,0.00000009
 ,0.00000329,0.00000093,0.00000153,-0.00000359,-0.00345954,-0.00092609,
 -0.00154649,-0.00014618,-0.00008807,0.00042377,-0.00033244,-0.00094563
 ,0.00021392,-0.00001782,0.00016926,0.00022577,0.00001209,-0.00007898,-
 0.00004818,-0.00002604,-0.00010132,0.00041224,-0.00003185,-0.00088150,
 0.00011375,0.00215419,-0.00125259,0.00012602,0.00009357,-0.00021157,0.
 00085017,-0.00109670,-0.00239241,0.00435579,-0.04520024,-0.10177955,0.
 27527185\\0.00290150,-0.00368443,-0.00112936,0.01217303,-0.00923125,0.
 01023518,-0.00328988,-0.00077739,-0.00238351,-0.00154462,0.00485698,-0
 .00086193,-0.00653303,0.03167942,0.00366427,-0.01005605,-0.01891788,-0
 .01038521,-0.00397103,0.02311253,0.00396000,0.00852569,0.00052223,0.00
 180045,-0.01011610,-0.00775243,-0.00228803,0.00162492,-0.00028645,0.00
 076635,-0.00130155,-0.00239074,-0.00206148,0.01218378,-0.01241294,0.00
 024368,-0.00169805,-0.00161575,0.00200756,0.00143500,0.00131059,-0.000
 96840,-0.00011194,-0.00087171,0.00023343,0.00240577,-0.00125127,-0.000
 02271,-0.00032271,0.00081471,0.00071471,0.00070261,0.00023003,0.000336
 00,0.00049241,-0.00010350,-0.00282654,0.00144453,-0.00045187,0.0048010
 9,-0.00037974,0.00011126,-0.00191550,-0.00072516,0.00012485,0.00082592
 ,-0.00002705,-0.00018063,-0.00079045,-0.00078302,0.00051836,0.00165294
 ,-0.00099671,-0.00026044,-0.00007620,-0.00062229,-0.00124344,-0.000366
 50,0.00080015,-0.00118437,0.00011851,0.00063560,-0.00006495,0.00039704
 ,0.00056297,0.00109443,-0.00097166,-0.00062448,0.00086147,0.00039683,-
 0.00034670,-0.00145356,0.00242700,-0.00015433,0.00060280,-0.00021057,0
 .00049990,0.00005768,-0.00058544,-0.00035554,0.00045617,-0.00014662,-0
 .00002965,0.00079384,-0.00038903,-0.00053059,0.00006238,-0.00030680,0.
 00075637,0.00072711,-0.00034123,0.00091437,-0.00025135,-0.00003073,-0.
 00205292,-0.00246052,-0.00087339,0.00050596,0.00038984,-0.00040241,0.0
 0059769,-0.00332022,-0.00243645,-0.00140216,0.00036674,-0.00138629,0.0
 0016629,-0.00013949,-0.00015100,-0.00065540,0.00074407,0.00027183,-0.0
 0034877,0.00017657,-0.00006622,-0.00002064,0.00007836,-0.00024339,0.00
 004867,0.00007349,0.00001052,-0.00047418,0.00023435,0.00008315,0.00026
 982,0.00027090,0.00003365,-0.00017273,0.00003545,-0.00036304\\\@

 Writing a WFNX file to "08_sub.wfx"


 YOU SHOULDN'T LET PEOPLE DRIVE YOU CRAZY
 WHEN YOU KNOW IT'S WITHIN WALKING DISTANCE.
 Job cpu time:       0 days  4 hours 57 minutes  4.3 seconds.
 Elapsed time:       0 days  0 hours 37 minutes  8.5 seconds.
 File lengths (MBytes):  RWF=   1061 Int=      0 D2E=      0 Chk=     15 Scr=      1
 Normal termination of Gaussian 16 at Mon Jan 23 09:24:07 2023.
