 Entering Gaussian System, Link 0=g16
 Initial command:
 /software/gaussian/G16-A.03/avx/g16/l1.exe "/scratch/lcmd/1393741.slurm/Gau-77419.inp" -scrdir="/scratch/lcmd/1393741.slurm/"
 Entering Link 1 = /software/gaussian/G16-A.03/avx/g16/l1.exe PID=     77421.
  
 Copyright (c) 1988,1990,1992,1993,1995,1998,2003,2009,2016,
            Gaussian, Inc.  All Rights Reserved.
  
 This is part of the Gaussian(R) 16 program.  It is based on
 the Gaussian(R) 09 system (copyright 2009, Gaussian, Inc.),
 the Gaussian(R) 03 system (copyright 2003, Gaussian, Inc.),
 the Gaussian(R) 98 system (copyright 1998, Gaussian, Inc.),
 the Gaussian(R) 94 system (copyright 1995, Gaussian, Inc.),
 the Gaussian 92(TM) system (copyright 1992, Gaussian, Inc.),
 the Gaussian 90(TM) system (copyright 1990, Gaussian, Inc.),
 the Gaussian 88(TM) system (copyright 1988, Gaussian, Inc.),
 the Gaussian 86(TM) system (copyright 1986, Carnegie Mellon
 University), and the Gaussian 82(TM) system (copyright 1983,
 Carnegie Mellon University). Gaussian is a federally registered
 trademark of Gaussian, Inc.
  
 This software contains proprietary and confidential information,
 including trade secrets, belonging to Gaussian, Inc.
  
 This software is provided under written license and may be
 used, copied, transmitted, or stored only in accord with that
 written license.
  
 The following legend is applicable only to US Government
 contracts under FAR:
  
                    RESTRICTED RIGHTS LEGEND
  
 Use, reproduction and disclosure by the US Government is
 subject to restrictions as set forth in subparagraphs (a)
 and (c) of the Commercial Computer Software - Restricted
 Rights clause in FAR 52.227-19.
  
 Gaussian, Inc.
 340 Quinnipiac St., Bldg. 40, Wallingford CT 06492
  
  
 ---------------------------------------------------------------
 Warning -- This program may not be used in any manner that
 competes with the business of Gaussian, Inc. or will provide
 assistance to any competitor of Gaussian, Inc.  The licensee
 of this program is prohibited from giving any competitor of
 Gaussian, Inc. access to this program.  By using this program,
 the user acknowledges that Gaussian, Inc. is engaged in the
 business of creating and licensing software in the field of
 computational chemistry and represents and warrants to the
 licensee that it is not a competitor of Gaussian, Inc. and that
 it will not use this program in any manner prohibited above.
 ---------------------------------------------------------------
  

 Cite this work as:
 Gaussian 16, Revision A.03,
 M. J. Frisch, G. W. Trucks, H. B. Schlegel, G. E. Scuseria, 
 M. A. Robb, J. R. Cheeseman, G. Scalmani, V. Barone, 
 G. A. Petersson, H. Nakatsuji, X. Li, M. Caricato, A. V. Marenich, 
 J. Bloino, B. G. Janesko, R. Gomperts, B. Mennucci, H. P. Hratchian, 
 J. V. Ortiz, A. F. Izmaylov, J. L. Sonnenberg, D. Williams-Young, 
 F. Ding, F. Lipparini, F. Egidi, J. Goings, B. Peng, A. Petrone, 
 T. Henderson, D. Ranasinghe, V. G. Zakrzewski, J. Gao, N. Rega, 
 G. Zheng, W. Liang, M. Hada, M. Ehara, K. Toyota, R. Fukuda, 
 J. Hasegawa, M. Ishida, T. Nakajima, Y. Honda, O. Kitao, H. Nakai, 
 T. Vreven, K. Throssell, J. A. Montgomery, Jr., J. E. Peralta, 
 F. Ogliaro, M. J. Bearpark, J. J. Heyd, E. N. Brothers, K. N. Kudin, 
 V. N. Staroverov, T. A. Keith, R. Kobayashi, J. Normand, 
 K. Raghavachari, A. P. Rendell, J. C. Burant, S. S. Iyengar, 
 J. Tomasi, M. Cossi, J. M. Millam, M. Klene, C. Adamo, R. Cammi, 
 J. W. Ochterski, R. L. Martin, K. Morokuma, O. Farkas, 
 J. B. Foresman, and D. J. Fox, Gaussian, Inc., Wallingford CT, 2016.
 
 ******************************************
 Gaussian 16:  ES64L-G16RevA.03 25-Dec-2016
                23-Jan-2023 
 ******************************************
 %nprocs=8
 Will use up to    8 processors via shared memory.
 %mem=32000MB
 %chk=10_sub.chk
 ----------------------------------------------------------------------
 #p pop=(regular,nbo,savenbos) freq=noraman def2svp empiricaldispersion
 =gd3bj output=wfx pbe1pbe
 ----------------------------------------------------------------------
 1/10=4,30=1,38=1/1,3;
 2/12=2,17=6,18=5,40=1/2;
 3/5=43,7=101,11=2,25=1,30=1,71=2,74=-13,124=41,140=1/1,2,3;
 4//1;
 5/5=2,38=5,98=1/2;
 8/6=4,10=90,11=11/1;
 11/6=1,8=1,9=11,15=111,16=1/1,2,10;
 10/6=1/2;
 6/28=1,40=1,73=1/1,7;
 7/8=1,10=1,25=1/1,2,3,16;
 1/10=4,30=1/3;
 99/6=200/99;
 Leave Link    1 at Mon Jan 23 08:46:57 2023, MaxMem=  4194304000 cpu:               0.4 elap:               0.1
 (Enter /software/gaussian/G16-A.03/avx/g16/l101.exe)
 ------
 10_sub
 ------
 Symbolic Z-matrix:
 Charge =  0 Multiplicity = 1
 C                    -2.82038   2.21028  -0.51074 
 C                    -2.70986   0.67424  -0.33526 
 H                    -2.96587   0.12765  -1.25606 
 N                    -1.28722   0.49031  -0.10388 
 C                    -0.72996   1.63749  -0.10055 
 O                    -1.46769   2.70764  -0.29692 
 C                     0.73012   1.63749   0.09989 
 N                     1.28734   0.49029   0.1033 
 C                     2.70991   0.67414   0.33499 
 H                     2.96568   0.12768   1.25593 
 C                     2.82052   2.21021   0.51028 
 O                     1.46784   2.70763   0.29637 
 C                     3.5308    0.08     -0.80995 
 C                     4.99607   0.05262  -0.47931 
 C                     5.48114  -0.91213   0.41437 
 C                     6.82501  -0.92844   0.7765 
 C                     7.70554   0.01881   0.25161 
 C                     7.23462   0.97849  -0.64136 
 C                     5.88732   0.994    -1.00326 
 C                    -3.53046   0.08029   0.80999 
 C                    -4.9958    0.05285   0.47973 
 C                    -5.48109  -0.91214  -0.41359 
 C                    -6.82505  -0.92854  -0.77538 
 C                    -7.70545   0.01884  -0.25051 
 C                    -7.23431   0.97875   0.6421 
 C                    -5.88692   0.99436   1.00366 
 H                    -3.47378   2.68769   0.23257 
 H                    -3.12964   2.52375  -1.51635 
 H                     3.47394   2.68748  -0.2331 
 H                     3.12977   2.52382   1.51585 
 H                     3.14981  -0.94271  -0.95653 
 H                     3.34217   0.65451  -1.7314 
 H                     4.78941  -1.66053   0.81382 
 H                     7.19041  -1.69095   1.46861 
 H                     8.76083   0.00312   0.53409 
 H                     7.91981   1.71723  -1.06426 
 H                     5.52639   1.74068  -1.71716 
 H                    -3.1494   -0.9424    0.95647 
 H                    -3.34156   0.65488   1.73132 
 H                    -4.78944  -1.66064  -0.81301 
 H                    -7.19062  -1.69123  -1.4672 
 H                    -8.76081   0.00308  -0.53273 
 H                    -7.91941   1.71759   1.06497 
 H                    -5.52582   1.74122   1.71728 
 
 ITRead=  0  0  0  0  0  0  0  0  0  0  0  0  0  0  0  0  0  0  0  0
 ITRead=  0  0  0  0  0  0  0  0  0  0  0  0  0  0  0  0  0  0  0  0
 ITRead=  0  0  0  0
 MicOpt= -1 -1 -1 -1 -1 -1 -1 -1 -1 -1 -1 -1 -1 -1 -1 -1 -1 -1 -1 -1
 MicOpt= -1 -1 -1 -1 -1 -1 -1 -1 -1 -1 -1 -1 -1 -1 -1 -1 -1 -1 -1 -1
 MicOpt= -1 -1 -1 -1
 NAtoms=     44 NQM=       44 NQMF=       0 NMMI=      0 NMMIF=      0
                NMic=       0 NMicF=      0.
                    Isotopes and Nuclear Properties:
 (Nuclear quadrupole moments (NQMom) in fm**2, nuclear magnetic moments (NMagM)
  in nuclear magnetons)

  Atom         1           2           3           4           5           6           7           8           9          10
 IAtWgt=          12          12           1          14          12          16          12          14          12           1
 AtmWgt=  12.0000000  12.0000000   1.0078250  14.0030740  12.0000000  15.9949146  12.0000000  14.0030740  12.0000000   1.0078250
 NucSpn=           0           0           1           2           0           0           0           2           0           1
 AtZEff=  -0.0000000  -0.0000000  -0.0000000  -0.0000000  -0.0000000  -0.0000000  -0.0000000  -0.0000000  -0.0000000  -0.0000000
 NQMom=    0.0000000   0.0000000   0.0000000   2.0440000   0.0000000   0.0000000   0.0000000   2.0440000   0.0000000   0.0000000
 NMagM=    0.0000000   0.0000000   2.7928460   0.4037610   0.0000000   0.0000000   0.0000000   0.4037610   0.0000000   2.7928460
 AtZNuc=   6.0000000   6.0000000   1.0000000   7.0000000   6.0000000   8.0000000   6.0000000   7.0000000   6.0000000   1.0000000

  Atom        11          12          13          14          15          16          17          18          19          20
 IAtWgt=          12          16          12          12          12          12          12          12          12          12
 AtmWgt=  12.0000000  15.9949146  12.0000000  12.0000000  12.0000000  12.0000000  12.0000000  12.0000000  12.0000000  12.0000000
 NucSpn=           0           0           0           0           0           0           0           0           0           0
 AtZEff=  -0.0000000  -0.0000000  -0.0000000  -0.0000000  -0.0000000  -0.0000000  -0.0000000  -0.0000000  -0.0000000  -0.0000000
 NQMom=    0.0000000   0.0000000   0.0000000   0.0000000   0.0000000   0.0000000   0.0000000   0.0000000   0.0000000   0.0000000
 NMagM=    0.0000000   0.0000000   0.0000000   0.0000000   0.0000000   0.0000000   0.0000000   0.0000000   0.0000000   0.0000000
 AtZNuc=   6.0000000   8.0000000   6.0000000   6.0000000   6.0000000   6.0000000   6.0000000   6.0000000   6.0000000   6.0000000

  Atom        21          22          23          24          25          26          27          28          29          30
 IAtWgt=          12          12          12          12          12          12           1           1           1           1
 AtmWgt=  12.0000000  12.0000000  12.0000000  12.0000000  12.0000000  12.0000000   1.0078250   1.0078250   1.0078250   1.0078250
 NucSpn=           0           0           0           0           0           0           1           1           1           1
 AtZEff=  -0.0000000  -0.0000000  -0.0000000  -0.0000000  -0.0000000  -0.0000000  -0.0000000  -0.0000000  -0.0000000  -0.0000000
 NQMom=    0.0000000   0.0000000   0.0000000   0.0000000   0.0000000   0.0000000   0.0000000   0.0000000   0.0000000   0.0000000
 NMagM=    0.0000000   0.0000000   0.0000000   0.0000000   0.0000000   0.0000000   2.7928460   2.7928460   2.7928460   2.7928460
 AtZNuc=   6.0000000   6.0000000   6.0000000   6.0000000   6.0000000   6.0000000   1.0000000   1.0000000   1.0000000   1.0000000

  Atom        31          32          33          34          35          36          37          38          39          40
 IAtWgt=           1           1           1           1           1           1           1           1           1           1
 AtmWgt=   1.0078250   1.0078250   1.0078250   1.0078250   1.0078250   1.0078250   1.0078250   1.0078250   1.0078250   1.0078250
 NucSpn=           1           1           1           1           1           1           1           1           1           1
 AtZEff=  -0.0000000  -0.0000000  -0.0000000  -0.0000000  -0.0000000  -0.0000000  -0.0000000  -0.0000000  -0.0000000  -0.0000000
 NQMom=    0.0000000   0.0000000   0.0000000   0.0000000   0.0000000   0.0000000   0.0000000   0.0000000   0.0000000   0.0000000
 NMagM=    2.7928460   2.7928460   2.7928460   2.7928460   2.7928460   2.7928460   2.7928460   2.7928460   2.7928460   2.7928460
 AtZNuc=   1.0000000   1.0000000   1.0000000   1.0000000   1.0000000   1.0000000   1.0000000   1.0000000   1.0000000   1.0000000

  Atom        41          42          43          44
 IAtWgt=           1           1           1           1
 AtmWgt=   1.0078250   1.0078250   1.0078250   1.0078250
 NucSpn=           1           1           1           1
 AtZEff=  -0.0000000  -0.0000000  -0.0000000  -0.0000000
 NQMom=    0.0000000   0.0000000   0.0000000   0.0000000
 NMagM=    2.7928460   2.7928460   2.7928460   2.7928460
 AtZNuc=   1.0000000   1.0000000   1.0000000   1.0000000
 Leave Link  101 at Mon Jan 23 08:46:57 2023, MaxMem=  4194304000 cpu:               1.0 elap:               0.1
 (Enter /software/gaussian/G16-A.03/avx/g16/l103.exe)

 GradGradGradGradGradGradGradGradGradGradGradGradGradGradGradGradGradGrad
 Berny optimization.
 Initialization pass.
 Trust Radius=3.00D-01 FncErr=1.00D-07 GrdErr=1.00D-07 EigMax=2.50D+02 EigMin=1.00D-04
 Number of steps in this run=      2 maximum allowed number of steps=      2.
 GradGradGradGradGradGradGradGradGradGradGradGradGradGradGradGradGradGrad

 Leave Link  103 at Mon Jan 23 08:46:57 2023, MaxMem=  4194304000 cpu:               0.2 elap:               0.0
 (Enter /software/gaussian/G16-A.03/avx/g16/l202.exe)
                          Input orientation:                          
 ---------------------------------------------------------------------
 Center     Atomic      Atomic             Coordinates (Angstroms)
 Number     Number       Type             X           Y           Z
 ---------------------------------------------------------------------
      1          6           0       -2.820380    2.210280   -0.510740
      2          6           0       -2.709860    0.674240   -0.335260
      3          1           0       -2.965870    0.127650   -1.256060
      4          7           0       -1.287220    0.490310   -0.103880
      5          6           0       -0.729960    1.637490   -0.100550
      6          8           0       -1.467690    2.707640   -0.296920
      7          6           0        0.730120    1.637490    0.099890
      8          7           0        1.287340    0.490290    0.103300
      9          6           0        2.709910    0.674140    0.334990
     10          1           0        2.965680    0.127680    1.255930
     11          6           0        2.820520    2.210210    0.510280
     12          8           0        1.467840    2.707630    0.296370
     13          6           0        3.530800    0.080000   -0.809950
     14          6           0        4.996070    0.052620   -0.479310
     15          6           0        5.481140   -0.912130    0.414370
     16          6           0        6.825010   -0.928440    0.776500
     17          6           0        7.705540    0.018810    0.251610
     18          6           0        7.234620    0.978490   -0.641360
     19          6           0        5.887320    0.994000   -1.003260
     20          6           0       -3.530460    0.080290    0.809990
     21          6           0       -4.995800    0.052850    0.479730
     22          6           0       -5.481090   -0.912140   -0.413590
     23          6           0       -6.825050   -0.928540   -0.775380
     24          6           0       -7.705450    0.018840   -0.250510
     25          6           0       -7.234310    0.978750    0.642100
     26          6           0       -5.886920    0.994360    1.003660
     27          1           0       -3.473780    2.687690    0.232570
     28          1           0       -3.129640    2.523750   -1.516350
     29          1           0        3.473940    2.687480   -0.233100
     30          1           0        3.129770    2.523820    1.515850
     31          1           0        3.149810   -0.942710   -0.956530
     32          1           0        3.342170    0.654510   -1.731400
     33          1           0        4.789410   -1.660530    0.813820
     34          1           0        7.190410   -1.690950    1.468610
     35          1           0        8.760830    0.003120    0.534090
     36          1           0        7.919810    1.717230   -1.064260
     37          1           0        5.526390    1.740680   -1.717160
     38          1           0       -3.149400   -0.942400    0.956470
     39          1           0       -3.341560    0.654880    1.731320
     40          1           0       -4.789440   -1.660640   -0.813010
     41          1           0       -7.190620   -1.691230   -1.467200
     42          1           0       -8.760810    0.003080   -0.532730
     43          1           0       -7.919410    1.717590    1.064970
     44          1           0       -5.525820    1.741220    1.717280
 ---------------------------------------------------------------------
                    Distance matrix (angstroms):
                    1          2          3          4          5
     1  C    0.000000
     2  C    1.549976   0.000000
     3  H    2.216758   1.100988   0.000000
     4  N    2.339746   1.453022   2.068068   0.000000
     5  C    2.205947   2.214259   2.934981   1.275371   0.000000
     6  O    1.457002   2.383101   3.133822   2.233022   1.314545
     7  C    3.647877   3.598704   4.216463   2.329636   1.473774
     8  N    4.495417   4.025392   4.479862   2.582883   2.329618
     9  C    5.801646   5.461057   5.919845   4.025351   3.598673
    10  H    6.398190   5.919659   6.441535   4.479703   4.216316
    11  C    5.732559   5.801659   6.398384   4.495417   3.647880
    12  O    4.391767   4.689009   5.359489   3.559082   2.476504
    13  C    6.705603   6.286835   6.512143   4.886738   4.591634
    14  C    8.108845   7.732304   8.000091   6.309695   5.953376
    15  C    8.917427   8.376813   8.673146   6.931531   6.733756
    16  C   10.224583   9.732335  10.055245   8.282282   8.026879
    17  C   10.778623  10.452491  10.777936   9.012126   8.596616
    18  C   10.131011   9.953841  10.254354   8.552717   8.010074
    19  C    8.806018   8.629019   8.899070   7.248214   6.709498
    20  C    2.604880   1.528973   2.142328   2.456705   3.331179
    21  C    3.219936   2.505166   2.671924   3.779621   4.587505
    22  C    4.103453   3.194128   2.849079   4.432982   5.401097
    23  C    5.095057   4.438175   4.029871   5.756006   6.647558
    24  C    5.360414   5.039112   4.846296   6.437194   7.162400
    25  C    4.725303   4.638815   4.748364   6.013563   6.579668
    26  C    3.629812   3.462498   3.793422   4.757936   5.312921
    27  H    1.098800   2.227103   3.004629   3.118128   2.956761
    28  H    1.097796   2.234251   2.415754   3.086173   2.923766
    29  H    6.318486   6.504072   7.005022   5.245274   4.335069
    30  H    6.293621   6.399128   7.112098   5.125279   4.277364
    31  H    6.766332   6.110338   6.215861   4.740020   4.737378
    32  H    6.472052   6.211011   6.347826   4.909892   4.495349
    33  H    8.639823   7.937921   8.223525   6.511046   6.494340
    34  H   10.924895  10.337476  10.671511   8.893865   8.733444
    35  H   11.835863  11.523146  11.863205  10.080063   9.651374
    36  H   10.765740  10.705566  11.002799   9.337937   8.703655
    37  H    8.446570   8.419190   8.656383   7.112762   6.462661
    38  H    3.492900   2.115487   2.464544   2.577734   3.691451
    39  H    2.778080   2.161058   3.056723   2.759593   3.337922
    40  H    4.353457   3.162999   2.592235   4.170731   5.278697
    41  H    5.935958   5.191719   4.604500   6.439557   7.395150
    42  H    6.337265   6.091260   5.841237   7.501723   8.206865
    43  H    5.359637   5.494418   5.696723   6.845317   7.283752
    44  H    3.536028   3.644310   4.242370   4.779867   5.129867
                    6          7          8          9         10
     6  O    0.000000
     7  C    2.476499   0.000000
     8  N    3.559074   1.275372   0.000000
     9  C    4.689006   2.214246   1.452992   0.000000
    10  H    5.359320   2.934908   2.068059   1.100985   0.000000
    11  C    4.391782   2.205947   2.339743   1.549991   2.216754
    12  O    2.994884   1.314547   2.233037   2.383130   3.133755
    13  C    5.670326   3.331275   2.456721   1.528970   2.142310
    14  C    6.990178   4.587550   3.779639   2.505174   2.671924
    15  C    7.867332   5.401079   4.433002   3.194099   2.849029
    16  C    9.118233   6.647517   5.756021   4.438157   4.029847
    17  C    9.574907   7.162376   6.437203   5.039120   4.846317
    18  C    8.879121   6.579685   6.013568   4.638846   4.748414
    19  C    7.584962   5.312978   4.757942   3.462536   3.793472
    20  C    3.518983   4.591476   4.886584   6.286533   6.511601
    21  C    4.483152   5.953278   6.309588   7.732071   7.999578
    22  C    5.405904   6.733751   6.931495   8.376702   8.672742
    23  C    6.492460   8.026905   8.282272   9.732264  10.054860
    24  C    6.792750   8.596607   9.012087  10.452366  10.777487
    25  C    6.093006   8.009998   8.552626   9.953623  10.253824
    26  C    4.914919   6.709369   7.248085   8.628740   8.898500
    27  H    2.074887   4.335124   5.245335   6.504068   7.004824
    28  H    2.069518   4.277316   5.125226   6.399130   7.111935
    29  H    4.942083   2.956672   3.118017   2.227107   3.004682
    30  H    4.945358   2.923841   3.086274   2.234285   2.415775
    31  H    5.922959   3.691660   2.577891   2.115594   2.464674
    32  H    5.422899   3.338065   2.759605   2.161043   3.056703
    33  H    7.711417   5.278680   4.170774   3.162955   2.592132
    34  H    9.870531   7.395083   6.439574   5.191688   4.604453
    35  H   10.612616   8.206826   7.501731   6.091268   5.841261
    36  H    9.470738   7.283766   6.845308   5.494451   5.696785
    37  H    7.202031   5.129963   4.779863   3.644364   4.242437
    38  H    4.209742   4.737113   4.739743   6.109906   6.215219
    39  H    3.440780   4.495071   4.909608   6.210507   6.347063
    40  H    5.512009   6.494351   6.511020   7.937843   8.223168
    41  H    7.312424   8.733514   8.893891  10.337473  10.671190
    42  H    7.782021   9.651386  10.080041  11.523050  11.862774
    43  H    6.667806   8.703572   9.337843  10.705331  11.002248
    44  H    4.632428   6.462468   7.112588   8.418826   8.655745
                   11         12         13         14         15
    11  C    0.000000
    12  O    1.457027   0.000000
    13  C    2.604861   3.519117   0.000000
    14  C    3.219860   4.483209   1.502361   0.000000
    15  C    4.103304   5.405845   2.507411   1.401677   0.000000
    16  C    5.094893   6.492365   3.792835   2.425811   1.391902
    17  C    5.360277   6.792691   4.308028   2.806531   2.416836
    18  C    4.725218   6.093030   3.814969   2.427880   2.786342
    19  C    3.629770   4.915015   2.534946   1.398230   2.409977
    20  C    6.705321   5.670073   7.244695   8.623501   9.074709
    21  C    8.108637   6.990001   8.623626  10.037790  10.521489
    22  C    8.917361   7.867300   9.074999  10.521690  10.993453
    23  C   10.224563   9.118246  10.404902  11.865463  12.363579
    24  C   10.778541   9.574859  11.250335  12.703625  13.236122
    25  C   10.130818   8.878962  10.899715  12.316553  12.857292
    26  C    8.805750   7.584725   9.634245  11.023863  11.541870
    27  H    6.318491   4.942072   7.546591   8.898805   9.653100
    28  H    6.293643   4.945360   7.129683   8.556232   9.469872
    29  H    1.098799   2.074893   2.671131   3.052865   4.171961
    30  H    1.097797   2.069524   3.397415   3.683825   4.306733
    31  H    3.492974   4.209960   1.101170   2.151069   2.704700
    32  H    2.778030   3.440969   1.102140   2.159950   3.410848
    33  H    4.353308   5.511933   2.692614   2.156334   1.094602
    34  H    5.935772   7.312281   4.660563   3.413145   2.153970
    35  H    6.337120   7.781940   5.400516   3.899083   3.407108
    36  H    5.359568   6.667842   4.691333   3.414872   3.879045
    37  H    3.536054   4.632615   2.750140   2.159412   3.403361
    38  H    6.765943   5.922614   6.985028   8.330679   8.647601
    39  H    6.471570   5.422471   7.349685   8.646715   9.057037
    40  H    8.639796   7.711424   8.500366   9.939961  10.370706
    41  H   10.924952   9.870617  10.886601  12.350399  12.834360
    42  H   11.835814  10.612600  12.294976  13.757073  14.302718
    43  H   10.765521   9.470554  11.717693  13.113602  13.671629
    44  H    8.446194   7.201681   9.548241  10.880558  11.396974
                   16         17         18         19         20
    16  C    0.000000
    17  C    1.395753   0.000000
    18  C    2.411325   1.392892   0.000000
    19  C    2.782550   2.414874   1.395145   0.000000
    20  C   10.404538  11.250034  10.899547   9.634175   0.000000
    21  C   11.865182  12.703434  12.316527  11.023943   1.502347
    22  C   12.363522  13.236177  12.857513  11.542176   2.507394
    23  C   13.737994  14.597610  14.189047  12.858944   3.792817
    24  C   14.597478  15.419168  14.975960  13.648479   4.308013
    25  C   14.188725  14.975750  14.525743  13.224395   3.814960
    26  C   12.858535  13.648159  13.224264  11.944055   2.534943
    27  H   10.928739  11.493497  10.879106   9.593021   2.671172
    28  H   10.782849  11.260619  10.515290   9.160184   3.397501
    29  H    5.032280   5.026249   4.150908   3.047199   7.546330
    30  H    5.110728   5.367592   4.887882   4.036130   7.129358
    31  H    4.063335   4.810281   4.525043   3.353653   6.985208
    32  H    4.574436   4.834815   4.055159   2.668938   7.349928
    33  H    2.163566   3.411756   3.880854   3.399076   8.500042
    34  H    1.092682   2.160955   3.402916   3.875196  10.886144
    35  H    2.161936   1.092556   2.159247   3.406222  12.294628
    36  H    3.403903   2.159179   1.092734   2.158193  11.717554
    37  H    3.876720   3.404348   2.157853   1.094283   9.548294
    38  H    9.976043  10.920187  10.680391   9.447354   1.101162
    39  H   10.333331  11.163895  10.843888   9.631467   1.102128
    40  H   11.745557  12.652213  12.311478  11.003477   2.692582
    41  H   14.214567  15.092188  14.693433  13.358825   4.660542
    42  H   15.668427  16.485027  16.025511  14.689147   5.400502
    43  H   14.982744  15.738058  15.267693  13.979519   4.691338
    44  H   12.671036  13.423255  12.998991  11.756676   2.750150
                   21         22         23         24         25
    21  C    0.000000
    22  C    1.401689   0.000000
    23  C    2.425816   1.391901   0.000000
    24  C    2.806530   2.416836   1.395751   0.000000
    25  C    2.427876   2.786346   2.411327   1.392894   0.000000
    26  C    1.398227   2.409987   2.782556   2.414877   1.395145
    27  H    3.052870   4.172001   5.032305   5.026247   4.150877
    28  H    3.684051   4.307057   5.111105   5.367957   4.888174
    29  H    8.898646   9.653103  10.928809  11.493507  10.878987
    30  H    8.555941   9.469713  10.782716  11.260415  10.514981
    31  H    8.330963   8.648014   9.976515  10.920610  10.680710
    32  H    8.647129   9.057645  10.334040  11.164543  10.844379
    33  H    9.939699  10.370622  11.745512  12.652059  12.311179
    34  H   12.349997  12.834178  14.214425  15.091899  14.692956
    35  H   13.756827  14.302730  15.668515  16.484970  16.025231
    36  H   13.113621  13.671908  14.983139  15.738344  15.267756
    37  H   10.880789  11.397428  12.671612  13.423762  12.999312
    38  H    2.151045   2.704581   4.063238   4.810236   4.525056
    39  H    2.159960   3.410833   4.574436   4.834846   4.055218
    40  H    2.156342   1.094609   2.163584   3.411770   3.880865
    41  H    3.413149   2.153966   1.092681   2.160954   3.402918
    42  H    3.899084   3.407108   2.161935   1.092557   2.159250
    43  H    3.414873   3.879049   3.403897   2.159171   1.092733
    44  H    2.159408   3.403370   3.876722   3.404347   2.157849
                   26         27         28         29         30
    26  C    0.000000
    27  H    3.047161   0.000000
    28  H    4.036345   1.789980   0.000000
    29  H    9.592806   6.963308   6.729101   0.000000
    30  H    9.159819   6.729081   6.955174   1.789990   0.000000
    31  H    9.447596   7.646287   7.194528   3.715736   4.257921
    32  H    9.631830   7.378901   6.739780   2.528880   3.752874
    33  H   11.003113   9.355489   9.254688   4.661726   4.555879
    34  H   13.358279  11.594190  11.540239   5.989876   5.852804
    35  H   14.688759  12.529306  12.326441   5.978760   6.247129
    36  H   13.979436  11.508147  11.088066   4.625794   5.500185
    37  H   11.756849   9.257502   8.693698   2.703963   4.099933
    38  H    3.353697   3.715751   4.257866   7.645897   7.194134
    39  H    2.669006   2.529041   3.752992   7.378445   6.739249
    40  H    3.399085   4.661778   4.556176   9.355527   9.254576
    41  H    3.875200   5.989913   5.853207  11.594350  11.540177
    42  H    3.406226   5.978754   6.247508  12.529361  12.326261
    43  H    2.158202   4.625755   5.500455  11.508001  11.087726
    44  H    1.094279   2.703893   4.100048   9.257163   8.693232
                   31         32         33         34         35
    31  H    0.000000
    32  H    1.785648   0.000000
    33  H    2.517477   3.732567   0.000000
    34  H    4.771542   5.527223   2.488870   0.000000
    35  H    5.882184   5.909199   4.314876   2.491871   0.000000
    36  H    5.462581   4.746497   4.973515   4.308497   2.490022
    37  H    3.664324   2.439423   4.303165   4.969324   4.306837
    38  H    6.583283   7.205224   7.972500  10.379513  11.955166
    39  H    7.205187   7.527462   8.503858  10.793254  12.178916
    40  H    7.972936   8.504495   9.716015  12.195225  13.718331
    41  H   10.380056  10.794071  12.195291  14.677636  16.165542
    42  H   11.955626  12.179626  13.718209  16.165287  17.554087
    43  H   11.562495  11.652168  13.152524  15.494765  16.776521
    44  H    9.466747   9.576825  10.899179  13.173615  14.440544
                   36         37         38         39         40
    36  H    0.000000
    37  H    2.480985   0.000000
    38  H   11.562197   9.466602   0.000000
    39  H   11.651708   9.576613   1.785671   0.000000
    40  H   13.152877  10.899670   2.517272   3.732506   0.000000
    41  H   15.495324  13.174325   4.771413   5.527208   2.488888
    42  H   16.776886  14.441129   5.882140   5.909233   4.314893
    43  H   15.981693  13.730634   5.462629   4.746587   4.973526
    44  H   13.730350  11.573536   3.664426   2.439533   4.303170
                   41         42         43         44
    41  H    0.000000
    42  H    2.491870   0.000000
    43  H    4.308489   2.490009   0.000000
    44  H    4.969324   4.306836   2.480996   0.000000
 Stoichiometry    C20H20N2O2
 Framework group  C1[X(C20H20N2O2)]
 Deg. of freedom   126
 Full point group                 C1      NOp   1
 Largest Abelian subgroup         C1      NOp   1
 Largest concise Abelian subgroup C1      NOp   1
                         Standard orientation:                         
 ---------------------------------------------------------------------
 Center     Atomic      Atomic             Coordinates (Angstroms)
 Number     Number       Type             X           Y           Z
 ---------------------------------------------------------------------
      1          6           0       -2.815407    1.515216   -0.537720
      2          6           0       -2.706574   -0.020865   -0.361548
      3          1           0       -2.953659   -0.567236   -1.284913
      4          7           0       -1.286237   -0.204839   -0.116460
      5          6           0       -0.729047    0.942344   -0.107464
      6          8           0       -1.464854    2.012535   -0.310705
      7          6           0        0.729025    0.942307    0.107092
      8          7           0        1.286198   -0.204889    0.115617
      9          6           0        2.706458   -0.021084    0.361103
     10          1           0        2.953312   -0.567763    1.284343
     11          6           0        2.815351    1.514945    0.537823
     12          8           0        1.464799    2.012406    0.310957
     13          6           0        3.538392   -0.614942   -0.775985
     14          6           0        5.000395   -0.642390   -0.431191
     15          6           0        5.476806   -1.607351    0.466908
     16          6           0        6.817110   -1.623737    0.842018
     17          6           0        7.702667   -0.676354    0.325899
     18          6           0        7.240399    0.283536   -0.571355
     19          6           0        5.896663    0.299122   -0.946269
     20          6           0       -3.538209   -0.615096    0.775567
     21          6           0       -5.000285   -0.642469    0.431140
     22          6           0       -5.476901   -1.607248   -0.467064
     23          6           0       -6.817298   -1.623572   -0.841843
     24          6           0       -7.702744   -0.676324   -0.325288
     25          6           0       -7.240271    0.283375    0.572069
     26          6           0       -5.896442    0.298909    0.946651
     27          1           0       -3.475972    1.992443    0.199348
     28          1           0       -3.114927    1.828925   -1.546200
     29          1           0        3.475928    1.992399   -0.199086
     30          1           0        3.114856    1.828316    1.546413
     31          1           0        3.158848   -1.637620   -0.926489
     32          1           0        3.358679   -0.040213   -1.699078
     33          1           0        4.781252   -2.355852    0.859468
     34          1           0        7.175805   -2.386410    1.537448
     35          1           0        8.755175   -0.692104    0.618571
     36          1           0        7.929640    1.022383   -0.987430
     37          1           0        5.542648    1.045971   -1.663448
     38          1           0       -3.158574   -1.637818    0.925482
     39          1           0       -3.358237   -0.040726    1.698820
     40          1           0       -4.781411   -2.355647   -0.859954
     41          1           0       -7.176150   -2.386098   -1.537350
     42          1           0       -8.755324   -0.692025   -0.617708
     43          1           0       -7.929437    1.022108    0.988469
     44          1           0       -5.542270    1.045600    1.663910
 ---------------------------------------------------------------------
 Rotational constants (GHZ):           0.9493298           0.0677384           0.0651370
 Leave Link  202 at Mon Jan 23 08:46:57 2023, MaxMem=  4194304000 cpu:               0.1 elap:               0.0
 (Enter /software/gaussian/G16-A.03/avx/g16/l301.exe)
 Standard basis: def2SVP (5D, 7F)
 Ernie: Thresh=  0.10000D-02 Tol=  0.10000D-05 Strict=F.
 There are   460 symmetry adapted cartesian basis functions of A   symmetry.
 There are   436 symmetry adapted basis functions of A   symmetry.
   436 basis functions,   740 primitive gaussians,   460 cartesian basis functions
    85 alpha electrons       85 beta electrons
       nuclear repulsion energy      1820.3961415405 Hartrees.
 IExCor= 1009 DFT=T Ex+Corr=PBE1PBE ExCW=0 ScaHFX=  0.250000
 ScaDFX=  0.750000  0.750000  1.000000  1.000000 ScalE2=  1.000000  1.000000
 IRadAn=      5 IRanWt=     -1 IRanGd=            0 ICorTp=0 IEmpDi=141
 NAtoms=   44 NActive=   44 NUniq=   44 SFac= 1.00D+00 NAtFMM=   60 NAOKFM=F Big=F
 Integral buffers will be    131072 words long.
 Raffenetti 2 integral format.
 Two-electron integral symmetry is turned on.
 R6Disp:  Grimme-D3(BJ) Dispersion energy=       -0.0471086953 Hartrees.
 Nuclear repulsion after empirical dispersion term =     1820.3490328452 Hartrees.
 Leave Link  301 at Mon Jan 23 08:46:57 2023, MaxMem=  4194304000 cpu:               0.6 elap:               0.1
 (Enter /software/gaussian/G16-A.03/avx/g16/l302.exe)
 NPDir=0 NMtPBC=     1 NCelOv=     1 NCel=       1 NClECP=     1 NCelD=      1
         NCelK=      1 NCelE2=     1 NClLst=     1 CellRange=     0.0.
 One-electron integrals computed using PRISM.
 One-electron integral symmetry used in STVInt
   1 Symmetry operations used in ECPInt.
 ECPInt:  NShTT=   20910 NPrTT=   75838 LenC2=   16014 LenP2D=   39437.
 LDataN:  DoStor=T MaxTD1= 4 Len=   56
 NBasis=   436 RedAO= T EigKep=  2.86D-04  NBF=   436
 NBsUse=   436 1.00D-06 EigRej= -1.00D+00 NBFU=   436
 Precomputing XC quadrature grid using
 IXCGrd= 4 IRadAn=           5 IRanWt=          -1 IRanGd=           0 AccXCQ= 0.00D+00.
 Generated NRdTot=       0 NPtTot=           0 NUsed=           0 NTot=          32
 NSgBfM=   429   429   429   429   429 MxSgAt=    44 MxSgA2=    44.
 Leave Link  302 at Mon Jan 23 08:46:58 2023, MaxMem=  4194304000 cpu:               6.9 elap:               0.9
 (Enter /software/gaussian/G16-A.03/avx/g16/l303.exe)
 DipDrv:  MaxL=1.
 Leave Link  303 at Mon Jan 23 08:46:58 2023, MaxMem=  4194304000 cpu:               0.6 elap:               0.1
 (Enter /software/gaussian/G16-A.03/avx/g16/l401.exe)
 ExpMin= 1.22D-01 ExpMax= 2.27D+03 ExpMxC= 3.41D+02 IAcc=3 IRadAn=         5 AccDes= 0.00D+00
 Harris functional with IExCor= 1009 and IRadAn=       5 diagonalized for initial guess.
 HarFok:  IExCor= 1009 AccDes= 0.00D+00 IRadAn=         5 IDoV= 1 UseB2=F ITyADJ=14
 ICtDFT=  3500011 ScaDFX=  1.000000  1.000000  1.000000  1.000000
 FoFCou: FMM=F IPFlag=           0 FMFlag=      100000 FMFlg1=           0
         NFxFlg=           0 DoJE=T BraDBF=F KetDBF=T FulRan=T
         wScrn=  0.000000 ICntrl=       500 IOpCl=  0 I1Cent=   200000004 NGrid=           0
         NMat0=    1 NMatS0=      1 NMatT0=    0 NMatD0=    1 NMtDS0=    0 NMtDT0=    0
 Petite list used in FoFCou.
 Harris En= -1032.41475905831    
 JPrj=0 DoOrth=F DoCkMO=F.
 Leave Link  401 at Mon Jan 23 08:47:03 2023, MaxMem=  4194304000 cpu:              34.5 elap:               4.3
 (Enter /software/gaussian/G16-A.03/avx/g16/l502.exe)
 Integral symmetry usage will be decided dynamically.
 Closed shell SCF:
 Using DIIS extrapolation, IDIIS=  1040.
 NGot=  4194304000 LenX=  4193872184 LenY=  4193660124
 Requested convergence on RMS density matrix=1.00D-08 within 128 cycles.
 Requested convergence on MAX density matrix=1.00D-06.
 Requested convergence on             energy=1.00D-06.
 No special actions if energy rises.
 Fock matrices will be formed incrementally for  20 cycles.
 Integral accuracy reduced to 1.0D-05 until final iterations.

 Cycle   1  Pass 0  IDiag  1:
 FoFJK:  IHMeth= 1 ICntrl=       0 DoSepK=F KAlg= 0 I1Cent=           0 FoldK=F
 IRaf= 670000000 NMat=       1 IRICut=       1 DoRegI=T DoRafI=F ISym2E= 0 IDoP0=0 IntGTp=1.
 FoFCou: FMM=F IPFlag=           0 FMFlag=      100000 FMFlg1=           0
         NFxFlg=           0 DoJE=F BraDBF=F KetDBF=F FulRan=T
         wScrn=  0.000000 ICntrl=         0 IOpCl=  0 I1Cent=           0 NGrid=           0
         NMat0=    1 NMatS0=      1 NMatT0=    0 NMatD0=    1 NMtDS0=    0 NMtDT0=    0
 Symmetry not used in FoFCou.
 E= -1031.78666175850    
 DIIS: error= 3.74D-02 at cycle   1 NSaved=   1.
 NSaved= 1 IEnMin= 1 EnMin= -1031.78666175850     IErMin= 1 ErrMin= 3.74D-02
 ErrMax= 3.74D-02  0.00D+00 EMaxC= 1.00D-01 BMatC= 3.72D-01 BMatP= 3.72D-01
 IDIUse=3 WtCom= 6.26D-01 WtEn= 3.74D-01
 Coeff-Com:  0.100D+01
 Coeff-En:   0.100D+01
 Coeff:      0.100D+01
 Gap=     0.242 Goal=   None    Shift=    0.000
 GapD=    0.242 DampG=1.000 DampE=0.500 DampFc=0.5000 IDamp=-1.
 Damping current iteration by 5.00D-01
 RMSDP=4.46D-03 MaxDP=1.64D-01              OVMax= 2.19D-01

 Cycle   2  Pass 0  IDiag  1:
 RMSU=  2.19D-03    CP:  9.74D-01
 E= -1031.95730019496     Delta-E=       -0.170638436460 Rises=F Damp=T
 DIIS: error= 1.14D-02 at cycle   2 NSaved=   2.
 NSaved= 2 IEnMin= 2 EnMin= -1031.95730019496     IErMin= 2 ErrMin= 1.14D-02
 ErrMax= 1.14D-02  0.00D+00 EMaxC= 1.00D-01 BMatC= 4.02D-02 BMatP= 3.72D-01
 IDIUse=3 WtCom= 8.86D-01 WtEn= 1.14D-01
 Coeff-Com:  0.971D-01 0.903D+00
 Coeff-En:   0.140D+00 0.860D+00
 Coeff:      0.102D+00 0.898D+00
 Gap=     0.237 Goal=   None    Shift=    0.000
 RMSDP=1.47D-03 MaxDP=6.14D-02 DE=-1.71D-01 OVMax= 1.84D-01

 Cycle   3  Pass 0  IDiag  1:
 RMSU=  1.41D-03    CP:  9.55D-01  8.69D-01
 E= -1032.14444041360     Delta-E=       -0.187140218642 Rises=F Damp=F
 DIIS: error= 1.76D-02 at cycle   3 NSaved=   3.
 NSaved= 3 IEnMin= 3 EnMin= -1032.14444041360     IErMin= 2 ErrMin= 1.14D-02
 ErrMax= 1.76D-02  0.00D+00 EMaxC= 1.00D-01 BMatC= 6.13D-02 BMatP= 4.02D-02
 IDIUse=2 WtCom= 0.00D+00 WtEn= 1.00D+00
 Coeff-En:   0.000D+00 0.000D+00 0.100D+01
 Coeff:      0.000D+00 0.000D+00 0.100D+01
 Gap=     0.190 Goal=   None    Shift=    0.000
 RMSDP=2.14D-03 MaxDP=1.09D-01 DE=-1.87D-01 OVMax= 2.47D-01

 Cycle   4  Pass 0  IDiag  1:
 RMSU=  1.12D-03    CP:  9.64D-01  1.40D+00  3.70D-03
 E= -1031.92530633364     Delta-E=        0.219134079964 Rises=F Damp=F
 DIIS: error= 4.78D-02 at cycle   4 NSaved=   4.
 NSaved= 4 IEnMin= 3 EnMin= -1032.14444041360     IErMin= 2 ErrMin= 1.14D-02
 ErrMax= 4.78D-02  0.00D+00 EMaxC= 1.00D-01 BMatC= 3.10D-01 BMatP= 4.02D-02
 IDIUse=2 WtCom= 0.00D+00 WtEn= 1.00D+00
 Coeff-En:   0.000D+00 0.000D+00 0.778D+00 0.222D+00
 Coeff:      0.000D+00 0.000D+00 0.778D+00 0.222D+00
 Gap=     0.209 Goal=   None    Shift=    0.000
 RMSDP=1.20D-03 MaxDP=5.89D-02 DE= 2.19D-01 OVMax= 1.18D-01

 Cycle   5  Pass 0  IDiag  1:
 RMSU=  1.80D-04    CP:  9.59D-01  1.07D+00  5.36D-01  4.96D-01
 E= -1032.18042091453     Delta-E=       -0.255114580890 Rises=F Damp=F
 DIIS: error= 1.18D-02 at cycle   5 NSaved=   5.
 NSaved= 5 IEnMin= 5 EnMin= -1032.18042091453     IErMin= 2 ErrMin= 1.14D-02
 ErrMax= 1.18D-02  0.00D+00 EMaxC= 1.00D-01 BMatC= 2.21D-02 BMatP= 4.02D-02
 IDIUse=3 WtCom= 8.82D-01 WtEn= 1.18D-01
 Coeff-Com: -0.587D-02 0.245D-01 0.249D+00-0.129D+00 0.862D+00
 Coeff-En:   0.000D+00 0.000D+00 0.310D+00 0.000D+00 0.690D+00
 Coeff:     -0.518D-02 0.216D-01 0.256D+00-0.114D+00 0.841D+00
 Gap=     0.210 Goal=   None    Shift=    0.000
 RMSDP=3.92D-04 MaxDP=2.06D-02 DE=-2.55D-01 OVMax= 4.54D-02

 Cycle   6  Pass 0  IDiag  1:
 RMSU=  3.13D-05    CP:  9.57D-01  9.84D-01  7.21D-01  3.04D-01  9.35D-01
 E= -1032.19986521697     Delta-E=       -0.019444302445 Rises=F Damp=F
 DIIS: error= 4.29D-04 at cycle   6 NSaved=   6.
 NSaved= 6 IEnMin= 6 EnMin= -1032.19986521697     IErMin= 6 ErrMin= 4.29D-04
 ErrMax= 4.29D-04  0.00D+00 EMaxC= 1.00D-01 BMatC= 3.47D-05 BMatP= 2.21D-02
 IDIUse=3 WtCom= 9.96D-01 WtEn= 4.29D-03
 Coeff-Com: -0.238D-02 0.528D-02 0.847D-01-0.451D-01 0.323D+00 0.635D+00
 Coeff-En:   0.000D+00 0.000D+00 0.000D+00 0.000D+00 0.000D+00 0.100D+01
 Coeff:     -0.237D-02 0.525D-02 0.843D-01-0.449D-01 0.321D+00 0.636D+00
 Gap=     0.210 Goal=   None    Shift=    0.000
 RMSDP=1.74D-05 MaxDP=9.18D-04 DE=-1.94D-02 OVMax= 2.09D-03

 Cycle   7  Pass 0  IDiag  1:
 RMSU=  9.69D-06    CP:  9.57D-01  9.88D-01  7.17D-01  3.10D-01  9.34D-01
                    CP:  8.10D-01
 E= -1032.19989245306     Delta-E=       -0.000027236082 Rises=F Damp=F
 DIIS: error= 1.01D-04 at cycle   7 NSaved=   7.
 NSaved= 7 IEnMin= 7 EnMin= -1032.19989245306     IErMin= 7 ErrMin= 1.01D-04
 ErrMax= 1.01D-04  0.00D+00 EMaxC= 1.00D-01 BMatC= 3.76D-06 BMatP= 3.47D-05
 IDIUse=3 WtCom= 9.99D-01 WtEn= 1.01D-03
 Coeff-Com: -0.839D-03 0.792D-03 0.257D-01-0.147D-01 0.106D+00 0.389D+00
 Coeff-Com:  0.493D+00
 Coeff-En:   0.000D+00 0.000D+00 0.000D+00 0.000D+00 0.000D+00 0.770D-01
 Coeff-En:   0.923D+00
 Coeff:     -0.838D-03 0.791D-03 0.257D-01-0.147D-01 0.106D+00 0.389D+00
 Coeff:      0.494D+00
 Gap=     0.210 Goal=   None    Shift=    0.000
 RMSDP=5.46D-06 MaxDP=1.77D-04 DE=-2.72D-05 OVMax= 4.92D-04

 Initial convergence to 1.0D-05 achieved.  Increase integral accuracy.
 Cycle   8  Pass 1  IDiag  1:
 E= -1032.19988291533     Delta-E=        0.000009537728 Rises=F Damp=F
 DIIS: error= 1.31D-04 at cycle   1 NSaved=   1.
 NSaved= 1 IEnMin= 1 EnMin= -1032.19988291533     IErMin= 1 ErrMin= 1.31D-04
 ErrMax= 1.31D-04  0.00D+00 EMaxC= 1.00D-01 BMatC= 1.90D-06 BMatP= 1.90D-06
 IDIUse=3 WtCom= 9.99D-01 WtEn= 1.31D-03
 Coeff-Com:  0.100D+01
 Coeff-En:   0.100D+01
 Coeff:      0.100D+01
 Gap=     0.210 Goal=   None    Shift=    0.000
 RMSDP=5.46D-06 MaxDP=1.77D-04 DE= 9.54D-06 OVMax= 2.51D-04

 Cycle   9  Pass 1  IDiag  1:
 RMSU=  6.76D-05    CP:  1.00D+00
 E= -1032.19988438265     Delta-E=       -0.000001467324 Rises=F Damp=F
 DIIS: error= 3.65D-05 at cycle   2 NSaved=   2.
 NSaved= 2 IEnMin= 2 EnMin= -1032.19988438265     IErMin= 2 ErrMin= 3.65D-05
 ErrMax= 3.65D-05  0.00D+00 EMaxC= 1.00D-01 BMatC= 5.20D-07 BMatP= 1.90D-06
 IDIUse=1 WtCom= 1.00D+00 WtEn= 0.00D+00
 Coeff-Com:  0.263D+00 0.737D+00
 Coeff:      0.263D+00 0.737D+00
 Gap=     0.210 Goal=   None    Shift=    0.000
 RMSDP=4.46D-06 MaxDP=1.77D-04 DE=-1.47D-06 OVMax= 4.17D-04

 Cycle  10  Pass 1  IDiag  1:
 RMSU=  4.39D-06    CP:  1.00D+00  1.01D+00
 E= -1032.19988409787     Delta-E=        0.000000284786 Rises=F Damp=F
 DIIS: error= 5.52D-05 at cycle   3 NSaved=   3.
 NSaved= 3 IEnMin= 2 EnMin= -1032.19988438265     IErMin= 2 ErrMin= 3.65D-05
 ErrMax= 5.52D-05  0.00D+00 EMaxC= 1.00D-01 BMatC= 8.16D-07 BMatP= 5.20D-07
 IDIUse=1 WtCom= 1.00D+00 WtEn= 0.00D+00
 Coeff-Com:  0.155D-02 0.556D+00 0.442D+00
 Coeff:      0.155D-02 0.556D+00 0.442D+00
 Gap=     0.210 Goal=   None    Shift=    0.000
 RMSDP=2.57D-06 MaxDP=1.14D-04 DE= 2.85D-07 OVMax= 2.66D-04

 Cycle  11  Pass 1  IDiag  1:
 RMSU=  5.45D-07    CP:  1.00D+00  1.02D+00  4.36D-01
 E= -1032.19988489771     Delta-E=       -0.000000799840 Rises=F Damp=F
 DIIS: error= 8.54D-06 at cycle   4 NSaved=   4.
 NSaved= 4 IEnMin= 4 EnMin= -1032.19988489771     IErMin= 4 ErrMin= 8.54D-06
 ErrMax= 8.54D-06  0.00D+00 EMaxC= 1.00D-01 BMatC= 1.68D-08 BMatP= 5.20D-07
 IDIUse=1 WtCom= 1.00D+00 WtEn= 0.00D+00
 Coeff-Com: -0.471D-02 0.330D+00 0.275D+00 0.399D+00
 Coeff:     -0.471D-02 0.330D+00 0.275D+00 0.399D+00
 Gap=     0.210 Goal=   None    Shift=    0.000
 RMSDP=3.57D-07 MaxDP=1.37D-05 DE=-8.00D-07 OVMax= 3.28D-05

 Cycle  12  Pass 1  IDiag  1:
 RMSU=  2.04D-07    CP:  1.00D+00  1.02D+00  4.53D-01  4.89D-01
 E= -1032.19988491204     Delta-E=       -0.000000014332 Rises=F Damp=F
 DIIS: error= 8.49D-07 at cycle   5 NSaved=   5.
 NSaved= 5 IEnMin= 5 EnMin= -1032.19988491204     IErMin= 5 ErrMin= 8.49D-07
 ErrMax= 8.49D-07  0.00D+00 EMaxC= 1.00D-01 BMatC= 3.76D-10 BMatP= 1.68D-08
 IDIUse=1 WtCom= 1.00D+00 WtEn= 0.00D+00
 Coeff-Com: -0.277D-02 0.173D+00 0.145D+00 0.232D+00 0.452D+00
 Coeff:     -0.277D-02 0.173D+00 0.145D+00 0.232D+00 0.452D+00
 Gap=     0.210 Goal=   None    Shift=    0.000
 RMSDP=5.72D-08 MaxDP=2.02D-06 DE=-1.43D-08 OVMax= 5.35D-06

 Cycle  13  Pass 1  IDiag  1:
 RMSU=  4.55D-08    CP:  1.00D+00  1.02D+00  4.55D-01  5.21D-01  8.63D-01
 E= -1032.19988491241     Delta-E=       -0.000000000366 Rises=F Damp=F
 DIIS: error= 1.68D-07 at cycle   6 NSaved=   6.
 NSaved= 6 IEnMin= 6 EnMin= -1032.19988491241     IErMin= 6 ErrMin= 1.68D-07
 ErrMax= 1.68D-07  0.00D+00 EMaxC= 1.00D-01 BMatC= 1.20D-11 BMatP= 3.76D-10
 IDIUse=1 WtCom= 1.00D+00 WtEn= 0.00D+00
 Coeff-Com: -0.748D-03 0.431D-01 0.362D-01 0.640D-01 0.193D+00 0.665D+00
 Coeff:     -0.748D-03 0.431D-01 0.362D-01 0.640D-01 0.193D+00 0.665D+00
 Gap=     0.210 Goal=   None    Shift=    0.000
 RMSDP=1.32D-08 MaxDP=4.46D-07 DE=-3.66D-10 OVMax= 1.08D-06

 Cycle  14  Pass 1  IDiag  1:
 RMSU=  9.95D-09    CP:  1.00D+00  1.02D+00  4.56D-01  5.19D-01  8.95D-01
                    CP:  8.94D-01
 E= -1032.19988491241     Delta-E=       -0.000000000007 Rises=F Damp=F
 DIIS: error= 5.98D-08 at cycle   7 NSaved=   7.
 NSaved= 7 IEnMin= 7 EnMin= -1032.19988491241     IErMin= 7 ErrMin= 5.98D-08
 ErrMax= 5.98D-08  0.00D+00 EMaxC= 1.00D-01 BMatC= 1.71D-12 BMatP= 1.20D-11
 IDIUse=1 WtCom= 1.00D+00 WtEn= 0.00D+00
 Coeff-Com: -0.112D-03 0.535D-02 0.442D-02 0.111D-01 0.497D-01 0.320D+00
 Coeff-Com:  0.610D+00
 Coeff:     -0.112D-03 0.535D-02 0.442D-02 0.111D-01 0.497D-01 0.320D+00
 Coeff:      0.610D+00
 Gap=     0.210 Goal=   None    Shift=    0.000
 RMSDP=4.19D-09 MaxDP=1.71D-07 DE=-7.28D-12 OVMax= 3.66D-07

 SCF Done:  E(RPBE1PBE) =  -1032.19988491     A.U. after   14 cycles
            NFock= 14  Conv=0.42D-08     -V/T= 2.0097
 KE= 1.022282925021D+03 PE=-6.038483535715D+03 EE= 2.163651692936D+03
 Leave Link  502 at Mon Jan 23 08:48:45 2023, MaxMem=  4194304000 cpu:             816.8 elap:             102.1
 (Enter /software/gaussian/G16-A.03/avx/g16/l801.exe)
 DoSCS=F DFT=T ScalE2(SS,OS)=  1.000000  1.000000
 Range of M.O.s used for correlation:     1   436
 NBasis=   436 NAE=    85 NBE=    85 NFC=     0 NFV=     0
 NROrb=    436 NOA=    85 NOB=    85 NVA=   351 NVB=   351

 **** Warning!!: The largest alpha MO coefficient is  0.11265089D+02

 Leave Link  801 at Mon Jan 23 08:48:45 2023, MaxMem=  4194304000 cpu:               0.2 elap:               0.0
 (Enter /software/gaussian/G16-A.03/avx/g16/l1101.exe)
 Using compressed storage, NAtomX=    44.
 Will process     45 centers per pass.
   1 Symmetry operations used in ECPInt.
 ECPInt:  NShTT=   20910 NPrTT=   75838 LenC2=   16014 LenP2D=   39437.
 LDataN:  DoStor=T MaxTD1= 5 Len=  102
 R6Disp: Adding Grimme-D3(BJ) dispersion energy 1st derivatives to the gradient.
 Leave Link 1101 at Mon Jan 23 08:48:46 2023, MaxMem=  4194304000 cpu:               8.1 elap:               1.0
 (Enter /software/gaussian/G16-A.03/avx/g16/l1102.exe)
 Symmetrizing basis deriv contribution to polar:
 IMax=3 JMax=2 DiffMx= 0.00D+00
 Leave Link 1102 at Mon Jan 23 08:48:46 2023, MaxMem=  4194304000 cpu:               0.5 elap:               0.1
 (Enter /software/gaussian/G16-A.03/avx/g16/l1110.exe)
 Forming Gx(P) for the SCF density, NAtomX=    44.
 Integral derivatives from FoFJK, PRISM(SPDF).
 Do as many integral derivatives as possible in FoFJK.
 G2DrvN: MDV=    4194300696.
 G2DrvN: will do    45 centers at a time, making    1 passes.
 Calling FoFCou, ICntrl=  3107 FMM=F I1Cent=   0 AccDes= 0.00D+00.
 FoFJK:  IHMeth= 1 ICntrl=    3107 DoSepK=F KAlg= 0 I1Cent=           0 FoldK=F
 IRaf=         0 NMat=       1 IRICut=       1 DoRegI=T DoRafI=F ISym2E= 0 IDoP0=0 IntGTp=1.
 FoFCou: FMM=F IPFlag=           0 FMFlag=      100000 FMFlg1=           0
         NFxFlg=           0 DoJE=F BraDBF=F KetDBF=F FulRan=T
         wScrn=  0.000000 ICntrl=      3107 IOpCl=  0 I1Cent=           0 NGrid=           0
         NMat0=    1 NMatS0=      1 NMatT0=    0 NMatD0=    1 NMtDS0=    0 NMtDT0=    0
 Symmetry not used in FoFCou.
 End of G2Drv F.D. properties file   721 does not exist.
 End of G2Drv F.D. properties file   722 does not exist.
 End of G2Drv F.D. properties file   788 does not exist.
 Leave Link 1110 at Mon Jan 23 08:54:13 2023, MaxMem=  4194304000 cpu:            2617.6 elap:             327.3
 (Enter /software/gaussian/G16-A.03/avx/g16/l1002.exe)
 Minotr:  Closed shell wavefunction.
          IDoAtm=11111111111111111111111111111111111111111111
          Direct CPHF calculation.
          Differentiating once with respect to electric field.
                with respect to dipole field.
          Differentiating once with respect to nuclear coordinates.
          Requested convergence is 1.0D-08 RMS, and 1.0D-07 maximum.
          Secondary convergence is 1.0D-12 RMS, and 1.0D-12 maximum.
          NewPWx=T KeepS1=F KeepF1=F KeepIn=T MapXYZ=F SortEE=F KeepMc=T.
        13533 words used for storage of precomputed grid.
 Two-electron integrals replicated using symmetry.
          MDV=    4194304000 using IRadAn=       1.
          Solving linear equations simultaneously, MaxMat=     384.
 FoF2E skips out because all densities are zero.
 CalDSu exits because no D1Ps are significant.
 FoFJK:  IHMeth= 1 ICntrl=       0 DoSepK=F KAlg= 0 I1Cent=           0 FoldK=F
 IRaf= 640000000 NMat=     132 IRICut=     330 DoRegI=T DoRafI=T ISym2E= 2 IDoP0=3 IntGTp=3.
 FoFCou: FMM=F IPFlag=           0 FMFlag=      100000 FMFlg1=           0
         NFxFlg=           0 DoJE=F BraDBF=F KetDBF=F FulRan=T
         wScrn=  0.000000 ICntrl=         0 IOpCl=  0 I1Cent=           0 NGrid=           0
         NMat0=  132 NMatS0=    132 NMatT0=    0 NMatD0=  132 NMtDS0=    0 NMtDT0=    0
 Integrals replicated using symmetry in FoFCou.
 Raff kept on since  58.50% of shell-pairs survive, threshold=   0.20 IRatSp=58.
          There are   135 degrees of freedom in the 1st order CPHF.  IDoFFX=6 NUNeed=     3.
    132 vectors produced by pass  0 Test12= 2.98D-14 1.00D-09 XBig12= 2.63D+02 5.65D+00.
 AX will form   132 AO Fock derivatives at one time.
    132 vectors produced by pass  1 Test12= 2.98D-14 1.00D-09 XBig12= 5.93D+01 1.59D+00.
    132 vectors produced by pass  2 Test12= 2.98D-14 1.00D-09 XBig12= 6.86D-01 1.30D-01.
    132 vectors produced by pass  3 Test12= 2.98D-14 1.00D-09 XBig12= 6.29D-03 6.31D-03.
    132 vectors produced by pass  4 Test12= 2.98D-14 1.00D-09 XBig12= 1.31D-05 3.19D-04.
     99 vectors produced by pass  5 Test12= 2.98D-14 1.00D-09 XBig12= 1.56D-08 1.12D-05.
     25 vectors produced by pass  6 Test12= 2.98D-14 1.00D-09 XBig12= 1.69D-11 3.89D-07.
      3 vectors produced by pass  7 Test12= 2.98D-14 1.00D-09 XBig12= 2.00D-14 1.77D-08.
      2 vectors produced by pass  8 Test12= 2.98D-14 1.00D-09 XBig12= 1.06D-15 3.27D-09.
 InvSVY:  IOpt=1 It=  1 EMax= 1.78D-14
 Solved reduced A of dimension   789 with   135 vectors.
 FullF1:  Do perturbations      1 to       3.
 Isotropic polarizability for W=    0.000000      227.94 Bohr**3.
 End of Minotr F.D. properties file   721 does not exist.
 End of Minotr F.D. properties file   722 does not exist.
 End of Minotr F.D. properties file   788 does not exist.
 Leave Link 1002 at Mon Jan 23 09:06:20 2023, MaxMem=  4194304000 cpu:            5811.7 elap:             726.6
 (Enter /software/gaussian/G16-A.03/avx/g16/l601.exe)
 Copying SCF densities to generalized density rwf, IOpCl= 0 IROHF=0.

 **********************************************************************

            Population analysis using the SCF density.

 **********************************************************************

 Orbital symmetries:
       Occupied  (A) (A) (A) (A) (A) (A) (A) (A) (A) (A) (A) (A)
                 (A) (A) (A) (A) (A) (A) (A) (A) (A) (A) (A) (A)
                 (A) (A) (A) (A) (A) (A) (A) (A) (A) (A) (A) (A)
                 (A) (A) (A) (A) (A) (A) (A) (A) (A) (A) (A) (A)
                 (A) (A) (A) (A) (A) (A) (A) (A) (A) (A) (A) (A)
                 (A) (A) (A) (A) (A) (A) (A) (A) (A) (A) (A) (A)
                 (A) (A) (A) (A) (A) (A) (A) (A) (A) (A) (A) (A)
                 (A)
       Virtual   (A) (A) (A) (A) (A) (A) (A) (A) (A) (A) (A) (A)
                 (A) (A) (A) (A) (A) (A) (A) (A) (A) (A) (A) (A)
                 (A) (A) (A) (A) (A) (A) (A) (A) (A) (A) (A) (A)
                 (A) (A) (A) (A) (A) (A) (A) (A) (A) (A) (A) (A)
                 (A) (A) (A) (A) (A) (A) (A) (A) (A) (A) (A) (A)
                 (A) (A) (A) (A) (A) (A) (A) (A) (A) (A) (A) (A)
                 (A) (A) (A) (A) (A) (A) (A) (A) (A) (A) (A) (A)
                 (A) (A) (A) (A) (A) (A) (A) (A) (A) (A) (A) (A)
                 (A) (A) (A) (A) (A) (A) (A) (A) (A) (A) (A) (A)
                 (A) (A) (A) (A) (A) (A) (A) (A) (A) (A) (A) (A)
                 (A) (A) (A) (A) (A) (A) (A) (A) (A) (A) (A) (A)
                 (A) (A) (A) (A) (A) (A) (A) (A) (A) (A) (A) (A)
                 (A) (A) (A) (A) (A) (A) (A) (A) (A) (A) (A) (A)
                 (A) (A) (A) (A) (A) (A) (A) (A) (A) (A) (A) (A)
                 (A) (A) (A) (A) (A) (A) (A) (A) (A) (A) (A) (A)
                 (A) (A) (A) (A) (A) (A) (A) (A) (A) (A) (A) (A)
                 (A) (A) (A) (A) (A) (A) (A) (A) (A) (A) (A) (A)
                 (A) (A) (A) (A) (A) (A) (A) (A) (A) (A) (A) (A)
                 (A) (A) (A) (A) (A) (A) (A) (A) (A) (A) (A) (A)
                 (A) (A) (A) (A) (A) (A) (A) (A) (A) (A) (A) (A)
                 (A) (A) (A) (A) (A) (A) (A) (A) (A) (A) (A) (A)
                 (A) (A) (A) (A) (A) (A) (A) (A) (A) (A) (A) (A)
                 (A) (A) (A) (A) (A) (A) (A) (A) (A) (A) (A) (A)
                 (A) (A) (A) (A) (A) (A) (A) (A) (A) (A) (A) (A)
                 (A) (A) (A) (A) (A) (A) (A) (A) (A) (A) (A) (A)
                 (A) (A) (A) (A) (A) (A) (A) (A) (A) (A) (A) (A)
                 (A) (A) (A) (A) (A) (A) (A) (A) (A) (A) (A) (A)
                 (A) (A) (A) (A) (A) (A) (A) (A) (A) (A) (A) (A)
                 (A) (A) (A) (A) (A) (A) (A) (A) (A) (A) (A) (A)
                 (A) (A) (A)
 The electronic state is 1-A.
 Alpha  occ. eigenvalues --  -19.25719 -19.25710 -14.36422 -14.36415 -10.32522
 Alpha  occ. eigenvalues --  -10.32507 -10.29583 -10.29582 -10.27011 -10.27010
 Alpha  occ. eigenvalues --  -10.24833 -10.24833 -10.24236 -10.24236 -10.24223
 Alpha  occ. eigenvalues --  -10.24223 -10.24129 -10.24129 -10.24034 -10.24034
 Alpha  occ. eigenvalues --  -10.24013 -10.24013 -10.23918 -10.23917  -1.13656
 Alpha  occ. eigenvalues --   -1.12320  -0.94080  -0.91627  -0.88290  -0.88128
 Alpha  occ. eigenvalues --   -0.83365  -0.80940  -0.78473  -0.76465  -0.76463
 Alpha  occ. eigenvalues --   -0.76086  -0.71659  -0.70782  -0.66273  -0.63237
 Alpha  occ. eigenvalues --   -0.62956  -0.62376  -0.62110  -0.59706  -0.59346
 Alpha  occ. eigenvalues --   -0.56672  -0.54520  -0.53690  -0.53390  -0.51712
 Alpha  occ. eigenvalues --   -0.50676  -0.49052  -0.48450  -0.48054  -0.47787
 Alpha  occ. eigenvalues --   -0.47091  -0.46418  -0.45355  -0.43797  -0.43742
 Alpha  occ. eigenvalues --   -0.43637  -0.43024  -0.42250  -0.42031  -0.41235
 Alpha  occ. eigenvalues --   -0.40934  -0.39711  -0.39345  -0.37959  -0.37926
 Alpha  occ. eigenvalues --   -0.37480  -0.36432  -0.36303  -0.35508  -0.35414
 Alpha  occ. eigenvalues --   -0.35017  -0.34983  -0.29524  -0.27874  -0.27078
 Alpha  occ. eigenvalues --   -0.27062  -0.26400  -0.26170  -0.25804  -0.24211
 Alpha virt. eigenvalues --   -0.03173  -0.01008  -0.00801  -0.00630  -0.00521
 Alpha virt. eigenvalues --    0.06400   0.06485   0.08070   0.08386   0.08465
 Alpha virt. eigenvalues --    0.08615   0.10311   0.10348   0.10632   0.11236
 Alpha virt. eigenvalues --    0.12705   0.12827   0.12888   0.13177   0.13276
 Alpha virt. eigenvalues --    0.14491   0.14602   0.15193   0.15230   0.16477
 Alpha virt. eigenvalues --    0.16638   0.17373   0.17686   0.17746   0.18207
 Alpha virt. eigenvalues --    0.18286   0.20877   0.22741   0.23709   0.23939
 Alpha virt. eigenvalues --    0.27282   0.27331   0.28060   0.28538   0.29627
 Alpha virt. eigenvalues --    0.29631   0.30763   0.30795   0.31068   0.32468
 Alpha virt. eigenvalues --    0.32486   0.32871   0.33431   0.36762   0.36947
 Alpha virt. eigenvalues --    0.37972   0.39183   0.40435   0.40500   0.41146
 Alpha virt. eigenvalues --    0.42090   0.42569   0.42585   0.43535   0.43980
 Alpha virt. eigenvalues --    0.44700   0.45143   0.45855   0.46554   0.47425
 Alpha virt. eigenvalues --    0.47963   0.48554   0.48939   0.49993   0.50381
 Alpha virt. eigenvalues --    0.50723   0.51481   0.51656   0.52784   0.53656
 Alpha virt. eigenvalues --    0.54166   0.54282   0.55143   0.55536   0.55831
 Alpha virt. eigenvalues --    0.57096   0.57230   0.58590   0.58771   0.58863
 Alpha virt. eigenvalues --    0.61433   0.61562   0.61755   0.62655   0.62745
 Alpha virt. eigenvalues --    0.63177   0.63893   0.64517   0.64884   0.65097
 Alpha virt. eigenvalues --    0.65330   0.65904   0.66134   0.66139   0.66790
 Alpha virt. eigenvalues --    0.67214   0.67383   0.68153   0.68865   0.69140
 Alpha virt. eigenvalues --    0.69717   0.70013   0.70310   0.70601   0.70804
 Alpha virt. eigenvalues --    0.70953   0.72310   0.72622   0.72744   0.73370
 Alpha virt. eigenvalues --    0.73965   0.74031   0.74261   0.75228   0.75420
 Alpha virt. eigenvalues --    0.75814   0.76217   0.76289   0.77349   0.77697
 Alpha virt. eigenvalues --    0.78671   0.79822   0.80453   0.81173   0.82043
 Alpha virt. eigenvalues --    0.83162   0.83681   0.83745   0.85006   0.85938
 Alpha virt. eigenvalues --    0.89285   0.90830   0.92185   0.92545   0.95333
 Alpha virt. eigenvalues --    0.95629   0.95919   0.97087   0.98611   1.00147
 Alpha virt. eigenvalues --    1.00571   1.04365   1.06182   1.07087   1.07332
 Alpha virt. eigenvalues --    1.09956   1.10308   1.11462   1.12713   1.12765
 Alpha virt. eigenvalues --    1.15439   1.18831   1.19709   1.20762   1.20887
 Alpha virt. eigenvalues --    1.24977   1.24990   1.25733   1.25997   1.26909
 Alpha virt. eigenvalues --    1.27214   1.29019   1.29135   1.29546   1.29649
 Alpha virt. eigenvalues --    1.31360   1.31364   1.32152   1.32204   1.33339
 Alpha virt. eigenvalues --    1.35034   1.38752   1.39738   1.43844   1.44325
 Alpha virt. eigenvalues --    1.46358   1.46822   1.48317   1.51582   1.52185
 Alpha virt. eigenvalues --    1.53240   1.54080   1.55478   1.58597   1.59306
 Alpha virt. eigenvalues --    1.61941   1.64623   1.64906   1.65683   1.66251
 Alpha virt. eigenvalues --    1.66811   1.68325   1.69414   1.69782   1.70269
 Alpha virt. eigenvalues --    1.70834   1.71791   1.72733   1.73294   1.73787
 Alpha virt. eigenvalues --    1.73953   1.74456   1.75316   1.75904   1.76009
 Alpha virt. eigenvalues --    1.76531   1.76641   1.76854   1.77275   1.77487
 Alpha virt. eigenvalues --    1.77574   1.77653   1.79109   1.79790   1.80414
 Alpha virt. eigenvalues --    1.80987   1.83294   1.83725   1.84309   1.84797
 Alpha virt. eigenvalues --    1.85823   1.86061   1.86344   1.87670   1.88003
 Alpha virt. eigenvalues --    1.90794   1.91530   1.92396   1.92751   1.93456
 Alpha virt. eigenvalues --    1.93796   1.95152   1.95499   1.96164   1.97451
 Alpha virt. eigenvalues --    1.97653   1.98015   1.98550   1.98745   1.99594
 Alpha virt. eigenvalues --    1.99595   2.00033   2.00411   2.02144   2.03082
 Alpha virt. eigenvalues --    2.03325   2.05481   2.05821   2.07714   2.09865
 Alpha virt. eigenvalues --    2.10436   2.10879   2.11973   2.12045   2.12769
 Alpha virt. eigenvalues --    2.12919   2.14502   2.15444   2.15615   2.17559
 Alpha virt. eigenvalues --    2.17757   2.23882   2.25209   2.26250   2.27475
 Alpha virt. eigenvalues --    2.27501   2.30045   2.30108   2.30459   2.31440
 Alpha virt. eigenvalues --    2.31731   2.31848   2.33693   2.34800   2.35199
 Alpha virt. eigenvalues --    2.35766   2.35795   2.38263   2.38715   2.38907
 Alpha virt. eigenvalues --    2.39331   2.44190   2.44294   2.48399   2.49589
 Alpha virt. eigenvalues --    2.50646   2.52608   2.54721   2.55716   2.59655
 Alpha virt. eigenvalues --    2.60035   2.62282   2.62398   2.62944   2.65199
 Alpha virt. eigenvalues --    2.65338   2.66571   2.66672   2.67680   2.69747
 Alpha virt. eigenvalues --    2.71061   2.71983   2.74267   2.74312   2.74426
 Alpha virt. eigenvalues --    2.74440   2.75852   2.78199   2.83516   2.83695
 Alpha virt. eigenvalues --    2.86281   2.88164   2.88247   2.88697   2.89819
 Alpha virt. eigenvalues --    2.90101   2.90705   2.91092   2.92268   2.94118
 Alpha virt. eigenvalues --    2.95806   2.95886   2.98235   2.98847   2.99864
 Alpha virt. eigenvalues --    3.01624   3.05810   3.06611   3.07976   3.09459
 Alpha virt. eigenvalues --    3.10835   3.12474   3.13069   3.14849   3.14850
 Alpha virt. eigenvalues --    3.17455   3.24743   3.27301   3.27342   3.29936
 Alpha virt. eigenvalues --    3.33460   3.53014   3.56299   3.65104   3.65109
 Alpha virt. eigenvalues --    3.74140
     Molecular Orbital Coefficients:
                          81        82        83        84        85
                           O         O         O         O         O
     Eigenvalues --    -0.27062  -0.26400  -0.26170  -0.25804  -0.24211
   1 1   C  1S          0.00230  -0.00261  -0.01889   0.02002  -0.00041
   2        2S         -0.00476   0.00600   0.04362  -0.04526   0.00024
   3        3S         -0.01473   0.02442   0.12652  -0.11354   0.00914
   4        4PX         0.00712   0.01412   0.02594  -0.02878   0.00358
   5        4PY        -0.00437  -0.02477  -0.09956   0.07671   0.00409
   6        4PZ         0.00123  -0.01457   0.02614   0.01677  -0.05298
   7        5PX        -0.00211   0.00392   0.00858  -0.01338  -0.00284
   8        5PY        -0.01143  -0.02573  -0.10348   0.07516   0.00664
   9        5PZ        -0.00569   0.00084   0.01790  -0.00722  -0.00516
  10        6D 0       -0.00082   0.00026  -0.00313  -0.00036   0.00391
  11        6D+1       -0.00090   0.00260  -0.00122  -0.00489   0.00752
  12        6D-1        0.00038   0.00059   0.00122   0.00141  -0.00244
  13        6D+2        0.00078  -0.00074   0.00104  -0.00036  -0.00135
  14        6D-2        0.00071  -0.00097   0.00190  -0.00457   0.00045
  15 2   C  1S          0.00042   0.01792   0.03111  -0.00712  -0.00693
  16        2S         -0.00271  -0.03565  -0.07136   0.02162   0.02270
  17        3S          0.00261  -0.10682  -0.14862   0.01191  -0.01185
  18        4PX        -0.00758   0.05166  -0.03566   0.12562  -0.02258
  19        4PY        -0.00423   0.04442   0.08171  -0.03234  -0.00608
  20        4PZ        -0.02148  -0.01041  -0.06175  -0.04037   0.10712
  21        5PX         0.00869   0.03181  -0.01763   0.04091   0.03613
  22        5PY        -0.00334   0.01889  -0.01029   0.02505   0.00123
  23        5PZ        -0.01598  -0.03689  -0.04528  -0.02829   0.00892
  24        6D 0        0.00071  -0.00412  -0.00206  -0.00066  -0.00333
  25        6D+1        0.00048  -0.00370   0.00165   0.00547  -0.01678
  26        6D-1        0.00067  -0.00245  -0.00138   0.00430  -0.00595
  27        6D+2       -0.00065   0.00198  -0.00747   0.00833   0.00337
  28        6D-2       -0.00102  -0.00032  -0.00936   0.00936  -0.00011
  29 3   H  1S          0.01718  -0.05174  -0.01848   0.05060  -0.11334
  30        2S         -0.00388  -0.01653   0.00870   0.02986  -0.08478
  31        3PX         0.00058  -0.00017  -0.00115   0.00157  -0.00022
  32        3PY         0.00060  -0.00064   0.00184  -0.00035  -0.00321
  33        3PZ         0.00042  -0.00253  -0.00261   0.00085  -0.00115
  34 4   N  1S          0.00367   0.00195   0.05595  -0.05819  -0.00367
  35        2S          0.00812   0.00212   0.11669  -0.12564  -0.00655
  36        3S         -0.00035   0.03099   0.14912  -0.10510  -0.02150
  37        4PX        -0.01083   0.01249  -0.10184   0.16537  -0.04704
  38        4PY         0.01656   0.00676   0.20816  -0.23381   0.01414
  39        4PZ        -0.01793   0.10826  -0.05165  -0.02537   0.30018
  40        5PX         0.00670  -0.00767   0.03742  -0.08290   0.04766
  41        5PY        -0.01235   0.00174  -0.14095   0.16732  -0.00975
  42        5PZ         0.01401  -0.07633   0.03752   0.02896  -0.22065
  43        6D 0        0.00067   0.00069   0.00646  -0.00712   0.00132
  44        6D+1        0.00058   0.00129   0.00005   0.00394  -0.00051
  45        6D-1        0.00131  -0.00614   0.00308   0.00168  -0.01671
  46        6D+2        0.00010   0.00058   0.00433  -0.00504   0.00120
  47        6D-2        0.00088  -0.00122   0.00577  -0.01037   0.00284
  48 5   C  1S          0.00088   0.00121   0.01974  -0.01103  -0.00139
  49        2S         -0.00250  -0.00426  -0.05338   0.03050   0.00683
  50        3S          0.02246  -0.00551   0.12481  -0.23251  -0.01689
  51        4PX         0.00066   0.02949   0.04974  -0.06371   0.02208
  52        4PY         0.00270   0.00501   0.04678  -0.03480  -0.01370
  53        4PZ         0.01761  -0.03898   0.02588   0.05356  -0.14787
  54        5PX         0.01618   0.01235   0.13178  -0.21671   0.02141
  55        5PY        -0.00704   0.01152  -0.06448   0.09347  -0.00294
  56        5PZ         0.01424  -0.02853   0.03708  -0.00037  -0.10831
  57        6D 0        0.00047  -0.00052   0.00027   0.00224  -0.00123
  58        6D+1        0.00103   0.00298   0.00137   0.00401   0.00888
  59        6D-1       -0.00215   0.00931  -0.00541  -0.00563   0.02472
  60        6D+2       -0.00046   0.00142  -0.00722   0.00975  -0.00296
  61        6D-2       -0.00084   0.00100  -0.00963   0.01358  -0.00476
  62 6   O  1S          0.00092  -0.00112   0.00583  -0.00397   0.00009
  63        2S          0.00128  -0.00331   0.01091  -0.00703  -0.00014
  64        3S          0.01333  -0.00461   0.06084  -0.06686   0.00177
  65        4PX        -0.00331  -0.01578   0.00362   0.02882  -0.03138
  66        4PY        -0.01223   0.02399  -0.06124   0.07577   0.01288
  67        4PZ        -0.02222   0.07746  -0.03054  -0.10061   0.20926
  68        5PX        -0.00429  -0.01323   0.00831   0.01847  -0.02572
  69        5PY        -0.01040   0.01752  -0.05474   0.07013   0.01024
  70        5PZ        -0.01892   0.06269  -0.02450  -0.08575   0.17482
  71        6D 0       -0.00009   0.00015  -0.00068   0.00092  -0.00001
  72        6D+1        0.00034  -0.00026   0.00008   0.00055  -0.00119
  73        6D-1        0.00047  -0.00122   0.00119   0.00159  -0.00305
  74        6D+2       -0.00028   0.00080  -0.00056   0.00050   0.00028
  75        6D-2        0.00038   0.00075   0.00261  -0.00280   0.00021
  76 7   C  1S         -0.00088   0.00120  -0.01974   0.01103  -0.00138
  77        2S          0.00252  -0.00423   0.05339  -0.03051   0.00682
  78        3S         -0.02245  -0.00569  -0.12481   0.23250  -0.01679
  79        4PX         0.00065  -0.02944   0.04974  -0.06373  -0.02212
  80        4PY        -0.00272   0.00496  -0.04680   0.03478  -0.01377
  81        4PZ         0.01763   0.03894   0.02590   0.05357   0.14786
  82        5PX         0.01618  -0.01220   0.13178  -0.21672  -0.02155
  83        5PY         0.00703   0.01160   0.06447  -0.09346  -0.00296
  84        5PZ         0.01425   0.02854   0.03713  -0.00042   0.10829
  85        6D 0       -0.00047  -0.00053  -0.00027  -0.00225  -0.00125
  86        6D+1       -0.00103   0.00298  -0.00137  -0.00401   0.00889
  87        6D-1       -0.00215  -0.00931  -0.00542  -0.00562  -0.02472
  88        6D+2        0.00046   0.00143   0.00722  -0.00975  -0.00298
  89        6D-2       -0.00084  -0.00101  -0.00963   0.01358   0.00477
  90 8   N  1S         -0.00367   0.00190  -0.05595   0.05819  -0.00364
  91        2S         -0.00813   0.00202  -0.11669   0.12565  -0.00649
  92        3S          0.00032   0.03091  -0.14913   0.10514  -0.02138
  93        4PX        -0.01084  -0.01259  -0.10182   0.16537   0.04717
  94        4PY        -0.01656   0.00661  -0.20814   0.23383   0.01438
  95        4PZ        -0.01802  -0.10825  -0.05183  -0.02526  -0.30015
  96        5PX         0.00670   0.00772   0.03740  -0.08289  -0.04774
  97        5PY         0.01235   0.00185   0.14094  -0.16733  -0.00991
  98        5PZ         0.01408   0.07632   0.03764   0.02888   0.22063
  99        6D 0       -0.00067   0.00069  -0.00645   0.00712   0.00134
 100        6D+1       -0.00058   0.00129  -0.00004  -0.00395  -0.00051
 101        6D-1        0.00132   0.00613   0.00309   0.00168   0.01671
 102        6D+2       -0.00010   0.00057  -0.00433   0.00504   0.00121
 103        6D-2        0.00088   0.00122   0.00577  -0.01037  -0.00284
 104 9   C  1S         -0.00042   0.01791  -0.03111   0.00714  -0.00692
 105        2S          0.00271  -0.03562   0.07138  -0.02165   0.02267
 106        3S         -0.00263  -0.10676   0.14862  -0.01197  -0.01186
 107        4PX        -0.00760  -0.05175  -0.03563   0.12559   0.02265
 108        4PY         0.00424   0.04438  -0.08169   0.03240  -0.00600
 109        4PZ        -0.02146   0.01043  -0.06183  -0.04028  -0.10710
 110        5PX         0.00865  -0.03185  -0.01762   0.04091  -0.03610
 111        5PY         0.00335   0.01890   0.01031  -0.02503   0.00124
 112        5PZ        -0.01593   0.03690  -0.04529  -0.02826  -0.00892
 113        6D 0       -0.00071  -0.00412   0.00206   0.00066  -0.00334
 114        6D+1       -0.00049  -0.00369  -0.00166  -0.00546  -0.01678
 115        6D-1        0.00067   0.00245  -0.00138   0.00431   0.00595
 116        6D+2        0.00065   0.00199   0.00747  -0.00832   0.00337
 117        6D-2       -0.00102   0.00032  -0.00936   0.00937   0.00012
 118 10  H  1S         -0.01719  -0.05171   0.01845  -0.05061  -0.11337
 119        2S          0.00384  -0.01652  -0.00872  -0.02986  -0.08480
 120        3PX         0.00058   0.00017  -0.00115   0.00157   0.00022
 121        3PY        -0.00060  -0.00065  -0.00184   0.00035  -0.00321
 122        3PZ         0.00042   0.00253  -0.00261   0.00086   0.00115
 123 11  C  1S         -0.00229  -0.00259   0.01889  -0.02002  -0.00043
 124        2S          0.00473   0.00596  -0.04362   0.04528   0.00027
 125        3S          0.01466   0.02431  -0.12653   0.11357   0.00919
 126        4PX         0.00710  -0.01410   0.02594  -0.02880  -0.00360
 127        4PY         0.00437  -0.02471   0.09956  -0.07675   0.00401
 128        4PZ         0.00127   0.01455   0.02619   0.01673   0.05297
 129        5PX        -0.00211  -0.00391   0.00859  -0.01339   0.00285
 130        5PY         0.01141  -0.02566   0.10349  -0.07519   0.00659
 131        5PZ        -0.00566  -0.00084   0.01794  -0.00726   0.00516
 132        6D 0        0.00082   0.00026   0.00314   0.00036   0.00391
 133        6D+1        0.00090   0.00260   0.00122   0.00489   0.00752
 134        6D-1        0.00038  -0.00059   0.00122   0.00141   0.00244
 135        6D+2       -0.00078  -0.00074  -0.00104   0.00035  -0.00135
 136        6D-2        0.00071   0.00097   0.00190  -0.00457  -0.00045
 137 12  O  1S         -0.00092  -0.00112  -0.00583   0.00397   0.00009
 138        2S         -0.00128  -0.00332  -0.01091   0.00703  -0.00013
 139        3S         -0.01332  -0.00466  -0.06084   0.06686   0.00180
 140        4PX        -0.00328   0.01577   0.00363   0.02883   0.03140
 141        4PY         0.01225   0.02409   0.06125  -0.07570   0.01295
 142        4PZ        -0.02229  -0.07739  -0.03056  -0.10065  -0.20926
 143        5PX        -0.00426   0.01323   0.00832   0.01848   0.02575
 144        5PY         0.01042   0.01760   0.05475  -0.07008   0.01029
 145        5PZ        -0.01897  -0.06262  -0.02451  -0.08579  -0.17481
 146        6D 0        0.00009   0.00016   0.00068  -0.00092  -0.00001
 147        6D+1       -0.00034  -0.00026  -0.00008  -0.00055  -0.00119
 148        6D-1        0.00048   0.00122   0.00119   0.00159   0.00305
 149        6D+2        0.00028   0.00080   0.00056  -0.00050   0.00028
 150        6D-2        0.00038  -0.00075   0.00261  -0.00280  -0.00021
 151 13  C  1S         -0.00186  -0.00834  -0.00656  -0.00023  -0.02259
 152        2S          0.00539   0.01522   0.01772   0.00453   0.05086
 153        3S         -0.00111   0.06144   0.05847  -0.05202   0.17141
 154        4PX        -0.00415  -0.01904  -0.01775  -0.01565  -0.07202
 155        4PY        -0.00358  -0.03446   0.04594   0.03675   0.05323
 156        4PZ         0.01113  -0.01982   0.05342   0.03912   0.08605
 157        5PX        -0.00169  -0.02811   0.03536  -0.02023  -0.01069
 158        5PY        -0.01259  -0.00736  -0.00470   0.03666   0.04669
 159        5PZ         0.00298   0.00123   0.03860   0.00915   0.07601
 160        6D 0        0.00017  -0.00013   0.00022  -0.00007  -0.00002
 161        6D+1       -0.00071   0.00716  -0.00753  -0.00413  -0.00455
 162        6D-1        0.00008   0.00032  -0.00052   0.00268   0.00304
 163        6D+2        0.00079  -0.00372   0.00429  -0.00038  -0.00068
 164        6D-2       -0.00049   0.00634  -0.00599  -0.00374  -0.00321
 165 14  C  1S         -0.00057   0.00316  -0.00199   0.00106   0.00442
 166        2S          0.00251  -0.00958   0.00764  -0.00236  -0.01041
 167        3S         -0.00447   0.02318  -0.05223   0.02680  -0.01354
 168        4PX         0.00159  -0.02960   0.02956   0.03658   0.04220
 169        4PY        -0.00355   0.13969  -0.10318  -0.08582  -0.03640
 170        4PZ        -0.01082   0.17552  -0.13158  -0.10162  -0.03821
 171        5PX         0.00242  -0.02078   0.06397   0.00230   0.07788
 172        5PY         0.00182   0.09792  -0.06432  -0.06476  -0.02813
 173        5PZ        -0.01077   0.12446  -0.09197  -0.07273  -0.01761
 174        6D 0        0.01097   0.00342  -0.00257  -0.00192  -0.00159
 175        6D+1       -0.00431   0.00319  -0.00394  -0.00371  -0.00459
 176        6D-1       -0.00353   0.00021  -0.00089  -0.00082  -0.00156
 177        6D+2        0.00778  -0.00040   0.00060   0.00079   0.00037
 178        6D-2        0.00110   0.00459  -0.00372  -0.00340  -0.00232
 179 15  C  1S          0.00055  -0.00062  -0.00006  -0.00154  -0.00315
 180        2S         -0.00189   0.00172   0.00030   0.00470   0.00967
 181        3S          0.00829  -0.01319   0.00207   0.00336  -0.02562
 182        4PX        -0.04304  -0.03641   0.02375   0.01163  -0.00341
 183        4PY         0.12117   0.09346  -0.06952  -0.05127  -0.02684
 184        4PZ         0.15971   0.11745  -0.08533  -0.06746  -0.03652
 185        5PX        -0.03267  -0.02396   0.00245   0.02393  -0.00024
 186        5PY         0.08782   0.05922  -0.04739  -0.04079  -0.03973
 187        5PZ         0.10959   0.08666  -0.06557  -0.04458  -0.01806
 188        6D 0        0.00309  -0.00871   0.00674   0.00575   0.00288
 189        6D+1        0.00605  -0.00293   0.00240   0.00184   0.00067
 190        6D-1        0.00141   0.00079  -0.00071  -0.00075  -0.00072
 191        6D+2       -0.00172  -0.00332   0.00236   0.00133  -0.00000
 192        6D-2        0.00524  -0.00395   0.00329   0.00344   0.00238
 193 16  C  1S         -0.00004   0.00071  -0.00028   0.00080   0.00181
 194        2S         -0.00012  -0.00195   0.00170  -0.00266  -0.00401
 195        3S          0.00020   0.00504   0.00817  -0.01135   0.00681
 196        4PX        -0.04412   0.01886  -0.01349  -0.00801   0.00264
 197        4PY         0.13115  -0.04096   0.03721   0.03673   0.02365
 198        4PZ         0.16499  -0.05168   0.04619   0.04810   0.03145
 199        5PX        -0.03185   0.01159  -0.01424  -0.00176  -0.00052
 200        5PY         0.09069  -0.02461   0.02227   0.02858   0.02318
 201        5PZ         0.11619  -0.03865   0.03368   0.03447   0.01999
 202        6D 0       -0.00366   0.00221  -0.00182  -0.00158  -0.00080
 203        6D+1       -0.00554  -0.00920   0.00691   0.00554   0.00296
 204        6D-1       -0.00099  -0.00371   0.00278   0.00214   0.00095
 205        6D+2        0.00115   0.00596  -0.00463  -0.00396  -0.00231
 206        6D-2       -0.00472  -0.00582   0.00441   0.00339   0.00177
 207 17  C  1S         -0.00009  -0.00000  -0.00017  -0.00046  -0.00056
 208        2S          0.00024   0.00017   0.00078   0.00064   0.00154
 209        3S          0.00251  -0.01064   0.00204   0.00295  -0.01357
 210        4PX        -0.00277   0.04350  -0.03533  -0.03111  -0.01953
 211        4PY         0.00639  -0.13586   0.10461   0.08758   0.04587
 212        4PZ         0.00913  -0.16937   0.13114   0.10795   0.05725
 213        5PX        -0.00242   0.03482  -0.02492  -0.02288  -0.00874
 214        5PY         0.00462  -0.09745   0.07337   0.06457   0.03339
 215        5PZ         0.00624  -0.11980   0.09554   0.07644   0.04445
 216        6D 0        0.01096   0.00379  -0.00237  -0.00115   0.00015
 217        6D+1       -0.00382   0.00246  -0.00212  -0.00201  -0.00129
 218        6D-1       -0.00357   0.00005  -0.00025  -0.00057  -0.00061
 219        6D+2        0.00744   0.00018   0.00005   0.00014   0.00005
 220        6D-2        0.00063   0.00308  -0.00220  -0.00171  -0.00059
 221 18  C  1S         -0.00003   0.00131  -0.00019   0.00051   0.00216
 222        2S          0.00044  -0.00327   0.00087  -0.00166  -0.00500
 223        3S         -0.00092   0.00129   0.01176  -0.00907   0.00683
 224        4PX         0.04145   0.03601  -0.02121  -0.01045   0.00707
 225        4PY        -0.12423  -0.08766   0.06143   0.04136   0.01292
 226        4PZ        -0.15394  -0.10720   0.07543   0.05337   0.01904
 227        5PX         0.02877   0.02386  -0.01790  -0.00718   0.00151
 228        5PY        -0.08641  -0.06636   0.04385   0.03111   0.00465
 229        5PZ        -0.10833  -0.07299   0.05376   0.03810   0.01864
 230        6D 0        0.00313  -0.00899   0.00707   0.00616   0.00345
 231        6D+1        0.00606  -0.00345   0.00286   0.00285   0.00171
 232        6D-1        0.00142   0.00061  -0.00044  -0.00037  -0.00017
 233        6D+2       -0.00168  -0.00271   0.00196   0.00137   0.00045
 234        6D-2        0.00551  -0.00476   0.00421   0.00381   0.00288
[...]
 2984,-0.00006186,-0.06490952,0.09031492,0.07893621,-0.00000382,0.00002
 763,-0.00000464,0.00006974,0.00005946,-0.00017239,-0.00000950,-0.00000
 518,0.00002763,-0.00008743,-0.00005885,0.00010204,0.00000610,0.0000735
 3,-0.00001253,0.00000663,-0.00005750,0.00001241,0.00005808,0.00000205,
 -0.00000472,-0.00004136,0.00001345,0.00000960,0.00001369,-0.00000122,-
 0.00000514,-0.00000560,-0.00000115,-0.00000204,0.00001050,-0.00000244,
 0.00000167,-0.00003136,0.00000306,-0.00000242,-0.00000633,-0.00000376,
 -0.00000367,0.00000444,0.00000246,0.00000584,-0.00000230,0.00000036,0.
 00000071,0.00000014,-0.00000004,0.00000068,-0.00000128,0.00000045,-0.0
 0000023,0.00000055,0.00000018,0.00000023,-0.00000256,0.00000135,-0.000
 00027,0.00008069,-0.00102153,-0.00095999,-0.00504519,0.00155538,-0.001
 78401,-0.00430104,-0.02194068,-0.01936161,-0.08952602,-0.06471065,-0.0
 6395641,0.01033846,0.01451179,0.01304451,-0.00172643,0.00363252,0.0006
 3822,-0.00098361,0.00056677,0.00039319,-0.00000144,0.00002262,-0.00000
 246,-0.00000059,-0.00001706,0.00001111,-0.00000261,-0.00000153,0.00000
 054,-0.00000127,0.00000073,-0.00000048,0.00000098,0.00000045,-0.000001
 99,-0.00000013,-0.00000149,0.00000022,0.00000067,-0.00000145,-0.000000
 48,-0.00000036,-0.00000016,-0.00000073,-0.00000024,-0.00000021,-0.0000
 0033,-0.00000037,-0.00000043,-0.00000032,0.00000066,-0.00000022,-0.000
 00106,0.00003960,0.00004540,0.00002476,-0.00044432,-0.00007385,-0.0000
 7650,0.00086978,-0.00040893,0.00102171,0.08971503,0.00001006,0.0000060
 8,-0.00001351,-0.00003734,0.00000287,-0.00005002,-0.00001632,0.0000022
 0,-0.00002371,-0.00004052,-0.00005138,0.00003265,0.00000747,0.00004019
 ,-0.00000653,-0.00001226,-0.00003942,0.00001097,0.00002876,0.00000743,
 0.00000117,-0.00002146,0.00000208,0.00000567,0.00000803,-0.00000054,-0
 .00000342,-0.00000185,-0.00000041,-0.00000060,0.00000696,-0.00000136,-
 0.00000019,-0.00002055,-0.00000409,-0.00000163,-0.00000274,-0.00000013
 ,-0.00000200,0.00000338,0.00000050,0.00000350,-0.00000089,0.00000109,-
 0.00000031,0.00000008,-0.00000043,0.00000068,-0.00000083,0.00000005,0.
 00000004,0.00000026,0.00000015,0.00000021,-0.00000216,0.00000105,-0.00
 000049,0.00008733,0.00008433,-0.00001627,0.00114760,0.00408230,-0.0025
 0655,0.00236195,0.00343693,0.00009206,-0.06473435,-0.19124441,-0.13626
 643,-0.00981726,-0.00882843,-0.01250695,0.00424547,0.00069444,-0.00397
 986,0.00061265,-0.00009165,0.00080299,0.00000184,0.00001027,0.00000464
 ,-0.00000412,-0.00001244,0.00000641,-0.00000183,-0.00000098,0.00000070
 ,-0.00000069,0.00000045,-0.00000046,0.00000087,-0.00000012,-0.00000116
 ,-0.00000025,-0.00000106,0.00000027,0.00000029,-0.00000100,0.00000003,
 0.00000016,-0.00000001,-0.00000037,-0.00000035,-0.00000011,-0.00000028
 ,-0.00000051,-0.00000047,-0.00000013,0.00000066,-0.00000020,-0.0000005
 7,0.00000244,-0.00003474,0.00000608,-0.00005952,-0.00004672,0.00005077
 ,-0.00074971,-0.00112248,0.00233513,0.06823285,0.19493450,0.00001754,0
 .00002243,-0.00000542,0.00007579,0.00004535,-0.00010667,0.00003252,0.0
 0001583,0.00001002,-0.00006904,-0.00002764,0.00003961,0.00001396,0.000
 03226,-0.00000406,-0.00001538,-0.00002927,0.00000335,0.00005421,0.0000
 0903,0.00000100,-0.00003909,0.00001089,0.00000039,0.00001383,-0.000001
 57,-0.00000204,-0.00000585,-0.00000055,-0.00000288,0.00001340,-0.00000
 303,0.00000397,-0.00003387,-0.00000002,-0.00000461,-0.00000611,-0.0000
 0331,-0.00000128,0.00000798,0.00000189,0.00000492,-0.00000383,0.000000
 13,-0.00000025,0.00000036,-0.00000063,0.00000076,-0.00000174,0.0000005
 1,-0.00000068,0.00000092,0.00000050,-0.00000018,-0.00000367,0.00000061
 ,-0.00000042,0.00017342,-0.00034588,-0.00013568,-0.00252260,-0.0027190
 6,0.00497078,-0.00021236,-0.00593250,-0.00063349,-0.06410391,-0.135968
 76,-0.16182961,-0.00597213,-0.00657647,-0.00275514,0.00117782,-0.00412
 012,0.00420681,0.00027432,0.00081893,-0.00017213,0.00000184,0.00000877
 ,-0.00000187,0.00000215,0.00000019,0.00000131,-0.00000209,-0.00000125,
 0.00000064,-0.00000163,0.00000009,-0.00000136,0.00000131,-0.00000076,-
 0.00000066,0.00000061,0.00000049,-0.00000075,0.00000109,-0.00000149,0.
 00000055,-0.00000073,0.00000037,-0.00000081,-0.00000076,-0.00000012,-0
 .00000026,-0.00000043,-0.00000051,0.00000003,0.00000096,0.00000061,-0.
 00000109,-0.00002630,0.00003506,0.00001212,-0.00006938,0.00003694,-0.0
 0006987,0.00078869,0.00236519,-0.00227438,0.06983339,0.14983187,0.1617
 1864,0.00002708,0.00000668,-0.00003176,0.00004887,0.00005908,-0.000011
 90,0.00000676,0.00000571,-0.00002239,-0.00007309,-0.00005343,0.0000242
 1,0.00001220,0.00005887,-0.00000723,-0.00001766,-0.00006107,0.00001038
 ,0.00006153,0.00002160,0.00000524,-0.00004282,0.00000479,0.00000333,0.
 00001601,-0.00000060,-0.00000394,-0.00000496,-0.00000062,-0.00000228,0
 .00001469,-0.00000267,0.00000260,-0.00004065,-0.00000963,-0.00000510,-
 0.00000600,-0.00000159,-0.00000207,0.00000869,0.00000116,0.00000594,-0
 .00000315,0.00000129,-0.00000087,0.00000032,-0.00000099,0.00000109,-0.
 00000192,0.00000023,-0.00000044,0.00000082,0.00000041,-0.00000002,-0.0
 0000453,0.00000120,-0.00000095,-0.00006250,-0.00012877,0.00008849,0.00
 068546,0.00005593,0.00051618,-0.00018546,0.00381345,0.00114349,-0.0129
 3871,-0.00357557,-0.00697015,-0.32620512,-0.00152813,-0.07511575,-0.00
 534132,0.00280996,0.00002411,0.00155320,-0.00088915,-0.00221002,0.0000
 0324,0.00001710,0.00000433,-0.00000583,0.00000040,0.00001179,-0.000003
 04,-0.00000151,0.00000123,-0.00000178,0.00000046,-0.00000164,0.0000018
 0,-0.00000105,-0.00000128,0.00000030,-0.00000027,-0.00000029,0.0000009
 3,-0.00000181,0.00000064,-0.00000024,0.00000035,-0.00000076,-0.0000009
 2,-0.00000010,-0.00000037,-0.00000088,-0.00000076,0.00000004,0.0000013
 2,0.00000036,-0.00000102,0.00003708,-0.00001701,0.00001789,-0.00000315
 ,-0.00002124,0.00000309,-0.00070594,-0.00014060,-0.00034754,0.00066243
 ,-0.00060595,0.00075434,0.34233458,0.00003494,-0.00001525,-0.00002114,
 -0.00003382,0.00005870,-0.00005434,-0.00002618,-0.00001372,0.00005422,
 -0.00002103,0.00000397,0.00005016,-0.00001061,0.00001060,-0.00000311,0
 .00000488,0.00000223,0.00000969,0.00000421,0.00000055,-0.00000810,-0.0
 0000044,-0.00000012,0.00000331,-0.00000049,0.00000097,-0.00000120,0.00
 000022,-0.00000035,0.00000024,-0.00000079,0.00000039,-0.00000061,0.000
 00018,-0.00000131,0.00000143,0.00000013,0.00000015,-0.00000063,-0.0000
 0090,-0.00000004,0.00000011,0.00000056,0.00000011,0.00000010,-0.000000
 07,0.00000009,-0.00000007,0.00000018,-0.00000015,0.00000014,-0.0000000
 4,-0.00000011,0.00000003,0.00000020,0.00000019,-0.00000016,-0.00027319
 ,-0.00028357,0.00046202,0.00012639,-0.00121936,-0.00013672,0.00309072,
 -0.00009369,-0.00484901,0.02070786,0.00446754,0.00608875,-0.00155689,-
 0.05037548,-0.01075597,-0.02135199,0.00407267,-0.00499581,-0.00022602,
 0.00002592,-0.00595977,0.00000290,0.00001940,0.00000208,-0.00000969,0.
 00000218,0.00000984,-0.00000038,0.00000014,0.00000017,0.00000026,0.000
 00027,0.00000012,-0.00000021,0.00000018,-0.00000015,-0.00000019,-0.000
 00037,0.00000035,-0.00000026,0.00000005,-0.00000017,0.00000021,-0.0000
 0011,0.00000012,0.00000010,0.00000005,0.,-0.00000010,0.00000003,0.,0.,
 -0.00000015,0.00000016,0.00000588,-0.00005177,-0.00007004,0.00007352,0
 .00006971,0.00005776,0.00102540,0.00011424,0.00019327,-0.00095800,-0.0
 0088378,0.00233052,0.00067862,0.04496534,0.00003099,-0.00000683,-0.000
 00760,0.00004940,-0.00007181,0.00004478,-0.00000617,-0.00000712,-0.000
 00604,0.00001652,0.00002764,-0.00003157,0.00004359,-0.00006630,0.00000
 869,-0.00007115,0.00003653,-0.00000623,0.00000853,0.00000350,0.0000053
 8,-0.00001014,0.00000352,-0.00000251,0.00000321,-0.00000113,0.00000081
 ,-0.00000141,0.00000015,-0.00000099,0.00000596,-0.00000117,0.00000158,
 -0.00000944,0.00000336,-0.00000193,-0.00000173,-0.00000116,0.00000021,
 0.00000311,0.00000061,0.00000129,-0.00000153,-0.00000005,-0.00000026,0
 .00000017,-0.00000033,0.00000022,-0.00000058,0.00000017,-0.00000036,0.
 00000038,0.00000025,-0.00000021,-0.00000125,-0.00000010,-0.00000001,0.
 00032217,0.00053233,-0.00048366,0.00034263,-0.00016392,-0.00102383,0.0
 0063895,-0.00464944,0.00354270,0.01219448,0.00002835,0.00655251,-0.074
 95372,-0.01071931,-0.06511461,-0.01945217,0.00098120,-0.00058666,-0.00
 154893,-0.00613445,0.00198433,0.00000969,0.00002547,-0.00000247,0.,0.0
 0000630,-0.00000139,-0.00000034,-0.00000036,0.00000027,-0.00000051,-0.
 00000005,-0.00000058,0.00000029,-0.00000029,0.00000003,0.00000026,0.00
 000053,-0.00000047,0.00000044,-0.00000045,0.00000037,-0.00000033,0.000
 00028,-0.00000026,-0.00000037,0.,-0.00000003,-0.00000008,-0.00000016,0
 .00000012,0.00000032,0.00000040,-0.00000039,-0.00010900,0.00012423,0.0
 0008470,0.00003773,-0.00004566,-0.00000177,0.00053806,-0.00008916,0.00
 027503,0.00046504,0.00239802,-0.00212392,0.08143765,0.01537738,0.05898
 887,-0.00005937,0.00004252,0.00002692,-0.00000140,0.00016226,-0.000230
 89,-0.00000316,-0.00000033,0.00000352,-0.00014326,-0.00017093,0.000118
 85,-0.00004835,0.00018997,-0.00002787,0.00008153,-0.00015812,0.0000203
 5,0.00008336,0.00003296,0.00000644,-0.00004869,-0.00000078,0.00000266,
 0.00001793,0.00000152,-0.00000331,-0.00000641,-0.00000082,-0.00000249,
 0.00001151,-0.00000226,0.00000484,-0.00004959,-0.00002320,-0.00001004,
 -0.00000685,-0.00000224,-0.00000258,0.00000824,0.00000104,0.00000572,-
 0.00000285,0.00000091,-0.00000115,0.00000036,-0.00000110,0.00000066,-0
 .00000191,0.,-0.00000073,0.00000077,-0.00000004,-0.00000025,-0.0000042
 2,0.00000096,-0.00000147,-0.00024927,0.00104678,0.00064254,-0.00439547
 ,-0.00057113,-0.00325182,-0.00036329,-0.00087415,-0.00055768,0.0005942
 2,-0.00108002,-0.00255998,0.00995804,-0.00875408,-0.00555576,-0.170426
 82,0.12441502,0.06675986,-0.01228568,0.02131216,0.01310155,0.00000284,
 0.00002618,-0.00003116,-0.00000028,-0.00001046,0.00002163,-0.00000380,
 -0.00000111,0.00000091,-0.00000308,0.00000044,-0.00000239,0.00000197,-
 0.00000153,-0.00000134,0.00000050,0.,-0.00000023,0.00000083,-0.0000014
 0,0.00000095,-0.00000037,0.00000051,-0.00000043,-0.00000088,0.00000010
 ,-0.00000008,-0.00000099,-0.00000045,0.00000027,0.00000115,0.00000057,
 -0.00000045,-0.00034569,-0.00001367,-0.00003042,0.00003463,-0.00005895
 ,-0.00002016,-0.00003570,-0.00005833,0.00021829,0.00033225,-0.00043879
 ,-0.00028328,0.00052992,-0.00030580,0.00097830,0.17597506,-0.00003998,
 -0.00001737,0.00000627,-0.00000024,0.00001495,0.00000341,0.00001024,0.
 00000179,0.00001997,0.00005159,0.00002715,-0.00000218,-0.00002344,0.00
 000241,-0.00000120,0.00004856,0.00001579,0.00000440,-0.00003965,-0.000
 00842,-0.00000552,0.00002958,-0.00000659,0.00000091,-0.00001055,0.0000
 0148,0.00000127,0.00000396,-0.00000007,0.00000194,-0.00001156,0.000002
 64,-0.00000342,0.00002861,0.00000192,0.00000458,0.00000417,0.00000145,
 0.00000068,-0.00000665,-0.00000093,-0.00000365,0.00000273,-0.00000046,
 0.00000074,-0.00000029,0.00000079,-0.00000061,0.00000137,-0.00000024,0
 .00000056,-0.00000069,-0.00000039,0.00000020,0.00000311,-0.00000040,0.
 00000043,-0.00026127,0.00001595,-0.00012178,0.00032158,0.00375137,-0.0
 0277506,-0.00081968,-0.00013308,0.00045502,-0.00171581,0.00073107,-0.0
 0575359,0.01529570,-0.00870270,-0.00637265,0.12440381,-0.18195992,-0.0
 8445453,-0.00283361,0.00405572,-0.00054887,-0.00000279,-0.00000528,-0.
 00000930,-0.00000177,0.00000202,0.00000394,0.00000176,0.00000098,-0.00
 000053,0.00000153,0.00000007,0.00000128,-0.00000109,0.00000079,0.00000
 047,-0.00000044,-0.00000037,0.00000067,-0.00000081,0.00000109,-0.00000
 074,0.00000043,-0.00000047,0.00000051,0.00000076,0.00000003,0.00000016
 ,0.00000045,0.00000046,-0.00000014,-0.00000085,-0.00000053,0.00000079,
 -0.00003318,-0.00002059,-0.00001820,0.00001707,-0.00000067,0.00001886,
 -0.00006736,-0.00041157,0.00052160,0.00070768,-0.00051065,-0.00032834,
 -0.00065502,-0.00099005,0.00249909,-0.13394112,0.18532974,0.00002981,0
 .00000487,0.00001627,-0.00004083,-0.00004735,0.00001898,-0.00001871,-0
 .00000502,-0.00001565,-0.00001970,0.00000913,-0.00001105,0.00001123,-0
 .00005498,0.00000603,-0.00004100,0.00002311,-0.00002166,-0.00000153,-0
 .00000878,0.00000439,-0.00000023,0.00000516,-0.00000328,-0.00000094,-0
 .00000112,0.00000130,-0.00000073,0.00000057,-0.00000024,0.00000023,-0.
 00000066,0.00000186,0.00000124,0.00000591,-0.00000113,-0.00000001,-0.0
 0000058,0.00000051,-0.00000032,0.00000029,-0.00000060,-0.00000030,-0.0
 0000060,0.00000015,0.00000004,0.00000010,-0.00000025,0.00000006,0.0000
 0013,-0.00000022,0.,0.00000001,-0.00000009,0.00000050,-0.00000041,0.00
 000038,-0.00004879,0.00029837,0.00028747,-0.00313930,-0.00276422,0.004
 27735,-0.00059876,0.00040540,-0.00083135,-0.00308274,-0.00558694,0.002
 03234,0.01389097,-0.01234673,-0.00243565,0.06673217,-0.08470618,-0.089
 88311,-0.00616864,0.00548056,0.00665830,-0.00001349,-0.00001747,0.0000
 2131,0.00001113,-0.00000555,-0.00001704,0.00000045,0.00000005,-0.00000
 059,-0.00000042,-0.00000039,0.00000002,-0.00000019,0.00000018,0.000000
 23,0.00000019,0.00000028,-0.00000042,0.00000014,0.00000028,0.00000009,
 -0.00000032,0.00000013,0.00000003,0.00000004,0.,0.00000012,0.00000027,
 0.00000014,0.00000003,-0.00000022,0.00000013,-0.00000007,-0.00001899,0
 .00003468,-0.00000259,0.00000911,-0.00000657,-0.00003908,0.00021774,0.
 00049455,-0.00061734,0.00063901,-0.00065543,-0.00019581,0.00070788,0.0
 0257279,-0.00201923,-0.07002487,0.09456395,0.08481833,-0.00013886,-0.0
 0002158,0.00003667,-0.00022485,0.00016150,0.00001016,0.00004905,0.0000
 1252,-0.00004428,0.00002605,-0.00001355,-0.00001101,-0.00010253,0.0000
 6378,0.00000908,0.00012512,-0.00000307,-0.00004478,-0.00008629,-0.0000
 3402,-0.00000064,0.00006127,-0.00000765,-0.00000435,-0.00002193,0.0000
 0114,0.00000269,0.00000730,0.00000086,0.00000365,-0.00002392,0.0000037
 9,-0.00000511,0.00005876,0.00000825,0.00000716,0.00000956,0.00000392,0
 .00000317,-0.00001239,-0.00000231,-0.00000852,0.00000494,-0.00000113,0
 .00000105,-0.00000053,0.00000137,-0.00000121,0.00000276,-0.00000031,0.
 00000098,-0.00000133,-0.00000047,0.00000032,0.00000618,-0.00000134,0.0
 0000130,0.00114145,0.00008933,0.00208665,0.00872170,0.01313042,0.01201
 997,-0.00178729,0.00364163,0.00063130,-0.00095816,0.00045727,0.0003825
 4,-0.00509880,0.00164109,-0.00191008,-0.00440558,-0.02154925,-0.019592
 82,-0.08668704,-0.06072278,-0.06353976,-0.00021240,-0.00020334,0.00028
 806,0.00005564,-0.00001641,-0.00005185,0.00000444,0.00000190,-0.000001
 83,0.00000274,-0.00000087,0.00000263,-0.00000215,0.00000129,0.00000167
 ,-0.00000050,0.00000005,0.00000056,-0.00000138,0.00000238,-0.00000100,
 0.00000066,-0.00000066,0.00000096,0.00000132,0.,0.00000032,0.00000115,
 0.00000085,-0.00000022,-0.00000174,-0.00000080,0.00000135,0.00010547,-
 0.00011836,-0.00019756,-0.00001881,-0.00019378,-0.00048078,0.00041073,
 0.00071882,0.00067082,0.00001471,-0.00018886,0.00013373,-0.00035756,-0
 .00098028,-0.00095899,0.00085227,-0.00046682,0.00096883,0.08848077,0.0
 0015975,-0.00021141,-0.00007563,-0.00012684,0.00039076,-0.00017139,-0.
 00007962,-0.00004307,0.00017242,-0.00005738,-0.00004438,0.00009362,0.0
 0000661,0.00005257,0.00001659,-0.00005716,-0.00005735,-0.00001242,0.00
 004746,0.00001174,0.00000236,-0.00002997,0.00000609,0.00001176,0.00001
 018,0.00000056,-0.00000799,-0.00000185,-0.00000149,-0.00000120,0.00000
 818,-0.00000147,-0.00000092,-0.00002325,-0.00000456,-0.00000037,-0.000
 00329,-0.00000185,-0.00000175,0.00000390,0.00000124,0.00000425,-0.0000
 0134,0.00000125,0.00000018,0.00000007,-0.00000020,0.00000093,-0.000000
 92,0.00000012,0.00000011,0.00000041,0.00000024,0.00000015,-0.00000240,
 0.00000112,-0.00000047,-0.00242125,-0.00143975,0.00161577,-0.00860326,
 -0.00954585,-0.01331129,0.00423656,0.00069412,-0.00394584,0.00061285,-
 0.00019358,0.00076310,0.00077991,0.00400509,-0.00255577,0.00224616,0.0
 0309485,0.00036657,-0.06088767,-0.18114493,-0.13505902,-0.00026973,0.0
 0012740,0.00015463,-0.00004410,0.00002339,0.00007429,-0.00000226,-0.00
 000102,0.00000153,-0.00000006,0.00000158,-0.00000063,0.00000068,0.0000
 0006,-0.00000147,-0.00000038,-0.00000099,0.00000066,0.00000032,-0.0000
 0153,-0.00000050,0.00000022,-0.00000020,-0.00000061,-0.00000036,-0.000
 00015,-0.00000040,-0.00000057,-0.00000053,-0.00000013,0.00000080,-0.00
 000016,-0.00000066,0.00026688,0.00013594,0.00015194,0.00091014,0.00041
 612,0.00057171,-0.00046583,-0.00056997,-0.00067631,-0.00019386,-0.0004
 2991,0.00049285,0.00015988,0.00011370,-0.00009005,-0.00076309,-0.00118
 891,0.00230821,0.06458550,0.18580533,0.00050786,-0.00026502,-0.0003331
 3,0.00049991,-0.00059642,0.00038284,-0.00006191,0.00005761,0.00003167,
 0.00011469,0.00040752,-0.00021406,0.00031930,-0.00061629,0.00010246,-0
 .00069951,0.00038343,-0.00000513,0.00004026,0.00002918,0.00001056,-0.0
 0005481,0.00002479,-0.00000925,0.00001083,-0.00000479,0.00000327,-0.00
 000713,0.00000098,-0.00000332,0.00002739,-0.00000388,0.00000612,-0.000
 03800,0.00002231,-0.00000525,-0.00000886,-0.00000429,-0.00000273,0.000
 01049,0.00000309,0.00000723,-0.00000530,-0.00000007,-0.00000009,0.0000
 0045,-0.00000071,0.00000084,-0.00000238,0.00000071,-0.00000094,0.00000
 130,0.00000091,-0.00000025,-0.00000483,0.00000085,0.00000006,-0.000054
 68,0.00306251,-0.00198630,-0.00670590,-0.00671806,-0.00392589,0.001161
 17,-0.00380769,0.00395391,0.00048135,0.00070314,-0.00025493,-0.0024685
 8,-0.00221766,0.00468361,0.00004305,-0.00568447,-0.00125498,-0.0636445
 6,-0.13619708,-0.16620900,0.00034199,0.00038815,-0.00000763,-0.0000623
 7,0.00005424,0.00003593,-0.00000249,-0.00000200,0.00000056,-0.00000291
 ,-0.00000025,-0.00000170,0.00000129,-0.00000009,-0.00000102,0.00000078
 ,-0.00000007,-0.00000141,0.00000147,-0.00000186,0.00000065,-0.00000106
 ,0.00000057,-0.00000109,-0.00000102,-0.00000016,-0.00000039,-0.0000004
 5,-0.00000079,-0.00000007,0.00000135,0.00000066,-0.00000192,-0.0003864
 4,0.00008508,0.00028703,0.00055142,-0.00015448,0.00016009,-0.00027467,
 -0.00044465,-0.00020560,0.00012190,0.00045300,-0.00064957,-0.00002615,
 -0.00035777,-0.00007495,0.00068659,0.00228861,-0.00204902,0.06958916,0
 .14911122,0.16753275\\-0.00236908,-0.00401058,-0.00015177,-0.01414016,
 -0.01138092,-0.00179936,0.00265297,-0.00149980,0.00201592,0.00739855,0
 .00386153,-0.00112633,0.00080599,0.03088532,-0.00198563,0.01484087,-0.
 01704605,0.00393627,-0.00079994,0.03088844,0.00198228,-0.00738919,0.00
 386127,0.00112596,0.01412158,-0.01138589,0.00180874,-0.00264926,-0.001
 49674,-0.00202012,0.00237883,-0.00401278,0.00015009,-0.01484834,-0.017
 03185,-0.00393871,-0.00130756,-0.00050128,-0.00297037,0.00114514,0.001
 10715,0.00146645,-0.00156392,-0.00190394,0.00143876,0.00009363,0.00069
 325,-0.00053200,-0.00016919,0.00008240,-0.00009599,0.00037644,0.000185
 83,-0.00016830,-0.00059135,0.00032633,-0.00004214,0.00130052,-0.000494
 79,0.00298833,-0.00113807,0.00111592,-0.00146024,0.00155937,-0.0019101
 4,-0.00144399,-0.00009623,0.00069572,0.00053240,0.00016944,0.00007966,
 0.00009489,-0.00037360,0.00018778,0.00017164,0.00059293,0.00032707,0.0
 0004225,0.00071377,-0.00101718,0.00003917,0.00078454,-0.00040626,0.000
 29029,-0.00071569,-0.00101730,-0.00003855,-0.00078572,-0.00040501,-0.0
 0028812,-0.00030730,-0.00083540,0.00232960,0.00048505,0.00124703,-0.00
 024163,-0.00111391,-0.00001992,-0.00050028,-0.00030308,-0.00002718,-0.
 00013498,0.00002216,0.00008131,-0.00006312,-0.00003091,-0.00003173,-0.
 00005747,0.00018596,0.00019880,-0.00036724,0.00030909,-0.00083081,-0.0
 0234168,-0.00048637,0.00124391,0.00023614,0.00111835,-0.00002251,0.000
 49906,0.00030380,-0.00002683,0.00013571,-0.00002302,0.00008148,0.00006
 233,0.00002983,-0.00003251,0.00005629,-0.00018690,0.00019718,0.0003654
 6\\\@

 Writing a WFNX file to "10_sub.wfx"


 ALMOST ANYTHING IS EASIER TO GET INTO THAN OUT OF.

                         -- AGNES ALLEN'S LAW FROM
                PAUL DICKSON'S "THE OFFICIAL RULES"
 Job cpu time:       0 days  3 hours 25 minutes 31.2 seconds.
 Elapsed time:       0 days  0 hours 25 minutes 41.8 seconds.
 File lengths (MBytes):  RWF=    923 Int=      0 D2E=      0 Chk=     14 Scr=      1
 Normal termination of Gaussian 16 at Mon Jan 23 09:12:41 2023.
