 Entering Gaussian System, Link 0=g16
 Initial command:
 /software/gaussian/G16-A.03/avx/g16/l1.exe "/scratch/lcmd/1393751.slurm/Gau-171230.inp" -scrdir="/scratch/lcmd/1393751.slurm/"
 Entering Link 1 = /software/gaussian/G16-A.03/avx/g16/l1.exe PID=    171232.
  
 Copyright (c) 1988,1990,1992,1993,1995,1998,2003,2009,2016,
            Gaussian, Inc.  All Rights Reserved.
  
 This is part of the Gaussian(R) 16 program.  It is based on
 the Gaussian(R) 09 system (copyright 2009, Gaussian, Inc.),
 the Gaussian(R) 03 system (copyright 2003, Gaussian, Inc.),
 the Gaussian(R) 98 system (copyright 1998, Gaussian, Inc.),
 the Gaussian(R) 94 system (copyright 1995, Gaussian, Inc.),
 the Gaussian 92(TM) system (copyright 1992, Gaussian, Inc.),
 the Gaussian 90(TM) system (copyright 1990, Gaussian, Inc.),
 the Gaussian 88(TM) system (copyright 1988, Gaussian, Inc.),
 the Gaussian 86(TM) system (copyright 1986, Carnegie Mellon
 University), and the Gaussian 82(TM) system (copyright 1983,
 Carnegie Mellon University). Gaussian is a federally registered
 trademark of Gaussian, Inc.
  
 This software contains proprietary and confidential information,
 including trade secrets, belonging to Gaussian, Inc.
  
 This software is provided under written license and may be
 used, copied, transmitted, or stored only in accord with that
 written license.
  
 The following legend is applicable only to US Government
 contracts under FAR:
  
                    RESTRICTED RIGHTS LEGEND
  
 Use, reproduction and disclosure by the US Government is
 subject to restrictions as set forth in subparagraphs (a)
 and (c) of the Commercial Computer Software - Restricted
 Rights clause in FAR 52.227-19.
  
 Gaussian, Inc.
 340 Quinnipiac St., Bldg. 40, Wallingford CT 06492
  
  
 ---------------------------------------------------------------
 Warning -- This program may not be used in any manner that
 competes with the business of Gaussian, Inc. or will provide
 assistance to any competitor of Gaussian, Inc.  The licensee
 of this program is prohibited from giving any competitor of
 Gaussian, Inc. access to this program.  By using this program,
 the user acknowledges that Gaussian, Inc. is engaged in the
 business of creating and licensing software in the field of
 computational chemistry and represents and warrants to the
 licensee that it is not a competitor of Gaussian, Inc. and that
 it will not use this program in any manner prohibited above.
 ---------------------------------------------------------------
  

 Cite this work as:
 Gaussian 16, Revision A.03,
 M. J. Frisch, G. W. Trucks, H. B. Schlegel, G. E. Scuseria, 
 M. A. Robb, J. R. Cheeseman, G. Scalmani, V. Barone, 
 G. A. Petersson, H. Nakatsuji, X. Li, M. Caricato, A. V. Marenich, 
 J. Bloino, B. G. Janesko, R. Gomperts, B. Mennucci, H. P. Hratchian, 
 J. V. Ortiz, A. F. Izmaylov, J. L. Sonnenberg, D. Williams-Young, 
 F. Ding, F. Lipparini, F. Egidi, J. Goings, B. Peng, A. Petrone, 
 T. Henderson, D. Ranasinghe, V. G. Zakrzewski, J. Gao, N. Rega, 
 G. Zheng, W. Liang, M. Hada, M. Ehara, K. Toyota, R. Fukuda, 
 J. Hasegawa, M. Ishida, T. Nakajima, Y. Honda, O. Kitao, H. Nakai, 
 T. Vreven, K. Throssell, J. A. Montgomery, Jr., J. E. Peralta, 
 F. Ogliaro, M. J. Bearpark, J. J. Heyd, E. N. Brothers, K. N. Kudin, 
 V. N. Staroverov, T. A. Keith, R. Kobayashi, J. Normand, 
 K. Raghavachari, A. P. Rendell, J. C. Burant, S. S. Iyengar, 
 J. Tomasi, M. Cossi, J. M. Millam, M. Klene, C. Adamo, R. Cammi, 
 J. W. Ochterski, R. L. Martin, K. Morokuma, O. Farkas, 
 J. B. Foresman, and D. J. Fox, Gaussian, Inc., Wallingford CT, 2016.
 
 ******************************************
 Gaussian 16:  ES64L-G16RevA.03 25-Dec-2016
                23-Jan-2023 
 ******************************************
 %nprocs=8
 Will use up to    8 processors via shared memory.
 %mem=32000MB
 %chk=26_sub.chk
 ----------------------------------------------------------------------
 #p pop=(regular,nbo,savenbos) freq=noraman def2svp empiricaldispersion
 =gd3bj output=wfx pbe1pbe
 ----------------------------------------------------------------------
 1/10=4,30=1,38=1/1,3;
 2/12=2,17=6,18=5,40=1/2;
 3/5=43,7=101,11=2,25=1,30=1,71=2,74=-13,124=41,140=1/1,2,3;
 4//1;
 5/5=2,38=5,98=1/2;
 8/6=4,10=90,11=11/1;
 11/6=1,8=1,9=11,15=111,16=1/1,2,10;
 10/6=1/2;
 6/28=1,40=1,73=1/1,7;
 7/8=1,10=1,25=1/1,2,3,16;
 1/10=4,30=1/3;
 99/6=200/99;
 Leave Link    1 at Mon Jan 23 08:46:55 2023, MaxMem=  4194304000 cpu:               0.4 elap:               0.1
 (Enter /software/gaussian/G16-A.03/avx/g16/l101.exe)
 ------
 26_sub
 ------
 Symbolic Z-matrix:
 Charge =  0 Multiplicity = 1
 C                    -3.03226   1.67975  -0.87263 
 C                    -2.95203   0.13789  -0.64732 
 H                    -3.28736  -0.41193  -1.54249 
 N                    -1.52483  -0.1314   -0.44547 
 C                    -0.97157   1.00592  -0.28327 
 N                    -1.75494   2.12308  -0.33063 
 C                    -1.13877   3.40707  -0.56166 
 C                     0.0857    3.56596   0.34116 
 N                     0.93411   2.40391   0.24066 
 C                     0.44985   1.17368  -0.00482 
 N                     1.27842   0.19659   0.062 
 C                     2.55494   0.72119   0.55053 
 H                     2.68698   0.312     1.5692 
 C                     2.3357    2.26864   0.60988 
 C                     3.75654   0.28962  -0.29059 
 C                     5.0416    0.83083   0.32722 
 C                     3.8092   -1.22528  -0.44233 
 C                    -3.78206  -0.35082   0.55199 
 C                    -5.27157  -0.21436   0.25721 
 C                    -3.42393  -1.78259   0.9297 
 H                    -3.87739   2.14566  -0.3441 
 H                    -3.10862   1.93867  -1.94562 
 H                    -1.85768   4.2057   -0.32696 
 H                    -0.84287   3.52842  -1.62406 
 H                    -0.23696   3.72653   1.38759 
 H                     0.65054   4.45727   0.02724 
 H                     2.97924   2.80391  -0.1106 
 H                     2.52509   2.68536   1.61207 
 H                     3.62661   0.73675  -1.29406 
 H                     5.1972    0.40609   1.33281 
 H                     5.04007   1.92844   0.42252 
 H                     5.91226   0.5566   -0.28635 
 H                     3.79459  -1.72019   0.54311 
 H                     4.73538  -1.52677  -0.95462 
 H                     2.96348  -1.60772  -1.03293 
 H                    -3.52733   0.30533   1.40579 
 H                    -5.56389  -0.87536  -0.57555 
 H                    -5.56353   0.81279  -0.01307 
 H                    -5.86836  -0.5044    1.13471 
 H                    -3.55771  -2.45981   0.06964 
 H                    -4.07923  -2.13846   1.73936 
 H                    -2.38341  -1.86634   1.2739 
 
 ITRead=  0  0  0  0  0  0  0  0  0  0  0  0  0  0  0  0  0  0  0  0
 ITRead=  0  0  0  0  0  0  0  0  0  0  0  0  0  0  0  0  0  0  0  0
 ITRead=  0  0
 MicOpt= -1 -1 -1 -1 -1 -1 -1 -1 -1 -1 -1 -1 -1 -1 -1 -1 -1 -1 -1 -1
 MicOpt= -1 -1 -1 -1 -1 -1 -1 -1 -1 -1 -1 -1 -1 -1 -1 -1 -1 -1 -1 -1
 MicOpt= -1 -1
 NAtoms=     42 NQM=       42 NQMF=       0 NMMI=      0 NMMIF=      0
                NMic=       0 NMicF=      0.
                    Isotopes and Nuclear Properties:
 (Nuclear quadrupole moments (NQMom) in fm**2, nuclear magnetic moments (NMagM)
  in nuclear magnetons)

  Atom         1           2           3           4           5           6           7           8           9          10
 IAtWgt=          12          12           1          14          12          14          12          12          14          12
 AtmWgt=  12.0000000  12.0000000   1.0078250  14.0030740  12.0000000  14.0030740  12.0000000  12.0000000  14.0030740  12.0000000
 NucSpn=           0           0           1           2           0           2           0           0           2           0
 AtZEff=  -0.0000000  -0.0000000  -0.0000000  -0.0000000  -0.0000000  -0.0000000  -0.0000000  -0.0000000  -0.0000000  -0.0000000
 NQMom=    0.0000000   0.0000000   0.0000000   2.0440000   0.0000000   2.0440000   0.0000000   0.0000000   2.0440000   0.0000000
 NMagM=    0.0000000   0.0000000   2.7928460   0.4037610   0.0000000   0.4037610   0.0000000   0.0000000   0.4037610   0.0000000
 AtZNuc=   6.0000000   6.0000000   1.0000000   7.0000000   6.0000000   7.0000000   6.0000000   6.0000000   7.0000000   6.0000000

  Atom        11          12          13          14          15          16          17          18          19          20
 IAtWgt=          14          12           1          12          12          12          12          12          12          12
 AtmWgt=  14.0030740  12.0000000   1.0078250  12.0000000  12.0000000  12.0000000  12.0000000  12.0000000  12.0000000  12.0000000
 NucSpn=           2           0           1           0           0           0           0           0           0           0
 AtZEff=  -0.0000000  -0.0000000  -0.0000000  -0.0000000  -0.0000000  -0.0000000  -0.0000000  -0.0000000  -0.0000000  -0.0000000
 NQMom=    2.0440000   0.0000000   0.0000000   0.0000000   0.0000000   0.0000000   0.0000000   0.0000000   0.0000000   0.0000000
 NMagM=    0.4037610   0.0000000   2.7928460   0.0000000   0.0000000   0.0000000   0.0000000   0.0000000   0.0000000   0.0000000
 AtZNuc=   7.0000000   6.0000000   1.0000000   6.0000000   6.0000000   6.0000000   6.0000000   6.0000000   6.0000000   6.0000000

  Atom        21          22          23          24          25          26          27          28          29          30
 IAtWgt=           1           1           1           1           1           1           1           1           1           1
 AtmWgt=   1.0078250   1.0078250   1.0078250   1.0078250   1.0078250   1.0078250   1.0078250   1.0078250   1.0078250   1.0078250
 NucSpn=           1           1           1           1           1           1           1           1           1           1
 AtZEff=  -0.0000000  -0.0000000  -0.0000000  -0.0000000  -0.0000000  -0.0000000  -0.0000000  -0.0000000  -0.0000000  -0.0000000
 NQMom=    0.0000000   0.0000000   0.0000000   0.0000000   0.0000000   0.0000000   0.0000000   0.0000000   0.0000000   0.0000000
 NMagM=    2.7928460   2.7928460   2.7928460   2.7928460   2.7928460   2.7928460   2.7928460   2.7928460   2.7928460   2.7928460
 AtZNuc=   1.0000000   1.0000000   1.0000000   1.0000000   1.0000000   1.0000000   1.0000000   1.0000000   1.0000000   1.0000000

  Atom        31          32          33          34          35          36          37          38          39          40
 IAtWgt=           1           1           1           1           1           1           1           1           1           1
 AtmWgt=   1.0078250   1.0078250   1.0078250   1.0078250   1.0078250   1.0078250   1.0078250   1.0078250   1.0078250   1.0078250
 NucSpn=           1           1           1           1           1           1           1           1           1           1
 AtZEff=  -0.0000000  -0.0000000  -0.0000000  -0.0000000  -0.0000000  -0.0000000  -0.0000000  -0.0000000  -0.0000000  -0.0000000
 NQMom=    0.0000000   0.0000000   0.0000000   0.0000000   0.0000000   0.0000000   0.0000000   0.0000000   0.0000000   0.0000000
 NMagM=    2.7928460   2.7928460   2.7928460   2.7928460   2.7928460   2.7928460   2.7928460   2.7928460   2.7928460   2.7928460
 AtZNuc=   1.0000000   1.0000000   1.0000000   1.0000000   1.0000000   1.0000000   1.0000000   1.0000000   1.0000000   1.0000000

  Atom        41          42
 IAtWgt=           1           1
 AtmWgt=   1.0078250   1.0078250
 NucSpn=           1           1
 AtZEff=  -0.0000000  -0.0000000
 NQMom=    0.0000000   0.0000000
 NMagM=    2.7928460   2.7928460
 AtZNuc=   1.0000000   1.0000000
 Leave Link  101 at Mon Jan 23 08:46:55 2023, MaxMem=  4194304000 cpu:               1.0 elap:               0.1
 (Enter /software/gaussian/G16-A.03/avx/g16/l103.exe)

 GradGradGradGradGradGradGradGradGradGradGradGradGradGradGradGradGradGrad
 Berny optimization.
 Initialization pass.
 Trust Radius=3.00D-01 FncErr=1.00D-07 GrdErr=1.00D-07 EigMax=2.50D+02 EigMin=1.00D-04
 Number of steps in this run=      2 maximum allowed number of steps=      2.
 GradGradGradGradGradGradGradGradGradGradGradGradGradGradGradGradGradGrad

 Leave Link  103 at Mon Jan 23 08:46:55 2023, MaxMem=  4194304000 cpu:               0.2 elap:               0.0
 (Enter /software/gaussian/G16-A.03/avx/g16/l202.exe)
                          Input orientation:                          
 ---------------------------------------------------------------------
 Center     Atomic      Atomic             Coordinates (Angstroms)
 Number     Number       Type             X           Y           Z
 ---------------------------------------------------------------------
      1          6           0       -3.032260    1.679750   -0.872630
      2          6           0       -2.952030    0.137890   -0.647320
      3          1           0       -3.287360   -0.411930   -1.542490
      4          7           0       -1.524830   -0.131400   -0.445470
      5          6           0       -0.971570    1.005920   -0.283270
      6          7           0       -1.754940    2.123080   -0.330630
      7          6           0       -1.138770    3.407070   -0.561660
      8          6           0        0.085700    3.565960    0.341160
      9          7           0        0.934110    2.403910    0.240660
     10          6           0        0.449850    1.173680   -0.004820
     11          7           0        1.278420    0.196590    0.062000
     12          6           0        2.554940    0.721190    0.550530
     13          1           0        2.686980    0.312000    1.569200
     14          6           0        2.335700    2.268640    0.609880
     15          6           0        3.756540    0.289620   -0.290590
     16          6           0        5.041600    0.830830    0.327220
     17          6           0        3.809200   -1.225280   -0.442330
     18          6           0       -3.782060   -0.350820    0.551990
     19          6           0       -5.271570   -0.214360    0.257210
     20          6           0       -3.423930   -1.782590    0.929700
     21          1           0       -3.877390    2.145660   -0.344100
     22          1           0       -3.108620    1.938670   -1.945620
     23          1           0       -1.857680    4.205700   -0.326960
     24          1           0       -0.842870    3.528420   -1.624060
     25          1           0       -0.236960    3.726530    1.387590
     26          1           0        0.650540    4.457270    0.027240
     27          1           0        2.979240    2.803910   -0.110600
     28          1           0        2.525090    2.685360    1.612070
     29          1           0        3.626610    0.736750   -1.294060
     30          1           0        5.197200    0.406090    1.332810
     31          1           0        5.040070    1.928440    0.422520
     32          1           0        5.912260    0.556600   -0.286350
     33          1           0        3.794590   -1.720190    0.543110
     34          1           0        4.735380   -1.526770   -0.954620
     35          1           0        2.963480   -1.607720   -1.032930
     36          1           0       -3.527330    0.305330    1.405790
     37          1           0       -5.563890   -0.875360   -0.575550
     38          1           0       -5.563530    0.812790   -0.013070
     39          1           0       -5.868360   -0.504400    1.134710
     40          1           0       -3.557710   -2.459810    0.069640
     41          1           0       -4.079230   -2.138460    1.739360
     42          1           0       -2.383410   -1.866340    1.273900
 ---------------------------------------------------------------------
                    Distance matrix (angstroms):
                    1          2          3          4          5
     1  C    0.000000
     2  C    1.560299   0.000000
     3  H    2.211089   1.102759   0.000000
     4  N    2.394802   1.466343   2.094913   0.000000
     5  C    2.246739   2.192768   2.993128   1.275109   0.000000
     6  N    1.456658   2.339721   3.200499   2.269101   1.365268
     7  C    2.581790   3.739357   4.490348   3.561364   2.423010
     8  C    3.840931   4.685783   5.545203   4.108901   2.839285
     9  N    4.182812   4.585351   5.378605   3.597910   2.420846
    10  C    3.624126   3.613648   4.341120   2.407648   1.458120
    11  N    4.653521   4.289905   4.877605   2.867632   2.415922
    12  C    5.844743   5.665845   6.308499   4.285259   3.634909
    13  H    6.367337   6.061494   6.774912   4.689866   4.159105
    14  C    5.599966   5.837871   6.590672   4.666653   3.651057
    15  C    6.954066   6.719761   7.188599   5.300388   4.782067
    16  C    8.206554   8.082575   8.626230   6.681388   6.046616
    17  C    7.445128   6.900325   7.227244   5.445040   5.278192
    18  C    2.591323   1.538224   2.152977   2.477531   3.230674
    19  C    3.143040   2.514462   2.686083   3.812965   4.502355
    20  C    3.922958   2.529412   2.830032   2.867769   3.906553
    21  H    1.100300   2.231451   2.885401   3.275640   3.121938
    22  H    1.106426   2.225514   2.391607   3.007329   2.863636
    23  H    2.838629   4.224608   4.984376   4.351468   3.320496
    24  H    2.962373   4.110751   4.637730   3.904923   2.859596
    25  H    4.136618   4.938704   5.917530   4.461204   3.276148
    26  H    4.699723   5.664855   6.456022   5.100155   3.826157
    27  H    6.162999   6.525005   7.187643   5.386541   4.344132
    28  H    6.170018   6.449286   7.302673   5.345041   4.317345
    29  H    6.738501   6.637425   7.013142   5.292554   4.715656
    30  H    8.614533   8.390637   8.995792   6.974013   6.405094
    31  H    8.179350   8.259800   8.870439   6.935002   6.122826
    32  H    9.033805   8.881512   9.335360   7.470540   6.898479
    33  H    7.756919   7.098343   7.497685   5.638951   5.552554
    34  H    8.403852   7.871582   8.121134   6.434013   6.279690
    35  H    6.839741   6.179734   6.384557   4.761256   4.783066
    36  H    2.706533   2.138754   3.043748   2.761866   3.142556
    37  H    3.609154   2.802435   2.516412   4.109064   4.971322
    38  H    2.810301   2.770865   3.003334   4.170079   4.603955
    39  H    4.104070   3.477520   3.719881   4.637063   5.316981
    40  H    4.277841   2.762051   2.620280   3.133597   4.338658
    41  H    4.743139   3.485483   3.791900   3.914937   4.861657
    42  H    4.195635   2.833964   3.296132   2.589094   3.559206
                    6          7          8          9         10
     6  N    0.000000
     7  C    1.442800   0.000000
     8  C    2.433343   1.529594   0.000000
     9  N    2.763373   2.438622   1.442311   0.000000
    10  C    2.422522   2.796751   2.444445   1.344706   0.000000
    11  N    3.614802   4.066810   3.585131   2.241145   1.282848
    12  C    4.617012   4.700469   3.772757   2.356832   2.223638
    13  H    5.159459   5.362498   4.343155   3.035401   2.867888
    14  C    4.199891   3.839332   2.611082   1.455705   2.265662
    15  C    5.808579   5.809994   4.960703   3.566309   3.434738
    16  C    6.949506   6.754561   5.660572   4.399267   4.616488
    17  C    6.494894   6.779035   6.118357   4.680132   4.151103
    18  C    3.317893   4.727466   5.508646   5.470624   4.532461
    19  C    4.263317   5.555658   6.557302   6.735434   5.893213
    20  C    4.430374   5.863334   6.424241   6.082275   4.961757
    21  H    2.122613   3.023000   4.265315   4.853779   4.448018
    22  H    2.115337   2.819903   4.252190   4.619517   4.124879
    23  H    2.085156   1.099875   2.152296   3.370865   3.823822
    24  H    2.116557   1.109494   2.173877   2.810580   3.136537
    25  H    2.797784   2.171380   1.106756   2.106223   2.987902
    26  H    3.370882   2.156700   1.100919   2.083806   3.289873
    27  H    4.787944   4.186319   3.026116   2.113277   3.011088
    28  H    4.733804   4.320861   2.888130   2.119244   3.034161
    29  H    5.640141   5.511430   4.818342   3.519140   3.456132
    30  H    7.351689   7.262191   6.090614   4.833013   4.991571
    31  H    6.839392   6.429076   5.218608   4.137397   4.671445
    32  H    7.825713   7.610388   6.587778   5.335941   5.504359
    33  H    6.806719   7.200511   6.460652   5.028123   4.456680
    34  H    7.472284   7.681330   7.016728   5.597195   5.153670
    35  H    6.056037   6.496050   6.077558   4.672638   3.887355
    36  H    3.075831   4.381423   4.981880   5.066164   4.308342
    37  H    4.853733   6.158010   7.244553   7.324194   6.378822
    38  H    4.040181   5.158463   6.294380   6.694428   6.024205
    39  H    5.096185   6.367597   7.255921   7.451925   6.635831
    40  H    4.940959   6.377311   7.046848   6.622799   5.410021
    41  H    5.277111   6.685350   7.200140   6.929127   5.875798
    42  H    4.345683   5.720775   6.039569   5.505321   4.347897
                   11         12         13         14         15
    11  N    0.000000
    12  C    1.464025   0.000000
    13  H    2.066159   1.105694   0.000000
    14  C    2.389855   1.564030   2.207291   0.000000
    15  C    2.504806   1.528914   2.145525   2.597336   0.000000
    16  C    3.825458   2.499073   2.712183   3.077189   1.525115
    17  C    2.946338   2.519461   2.769271   3.935203   1.523391
    18  C    5.113532   6.427035   6.581985   6.655217   7.612529
    19  C    6.565772   7.887683   8.083124   8.010008   9.058744
    20  C    5.175148   6.493040   6.491494   7.048978   7.572471
    21  H    5.526859   6.648635   7.079123   6.287105   7.856503
    22  H    5.129474   6.307847   6.970581   6.023295   7.251821
    23  H    5.104838   5.690608   6.277759   4.713206   6.845179
    24  H    4.294620   4.914722   5.744746   4.084219   5.781223
    25  H    4.063747   4.186579   4.499047   3.057590   5.529618
    26  H    4.306836   4.225975   4.869085   2.823001   5.207452
    27  H    3.117803   2.225948   3.019397   1.104423   2.637849
    28  H    3.186044   2.232873   2.379261   1.101775   3.297902
    29  H    2.764899   2.133361   3.043284   2.763715   1.106236
    30  H    4.125007   2.773588   2.523081   3.489972   2.173590
    31  H    4.156837   2.765811   3.076489   2.732116   2.200388
    32  H    4.660840   3.463965   3.728985   4.065229   2.172194
    33  H    3.199472   2.738088   2.531691   4.247774   2.176198
    34  H    3.994253   3.474639   3.734526   4.755130   2.167565
    35  H    2.700710   2.845711   3.245436   4.256654   2.186301
    36  H    4.991275   6.156169   6.216462   6.234034   7.478818
    37  H    6.955052   8.350595   8.607359   8.584492   9.397276
    38  H    6.870052   8.138525   8.415776   8.056389   9.338867
    39  H    7.260755   8.532017   8.605181   8.675932   9.762205
    40  H    5.517669   6.907569   6.994838   7.575116   7.822237
    41  H    6.080330   7.321416   7.198285   7.864451   8.450773
    42  H    4.374172   5.621910   5.526411   6.309436   6.692890
                   16         17         18         19         20
    16  C    0.000000
    17  C    2.517659   0.000000
    18  C    8.905268   7.705880   0.000000
    19  C   10.366234   9.163607   1.524518   0.000000
    20  C    8.880211   7.383172   1.523446   2.515027   0.000000
    21  H    9.040345   8.393840   2.654143   2.806244   4.154436
    22  H    8.533417   7.754140   3.454467   3.763821   4.713243
    23  H    7.708292   7.849993   5.023710   5.615410   6.316007
    24  H    6.761026   6.755435   5.331279   6.095979   6.433536
    25  H    6.113318   6.651349   5.467243   6.492740   6.380975
    26  H    5.702847   6.518359   6.560567   7.546416   7.506770
    27  H    2.887570   4.127136   7.490429   8.793242   7.944734
    28  H    3.379785   4.600283   7.079710   8.428044   7.471214
    29  H    2.153972   2.146706   7.712269   9.082327   7.810397
    30  H    1.102645   2.781912   9.044872  10.542154   8.903746
    31  H    1.101741   3.494132   9.112726  10.533225   9.255716
    32  H    1.099872   2.760849   9.772720  11.223542   9.701290
    33  H    2.847691   1.102833   7.699408   9.194809   7.229134
    34  H    2.700956   1.100521   8.729233  10.165137   8.377974
    35  H    3.480678   1.100141   7.042306   8.451152   6.684422
    36  H    8.652516   7.719002   1.106524   2.152135   2.144006
    37  H   10.779726   9.380565   2.172880   1.102661   2.769165
    38  H   10.610603   9.601357   2.201571   1.101512   3.493236
    39  H   11.020985   9.831678   2.171589   1.100131   2.766051
    40  H    9.211015   7.487158   2.175048   2.830997   1.102827
    41  H    9.695378   8.235350   2.166521   2.705661   1.100732
    42  H    7.956237   6.457927   2.184989   3.479104   1.099168
                   21         22         23         24         25
    21  H    0.000000
    22  H    1.788496   0.000000
    23  H    2.885011   3.053578   0.000000
    24  H    3.571923   2.786455   1.780735   0.000000
    25  H    4.330200   4.749017   2.407492   3.078378   0.000000
    26  H    5.097410   4.936275   2.545567   2.412432   1.781064
    27  H    6.892111   6.417007   5.040597   4.174207   3.666026
    28  H    6.716370   6.704729   5.027916   4.746203   2.960295
    29  H    7.693989   6.872588   6.560970   5.280016   5.572899
    30  H    9.390757   9.059997   8.183105   7.414477   6.368549
    31  H    8.952987   8.485832   7.302506   6.430973   5.657874
    32  H    9.917948   9.275752   8.584262   7.500198   7.117825
    33  H    8.636621   8.199716   8.235372   7.331478   6.828858
    34  H    9.382925   8.632479   8.759201   7.557775   7.603109
    35  H    7.833253   7.090859   7.585369   6.420099   6.675025
    36  H    2.563488   3.751675   4.582907   5.174420   4.746733
    37  H    3.467624   3.977965   6.294042   6.540694   7.308043
    38  H    2.174670   3.320985   5.034252   5.679310   6.230897
    39  H    3.629553   4.803456   6.356656   7.009279   7.048218
    40  H    4.635054   4.858969   6.890313   6.789542   7.143891
    41  H    4.768147   5.580694   7.032306   7.341672   7.020320
    42  H    4.576685   5.036799   6.301493   6.314655   5.991692
                   26         27         28         29         30
    26  H    0.000000
    27  H    2.859273   0.000000
    28  H    3.027423   1.785469   0.000000
    29  H    4.944198   2.468363   3.668245   0.000000
    30  H    6.228057   3.571039   3.523241   3.078398   0.000000
    31  H    5.081260   2.301670   2.883241   2.522824   1.780693
    32  H    6.557382   3.699175   4.428153   2.504422   1.776413
    33  H    6.950697   4.643233   4.707778   3.072453   2.666835
    34  H    7.311546   4.748809   5.405120   2.543249   3.030109
    35  H    6.577063   4.507041   5.061496   2.450402   3.826442
    36  H    6.049265   7.132867   6.506833   7.658601   8.725417
    37  H    8.210934   9.313339   9.104724   9.358442  11.003863
    38  H    7.204063   8.772285   8.460105   9.279299  10.852194
    39  H    8.266844   9.527630   8.991799   9.878959  11.104722
    40  H    8.096738   8.394698   8.114944   7.980735   9.298249
    41  H    8.294922   8.813136   8.179394   8.766324   9.627677
    42  H    7.123697   7.244728   6.702664   7.034972   7.914105
                   31         32         33         34         35
    31  H    0.000000
    32  H    1.773459   0.000000
    33  H    3.857235   3.218121   0.000000
    34  H    3.732000   2.484363   1.779239   0.000000
    35  H    4.351435   3.733225   1.785300   1.775476   0.000000
    36  H    8.775058   9.593348   7.645748   8.786382   7.192894
    37  H   11.013692  11.568758   9.462890  10.326809   8.570974
    38  H   10.671024  11.481902   9.710805  10.603188   8.922381
    39  H   11.199097  11.913360   9.757087  10.855867   9.160643
    40  H    9.659352   9.945139   7.404561   8.408033   6.668406
    41  H   10.071513  10.544986   7.975149   9.237372   7.587295
    42  H    8.380529   8.781979   6.222789   7.467180   5.829029
                   36         37         38         39         40
    36  H    0.000000
    37  H    3.076900   0.000000
    38  H    2.533138   1.779392   0.000000
    39  H    2.491901   1.776317   1.773502   0.000000
    40  H    3.071192   2.636572   3.839279   3.208910   0.000000
    41  H    2.527444   3.026292   3.739523   2.497347   1.778543
    42  H    2.458068   3.810244   4.352837   3.744213   1.783656
                   41         42
    41  H    0.000000
    42  H    1.779468   0.000000
 Stoichiometry    C14H24N4
 Framework group  C1[X(C14H24N4)]
 Deg. of freedom   120
 Full point group                 C1      NOp   1
 Largest Abelian subgroup         C1      NOp   1
 Largest concise Abelian subgroup C1      NOp   1
                         Standard orientation:                         
 ---------------------------------------------------------------------
 Center     Atomic      Atomic             Coordinates (Angstroms)
 Number     Number       Type             X           Y           Z
 ---------------------------------------------------------------------
      1          6           0       -2.774797    1.091452   -0.777955
      2          6           0       -2.815712   -0.464183   -0.664557
      3          1           0       -3.204298   -0.919480   -1.590723
      4          7           0       -1.412430   -0.859359   -0.507093
      5          6           0       -0.768031    0.215922   -0.273802
      6          7           0       -1.459910    1.391996   -0.227865
      7          6           0       -0.745596    2.636613   -0.377376
      8          6           0        0.497995    2.632396    0.513197
      9          7           0        1.249402    1.417260    0.315474
     10          6           0        0.665375    0.250184   -0.008687
     11          7           0        1.413749   -0.791610   -0.026011
     12          6           0        2.733730   -0.406329    0.476560
     13          1           0        2.844314   -0.897389    1.461035
     14          6           0        2.639821    1.145232    0.649855
     15          6           0        3.887128   -0.869463   -0.413809
     16          6           0        5.218442   -0.477708    0.218731
     17          6           0        3.816544   -2.368801   -0.674048
     18          6           0       -3.668328   -0.971342    0.511014
     19          6           0       -5.145426   -0.696573    0.252476
     20          6           0       -3.421680   -2.450529    0.779450
     21          1           0       -3.573749    1.583195   -0.203040
     22          1           0       -2.842545    1.432643   -1.828277
     23          1           0       -1.395484    3.470466   -0.073959
     24          1           0       -0.453200    2.810834   -1.433372
     25          1           0        0.201320    2.741743    1.573826
     26          1           0        1.128744    3.496659    0.253911
     27          1           0        3.315809    1.678738   -0.041637
     28          1           0        2.873521    1.471981    1.675783
     29          1           0        3.781860   -0.341949   -1.380456
     30          1           0        5.351113   -0.985144    1.188645
     31          1           0        5.305919    0.606792    0.392050
     32          1           0        6.057210   -0.774733   -0.427770
     33          1           0        3.773711   -2.931088    0.273707
     34          1           0        4.709635   -2.704655   -1.222444
     35          1           0        2.936158   -2.639402   -1.275718
     36          1           0       -3.352039   -0.400959    1.404893
     37          1           0       -5.499327   -1.270330   -0.620117
     38          1           0       -5.357286    0.367314    0.061191
     39          1           0       -5.753367   -1.001332    1.117239
     40          1           0       -3.619175   -3.050967   -0.124262
     41          1           0       -4.093994   -2.811199    1.572874
     42          1           0       -2.387310   -2.640980    1.098786
 ---------------------------------------------------------------------
 Rotational constants (GHZ):           0.8024030           0.2265879           0.1872944
 Leave Link  202 at Mon Jan 23 08:46:55 2023, MaxMem=  4194304000 cpu:               0.1 elap:               0.0
 (Enter /software/gaussian/G16-A.03/avx/g16/l301.exe)
 Standard basis: def2SVP (5D, 7F)
 Ernie: Thresh=  0.10000D-02 Tol=  0.10000D-05 Strict=F.
 There are   390 symmetry adapted cartesian basis functions of A   symmetry.
 There are   372 symmetry adapted basis functions of A   symmetry.
   372 basis functions,   618 primitive gaussians,   390 cartesian basis functions
    68 alpha electrons       68 beta electrons
       nuclear repulsion energy      1397.0039990740 Hartrees.
 IExCor= 1009 DFT=T Ex+Corr=PBE1PBE ExCW=0 ScaHFX=  0.250000
 ScaDFX=  0.750000  0.750000  1.000000  1.000000 ScalE2=  1.000000  1.000000
 IRadAn=      5 IRanWt=     -1 IRanGd=            0 ICorTp=0 IEmpDi=141
 NAtoms=   42 NActive=   42 NUniq=   42 SFac= 1.00D+00 NAtFMM=   60 NAOKFM=F Big=F
 Integral buffers will be    131072 words long.
 Raffenetti 2 integral format.
 Two-electron integral symmetry is turned on.
 R6Disp:  Grimme-D3(BJ) Dispersion energy=       -0.0421270425 Hartrees.
 Nuclear repulsion after empirical dispersion term =     1396.9618720315 Hartrees.
 Leave Link  301 at Mon Jan 23 08:46:56 2023, MaxMem=  4194304000 cpu:               0.5 elap:               0.1
 (Enter /software/gaussian/G16-A.03/avx/g16/l302.exe)
 NPDir=0 NMtPBC=     1 NCelOv=     1 NCel=       1 NClECP=     1 NCelD=      1
         NCelK=      1 NCelE2=     1 NClLst=     1 CellRange=     0.0.
 One-electron integrals computed using PRISM.
 One-electron integral symmetry used in STVInt
   1 Symmetry operations used in ECPInt.
 ECPInt:  NShTT=   16290 NPrTT=   56922 LenC2=   14622 LenP2D=   36371.
 LDataN:  DoStor=T MaxTD1= 4 Len=   56
 NBasis=   372 RedAO= T EigKep=  5.86D-04  NBF=   372
 NBsUse=   372 1.00D-06 EigRej= -1.00D+00 NBFU=   372
 Precomputing XC quadrature grid using
 IXCGrd= 4 IRadAn=           5 IRanWt=          -1 IRanGd=           0 AccXCQ= 0.00D+00.
 Generated NRdTot=       0 NPtTot=           0 NUsed=           0 NTot=          32
 NSgBfM=   386   386   386   386   386 MxSgAt=    42 MxSgA2=    42.
 Leave Link  302 at Mon Jan 23 08:46:56 2023, MaxMem=  4194304000 cpu:               6.3 elap:               0.8
 (Enter /software/gaussian/G16-A.03/avx/g16/l303.exe)
 DipDrv:  MaxL=1.
 Leave Link  303 at Mon Jan 23 08:46:56 2023, MaxMem=  4194304000 cpu:               0.5 elap:               0.1
 (Enter /software/gaussian/G16-A.03/avx/g16/l401.exe)
 ExpMin= 1.22D-01 ExpMax= 1.71D+03 ExpMxC= 2.58D+02 IAcc=3 IRadAn=         5 AccDes= 0.00D+00
 Harris functional with IExCor= 1009 and IRadAn=       5 diagonalized for initial guess.
 HarFok:  IExCor= 1009 AccDes= 0.00D+00 IRadAn=         5 IDoV= 1 UseB2=F ITyADJ=14
 ICtDFT=  3500011 ScaDFX=  1.000000  1.000000  1.000000  1.000000
 FoFCou: FMM=F IPFlag=           0 FMFlag=      100000 FMFlg1=           0
         NFxFlg=           0 DoJE=T BraDBF=F KetDBF=T FulRan=T
         wScrn=  0.000000 ICntrl=       500 IOpCl=  0 I1Cent=   200000004 NGrid=           0
         NMat0=    1 NMatS0=      1 NMatT0=    0 NMatD0=    1 NMtDS0=    0 NMtDT0=    0
 Petite list used in FoFCou.
 Harris En= -765.722770347707    
 JPrj=0 DoOrth=F DoCkMO=F.
 Leave Link  401 at Mon Jan 23 08:47:01 2023, MaxMem=  4194304000 cpu:              34.9 elap:               4.4
 (Enter /software/gaussian/G16-A.03/avx/g16/l502.exe)
 Integral symmetry usage will be decided dynamically.
 Closed shell SCF:
 Using DIIS extrapolation, IDIIS=  1040.
 NGot=  4194304000 LenX=  4193992314 LenY=  4193839773
 Requested convergence on RMS density matrix=1.00D-08 within 128 cycles.
 Requested convergence on MAX density matrix=1.00D-06.
 Requested convergence on             energy=1.00D-06.
 No special actions if energy rises.
 Fock matrices will be formed incrementally for  20 cycles.
 Integral accuracy reduced to 1.0D-05 until final iterations.

 Cycle   1  Pass 0  IDiag  1:
 FoFJK:  IHMeth= 1 ICntrl=       0 DoSepK=F KAlg= 0 I1Cent=           0 FoldK=F
 IRaf= 830000000 NMat=       1 IRICut=       1 DoRegI=T DoRafI=F ISym2E= 0 IDoP0=0 IntGTp=1.
 FoFCou: FMM=F IPFlag=           0 FMFlag=      100000 FMFlg1=           0
         NFxFlg=           0 DoJE=F BraDBF=F KetDBF=F FulRan=T
         wScrn=  0.000000 ICntrl=         0 IOpCl=  0 I1Cent=           0 NGrid=           0
         NMat0=    1 NMatS0=      1 NMatT0=    0 NMatD0=    1 NMtDS0=    0 NMtDT0=    0
 Symmetry not used in FoFCou.
 E= -765.112014686744    
 DIIS: error= 1.85D-02 at cycle   1 NSaved=   1.
 NSaved= 1 IEnMin= 1 EnMin= -765.112014686744     IErMin= 1 ErrMin= 1.85D-02
 ErrMax= 1.85D-02  0.00D+00 EMaxC= 1.00D-01 BMatC= 3.83D-01 BMatP= 3.83D-01
 IDIUse=3 WtCom= 8.15D-01 WtEn= 1.85D-01
 Coeff-Com:  0.100D+01
 Coeff-En:   0.100D+01
 Coeff:      0.100D+01
 Gap=     0.191 Goal=   None    Shift=    0.000
 GapD=    0.191 DampG=1.000 DampE=0.500 DampFc=0.5000 IDamp=-1.
 Damping current iteration by 5.00D-01
 RMSDP=5.19D-03 MaxDP=1.59D-01              OVMax= 3.30D-01

 Cycle   2  Pass 0  IDiag  1:
 RMSU=  2.58D-03    CP:  9.87D-01
 E= -765.272569516971     Delta-E=       -0.160554830227 Rises=F Damp=T
 DIIS: error= 8.08D-03 at cycle   2 NSaved=   2.
 NSaved= 2 IEnMin= 2 EnMin= -765.272569516971     IErMin= 2 ErrMin= 8.08D-03
 ErrMax= 8.08D-03  0.00D+00 EMaxC= 1.00D-01 BMatC= 4.34D-02 BMatP= 3.83D-01
 IDIUse=3 WtCom= 9.19D-01 WtEn= 8.08D-02
 Coeff-Com:  0.143D+00 0.857D+00
 Coeff-En:   0.218D+00 0.782D+00
 Coeff:      0.149D+00 0.851D+00
 Gap=     0.323 Goal=   None    Shift=    0.000
 RMSDP=1.67D-03 MaxDP=5.95D-02 DE=-1.61D-01 OVMax= 2.56D-01

 Cycle   3  Pass 0  IDiag  1:
 RMSU=  1.48D-03    CP:  9.76D-01  7.06D-01
 E= -765.481424306512     Delta-E=       -0.208854789541 Rises=F Damp=F
 DIIS: error= 1.25D-02 at cycle   3 NSaved=   3.
 NSaved= 3 IEnMin= 3 EnMin= -765.481424306512     IErMin= 2 ErrMin= 8.08D-03
 ErrMax= 1.25D-02  0.00D+00 EMaxC= 1.00D-01 BMatC= 5.81D-02 BMatP= 4.34D-02
 IDIUse=2 WtCom= 0.00D+00 WtEn= 1.00D+00
 Coeff-En:   0.000D+00 0.000D+00 0.100D+01
 Coeff:      0.000D+00 0.000D+00 0.100D+01
 Gap=     0.194 Goal=   None    Shift=    0.000
 RMSDP=2.58D-03 MaxDP=1.11D-01 DE=-2.09D-01 OVMax= 2.73D-01

 Cycle   4  Pass 0  IDiag  1:
 RMSU=  1.39D-03    CP:  9.90D-01  1.27D+00 -8.35D-02
 E= -765.264256391380     Delta-E=        0.217167915132 Rises=F Damp=F
 DIIS: error= 2.95D-02 at cycle   4 NSaved=   4.
 NSaved= 4 IEnMin= 3 EnMin= -765.481424306512     IErMin= 2 ErrMin= 8.08D-03
 ErrMax= 2.95D-02  0.00D+00 EMaxC= 1.00D-01 BMatC= 2.99D-01 BMatP= 4.34D-02
 IDIUse=2 WtCom= 0.00D+00 WtEn= 1.00D+00
 Coeff-En:   0.000D+00 0.000D+00 0.779D+00 0.221D+00
 Coeff:      0.000D+00 0.000D+00 0.779D+00 0.221D+00
 Gap=     0.211 Goal=   None    Shift=    0.000
 RMSDP=1.44D-03 MaxDP=6.05D-02 DE= 2.17D-01 OVMax= 1.27D-01

 Cycle   5  Pass 0  IDiag  1:
 RMSU=  2.11D-04    CP:  9.83D-01  9.15D-01  4.85D-01  4.94D-01
 E= -765.516499424788     Delta-E=       -0.252243033408 Rises=F Damp=F
 DIIS: error= 7.12D-03 at cycle   5 NSaved=   5.
 NSaved= 5 IEnMin= 5 EnMin= -765.516499424788     IErMin= 5 ErrMin= 7.12D-03
 ErrMax= 7.12D-03  0.00D+00 EMaxC= 1.00D-01 BMatC= 2.11D-02 BMatP= 4.34D-02
 IDIUse=3 WtCom= 9.29D-01 WtEn= 7.12D-02
 Coeff-Com: -0.589D-02 0.262D-01 0.274D+00-0.105D+00 0.811D+00
 Coeff-En:   0.000D+00 0.000D+00 0.312D+00 0.000D+00 0.688D+00
 Coeff:     -0.547D-02 0.243D-01 0.277D+00-0.975D-01 0.802D+00
 Gap=     0.191 Goal=   None    Shift=    0.000
 RMSDP=4.75D-04 MaxDP=1.93D-02 DE=-2.52D-01 OVMax= 4.95D-02

 Cycle   6  Pass 0  IDiag  1:
 RMSU=  5.00D-05    CP:  9.80D-01  8.19D-01  6.85D-01  3.00D-01  8.78D-01
 E= -765.535751323230     Delta-E=       -0.019251898441 Rises=F Damp=F
 DIIS: error= 2.87D-04 at cycle   6 NSaved=   6.
 NSaved= 6 IEnMin= 6 EnMin= -765.535751323230     IErMin= 6 ErrMin= 2.87D-04
 ErrMax= 2.87D-04  0.00D+00 EMaxC= 1.00D-01 BMatC= 5.71D-05 BMatP= 2.11D-02
 IDIUse=3 WtCom= 9.97D-01 WtEn= 2.87D-03
 Coeff-Com: -0.427D-02 0.115D-01 0.118D+00-0.630D-01 0.421D+00 0.517D+00
 Coeff-En:   0.000D+00 0.000D+00 0.000D+00 0.000D+00 0.000D+00 0.100D+01
 Coeff:     -0.426D-02 0.114D-01 0.117D+00-0.628D-01 0.420D+00 0.518D+00
 Gap=     0.191 Goal=   None    Shift=    0.000
 RMSDP=2.97D-05 MaxDP=1.45D-03 DE=-1.93D-02 OVMax= 3.25D-03

 Cycle   7  Pass 0  IDiag  1:
 RMSU=  1.69D-05    CP:  9.80D-01  8.24D-01  6.82D-01  3.04D-01  9.00D-01
                    CP:  5.96D-01
 E= -765.535802141412     Delta-E=       -0.000050818182 Rises=F Damp=F
 DIIS: error= 1.00D-04 at cycle   7 NSaved=   7.
 NSaved= 7 IEnMin= 7 EnMin= -765.535802141412     IErMin= 7 ErrMin= 1.00D-04
 ErrMax= 1.00D-04  0.00D+00 EMaxC= 1.00D-01 BMatC= 6.68D-06 BMatP= 5.71D-05
 IDIUse=3 WtCom= 9.99D-01 WtEn= 1.00D-03
 Coeff-Com: -0.162D-02 0.339D-02 0.409D-01-0.256D-01 0.158D+00 0.290D+00
 Coeff-Com:  0.536D+00
 Coeff-En:   0.000D+00 0.000D+00 0.000D+00 0.000D+00 0.000D+00 0.275D-01
 Coeff-En:   0.973D+00
 Coeff:     -0.162D-02 0.338D-02 0.408D-01-0.255D-01 0.158D+00 0.289D+00
 Coeff:      0.536D+00
 Gap=     0.191 Goal=   None    Shift=    0.000
 RMSDP=9.48D-06 MaxDP=5.45D-04 DE=-5.08D-05 OVMax= 1.03D-03

 Initial convergence to 1.0D-05 achieved.  Increase integral accuracy.
 Cycle   8  Pass 1  IDiag  1:
 E= -765.535807584014     Delta-E=       -0.000005442602 Rises=F Damp=F
 DIIS: error= 9.58D-05 at cycle   1 NSaved=   1.
 NSaved= 1 IEnMin= 1 EnMin= -765.535807584014     IErMin= 1 ErrMin= 9.58D-05
 ErrMax= 9.58D-05  0.00D+00 EMaxC= 1.00D-01 BMatC= 2.33D-06 BMatP= 2.33D-06
 IDIUse=1 WtCom= 1.00D+00 WtEn= 0.00D+00
 Coeff-Com:  0.100D+01
 Coeff:      0.100D+01
 Gap=     0.191 Goal=   None    Shift=    0.000
 RMSDP=9.48D-06 MaxDP=5.45D-04 DE=-5.44D-06 OVMax= 1.29D-03

 Cycle   9  Pass 1  IDiag  1:
 RMSU=  4.74D-05    CP:  1.00D+00
 E= -765.535806151750     Delta-E=        0.000001432264 Rises=F Damp=F
 DIIS: error= 7.70D-05 at cycle   2 NSaved=   2.
 NSaved= 2 IEnMin= 1 EnMin= -765.535807584014     IErMin= 2 ErrMin= 7.70D-05
 ErrMax= 7.70D-05  0.00D+00 EMaxC= 1.00D-01 BMatC= 4.10D-06 BMatP= 2.33D-06
 IDIUse=1 WtCom= 1.00D+00 WtEn= 0.00D+00
 Coeff-Com:  0.585D+00 0.415D+00
 Coeff:      0.585D+00 0.415D+00
 Gap=     0.191 Goal=   None    Shift=    0.000
 RMSDP=8.19D-06 MaxDP=5.61D-04 DE= 1.43D-06 OVMax= 1.22D-03

 Cycle  10  Pass 1  IDiag  1:
 RMSU=  8.06D-06    CP:  1.00D+00  9.72D-01
 E= -765.535809606477     Delta-E=       -0.000003454727 Rises=F Damp=F
 DIIS: error= 2.77D-05 at cycle   3 NSaved=   3.
 NSaved= 3 IEnMin= 3 EnMin= -765.535809606477     IErMin= 3 ErrMin= 2.77D-05
 ErrMax= 2.77D-05  0.00D+00 EMaxC= 1.00D-01 BMatC= 4.31D-07 BMatP= 2.33D-06
 IDIUse=1 WtCom= 1.00D+00 WtEn= 0.00D+00
 Coeff-Com:  0.554D-01 0.244D+00 0.700D+00
 Coeff:      0.554D-01 0.244D+00 0.700D+00
 Gap=     0.191 Goal=   None    Shift=    0.000
 RMSDP=2.40D-06 MaxDP=1.70D-04 DE=-3.45D-06 OVMax= 3.18D-04

 Cycle  11  Pass 1  IDiag  1:
 RMSU=  1.23D-06    CP:  1.00D+00  9.90D-01  7.70D-01
 E= -765.535809946917     Delta-E=       -0.000000340440 Rises=F Damp=F
 DIIS: error= 6.73D-06 at cycle   4 NSaved=   4.
 NSaved= 4 IEnMin= 4 EnMin= -765.535809946917     IErMin= 4 ErrMin= 6.73D-06
 ErrMax= 6.73D-06  0.00D+00 EMaxC= 1.00D-01 BMatC= 5.21D-08 BMatP= 4.31D-07
 IDIUse=1 WtCom= 1.00D+00 WtEn= 0.00D+00
 Coeff-Com: -0.485D-02 0.121D+00 0.415D+00 0.469D+00
 Coeff:     -0.485D-02 0.121D+00 0.415D+00 0.469D+00
 Gap=     0.191 Goal=   None    Shift=    0.000
 RMSDP=7.24D-07 MaxDP=3.20D-05 DE=-3.40D-07 OVMax= 4.96D-05

 Cycle  12  Pass 1  IDiag  1:
 RMSU=  2.59D-07    CP:  1.00D+00  9.91D-01  7.83D-01  4.68D-01
 E= -765.535809993317     Delta-E=       -0.000000046400 Rises=F Damp=F
 DIIS: error= 1.78D-06 at cycle   5 NSaved=   5.
 NSaved= 5 IEnMin= 5 EnMin= -765.535809993317     IErMin= 5 ErrMin= 1.78D-06
 ErrMax= 1.78D-06  0.00D+00 EMaxC= 1.00D-01 BMatC= 1.56D-09 BMatP= 5.21D-08
 IDIUse=1 WtCom= 1.00D+00 WtEn= 0.00D+00
 Coeff-Com: -0.401D-02 0.787D-01 0.270D+00 0.319D+00 0.337D+00
 Coeff:     -0.401D-02 0.787D-01 0.270D+00 0.319D+00 0.337D+00
 Gap=     0.191 Goal=   None    Shift=    0.000
 RMSDP=1.34D-07 MaxDP=8.51D-06 DE=-4.64D-08 OVMax= 1.48D-05

 Cycle  13  Pass 1  IDiag  1:
 RMSU=  1.00D-07    CP:  1.00D+00  9.92D-01  7.81D-01  4.83D-01  6.82D-01
 E= -765.535809994718     Delta-E=       -0.000000001401 Rises=F Damp=F
 DIIS: error= 1.74D-07 at cycle   6 NSaved=   6.
 NSaved= 6 IEnMin= 6 EnMin= -765.535809994718     IErMin= 6 ErrMin= 1.74D-07
 ErrMax= 1.74D-07  0.00D+00 EMaxC= 1.00D-01 BMatC= 2.14D-11 BMatP= 1.56D-09
 IDIUse=1 WtCom= 1.00D+00 WtEn= 0.00D+00
 Coeff-Com: -0.875D-03 0.155D-01 0.497D-01 0.654D-01 0.785D-01 0.792D+00
 Coeff:     -0.875D-03 0.155D-01 0.497D-01 0.654D-01 0.785D-01 0.792D+00
 Gap=     0.191 Goal=   None    Shift=    0.000
 RMSDP=2.78D-08 MaxDP=1.09D-06 DE=-1.40D-09 OVMax= 2.83D-06

 Cycle  14  Pass 1  IDiag  1:
 RMSU=  2.20D-08    CP:  1.00D+00  9.92D-01  7.80D-01  4.90D-01  7.19D-01
                    CP:  1.05D+00
 E= -765.535809994727     Delta-E=       -0.000000000009 Rises=F Damp=F
 DIIS: error= 9.54D-08 at cycle   7 NSaved=   7.
 NSaved= 7 IEnMin= 7 EnMin= -765.535809994727     IErMin= 7 ErrMin= 9.54D-08
 ErrMax= 9.54D-08  0.00D+00 EMaxC= 1.00D-01 BMatC= 9.98D-12 BMatP= 2.14D-11
 IDIUse=1 WtCom= 1.00D+00 WtEn= 0.00D+00
 Coeff-Com:  0.172D-03-0.442D-02-0.179D-01-0.161D-01-0.270D-01 0.449D+00
 Coeff-Com:  0.616D+00
 Coeff:      0.172D-03-0.442D-02-0.179D-01-0.161D-01-0.270D-01 0.449D+00
 Coeff:      0.616D+00
 Gap=     0.191 Goal=   None    Shift=    0.000
 RMSDP=1.12D-08 MaxDP=5.37D-07 DE=-8.64D-12 OVMax= 5.71D-07

 Cycle  15  Pass 1  IDiag  1:
 RMSU=  6.66D-09    CP:  1.00D+00  9.92D-01  7.80D-01  4.90D-01  7.26D-01
                    CP:  1.12D+00  7.90D-01
 E= -765.535809994751     Delta-E=       -0.000000000025 Rises=F Damp=F
 DIIS: error= 2.08D-08 at cycle   8 NSaved=   8.
 NSaved= 8 IEnMin= 8 EnMin= -765.535809994751     IErMin= 8 ErrMin= 2.08D-08
 ErrMax= 2.08D-08  0.00D+00 EMaxC= 1.00D-01 BMatC= 3.08D-13 BMatP= 9.98D-12
 IDIUse=1 WtCom= 1.00D+00 WtEn= 0.00D+00
 Coeff-Com:  0.125D-03-0.265D-02-0.101D-01-0.102D-01-0.187D-01 0.121D+00
 Coeff-Com:  0.220D+00 0.701D+00
 Coeff:      0.125D-03-0.265D-02-0.101D-01-0.102D-01-0.187D-01 0.121D+00
 Coeff:      0.220D+00 0.701D+00
 Gap=     0.191 Goal=   None    Shift=    0.000
 RMSDP=2.66D-09 MaxDP=1.00D-07 DE=-2.46D-11 OVMax= 1.29D-07

 SCF Done:  E(RPBE1PBE) =  -765.535809995     A.U. after   15 cycles
            NFock= 15  Conv=0.27D-08     -V/T= 2.0107
 KE= 7.574266809018D+02 PE=-4.568170539116D+03 EE= 1.648246176188D+03
 Leave Link  502 at Mon Jan 23 08:48:50 2023, MaxMem=  4194304000 cpu:             875.9 elap:             109.5
 (Enter /software/gaussian/G16-A.03/avx/g16/l801.exe)
 DoSCS=F DFT=T ScalE2(SS,OS)=  1.000000  1.000000
 Range of M.O.s used for correlation:     1   372
 NBasis=   372 NAE=    68 NBE=    68 NFC=     0 NFV=     0
 NROrb=    372 NOA=    68 NOB=    68 NVA=   304 NVB=   304
 Leave Link  801 at Mon Jan 23 08:48:50 2023, MaxMem=  4194304000 cpu:               0.2 elap:               0.0
 (Enter /software/gaussian/G16-A.03/avx/g16/l1101.exe)
 Using compressed storage, NAtomX=    42.
 Will process     43 centers per pass.
   1 Symmetry operations used in ECPInt.
 ECPInt:  NShTT=   16290 NPrTT=   56922 LenC2=   14622 LenP2D=   36371.
 LDataN:  DoStor=T MaxTD1= 5 Len=  102
 R6Disp: Adding Grimme-D3(BJ) dispersion energy 1st derivatives to the gradient.
 Leave Link 1101 at Mon Jan 23 08:48:51 2023, MaxMem=  4194304000 cpu:               6.2 elap:               0.8
 (Enter /software/gaussian/G16-A.03/avx/g16/l1102.exe)
 Symmetrizing basis deriv contribution to polar:
 IMax=3 JMax=2 DiffMx= 0.00D+00
 Leave Link 1102 at Mon Jan 23 08:48:51 2023, MaxMem=  4194304000 cpu:               0.5 elap:               0.1
 (Enter /software/gaussian/G16-A.03/avx/g16/l1110.exe)
 Forming Gx(P) for the SCF density, NAtomX=    42.
 Integral derivatives from FoFJK, PRISM(SPDF).
 Do as many integral derivatives as possible in FoFJK.
 G2DrvN: MDV=    4194300840.
 G2DrvN: will do    43 centers at a time, making    1 passes.
 Calling FoFCou, ICntrl=  3107 FMM=F I1Cent=   0 AccDes= 0.00D+00.
 FoFJK:  IHMeth= 1 ICntrl=    3107 DoSepK=F KAlg= 0 I1Cent=           0 FoldK=F
 IRaf=         0 NMat=       1 IRICut=       1 DoRegI=T DoRafI=F ISym2E= 0 IDoP0=0 IntGTp=1.
 FoFCou: FMM=F IPFlag=           0 FMFlag=      100000 FMFlg1=           0
         NFxFlg=           0 DoJE=F BraDBF=F KetDBF=F FulRan=T
         wScrn=  0.000000 ICntrl=      3107 IOpCl=  0 I1Cent=           0 NGrid=           0
         NMat0=    1 NMatS0=      1 NMatT0=    0 NMatD0=    1 NMtDS0=    0 NMtDT0=    0
 Symmetry not used in FoFCou.
 End of G2Drv F.D. properties file   721 does not exist.
 End of G2Drv F.D. properties file   722 does not exist.
 End of G2Drv F.D. properties file   788 does not exist.
 Leave Link 1110 at Mon Jan 23 08:54:51 2023, MaxMem=  4194304000 cpu:            2877.8 elap:             359.8
 (Enter /software/gaussian/G16-A.03/avx/g16/l1002.exe)
 Minotr:  Closed shell wavefunction.
          IDoAtm=111111111111111111111111111111111111111111
          Direct CPHF calculation.
          Differentiating once with respect to electric field.
                with respect to dipole field.
          Differentiating once with respect to nuclear coordinates.
          Requested convergence is 1.0D-08 RMS, and 1.0D-07 maximum.
          Secondary convergence is 1.0D-12 RMS, and 1.0D-12 maximum.
          NewPWx=T KeepS1=F KeepF1=F KeepIn=T MapXYZ=F SortEE=F KeepMc=T.
        12727 words used for storage of precomputed grid.
 Keep R1 ints in memory in canonical form, NReq=2436596059.
 FoFCou: FMM=F IPFlag=           0 FMFlag=           0 FMFlg1=           0
         NFxFlg=           0 DoJE=F BraDBF=F KetDBF=F FulRan=T
         wScrn=  0.000000 ICntrl=       600 IOpCl=  0 I1Cent=           0 NGrid=           0
         NMat0=    1 NMatS0=  69378 NMatT0=    0 NMatD0=    1 NMtDS0=    0 NMtDT0=    0
 Symmetry not used in FoFCou.
 Two-electron integral symmetry not used.
          MDV=    4194304000 using IRadAn=       1.
          Solving linear equations simultaneously, MaxMat=       0.
          There are   129 degrees of freedom in the 1st order CPHF.  IDoFFX=6 NUNeed=     3.
    126 vectors produced by pass  0 Test12= 2.07D-14 1.00D-09 XBig12= 1.48D+02 6.42D+00.
 AX will form   126 AO Fock derivatives at one time.
    126 vectors produced by pass  1 Test12= 2.07D-14 1.00D-09 XBig12= 4.79D+01 1.70D+00.
    126 vectors produced by pass  2 Test12= 2.07D-14 1.00D-09 XBig12= 4.57D-01 1.28D-01.
    126 vectors produced by pass  3 Test12= 2.07D-14 1.00D-09 XBig12= 1.45D-03 3.69D-03.
    126 vectors produced by pass  4 Test12= 2.07D-14 1.00D-09 XBig12= 2.88D-06 1.23D-04.
     82 vectors produced by pass  5 Test12= 2.07D-14 1.00D-09 XBig12= 3.03D-09 3.17D-06.
     11 vectors produced by pass  6 Test12= 2.07D-14 1.00D-09 XBig12= 3.07D-12 1.28D-07.
      3 vectors produced by pass  7 Test12= 2.07D-14 1.00D-09 XBig12= 3.11D-15 4.84D-09.
 InvSVY:  IOpt=1 It=  1 EMax= 1.07D-14
 Solved reduced A of dimension   726 with   129 vectors.
 FullF1:  Do perturbations      1 to       3.
 Isotropic polarizability for W=    0.000000      178.13 Bohr**3.
 End of Minotr F.D. properties file   721 does not exist.
 End of Minotr F.D. properties file   722 does not exist.
 End of Minotr F.D. properties file   788 does not exist.
 Leave Link 1002 at Mon Jan 23 09:01:37 2023, MaxMem=  4194304000 cpu:            3248.9 elap:             406.2
 (Enter /software/gaussian/G16-A.03/avx/g16/l601.exe)
 Copying SCF densities to generalized density rwf, IOpCl= 0 IROHF=0.

 **********************************************************************

            Population analysis using the SCF density.

 **********************************************************************

 Orbital symmetries:
       Occupied  (A) (A) (A) (A) (A) (A) (A) (A) (A) (A) (A) (A)
                 (A) (A) (A) (A) (A) (A) (A) (A) (A) (A) (A) (A)
                 (A) (A) (A) (A) (A) (A) (A) (A) (A) (A) (A) (A)
                 (A) (A) (A) (A) (A) (A) (A) (A) (A) (A) (A) (A)
                 (A) (A) (A) (A) (A) (A) (A) (A) (A) (A) (A) (A)
                 (A) (A) (A) (A) (A) (A) (A) (A)
       Virtual   (A) (A) (A) (A) (A) (A) (A) (A) (A) (A) (A) (A)
                 (A) (A) (A) (A) (A) (A) (A) (A) (A) (A) (A) (A)
                 (A) (A) (A) (A) (A) (A) (A) (A) (A) (A) (A) (A)
                 (A) (A) (A) (A) (A) (A) (A) (A) (A) (A) (A) (A)
                 (A) (A) (A) (A) (A) (A) (A) (A) (A) (A) (A) (A)
                 (A) (A) (A) (A) (A) (A) (A) (A) (A) (A) (A) (A)
                 (A) (A) (A) (A) (A) (A) (A) (A) (A) (A) (A) (A)
                 (A) (A) (A) (A) (A) (A) (A) (A) (A) (A) (A) (A)
                 (A) (A) (A) (A) (A) (A) (A) (A) (A) (A) (A) (A)
                 (A) (A) (A) (A) (A) (A) (A) (A) (A) (A) (A) (A)
                 (A) (A) (A) (A) (A) (A) (A) (A) (A) (A) (A) (A)
                 (A) (A) (A) (A) (A) (A) (A) (A) (A) (A) (A) (A)
                 (A) (A) (A) (A) (A) (A) (A) (A) (A) (A) (A) (A)
                 (A) (A) (A) (A) (A) (A) (A) (A) (A) (A) (A) (A)
                 (A) (A) (A) (A) (A) (A) (A) (A) (A) (A) (A) (A)
                 (A) (A) (A) (A) (A) (A) (A) (A) (A) (A) (A) (A)
                 (A) (A) (A) (A) (A) (A) (A) (A) (A) (A) (A) (A)
                 (A) (A) (A) (A) (A) (A) (A) (A) (A) (A) (A) (A)
                 (A) (A) (A) (A) (A) (A) (A) (A) (A) (A) (A) (A)
                 (A) (A) (A) (A) (A) (A) (A) (A) (A) (A) (A) (A)
                 (A) (A) (A) (A) (A) (A) (A) (A) (A) (A) (A) (A)
                 (A) (A) (A) (A) (A) (A) (A) (A) (A) (A) (A) (A)
                 (A) (A) (A) (A) (A) (A) (A) (A) (A) (A) (A) (A)
                 (A) (A) (A) (A) (A) (A) (A) (A) (A) (A) (A) (A)
                 (A) (A) (A) (A) (A) (A) (A) (A) (A) (A) (A) (A)
                 (A) (A) (A) (A)
 The electronic state is 1-A.
 Alpha  occ. eigenvalues --  -14.41658 -14.41602 -14.35056 -14.34172 -10.28924
 Alpha  occ. eigenvalues --  -10.28851 -10.28842 -10.28656 -10.26937 -10.26912
 Alpha  occ. eigenvalues --  -10.25501 -10.25310 -10.23014 -10.22880 -10.22153
 Alpha  occ. eigenvalues --  -10.22127 -10.20702 -10.20696  -1.03750  -1.00242
 Alpha  occ. eigenvalues --   -0.91533  -0.87837  -0.82584  -0.81017  -0.79105
 Alpha  occ. eigenvalues --   -0.75898  -0.73321  -0.68810  -0.68796  -0.67288
 Alpha  occ. eigenvalues --   -0.65061  -0.62496  -0.62376  -0.57266  -0.56824
 Alpha  occ. eigenvalues --   -0.55412  -0.53953  -0.49999  -0.49657  -0.48972
 Alpha  occ. eigenvalues --   -0.48437  -0.46503  -0.46110  -0.45410  -0.44313
 Alpha  occ. eigenvalues --   -0.43393  -0.42739  -0.42019  -0.40713  -0.40271
 Alpha  occ. eigenvalues --   -0.39608  -0.38865  -0.38698  -0.38438  -0.37948
 Alpha  occ. eigenvalues --   -0.37746  -0.37052  -0.34301  -0.34190  -0.34112
 Alpha  occ. eigenvalues --   -0.33566  -0.32882  -0.32798  -0.31150  -0.26569
 Alpha  occ. eigenvalues --   -0.25286  -0.22810  -0.20776
 Alpha virt. eigenvalues --   -0.01656   0.05181   0.07028   0.07367   0.08737
 Alpha virt. eigenvalues --    0.09403   0.09593   0.10386   0.10589   0.11392
 Alpha virt. eigenvalues --    0.11918   0.12239   0.12645   0.13451   0.13862
 Alpha virt. eigenvalues --    0.14841   0.15164   0.15527   0.15648   0.16006
 Alpha virt. eigenvalues --    0.16584   0.17559   0.17803   0.18109   0.18276
 Alpha virt. eigenvalues --    0.18537   0.19170   0.19446   0.20872   0.20938
 Alpha virt. eigenvalues --    0.21540   0.22620   0.24541   0.25021   0.25413
 Alpha virt. eigenvalues --    0.25729   0.26026   0.26725   0.27909   0.28170
 Alpha virt. eigenvalues --    0.30816   0.32540   0.34324   0.39406   0.39998
 Alpha virt. eigenvalues --    0.40511   0.41544   0.41945   0.43187   0.44109
 Alpha virt. eigenvalues --    0.44445   0.44996   0.45414   0.45846   0.46908
 Alpha virt. eigenvalues --    0.47295   0.48051   0.50656   0.51769   0.52070
 Alpha virt. eigenvalues --    0.55003   0.55267   0.57199   0.58335   0.58496
 Alpha virt. eigenvalues --    0.58817   0.59883   0.60569   0.61639   0.62048
 Alpha virt. eigenvalues --    0.62652   0.62847   0.63434   0.64061   0.64094
 Alpha virt. eigenvalues --    0.64620   0.65435   0.65744   0.65767   0.66059
 Alpha virt. eigenvalues --    0.66847   0.67328   0.68101   0.68370   0.68468
 Alpha virt. eigenvalues --    0.68656   0.68973   0.69379   0.69492   0.70161
 Alpha virt. eigenvalues --    0.70264   0.70546   0.70875   0.70954   0.71676
 Alpha virt. eigenvalues --    0.71789   0.72304   0.73041   0.73456   0.73583
 Alpha virt. eigenvalues --    0.74064   0.74654   0.75218   0.75349   0.76314
 Alpha virt. eigenvalues --    0.76947   0.77746   0.78549   0.80007   0.80635
 Alpha virt. eigenvalues --    0.81594   0.83909   0.86636   0.87323   0.88739
 Alpha virt. eigenvalues --    0.89195   0.92120   0.93558   0.94872   0.97162
 Alpha virt. eigenvalues --    0.97964   0.99348   1.00376   1.01635   1.03469
 Alpha virt. eigenvalues --    1.05607   1.07146   1.09572   1.10836   1.12029
 Alpha virt. eigenvalues --    1.13618   1.15342   1.16282   1.17855   1.20980
 Alpha virt. eigenvalues --    1.23274   1.23791   1.25204   1.28449   1.28985
 Alpha virt. eigenvalues --    1.30584   1.32315   1.32430   1.33481   1.34818
 Alpha virt. eigenvalues --    1.36986   1.38710   1.43322   1.43909   1.45285
 Alpha virt. eigenvalues --    1.45826   1.46328   1.48635   1.50029   1.51504
 Alpha virt. eigenvalues --    1.53164   1.54684   1.55599   1.55737   1.57455
 Alpha virt. eigenvalues --    1.58059   1.59057   1.59276   1.62026   1.62714
 Alpha virt. eigenvalues --    1.64626   1.65353   1.67581   1.68680   1.69555
 Alpha virt. eigenvalues --    1.71254   1.72504   1.73584   1.74442   1.75916
 Alpha virt. eigenvalues --    1.76525   1.76952   1.77587   1.77926   1.78700
 Alpha virt. eigenvalues --    1.79619   1.80108   1.80364   1.81833   1.82305
 Alpha virt. eigenvalues --    1.83185   1.83482   1.83599   1.84167   1.84689
 Alpha virt. eigenvalues --    1.85400   1.85726   1.86227   1.86596   1.87397
 Alpha virt. eigenvalues --    1.87760   1.88111   1.89065   1.90138   1.91717
 Alpha virt. eigenvalues --    1.92132   1.93430   1.94157   1.94812   1.95166
 Alpha virt. eigenvalues --    1.96323   1.96994   1.97796   1.98199   1.98859
 Alpha virt. eigenvalues --    1.99209   1.99891   2.00567   2.02343   2.03157
 Alpha virt. eigenvalues --    2.04974   2.05786   2.07678   2.08157   2.10007
 Alpha virt. eigenvalues --    2.10698   2.12775   2.13191   2.14396   2.15807
 Alpha virt. eigenvalues --    2.17339   2.18985   2.19808   2.21831   2.24858
 Alpha virt. eigenvalues --    2.26414   2.27579   2.29706   2.29969   2.31330
 Alpha virt. eigenvalues --    2.33261   2.36005   2.36371   2.38133   2.39488
 Alpha virt. eigenvalues --    2.41127   2.41197   2.42751   2.43170   2.43936
 Alpha virt. eigenvalues --    2.44421   2.45726   2.47200   2.48839   2.50124
 Alpha virt. eigenvalues --    2.51222   2.53463   2.54830   2.55203   2.57225
 Alpha virt. eigenvalues --    2.58248   2.60316   2.62313   2.63157   2.63730
 Alpha virt. eigenvalues --    2.66708   2.67144   2.68028   2.68797   2.70970
 Alpha virt. eigenvalues --    2.72979   2.74466   2.76087   2.78525   2.79912
 Alpha virt. eigenvalues --    2.82293   2.85467   2.86462   2.88555   2.89574
 Alpha virt. eigenvalues --    2.89889   2.90319   2.91319   2.92061   2.93069
 Alpha virt. eigenvalues --    2.93322   2.94499   2.95377   2.95864   2.96707
 Alpha virt. eigenvalues --    2.97351   2.98235   2.98983   3.02391   3.03019
 Alpha virt. eigenvalues --    3.05595   3.06543   3.07563   3.08747   3.10533
 Alpha virt. eigenvalues --    3.10953   3.12465   3.15179   3.17393   3.24157
 Alpha virt. eigenvalues --    3.26874   3.30573   3.49113   3.61500
     Molecular Orbital Coefficients:
                          64        65        66        67        68
                           O         O         O         O         O
     Eigenvalues --    -0.31150  -0.26569  -0.25286  -0.22810  -0.20776
   1 1   C  1S          0.00415  -0.02429   0.01643  -0.01117   0.00865
   2        2S         -0.01188   0.06061  -0.03619   0.02784  -0.02185
   3        3S          0.01262   0.12360  -0.07329   0.00468  -0.00773
   4        4PX        -0.02354  -0.00822  -0.02130  -0.00557  -0.00954
   5        4PY         0.06759  -0.16432   0.07548  -0.02339   0.00917
   6        4PZ         0.05612  -0.00723  -0.00003   0.08469  -0.03638
   7        5PX        -0.00072  -0.02282  -0.01037  -0.02179  -0.00344
   8        5PY         0.03606  -0.12623   0.06443  -0.01406   0.00217
   9        5PZ         0.02428   0.00684  -0.00112   0.01604   0.00230
  10        6D 0       -0.00680  -0.00084  -0.00032  -0.01476   0.00666
  11        6D+1       -0.00874   0.00116  -0.00179  -0.01065   0.00368
  12        6D-1       -0.00171  -0.00320   0.00121   0.00366  -0.00220
  13        6D+2        0.00689   0.00059   0.00042   0.00601  -0.00293
  14        6D-2       -0.00127   0.00356  -0.00267  -0.00009  -0.00036
  15 2   C  1S         -0.01132   0.02669  -0.01185   0.00374  -0.00180
  16        2S          0.03119  -0.06257   0.03340  -0.01080   0.01068
  17        3S         -0.00711  -0.05639   0.01645   0.01063  -0.04190
  18        4PX        -0.05478  -0.14388   0.05820   0.00437  -0.00522
  19        4PY        -0.06082   0.11773  -0.05402   0.02225  -0.00924
  20        4PZ         0.11109   0.02530  -0.01318  -0.09578   0.05692
  21        5PX        -0.02478  -0.07114   0.01902  -0.03400   0.03111
  22        5PY        -0.03775  -0.00367  -0.00432   0.00308  -0.00752
  23        5PZ         0.03444   0.01226  -0.01347  -0.02540  -0.01699
  24        6D 0        0.00007  -0.00027   0.00045   0.00084  -0.00105
  25        6D+1       -0.00967  -0.00576   0.00335   0.01512  -0.01176
  26        6D-1        0.00023  -0.00389   0.00184   0.00344  -0.00122
  27        6D+2        0.00340  -0.01811   0.00897  -0.00533   0.00325
  28        6D-2        0.00114  -0.01056   0.00510  -0.00274   0.00094
  29 3   H  1S         -0.04518  -0.07215   0.03909   0.09475  -0.06561
  30        2S         -0.03661  -0.03321   0.01638   0.06277  -0.05320
  31        3PX        -0.00158  -0.00252   0.00120   0.00051  -0.00055
  32        3PY        -0.00312   0.00177  -0.00054   0.00208  -0.00169
  33        3PZ         0.00097  -0.00240   0.00105   0.00120  -0.00074
  34 4   N  1S         -0.00665   0.09519  -0.04613   0.00563  -0.00272
  35        2S         -0.01481   0.19720  -0.09946   0.00737  -0.00289
  36        3S         -0.00593   0.23515  -0.08222   0.05047  -0.04660
  37        4PX        -0.02383  -0.19704   0.08518   0.03409  -0.02711
  38        4PY        -0.03919   0.39033  -0.19799   0.07413  -0.03552
  39        4PZ         0.12809   0.03512  -0.02575  -0.28052   0.21288
  40        5PX         0.01656   0.11605  -0.01325  -0.03778   0.02887
  41        5PY         0.02702  -0.28169   0.12850  -0.04619   0.01173
  42        5PZ        -0.07700  -0.03269   0.02403   0.21957  -0.15692
  43        6D 0       -0.00377   0.01117  -0.00546   0.00417  -0.00209
  44        6D+1       -0.00348  -0.00176   0.00062   0.00261  -0.00017
  45        6D-1       -0.00945  -0.00419   0.00217   0.01371  -0.01029
  46        6D+2       -0.00209   0.01109  -0.00550   0.00176  -0.00109
  47        6D-2        0.00303   0.00919  -0.00567  -0.00214   0.00091
  48 5   C  1S         -0.00974   0.05209  -0.00236  -0.00441   0.00383
  49        2S          0.02366  -0.13576   0.00780   0.01277  -0.00732
  50        3S         -0.00931   0.03876  -0.23827  -0.03731  -0.01918
  51        4PX        -0.01421   0.00538  -0.08963  -0.02975   0.00294
  52        4PY         0.03814   0.09845  -0.03608   0.02032   0.00540
  53        4PZ        -0.19392  -0.01477  -0.00364   0.11378  -0.06561
  54        5PX        -0.01047   0.07430  -0.24531  -0.00463  -0.04378
  55        5PY         0.03697  -0.08326   0.11376  -0.02332  -0.00479
  56        5PZ        -0.14291  -0.01729  -0.01540   0.08972  -0.07635
  57        6D 0        0.00313  -0.00191  -0.00062  -0.00729   0.00598
  58        6D+1        0.01519  -0.00477   0.00267   0.00236   0.00654
  59        6D-1       -0.00301   0.00259  -0.00102  -0.03212   0.01605
  60        6D+2       -0.00434  -0.02633   0.00778  -0.00605  -0.00010
  61        6D-2       -0.00349  -0.01588   0.00759   0.00188  -0.00338
  62 6   N  1S         -0.01196   0.03218  -0.00829  -0.02326   0.00982
  63        2S         -0.02473   0.07145  -0.01692  -0.04558   0.02414
  64        3S         -0.02976   0.17334  -0.10305  -0.09305  -0.02501
  65        4PX        -0.06010  -0.05913  -0.00806  -0.07971   0.02697
  66        4PY         0.01848   0.10390  -0.03795   0.02571   0.00193
  67        4PZ         0.21648  -0.00327   0.01975   0.37003  -0.17138
  68        5PX         0.05454   0.07618   0.00040   0.04297  -0.03219
  69        5PY         0.00548  -0.07119   0.06204  -0.05516  -0.00935
  70        5PZ        -0.16190   0.00374  -0.01148  -0.33586   0.15713
  71        6D 0        0.00157   0.00057  -0.00026   0.00220  -0.00013
  72        6D+1       -0.00438  -0.00110  -0.00079  -0.00360   0.00042
  73        6D-1        0.00895   0.00271  -0.00135   0.00061  -0.00013
  74        6D+2        0.00143   0.00098  -0.00233  -0.00035  -0.00086
  75        6D-2       -0.00274   0.00201  -0.00069  -0.00040  -0.00176
  76 7   C  1S         -0.00757   0.00723   0.00039  -0.00419   0.01628
  77        2S          0.02313  -0.02238  -0.00034   0.00138  -0.04943
  78        3S         -0.01642  -0.02966  -0.02545   0.11770  -0.00510
  79        4PX         0.01777  -0.01503  -0.01530  -0.05404  -0.02429
  80        4PY         0.01086   0.05054  -0.02812  -0.01846   0.01171
  81        4PZ         0.11835  -0.00950  -0.00502   0.04622  -0.04868
  82        5PX         0.02330   0.00927  -0.00835   0.00411  -0.02314
  83        5PY         0.02694   0.03690  -0.01509  -0.08678  -0.04395
  84        5PZ         0.04461  -0.01652  -0.01703   0.01813   0.00969
  85        6D 0       -0.00904  -0.00030  -0.00108  -0.00731   0.00609
  86        6D+1        0.00737  -0.00136   0.00069   0.01087  -0.00624
  87        6D-1        0.00859   0.00110   0.00109   0.01521  -0.00635
  88        6D+2       -0.00106  -0.00427   0.00022  -0.00460   0.00090
  89        6D-2       -0.00093  -0.00334   0.00319  -0.00328  -0.00095
  90 8   C  1S         -0.00731   0.00735   0.00365  -0.00976   0.00996
  91        2S          0.02333  -0.02263  -0.01251   0.03356  -0.02774
  92        3S          0.00239  -0.02612   0.00434  -0.07776  -0.04864
  93        4PX        -0.01856   0.02599  -0.00780  -0.05006   0.00127
  94        4PY         0.01802   0.02135   0.05435  -0.00527   0.00087
  95        4PZ        -0.11790   0.01089  -0.00181   0.01540   0.06354
  96        5PX        -0.01978  -0.00544  -0.02267  -0.00829   0.02367
  97        5PY         0.02333   0.01105   0.03526   0.08530   0.00805
  98        5PZ        -0.04638   0.01673  -0.00163   0.03235   0.00047
  99        6D 0       -0.00967  -0.00128  -0.00004   0.00364   0.00969
 100        6D+1        0.00745  -0.00022   0.00005  -0.00648  -0.01199
 101        6D-1       -0.00727  -0.00181  -0.00092   0.00970   0.01270
 102        6D+2       -0.00133  -0.00322  -0.00314   0.00443   0.00395
 103        6D-2        0.00048   0.00064   0.00443  -0.00323  -0.00125
 104 9   N  1S          0.00163   0.01987   0.02776   0.00791   0.01066
 105        2S          0.00238   0.04589   0.06138   0.01154   0.02199
 106        3S          0.03957   0.06026   0.19954   0.09702   0.04884
 107        4PX         0.05003   0.04685   0.02528  -0.04904  -0.06758
 108        4PY         0.05195   0.05891   0.09906  -0.05424  -0.06376
 109        4PZ        -0.21142  -0.01518  -0.00711   0.21930   0.33218
 110        5PX        -0.03867  -0.05412  -0.04385   0.01849   0.07187
 111        5PY        -0.03917  -0.01823  -0.09307   0.07310   0.05718
 112        5PZ         0.16050   0.01374  -0.00201  -0.19967  -0.30096
 113        6D 0       -0.00432  -0.00008  -0.00000  -0.00041   0.00038
 114        6D+1       -0.00241  -0.00136  -0.00017   0.00227   0.00206
 115        6D-1       -0.00887  -0.00083  -0.00289   0.00031  -0.00033
 116        6D+2       -0.00117  -0.00087   0.00312   0.00034  -0.00054
 117        6D-2        0.00279  -0.00095  -0.00175  -0.00220  -0.00069
 118 10  C  1S         -0.00501   0.03798   0.03576   0.00453   0.00492
 119        2S          0.01480  -0.09691  -0.09620  -0.01210  -0.01117
 120        3S          0.01072  -0.12096   0.20397  -0.01519   0.03884
 121        4PX         0.00266   0.05412  -0.08147  -0.00865  -0.02674
 122        4PY        -0.04625   0.05041   0.08428  -0.02012  -0.02249
 123        4PZ         0.19343   0.02273   0.01025   0.05413   0.11042
 124        5PX        -0.03057   0.10200  -0.22129  -0.01209  -0.05706
 125        5PY        -0.04155   0.00905  -0.15834  -0.00735  -0.01730
 126        5PZ         0.13564   0.02609  -0.05951   0.03830   0.09766
 127        6D 0        0.00627  -0.00056   0.00013  -0.00721  -0.00663
 128        6D+1        0.01414  -0.00052  -0.00389  -0.00310   0.00811
 129        6D-1        0.00437   0.00606   0.00932  -0.01883  -0.02970
 130        6D+2       -0.00435  -0.01495  -0.02404  -0.00276  -0.01057
 131        6D-2       -0.00348   0.00395   0.01205   0.00398   0.00665
 132 11  N  1S         -0.00406   0.04023   0.09589   0.00173   0.00701
 133        2S         -0.00575   0.08031   0.19931   0.00291   0.01736
 134        3S         -0.03320   0.11785   0.22424   0.01278   0.00471
 135        4PX         0.05890   0.07422   0.14658   0.04117   0.10349
 136        4PY        -0.00148   0.16294   0.41508   0.02392   0.09375
 137        4PZ        -0.11661   0.05545   0.12865  -0.13131  -0.32588
 138        5PX        -0.03545  -0.06187  -0.05163  -0.03306  -0.08427
 139        5PY        -0.00240  -0.13119  -0.28948  -0.01906  -0.07508
 140        5PZ         0.06705  -0.04299  -0.07980   0.11258   0.25047
 141        6D 0        0.00012   0.00418   0.00990   0.00092   0.00460
 142        6D+1       -0.00531  -0.00152  -0.00374  -0.00281  -0.00395
 143        6D-1        0.00910  -0.00323  -0.00832   0.00624   0.01498
 144        6D+2        0.00133   0.00471   0.01252   0.00174   0.00447
 145        6D-2       -0.00395  -0.00179  -0.00668  -0.00124  -0.00405
 146 12  C  1S         -0.01045   0.01420   0.02995  -0.00161  -0.00202
 147        2S          0.02805  -0.03089  -0.07619   0.00390   0.00942
 148        3S          0.01149  -0.03317  -0.05591   0.01236   0.00451
 149        4PX         0.09417   0.05876   0.11367   0.01765   0.03594
 150        4PY        -0.03530   0.05148   0.11820   0.01430   0.03323
 151        4PZ        -0.10881   0.03365   0.06451  -0.04409  -0.08565
 152        5PX         0.01264   0.03997   0.06984   0.01358  -0.01992
 153        5PY        -0.01424  -0.00483  -0.00368   0.01161   0.00638
 154        5PZ        -0.03173   0.01213   0.01517  -0.02686  -0.01521
 155        6D 0       -0.00576   0.00029  -0.00002  -0.00427  -0.01154
 156        6D+1       -0.00810  -0.00151  -0.00372  -0.00541  -0.01448
 157        6D-1        0.00051   0.00204   0.00586   0.00303   0.00531
 158        6D+2        0.00432  -0.00802  -0.01949   0.00224   0.00462
 159        6D-2       -0.00150   0.00430   0.01027   0.00036   0.00346
 160 13  H  1S         -0.07192  -0.00562  -0.02691  -0.05969  -0.13615
 161        2S         -0.05150   0.00595   0.00317  -0.03840  -0.10766
 162        3PX         0.00247   0.00027   0.00071  -0.00056  -0.00082
 163        3PY        -0.00348   0.00138   0.00262  -0.00100  -0.00263
 164        3PZ         0.00034   0.00098   0.00233   0.00110   0.00249
 165 14  C  1S          0.00133  -0.00755  -0.03075  -0.00178  -0.00327
 166        2S         -0.00250   0.02201   0.07293   0.00632   0.01091
 167        3S         -0.00919   0.04522   0.15008   0.00593   0.00242
 168        4PX         0.02056   0.02738  -0.00562  -0.01048  -0.00241
 169        4PY         0.04345  -0.07265  -0.16728  -0.01450  -0.03776
 170        4PZ        -0.05361  -0.01522  -0.03314   0.04984   0.06546
 171        5PX         0.01792   0.02459   0.00958  -0.00844   0.02022
 172        5PY         0.03582  -0.05359  -0.13955  -0.00680  -0.02279
 173        5PZ        -0.01815  -0.00442  -0.01648   0.02202   0.01988
 174        6D 0       -0.00465  -0.00145  -0.00362   0.00510   0.00726
 175        6D+1       -0.01049  -0.00129  -0.00042   0.01011   0.01388
 176        6D-1        0.00174  -0.00090  -0.00196   0.00218   0.00367
 177        6D+2        0.00510   0.00083   0.00139  -0.00259  -0.00459
 178        6D-2        0.00093  -0.00015  -0.00349  -0.00272  -0.00454
 179 15  C  1S         -0.00793   0.00374   0.00923  -0.01036  -0.02249
 180        2S          0.01504  -0.00769  -0.01543   0.02766   0.05761
 181        3S          0.08159  -0.04948  -0.13656   0.02130   0.10731
 182        4PX        -0.10529   0.00008   0.01734  -0.03853  -0.08281
 183        4PY         0.00983  -0.01829  -0.03305   0.01412   0.02712
 184        4PZ         0.10566  -0.01871  -0.03725   0.02500   0.04962
 185        5PX        -0.04478  -0.00560   0.00348  -0.01415  -0.03406
 186        5PY         0.04010   0.00758   0.01729   0.00508   0.04856
 187        5PZ         0.06688  -0.02924  -0.06144   0.00724   0.03485
 188        6D 0       -0.00239   0.00059   0.00072  -0.00080  -0.00172
 189        6D+1       -0.00578   0.00005   0.00091  -0.00102  -0.00225
 190        6D-1        0.00460   0.00041   0.00120   0.00117   0.00264
 191        6D+2        0.00292  -0.00275  -0.00507   0.00000  -0.00063
 192        6D-2       -0.00399  -0.00125  -0.00209  -0.00103  -0.00259
 193 16  C  1S          0.00446   0.00520   0.00683   0.00008   0.00174
 194        2S         -0.00975  -0.01243  -0.01772  -0.00012  -0.00391
 195        3S         -0.04827   0.00551   0.03230   0.00445  -0.02064
 196        4PX         0.05856   0.01853   0.02057   0.01199   0.02869
 197        4PY        -0.01216   0.00165   0.00721   0.00472   0.00498
 198        4PZ        -0.02602   0.00745   0.01344   0.00253   0.01006
 199        5PX         0.04150   0.00228  -0.00669   0.01152   0.03618
 200        5PY        -0.01139  -0.00438  -0.00750   0.00497   0.00598
 201        5PZ        -0.00221   0.00558   0.01159   0.00739   0.02473
 202        6D 0       -0.00288   0.00006   0.00009  -0.00090  -0.00175
 203        6D+1       -0.00521  -0.00052  -0.00029  -0.00093  -0.00200
 204        6D-1        0.00061   0.00034   0.00076  -0.00010  -0.00032
 205        6D+2        0.00269  -0.00065  -0.00146   0.00105   0.00189
 206        6D-2       -0.00132  -0.00006   0.00024  -0.00051  -0.00118
 207 17  C  1S          0.00031  -0.00032   0.00058  -0.00105  -0.00284
 208        2S         -0.00183   0.00232  -0.00113   0.00171   0.00532
 209        3S          0.01695   0.00295   0.02619   0.00820   0.03599
 210        4PX         0.03149   0.01859   0.04016   0.00125   0.00179
 211        4PY        -0.00661   0.02240   0.04184  -0.00462  -0.00459
 212        4PZ        -0.05455   0.01519   0.03026  -0.00340  -0.00545
 213        5PX         0.01287   0.01652   0.02297  -0.00412  -0.00653
 214        5PY         0.00118   0.02899   0.06405  -0.00746  -0.00352
 215        5PZ        -0.02653   0.02358   0.04895  -0.00140  -0.00314
 216        6D 0       -0.00104  -0.00033  -0.00088   0.00002  -0.00016
 217        6D+1       -0.00219  -0.00085  -0.00154  -0.00037  -0.00092
 218        6D-1        0.00497  -0.00062  -0.00120   0.00087   0.00184
 219        6D+2        0.00218  -0.00075  -0.00099   0.00002  -0.00025
 220        6D-2       -0.00349  -0.00026  -0.00032  -0.00103  -0.00222
 221 18  C  1S         -0.00808  -0.00008   0.00001   0.02228  -0.01538
 222        2S          0.01541   0.00504  -0.00311  -0.05547   0.03625
 223        3S          0.06557  -0.07427   0.04275  -0.10728   0.11627
 224        4PX         0.08393   0.03631  -0.01010  -0.06436   0.04542
 225        4PY         0.04849  -0.02361   0.00796  -0.02893   0.01778
 226        4PZ        -0.09697  -0.00611   0.00388   0.09741  -0.05950
 227        5PX         0.02841   0.03103  -0.00352  -0.02403   0.01858
 228        5PY         0.04873   0.03575  -0.01954  -0.02152   0.03220
 229        5PZ        -0.05099   0.02825  -0.00869   0.08631  -0.06750
 230        6D 0        0.00269  -0.00012   0.00031  -0.00018   0.00021
 231        6D+1       -0.00567   0.00025  -0.00016   0.00347  -0.00225
 232        6D-1       -0.00326  -0.00350   0.00160   0.00336  -0.00227
 233        6D+2        0.00118  -0.00532   0.00197   0.00007  -0.00057
 234        6D-2        0.00347   0.00267  -0.00093  -0.00106   0.00098
 235 19  C  1S          0.00699   0.00920  -0.00227   0.00091   0.00115
 236        2S         -0.01605  -0.02185   0.00605  -0.00252  -0.00186
 237        3S         -0.04674   0.00570  -0.00698   0.01402  -0.03137
 238        4PX        -0.05979  -0.04765   0.01409   0.02505  -0.02103
 239        4PY        -0.03387   0.00782  -0.00532  -0.00982   0.00260
 240        4PZ         0.03111  -0.00373   0.00301  -0.00510   0.00130
 241        5PX        -0.03891  -0.01739   0.00633   0.03894  -0.03415
 242        5PY        -0.01991  -0.00901   0.00401  -0.00732   0.00244
 243        5PZ         0.01081  -0.01171   0.00686   0.00103  -0.00368
 244        6D 0        0.00124  -0.00007   0.00016   0.00070  -0.00033
 245        6D+1       -0.00509  -0.00183   0.00056   0.00365  -0.00228
 246        6D-1       -0.00018  -0.00096   0.00034   0.00012  -0.00001
 247        6D+2        0.00153  -0.00118   0.00042  -0.00133   0.00065
 248        6D-2        0.00269  -0.00025   0.00020  -0.00096   0.00073
 249 20  C  1S          0.00361   0.00073  -0.00062   0.00370  -0.00283
 250        2S         -0.00950  -0.00134   0.00381  -0.00752   0.00761
 251        3S          0.00285   0.02429  -0.03356  -0.02339   0.00895
 252        4PX        -0.00765  -0.06331   0.02550  -0.01574   0.00935
 253        4PY        -0.03681   0.03830  -0.01468   0.01086  -0.00389
 254        4PZ         0.05136  -0.00789   0.00195  -0.01906   0.00927
 255        5PX        -0.00235  -0.04745   0.00910  -0.01937   0.00370
 256        5PY        -0.01546   0.05900  -0.02675   0.02316  -0.00910
 257        5PZ         0.02576  -0.03840   0.01491  -0.02052   0.01160
 258        6D 0        0.00119   0.00036   0.00003  -0.00060   0.00043
 259        6D+1       -0.00226  -0.00245   0.00099   0.00003  -0.00013
 260        6D-1       -0.00382  -0.00097   0.00055   0.00317  -0.00189
 261        6D+2        0.00108  -0.00183   0.00039   0.00005  -0.00051
 262        6D-2        0.00272   0.00143  -0.00053  -0.00102   0.00071
 263 21  H  1S          0.08202  -0.05348   0.03931   0.09375  -0.03681
 264        2S          0.04008  -0.05810   0.03460   0.06232  -0.02693
 265        3PX         0.00151  -0.00273   0.00090   0.00064  -0.00026
 266        3PY        -0.00066  -0.00350   0.00133  -0.00267   0.00122
 267        3PZ        -0.00131   0.00151  -0.00108   0.00054  -0.00032
 268 22  H  1S         -0.05259  -0.01161   0.00246  -0.13024   0.05886
 269        2S         -0.03503  -0.01208   0.00709  -0.11848   0.06078
 270        3PX        -0.00056   0.00040  -0.00050   0.00079  -0.00018
 271        3PY         0.00306  -0.00371   0.00170   0.00127  -0.00025
 272        3PZ        -0.00043  -0.00145   0.00050  -0.00200   0.00059
 273 23  H  1S          0.05167   0.04500  -0.01679   0.07139  -0.01503
[...]
 0.00000330,0.00000399,-0.00000630,0.00000175,0.00000134,-0.00000282,-0
 .00000281,-0.00000135,0.00000152,0.00000225,-0.00000002,-0.00000021,0.
 00000081,-0.00032476,0.00564828,-0.00328823,-0.01671232,0.06156740,-0.
 06188254,-0.00154004,-0.00010670,0.00006096,0.00025740,0.00000646,0.00
 022864,0.00015185,-0.00002546,-0.00010130,-0.00000020,-0.00001663,0.00
 001038,-0.00000237,-0.00001443,0.00000072,0.00000143,-0.00000519,-0.00
 001477,-0.00000362,-0.00000454,-0.00000339,-0.00000315,-0.00000149,0.0
 0000047,-0.00000345,-0.00000172,-0.00000418,0.00000038,0.00000012,0.00
 000019,0.00000025,0.00000057,-0.00000079,0.00000052,-0.00000136,-0.000
 00010,-0.00000220,0.00000030,0.00000022,0.00000164,-0.00000012,0.00000
 018,-0.00000249,0.00000009,0.00000098,0.00000135,-0.00000168,-0.000002
 64,0.00017229,0.00031609,0.00000874,0.00663105,-0.02238289,0.00686539,
 0.01885170,-0.06854528,0.06192619,-0.00028092,0.00035879,-0.00003006,-
 0.00515882,0.00172634,-0.00350309,0.00019993,0.00023922,-0.00017035,-0
 .00127681,-0.00141587,0.00155936,-0.00076884,0.00113910,0.00009114,0.0
 0059443,-0.00060706,-0.00000400,0.00011188,0.00021494,0.00000756,-0.00
 003292,0.00004137,0.00004274,-0.00016691,-0.00000867,-0.00003805,0.000
 38675,-0.00004468,-0.00021667,-0.00021366,0.00002102,-0.00000679,0.000
 07078,0.00002520,0.00003558,-0.00004034,-0.00001419,-0.00002858,0.0000
 3467,-0.00002302,0.00003018,0.00000558,-0.00002775,-0.00003507,-0.0000
 1380,0.00001358,0.00001895,-0.00000561,-0.00000633,0.00001145,-0.01677
 074,-0.00824721,0.02666694,-0.12153619,-0.03862239,0.11810838,0.001272
 58,-0.00140354,0.00117478,0.00013761,-0.00009666,-0.00009911,0.0000379
 3,-0.00010964,0.00008958,0.00000041,-0.00003698,0.00000460,-0.00004226
 ,-0.00004611,0.00004380,0.00001139,-0.00000645,-0.00001637,-0.00001709
 ,-0.00001520,-0.00000432,-0.00002301,-0.00000725,-0.00000100,-0.000013
 58,-0.00001080,-0.00001335,0.00000374,0.00000317,-0.00000116,0.0000007
 2,0.00000082,-0.00000528,0.00000676,0.00000088,0.00000018,-0.00001551,
 0.00000110,-0.00000016,0.00000086,-0.00000038,-0.00000684,-0.00001215,
 0.00000704,0.00000308,0.00000852,-0.00001255,-0.00000619,0.00109201,-0
 .00043253,-0.00017729,0.00383329,0.00288791,-0.00748979,0.00380572,0.0
 0202761,-0.00753632,0.13430479,-0.00002099,0.00008250,-0.00025218,0.00
 044395,-0.00035763,-0.00005611,0.00000185,-0.00000010,0.00027896,0.000
 28734,0.00040868,0.00008878,0.00003995,-0.00025325,-0.00003257,-0.0003
 1522,0.00018621,0.00019614,0.00000438,0.00010772,-0.00003668,-0.000005
 30,-0.00000412,0.00003388,-0.00002293,-0.00000627,-0.00001112,0.000041
 16,0.00006070,-0.00003869,-0.00005148,-0.00000301,-0.00000717,0.000010
 68,0.00000370,0.00001456,-0.00000577,-0.00000031,-0.00000473,0.0000159
 7,0.00000128,0.00000656,0.00000056,-0.00000496,-0.00000816,-0.00000300
 ,0.00000254,0.00000472,-0.00000111,-0.00000117,0.00000215,0.00148036,-
 0.00094218,-0.00257945,-0.03949404,-0.06446390,0.05964574,0.00076102,0
 .00052443,-0.00111224,0.00013470,0.00044052,0.00017312,0.00000572,-0.0
 0001034,-0.00004032,0.00001238,-0.00000592,0.00001011,-0.00000047,-0.0
 0001102,0.00000337,0.00000027,-0.00000050,-0.00001241,-0.00001163,-0.0
 0000394,-0.00000702,-0.00000482,-0.00000271,0.00000040,-0.00000395,-0.
 00000345,-0.00000499,0.00000070,0.00000005,-0.00000034,0.00000029,0.00
 000078,-0.00000140,0.00000156,-0.00000083,0.00000003,-0.00000390,0.000
 00053,0.00000012,0.00000153,0.00000012,-0.00000043,-0.00000346,0.00000
 120,0.00000122,0.00000200,-0.00000241,-0.00000303,-0.00029555,0.000028
 56,0.00028973,0.01129241,0.00528848,-0.01542077,-0.01611557,-0.0065191
 4,0.02325457,0.04181563,0.06548514,-0.00022198,-0.00004110,-0.00000510
 ,-0.00117220,0.00020058,0.00026023,-0.00016816,0.00013774,0.00047196,-
 0.00030996,0.00009366,0.00050825,-0.00008277,0.00008304,-0.00002096,0.
 00023133,-0.00000118,0.00005201,-0.00000353,-0.00007851,0.00002530,-0.
 00000540,0.00001482,-0.00001888,0.00003633,-0.00001872,0.00001805,0.00
 000224,0.00001994,-0.00008237,0.00004349,-0.00000023,0.00001050,-0.000
 01785,0.00000258,-0.00000574,0.00000674,0.00000039,0.00000580,-0.00002
 210,-0.00000132,0.00000252,-0.00000408,0.00000445,0.00000650,0.0000027
 0,-0.00000249,-0.00000482,0.00000116,0.00000085,-0.00000369,-0.0056219
 4,-0.00197032,0.00581495,0.11962915,0.05919635,-0.22612263,-0.00052197
 ,-0.00025496,0.00039309,0.00005358,-0.00007187,-0.00008400,0.00000535,
 -0.00001802,0.00003561,-0.00000532,0.00000285,-0.00000355,0.00000447,0
 .00001216,-0.00000850,0.00000124,-0.00000387,0.00000489,0.00001138,0.0
 0000217,0.00000220,0.00000420,0.00000363,-0.00000206,0.00000485,0.0000
 0289,0.00000432,-0.00000044,-0.00000138,0.00000092,-0.00000058,-0.0000
 0048,0.00000215,-0.00000228,0.00000014,0.00000012,0.00000453,-0.000000
 73,-0.00000095,-0.00000107,0.00000029,0.00000213,0.00000450,-0.0000017
 3,-0.00000171,-0.00000282,0.00000371,0.00000238,0.00046317,-0.00011523
 ,0.00079255,0.01205589,0.00777143,-0.01648467,0.00277505,0.00005378,-0
 .00491224,-0.12740526,-0.06464481,0.23903073,-0.00000797,-0.00005397,0
 .00003135,0.00042174,-0.00073666,-0.00049253,0.00009972,-0.00012800,-0
 .00005022,0.00006211,0.00038668,0.00030525,-0.00016857,0.00008973,-0.0
 0010056,0.00001369,0.00011522,0.00001953,-0.00002773,0.00002139,0.0000
 1589,0.00001049,-0.00001004,-0.00001499,0.00001358,0.00002967,0.000010
 07,0.00001374,-0.00001317,-0.00000600,-0.00000101,0.00002381,0.0000536
 9,-0.00000391,0.00000874,-0.00001959,0.00000867,-0.00000263,0.00000406
 ,0.00000102,0.00000787,-0.00000544,0.00000736,-0.00001056,0.00000084,-
 0.00000335,0.00000648,0.00000022,-0.00000938,0.00000100,-0.00000644,-0
 .00038331,0.00368176,0.00624713,0.00074596,0.00040486,0.00123404,-0.05
 000843,-0.01997541,-0.02706169,-0.00000593,0.00003355,0.00003290,0.000
 00499,-0.00002726,-0.00000127,0.00000317,0.00001174,-0.00000072,0.0000
 0011,-0.00000231,0.00000304,-0.00000390,0.00000552,0.00000617,0.000000
 97,0.00000202,0.00000226,0.00000112,-0.00000157,0.00000235,0.00000290,
 0.00000581,0.00000334,-0.00000272,0.00000030,0.00000242,0.00000113,-0.
 00000181,0.00000105,0.00000240,0.00000381,0.00000102,-0.00000132,-0.00
 000107,0.00000024,-0.00000021,-0.00000148,-0.00000091,0.00000133,0.000
 00238,0.00000146,-0.00000143,-0.00000380,0.00000474,0.00042144,0.00129
 981,-0.00029657,-0.00000879,-0.00002366,-0.00038331,0.00002714,-0.0002
 5789,-0.00017068,0.00003124,0.00004723,0.00004051,0.04743721,0.0004384
 6,0.00014885,0.00016653,0.00014872,0.00103053,-0.00215698,-0.00013789,
 -0.00003274,0.00112616,-0.00005895,0.00013459,0.00043299,0.00009474,-0
 .00010101,-0.00015514,-0.00007583,0.00035664,0.00020619,0.00004468,0.0
 0004503,0.00001770,0.00003321,-0.00001258,-0.00003017,0.00000064,0.000
 04809,0.00001597,0.00001660,-0.00004237,-0.00005753,-0.00001271,0.0000
 3260,0.00002073,-0.00000201,0.00000358,-0.00000501,-0.00000096,-0.0000
 0258,-0.00000091,0.00000983,0.00000735,0.00000086,0.00000288,-0.000004
 02,-0.00000374,-0.00000223,0.00000253,0.00000163,-0.00000453,-0.000001
 60,-0.00000113,-0.00470144,-0.02003391,-0.02508921,-0.00147068,0.00106
 285,-0.00062794,-0.01996508,-0.14294308,-0.12793472,-0.00008125,0.0001
 9188,-0.00004567,-0.00008658,-0.00005420,0.00007094,0.00000110,0.00001
 015,-0.00000726,-0.00001023,-0.00001524,0.00000878,-0.00000175,0.00001
 287,0.00001531,-0.00000072,0.00000280,0.00000928,-0.00000156,-0.000000
 95,0.00000149,0.00000222,0.00000185,0.00000191,-0.00000062,-0.00000058
 ,0.00000084,0.00000054,-0.00000068,0.00000024,0.00000175,0.00000195,0.
 00000024,-0.00000170,0.00000003,0.00000008,-0.00000003,0.00000011,0.00
 000007,-0.00000018,0.00000210,0.00000049,-0.00000037,-0.00000071,0.000
 00062,0.00192856,-0.00563764,0.00203195,0.00081582,0.00030646,0.000541
 08,-0.00006007,0.00027152,0.00040314,0.00001723,-0.00002342,0.00009053
 ,0.02052831,0.15800751,-0.00013243,-0.00000171,0.00011585,0.00068510,0
 .00080181,0.00132288,-0.00041797,-0.00055046,0.00014166,-0.00024200,-0
 .00019375,0.00015678,-0.00010673,0.00027049,0.00003106,0.00011329,-0.0
 0010944,-0.00003826,0.00003206,0.00008538,-0.00003986,0.00000432,-0.00
 000908,-0.00000552,-0.00003194,0.00001981,-0.00000099,0.00007185,0.000
 00982,0.00002230,-0.00007441,0.00001333,0.00002709,0.00002721,0.000010
 37,-0.00000767,-0.00000556,-0.00000632,-0.00000591,0.00001968,0.000002
 60,-0.00000251,0.00000908,-0.00001537,-0.00000988,-0.00000654,0.000008
 63,0.00000625,-0.00000734,0.00000009,0.00000102,0.00076150,0.00552004,
 0.00672786,0.00035825,0.00035284,0.00061156,-0.02703924,-0.12890383,-0
 .21473313,0.00005977,-0.00001694,-0.00006645,0.00004317,-0.00007711,0.
 00000050,0.00000066,-0.00000714,-0.00000075,-0.00001095,-0.00000969,0.
 00002096,0.00000016,0.00000529,0.00000349,-0.00000873,-0.00000338,0.00
 000204,-0.00000596,-0.00000523,0.00000442,-0.00000152,0.00000129,-0.00
 000170,-0.00000100,0.00000160,0.00000181,0.00000169,-0.00000140,-0.000
 00135,0.00000440,0.00000275,0.00000020,-0.00000727,0.00000011,0.000001
 24,0.00000107,-0.00000202,-0.00000331,-0.00000623,0.00000359,0.0000028
 1,0.00000416,-0.00000765,-0.00000040,-0.00016197,0.00205220,0.00072062
 ,0.00039190,-0.00040371,0.00007280,0.00019487,0.00000730,0.00012938,-0
 .00010450,-0.00003222,-0.00009493,0.02901579,0.13895908,0.22732002,0.0
 0017406,0.00026838,-0.00031309,-0.00084398,0.00186094,-0.00082976,-0.0
 0007130,-0.00003410,0.00012267,-0.00067577,-0.00108521,0.00101003,0.00
 032234,0.00064558,0.00028832,0.00027970,-0.00060777,-0.00029274,0.0001
 6568,0.00013440,-0.00002360,-0.00002346,0.00003800,0.00002713,-0.00008
 304,-0.00006121,-0.00003456,0.00012268,0.00015795,0.00007281,-0.000143
 00,-0.00005311,-0.00000987,0.00007167,0.00000188,0.00003315,-0.0000225
 3,-0.00000336,-0.00001804,0.00003044,-0.00001376,0.00000734,0.00000465
 ,-0.00001219,-0.00002372,-0.00000720,0.00000564,0.00001466,-0.00000066
 ,-0.00000215,0.00001392,0.00336797,0.00344305,-0.00739612,0.00096437,0
 .00072725,-0.00113310,-0.14523946,-0.05199792,0.12220869,0.00005187,-0
 .00006257,0.00001647,0.00001184,0.00011077,-0.00002996,-0.00000754,-0.
 00004415,0.00000677,-0.00004161,-0.00003071,0.00003115,0.00001330,-0.0
 0000660,-0.00001136,-0.00000961,-0.00001073,0.00000042,-0.00001346,-0.
 00000792,0.00000149,-0.00001095,-0.00001063,-0.00001113,0.00000196,0.0
 0000231,-0.00000159,0.00000061,0.00000161,-0.00000490,0.00000366,-0.00
 000140,-0.00000053,-0.00001090,0.00000108,0.00000041,0.00000426,-0.000
 00088,-0.00000372,-0.00001245,0.00000234,0.00000267,0.00000922,-0.0000
 0830,-0.00001129,0.00004205,-0.00051627,0.00019507,-0.00001474,-0.0000
 6967,-0.00004820,0.00015445,-0.00018240,-0.00006709,0.00016598,0.00009
 911,0.00025076,0.00220428,0.00187110,-0.00464869,0.15308896,-0.0007464
 4,-0.00001608,0.00156734,0.00266844,-0.00555958,-0.00039787,0.00007022
 ,0.00001972,0.00021353,0.00041576,0.00036946,-0.00023379,-0.00002204,0
 .00006149,0.00000027,0.00000238,-0.00025944,0.00001479,-0.00003222,0.0
 0015898,-0.00006520,0.00000608,-0.00003887,0.00005032,-0.00006692,0.00
 004543,-0.00002609,0.00013392,-0.00004767,0.00001569,-0.00012262,0.000
 04794,-0.00001802,0.00002688,0.00000942,0.00001564,-0.00002463,-0.0000
 0511,-0.00001655,0.00003234,0.00000390,0.00001306,0.00000408,-0.000015
 03,-0.00001786,-0.00000732,0.00000781,0.00000996,-0.00000541,-0.000004
 25,0.00000481,-0.01870699,-0.00969570,0.02409199,-0.00157217,0.0013067
 9,0.00015670,-0.05066306,-0.07101778,0.06135172,0.00002622,0.00003599,
 -0.00004865,-0.00007828,-0.00054066,0.00009737,0.00000747,-0.00000707,
 0.00000744,-0.00000694,-0.00002031,0.00001849,-0.00000407,0.00000206,-
 0.00001410,-0.00002310,-0.00000435,-0.00001141,-0.00000910,-0.00000417
 ,-0.00000070,-0.00000853,-0.00000680,-0.00000716,0.00000210,0.00000202
 ,-0.00000186,0.00000009,0.00000055,-0.00000306,0.00000438,0.00000168,0
 .00000076,-0.00000791,0.00000029,-0.00000019,-0.00000095,0.00000052,-0
 .00000451,-0.00000478,0.00000499,0.00000148,0.00000311,-0.00000732,-0.
 00000081,-0.00042551,0.00076174,-0.00045146,0.00016270,0.00000466,-0.0
 0005483,-0.00018615,0.00015116,-0.00045350,0.00086580,0.00005272,-0.00
 027812,0.01265553,0.00619066,-0.01344291,0.05426963,0.07846940,0.00050
 503,-0.00016352,-0.00032136,-0.00091309,0.00187176,0.00100423,-0.00012
 468,-0.00023992,0.00043492,-0.00009794,-0.00001174,0.00036740,-0.00005
 425,-0.00011042,-0.00001725,0.00002523,0.00040859,-0.00004726,-0.00000
 906,-0.00013592,0.00004421,0.00000467,0.00001855,-0.00003039,0.0000657
 1,-0.00001050,0.00001747,-0.00012775,-0.00000729,-0.00000628,0.0001070
 2,-0.00001325,0.00001836,-0.00003815,-0.00000631,-0.00001450,0.0000182
 4,0.00000490,0.00001386,-0.00003227,0.00000129,-0.00000850,-0.00000449
 ,0.00001041,0.00001521,0.00000576,-0.00000522,-0.00000936,0.00000084,0
 .00000247,-0.00000780,0.00386630,0.00094502,-0.00631350,0.00073445,-0.
 00078640,0.00024939,0.12093816,0.06243008,-0.19441854,-0.00005129,0.00
 003043,0.00004780,0.00001988,0.00016009,-0.00003352,-0.00000403,0.0000
 1253,-0.00000187,0.00001509,0.00002277,-0.00002283,-0.00000137,-0.0000
 0263,0.00000820,0.00001874,0.00000579,0.00000571,0.00001003,0.00000519
 ,-0.00000205,0.00000671,0.00000568,0.00000746,-0.00000173,-0.00000237,
 0.00000127,-0.00000072,-0.00000066,0.00000359,-0.00000370,0.00000026,0
 .00000033,0.00000844,-0.00000116,-0.00000101,-0.00000104,0.00000052,0.
 00000425,0.00000807,-0.00000328,-0.00000232,-0.00000570,0.00000649,0.0
 0000414,-0.00027863,0.00025065,0.00054787,0.00005133,0.00005155,-0.000
 20250,-0.00015542,-0.00021271,0.00030170,-0.00067664,0.00033521,0.0002
 1537,0.01441410,0.00902800,-0.01576545,-0.13186523,-0.06997266,0.20576
 595,-0.00017588,-0.00001499,-0.00019715,-0.00036667,0.00032403,0.00027
 563,-0.00002447,-0.00000668,0.00005305,-0.00087187,-0.00144677,0.00135
 341,0.00016958,-0.00014771,0.00012446,0.00010892,-0.00016773,-0.000031
 48,0.00001532,-0.00002339,0.00000087,0.00001578,-0.00001063,-0.0000075
 5,0.00003066,0.00006205,0.00001777,-0.00000162,-0.00006127,0.00004982,
 0.00007982,0.00007502,-0.00007803,-0.00004406,0.00001750,-0.00002358,0
 .00000151,-0.00000459,0.00000532,-0.00001145,0.00000714,-0.00000744,-0
 .00000250,0.00000145,0.00000832,0.00000241,-0.00000147,-0.00000568,0.0
 0000299,-0.00000103,-0.00000538,-0.00447917,-0.00053659,-0.00083582,0.
 00049039,0.00208629,-0.00012359,-0.29978539,0.01811660,-0.08544996,0.0
 0000377,-0.00006311,-0.00001451,0.00000697,0.00005966,-0.00004276,-0.0
 0000595,-0.00001114,-0.00000228,-0.00000571,0.00000107,0.00000001,-0.0
 0000598,0.00000817,0.00000681,0.00000306,0.00000403,0.00000308,0.00000
 549,0.00000576,0.00000050,0.00000412,0.00000422,0.00000407,0.00000018,
 -0.00000043,0.00000104,-0.00000015,-0.00000082,0.00000192,-0.00000127,
 0.00000012,-0.00000010,0.00000379,-0.00000013,-0.00000011,-0.00000332,
 0.00000106,0.00000032,0.00000561,0.00000027,-0.00000172,-0.00000293,0.
 00000366,0.00000580,0.00047724,0.00014875,0.00011973,0.00013164,-0.000
 08839,0.00011006,-0.00037250,-0.00012829,-0.00020019,0.00027157,-0.000
 14155,-0.00006292,-0.00089957,0.00072098,0.00122099,-0.01402432,0.0013
 6798,-0.00637664,0.31925396,0.00026963,0.00003981,-0.00019946,0.000670
 04,0.00103967,-0.00031023,-0.00002384,-0.00003794,-0.00002507,-0.00022
 864,-0.00008364,-0.00030562,-0.00017949,-0.00135276,-0.00010477,-0.000
 56048,0.00075192,0.00037172,-0.00014800,-0.00020739,-0.00000256,0.0000
 1795,-0.00002116,0.00000489,0.00007647,0.00000716,0.00002318,-0.000215
 34,-0.00010094,-0.00013371,0.00018965,-0.00000090,-0.00005181,-0.00007
 964,-0.00000901,-0.00001513,0.00002301,0.00001480,0.00002247,-0.000039
 76,0.00000352,0.00000380,-0.00001484,0.00003224,0.00002907,0.00001404,
 -0.00001700,-0.00001749,0.00000986,0.00000415,-0.00001157,0.02996825,-
 0.00022324,0.00902929,0.00022430,-0.00614680,0.00176348,0.01527920,-0.
 04714964,0.00423219,0.00002001,0.00010453,0.00000230,-0.00002422,0.000
 04242,-0.00006063,0.00000906,0.00004229,-0.00000042,0.00005689,0.00004
 435,-0.00005030,-0.00001032,-0.00000470,-0.00000093,0.00001424,0.00001
 022,-0.00000678,0.00001450,0.00000993,-0.00000654,0.00000750,0.0000016
 1,0.00000742,0.00000019,-0.00000604,-0.00000093,-0.00000178,0.00000150
 ,0.00000468,-0.00000816,-0.00000400,-0.00000036,0.00001508,-0.00000010
 ,-0.00000091,0.00000272,0.00000301,0.00001093,0.00001042,-0.00000903,-
 0.00000304,-0.00000797,0.00001575,-0.00000041,0.00004191,0.00114789,-0
 .00053349,-0.00005842,0.00002626,0.00024213,0.00197653,-0.00033500,0.0
 0055429,-0.00021151,-0.00005529,-0.00019291,-0.01812196,0.00103474,-0.
 00432908,-0.00881798,-0.00045918,-0.00392228,-0.02015910,0.05184600,-0
 .00011851,-0.00014556,0.00010941,-0.00142458,-0.00038388,-0.00005614,-
 0.00000420,0.00004457,0.00011355,-0.00022157,-0.00031969,0.00023927,0.
 00041302,0.00121101,0.00028639,0.00057279,-0.00105295,-0.00048071,0.00
 018690,0.00018110,-0.00000065,-0.00003868,0.00005218,0.00004589,-0.000
 10621,-0.00008528,-0.00004869,0.00019371,0.00016936,0.00017354,-0.0001
 9178,-0.00007053,-0.00005349,0.00009028,-0.00000870,0.00005663,-0.0000
 3975,-0.00000426,-0.00002641,0.00003137,-0.00002179,0.00000736,0.00000
 005,-0.00000952,-0.00003249,-0.00000728,0.00000385,0.00001727,0.000004
 03,-0.00000414,0.00001973,-0.00600410,-0.00125742,-0.00362014,0.000348
 21,0.00160517,-0.00002356,-0.08358226,0.00540793,-0.07331723,0.0000458
 0,-0.00009356,0.00001419,0.00004401,-0.00000692,0.00006072,-0.00001467
 ,-0.00006298,0.00000881,-0.00005857,-0.00004366,0.00004826,0.00001742,
 -0.00001550,-0.00001944,-0.00001149,-0.00001445,-0.00000277,-0.0000157
 9,-0.00000791,-0.00000036,-0.00001607,-0.00001643,-0.00001480,0.000004
 78,0.00000152,-0.00000282,-0.00000015,0.00000267,-0.00000552,0.0000029
 3,-0.00000363,-0.00000121,-0.00001209,0.00000179,-0.00000025,0.0000043
 4,0.00000054,-0.00000278,-0.00001527,0.00000175,0.00000118,0.00001139,
 -0.00000747,-0.00001631,0.00062444,0.00000945,0.00054634,0.00040084,0.
 00002028,0.00021204,-0.00053700,0.00011841,0.00045007,-0.00031205,-0.0
 0003252,0.00019427,-0.02284256,0.00296260,-0.00666651,0.02247438,-0.00
 211005,0.00814758,0.09010393,-0.00601541,0.07363974\\0.00040791,-0.001
 91963,-0.00110387,-0.00696806,-0.00535924,-0.00111904,0.00151123,0.000
 08931,0.00047246,0.00920845,0.00185765,0.00241004,-0.00443993,0.012472
 46,0.00117516,0.00580625,-0.00597020,-0.00082329,0.00128933,0.00165724
 ,-0.00056283,-0.00433079,0.00335065,-0.00037865,-0.00336201,-0.0204877
 5,-0.00218672,-0.01232290,0.02864565,-0.00032084,-0.00137451,0.0072207
 0,-0.00243167,0.01561615,-0.00835785,0.00736058,-0.00252740,-0.0003981
 0,-0.00108968,-0.00020910,-0.00418297,-0.00138949,0.00089184,-0.000736
 67,-0.00245099,-0.00093629,0.00094306,0.00135494,-0.00043536,0.0003450
 6,0.00263722,-0.00012266,-0.00132278,0.00199787,0.00028585,0.00087052,
 -0.00131024,0.00061509,0.00003658,-0.00169302,0.00055782,-0.00100990,0
 .00030484,0.00047427,-0.00005631,0.00059534,0.00026613,-0.00048115,0.0
 0013652,-0.00050577,-0.00038622,0.00049596,0.00143406,-0.00139213,-0.0
 0074501,0.00033583,-0.00107919,-0.00006260,-0.00092390,-0.00136426,0.0
 0002627,-0.00070316,-0.00132726,-0.00051144,-0.00014328,-0.00018574,-0
 .00015740,-0.00001778,-0.00004050,-0.00022617,0.00050299,0.00031662,0.
 00004331,-0.00089659,-0.00004389,-0.00007564,0.00029539,0.00001301,0.0
 0048361,-0.00106831,0.00021146,-0.00008850,0.00115837,-0.00164067,-0.0
 0320099,0.00020119,-0.00014968,0.00006869,0.00003219,-0.00000049,0.000
 17696,-0.00051866,0.00020496,0.00000185,0.00069861,0.00007533,-0.00012
 073,-0.00059753,-0.00005887,-0.00023846,0.00072156,0.00034916,-0.00025
 382,0.00009347,-0.00070796,0.00279944\\\@

 Writing a WFNX file to "26_sub.wfx"


 IN NATURE THERE ARE NEITHER REWARDS OR
 PUNISHMENTS -- THERE ARE CONSEQUENCES.

                            -- ROBERT GREEN INGERSOLL
 Job cpu time:       0 days  2 hours 46 minutes 32.8 seconds.
 Elapsed time:       0 days  0 hours 20 minutes 49.7 seconds.
 File lengths (MBytes):  RWF=    625 Int=      0 D2E=      0 Chk=     11 Scr=      1
 Normal termination of Gaussian 16 at Mon Jan 23 09:07:46 2023.
