 Entering Gaussian System, Link 0=g16
 Initial command:
 /software/gaussian/G16-A.03/avx/g16/l1.exe "/scratch/lcmd/1393753.slurm/Gau-227630.inp" -scrdir="/scratch/lcmd/1393753.slurm/"
 Entering Link 1 = /software/gaussian/G16-A.03/avx/g16/l1.exe PID=    227631.
  
 Copyright (c) 1988,1990,1992,1993,1995,1998,2003,2009,2016,
            Gaussian, Inc.  All Rights Reserved.
  
 This is part of the Gaussian(R) 16 program.  It is based on
 the Gaussian(R) 09 system (copyright 2009, Gaussian, Inc.),
 the Gaussian(R) 03 system (copyright 2003, Gaussian, Inc.),
 the Gaussian(R) 98 system (copyright 1998, Gaussian, Inc.),
 the Gaussian(R) 94 system (copyright 1995, Gaussian, Inc.),
 the Gaussian 92(TM) system (copyright 1992, Gaussian, Inc.),
 the Gaussian 90(TM) system (copyright 1990, Gaussian, Inc.),
 the Gaussian 88(TM) system (copyright 1988, Gaussian, Inc.),
 the Gaussian 86(TM) system (copyright 1986, Carnegie Mellon
 University), and the Gaussian 82(TM) system (copyright 1983,
 Carnegie Mellon University). Gaussian is a federally registered
 trademark of Gaussian, Inc.
  
 This software contains proprietary and confidential information,
 including trade secrets, belonging to Gaussian, Inc.
  
 This software is provided under written license and may be
 used, copied, transmitted, or stored only in accord with that
 written license.
  
 The following legend is applicable only to US Government
 contracts under FAR:
  
                    RESTRICTED RIGHTS LEGEND
  
 Use, reproduction and disclosure by the US Government is
 subject to restrictions as set forth in subparagraphs (a)
 and (c) of the Commercial Computer Software - Restricted
 Rights clause in FAR 52.227-19.
  
 Gaussian, Inc.
 340 Quinnipiac St., Bldg. 40, Wallingford CT 06492
  
  
 ---------------------------------------------------------------
 Warning -- This program may not be used in any manner that
 competes with the business of Gaussian, Inc. or will provide
 assistance to any competitor of Gaussian, Inc.  The licensee
 of this program is prohibited from giving any competitor of
 Gaussian, Inc. access to this program.  By using this program,
 the user acknowledges that Gaussian, Inc. is engaged in the
 business of creating and licensing software in the field of
 computational chemistry and represents and warrants to the
 licensee that it is not a competitor of Gaussian, Inc. and that
 it will not use this program in any manner prohibited above.
 ---------------------------------------------------------------
  

 Cite this work as:
 Gaussian 16, Revision A.03,
 M. J. Frisch, G. W. Trucks, H. B. Schlegel, G. E. Scuseria, 
 M. A. Robb, J. R. Cheeseman, G. Scalmani, V. Barone, 
 G. A. Petersson, H. Nakatsuji, X. Li, M. Caricato, A. V. Marenich, 
 J. Bloino, B. G. Janesko, R. Gomperts, B. Mennucci, H. P. Hratchian, 
 J. V. Ortiz, A. F. Izmaylov, J. L. Sonnenberg, D. Williams-Young, 
 F. Ding, F. Lipparini, F. Egidi, J. Goings, B. Peng, A. Petrone, 
 T. Henderson, D. Ranasinghe, V. G. Zakrzewski, J. Gao, N. Rega, 
 G. Zheng, W. Liang, M. Hada, M. Ehara, K. Toyota, R. Fukuda, 
 J. Hasegawa, M. Ishida, T. Nakajima, Y. Honda, O. Kitao, H. Nakai, 
 T. Vreven, K. Throssell, J. A. Montgomery, Jr., J. E. Peralta, 
 F. Ogliaro, M. J. Bearpark, J. J. Heyd, E. N. Brothers, K. N. Kudin, 
 V. N. Staroverov, T. A. Keith, R. Kobayashi, J. Normand, 
 K. Raghavachari, A. P. Rendell, J. C. Burant, S. S. Iyengar, 
 J. Tomasi, M. Cossi, J. M. Millam, M. Klene, C. Adamo, R. Cammi, 
 J. W. Ochterski, R. L. Martin, K. Morokuma, O. Farkas, 
 J. B. Foresman, and D. J. Fox, Gaussian, Inc., Wallingford CT, 2016.
 
 ******************************************
 Gaussian 16:  ES64L-G16RevA.03 25-Dec-2016
                23-Jan-2023 
 ******************************************
 %nprocs=8
 Will use up to    8 processors via shared memory.
 %mem=32000MB
 %chk=28_sub.chk
 ----------------------------------------------------------------------
 #p pop=(regular,nbo,savenbos) freq=noraman def2svp empiricaldispersion
 =gd3bj output=wfx pbe1pbe
 ----------------------------------------------------------------------
 1/10=4,30=1,38=1/1,3;
 2/12=2,17=6,18=5,40=1/2;
 3/5=43,7=101,11=2,25=1,30=1,71=2,74=-13,124=41,140=1/1,2,3;
 4//1;
 5/5=2,38=5,98=1/2;
 8/6=4,10=90,11=11/1;
 11/6=1,8=1,9=11,15=111,16=1/1,2,10;
 10/6=1/2;
 6/28=1,40=1,73=1/1,7;
 7/8=1,10=1,25=1/1,2,3,16;
 1/10=4,30=1/3;
 99/6=200/99;
 Leave Link    1 at Mon Jan 23 08:46:53 2023, MaxMem=  4194304000 cpu:               0.4 elap:               0.1
 (Enter /software/gaussian/G16-A.03/avx/g16/l101.exe)
 ------
 28_sub
 ------
 Symbolic Z-matrix:
 Charge =  0 Multiplicity = 1
 C                    -2.88437   1.53991  -0.90108 
 C                    -2.66709   0.0222   -0.65814 
 H                    -2.84909  -0.57404  -1.56514 
 N                    -1.24862  -0.07006  -0.34575 
 C                    -0.76554   1.11793  -0.22406 
 N                    -1.63478   2.13073  -0.42366 
 C                    -1.34691   3.53588  -0.54164 
 C                    -0.3182    4.04259   0.45793 
 C                     1.12622   3.64247   0.20322 
 N                     1.41654   2.25405   0.456 
 C                     0.66842   1.17783   0.12546 
 N                     1.26839   0.03862   0.16214 
 C                     2.65511   0.24191   0.55288 
 H                     2.77644  -0.22416   1.54526 
 C                     2.79256   1.7861    0.62828 
 C                     3.61884  -0.4719   -0.40188 
 C                     3.43552  -0.04312  -1.85041 
 C                     5.05626  -0.31326   0.07302 
 C                    -3.50687  -0.5984    0.46883 
 C                    -3.28048   0.07805   1.8135 
 C                    -4.97846  -0.63899   0.08239 
 H                    -3.74221   1.94676  -0.34121 
 H                    -3.033     1.77915  -1.9691 
 H                    -2.29478   4.0674   -0.36579 
 H                    -1.03333   3.794    -1.57404 
 H                    -0.61356   3.73681   1.47526 
 H                    -0.35528   5.14252   0.43339 
 H                     1.77271   4.22784   0.87527 
 H                     1.41903   3.92231  -0.83002 
 H                     3.42961   2.1872   -0.18169 
 H                     3.20351   2.13942   1.58624 
 H                     3.33275  -1.53384  -0.31326 
 H                     3.69792   1.01721  -2.0118 
 H                     2.39681  -0.19394  -2.18149 
 H                     4.08366  -0.63778  -2.51119 
 H                     5.39256   0.73737   0.02834 
 H                     5.7413   -0.89899  -0.55788 
 H                     5.17621  -0.66505   1.10949 
 H                    -3.13385  -1.63544   0.5271 
 H                    -3.61935   1.12855   1.81476 
 H                    -2.21764   0.05733   2.09874 
 H                    -3.84036  -0.4427    2.60459 
 H                    -5.40867   0.37229  -0.02132 
 H                    -5.56641  -1.16277   0.85074 
 H                    -5.12612  -1.17101  -0.87004 
 
 ITRead=  0  0  0  0  0  0  0  0  0  0  0  0  0  0  0  0  0  0  0  0
 ITRead=  0  0  0  0  0  0  0  0  0  0  0  0  0  0  0  0  0  0  0  0
 ITRead=  0  0  0  0  0
 MicOpt= -1 -1 -1 -1 -1 -1 -1 -1 -1 -1 -1 -1 -1 -1 -1 -1 -1 -1 -1 -1
 MicOpt= -1 -1 -1 -1 -1 -1 -1 -1 -1 -1 -1 -1 -1 -1 -1 -1 -1 -1 -1 -1
 MicOpt= -1 -1 -1 -1 -1
 NAtoms=     45 NQM=       45 NQMF=       0 NMMI=      0 NMMIF=      0
                NMic=       0 NMicF=      0.
                    Isotopes and Nuclear Properties:
 (Nuclear quadrupole moments (NQMom) in fm**2, nuclear magnetic moments (NMagM)
  in nuclear magnetons)

  Atom         1           2           3           4           5           6           7           8           9          10
 IAtWgt=          12          12           1          14          12          14          12          12          12          14
 AtmWgt=  12.0000000  12.0000000   1.0078250  14.0030740  12.0000000  14.0030740  12.0000000  12.0000000  12.0000000  14.0030740
 NucSpn=           0           0           1           2           0           2           0           0           0           2
 AtZEff=  -0.0000000  -0.0000000  -0.0000000  -0.0000000  -0.0000000  -0.0000000  -0.0000000  -0.0000000  -0.0000000  -0.0000000
 NQMom=    0.0000000   0.0000000   0.0000000   2.0440000   0.0000000   2.0440000   0.0000000   0.0000000   0.0000000   2.0440000
 NMagM=    0.0000000   0.0000000   2.7928460   0.4037610   0.0000000   0.4037610   0.0000000   0.0000000   0.0000000   0.4037610
 AtZNuc=   6.0000000   6.0000000   1.0000000   7.0000000   6.0000000   7.0000000   6.0000000   6.0000000   6.0000000   7.0000000

  Atom        11          12          13          14          15          16          17          18          19          20
 IAtWgt=          12          14          12           1          12          12          12          12          12          12
 AtmWgt=  12.0000000  14.0030740  12.0000000   1.0078250  12.0000000  12.0000000  12.0000000  12.0000000  12.0000000  12.0000000
 NucSpn=           0           2           0           1           0           0           0           0           0           0
 AtZEff=  -0.0000000  -0.0000000  -0.0000000  -0.0000000  -0.0000000  -0.0000000  -0.0000000  -0.0000000  -0.0000000  -0.0000000
 NQMom=    0.0000000   2.0440000   0.0000000   0.0000000   0.0000000   0.0000000   0.0000000   0.0000000   0.0000000   0.0000000
 NMagM=    0.0000000   0.4037610   0.0000000   2.7928460   0.0000000   0.0000000   0.0000000   0.0000000   0.0000000   0.0000000
 AtZNuc=   6.0000000   7.0000000   6.0000000   1.0000000   6.0000000   6.0000000   6.0000000   6.0000000   6.0000000   6.0000000

  Atom        21          22          23          24          25          26          27          28          29          30
 IAtWgt=          12           1           1           1           1           1           1           1           1           1
 AtmWgt=  12.0000000   1.0078250   1.0078250   1.0078250   1.0078250   1.0078250   1.0078250   1.0078250   1.0078250   1.0078250
 NucSpn=           0           1           1           1           1           1           1           1           1           1
 AtZEff=  -0.0000000  -0.0000000  -0.0000000  -0.0000000  -0.0000000  -0.0000000  -0.0000000  -0.0000000  -0.0000000  -0.0000000
 NQMom=    0.0000000   0.0000000   0.0000000   0.0000000   0.0000000   0.0000000   0.0000000   0.0000000   0.0000000   0.0000000
 NMagM=    0.0000000   2.7928460   2.7928460   2.7928460   2.7928460   2.7928460   2.7928460   2.7928460   2.7928460   2.7928460
 AtZNuc=   6.0000000   1.0000000   1.0000000   1.0000000   1.0000000   1.0000000   1.0000000   1.0000000   1.0000000   1.0000000

  Atom        31          32          33          34          35          36          37          38          39          40
 IAtWgt=           1           1           1           1           1           1           1           1           1           1
 AtmWgt=   1.0078250   1.0078250   1.0078250   1.0078250   1.0078250   1.0078250   1.0078250   1.0078250   1.0078250   1.0078250
 NucSpn=           1           1           1           1           1           1           1           1           1           1
 AtZEff=  -0.0000000  -0.0000000  -0.0000000  -0.0000000  -0.0000000  -0.0000000  -0.0000000  -0.0000000  -0.0000000  -0.0000000
 NQMom=    0.0000000   0.0000000   0.0000000   0.0000000   0.0000000   0.0000000   0.0000000   0.0000000   0.0000000   0.0000000
 NMagM=    2.7928460   2.7928460   2.7928460   2.7928460   2.7928460   2.7928460   2.7928460   2.7928460   2.7928460   2.7928460
 AtZNuc=   1.0000000   1.0000000   1.0000000   1.0000000   1.0000000   1.0000000   1.0000000   1.0000000   1.0000000   1.0000000

  Atom        41          42          43          44          45
 IAtWgt=           1           1           1           1           1
 AtmWgt=   1.0078250   1.0078250   1.0078250   1.0078250   1.0078250
 NucSpn=           1           1           1           1           1
 AtZEff=  -0.0000000  -0.0000000  -0.0000000  -0.0000000  -0.0000000
 NQMom=    0.0000000   0.0000000   0.0000000   0.0000000   0.0000000
 NMagM=    2.7928460   2.7928460   2.7928460   2.7928460   2.7928460
 AtZNuc=   1.0000000   1.0000000   1.0000000   1.0000000   1.0000000
 Leave Link  101 at Mon Jan 23 08:46:53 2023, MaxMem=  4194304000 cpu:               1.0 elap:               0.1
 (Enter /software/gaussian/G16-A.03/avx/g16/l103.exe)

 GradGradGradGradGradGradGradGradGradGradGradGradGradGradGradGradGradGrad
 Berny optimization.
 Initialization pass.
 Trust Radius=3.00D-01 FncErr=1.00D-07 GrdErr=1.00D-07 EigMax=2.50D+02 EigMin=1.00D-04
 Number of steps in this run=      2 maximum allowed number of steps=      2.
 GradGradGradGradGradGradGradGradGradGradGradGradGradGradGradGradGradGrad

 Leave Link  103 at Mon Jan 23 08:46:53 2023, MaxMem=  4194304000 cpu:               0.2 elap:               0.0
 (Enter /software/gaussian/G16-A.03/avx/g16/l202.exe)
                          Input orientation:                          
 ---------------------------------------------------------------------
 Center     Atomic      Atomic             Coordinates (Angstroms)
 Number     Number       Type             X           Y           Z
 ---------------------------------------------------------------------
      1          6           0       -2.884370    1.539910   -0.901080
      2          6           0       -2.667090    0.022200   -0.658140
      3          1           0       -2.849090   -0.574040   -1.565140
      4          7           0       -1.248620   -0.070060   -0.345750
      5          6           0       -0.765540    1.117930   -0.224060
      6          7           0       -1.634780    2.130730   -0.423660
      7          6           0       -1.346910    3.535880   -0.541640
      8          6           0       -0.318200    4.042590    0.457930
      9          6           0        1.126220    3.642470    0.203220
     10          7           0        1.416540    2.254050    0.456000
     11          6           0        0.668420    1.177830    0.125460
     12          7           0        1.268390    0.038620    0.162140
     13          6           0        2.655110    0.241910    0.552880
     14          1           0        2.776440   -0.224160    1.545260
     15          6           0        2.792560    1.786100    0.628280
     16          6           0        3.618840   -0.471900   -0.401880
     17          6           0        3.435520   -0.043120   -1.850410
     18          6           0        5.056260   -0.313260    0.073020
     19          6           0       -3.506870   -0.598400    0.468830
     20          6           0       -3.280480    0.078050    1.813500
     21          6           0       -4.978460   -0.638990    0.082390
     22          1           0       -3.742210    1.946760   -0.341210
     23          1           0       -3.033000    1.779150   -1.969100
     24          1           0       -2.294780    4.067400   -0.365790
     25          1           0       -1.033330    3.794000   -1.574040
     26          1           0       -0.613560    3.736810    1.475260
     27          1           0       -0.355280    5.142520    0.433390
     28          1           0        1.772710    4.227840    0.875270
     29          1           0        1.419030    3.922310   -0.830020
     30          1           0        3.429610    2.187200   -0.181690
     31          1           0        3.203510    2.139420    1.586240
     32          1           0        3.332750   -1.533840   -0.313260
     33          1           0        3.697920    1.017210   -2.011800
     34          1           0        2.396810   -0.193940   -2.181490
     35          1           0        4.083660   -0.637780   -2.511190
     36          1           0        5.392560    0.737370    0.028340
     37          1           0        5.741300   -0.898990   -0.557880
     38          1           0        5.176210   -0.665050    1.109490
     39          1           0       -3.133850   -1.635440    0.527100
     40          1           0       -3.619350    1.128550    1.814760
     41          1           0       -2.217640    0.057330    2.098740
     42          1           0       -3.840360   -0.442700    2.604590
     43          1           0       -5.408670    0.372290   -0.021320
     44          1           0       -5.566410   -1.162770    0.850740
     45          1           0       -5.126120   -1.171010   -0.870040
 ---------------------------------------------------------------------
                    Distance matrix (angstroms):
                    1          2          3          4          5
     1  C    0.000000
     2  C    1.552312   0.000000
     3  H    2.216079   1.100579   0.000000
     4  N    2.361371   1.455389   2.074226   0.000000
     5  C    2.264037   2.237173   3.000406   1.288214   0.000000
     6  N    1.462352   2.359352   3.176996   2.235770   1.349512
     7  C    2.544971   3.755316   4.493945   3.612594   2.507056
     8  C    3.833477   4.788155   5.640167   4.292490   3.036257
     9  C    4.661016   5.313897   6.058807   4.441184   3.183493
    10  N    4.566124   4.785237   5.502608   3.625930   2.552396
    11  C    3.715804   3.615956   4.277856   2.335447   1.477157
    12  N    4.541996   4.020091   4.506938   2.570039   2.334723
    13  C    5.872363   5.462660   5.953822   4.017956   3.615507
    14  H    6.414148   5.877728   6.437670   4.449806   4.180589
    15  C    5.884478   5.879966   6.496889   4.552494   3.719275
    16  C    6.825564   6.310525   6.572498   4.884342   4.667116
    17  C    6.583937   6.218330   6.313444   4.919949   4.652092
    18  C    8.211986   7.765131   8.077508   6.323451   6.002493
    19  C    2.614676   1.536371   2.137826   2.458125   3.307684
    20  C    3.108518   2.547228   3.467928   2.968628   3.399695
    21  C    3.178055   2.515549   2.693100   3.797195   4.574863
    22  H    1.102212   2.227164   2.941105   3.207113   3.092127
    23  H    1.104533   2.222471   2.394684   3.039548   2.936622
    24  H    2.649973   4.072803   4.825833   4.267719   3.325362
    25  H    2.993350   4.211237   4.730416   4.060296   3.009237
    26  H    3.953472   4.750443   5.729315   4.267510   3.125591
    27  H    4.599555   5.723074   6.549219   5.345662   4.098521
    28  H    5.662930   6.304806   7.097513   5.393632   4.162064
    29  H    4.919363   5.651263   6.242949   4.825960   3.606117
    30  H    6.387711   6.487217   6.997175   5.196920   4.329482
    31  H    6.603670   6.632029   7.343571   5.332527   4.480400
    32  H    6.960320   6.207921   6.379935   4.809642   4.882194
    33  H    6.695779   6.582993   6.752401   5.331617   4.809224
    34  H    5.704082   5.292485   5.295643   4.083436   3.943728
    35  H    7.475843   7.031500   6.997292   5.783135   5.641651
    36  H    8.367524   8.120387   8.496103   6.700534   6.175008
    37  H    8.970407   8.459295   8.655343   7.042095   6.820438
    38  H    8.595184   8.069336   8.459750   6.614392   6.345216
    39  H    3.490671   2.090557   2.363287   2.601225   3.708663
    40  H    2.843449   2.871593   3.862103   3.424154   3.507297
    41  H    3.411963   2.793497   3.771124   2.632634   2.937493
    42  H    4.139370   3.498300   4.287950   3.944678   4.459971
    43  H    2.917088   2.836259   3.135342   4.196063   4.706988
    44  H    4.191264   3.476626   3.683328   4.611823   5.422651
    45  H    3.517882   2.741438   2.454466   4.064724   4.967011
                    6          7          8          9         10
     6  N    0.000000
     7  C    1.439179   0.000000
     8  C    2.483101   1.521230   0.000000
     9  C    3.209588   2.585063   1.520303   0.000000
    10  N    3.177981   3.205469   2.491626   1.440796   0.000000
    11  C    2.552309   3.172850   3.048082   2.508003   1.351736
    12  N    3.626084   4.423339   4.317005   3.606887   2.239739
    13  C    4.787946   5.297582   4.826464   3.744806   2.364772
    14  H    5.374106   5.957774   5.381843   4.413063   3.029413
    15  C    4.563627   4.643884   3.846764   2.530509   1.463588
    16  C    5.862992   6.382829   6.051461   4.848437   3.607892
    17  C    5.698174   6.115043   6.009316   4.809765   3.830509
    18  C    7.140714   7.496284   6.928665   5.577631   4.470494
    19  C    3.427741   4.772709   5.630855   6.286577   5.690044
    20  C    3.453507   4.608901   5.131301   5.892122   5.351615
    21  C    4.371228   5.568403   6.616362   7.457387   7.028890
    22  H    2.117051   2.881482   4.093284   5.183961   5.229022
    23  H    2.113531   2.822524   4.287630   5.048767   5.089700
    24  H    2.046861   1.100861   2.141494   3.493935   4.211588
    25  H    2.109878   1.109418   2.168435   2.800941   3.534738
    26  H    2.688546   2.155472   1.102588   2.157271   2.712706
    27  H    3.382681   2.124925   1.100828   2.120842   3.388675
    28  H    4.206671   3.495493   2.140186   1.101026   2.049022
    29  H    3.563796   2.807653   2.165929   1.109790   2.106406
    30  H    5.070482   4.976308   4.230563   2.751649   2.112716
    31  H    5.239162   5.213856   4.159036   2.913252   2.117509
    32  H    6.173947   6.903147   6.709750   5.650638   4.314132
    33  H    5.674487   5.827124   5.601938   4.290914   3.581132
    34  H    4.974714   5.533182   5.682077   4.692471   3.729603
    35  H    6.687525   7.126686   7.077988   5.868135   4.927517
    36  H    7.178389   7.319631   6.612247   5.164479   4.276909
    37  H    7.975197   8.361283   7.884708   6.519440   5.447308
    38  H    7.520407   7.932537   7.264637   5.981511   4.804510
    39  H    4.163555   5.574757   6.338193   6.790392   5.986588
    40  H    3.154902   4.063477   4.607625   5.606897   5.336025
    41  H    3.316808   4.453099   4.709822   5.256199   4.553179
    42  H    4.545044   5.652005   6.093569   6.864555   6.286803
    43  H    4.182850   5.174643   6.293939   7.310902   7.095939
    44  H    5.284785   6.466855   7.402282   8.264436   7.784091
    45  H    4.825992   6.045253   7.215346   7.963243   7.503054
                   11         12         13         14         15
    11  C    0.000000
    12  N    1.288064   0.000000
    13  C    2.237313   1.454990   0.000000
    14  H    2.902612   2.063078   1.103069   0.000000
    15  C    2.266008   2.365178   1.552128   2.209583   0.000000
    16  C    3.421210   2.470499   1.532928   2.135970   2.615823
    17  C    3.612703   2.958630   2.542850   3.463775   3.146958
    18  C    4.634570   3.805223   2.510777   2.715328   3.136872
    19  C    4.550378   4.827314   6.219581   6.385823   6.737513
    20  C    4.433149   4.839500   6.070193   6.070384   6.419034
    21  C    5.932111   6.284000   7.698619   7.902566   8.158910
    22  H    4.501410   5.385209   6.680690   7.124918   6.608248
    23  H    4.295262   5.106230   6.409219   7.079094   6.378368
    24  H    4.167913   5.404254   6.322953   6.912805   5.663350
    25  H    3.553674   4.734460   5.544882   6.355312   4.849671
    26  H    3.164461   4.352313   4.873327   5.214047   4.015507
    27  H    4.106282   5.362805   5.752626   6.312304   4.605696
    28  H    3.329299   4.279306   4.095144   4.612663   2.657667
    29  H    3.001421   4.011249   4.121365   4.967669   2.928586
    30  H    2.955899   3.066837   2.218918   3.037045   1.105787
    31  H    3.079808   3.191569   2.229152   2.402203   1.100637
    32  H    3.826785   2.638222   2.088704   2.340692   3.492893
    33  H    3.711004   3.403861   2.875087   3.878505   2.894977
    34  H    3.192351   2.611516   2.780911   3.746158   3.460055
    35  H    4.681050   3.940806   3.493299   4.281903   4.171140
    36  H    4.745623   4.185084   2.830946   3.173274   2.867013
    37  H    5.523970   4.626496   3.472752   3.697159   4.160739
    38  H    4.968369   4.082117   2.736482   2.478543   3.452751
    39  H    4.746900   4.723917   6.085817   6.161160   6.843940
    40  H    4.608811   5.273434   6.461217   6.542827   6.553831
    41  H    3.671334   3.987878   5.115413   5.032535   5.500273
    42  H    5.394562   5.683006   6.846118   6.704624   7.271106
    43  H    6.132003   6.687909   8.085249   8.354996   8.347515
    44  H    6.699070   6.973665   8.345971   8.424161   8.866662
    45  H    6.331253   6.589261   8.035458   8.317491   8.584577
                   16         17         18         19         20
    16  C    0.000000
    17  C    1.521742   0.000000
    18  C    1.522128   2.529695   0.000000
    19  C    7.179825   7.340571   8.577014   0.000000
    20  C    7.267116   7.651377   8.525469   1.522161   0.000000
    21  C    8.612549   8.653660  10.040010   1.522025   2.528641
    22  H    7.748461   7.599810   9.093533   2.681304   2.889299
    23  H    7.195164   6.721347   8.601428   3.438139   4.154883
    24  H    7.455028   7.206720   8.568578   4.892386   4.651432
    25  H    6.419856   5.896651   7.527649   5.439200   5.507576
    26  H    6.257004   6.460882   7.107475   5.308313   4.540197
    27  H    6.929143   6.817387   7.692865   6.549194   6.009189
    28  H    5.208346   5.332482   5.660998   7.164618   6.605737
    29  H    4.932702   4.564215   5.655526   6.810897   6.622079
    30  H    2.674903   2.785496   2.993855   7.503166   7.311266
    31  H    3.308189   4.077729   3.426099   7.333039   6.807571
    32  H    1.103366   2.143744   2.146978   6.947454   7.131347
    33  H    2.194435   1.104174   2.821651   7.789270   8.013302
    34  H    2.176610   1.100581   3.488514   6.483920   6.947341
    35  H    2.166278   1.100153   2.780181   8.154644   8.570059
    36  H    2.189408   2.822919   1.104046   9.009893   8.879365
    37  H    2.170617   2.778447   1.100179   9.309841   9.379262
    38  H    2.178749   3.489671   1.101097   8.706938   8.518417
    39  H    6.914886   7.165519   8.308565   1.103626   2.147644
    40  H    7.737333   8.036011   8.965416   2.192381   1.103805
    41  H    6.371631   6.896673   7.559795   2.179152   1.100645
    42  H    8.042349   8.540791   9.250700   2.167240   1.100213
    43  H    9.074878   9.040898  10.487785   2.190737   2.825303
    44  H    9.295976   9.464913  10.684926   2.169349   2.773449
    45  H    8.785343   8.691084  10.261869   2.177711   3.488255
                   21         22         23         24         25
    21  C    0.000000
    22  H    2.897215   0.000000
    23  H    3.720326   1.783563   0.000000
    24  H    5.436277   2.567639   2.889924   0.000000
    25  H    6.161105   3.502884   2.866073   1.768013   0.000000
    26  H    6.335619   4.036371   4.642170   2.515006   3.078589
    27  H    7.410995   4.720612   4.924876   2.357166   2.511580
    28  H    8.360203   6.090771   6.097653   4.255637   3.749826
    29  H    7.909856   5.547984   5.070622   3.745523   2.565950
    30  H    8.874273   7.177622   6.717639   6.028075   4.943509
    31  H    8.770733   7.210770   7.187788   6.144813   5.538575
    32  H    8.368602   7.884822   7.364814   7.940135   7.002721
    33  H    9.077896   7.681827   6.774043   6.922822   5.503356
    34  H    7.727731   6.756981   5.781092   6.592936   5.295141
    35  H    9.425958   8.522494   7.535401   8.211331   6.833924
    36  H   10.462091   9.221888   8.721533   8.386873   7.294016
    37  H   10.742011   9.903646   9.281827   9.448836   8.303755
    38  H   10.206514   9.405546   9.101811   8.965948   8.102027
    39  H    2.143191   3.735803   4.230911   5.832982   6.189167
    40  H    2.823559   2.309279   3.883901   3.891802   5.027533
    41  H    3.488933   3.442037   4.491859   4.707496   5.371648
    42  H    2.774039   3.794323   5.148503   5.617204   6.579513
    43  H    1.103868   2.314816   3.378892   4.844462   5.767377
    44  H    1.100178   3.797055   4.798391   6.287940   7.141284
    45  H    1.100896   3.451863   3.780546   5.975926   6.472856
                   26         27         28         29         30
    26  H    0.000000
    27  H    1.768678   0.000000
    28  H    2.509060   2.358016   0.000000
    29  H    3.078985   2.496656   1.768178   0.000000
    30  H    4.636162   4.841243   2.833142   2.733747   0.000000
    31  H    4.139323   4.797151   2.629480   3.493047   1.782970
    32  H    6.822897   7.663735   6.086319   5.805079   3.724625
    33  H    6.176137   6.278978   4.727552   3.876796   2.188646
    34  H    6.155075   6.549000   5.411601   4.441401   3.276538
    35  H    7.555971   7.860446   6.362614   5.542653   3.719525
    36  H    6.867583   7.253074   5.099410   5.164258   2.449345
    37  H    8.124564   8.640066   6.639880   6.480819   3.874274
    38  H    7.282280   8.048749   5.964817   6.238748   3.585120
    39  H    6.009321   7.325979   7.653340   7.311571   7.628497
    40  H    3.994127   5.354838   6.289877   6.339182   7.402323
    41  H    4.062065   5.665769   5.900248   6.061442   6.451987
    42  H    5.399623   6.932141   7.504069   7.649251   8.217797
    43  H    6.045893   6.964094   8.200083   7.737837   9.024124
    44  H    6.994758   8.190649   9.106150   8.802236   9.654874
    45  H    7.067555   8.020007   8.932387   8.293521   9.216936
                   31         32         33         34         35
    31  H    0.000000
    32  H    4.137347   0.000000
    33  H    3.801275   3.086461   0.000000
    34  H    4.504567   2.482257   1.785656   0.000000
    35  H    5.027568   2.489515   1.771208   1.775150   0.000000
    36  H    3.030633   3.085110   2.666887   3.837343   3.170721
    37  H    4.502173   2.502796   3.156122   3.784021   2.575155
    38  H    3.461775   2.485429   3.841587   4.333308   3.782028
    39  H    7.452079   6.521767   7.756007   6.324759   7.894237
    40  H    6.901123   7.742641   8.258172   7.342559   9.009447
    41  H    5.829805   6.257507   7.267170   6.298941   7.838432
    42  H    7.571029   7.820354   8.959244   7.865795   9.433947
    43  H    8.937373   8.951591   9.343870   8.118649   9.865294
    44  H    9.399836   8.982630   9.938524   8.575892  10.232401
    45  H    9.293815   8.484936   9.162729   7.698639   9.370046
                   36         37         38         39         40
    36  H    0.000000
    37  H    1.772836   0.000000
    38  H    1.783949   1.776000   0.000000
    39  H    8.864460   8.971501   8.386771   0.000000
    40  H    9.195588   9.867224   9.004237   3.087624   0.000000
    41  H    7.916069   8.444934   7.494629   2.484947   1.786882
    42  H    9.657973  10.100377   9.142390   2.497549   1.772429
    43  H   10.807512  11.235029  10.695536   3.083269   2.672973
    44  H   11.152843  11.398162  10.757256   2.499101   3.157614
    45  H   10.728077  10.875305  10.502978   2.477264   3.842718
                   41         42         43         44         45
    41  H    0.000000
    42  H    1.771760   0.000000
    43  H    3.844025   3.165313   0.000000
    44  H    3.776296   2.563930   1.772507   0.000000
    45  H    4.333789   3.775800   1.783798   1.776234   0.000000
 Stoichiometry    C15H26N4
 Framework group  C1[X(C15H26N4)]
 Deg. of freedom   129
 Full point group                 C1      NOp   1
 Largest Abelian subgroup         C1      NOp   1
 Largest concise Abelian subgroup C1      NOp   1
                         Standard orientation:                         
 ---------------------------------------------------------------------
 Center     Atomic      Atomic             Coordinates (Angstroms)
 Number     Number       Type             X           Y           Z
 ---------------------------------------------------------------------
      1          6           0        2.806381    0.511150    1.028687
      2          6           0        2.617592   -1.000503    0.730460
      3          1           0        2.765013   -1.622384    1.626454
      4          7           0        1.215894   -1.097293    0.350946
      5          6           0        0.725375    0.088990    0.243155
      6          7           0        1.573110    1.103821    0.512686
      7          6           0        1.264250    2.501761    0.659668
      8          6           0        0.276261    3.028552   -0.370142
      9          6           0       -1.173592    2.606442   -0.193867
     10          7           0       -1.436363    1.223585   -0.501361
     11          6           0       -0.691839    0.145263   -0.169557
     12          7           0       -1.276554   -0.998215   -0.267916
     13          6           0       -2.646338   -0.796894   -0.715308
     14          1           0       -2.717222   -1.233553   -1.725785
     15          6           0       -2.797748    0.747433   -0.750354
     16          6           0       -3.644225   -1.549169    0.172482
     17          6           0       -3.531690   -1.163127    1.640135
     18          6           0       -5.060328   -1.390404   -0.362606
     19          6           0        3.514627   -1.577909   -0.375146
     20          6           0        3.341810   -0.862904   -1.707766
     21          6           0        4.967536   -1.615637    0.076732
     22          1           0        3.684064    0.943480    0.521110
     23          1           0        2.903678    0.719053    2.109105
     24          1           0        2.213026    3.047838    0.543404
     25          1           0        0.901244    2.725017    1.683969
     26          1           0        0.620923    2.757017   -1.381664
     27          1           0        0.299699    4.127530   -0.310808
     28          1           0       -1.795531    3.205636   -0.876814
     29          1           0       -1.516134    2.851587    0.832876
     30          1           0       -3.475402    1.117179    0.041378
     31          1           0       -3.168799    1.125799   -1.715011
     32          1           0       -3.342371   -2.604994    0.065074
     33          1           0       -3.813163   -0.110903    1.821237
     34          1           0       -2.507425   -1.313648    2.013636
     35          1           0       -4.202348   -1.784168    2.252394
     36          1           0       -5.410215   -0.345039   -0.301707
     37          1           0       -5.766591   -2.001973    0.218402
     38          1           0       -5.129130   -1.711479   -1.413601
     39          1           0        3.156432   -2.616347   -0.481615
     40          1           0        3.668439    0.190469   -1.661892
     41          1           0        2.293308   -0.885477   -2.041766
     42          1           0        3.942879   -1.353585   -2.487777
     43          1           0        5.381088   -0.603767    0.230410
     44          1           0        5.595647   -2.109763   -0.679382
     45          1           0        5.077864   -2.175065    1.018453
 ---------------------------------------------------------------------
 Rotational constants (GHZ):           0.6469397           0.2278080           0.1901604
 Leave Link  202 at Mon Jan 23 08:46:53 2023, MaxMem=  4194304000 cpu:               0.1 elap:               0.0
 (Enter /software/gaussian/G16-A.03/avx/g16/l301.exe)
 Standard basis: def2SVP (5D, 7F)
 Ernie: Thresh=  0.10000D-02 Tol=  0.10000D-05 Strict=F.
 There are   415 symmetry adapted cartesian basis functions of A   symmetry.
 There are   396 symmetry adapted basis functions of A   symmetry.
   396 basis functions,   657 primitive gaussians,   415 cartesian basis functions
    72 alpha electrons       72 beta electrons
       nuclear repulsion energy      1554.8591880160 Hartrees.
 IExCor= 1009 DFT=T Ex+Corr=PBE1PBE ExCW=0 ScaHFX=  0.250000
 ScaDFX=  0.750000  0.750000  1.000000  1.000000 ScalE2=  1.000000  1.000000
 IRadAn=      5 IRanWt=     -1 IRanGd=            0 ICorTp=0 IEmpDi=141
 NAtoms=   45 NActive=   45 NUniq=   45 SFac= 1.00D+00 NAtFMM=   60 NAOKFM=F Big=F
 Integral buffers will be    131072 words long.
 Raffenetti 2 integral format.
 Two-electron integral symmetry is turned on.
 R6Disp:  Grimme-D3(BJ) Dispersion energy=       -0.0474063371 Hartrees.
 Nuclear repulsion after empirical dispersion term =     1554.8117816789 Hartrees.
 Leave Link  301 at Mon Jan 23 08:46:54 2023, MaxMem=  4194304000 cpu:               0.6 elap:               0.1
 (Enter /software/gaussian/G16-A.03/avx/g16/l302.exe)
 NPDir=0 NMtPBC=     1 NCelOv=     1 NCel=       1 NClECP=     1 NCelD=      1
         NCelK=      1 NCelE2=     1 NClLst=     1 CellRange=     0.0.
 One-electron integrals computed using PRISM.
 One-electron integral symmetry used in STVInt
   1 Symmetry operations used in ECPInt.
 ECPInt:  NShTT=   18528 NPrTT=   64586 LenC2=   16820 LenP2D=   41685.
 LDataN:  DoStor=T MaxTD1= 4 Len=   56
 NBasis=   396 RedAO= T EigKep=  5.29D-04  NBF=   396
 NBsUse=   396 1.00D-06 EigRej= -1.00D+00 NBFU=   396
 Precomputing XC quadrature grid using
 IXCGrd= 4 IRadAn=           5 IRanWt=          -1 IRanGd=           0 AccXCQ= 0.00D+00.
 Generated NRdTot=       0 NPtTot=           0 NUsed=           0 NTot=          32
 NSgBfM=   412   412   412   412   412 MxSgAt=    45 MxSgA2=    45.
 Leave Link  302 at Mon Jan 23 08:46:54 2023, MaxMem=  4194304000 cpu:               6.9 elap:               0.9
 (Enter /software/gaussian/G16-A.03/avx/g16/l303.exe)
 DipDrv:  MaxL=1.
 Leave Link  303 at Mon Jan 23 08:46:55 2023, MaxMem=  4194304000 cpu:               0.5 elap:               0.1
 (Enter /software/gaussian/G16-A.03/avx/g16/l401.exe)
 ExpMin= 1.22D-01 ExpMax= 1.71D+03 ExpMxC= 2.58D+02 IAcc=3 IRadAn=         5 AccDes= 0.00D+00
 Harris functional with IExCor= 1009 and IRadAn=       5 diagonalized for initial guess.
 HarFok:  IExCor= 1009 AccDes= 0.00D+00 IRadAn=         5 IDoV= 1 UseB2=F ITyADJ=14
 ICtDFT=  3500011 ScaDFX=  1.000000  1.000000  1.000000  1.000000
 FoFCou: FMM=F IPFlag=           0 FMFlag=      100000 FMFlg1=           0
         NFxFlg=           0 DoJE=T BraDBF=F KetDBF=T FulRan=T
         wScrn=  0.000000 ICntrl=       500 IOpCl=  0 I1Cent=   200000004 NGrid=           0
         NMat0=    1 NMatS0=      1 NMatT0=    0 NMatD0=    1 NMtDS0=    0 NMtDT0=    0
 Petite list used in FoFCou.
 Harris En= -804.979427958105    
 JPrj=0 DoOrth=F DoCkMO=F.
 Leave Link  401 at Mon Jan 23 08:47:00 2023, MaxMem=  4194304000 cpu:              40.6 elap:               5.1
 (Enter /software/gaussian/G16-A.03/avx/g16/l502.exe)
 Integral symmetry usage will be decided dynamically.
 Closed shell SCF:
 Using DIIS extrapolation, IDIIS=  1040.
 NGot=  4194304000 LenX=  4193951585 LenY=  4193778919
 Requested convergence on RMS density matrix=1.00D-08 within 128 cycles.
 Requested convergence on MAX density matrix=1.00D-06.
 Requested convergence on             energy=1.00D-06.
 No special actions if energy rises.
 Fock matrices will be formed incrementally for  20 cycles.
 Integral accuracy reduced to 1.0D-05 until final iterations.

 Cycle   1  Pass 0  IDiag  1:
 FoFJK:  IHMeth= 1 ICntrl=       0 DoSepK=F KAlg= 0 I1Cent=           0 FoldK=F
 IRaf= 840000000 NMat=       1 IRICut=       1 DoRegI=T DoRafI=F ISym2E= 0 IDoP0=0 IntGTp=1.
 FoFCou: FMM=F IPFlag=           0 FMFlag=      100000 FMFlg1=           0
         NFxFlg=           0 DoJE=F BraDBF=F KetDBF=F FulRan=T
         wScrn=  0.000000 ICntrl=         0 IOpCl=  0 I1Cent=           0 NGrid=           0
         NMat0=    1 NMatS0=      1 NMatT0=    0 NMatD0=    1 NMtDS0=    0 NMtDT0=    0
 Symmetry not used in FoFCou.
 E= -804.295873961489    
 DIIS: error= 2.06D-02 at cycle   1 NSaved=   1.
 NSaved= 1 IEnMin= 1 EnMin= -804.295873961489     IErMin= 1 ErrMin= 2.06D-02
 ErrMax= 2.06D-02  0.00D+00 EMaxC= 1.00D-01 BMatC= 4.25D-01 BMatP= 4.25D-01
 IDIUse=3 WtCom= 7.94D-01 WtEn= 2.06D-01
 Coeff-Com:  0.100D+01
 Coeff-En:   0.100D+01
 Coeff:      0.100D+01
 Gap=     0.173 Goal=   None    Shift=    0.000
 GapD=    0.173 DampG=1.000 DampE=0.500 DampFc=0.5000 IDamp=-1.
 Damping current iteration by 5.00D-01
 RMSDP=5.82D-03 MaxDP=1.74D-01              OVMax= 3.60D-01

 Cycle   2  Pass 0  IDiag  1:
 RMSU=  2.90D-03    CP:  9.92D-01
 E= -804.469739398891     Delta-E=       -0.173865437401 Rises=F Damp=T
 DIIS: error= 8.34D-03 at cycle   2 NSaved=   2.
 NSaved= 2 IEnMin= 2 EnMin= -804.469739398891     IErMin= 2 ErrMin= 8.34D-03
 ErrMax= 8.34D-03  0.00D+00 EMaxC= 1.00D-01 BMatC= 4.97D-02 BMatP= 4.25D-01
 IDIUse=3 WtCom= 9.17D-01 WtEn= 8.34D-02
 Coeff-Com:  0.152D+00 0.848D+00
 Coeff-En:   0.233D+00 0.767D+00
 Coeff:      0.158D+00 0.842D+00
 Gap=     0.296 Goal=   None    Shift=    0.000
 RMSDP=1.86D-03 MaxDP=6.53D-02 DE=-1.74D-01 OVMax= 2.91D-01

 Cycle   3  Pass 0  IDiag  1:
 RMSU=  1.52D-03    CP:  9.79D-01  6.33D-01
 E= -804.704360868676     Delta-E=       -0.234621469785 Rises=F Damp=F
 DIIS: error= 1.14D-02 at cycle   3 NSaved=   3.
 NSaved= 3 IEnMin= 3 EnMin= -804.704360868676     IErMin= 2 ErrMin= 8.34D-03
 ErrMax= 1.14D-02  0.00D+00 EMaxC= 1.00D-01 BMatC= 6.63D-02 BMatP= 4.97D-02
 IDIUse=2 WtCom= 0.00D+00 WtEn= 1.00D+00
 Coeff-En:   0.000D+00 0.000D+00 0.100D+01
 Coeff:      0.000D+00 0.000D+00 0.100D+01
 Gap=     0.183 Goal=   None    Shift=    0.000
 RMSDP=2.97D-03 MaxDP=1.29D-01 DE=-2.35D-01 OVMax= 2.95D-01

 Cycle   4  Pass 0  IDiag  1:
 RMSU=  1.53D-03    CP:  9.98D-01  1.30D+00 -7.27D-02
 E= -804.447515195790     Delta-E=        0.256845672886 Rises=F Damp=F
 DIIS: error= 2.72D-02 at cycle   4 NSaved=   4.
 NSaved= 4 IEnMin= 3 EnMin= -804.704360868676     IErMin= 2 ErrMin= 8.34D-03
 ErrMax= 2.72D-02  0.00D+00 EMaxC= 1.00D-01 BMatC= 3.51D-01 BMatP= 4.97D-02
 IDIUse=2 WtCom= 0.00D+00 WtEn= 1.00D+00
 Coeff-En:   0.000D+00 0.000D+00 0.782D+00 0.218D+00
 Coeff:      0.000D+00 0.000D+00 0.782D+00 0.218D+00
 Gap=     0.196 Goal=   None    Shift=    0.000
 RMSDP=1.74D-03 MaxDP=8.38D-02 DE= 2.57D-01 OVMax= 1.35D-01

 Cycle   5  Pass 0  IDiag  1:
 RMSU=  2.47D-04    CP:  9.88D-01  8.77D-01  5.04D-01  4.74D-01
 E= -804.743188506029     Delta-E=       -0.295673310239 Rises=F Damp=F
 DIIS: error= 6.81D-03 at cycle   5 NSaved=   5.
 NSaved= 5 IEnMin= 5 EnMin= -804.743188506029     IErMin= 5 ErrMin= 6.81D-03
 ErrMax= 6.81D-03  0.00D+00 EMaxC= 1.00D-01 BMatC= 2.54D-02 BMatP= 4.97D-02
 IDIUse=3 WtCom= 9.32D-01 WtEn= 6.81D-02
 Coeff-Com: -0.609D-02 0.290D-01 0.276D+00-0.109D+00 0.811D+00
 Coeff-En:   0.000D+00 0.000D+00 0.322D+00 0.000D+00 0.678D+00
 Coeff:     -0.568D-02 0.271D-01 0.279D+00-0.102D+00 0.802D+00
 Gap=     0.185 Goal=   None    Shift=    0.000
 RMSDP=5.35D-04 MaxDP=2.14D-02 DE=-2.96D-01 OVMax= 5.43D-02

 Cycle   6  Pass 0  IDiag  1:
 RMSU=  5.26D-05    CP:  9.84D-01  7.64D-01  7.00D-01  2.84D-01  8.59D-01
 E= -804.766299230447     Delta-E=       -0.023110724417 Rises=F Damp=F
 DIIS: error= 2.80D-04 at cycle   6 NSaved=   6.
 NSaved= 6 IEnMin= 6 EnMin= -804.766299230447     IErMin= 6 ErrMin= 2.80D-04
 ErrMax= 2.80D-04  0.00D+00 EMaxC= 1.00D-01 BMatC= 5.82D-05 BMatP= 2.54D-02
 IDIUse=3 WtCom= 9.97D-01 WtEn= 2.80D-03
 Coeff-Com: -0.393D-02 0.108D-01 0.117D+00-0.607D-01 0.404D+00 0.533D+00
 Coeff-En:   0.000D+00 0.000D+00 0.000D+00 0.000D+00 0.000D+00 0.100D+01
 Coeff:     -0.392D-02 0.108D-01 0.117D+00-0.606D-01 0.402D+00 0.534D+00
 Gap=     0.186 Goal=   None    Shift=    0.000
 RMSDP=2.99D-05 MaxDP=1.29D-03 DE=-2.31D-02 OVMax= 2.69D-03

 Cycle   7  Pass 0  IDiag  1:
 RMSU=  1.67D-05    CP:  9.84D-01  7.68D-01  6.98D-01  2.86D-01  8.80D-01
                    CP:  6.10D-01
 E= -804.766350506249     Delta-E=       -0.000051275803 Rises=F Damp=F
 DIIS: error= 1.04D-04 at cycle   7 NSaved=   7.
 NSaved= 7 IEnMin= 7 EnMin= -804.766350506249     IErMin= 7 ErrMin= 1.04D-04
 ErrMax= 1.04D-04  0.00D+00 EMaxC= 1.00D-01 BMatC= 6.44D-06 BMatP= 5.82D-05
 IDIUse=3 WtCom= 9.99D-01 WtEn= 1.04D-03
 Coeff-Com: -0.928D-03 0.145D-02 0.291D-01-0.177D-01 0.107D+00 0.260D+00
 Coeff-Com:  0.622D+00
 Coeff-En:   0.000D+00 0.000D+00 0.000D+00 0.000D+00 0.000D+00 0.121D-01
 Coeff-En:   0.988D+00
 Coeff:     -0.927D-03 0.144D-02 0.291D-01-0.177D-01 0.107D+00 0.260D+00
 Coeff:      0.622D+00
 Gap=     0.186 Goal=   None    Shift=    0.000
 RMSDP=9.92D-06 MaxDP=3.78D-04 DE=-5.13D-05 OVMax= 4.84D-04

 Initial convergence to 1.0D-05 achieved.  Increase integral accuracy.
 Cycle   8  Pass 1  IDiag  1:
 E= -804.766340452335     Delta-E=        0.000010053914 Rises=F Damp=F
 DIIS: error= 9.90D-05 at cycle   1 NSaved=   1.
 NSaved= 1 IEnMin= 1 EnMin= -804.766340452335     IErMin= 1 ErrMin= 9.90D-05
 ErrMax= 9.90D-05  0.00D+00 EMaxC= 1.00D-01 BMatC= 2.13D-06 BMatP= 2.13D-06
 IDIUse=1 WtCom= 1.00D+00 WtEn= 0.00D+00
 Coeff-Com:  0.100D+01
 Coeff:      0.100D+01
 Gap=     0.186 Goal=   None    Shift=    0.000
 RMSDP=9.92D-06 MaxDP=3.78D-04 DE= 1.01D-05 OVMax= 4.28D-04

 Cycle   9  Pass 1  IDiag  1:
 RMSU=  5.21D-05    CP:  1.00D+00
 E= -804.766341350314     Delta-E=       -0.000000897979 Rises=F Damp=F
 DIIS: error= 3.93D-05 at cycle   2 NSaved=   2.
 NSaved= 2 IEnMin= 2 EnMin= -804.766341350314     IErMin= 2 ErrMin= 3.93D-05
 ErrMax= 3.93D-05  0.00D+00 EMaxC= 1.00D-01 BMatC= 1.44D-06 BMatP= 2.13D-06
 IDIUse=1 WtCom= 1.00D+00 WtEn= 0.00D+00
 Coeff-Com:  0.433D+00 0.567D+00
 Coeff:      0.433D+00 0.567D+00
 Gap=     0.186 Goal=   None    Shift=    0.000
 RMSDP=6.74D-06 MaxDP=3.70D-04 DE=-8.98D-07 OVMax= 6.42D-04

 Cycle  10  Pass 1  IDiag  1:
 RMSU=  6.68D-06    CP:  1.00D+00  1.00D+00
 E= -804.766342030373     Delta-E=       -0.000000680059 Rises=F Damp=F
 DIIS: error= 3.37D-05 at cycle   3 NSaved=   3.
 NSaved= 3 IEnMin= 3 EnMin= -804.766342030373     IErMin= 3 ErrMin= 3.37D-05
 ErrMax= 3.37D-05  0.00D+00 EMaxC= 1.00D-01 BMatC= 7.70D-07 BMatP= 1.44D-06
 IDIUse=1 WtCom= 1.00D+00 WtEn= 0.00D+00
 Coeff-Com:  0.464D-01 0.414D+00 0.539D+00
 Coeff:      0.464D-01 0.414D+00 0.539D+00
 Gap=     0.186 Goal=   None    Shift=    0.000
 RMSDP=3.48D-06 MaxDP=2.00D-04 DE=-6.80D-07 OVMax= 3.41D-04

 Cycle  11  Pass 1  IDiag  1:
 RMSU=  1.41D-06    CP:  1.00D+00  1.01D+00  5.39D-01
 E= -804.766342676324     Delta-E=       -0.000000645951 Rises=F Damp=F
 DIIS: error= 1.01D-05 at cycle   4 NSaved=   4.
 NSaved= 4 IEnMin= 4 EnMin= -804.766342676324     IErMin= 4 ErrMin= 1.01D-05
 ErrMax= 1.01D-05  0.00D+00 EMaxC= 1.00D-01 BMatC= 7.31D-08 BMatP= 7.70D-07
 IDIUse=1 WtCom= 1.00D+00 WtEn= 0.00D+00
 Coeff-Com: -0.536D-02 0.222D+00 0.342D+00 0.441D+00
 Coeff:     -0.536D-02 0.222D+00 0.342D+00 0.441D+00
 Gap=     0.186 Goal=   None    Shift=    0.000
 RMSDP=9.02D-07 MaxDP=3.41D-05 DE=-6.46D-07 OVMax= 7.50D-05

 Cycle  12  Pass 1  IDiag  1:
 RMSU=  2.62D-07    CP:  1.00D+00  1.02D+00  5.87D-01  4.47D-01
 E= -804.766342740866     Delta-E=       -0.000000064542 Rises=F Damp=F
 DIIS: error= 8.04D-07 at cycle   5 NSaved=   5.
 NSaved= 5 IEnMin= 5 EnMin= -804.766342740866     IErMin= 5 ErrMin= 8.04D-07
 ErrMax= 8.04D-07  0.00D+00 EMaxC= 1.00D-01 BMatC= 5.93D-10 BMatP= 7.31D-08
 IDIUse=1 WtCom= 1.00D+00 WtEn= 0.00D+00
 Coeff-Com: -0.353D-02 0.124D+00 0.191D+00 0.259D+00 0.430D+00
 Coeff:     -0.353D-02 0.124D+00 0.191D+00 0.259D+00 0.430D+00
 Gap=     0.186 Goal=   None    Shift=    0.000
 RMSDP=9.43D-08 MaxDP=3.76D-06 DE=-6.45D-08 OVMax= 7.06D-06

 Cycle  13  Pass 1  IDiag  1:
 RMSU=  8.25D-08    CP:  1.00D+00  1.02D+00  5.85D-01  4.71D-01  9.13D-01
 E= -804.766342741370     Delta-E=       -0.000000000504 Rises=F Damp=F
 DIIS: error= 2.11D-07 at cycle   6 NSaved=   6.
 NSaved= 6 IEnMin= 6 EnMin= -804.766342741370     IErMin= 6 ErrMin= 2.11D-07
 ErrMax= 2.11D-07  0.00D+00 EMaxC= 1.00D-01 BMatC= 3.28D-11 BMatP= 5.93D-10
 IDIUse=1 WtCom= 1.00D+00 WtEn= 0.00D+00
 Coeff-Com: -0.849D-03 0.266D-01 0.386D-01 0.615D-01 0.157D+00 0.717D+00
 Coeff:     -0.849D-03 0.266D-01 0.386D-01 0.615D-01 0.157D+00 0.717D+00
 Gap=     0.186 Goal=   None    Shift=    0.000
 RMSDP=3.14D-08 MaxDP=1.82D-06 DE=-5.04D-10 OVMax= 4.03D-06

 Cycle  14  Pass 1  IDiag  1:
 RMSU=  2.49D-08    CP:  1.00D+00  1.02D+00  5.84D-01  4.77D-01  9.71D-01
                    CP:  9.31D-01
 E= -804.766342741394     Delta-E=       -0.000000000024 Rises=F Damp=F
 DIIS: error= 1.56D-07 at cycle   7 NSaved=   7.
 NSaved= 7 IEnMin= 7 EnMin= -804.766342741394     IErMin= 7 ErrMin= 1.56D-07
 ErrMax= 1.56D-07  0.00D+00 EMaxC= 1.00D-01 BMatC= 2.18D-11 BMatP= 3.28D-11
 IDIUse=1 WtCom= 1.00D+00 WtEn= 0.00D+00
 Coeff-Com:  0.143D-03-0.727D-02-0.134D-01-0.951D-02 0.106D-01 0.529D+00
 Coeff-Com:  0.491D+00
 Coeff:      0.143D-03-0.727D-02-0.134D-01-0.951D-02 0.106D-01 0.529D+00
 Coeff:      0.491D+00
 Gap=     0.186 Goal=   None    Shift=    0.000
 RMSDP=1.57D-08 MaxDP=8.76D-07 DE=-2.41D-11 OVMax= 1.88D-06

 Cycle  15  Pass 1  IDiag  1:
 RMSU=  8.97D-09    CP:  1.00D+00  1.02D+00  5.84D-01  4.79D-01  9.83D-01
                    CP:  1.00D+00  6.01D-01
 E= -804.766342741400     Delta-E=       -0.000000000005 Rises=F Damp=F
 DIIS: error= 2.61D-08 at cycle   8 NSaved=   8.
 NSaved= 8 IEnMin= 8 EnMin= -804.766342741400     IErMin= 8 ErrMin= 2.61D-08
 ErrMax= 2.61D-08  0.00D+00 EMaxC= 1.00D-01 BMatC= 6.77D-13 BMatP= 2.18D-11
 IDIUse=1 WtCom= 1.00D+00 WtEn= 0.00D+00
 Coeff-Com:  0.143D-03-0.577D-02-0.992D-02-0.970D-02-0.144D-01 0.170D+00
 Coeff-Com:  0.202D+00 0.668D+00
 Coeff:      0.143D-03-0.577D-02-0.992D-02-0.970D-02-0.144D-01 0.170D+00
 Coeff:      0.202D+00 0.668D+00
 Gap=     0.186 Goal=   None    Shift=    0.000
 RMSDP=4.29D-09 MaxDP=1.08D-07 DE=-5.46D-12 OVMax= 1.94D-07

 SCF Done:  E(RPBE1PBE) =  -804.766342741     A.U. after   15 cycles
            NFock= 15  Conv=0.43D-08     -V/T= 2.0108
 KE= 7.961760038618D+02 PE=-4.974714974018D+03 EE= 1.818960845736D+03
 Leave Link  502 at Mon Jan 23 08:49:15 2023, MaxMem=  4194304000 cpu:            1085.8 elap:             135.8
 (Enter /software/gaussian/G16-A.03/avx/g16/l801.exe)
 DoSCS=F DFT=T ScalE2(SS,OS)=  1.000000  1.000000
 Range of M.O.s used for correlation:     1   396
 NBasis=   396 NAE=    72 NBE=    72 NFC=     0 NFV=     0
 NROrb=    396 NOA=    72 NOB=    72 NVA=   324 NVB=   324
 Leave Link  801 at Mon Jan 23 08:49:15 2023, MaxMem=  4194304000 cpu:               0.2 elap:               0.0
 (Enter /software/gaussian/G16-A.03/avx/g16/l1101.exe)
 Using compressed storage, NAtomX=    45.
 Will process     46 centers per pass.
   1 Symmetry operations used in ECPInt.
 ECPInt:  NShTT=   18528 NPrTT=   64586 LenC2=   16820 LenP2D=   41685.
 LDataN:  DoStor=T MaxTD1= 5 Len=  102
 R6Disp: Adding Grimme-D3(BJ) dispersion energy 1st derivatives to the gradient.
 Leave Link 1101 at Mon Jan 23 08:49:16 2023, MaxMem=  4194304000 cpu:               7.3 elap:               0.9
 (Enter /software/gaussian/G16-A.03/avx/g16/l1102.exe)
 Symmetrizing basis deriv contribution to polar:
 IMax=3 JMax=2 DiffMx= 0.00D+00
 Leave Link 1102 at Mon Jan 23 08:49:16 2023, MaxMem=  4194304000 cpu:               0.5 elap:               0.1
 (Enter /software/gaussian/G16-A.03/avx/g16/l1110.exe)
 Forming Gx(P) for the SCF density, NAtomX=    45.
 Integral derivatives from FoFJK, PRISM(SPDF).
 Do as many integral derivatives as possible in FoFJK.
 G2DrvN: MDV=    4194300624.
 G2DrvN: will do    46 centers at a time, making    1 passes.
 Calling FoFCou, ICntrl=  3107 FMM=F I1Cent=   0 AccDes= 0.00D+00.
 FoFJK:  IHMeth= 1 ICntrl=    3107 DoSepK=F KAlg= 0 I1Cent=           0 FoldK=F
 IRaf=         0 NMat=       1 IRICut=       1 DoRegI=T DoRafI=F ISym2E= 0 IDoP0=0 IntGTp=1.
 FoFCou: FMM=F IPFlag=           0 FMFlag=      100000 FMFlg1=           0
         NFxFlg=           0 DoJE=F BraDBF=F KetDBF=F FulRan=T
         wScrn=  0.000000 ICntrl=      3107 IOpCl=  0 I1Cent=           0 NGrid=           0
         NMat0=    1 NMatS0=      1 NMatT0=    0 NMatD0=    1 NMtDS0=    0 NMtDT0=    0
 Symmetry not used in FoFCou.
 End of G2Drv F.D. properties file   721 does not exist.
 End of G2Drv F.D. properties file   722 does not exist.
 End of G2Drv F.D. properties file   788 does not exist.
 Leave Link 1110 at Mon Jan 23 08:56:59 2023, MaxMem=  4194304000 cpu:            3700.8 elap:             462.6
 (Enter /software/gaussian/G16-A.03/avx/g16/l1002.exe)
 Minotr:  Closed shell wavefunction.
          IDoAtm=111111111111111111111111111111111111111111111
          Direct CPHF calculation.
          Differentiating once with respect to electric field.
                with respect to dipole field.
          Differentiating once with respect to nuclear coordinates.
          Requested convergence is 1.0D-08 RMS, and 1.0D-07 maximum.
          Secondary convergence is 1.0D-12 RMS, and 1.0D-12 maximum.
          NewPWx=T KeepS1=F KeepF1=F KeepIn=T MapXYZ=F SortEE=F KeepMc=T.
        13635 words used for storage of precomputed grid.
 Keep R1 ints in memory in canonical form, NReq=3125507630.
 FoFCou: FMM=F IPFlag=           0 FMFlag=           0 FMFlg1=           0
         NFxFlg=           0 DoJE=F BraDBF=F KetDBF=F FulRan=T
         wScrn=  0.000000 ICntrl=       600 IOpCl=  0 I1Cent=           0 NGrid=           0
         NMat0=    1 NMatS0=  78606 NMatT0=    0 NMatD0=    1 NMtDS0=    0 NMtDT0=    0
 Symmetry not used in FoFCou.
 Two-electron integral symmetry not used.
          MDV=    4194304000 using IRadAn=       1.
          Solving linear equations simultaneously, MaxMat=       0.
          There are   138 degrees of freedom in the 1st order CPHF.  IDoFFX=6 NUNeed=     3.
    135 vectors produced by pass  0 Test12= 2.33D-14 1.00D-09 XBig12= 1.63D+02 6.98D+00.
 AX will form   135 AO Fock derivatives at one time.
    135 vectors produced by pass  1 Test12= 2.33D-14 1.00D-09 XBig12= 5.15D+01 1.42D+00.
    135 vectors produced by pass  2 Test12= 2.33D-14 1.00D-09 XBig12= 4.89D-01 1.45D-01.
    135 vectors produced by pass  3 Test12= 2.33D-14 1.00D-09 XBig12= 1.72D-03 4.97D-03.
    135 vectors produced by pass  4 Test12= 2.33D-14 1.00D-09 XBig12= 3.19D-06 1.23D-04.
     84 vectors produced by pass  5 Test12= 2.33D-14 1.00D-09 XBig12= 3.52D-09 4.96D-06.
     13 vectors produced by pass  6 Test12= 2.33D-14 1.00D-09 XBig12= 3.64D-12 1.89D-07.
      3 vectors produced by pass  7 Test12= 2.33D-14 1.00D-09 XBig12= 3.80D-15 5.59D-09.
 InvSVY:  IOpt=1 It=  1 EMax= 1.07D-14
 Solved reduced A of dimension   775 with   138 vectors.
 FullF1:  Do perturbations      1 to       3.
 Isotropic polarizability for W=    0.000000      187.30 Bohr**3.
 End of Minotr F.D. properties file   721 does not exist.
 End of Minotr F.D. properties file   722 does not exist.
 End of Minotr F.D. properties file   788 does not exist.
 Leave Link 1002 at Mon Jan 23 09:06:08 2023, MaxMem=  4194304000 cpu:            4392.8 elap:             549.2
 (Enter /software/gaussian/G16-A.03/avx/g16/l601.exe)
 Copying SCF densities to generalized density rwf, IOpCl= 0 IROHF=0.

 **********************************************************************

            Population analysis using the SCF density.

 **********************************************************************

 Orbital symmetries:
       Occupied  (A) (A) (A) (A) (A) (A) (A) (A) (A) (A) (A) (A)
                 (A) (A) (A) (A) (A) (A) (A) (A) (A) (A) (A) (A)
                 (A) (A) (A) (A) (A) (A) (A) (A) (A) (A) (A) (A)
                 (A) (A) (A) (A) (A) (A) (A) (A) (A) (A) (A) (A)
                 (A) (A) (A) (A) (A) (A) (A) (A) (A) (A) (A) (A)
                 (A) (A) (A) (A) (A) (A) (A) (A) (A) (A) (A) (A)
       Virtual   (A) (A) (A) (A) (A) (A) (A) (A) (A) (A) (A) (A)
                 (A) (A) (A) (A) (A) (A) (A) (A) (A) (A) (A) (A)
                 (A) (A) (A) (A) (A) (A) (A) (A) (A) (A) (A) (A)
                 (A) (A) (A) (A) (A) (A) (A) (A) (A) (A) (A) (A)
                 (A) (A) (A) (A) (A) (A) (A) (A) (A) (A) (A) (A)
                 (A) (A) (A) (A) (A) (A) (A) (A) (A) (A) (A) (A)
                 (A) (A) (A) (A) (A) (A) (A) (A) (A) (A) (A) (A)
                 (A) (A) (A) (A) (A) (A) (A) (A) (A) (A) (A) (A)
                 (A) (A) (A) (A) (A) (A) (A) (A) (A) (A) (A) (A)
                 (A) (A) (A) (A) (A) (A) (A) (A) (A) (A) (A) (A)
                 (A) (A) (A) (A) (A) (A) (A) (A) (A) (A) (A) (A)
                 (A) (A) (A) (A) (A) (A) (A) (A) (A) (A) (A) (A)
                 (A) (A) (A) (A) (A) (A) (A) (A) (A) (A) (A) (A)
                 (A) (A) (A) (A) (A) (A) (A) (A) (A) (A) (A) (A)
                 (A) (A) (A) (A) (A) (A) (A) (A) (A) (A) (A) (A)
                 (A) (A) (A) (A) (A) (A) (A) (A) (A) (A) (A) (A)
                 (A) (A) (A) (A) (A) (A) (A) (A) (A) (A) (A) (A)
                 (A) (A) (A) (A) (A) (A) (A) (A) (A) (A) (A) (A)
                 (A) (A) (A) (A) (A) (A) (A) (A) (A) (A) (A) (A)
                 (A) (A) (A) (A) (A) (A) (A) (A) (A) (A) (A) (A)
                 (A) (A) (A) (A) (A) (A) (A) (A) (A) (A) (A) (A)
                 (A) (A) (A) (A) (A) (A) (A) (A) (A) (A) (A) (A)
                 (A) (A) (A) (A) (A) (A) (A) (A) (A) (A) (A) (A)
                 (A) (A) (A) (A) (A) (A) (A) (A) (A) (A) (A) (A)
                 (A) (A) (A) (A) (A) (A) (A) (A) (A) (A) (A) (A)
                 (A) (A) (A) (A) (A) (A) (A) (A) (A) (A) (A) (A)
                 (A) (A) (A) (A) (A) (A) (A) (A) (A) (A) (A) (A)
 The electronic state is 1-A.
 Alpha  occ. eigenvalues --  -14.41259 -14.41245 -14.33548 -14.33398 -10.28749
 Alpha  occ. eigenvalues --  -10.28696 -10.28195 -10.28150 -10.26350 -10.26283
 Alpha  occ. eigenvalues --  -10.25378 -10.24661 -10.24619 -10.22472 -10.22444
 Alpha  occ. eigenvalues --  -10.21879 -10.21836 -10.21108 -10.21055  -1.02354
 Alpha  occ. eigenvalues --   -1.00064  -0.90576  -0.87823  -0.82311  -0.80778
 Alpha  occ. eigenvalues --   -0.80575  -0.75823  -0.73538  -0.71105  -0.68854
 Alpha  occ. eigenvalues --   -0.68804  -0.65363  -0.65058  -0.63095  -0.61276
 Alpha  occ. eigenvalues --   -0.55927  -0.55070  -0.54144  -0.53767  -0.50783
 Alpha  occ. eigenvalues --   -0.50453  -0.48884  -0.48324  -0.46714  -0.45390
 Alpha  occ. eigenvalues --   -0.45105  -0.44577  -0.44124  -0.43160  -0.42223
 Alpha  occ. eigenvalues --   -0.41341  -0.41080  -0.40699  -0.39161  -0.38743
 Alpha  occ. eigenvalues --   -0.38356  -0.38227  -0.37798  -0.37192  -0.36674
 Alpha  occ. eigenvalues --   -0.36421  -0.34143  -0.33732  -0.33716  -0.33418
 Alpha  occ. eigenvalues --   -0.32264  -0.32215  -0.31236  -0.26402  -0.23067
 Alpha  occ. eigenvalues --   -0.21779  -0.19770
 Alpha virt. eigenvalues --   -0.01164   0.04792   0.06505   0.07059   0.08518
 Alpha virt. eigenvalues --    0.08998   0.09365   0.10227   0.10617   0.11413
 Alpha virt. eigenvalues --    0.11756   0.12266   0.12917   0.13137   0.13668
 Alpha virt. eigenvalues --    0.14342   0.14460   0.15003   0.15734   0.16007
 Alpha virt. eigenvalues --    0.16088   0.16367   0.17286   0.17409   0.17715
 Alpha virt. eigenvalues --    0.18200   0.18291   0.19507   0.19587   0.20476
 Alpha virt. eigenvalues --    0.20606   0.21095   0.21537   0.22413   0.23275
 Alpha virt. eigenvalues --    0.24334   0.24767   0.26387   0.26780   0.27043
 Alpha virt. eigenvalues --    0.28078   0.29004   0.30051   0.31896   0.32140
 Alpha virt. eigenvalues --    0.36366   0.37485   0.39349   0.40799   0.41245
 Alpha virt. eigenvalues --    0.42246   0.42892   0.43257   0.44049   0.44614
 Alpha virt. eigenvalues --    0.45085   0.45978   0.46503   0.47063   0.47668
 Alpha virt. eigenvalues --    0.50597   0.50783   0.52139   0.54089   0.55596
 Alpha virt. eigenvalues --    0.57238   0.58166   0.58920   0.59320   0.59943
 Alpha virt. eigenvalues --    0.60148   0.61145   0.61755   0.62259   0.62947
 Alpha virt. eigenvalues --    0.63180   0.63627   0.64075   0.64305   0.64702
 Alpha virt. eigenvalues --    0.65105   0.65265   0.65633   0.65796   0.66193
 Alpha virt. eigenvalues --    0.66765   0.66887   0.67280   0.67838   0.68102
 Alpha virt. eigenvalues --    0.68747   0.69055   0.69499   0.69824   0.70389
 Alpha virt. eigenvalues --    0.70578   0.70842   0.71145   0.71445   0.71753
 Alpha virt. eigenvalues --    0.72105   0.72507   0.73024   0.73597   0.73762
 Alpha virt. eigenvalues --    0.74072   0.74112   0.74650   0.74870   0.75673
 Alpha virt. eigenvalues --    0.76178   0.76925   0.77584   0.77862   0.78962
 Alpha virt. eigenvalues --    0.79645   0.80317   0.81557   0.83613   0.86077
 Alpha virt. eigenvalues --    0.88410   0.88907   0.89717   0.90479   0.93980
 Alpha virt. eigenvalues --    0.94452   0.96403   0.98348   0.99099   1.01922
 Alpha virt. eigenvalues --    1.03522   1.05270   1.06065   1.07207   1.08677
 Alpha virt. eigenvalues --    1.09221   1.10363   1.11231   1.11687   1.13215
 Alpha virt. eigenvalues --    1.16139   1.17627   1.18603   1.18834   1.21440
 Alpha virt. eigenvalues --    1.24565   1.25509   1.26523   1.27633   1.28250
 Alpha virt. eigenvalues --    1.29424   1.32024   1.33127   1.34299   1.36031
 Alpha virt. eigenvalues --    1.36143   1.38841   1.43094   1.44265   1.47527
 Alpha virt. eigenvalues --    1.49580   1.49960   1.51945   1.54115   1.54763
 Alpha virt. eigenvalues --    1.54982   1.55333   1.56773   1.57102   1.58259
 Alpha virt. eigenvalues --    1.58724   1.59233   1.60525   1.61154   1.61695
 Alpha virt. eigenvalues --    1.64230   1.65749   1.67555   1.68069   1.70685
 Alpha virt. eigenvalues --    1.71396   1.72006   1.73109   1.73455   1.74547
 Alpha virt. eigenvalues --    1.75015   1.76062   1.76597   1.77551   1.78086
 Alpha virt. eigenvalues --    1.79395   1.79873   1.80025   1.80451   1.80923
 Alpha virt. eigenvalues --    1.81621   1.82427   1.82806   1.83522   1.83882
 Alpha virt. eigenvalues --    1.84450   1.84757   1.85158   1.86060   1.86519
 Alpha virt. eigenvalues --    1.87045   1.87692   1.87855   1.88859   1.89175
 Alpha virt. eigenvalues --    1.90207   1.91052   1.91749   1.92825   1.93195
 Alpha virt. eigenvalues --    1.93669   1.95070   1.95335   1.96020   1.96643
 Alpha virt. eigenvalues --    1.97320   1.98314   1.98567   1.99041   1.99525
 Alpha virt. eigenvalues --    1.99831   2.01223   2.01637   2.03533   2.04848
 Alpha virt. eigenvalues --    2.05675   2.06425   2.07651   2.09231   2.10730
 Alpha virt. eigenvalues --    2.11526   2.13498   2.14565   2.16297   2.16692
 Alpha virt. eigenvalues --    2.18815   2.21054   2.21908   2.24382   2.25640
 Alpha virt. eigenvalues --    2.26853   2.28260   2.28945   2.29703   2.31558
 Alpha virt. eigenvalues --    2.32281   2.32767   2.34031   2.35286   2.37907
 Alpha virt. eigenvalues --    2.40532   2.41168   2.41791   2.43219   2.43702
 Alpha virt. eigenvalues --    2.44045   2.45141   2.45855   2.46540   2.49683
 Alpha virt. eigenvalues --    2.50362   2.51895   2.53439   2.53968   2.54183
 Alpha virt. eigenvalues --    2.57247   2.58536   2.58760   2.59681   2.61118
 Alpha virt. eigenvalues --    2.61362   2.64095   2.64609   2.66879   2.67534
 Alpha virt. eigenvalues --    2.68214   2.69949   2.72004   2.73403   2.74859
 Alpha virt. eigenvalues --    2.76089   2.79008   2.79972   2.82071   2.85380
 Alpha virt. eigenvalues --    2.86033   2.87403   2.88355   2.89622   2.91080
 Alpha virt. eigenvalues --    2.91717   2.92763   2.93623   2.94603   2.94654
 Alpha virt. eigenvalues --    2.95744   2.96240   2.97137   2.98619   3.00348
 Alpha virt. eigenvalues --    3.00683   3.01733   3.04700   3.05508   3.06134
 Alpha virt. eigenvalues --    3.06489   3.07279   3.08860   3.09734   3.11159
 Alpha virt. eigenvalues --    3.11663   3.12657   3.13087   3.19750   3.26463
 Alpha virt. eigenvalues --    3.27044   3.33775   3.50556   3.61624
     Molecular Orbital Coefficients:
                          68        69        70        71        72
                           O         O         O         O         O
     Eigenvalues --    -0.31236  -0.26402  -0.23067  -0.21779  -0.19770
   1 1   C  1S          0.00310  -0.02018  -0.02636  -0.00004  -0.00565
   2        2S         -0.00808   0.05019   0.05934  -0.00014   0.01612
   3        3S          0.01100   0.12159   0.16547   0.01525  -0.01218
   4        4PX         0.04878  -0.02258  -0.03517  -0.01600   0.00571
   5        4PY         0.03511  -0.12706  -0.12583  -0.01984  -0.01519
   6        4PZ        -0.06341  -0.00832  -0.03692   0.05974  -0.05093
   7        5PX         0.01951  -0.00422  -0.01800  -0.00528   0.00648
   8        5PY         0.02129  -0.10451  -0.12317  -0.01771  -0.01618
   9        5PZ        -0.03133  -0.02045  -0.03547   0.01745  -0.00422
  10        6D 0       -0.00795   0.00028  -0.00337   0.01173  -0.01038
  11        6D+1       -0.00881   0.00196  -0.00053   0.00884  -0.00712
  12        6D-1        0.00404   0.00107   0.00048  -0.00048   0.00002
  13        6D+2        0.00629  -0.00079  -0.00083  -0.00528   0.00350
  14        6D-2        0.00002  -0.00334  -0.00553  -0.00121  -0.00050
  15 2   C  1S         -0.01070   0.02091   0.02452   0.00376   0.00281
  16        2S          0.03060  -0.04540  -0.06147  -0.00900  -0.01276
  17        3S         -0.02662  -0.09284  -0.10779  -0.00673   0.03366
  18        4PX         0.05172   0.11003   0.12092   0.03873  -0.00925
  19        4PY        -0.02213   0.07564   0.07702   0.00920   0.00910
  20        4PZ        -0.10554   0.01637   0.03959  -0.06338   0.08275
  21        5PX         0.01085   0.04670   0.04862  -0.00555   0.04606
  22        5PY        -0.01566  -0.01923  -0.02645   0.00112   0.00053
  23        5PZ        -0.02479   0.01228   0.02535  -0.02938  -0.00267
  24        6D 0       -0.00370  -0.00052  -0.00059  -0.00266   0.00504
  25        6D+1       -0.00837  -0.00228  -0.00116  -0.00999   0.01521
  26        6D-1        0.00102   0.00618   0.00536   0.00567  -0.00489
  27        6D+2        0.00446  -0.00888  -0.01020   0.00269  -0.00659
  28        6D-2        0.00152   0.01224   0.01482   0.00095   0.00216
  29 3   H  1S         -0.06313  -0.05277  -0.03943  -0.08285   0.09584
  30        2S         -0.04071  -0.01957  -0.01550  -0.05070   0.07704
  31        3PX         0.00088   0.00125   0.00180   0.00012   0.00049
  32        3PY        -0.00322   0.00112   0.00148  -0.00147   0.00288
  33        3PZ        -0.00038   0.00248   0.00234   0.00135  -0.00057
  34 4   N  1S          0.00138   0.06614   0.08196   0.01494   0.00691
  35        2S          0.00343   0.13267   0.17236   0.03785   0.01179
  36        3S          0.00573   0.19464   0.18816  -0.02951   0.04414
  37        4PX         0.03428   0.18374   0.19504   0.08856  -0.06601
  38        4PY         0.01587   0.27123   0.30604   0.04805   0.01762
  39        4PZ        -0.11953   0.04833   0.08599  -0.19323   0.30750
  40        5PX        -0.02561  -0.12512  -0.08070  -0.05876   0.06540
  41        5PY        -0.01120  -0.19931  -0.21952  -0.04977  -0.00931
  42        5PZ         0.07115  -0.02959  -0.05210   0.16250  -0.23164
  43        6D 0       -0.00017   0.00779   0.00943   0.00181  -0.00090
  44        6D+1       -0.00193  -0.00307  -0.00334  -0.00211  -0.00177
  45        6D-1        0.01032  -0.00153  -0.00417   0.00962  -0.01520
  46        6D+2        0.00108   0.00735   0.00552   0.00134   0.00008
  47        6D-2       -0.00337  -0.00730  -0.01121  -0.00484   0.00332
  48 5   C  1S         -0.00286   0.04827   0.01771   0.00461  -0.00002
  49        2S          0.00731  -0.12728  -0.04970  -0.01366  -0.00128
  50        3S         -0.00614  -0.06704   0.26258   0.12877   0.00911
  51        4PX        -0.02884   0.02018  -0.07277  -0.04506   0.03289
  52        4PY         0.01801   0.07920   0.07623  -0.00407   0.01334
  53        4PZ         0.20513   0.01847  -0.01792   0.07281  -0.09968
  54        5PX         0.00156  -0.00495  -0.30473  -0.08669   0.00282
  55        5PY         0.01404  -0.03820  -0.13022  -0.05534  -0.00271
  56        5PZ         0.15180   0.00676  -0.08748   0.04128  -0.09789
  57        6D 0        0.00779  -0.00278   0.00061  -0.00518  -0.00045
  58        6D+1        0.01481  -0.00416  -0.00096  -0.00810  -0.00356
  59        6D-1        0.00331   0.00318   0.00866  -0.02480   0.02684
  60        6D+2       -0.00637  -0.01506  -0.01360  -0.00053   0.00060
  61        6D-2        0.00246   0.01754   0.01451   0.00866  -0.00611
  62 6   N  1S         -0.00528   0.02623   0.01979   0.01451  -0.00566
  63        2S         -0.00888   0.05944   0.04201   0.02735  -0.01221
  64        3S         -0.03464   0.11100   0.19391   0.10889   0.00965
  65        4PX         0.10184   0.04259   0.03532  -0.09523   0.08671
  66        4PY         0.03546   0.07229   0.06100  -0.02929   0.02636
  67        4PZ        -0.22226   0.04527  -0.03901   0.28944  -0.25658
  68        5PX        -0.07473  -0.05437  -0.05973   0.07452  -0.07227
  69        5PY        -0.00691  -0.03605  -0.07521   0.03921  -0.02863
  70        5PZ         0.17187  -0.04074   0.02825  -0.26314   0.23575
  71        6D 0       -0.00268   0.00029   0.00029   0.00037   0.00026
  72        6D+1       -0.00571  -0.00052  -0.00021   0.00185  -0.00119
  73        6D-1       -0.00755  -0.00168  -0.00198   0.00002   0.00114
  74        6D+2        0.00193   0.00023   0.00273   0.00004   0.00018
  75        6D-2        0.00482  -0.00217  -0.00153  -0.00080  -0.00053
  76 7   C  1S          0.00402   0.00199   0.00569   0.00980  -0.00222
  77        2S         -0.00660  -0.01057  -0.01626  -0.01998   0.01004
  78        3S         -0.05897   0.00215   0.00146  -0.13528  -0.04570
  79        4PX         0.04454   0.00775   0.02118  -0.01322   0.01911
  80        4PY         0.01497   0.04327   0.04306   0.00655  -0.00714
  81        4PZ        -0.07528   0.00865   0.00208   0.05110  -0.03680
  82        5PX         0.02192  -0.00494   0.00363   0.03477   0.00438
  83        5PY         0.00694   0.03336   0.02993   0.03168  -0.01668
  84        5PZ        -0.02712   0.00202   0.00416   0.02460   0.02124
  85        6D 0       -0.00486   0.00179  -0.00141   0.00660  -0.00499
  86        6D+1        0.00412  -0.00151   0.00048  -0.00766   0.00499
  87        6D-1       -0.01031   0.00166  -0.00178   0.01361  -0.01306
  88        6D+2       -0.00116   0.00018   0.00074   0.00072  -0.00277
  89        6D-2        0.00507   0.00368   0.00383  -0.00484   0.00425
  90 8   C  1S         -0.00154   0.00946  -0.00409   0.02120  -0.00206
  91        2S          0.00316  -0.02423   0.01264  -0.06542   0.00585
  92        3S          0.00906  -0.03967  -0.00732   0.02906   0.00375
  93        4PX         0.05083   0.00499  -0.02281   0.00308   0.04767
  94        4PY        -0.01380   0.00134  -0.00887   0.04597  -0.00713
  95        4PZ         0.01728  -0.01864  -0.00151  -0.02856   0.01991
  96        5PX         0.05122   0.00581  -0.00312  -0.02237   0.07892
  97        5PY        -0.00880  -0.01120   0.00684  -0.03636  -0.00250
  98        5PZ         0.01888  -0.02135  -0.01342   0.04934   0.03023
  99        6D 0       -0.00100   0.00059  -0.00067   0.00225  -0.00055
 100        6D+1       -0.00213   0.00048   0.00056  -0.00330  -0.00087
 101        6D-1        0.00038   0.00109   0.00042   0.00214   0.00034
 102        6D+2        0.00173   0.00181   0.00109  -0.00349   0.00076
 103        6D-2        0.00050  -0.00065   0.00230  -0.00005   0.00085
 104 9   C  1S         -0.00246   0.00228  -0.00928   0.00856   0.00354
 105        2S          0.00256  -0.01093   0.02309  -0.01653  -0.01330
 106        3S          0.05051  -0.00154   0.05179  -0.12450   0.04763
 107        4PX        -0.00587  -0.00830   0.02144  -0.00854  -0.00337
 108        4PY         0.00412   0.04567  -0.04236  -0.00277   0.01446
 109        4PZ         0.08992  -0.00192  -0.01273   0.05248   0.03904
 110        5PX        -0.00040   0.00545   0.01959  -0.03490   0.01877
 111        5PY        -0.00024   0.03491  -0.03981   0.02363   0.01703
 112        5PZ         0.03645   0.00356  -0.00168  -0.00329  -0.01625
 113        6D 0        0.00638   0.00165  -0.00312   0.00943   0.00678
 114        6D+1       -0.00218  -0.00106  -0.00002  -0.00283  -0.00049
 115        6D-1        0.01080  -0.00196  -0.00208   0.01496   0.01210
 116        6D+2        0.00169  -0.00075   0.00041  -0.00084   0.00177
 117        6D-2       -0.00324  -0.00366   0.00314  -0.00264  -0.00418
 118 10  N  1S          0.01475   0.02680  -0.02390   0.01035   0.00905
 119        2S          0.03276   0.06134  -0.04984   0.02048   0.02149
 120        3S          0.04178   0.10982  -0.21020   0.00707  -0.01418
 121        4PX        -0.06532  -0.04888   0.03447  -0.08851  -0.06895
 122        4PY         0.00836   0.08090  -0.04602  -0.03493  -0.00941
 123        4PZ         0.23305  -0.01079  -0.06939   0.30290   0.24495
 124        5PX         0.05242   0.05711  -0.05709   0.08852   0.07338
 125        5PY        -0.01307  -0.04172   0.05525   0.05820   0.01799
 126        5PZ        -0.17699   0.01604   0.04674  -0.27182  -0.21988
 127        6D 0       -0.00481   0.00105  -0.00022  -0.00213  -0.00117
 128        6D+1       -0.00398   0.00031  -0.00036  -0.00097  -0.00036
 129        6D-1        0.00827  -0.00053   0.00006   0.00069  -0.00134
 130        6D+2        0.00114   0.00042  -0.00287   0.00010   0.00047
 131        6D-2       -0.00237   0.00307  -0.00178  -0.00052  -0.00004
 132 11  C  1S          0.00744   0.04905  -0.01614  -0.00161   0.00283
 133        2S         -0.01583  -0.12963   0.04534   0.00600  -0.01032
 134        3S          0.01394  -0.05913  -0.27878  -0.07158   0.00623
 135        4PX         0.04463  -0.01832  -0.07426  -0.03177  -0.03412
 136        4PY        -0.03463   0.08585  -0.05925  -0.02699  -0.00588
 137        4PZ        -0.19405   0.00844  -0.04539   0.08021   0.09754
 138        5PX         0.05747   0.00649  -0.27986  -0.10555  -0.05457
 139        5PY        -0.03560  -0.02777   0.15275   0.05165   0.00748
 140        5PZ        -0.13180   0.01621  -0.11307   0.03186   0.07833
 141        6D 0        0.00901  -0.00188  -0.00065   0.00723   0.00086
 142        6D+1        0.01358  -0.00363   0.00360   0.00499  -0.00663
 143        6D-1       -0.00369  -0.00753   0.01205  -0.02441  -0.02361
 144        6D+2       -0.00738  -0.01822   0.01371   0.00310   0.00362
 145        6D-2        0.00128  -0.01453   0.00969   0.01238   0.00892
 146 12  N  1S          0.00618   0.06903  -0.07671  -0.02273  -0.00486
 147        2S          0.01590   0.13745  -0.16206  -0.04836  -0.01179
 148        3S         -0.01174   0.21618  -0.16836  -0.04458  -0.00338
 149        4PX        -0.06925  -0.15789   0.14190   0.11175   0.09562
 150        4PY         0.01920   0.29629  -0.29119  -0.10833  -0.04534
 151        4PZ         0.10691  -0.08871   0.13583  -0.18631  -0.28327
 152        5PX         0.04389   0.10361  -0.04001  -0.07532  -0.08211
 153        5PY        -0.01793  -0.21202   0.20518   0.08120   0.03095
 154        5PZ        -0.06261   0.05707  -0.08661   0.15927   0.21359
 155        6D 0        0.00014   0.00811  -0.00839  -0.00245  -0.00205
 156        6D+1       -0.00318  -0.00228   0.00285   0.00312  -0.00019
 157        6D-1       -0.00941   0.00458  -0.00764   0.00911   0.01406
 158        6D+2        0.00131   0.00832  -0.00642  -0.00270  -0.00104
 159        6D-2        0.00506   0.00574  -0.00875  -0.00567  -0.00506
 160 13  C  1S         -0.00905   0.02341  -0.02366  -0.00703   0.00002
 161        2S          0.02377  -0.05316   0.06135   0.01749  -0.00369
 162        3S         -0.00655  -0.09164   0.09437   0.00039   0.01285
 163        4PX        -0.07915  -0.09571   0.09644   0.05650   0.02868
 164        4PY        -0.02433   0.08930  -0.07996  -0.02209  -0.00926
 165        4PZ         0.09693  -0.05010   0.06263  -0.05135  -0.06881
 166        5PX        -0.00424  -0.05315   0.05095   0.01463  -0.03864
 167        5PY        -0.00478  -0.01918   0.02346  -0.00573  -0.01150
 168        5PZ         0.02817  -0.02508   0.03522  -0.02165   0.00612
 169        6D 0       -0.00488  -0.00005  -0.00154   0.00743   0.01048
 170        6D+1       -0.00846  -0.00148  -0.00034   0.00895   0.01264
 171        6D-1       -0.00066  -0.00297   0.00190   0.00570   0.00490
 172        6D+2        0.00254  -0.01223   0.01221   0.00068  -0.00355
 173        6D-2       -0.00003  -0.01221   0.01293   0.00246   0.00050
 174 14  H  1S         -0.07113  -0.01452  -0.00453   0.09296   0.11135
 175        2S         -0.04054   0.00804  -0.01644   0.06137   0.09453
 176        3PX        -0.00156  -0.00061   0.00135  -0.00021  -0.00052
 177        3PY        -0.00309   0.00281  -0.00288   0.00131   0.00263
 178        3PZ        -0.00082  -0.00178   0.00144   0.00190   0.00170
 179 15  C  1S         -0.00001  -0.02097   0.02210   0.01378   0.00866
 180        2S          0.00197   0.05161  -0.04856  -0.03345  -0.02320
 181        3S          0.00499   0.12686  -0.15368  -0.02760  -0.00653
 182        4PX        -0.02609   0.01453  -0.02465  -0.03499  -0.01790
 183        4PY         0.00396  -0.13621   0.12069   0.03660   0.01570
 184        4PZ         0.07661   0.00990  -0.02716   0.05886   0.04358
 185        5PX        -0.01664   0.00602  -0.02101   0.00642   0.02556
 186        5PY         0.00631  -0.11751   0.12378   0.02350   0.00806
 187        5PZ         0.03346   0.00131  -0.01588   0.02289   0.00987
 188        6D 0       -0.00426  -0.00206   0.00338  -0.00304  -0.00243
 189        6D+1       -0.01232  -0.00002   0.00377  -0.01521  -0.01138
 190        6D-1       -0.00218   0.00173  -0.00243   0.00095   0.00150
 191        6D+2        0.00241   0.00020   0.00015   0.00257   0.00241
 192        6D-2        0.00249   0.00223  -0.00440  -0.00196  -0.00089
 193 16  C  1S         -0.00373   0.00965  -0.01367   0.01273   0.01850
 194        2S         -0.00048  -0.02413   0.03333  -0.03254  -0.04033
 195        3S          0.10960  -0.06209   0.08392  -0.03522  -0.16045
 196        4PX         0.06353  -0.01772   0.03354  -0.04521  -0.05980
 197        4PY         0.07026  -0.03721   0.03460  -0.03347  -0.04344
 198        4PZ        -0.07372   0.02906  -0.03435   0.03731   0.04649
 199        5PX         0.03073   0.01340  -0.00605  -0.03432  -0.03635
 200        5PY         0.06917   0.00105   0.00077  -0.02968  -0.06416
 201        5PZ        -0.03296   0.05663  -0.05614   0.00779   0.02772
 202        6D 0       -0.00063  -0.00031  -0.00010   0.00090   0.00099
 203        6D+1       -0.00306   0.00137  -0.00149   0.00068   0.00089
 204        6D-1       -0.00476  -0.00031   0.00046   0.00156   0.00188
 205        6D+2        0.00118  -0.00399   0.00322   0.00172   0.00150
 206        6D-2        0.00508  -0.00170   0.00190  -0.00110  -0.00204
 207 17  C  1S          0.00438   0.00242  -0.00292   0.00298   0.00383
 208        2S         -0.00743  -0.00282   0.00699  -0.00567  -0.01208
 209        3S         -0.06008  -0.06785   0.04063  -0.00763   0.03632
 210        4PX         0.00301  -0.01983   0.01840  -0.00887  -0.01697
 211        4PY        -0.04787   0.01389  -0.00667  -0.01240  -0.00775
 212        4PZ         0.06039  -0.01286   0.01472  -0.01926  -0.02280
 213        5PX        -0.00209  -0.02553   0.01421  -0.01285  -0.00821
 214        5PY        -0.02791   0.00891  -0.00205  -0.00620  -0.00114
 215        5PZ         0.05147  -0.01217   0.01474  -0.03354  -0.04906
 216        6D 0        0.00052  -0.00098   0.00128  -0.00079  -0.00129
 217        6D+1       -0.00270   0.00012  -0.00069   0.00041   0.00083
 218        6D-1       -0.00417   0.00174  -0.00148   0.00068   0.00095
 219        6D+2        0.00176  -0.00180   0.00086   0.00001   0.00038
 220        6D-2        0.00158  -0.00047   0.00027   0.00074   0.00070
 221 18  C  1S          0.00237   0.00408  -0.00272  -0.00077  -0.00097
 222        2S         -0.00558  -0.01094   0.00884   0.00326   0.00266
 223        3S         -0.03444   0.03407  -0.04221  -0.02129   0.02122
 224        4PX        -0.03569  -0.00942   0.00009   0.01980   0.02304
 225        4PY        -0.04362   0.00055   0.00082   0.00021   0.00226
 226        4PZ         0.01826  -0.00904   0.00494   0.00179   0.00519
 227        5PX        -0.02696   0.01180  -0.02115   0.01456   0.03237
 228        5PY        -0.02428  -0.00644   0.00403  -0.00209   0.00192
 229        5PZ        -0.00041  -0.00829   0.00209   0.00457   0.01725
[...]
 0.00000293,-0.00000544,-0.00001512,-0.00000855,0.00000339,0.00000544,0
 .00000243,-0.00000106,-0.00000110,-0.00001096,0.00000233,0.00000166,0.
 00000074,-0.00000077,-0.00000626,0.00005118,0.00007702,0.00046013,0.00
 487986,0.00551494,-0.00853745,-0.01289361,-0.01493490,0.02179574,0.123
 04271,0.00007342,-0.00002810,-0.00009763,-0.00070273,-0.00153349,-0.00
 295948,0.00047340,0.00032999,-0.00068108,-0.00027891,0.00022179,0.0000
 3138,0.00048022,-0.00074600,-0.00000005,-0.00041453,0.00037340,0.00050
 034,0.00007483,0.00014245,-0.00009668,0.00001475,0.00000722,-0.0000279
 2,0.00002589,-0.00001849,-0.00000157,-0.00002573,0.00002977,0.00001274
 ,0.00003339,0.00000252,-0.00004950,-0.00003191,0.00001595,0.00001075,0
 .00001255,-0.00000517,0.00000606,-0.00000352,0.00000241,-0.00000328,0.
 00002855,-0.00000134,0.00000777,0.00000304,-0.00000351,-0.00000614,-0.
 00000269,0.00000146,0.00000205,-0.00000131,0.00000167,0.00000573,0.008
 56281,0.00707236,-0.01229781,-0.06926495,-0.10945542,0.09642256,0.0004
 9600,0.00033721,0.00007324,-0.00026341,0.00028850,-0.00026784,-0.00018
 572,0.00010596,0.00010171,-0.00000470,0.00002953,-0.00002898,-0.000015
 61,-0.00002221,0.00001724,0.00002258,0.00002013,0.00003307,-0.00001463
 ,-0.00001254,0.00000902,-0.00001105,0.00000106,-0.00000461,-0.00000945
 ,0.00000622,0.00000460,-0.00000663,-0.00000305,0.00000190,-0.00000489,
 -0.00000295,-0.00000333,0.00000108,0.00000019,0.00000071,0.00000201,-0
 .00000050,-0.00000135,0.00000095,-0.00000190,-0.00000573,-0.00000311,0
 .00000249,0.00000232,0.00000100,-0.00000139,-0.00000031,-0.00000394,0.
 00000171,0.00000121,0.00000108,0.00000033,-0.00000192,0.00042637,0.000
 79248,0.00041799,-0.01598565,-0.01289940,0.02044073,0.00146813,-0.0000
 7548,-0.00170174,0.07492465,0.11499333,-0.00002014,-0.00055709,0.00016
 386,-0.00240973,-0.00422708,-0.00420660,0.00109732,0.00060755,-0.00146
 226,-0.00048210,0.00017243,0.00062415,0.00014832,-0.00042210,0.0002217
 9,-0.00024835,0.00051072,-0.00006024,0.00000882,-0.00022500,-0.0000151
 0,-0.00000463,0.00002414,-0.00004984,-0.00000048,-0.00002268,0.0000140
 2,0.00008215,-0.00000968,0.00003706,-0.00016865,-0.00000763,-0.0000863
 4,0.00016778,-0.00003989,0.00004264,-0.00004875,0.00000347,-0.00001223
 ,0.00003208,0.00000090,0.00001983,-0.00001276,0.00001329,-0.00000709,0
 .00000535,0.00002290,0.00001193,-0.00000166,-0.00000713,-0.00000334,0.
 00000311,-0.00000817,-0.00001161,0.01510860,0.01500882,-0.02035219,0.1
 0041446,0.09492101,-0.18283757,0.00123410,0.00100827,0.00114587,-0.000
 07340,0.00004585,0.00025830,-0.00004804,0.00008338,0.00001009,-0.00001
 398,0.00001601,-0.00000577,0.00002205,0.00006050,-0.00002918,0.0000107
 1,0.00000279,0.00001338,0.00001338,0.00001461,0.00001068,0.00001284,0.
 00000411,0.00000441,-0.00000886,0.00000403,-0.00000488,0.00000997,0.00
 000231,-0.00000195,0.00001216,0.00000689,0.00000646,-0.00000363,-0.000
 00172,-0.00000184,-0.00000179,0.00000065,0.00000288,-0.00000185,0.0000
 0393,0.00001090,0.00000699,-0.00000315,-0.00000426,-0.00000162,0.00000
 166,0.00000064,0.00000877,-0.00000218,-0.00000202,-0.00000049,0.000000
 68,0.00000533,0.00021724,-0.00015953,0.00103568,-0.00060981,-0.0009994
 0,-0.00028827,-0.00451707,-0.00489720,0.00586672,-0.10892156,-0.100245
 48,0.19946482,-0.00123812,-0.00002107,0.00081751,0.00139380,0.00155614
 ,-0.00070073,-0.00006249,-0.00011201,-0.00000034,-0.00021260,-0.000742
 09,0.00010587,-0.00016123,0.00079293,-0.00003460,0.00095916,-0.0004472
 4,-0.00014981,0.00003885,-0.00011870,0.00005117,-0.00000495,0.00001420
 ,-0.00002294,-0.00001880,0.00003396,0.00000726,0.00000808,-0.00006534,
 -0.00002066,0.00001995,0.00005832,0.00008529,0.00002122,-0.00005115,0.
 00001308,0.00000873,0.00000700,-0.00000922,0.00000682,-0.00000043,0.00
 000545,-0.00001434,-0.00000263,-0.00000366,0.00000286,0.00000852,0.000
 00430,0.00000121,-0.00000180,-0.00000124,0.00000184,-0.00000299,-0.000
 00320,-0.01119774,0.03083545,-0.00235850,0.00152512,0.00070079,0.00139
 406,-0.08260376,0.09184066,-0.00948677,-0.00011072,-0.00110683,-0.0001
 9953,0.00019884,-0.00016654,-0.00007026,-0.00001742,-0.00003871,-0.000
 00127,-0.00001160,0.00000229,-0.00000457,0.00000063,-0.00000086,-0.000
 00056,0.00001136,0.00000682,0.00000773,0.00000983,-0.00000450,0.000003
 00,0.00000060,-0.00000946,0.00000400,0.00000240,0.00000053,0.00000097,
 0.00000283,0.00000095,0.00000027,0.00000159,-0.00000463,-0.00000072,-0
 .00000302,-0.00000271,0.00000114,-0.00000020,0.00000424,0.00000111,0.0
 0000211,-0.00000081,-0.00000098,-0.00000216,-0.00000132,0.00000022,0.0
 0000223,-0.00000037,-0.00000051,0.00000024,0.00000054,0.00000168,-0.00
 604383,-0.00093270,-0.00170660,0.00017646,-0.00075753,-0.00051923,0.00
 010627,-0.00028351,0.00026085,-0.00002337,-0.00011385,-0.00004420,0.09
 090920,-0.00062100,-0.00007519,-0.00025713,-0.00042404,-0.00026183,0.0
 0084334,0.00007466,0.00000335,0.00000695,0.00034426,0.00044540,-0.0001
 5551,0.00015936,-0.00080519,0.00007594,-0.00072519,0.00053090,0.000106
 58,0.00002317,-0.00004057,-0.00001913,-0.00000076,0.00001262,0.0000061
 6,0.00001204,-0.00004629,0.00000462,0.00004121,0.00005281,0.00002755,-
 0.00009002,-0.00003435,-0.00003370,0.00005401,0.00002998,-0.00001115,-
 0.00002881,-0.00000339,0.00000798,0.00000534,0.00000173,0.00000263,-0.
 00000054,0.00000999,-0.00000127,-0.00000267,0.00000259,0.00000240,-0.0
 0000036,-0.00000246,-0.00000144,0.00000011,-0.00000153,-0.00000318,0.0
 0042847,0.00148784,-0.00074670,-0.00024434,0.00100459,-0.00020170,0.09
 173132,-0.27331312,0.02176440,-0.00032334,-0.00002704,0.00022343,0.000
 16888,0.00008648,-0.00017959,0.00000752,0.00002199,0.00000795,0.000013
 46,0.00002512,-0.00002335,0.00000054,-0.00000851,-0.00000267,0.0000027
 7,0.00000703,-0.00000206,-0.00000081,0.00000550,0.00000037,-0.00000156
 ,0.00001040,-0.00000920,0.00000526,0.00000140,-0.00000331,0.00000283,0
 .00000173,0.00000341,-0.00000257,0.00000370,-0.00000044,0.00000161,0.0
 0000379,0.00000078,-0.00000102,-0.00000192,0.00000506,0.00000168,-0.00
 000166,-0.00000168,0.00000090,0.00000290,0.00000022,0.00000262,-0.0000
 0147,-0.00000072,-0.00000112,-0.00000030,0.00000053,-0.00046470,0.0013
 8299,0.00012895,0.00032059,0.00018896,0.00054478,0.00002251,0.00019463
 ,0.00010370,0.00004084,-0.00010179,-0.00001604,-0.10085070,0.29331539,
 0.00024417,0.00017987,0.00011762,0.00036106,-0.00063682,0.00018981,-0.
 00010944,-0.00009196,-0.00000972,-0.00002036,-0.00001532,-0.00012282,-
 0.00003297,0.00003802,0.00000549,0.00000903,-0.00012146,-0.00012042,-0
 .00003048,0.00005370,-0.00000216,0.00000081,-0.00001461,0.00002164,-0.
 00000206,0.00000638,-0.00000493,-0.00001953,-0.00000393,-0.00001428,0.
 00003232,0.00001515,0.00005078,-0.00003913,0.00000414,-0.00001167,0.00
 001069,-0.00000116,0.00000209,-0.00000633,0.00000102,-0.00000369,0.000
 00243,-0.00000374,0.00000274,-0.00000068,-0.00000368,-0.00000232,0.000
 00019,0.00000133,0.00000032,-0.00000047,0.00000149,0.00000229,-0.00229
 469,0.00780727,-0.00188955,0.00025184,0.00136508,0.00057292,-0.0093321
 2,0.02184428,-0.04865688,0.00008755,0.00005922,0.00021795,0.00013316,0
 .00002208,-0.00009774,0.00000844,-0.00000404,0.00001210,0.00000406,-0.
 00001400,-0.00000222,-0.00000637,0.00000376,-0.00000701,-0.00000641,-0
 .00000585,-0.00000281,-0.00000508,-0.00000100,-0.00000117,0.00000487,-
 0.00000164,-0.00000069,-0.00000237,-0.00000053,0.00000031,-0.00000375,
 -0.00000195,-0.00000199,0.00000098,-0.00000009,-0.00000021,0.00000075,
 -0.00000001,-0.00000015,0.00000028,-0.00000144,-0.00000234,-0.00000160
 ,0.00000063,0.00000090,0.00000016,-0.00000063,0.00000009,-0.00000184,0
 .00000044,0.00000046,0.00000017,0.00000017,-0.00000117,-0.00178051,-0.
 00013474,0.00027817,-0.00010222,-0.00042789,0.00009600,0.00013435,-0.0
 0019732,0.00005252,-0.00003336,0.00009255,-0.00003801,0.01140834,-0.02
 509178,0.04681836,-0.00032687,0.00037025,0.00005205,-0.00507796,0.0010
 4574,-0.00391178,0.00020766,0.00023475,-0.00023302,-0.00128196,-0.0016
 8633,0.00150151,-0.00087667,0.00120945,-0.00010308,0.00079824,-0.00065
 648,-0.00000879,0.00004435,0.00025766,0.00001693,0.00000071,-0.0000259
 8,0.00003335,-0.00000527,0.00006488,-0.00002173,-0.00016265,0.00000568
 ,-0.00005530,0.00036632,-0.00005998,-0.00012812,-0.00025122,0.00004253
 ,-0.00000834,0.00008651,0.00000293,0.00000473,-0.00004973,-0.00000516,
 -0.00002876,0.00001475,-0.00003139,0.00002068,-0.00000578,-0.00003674,
 -0.00002243,-0.00000235,0.00001220,0.00000672,-0.00000617,0.00001269,0
 .00002079,-0.01671850,-0.01566336,0.02346712,0.00135054,0.00010098,0.0
 0147275,-0.11879910,-0.06928237,0.10155154,0.00021268,-0.00015413,-0.0
 0013536,0.00005372,-0.00011083,0.00009510,0.00000946,-0.00003797,0.000
 00470,-0.00003705,-0.00007368,0.00004732,-0.00000367,0.00001249,-0.000
 00101,-0.00001257,-0.00001894,-0.00000416,-0.00001211,-0.00001114,-0.0
 0000444,0.00000759,-0.00001295,0.00001262,-0.00002061,-0.00000355,0.00
 000193,-0.00001783,-0.00000919,-0.00000903,0.00000512,0.00000281,0.000
 00210,0.00000297,-0.00000104,-0.00000405,0.00000439,-0.00000704,-0.000
 01955,-0.00001181,0.00000437,0.00000748,0.00000270,-0.00000210,-0.0000
 0114,-0.00001433,0.00000346,0.00000224,0.00000206,-0.00000122,-0.00000
 613,0.00112370,0.00041896,0.00031383,-0.00001780,0.00003609,-0.0000888
 7,0.00020856,0.00041642,-0.00000088,0.00010888,-0.00002587,-0.00100473
 ,0.00593721,0.00584100,-0.00951752,0.13168688,0.00008685,0.00012772,-0
 .00033448,0.00019746,0.00033443,-0.00048469,0.00002606,0.00005337,0.00
 027347,0.00012342,0.00021467,0.00019367,0.00000731,-0.00019960,0.00001
 060,-0.00029944,0.00014274,0.00015854,0.00000655,0.00011652,-0.0000288
 6,0.00000156,-0.00001540,0.00002683,0.00000353,0.00000883,-0.00001036,
 -0.00003679,0.00000570,-0.00001749,0.00006596,0.00003877,-0.00005233,-
 0.00006158,0.00000342,-0.00000807,0.00001585,-0.00000205,0.00001129,-0
 .00000997,0.00000075,-0.00000661,0.00000994,-0.00000668,0.00000727,-0.
 00000145,-0.00000787,-0.00000700,-0.00000051,0.00000261,0.00000148,-0.
 00000162,0.00000328,0.00000609,0.00130710,-0.00078142,-0.00053174,0.00
 014038,-0.00010551,0.00047199,-0.07021968,-0.10904865,0.09393634,0.000
 13433,0.00043036,0.00012860,0.00001438,0.00000739,-0.00003731,0.000012
 84,0.00000956,0.00000802,-0.00000296,-0.00001512,0.00000561,-0.0000038
 4,0.00000457,-0.00000286,-0.00000893,-0.00000963,-0.00000434,-0.000009
 08,-0.00000169,-0.00000249,0.00000358,-0.00000144,0.00000206,-0.000006
 12,-0.00000145,0.00000089,-0.00000605,-0.00000347,-0.00000358,0.000001
 71,-0.00000004,0.00000068,0.00000110,-0.00000081,-0.00000109,0.0000008
 2,-0.00000171,-0.00000562,-0.00000302,0.00000188,0.00000201,0.00000060
 ,-0.00000142,-0.00000020,-0.00000414,0.00000134,0.00000080,0.00000058,
 0.00000017,-0.00000218,-0.00000467,0.00054641,-0.00056767,-0.00007528,
 -0.00010816,0.00010683,0.00015382,0.00004248,-0.00016700,-0.00024254,0
 .00015321,-0.00041580,-0.01571242,-0.01254365,0.02005540,0.07514330,0.
 11283121,-0.00019165,-0.00002386,-0.00002538,-0.00124161,-0.00055366,-
 0.00019311,-0.00022184,0.00014652,0.00039452,-0.00039360,0.00015910,0.
 00053827,-0.00011913,0.00006921,0.00002897,0.00017366,0.00009592,0.000
 07086,0.00001219,-0.00006559,0.00002451,-0.00000551,0.00001147,-0.0000
 0888,-0.00000674,-0.00000187,0.00000582,0.00002742,-0.00001590,0.00000
 826,0.00001939,0.00001071,-0.00009608,0.00003097,-0.00000261,0.0000085
 6,-0.00001426,0.00001087,-0.00000580,0.00000284,-0.00000108,0.00000415
 ,-0.00001436,0.00000512,0.00000597,-0.00000136,0.00000646,0.00000278,-
 0.00000008,-0.00000241,-0.00000157,0.00000070,-0.00000240,-0.00000356,
 -0.00554290,-0.00561694,0.00553052,-0.00063119,-0.00047734,0.00115860,
 0.10278048,0.09416509,-0.18373134,0.00010803,0.00000206,-0.00006828,0.
 00000347,-0.00005503,0.00005093,-0.00000302,-0.00000319,-0.00000095,0.
 00000193,0.00001223,-0.00000713,0.00000061,-0.00000407,-0.00000125,0.0
 0000774,0.00000751,0.00000216,0.00000584,0.00000038,0.00000311,-0.0000
 0030,-0.00000094,-0.00000313,0.00000368,0.00000271,-0.00000294,0.00000
 481,0.00000186,0.00000287,-0.00000162,-0.00000050,-0.00000063,-0.00000
 126,0.00000020,0.00000139,-0.00000074,0.00000158,0.00000405,0.00000295
 ,-0.00000189,-0.00000235,-0.00000089,0.00000091,0.00000044,0.00000366,
 -0.00000130,-0.00000188,-0.00000056,0.00000046,0.00000247,0.00059355,-
 0.00010074,0.00026816,0.00002034,0.00000225,-0.00005950,0.00011784,0.0
 0000596,0.00017950,0.00010567,0.00025461,0.00003850,0.00051615,-0.0005
 4229,-0.00156757,-0.10957090,-0.10143916,0.19382821,-0.00014970,0.0000
 2027,0.00011772,0.00108596,-0.00084940,-0.00187408,-0.00027610,0.00028
 423,0.00102077,0.00053992,0.00059376,0.00033375,0.00024635,-0.00021074
 ,-0.00008992,-0.00004109,0.00028242,0.00013702,-0.00000014,-0.00007011
 ,0.00000946,0.00000454,0.00001700,-0.00003413,0.00000352,-0.00000323,0
 .00000121,0.00003801,-0.00000324,0.00002637,-0.00005309,0.00003921,-0.
 00004366,0.00004676,-0.00001623,0.00004414,-0.00000871,0.00000363,-0.0
 0000829,0.00001449,-0.00000222,0.00000739,0.00000304,0.00000713,-0.000
 00378,0.00000376,0.00000275,0.00000181,-0.00000477,-0.00000018,0.00000
 051,-0.00000006,-0.00000125,-0.00000156,-0.00239776,-0.01644320,-0.027
 61776,-0.00661589,0.00044090,-0.00029529,-0.04937389,-0.01499118,-0.02
 707819,-0.00000414,0.00008483,-0.00007129,0.00000804,-0.00007322,0.000
 01392,-0.00000398,0.00000449,-0.00000675,0.00000650,0.00001501,-0.0000
 0724,0.00000249,0.00000324,0.00000823,0.00000529,0.00000492,0.00000789
 ,0.00000604,0.00000155,0.00000073,-0.00000592,0.00000088,0.00000215,0.
 00000209,-0.00000102,0.00000169,0.00000708,0.00000392,0.00000236,-0.00
 000144,0.00000053,-0.00000141,0.00000077,0.00000091,0.00000077,0.00000
 057,-0.00000086,0.00000150,0.00000021,-0.00000078,0.00000041,0.0000003
 1,0.00000088,-0.00000011,0.00000104,-0.00000029,-0.00000012,0.00000119
 ,-0.00000056,0.00000241,0.00107821,0.00039636,0.00009898,0.00001387,-0
 .00013527,0.00017603,-0.00030311,-0.00087278,-0.00183120,0.00007209,0.
 00024811,0.00003208,0.00037692,0.00447660,0.01065362,0.00147701,0.0092
 5105,0.01341961,0.05419372,0.00011647,-0.00034499,-0.00013693,0.000446
 05,-0.00017677,-0.00098621,-0.00031470,0.00016278,0.00042935,0.0000464
 9,0.00017166,0.00037529,0.00012330,-0.00009841,0.00006496,-0.00014951,
 0.00004820,0.00010288,0.00003230,0.00000180,-0.00003071,-0.00000137,0.
 00000730,-0.00000815,0.00000450,0.00000009,-0.00000383,0.00000693,-0.0
 0000540,0.00000827,0.00000326,0.00002310,-0.00004447,0.00001090,-0.000
 00642,0.00001731,-0.00000158,0.00000022,-0.00000254,0.00000594,-0.0000
 0041,0.00000399,0.00000422,0.00000165,-0.00000099,0.00000303,0.0000036
 7,-0.00000134,-0.00000244,-0.00000057,0.00000123,-0.00000016,-0.000001
 06,0.00000053,0.00043597,-0.00124280,0.00088161,-0.00062915,0.00085412
 ,0.00023402,-0.01599972,-0.11137652,-0.11604815,-0.00004538,0.00020727
 ,-0.00005573,-0.00016425,-0.00006947,0.00014691,0.00000131,0.00000965,
 -0.00000840,-0.00000896,0.00000121,0.00001055,0.00000495,-0.00000071,0
 .00000744,0.00000174,0.00000129,0.00000135,0.00000118,0.00000065,0.000
 00019,-0.00000420,0.00000013,0.00000352,-0.00000064,-0.00000120,0.0000
 0133,0.00000226,0.00000096,0.00000080,0.00000001,-0.00000108,0.0000000
 9,-0.00000031,-0.00000107,-0.00000017,0.00000103,0.00000088,-0.0000014
 6,-0.00000036,0.00000060,0.00000036,-0.00000011,-0.00000043,-0.0000003
 3,-0.00000008,0.00000056,-0.00000002,0.00000099,-0.00000011,0.00000145
 ,-0.00023027,0.00051924,0.00048513,0.00016198,0.00037116,0.00032305,0.
 00016126,0.00033458,-0.00030969,0.00011752,-0.00002060,-0.00027395,-0.
 00431042,-0.01156356,-0.02477637,0.00267880,0.00777438,0.01393958,0.01
 749122,0.11441443,0.00001547,-0.00009127,-0.00006898,0.00125045,0.0004
 8999,0.00056511,-0.00034558,-0.00024157,0.00050436,-0.00022444,0.00010
 196,0.00033114,0.00008740,0.00024037,0.00001515,0.00009519,-0.00008050
 ,0.00003316,0.00003161,0.00009206,-0.00003376,0.00000537,-0.00000193,-
 0.00001068,0.00000914,0.00001166,-0.00001276,-0.00002985,0.00000606,0.
 00000840,0.00008680,0.00003740,-0.00003242,-0.00006871,0.00001798,0.00
 002383,0.00002923,0.00000071,-0.00000711,-0.00000664,-0.00000370,-0.00
 000397,0.00001903,-0.00000326,0.00000062,0.00000278,-0.00001421,-0.000
 00902,-0.00000591,0.00000552,0.00000438,-0.00000287,0.00000477,0.00000
 816,0.00059978,-0.00278365,-0.00709184,-0.00281518,0.00068617,0.000543
 06,-0.02849086,-0.11584299,-0.25145572,-0.00011971,-0.00000249,0.00000
 989,-0.00001987,-0.00004764,0.00007434,0.00000163,-0.00000301,-0.00000
 637,-0.00001374,-0.00001881,0.00002375,0.00000472,0.00000783,0.0000103
 4,-0.00000524,-0.00000635,0.00000255,-0.00000273,-0.00000125,-0.000002
 93,-0.00000429,-0.00000114,0.00000918,-0.00000726,-0.00000478,0.000004
 72,-0.00000103,-0.00000050,-0.00000215,0.00000146,0.00000170,-0.000000
 53,0.00000275,0.00000023,-0.00000169,0.00000319,-0.00000466,-0.0000086
 4,-0.00000676,0.00000239,0.00000494,0.00000197,-0.00000050,-0.00000097
 ,-0.00000679,0.00000210,0.00000202,0.00000270,-0.00000150,-0.00000068,
 -0.00010754,0.00025045,0.00008249,0.00012963,-0.00004826,0.00004404,0.
 00001137,-0.00059452,-0.00051756,0.00014682,0.00003209,0.00047065,0.00
 065066,0.00343633,0.00411897,-0.00374641,-0.01127753,-0.01638227,0.032
 84225,0.12564826,0.26875480\\0.00157788,-0.00448570,0.00001972,-0.0137
 9005,-0.01288575,-0.00340513,0.00289720,-0.00150542,0.00257097,0.00491
 642,0.00422683,-0.00018635,0.00049573,0.03088846,0.00141071,0.01210315
 ,-0.01616419,-0.00053687,0.00240863,0.00497627,0.00028752,-0.00021666,
 -0.00057472,0.00075178,-0.00254407,0.00482501,-0.00090411,-0.00817484,
 -0.01639499,-0.00792708,-0.00413828,0.02988231,0.00309937,-0.00613228,
 0.00255222,-0.00056891,0.01448377,-0.01150305,0.00560389,-0.00253565,-
 0.00204364,-0.00282762,-0.00073330,-0.00438930,-0.00103953,0.00110691,
 -0.00250774,-0.00296299,0.00012513,0.00150614,0.00161089,-0.00109359,0
 .00138506,0.00134658,-0.00034345,-0.00200994,0.00342559,-0.00026012,0.
 00115842,-0.00157752,0.00088158,0.00100122,-0.00173969,0.00118001,-0.0
 0155444,0.00049850,0.00097303,-0.00009877,0.00094565,0.00017972,-0.001
 10461,0.00009832,-0.00096837,-0.00166566,0.00090334,-0.00004888,0.0004
 7719,0.00010537,-0.00001383,-0.00053151,0.00007638,-0.00009275,-0.0011
 6667,-0.00000676,0.00040136,-0.00162841,0.00135204,-0.00138260,-0.0008
 0309,0.00021728,-0.00102192,-0.00114187,-0.00030439,-0.00100279,0.0004
 9774,0.00245753,0.00007806,0.00064025,-0.00092582,0.00019733,-0.000494
 19,-0.00186296,-0.00094593,0.00005735,0.00044759,0.00075421,0.00046445
 ,-0.00009677,-0.00094869,0.00002896,0.00013288,-0.00023640,-0.00048069
 ,-0.00049435,0.00041434,-0.00009614,-0.00266488,-0.00017233,0.00066356
 ,0.00080025,0.00004834,-0.00016906,0.00183693,0.00091517,0.00004004,-0
 .00049485,-0.00067866,0.00040403,0.00012207,0.00095021,0.00009406,-0.0
 0018767,0.00038729,-0.00037004,0.00059309\\\@

 Writing a WFNX file to "28_sub.wfx"


          EVOLUTION
 IN THE BEGINNING GOD MADE MAN.
 HE WORKED THE DIRT WITH HIS HANDS.
 THEN GOD DECIDED TO GIVE MAN SCIENCE,
 MAN SHOULD BE USEFUL (LIKE AN APPLIANCE.)
 BUT SOON MAN'S KNOWLEDGE GREW TOO GREAT,
 TO THE HEADING SCIENCE HE COULDN'T RELATE
 SO GOD SAID "LETS HAVE DIFFERENT FIELDS,
 WE'LL DIVIDE THEM UP, SEE WHAT IT YIELDS."
 ENTER PHYSICS, CHEMISTRY, BIO
 THEY SPRANG UP AROUND THE NILE.
 BUT CHEMISTRY SURPASSED THE REST
 FAR AND AWAY IT WAS THE BEST.
 EXPERIMENT WAS GOD'S DECREE
 EXPERIMENT DID CHEMISTS WITH LOTS OF GLEE
 BUT SOON THEIR TESTS BEGAN TO BOG,
 THEY FOUND THEMSELVES DEEP IN A FOG.
 "GIVE US SOME HELP" THEY CRIED TO GOD.
 GOD LOOKED AROUND, THEN GAVE THE NOD.
 ENTER EINSTEIN, HEISENBERG, BOHR,
 REACTION PATHS WERE CLEAR ONCE MORE.
 WITH THEORISTS GOD SEND DIRECTION
 AND THEN HE STOPPED, HE'D MADE PERFECTION.
          -- THOMAS A. HOLME, 1981
 Job cpu time:       0 days  3 hours 35 minutes  7.7 seconds.
 Elapsed time:       0 days  0 hours 26 minutes 53.7 seconds.
 File lengths (MBytes):  RWF=    749 Int=      0 D2E=      0 Chk=     12 Scr=      1
 Normal termination of Gaussian 16 at Mon Jan 23 09:13:49 2023.
