 Entering Gaussian System, Link 0=g16
 Initial command:
 /software/gaussian/G16-A.03/avx2/g16/l1.exe "/scratch/lcmd/5712545.slurm/Gau-67041.inp" -scrdir="/scratch/lcmd/5712545.slurm/"
 Entering Link 1 = /software/gaussian/G16-A.03/avx2/g16/l1.exe PID=     67047.
  
 Copyright (c) 1988,1990,1992,1993,1995,1998,2003,2009,2016,
            Gaussian, Inc.  All Rights Reserved.
  
 This is part of the Gaussian(R) 16 program.  It is based on
 the Gaussian(R) 09 system (copyright 2009, Gaussian, Inc.),
 the Gaussian(R) 03 system (copyright 2003, Gaussian, Inc.),
 the Gaussian(R) 98 system (copyright 1998, Gaussian, Inc.),
 the Gaussian(R) 94 system (copyright 1995, Gaussian, Inc.),
 the Gaussian 92(TM) system (copyright 1992, Gaussian, Inc.),
 the Gaussian 90(TM) system (copyright 1990, Gaussian, Inc.),
 the Gaussian 88(TM) system (copyright 1988, Gaussian, Inc.),
 the Gaussian 86(TM) system (copyright 1986, Carnegie Mellon
 University), and the Gaussian 82(TM) system (copyright 1983,
 Carnegie Mellon University). Gaussian is a federally registered
 trademark of Gaussian, Inc.
  
 This software contains proprietary and confidential information,
 including trade secrets, belonging to Gaussian, Inc.
  
 This software is provided under written license and may be
 used, copied, transmitted, or stored only in accord with that
 written license.
  
 The following legend is applicable only to US Government
 contracts under FAR:
  
                    RESTRICTED RIGHTS LEGEND
  
 Use, reproduction and disclosure by the US Government is
 subject to restrictions as set forth in subparagraphs (a)
 and (c) of the Commercial Computer Software - Restricted
 Rights clause in FAR 52.227-19.
  
 Gaussian, Inc.
 340 Quinnipiac St., Bldg. 40, Wallingford CT 06492
  
  
 ---------------------------------------------------------------
 Warning -- This program may not be used in any manner that
 competes with the business of Gaussian, Inc. or will provide
 assistance to any competitor of Gaussian, Inc.  The licensee
 of this program is prohibited from giving any competitor of
 Gaussian, Inc. access to this program.  By using this program,
 the user acknowledges that Gaussian, Inc. is engaged in the
 business of creating and licensing software in the field of
 computational chemistry and represents and warrants to the
 licensee that it is not a competitor of Gaussian, Inc. and that
 it will not use this program in any manner prohibited above.
 ---------------------------------------------------------------
  

 Cite this work as:
 Gaussian 16, Revision A.03,
 M. J. Frisch, G. W. Trucks, H. B. Schlegel, G. E. Scuseria, 
 M. A. Robb, J. R. Cheeseman, G. Scalmani, V. Barone, 
 G. A. Petersson, H. Nakatsuji, X. Li, M. Caricato, A. V. Marenich, 
 J. Bloino, B. G. Janesko, R. Gomperts, B. Mennucci, H. P. Hratchian, 
 J. V. Ortiz, A. F. Izmaylov, J. L. Sonnenberg, D. Williams-Young, 
 F. Ding, F. Lipparini, F. Egidi, J. Goings, B. Peng, A. Petrone, 
 T. Henderson, D. Ranasinghe, V. G. Zakrzewski, J. Gao, N. Rega, 
 G. Zheng, W. Liang, M. Hada, M. Ehara, K. Toyota, R. Fukuda, 
 J. Hasegawa, M. Ishida, T. Nakajima, Y. Honda, O. Kitao, H. Nakai, 
 T. Vreven, K. Throssell, J. A. Montgomery, Jr., J. E. Peralta, 
 F. Ogliaro, M. J. Bearpark, J. J. Heyd, E. N. Brothers, K. N. Kudin, 
 V. N. Staroverov, T. A. Keith, R. Kobayashi, J. Normand, 
 K. Raghavachari, A. P. Rendell, J. C. Burant, S. S. Iyengar, 
 J. Tomasi, M. Cossi, J. M. Millam, M. Klene, C. Adamo, R. Cammi, 
 J. W. Ochterski, R. L. Martin, K. Morokuma, O. Farkas, 
 J. B. Foresman, and D. J. Fox, Gaussian, Inc., Wallingford CT, 2016.
 
 ******************************************
 Gaussian 16:  ES64L-G16RevA.03 25-Dec-2016
                15-Jan-2023 
 ******************************************
 %nprocs=8
 Will use up to    8 processors via shared memory.
 %mem=32000MB
 %chk=29_sub.chk
 ----------------------------------------------------------------------
 #p pop=(regular,nbo,savenbos) freq=noraman def2svp empiricaldispersion
 =gd3bj output=wfx pbe1pbe
 ----------------------------------------------------------------------
 1/10=4,30=1,38=1/1,3;
 2/12=2,17=6,18=5,40=1/2;
 3/5=43,7=101,11=2,25=1,30=1,71=2,74=-13,124=41,140=1/1,2,3;
 4//1;
 5/5=2,38=5,98=1/2;
 8/6=4,10=90,11=11/1;
 11/6=1,8=1,9=11,15=111,16=1/1,2,10;
 10/6=1/2;
 6/28=1,40=1,73=1/1,7;
 7/8=1,10=1,25=1/1,2,3,16;
 1/10=4,30=1/3;
 99/6=200/99;
 Leave Link    1 at Sun Jan 15 17:39:51 2023, MaxMem=  4194304000 cpu:               0.4 elap:               0.3
 (Enter /software/gaussian/G16-A.03/avx2/g16/l101.exe)
 ------
 29_sub
 ------
 Symbolic Z-matrix:
 Charge =  0 Multiplicity = 1
 C                     1.49052   2.55102  -1.16858 
 C                     0.01275   2.57456  -0.69646 
 H                    -0.68763   2.8459   -1.50243 
 N                    -0.24307   1.18742  -0.33807 
 C                     0.8778    0.55419  -0.3103 
 N                     1.96955   1.2699   -0.64869 
 C                     3.30246   0.7766   -0.86395 
 C                     3.83263  -0.17482   0.22459 
 C                     3.21401  -1.57806   0.12225 
 N                     1.81201  -1.68912   0.43215 
 C                     0.80122  -0.86148   0.09313 
 N                    -0.38986  -1.3413    0.20031 
 C                    -0.30354  -2.74339   0.58008 
 H                    -0.89786  -2.86959   1.49856 
 C                     1.21192  -2.96262   0.83642 
 C                    -0.89301  -3.65203  -0.51374 
 C                    -2.3982   -3.46047  -0.65366 
 C                    -0.19436  -3.45977  -1.85546 
 C                     5.33137  -0.34662  -0.04095 
 C                     3.6168    0.41452   1.61785 
 C                    -0.22112   3.51737   0.49852 
 C                    -0.15241   4.96599   0.02879 
 C                    -1.53753   3.23285   1.21162 
 H                     2.0809    3.38302  -0.7541 
 H                     1.58861   2.57399  -2.26913 
 H                     3.96076   1.65871  -0.88824 
 H                     3.3981    0.28907  -1.85568 
 H                     3.74467  -2.22886   0.83539 
 H                     3.4199   -1.98973  -0.88692 
 H                     1.61991  -3.79061   0.23238 
 H                     1.44496  -3.16905   1.89405 
 H                    -0.70538  -4.68484  -0.16388 
 H                    -2.63917  -2.46532  -1.05813 
 H                    -2.91414  -3.53079   0.31371 
 H                    -2.81711  -4.21255  -1.33944 
 H                    -0.36852  -2.44083  -2.23631 
 H                    -0.5928   -4.1625   -2.60201 
 H                     0.89429  -3.62501  -1.80259 
 H                     5.52083  -0.73717  -1.05333 
 H                     5.78083  -1.04557   0.68012 
 H                     5.85649   0.61543   0.05435 
 H                     2.55327   0.50746   1.87711 
 H                     4.06687   1.41651   1.68841 
 H                     4.09109  -0.22231   2.37996 
 H                     0.60804   3.33899   1.21134 
 H                    -0.98691   5.18657  -0.65631 
 H                     0.78621   5.19826  -0.49992 
 H                    -0.22952   5.65691   0.88129 
 H                    -2.38377   3.2405    0.50749 
 H                    -1.71653   3.98756   1.9925 
 H                    -1.54157   2.24546   1.6967 
 
 ITRead=  0  0  0  0  0  0  0  0  0  0  0  0  0  0  0  0  0  0  0  0
 ITRead=  0  0  0  0  0  0  0  0  0  0  0  0  0  0  0  0  0  0  0  0
 ITRead=  0  0  0  0  0  0  0  0  0  0  0
 MicOpt= -1 -1 -1 -1 -1 -1 -1 -1 -1 -1 -1 -1 -1 -1 -1 -1 -1 -1 -1 -1
 MicOpt= -1 -1 -1 -1 -1 -1 -1 -1 -1 -1 -1 -1 -1 -1 -1 -1 -1 -1 -1 -1
 MicOpt= -1 -1 -1 -1 -1 -1 -1 -1 -1 -1 -1
 NAtoms=     51 NQM=       51 NQMF=       0 NMMI=      0 NMMIF=      0
                NMic=       0 NMicF=      0.
                    Isotopes and Nuclear Properties:
 (Nuclear quadrupole moments (NQMom) in fm**2, nuclear magnetic moments (NMagM)
  in nuclear magnetons)

  Atom         1           2           3           4           5           6           7           8           9          10
 IAtWgt=          12          12           1          14          12          14          12          12          12          14
 AtmWgt=  12.0000000  12.0000000   1.0078250  14.0030740  12.0000000  14.0030740  12.0000000  12.0000000  12.0000000  14.0030740
 NucSpn=           0           0           1           2           0           2           0           0           0           2
 AtZEff=  -0.0000000  -0.0000000  -0.0000000  -0.0000000  -0.0000000  -0.0000000  -0.0000000  -0.0000000  -0.0000000  -0.0000000
 NQMom=    0.0000000   0.0000000   0.0000000   2.0440000   0.0000000   2.0440000   0.0000000   0.0000000   0.0000000   2.0440000
 NMagM=    0.0000000   0.0000000   2.7928460   0.4037610   0.0000000   0.4037610   0.0000000   0.0000000   0.0000000   0.4037610
 AtZNuc=   6.0000000   6.0000000   1.0000000   7.0000000   6.0000000   7.0000000   6.0000000   6.0000000   6.0000000   7.0000000

  Atom        11          12          13          14          15          16          17          18          19          20
 IAtWgt=          12          14          12           1          12          12          12          12          12          12
 AtmWgt=  12.0000000  14.0030740  12.0000000   1.0078250  12.0000000  12.0000000  12.0000000  12.0000000  12.0000000  12.0000000
 NucSpn=           0           2           0           1           0           0           0           0           0           0
 AtZEff=  -0.0000000  -0.0000000  -0.0000000  -0.0000000  -0.0000000  -0.0000000  -0.0000000  -0.0000000  -0.0000000  -0.0000000
 NQMom=    0.0000000   2.0440000   0.0000000   0.0000000   0.0000000   0.0000000   0.0000000   0.0000000   0.0000000   0.0000000
 NMagM=    0.0000000   0.4037610   0.0000000   2.7928460   0.0000000   0.0000000   0.0000000   0.0000000   0.0000000   0.0000000
 AtZNuc=   6.0000000   7.0000000   6.0000000   1.0000000   6.0000000   6.0000000   6.0000000   6.0000000   6.0000000   6.0000000

  Atom        21          22          23          24          25          26          27          28          29          30
 IAtWgt=          12          12          12           1           1           1           1           1           1           1
 AtmWgt=  12.0000000  12.0000000  12.0000000   1.0078250   1.0078250   1.0078250   1.0078250   1.0078250   1.0078250   1.0078250
 NucSpn=           0           0           0           1           1           1           1           1           1           1
 AtZEff=  -0.0000000  -0.0000000  -0.0000000  -0.0000000  -0.0000000  -0.0000000  -0.0000000  -0.0000000  -0.0000000  -0.0000000
 NQMom=    0.0000000   0.0000000   0.0000000   0.0000000   0.0000000   0.0000000   0.0000000   0.0000000   0.0000000   0.0000000
 NMagM=    0.0000000   0.0000000   0.0000000   2.7928460   2.7928460   2.7928460   2.7928460   2.7928460   2.7928460   2.7928460
 AtZNuc=   6.0000000   6.0000000   6.0000000   1.0000000   1.0000000   1.0000000   1.0000000   1.0000000   1.0000000   1.0000000

  Atom        31          32          33          34          35          36          37          38          39          40
 IAtWgt=           1           1           1           1           1           1           1           1           1           1
 AtmWgt=   1.0078250   1.0078250   1.0078250   1.0078250   1.0078250   1.0078250   1.0078250   1.0078250   1.0078250   1.0078250
 NucSpn=           1           1           1           1           1           1           1           1           1           1
 AtZEff=  -0.0000000  -0.0000000  -0.0000000  -0.0000000  -0.0000000  -0.0000000  -0.0000000  -0.0000000  -0.0000000  -0.0000000
 NQMom=    0.0000000   0.0000000   0.0000000   0.0000000   0.0000000   0.0000000   0.0000000   0.0000000   0.0000000   0.0000000
 NMagM=    2.7928460   2.7928460   2.7928460   2.7928460   2.7928460   2.7928460   2.7928460   2.7928460   2.7928460   2.7928460
 AtZNuc=   1.0000000   1.0000000   1.0000000   1.0000000   1.0000000   1.0000000   1.0000000   1.0000000   1.0000000   1.0000000

  Atom        41          42          43          44          45          46          47          48          49          50
 IAtWgt=           1           1           1           1           1           1           1           1           1           1
 AtmWgt=   1.0078250   1.0078250   1.0078250   1.0078250   1.0078250   1.0078250   1.0078250   1.0078250   1.0078250   1.0078250
 NucSpn=           1           1           1           1           1           1           1           1           1           1
 AtZEff=  -0.0000000  -0.0000000  -0.0000000  -0.0000000  -0.0000000  -0.0000000  -0.0000000  -0.0000000  -0.0000000  -0.0000000
 NQMom=    0.0000000   0.0000000   0.0000000   0.0000000   0.0000000   0.0000000   0.0000000   0.0000000   0.0000000   0.0000000
 NMagM=    2.7928460   2.7928460   2.7928460   2.7928460   2.7928460   2.7928460   2.7928460   2.7928460   2.7928460   2.7928460
 AtZNuc=   1.0000000   1.0000000   1.0000000   1.0000000   1.0000000   1.0000000   1.0000000   1.0000000   1.0000000   1.0000000

  Atom        51
 IAtWgt=           1
 AtmWgt=   1.0078250
 NucSpn=           1
 AtZEff=  -0.0000000
 NQMom=    0.0000000
 NMagM=    2.7928460
 AtZNuc=   1.0000000
 Leave Link  101 at Sun Jan 15 17:39:51 2023, MaxMem=  4194304000 cpu:               0.8 elap:               0.1
 (Enter /software/gaussian/G16-A.03/avx2/g16/l103.exe)

 GradGradGradGradGradGradGradGradGradGradGradGradGradGradGradGradGradGrad
 Berny optimization.
 Initialization pass.
 Trust Radius=3.00D-01 FncErr=1.00D-07 GrdErr=1.00D-07 EigMax=2.50D+02 EigMin=1.00D-04
 Number of steps in this run=      2 maximum allowed number of steps=      2.
 GradGradGradGradGradGradGradGradGradGradGradGradGradGradGradGradGradGrad

 Leave Link  103 at Sun Jan 15 17:39:52 2023, MaxMem=  4194304000 cpu:               0.2 elap:               0.1
 (Enter /software/gaussian/G16-A.03/avx2/g16/l202.exe)
 Stoichiometry    C17H30N4
 Framework group  C1[X(C17H30N4)]
 Deg. of freedom   147
 Full point group                 C1      NOp   1
 Largest Abelian subgroup         C1      NOp   1
 Largest concise Abelian subgroup C1      NOp   1
                         Standard orientation:                         
 ---------------------------------------------------------------------
 Center     Atomic      Atomic             Coordinates (Angstroms)
 Number     Number       Type             X           Y           Z
 ---------------------------------------------------------------------
      1          6           0        2.556878    0.188897    1.268630
      2          6           0        2.486818   -1.257166    0.710734
      3          1           0        2.653764   -2.021519    1.486388
      4          7           0        1.106157   -1.374431    0.265686
      5          6           0        0.568986   -0.204172    0.272045
      6          7           0        1.350804    0.802677    0.712139
      7          6           0        0.956283    2.158598    0.980769
      8          6           0        0.114880    2.826814   -0.122286
      9          6           0       -1.337647    2.324478   -0.130629
     10          7           0       -1.544720    0.956213   -0.529313
     11          6           0       -0.822889   -0.138209   -0.208657
     12          7           0       -1.391271   -1.276639   -0.411896
     13          6           0       -2.757709   -1.051069   -0.858549
     14          1           0       -2.879315   -1.580839   -1.816309
     15          6           0       -2.837740    0.489362   -1.034776
     16          6           0       -3.772274   -1.621130    0.149038
     17          6           0       -3.712297   -3.142561    0.208383
     18          6           0       -3.600579   -1.016576    1.538399
     19          6           0        0.050909    4.317720    0.223193
     20          6           0        0.763191    2.639299   -1.493274
     21          6           0        3.474065   -1.503519   -0.445214
     22          6           0        4.894303   -1.583770    0.102829
     23          6           0        3.124368   -2.749641   -1.249759
     24          1           0        3.456504    0.728761    0.934285
     25          1           0        2.524945    0.223644    2.372773
     26          1           0        1.886274    2.737515    1.090492
     27          1           0        0.422389    2.240140    1.949618
     28          1           0       -1.901297    2.946964   -0.843736
     29          1           0       -1.788069    2.508318    0.866171
     30          1           0       -3.662838    0.931922   -0.451472
     31          1           0       -2.963823    0.797202   -2.085890
     32          1           0       -4.764715   -1.327683   -0.242439
     33          1           0       -2.764792   -3.488909    0.649135
     34          1           0       -3.769124   -3.596377   -0.790499
     35          1           0       -4.533904   -3.533610    0.827614
     36          1           0       -2.622610   -1.297164    1.960849
     37          1           0       -4.374879   -1.394800    2.222012
     38          1           0       -3.673274    0.083405    1.542258
     39          1           0       -0.380019    4.483249    1.223313
     40          1           0       -0.566816    4.863936   -0.505196
     41          1           0        1.056414    4.763990    0.209905
     42          1           0        0.783798    1.587699   -1.810549
     43          1           0        1.800911    3.006154   -1.484308
     44          1           0        0.211643    3.207230   -2.257841
     45          1           0        3.404798   -0.624069   -1.115443
     46          1           0        5.006707   -2.470571    0.747311
     47          1           0        5.171744   -0.698876    0.698212
     48          1           0        5.624146   -1.671796   -0.715495
     49          1           0        3.022856   -3.631151   -0.598135
     50          1           0        3.905296   -2.948397   -1.999458
     51          1           0        2.169218   -2.643243   -1.785133
 ---------------------------------------------------------------------
 Rotational constants (GHZ):           0.3713173           0.2463789           0.1690823
 Leave Link  202 at Sun Jan 15 17:39:52 2023, MaxMem=  4194304000 cpu:               0.1 elap:               0.1
 (Enter /software/gaussian/G16-A.03/avx2/g16/l301.exe)
 Standard basis: def2SVP (5D, 7F)
 Ernie: Thresh=  0.10000D-02 Tol=  0.10000D-05 Strict=F.
 There are   465 symmetry adapted cartesian basis functions of A   symmetry.
 There are   444 symmetry adapted basis functions of A   symmetry.
   444 basis functions,   735 primitive gaussians,   465 cartesian basis functions
    80 alpha electrons       80 beta electrons
       nuclear repulsion energy      1861.5368988102 Hartrees.
 IExCor= 1009 DFT=T Ex+Corr=PBE1PBE ExCW=0 ScaHFX=  0.250000
 ScaDFX=  0.750000  0.750000  1.000000  1.000000 ScalE2=  1.000000  1.000000
 IRadAn=      5 IRanWt=     -1 IRanGd=            0 ICorTp=0 IEmpDi=141
 NAtoms=   51 NActive=   51 NUniq=   51 SFac= 1.00D+00 NAtFMM=   60 NAOKFM=F Big=F
 Integral buffers will be    131072 words long.
 Raffenetti 2 integral format.
 Two-electron integral symmetry is turned on.
 R6Disp:  Grimme-D3(BJ) Dispersion energy=       -0.0558404205 Hartrees.
 Nuclear repulsion after empirical dispersion term =     1861.4810583897 Hartrees.
 Leave Link  301 at Sun Jan 15 17:39:52 2023, MaxMem=  4194304000 cpu:               0.5 elap:               0.1
 (Enter /software/gaussian/G16-A.03/avx2/g16/l302.exe)
 NPDir=0 NMtPBC=     1 NCelOv=     1 NCel=       1 NClECP=     1 NCelD=      1
         NCelK=      1 NCelE2=     1 NClLst=     1 CellRange=     0.0.
 One-electron integrals computed using PRISM.
 One-electron integral symmetry used in STVInt
   1 Symmetry operations used in ECPInt.
 ECPInt:  NShTT=   23436 NPrTT=   81366 LenC2=   21263 LenP2D=   51782.
 LDataN:  DoStor=T MaxTD1= 4 Len=   56
 NBasis=   444 RedAO= T EigKep=  5.43D-04  NBF=   444
 NBsUse=   444 1.00D-06 EigRej= -1.00D+00 NBFU=   444
 Precomputing XC quadrature grid using
 IXCGrd= 4 IRadAn=           5 IRanWt=          -1 IRanGd=           0 AccXCQ= 0.00D+00.
 Generated NRdTot=       0 NPtTot=           0 NUsed=           0 NTot=          32
 NSgBfM=   461   461   461   461   461 MxSgAt=    51 MxSgA2=    51.
 Leave Link  302 at Sun Jan 15 17:39:53 2023, MaxMem=  4194304000 cpu:               6.0 elap:               0.8
 (Enter /software/gaussian/G16-A.03/avx2/g16/l303.exe)
 DipDrv:  MaxL=1.
 Leave Link  303 at Sun Jan 15 17:39:53 2023, MaxMem=  4194304000 cpu:               0.5 elap:               0.1
 (Enter /software/gaussian/G16-A.03/avx2/g16/l401.exe)
 ExpMin= 1.22D-01 ExpMax= 1.71D+03 ExpMxC= 2.58D+02 IAcc=3 IRadAn=         5 AccDes= 0.00D+00
 Harris functional with IExCor= 1009 and IRadAn=       5 diagonalized for initial guess.
 HarFok:  IExCor= 1009 AccDes= 0.00D+00 IRadAn=         5 IDoV= 1 UseB2=F ITyADJ=14
 ICtDFT=  3500011 ScaDFX=  1.000000  1.000000  1.000000  1.000000
 FoFCou: FMM=F IPFlag=           0 FMFlag=      100000 FMFlg1=           0
         NFxFlg=           0 DoJE=T BraDBF=F KetDBF=T FulRan=T
         wScrn=  0.000000 ICntrl=       500 IOpCl=  0 I1Cent=   200000004 NGrid=           0
         NMat0=    1 NMatS0=      1 NMatT0=    0 NMatD0=    1 NMtDS0=    0 NMtDT0=    0
 Petite list used in FoFCou.
 Harris En= -883.500621731957    
 JPrj=0 DoOrth=F DoCkMO=F.
 Leave Link  401 at Sun Jan 15 17:39:57 2023, MaxMem=  4194304000 cpu:              28.0 elap:               3.5
 (Enter /software/gaussian/G16-A.03/avx2/g16/l502.exe)
 Integral symmetry usage will be decided dynamically.
 Closed shell SCF:
 Using DIIS extrapolation, IDIIS=  1040.
 NGot=  4194304000 LenX=  4193862627 LenY=  4193645937
 Requested convergence on RMS density matrix=1.00D-08 within 128 cycles.
 Requested convergence on MAX density matrix=1.00D-06.
 Requested convergence on             energy=1.00D-06.
 No special actions if energy rises.
 Fock matrices will be formed incrementally for  20 cycles.
 Integral accuracy reduced to 1.0D-05 until final iterations.

 Cycle   1  Pass 0  IDiag  1:
 FoFJK:  IHMeth= 1 ICntrl=       0 DoSepK=F KAlg= 0 I1Cent=           0 FoldK=F
 IRaf= 840000000 NMat=       1 IRICut=       1 DoRegI=T DoRafI=F ISym2E= 0 IDoP0=0 IntGTp=1.
 FoFCou: FMM=F IPFlag=           0 FMFlag=      100000 FMFlg1=           0
         NFxFlg=           0 DoJE=F BraDBF=F KetDBF=F FulRan=T
         wScrn=  0.000000 ICntrl=         0 IOpCl=  0 I1Cent=           0 NGrid=           0
         NMat0=    1 NMatS0=      1 NMatT0=    0 NMatD0=    1 NMtDS0=    0 NMtDT0=    0
 Symmetry not used in FoFCou.
 E= -882.702889624668    
 DIIS: error= 1.74D-02 at cycle   1 NSaved=   1.
 NSaved= 1 IEnMin= 1 EnMin= -882.702889624668     IErMin= 1 ErrMin= 1.74D-02
 ErrMax= 1.74D-02  0.00D+00 EMaxC= 1.00D-01 BMatC= 4.96D-01 BMatP= 4.96D-01
 IDIUse=3 WtCom= 8.26D-01 WtEn= 1.74D-01
 Coeff-Com:  0.100D+01
 Coeff-En:   0.100D+01
 Coeff:      0.100D+01
 Gap=     0.174 Goal=   None    Shift=    0.000
 GapD=    0.174 DampG=1.000 DampE=0.500 DampFc=0.5000 IDamp=-1.
 Damping current iteration by 5.00D-01
 RMSDP=5.33D-03 MaxDP=1.88D-01              OVMax= 3.62D-01

 Cycle   2  Pass 0  IDiag  1:
 RMSU=  2.66D-03    CP:  9.89D-01
 E= -882.907954960243     Delta-E=       -0.205065335575 Rises=F Damp=T
 DIIS: error= 7.83D-03 at cycle   2 NSaved=   2.
 NSaved= 2 IEnMin= 2 EnMin= -882.907954960243     IErMin= 2 ErrMin= 7.83D-03
 ErrMax= 7.83D-03  0.00D+00 EMaxC= 1.00D-01 BMatC= 5.49D-02 BMatP= 4.96D-01
 IDIUse=3 WtCom= 9.22D-01 WtEn= 7.83D-02
 Coeff-Com:  0.148D+00 0.852D+00
 Coeff-En:   0.227D+00 0.773D+00
 Coeff:      0.154D+00 0.846D+00
 Gap=     0.293 Goal=   None    Shift=    0.000
 RMSDP=1.73D-03 MaxDP=7.18D-02 DE=-2.05D-01 OVMax= 2.99D-01

 Cycle   3  Pass 0  IDiag  1:
 RMSU=  1.42D-03    CP:  9.77D-01  6.35D-01
 E= -883.178663756265     Delta-E=       -0.270708796023 Rises=F Damp=F
 DIIS: error= 1.03D-02 at cycle   3 NSaved=   3.
 NSaved= 3 IEnMin= 3 EnMin= -883.178663756265     IErMin= 2 ErrMin= 7.83D-03
 ErrMax= 1.03D-02  0.00D+00 EMaxC= 1.00D-01 BMatC= 7.65D-02 BMatP= 5.49D-02
 IDIUse=2 WtCom= 0.00D+00 WtEn= 1.00D+00
 Coeff-En:   0.000D+00 0.000D+00 0.100D+01
 Coeff:      0.000D+00 0.000D+00 0.100D+01
 Gap=     0.185 Goal=   None    Shift=    0.000
 RMSDP=2.93D-03 MaxDP=1.45D-01 DE=-2.71D-01 OVMax= 3.15D-01

 Cycle   4  Pass 0  IDiag  1:
 RMSU=  1.50D-03    CP:  9.97D-01  1.34D+00 -1.73D-01
 E= -882.877191908320     Delta-E=        0.301471847945 Rises=F Damp=F
 DIIS: error= 2.76D-02 at cycle   4 NSaved=   4.
 NSaved= 4 IEnMin= 3 EnMin= -883.178663756265     IErMin= 2 ErrMin= 7.83D-03
 ErrMax= 2.76D-02  0.00D+00 EMaxC= 1.00D-01 BMatC= 4.11D-01 BMatP= 5.49D-02
 IDIUse=2 WtCom= 0.00D+00 WtEn= 1.00D+00
 Coeff-En:   0.000D+00 0.000D+00 0.784D+00 0.216D+00
 Coeff:      0.000D+00 0.000D+00 0.784D+00 0.216D+00
 Gap=     0.195 Goal=   None    Shift=    0.000
 RMSDP=1.71D-03 MaxDP=9.47D-02 DE= 3.01D-01 OVMax= 1.43D-01

 Cycle   5  Pass 0  IDiag  1:
 RMSU=  2.48D-04    CP:  9.87D-01  8.95D-01  4.62D-01  4.68D-01
 E= -883.222433426836     Delta-E=       -0.345241518517 Rises=F Damp=F
 DIIS: error= 7.03D-03 at cycle   5 NSaved=   5.
 NSaved= 5 IEnMin= 5 EnMin= -883.222433426836     IErMin= 5 ErrMin= 7.03D-03
 ErrMax= 7.03D-03  0.00D+00 EMaxC= 1.00D-01 BMatC= 3.02D-02 BMatP= 5.49D-02
 IDIUse=3 WtCom= 9.30D-01 WtEn= 7.03D-02
 Coeff-Com: -0.502D-02 0.264D-01 0.289D+00-0.996D-01 0.790D+00
 Coeff-En:   0.000D+00 0.000D+00 0.328D+00 0.000D+00 0.672D+00
 Coeff:     -0.467D-02 0.246D-01 0.291D+00-0.926D-01 0.781D+00
 Gap=     0.185 Goal=   None    Shift=    0.000
 RMSDP=5.37D-04 MaxDP=2.43D-02 DE=-3.45D-01 OVMax= 5.97D-02

 Cycle   6  Pass 0  IDiag  1:
 RMSU=  5.73D-05    CP:  9.83D-01  7.74D-01  6.78D-01  2.77D-01  8.44D-01
 E= -883.249907433545     Delta-E=       -0.027474006709 Rises=F Damp=F
 DIIS: error= 3.19D-04 at cycle   6 NSaved=   6.
 NSaved= 6 IEnMin= 6 EnMin= -883.249907433545     IErMin= 6 ErrMin= 3.19D-04
 ErrMax= 3.19D-04  0.00D+00 EMaxC= 1.00D-01 BMatC= 8.94D-05 BMatP= 3.02D-02
 IDIUse=3 WtCom= 9.97D-01 WtEn= 3.19D-03
 Coeff-Com: -0.384D-02 0.106D-01 0.124D+00-0.606D-01 0.408D+00 0.522D+00
 Coeff-En:   0.000D+00 0.000D+00 0.000D+00 0.000D+00 0.000D+00 0.100D+01
 Coeff:     -0.383D-02 0.105D-01 0.123D+00-0.604D-01 0.407D+00 0.524D+00
 Gap=     0.186 Goal=   None    Shift=    0.000
 RMSDP=3.34D-05 MaxDP=1.63D-03 DE=-2.75D-02 OVMax= 3.17D-03

 Cycle   7  Pass 0  IDiag  1:
 RMSU=  1.75D-05    CP:  9.83D-01  7.79D-01  6.75D-01  2.78D-01  8.65D-01
                    CP:  5.77D-01
 E= -883.249986193324     Delta-E=       -0.000078759778 Rises=F Damp=F
 DIIS: error= 1.32D-04 at cycle   7 NSaved=   7.
 NSaved= 7 IEnMin= 7 EnMin= -883.249986193324     IErMin= 7 ErrMin= 1.32D-04
 ErrMax= 1.32D-04  0.00D+00 EMaxC= 1.00D-01 BMatC= 8.75D-06 BMatP= 8.94D-05
 IDIUse=3 WtCom= 9.99D-01 WtEn= 1.32D-03
 Coeff-Com: -0.938D-03 0.169D-02 0.302D-01-0.182D-01 0.107D+00 0.250D+00
 Coeff-Com:  0.630D+00
 Coeff-En:   0.000D+00 0.000D+00 0.000D+00 0.000D+00 0.000D+00 0.000D+00
 Coeff-En:   0.100D+01
 Coeff:     -0.937D-03 0.169D-02 0.301D-01-0.181D-01 0.107D+00 0.250D+00
 Coeff:      0.630D+00
 Gap=     0.186 Goal=   None    Shift=    0.000
 RMSDP=9.79D-06 MaxDP=3.89D-04 DE=-7.88D-05 OVMax= 5.56D-04

 Initial convergence to 1.0D-05 achieved.  Increase integral accuracy.
 Cycle   8  Pass 1  IDiag  1:
 E= -883.250024289313     Delta-E=       -0.000038095989 Rises=F Damp=F
 DIIS: error= 1.03D-04 at cycle   1 NSaved=   1.
 NSaved= 1 IEnMin= 1 EnMin= -883.250024289313     IErMin= 1 ErrMin= 1.03D-04
 ErrMax= 1.03D-04  0.00D+00 EMaxC= 1.00D-01 BMatC= 3.13D-06 BMatP= 3.13D-06
 IDIUse=3 WtCom= 9.99D-01 WtEn= 1.03D-03
 Coeff-Com:  0.100D+01
 Coeff-En:   0.100D+01
 Coeff:      0.100D+01
 Gap=     0.186 Goal=   None    Shift=    0.000
 RMSDP=9.79D-06 MaxDP=3.89D-04 DE=-3.81D-05 OVMax= 5.48D-04

 Cycle   9  Pass 1  IDiag  1:
 RMSU=  5.41D-05    CP:  1.00D+00
 E= -883.250025757556     Delta-E=       -0.000001468244 Rises=F Damp=F
 DIIS: error= 4.51D-05 at cycle   2 NSaved=   2.
 NSaved= 2 IEnMin= 2 EnMin= -883.250025757556     IErMin= 2 ErrMin= 4.51D-05
 ErrMax= 4.51D-05  0.00D+00 EMaxC= 1.00D-01 BMatC= 2.03D-06 BMatP= 3.13D-06
 IDIUse=1 WtCom= 1.00D+00 WtEn= 0.00D+00
 Coeff-Com:  0.425D+00 0.575D+00
 Coeff:      0.425D+00 0.575D+00
 Gap=     0.186 Goal=   None    Shift=    0.000
 RMSDP=7.37D-06 MaxDP=4.61D-04 DE=-1.47D-06 OVMax= 7.99D-04

 Cycle  10  Pass 1  IDiag  1:
 RMSU=  7.30D-06    CP:  1.00D+00  1.00D+00
 E= -883.250026602093     Delta-E=       -0.000000844537 Rises=F Damp=F
 DIIS: error= 4.04D-05 at cycle   3 NSaved=   3.
 NSaved= 3 IEnMin= 3 EnMin= -883.250026602093     IErMin= 3 ErrMin= 4.04D-05
 ErrMax= 4.04D-05  0.00D+00 EMaxC= 1.00D-01 BMatC= 1.21D-06 BMatP= 2.03D-06
 IDIUse=1 WtCom= 1.00D+00 WtEn= 0.00D+00
 Coeff-Com:  0.462D-01 0.427D+00 0.527D+00
 Coeff:      0.462D-01 0.427D+00 0.527D+00
 Gap=     0.186 Goal=   None    Shift=    0.000
 RMSDP=3.80D-06 MaxDP=2.47D-04 DE=-8.45D-07 OVMax= 4.21D-04

 Cycle  11  Pass 1  IDiag  1:
 RMSU=  1.43D-06    CP:  1.00D+00  1.01D+00  5.30D-01
 E= -883.250027624774     Delta-E=       -0.000001022681 Rises=F Damp=F
 DIIS: error= 9.57D-06 at cycle   4 NSaved=   4.
 NSaved= 4 IEnMin= 4 EnMin= -883.250027624774     IErMin= 4 ErrMin= 9.57D-06
 ErrMax= 9.57D-06  0.00D+00 EMaxC= 1.00D-01 BMatC= 1.02D-07 BMatP= 1.21D-06
 IDIUse=1 WtCom= 1.00D+00 WtEn= 0.00D+00
 Coeff-Com: -0.540D-02 0.226D+00 0.331D+00 0.448D+00
 Coeff:     -0.540D-02 0.226D+00 0.331D+00 0.448D+00
 Gap=     0.186 Goal=   None    Shift=    0.000
 RMSDP=9.06D-07 MaxDP=3.90D-05 DE=-1.02D-06 OVMax= 7.95D-05

 Cycle  12  Pass 1  IDiag  1:
 RMSU=  2.50D-07    CP:  1.00D+00  1.02D+00  5.77D-01  4.52D-01
 E= -883.250027715282     Delta-E=       -0.000000090507 Rises=F Damp=F
 DIIS: error= 9.22D-07 at cycle   5 NSaved=   5.
 NSaved= 5 IEnMin= 5 EnMin= -883.250027715282     IErMin= 5 ErrMin= 9.22D-07
 ErrMax= 9.22D-07  0.00D+00 EMaxC= 1.00D-01 BMatC= 6.58D-10 BMatP= 1.02D-07
 IDIUse=1 WtCom= 1.00D+00 WtEn= 0.00D+00
 Coeff-Com: -0.345D-02 0.129D+00 0.187D+00 0.263D+00 0.425D+00
 Coeff:     -0.345D-02 0.129D+00 0.187D+00 0.263D+00 0.425D+00
 Gap=     0.186 Goal=   None    Shift=    0.000
 RMSDP=8.55D-08 MaxDP=5.10D-06 DE=-9.05D-08 OVMax= 9.60D-06

 Cycle  13  Pass 1  IDiag  1:
 RMSU=  7.61D-08    CP:  1.00D+00  1.02D+00  5.75D-01  4.68D-01  9.03D-01
 E= -883.250027715860     Delta-E=       -0.000000000578 Rises=F Damp=F
 DIIS: error= 2.61D-07 at cycle   6 NSaved=   6.
 NSaved= 6 IEnMin= 6 EnMin= -883.250027715860     IErMin= 6 ErrMin= 2.61D-07
 ErrMax= 2.61D-07  0.00D+00 EMaxC= 1.00D-01 BMatC= 4.91D-11 BMatP= 6.58D-10
 IDIUse=1 WtCom= 1.00D+00 WtEn= 0.00D+00
 Coeff-Com: -0.998D-03 0.342D-01 0.479D-01 0.742D-01 0.197D+00 0.648D+00
 Coeff:     -0.998D-03 0.342D-01 0.479D-01 0.742D-01 0.197D+00 0.648D+00
 Gap=     0.186 Goal=   None    Shift=    0.000
 RMSDP=3.08D-08 MaxDP=2.06D-06 DE=-5.78D-10 OVMax= 4.63D-06

 Cycle  14  Pass 1  IDiag  1:
 RMSU=  2.41D-08    CP:  1.00D+00  1.02D+00  5.74D-01  4.72D-01  9.60D-01
                    CP:  8.67D-01
 E= -883.250027715874     Delta-E=       -0.000000000014 Rises=F Damp=F
 DIIS: error= 1.32D-07 at cycle   7 NSaved=   7.
 NSaved= 7 IEnMin= 7 EnMin= -883.250027715874     IErMin= 7 ErrMin= 1.32D-07
 ErrMax= 1.32D-07  0.00D+00 EMaxC= 1.00D-01 BMatC= 2.07D-11 BMatP= 4.91D-11
 IDIUse=1 WtCom= 1.00D+00 WtEn= 0.00D+00
 Coeff-Com:  0.125D-03-0.641D-02-0.112D-01-0.937D-02 0.203D-01 0.445D+00
 Coeff-Com:  0.562D+00
 Coeff:      0.125D-03-0.641D-02-0.112D-01-0.937D-02 0.203D-01 0.445D+00
 Coeff:      0.562D+00
 Gap=     0.186 Goal=   None    Shift=    0.000
 RMSDP=1.46D-08 MaxDP=7.48D-07 DE=-1.36D-11 OVMax= 1.65D-06

 Cycle  15  Pass 1  IDiag  1:
 RMSU=  8.46D-09    CP:  1.00D+00  1.02D+00  5.74D-01  4.73D-01  9.76D-01
                    CP:  9.59D-01  6.89D-01
 E= -883.250027715914     Delta-E=       -0.000000000040 Rises=F Damp=F
 DIIS: error= 3.27D-08 at cycle   8 NSaved=   8.
 NSaved= 8 IEnMin= 8 EnMin= -883.250027715914     IErMin= 8 ErrMin= 3.27D-08
 ErrMax= 3.27D-08  0.00D+00 EMaxC= 1.00D-01 BMatC= 8.46D-13 BMatP= 2.07D-11
 IDIUse=1 WtCom= 1.00D+00 WtEn= 0.00D+00
 Coeff-Com:  0.142D-03-0.596D-02-0.964D-02-0.104D-01-0.872D-02 0.176D+00
 Coeff-Com:  0.268D+00 0.591D+00
 Coeff:      0.142D-03-0.596D-02-0.964D-02-0.104D-01-0.872D-02 0.176D+00
 Coeff:      0.268D+00 0.591D+00
 Gap=     0.186 Goal=   None    Shift=    0.000
 RMSDP=3.97D-09 MaxDP=1.33D-07 DE=-4.00D-11 OVMax= 1.57D-07

 SCF Done:  E(RPBE1PBE) =  -883.250027716     A.U. after   15 cycles
            NFock= 15  Conv=0.40D-08     -V/T= 2.0110
 KE= 8.736092177711D+02 PE=-5.768967293526D+03 EE= 2.150626989649D+03
 Leave Link  502 at Sun Jan 15 17:41:53 2023, MaxMem=  4194304000 cpu:             927.3 elap:             116.2
 (Enter /software/gaussian/G16-A.03/avx2/g16/l801.exe)
 DoSCS=F DFT=T ScalE2(SS,OS)=  1.000000  1.000000
 Range of M.O.s used for correlation:     1   444
 NBasis=   444 NAE=    80 NBE=    80 NFC=     0 NFV=     0
 NROrb=    444 NOA=    80 NOB=    80 NVA=   364 NVB=   364
 Leave Link  801 at Sun Jan 15 17:41:53 2023, MaxMem=  4194304000 cpu:               0.2 elap:               0.0
 (Enter /software/gaussian/G16-A.03/avx2/g16/l1101.exe)
 Using compressed storage, NAtomX=    51.
 Will process     52 centers per pass.
   1 Symmetry operations used in ECPInt.
 ECPInt:  NShTT=   23436 NPrTT=   81366 LenC2=   21263 LenP2D=   51782.
 LDataN:  DoStor=T MaxTD1= 5 Len=  102
 R6Disp: Adding Grimme-D3(BJ) dispersion energy 1st derivatives to the gradient.
 Leave Link 1101 at Sun Jan 15 17:41:55 2023, MaxMem=  4194304000 cpu:               9.1 elap:               1.2
 (Enter /software/gaussian/G16-A.03/avx2/g16/l1102.exe)
 Symmetrizing basis deriv contribution to polar:
 IMax=3 JMax=2 DiffMx= 0.00D+00
 Leave Link 1102 at Sun Jan 15 17:41:55 2023, MaxMem=  4194304000 cpu:               0.5 elap:               0.1
 (Enter /software/gaussian/G16-A.03/avx2/g16/l1110.exe)
 Forming Gx(P) for the SCF density, NAtomX=    51.
 Integral derivatives from FoFJK, PRISM(SPDF).
 Do as many integral derivatives as possible in FoFJK.
 G2DrvN: MDV=    4194300192.
 G2DrvN: will do    52 centers at a time, making    1 passes.
 Calling FoFCou, ICntrl=  3107 FMM=F I1Cent=   0 AccDes= 0.00D+00.
 FoFJK:  IHMeth= 1 ICntrl=    3107 DoSepK=F KAlg= 0 I1Cent=           0 FoldK=F
 IRaf=         0 NMat=       1 IRICut=       1 DoRegI=T DoRafI=F ISym2E= 0 IDoP0=0 IntGTp=1.
 FoFCou: FMM=F IPFlag=           0 FMFlag=      100000 FMFlg1=           0
         NFxFlg=           0 DoJE=F BraDBF=F KetDBF=F FulRan=T
         wScrn=  0.000000 ICntrl=      3107 IOpCl=  0 I1Cent=           0 NGrid=           0
         NMat0=    1 NMatS0=      1 NMatT0=    0 NMatD0=    1 NMtDS0=    0 NMtDT0=    0
 Symmetry not used in FoFCou.
 End of G2Drv F.D. properties file   721 does not exist.
 End of G2Drv F.D. properties file   722 does not exist.
 End of G2Drv F.D. properties file   788 does not exist.
 Leave Link 1110 at Sun Jan 15 17:47:16 2023, MaxMem=  4194304000 cpu:            2565.2 elap:             321.4
 (Enter /software/gaussian/G16-A.03/avx2/g16/l1002.exe)
 Minotr:  Closed shell wavefunction.
          IDoAtm=11111111111111111111111111111111111111111111111111
          IDoAtm=1
          Direct CPHF calculation.
          Differentiating once with respect to electric field.
                with respect to dipole field.
          Differentiating once with respect to nuclear coordinates.
          Requested convergence is 1.0D-08 RMS, and 1.0D-07 maximum.
          Secondary convergence is 1.0D-12 RMS, and 1.0D-12 maximum.
          NewPWx=T KeepS1=F KeepF1=F KeepIn=T MapXYZ=F SortEE=F KeepMc=T.
        15430 words used for storage of precomputed grid.
 Two-electron integrals replicated using symmetry.
          MDV=    4194304000 using IRadAn=       1.
          Solving linear equations simultaneously, MaxMat=     384.
 FoF2E skips out because all densities are zero.
 CalDSu exits because no D1Ps are significant.
 FoFJK:  IHMeth= 1 ICntrl=       0 DoSepK=F KAlg= 0 I1Cent=           0 FoldK=F
 IRaf= 810000000 NMat=     153 IRICut=     382 DoRegI=T DoRafI=T ISym2E= 2 IDoP0=3 IntGTp=3.
 FoFCou: FMM=F IPFlag=           0 FMFlag=      100000 FMFlg1=           0
         NFxFlg=           0 DoJE=F BraDBF=F KetDBF=F FulRan=T
         wScrn=  0.000000 ICntrl=         0 IOpCl=  0 I1Cent=           0 NGrid=           0
         NMat0=  153 NMatS0=    153 NMatT0=    0 NMatD0=  153 NMtDS0=    0 NMtDT0=    0
 Integrals replicated using symmetry in FoFCou.
 Raff kept on since  75.85% of shell-pairs survive, threshold=   0.20 IRatSp=76.
          There are   156 degrees of freedom in the 1st order CPHF.  IDoFFX=6 NUNeed=     3.
    153 vectors produced by pass  0 Test12= 2.91D-14 1.00D-09 XBig12= 1.75D+02 6.97D+00.
 AX will form   153 AO Fock derivatives at one time.
    153 vectors produced by pass  1 Test12= 2.91D-14 1.00D-09 XBig12= 5.58D+01 1.60D+00.
    153 vectors produced by pass  2 Test12= 2.91D-14 1.00D-09 XBig12= 5.32D-01 1.52D-01.
    153 vectors produced by pass  3 Test12= 2.91D-14 1.00D-09 XBig12= 1.81D-03 4.74D-03.
    153 vectors produced by pass  4 Test12= 2.91D-14 1.00D-09 XBig12= 2.94D-06 1.43D-04.
     92 vectors produced by pass  5 Test12= 2.91D-14 1.00D-09 XBig12= 3.02D-09 3.11D-06.
     10 vectors produced by pass  6 Test12= 2.91D-14 1.00D-09 XBig12= 3.21D-12 1.07D-07.
      3 vectors produced by pass  7 Test12= 2.91D-14 1.00D-09 XBig12= 3.31D-15 3.58D-09.
      2 vectors produced by pass  8 Test12= 2.91D-14 1.00D-09 XBig12= 2.93D-16 1.68D-09.
 InvSVY:  IOpt=1 It=  1 EMax= 3.55D-15
 Solved reduced A of dimension   872 with   156 vectors.
 FullF1:  Do perturbations      1 to       3.
 Isotropic polarizability for W=    0.000000      209.09 Bohr**3.
 End of Minotr F.D. properties file   721 does not exist.
 End of Minotr F.D. properties file   722 does not exist.
 End of Minotr F.D. properties file   788 does not exist.
 Leave Link 1002 at Sun Jan 15 17:58:49 2023, MaxMem=  4194304000 cpu:            5526.9 elap:             692.5
 (Enter /software/gaussian/G16-A.03/avx2/g16/l601.exe)
 Copying SCF densities to generalized density rwf, IOpCl= 0 IROHF=0.

 **********************************************************************

            Population analysis using the SCF density.

 **********************************************************************

 Orbital symmetries:
       Occupied  (A) (A) (A) (A) (A) (A) (A) (A) (A) (A) (A) (A)
                 (A) (A) (A) (A) (A) (A) (A) (A) (A) (A) (A) (A)
                 (A) (A) (A) (A) (A) (A) (A) (A) (A) (A) (A) (A)
                 (A) (A) (A) (A) (A) (A) (A) (A) (A) (A) (A) (A)
                 (A) (A) (A) (A) (A) (A) (A) (A) (A) (A) (A) (A)
                 (A) (A) (A) (A) (A) (A) (A) (A) (A) (A) (A) (A)
                 (A) (A) (A) (A) (A) (A) (A) (A)
       Virtual   (A) (A) (A) (A) (A) (A) (A) (A) (A) (A) (A) (A)
                 (A) (A) (A) (A) (A) (A) (A) (A) (A) (A) (A) (A)
                 (A) (A) (A) (A) (A) (A) (A) (A) (A) (A) (A) (A)
                 (A) (A) (A) (A) (A) (A) (A) (A) (A) (A) (A) (A)
                 (A) (A) (A) (A) (A) (A) (A) (A) (A) (A) (A) (A)
                 (A) (A) (A) (A) (A) (A) (A) (A) (A) (A) (A) (A)
                 (A) (A) (A) (A) (A) (A) (A) (A) (A) (A) (A) (A)
                 (A) (A) (A) (A) (A) (A) (A) (A) (A) (A) (A) (A)
                 (A) (A) (A) (A) (A) (A) (A) (A) (A) (A) (A) (A)
                 (A) (A) (A) (A) (A) (A) (A) (A) (A) (A) (A) (A)
                 (A) (A) (A) (A) (A) (A) (A) (A) (A) (A) (A) (A)
                 (A) (A) (A) (A) (A) (A) (A) (A) (A) (A) (A) (A)
                 (A) (A) (A) (A) (A) (A) (A) (A) (A) (A) (A) (A)
                 (A) (A) (A) (A) (A) (A) (A) (A) (A) (A) (A) (A)
                 (A) (A) (A) (A) (A) (A) (A) (A) (A) (A) (A) (A)
                 (A) (A) (A) (A) (A) (A) (A) (A) (A) (A) (A) (A)
                 (A) (A) (A) (A) (A) (A) (A) (A) (A) (A) (A) (A)
                 (A) (A) (A) (A) (A) (A) (A) (A) (A) (A) (A) (A)
                 (A) (A) (A) (A) (A) (A) (A) (A) (A) (A) (A) (A)
                 (A) (A) (A) (A) (A) (A) (A) (A) (A) (A) (A) (A)
                 (A) (A) (A) (A) (A) (A) (A) (A) (A) (A) (A) (A)
                 (A) (A) (A) (A) (A) (A) (A) (A) (A) (A) (A) (A)
                 (A) (A) (A) (A) (A) (A) (A) (A) (A) (A) (A) (A)
                 (A) (A) (A) (A) (A) (A) (A) (A) (A) (A) (A) (A)
                 (A) (A) (A) (A) (A) (A) (A) (A) (A) (A) (A) (A)
                 (A) (A) (A) (A) (A) (A) (A) (A) (A) (A) (A) (A)
                 (A) (A) (A) (A) (A) (A) (A) (A) (A) (A) (A) (A)
                 (A) (A) (A) (A) (A) (A) (A) (A) (A) (A) (A) (A)
                 (A) (A) (A) (A) (A) (A) (A) (A) (A) (A) (A) (A)
                 (A) (A) (A) (A) (A) (A) (A) (A) (A) (A) (A) (A)
                 (A) (A) (A) (A)
 The electronic state is 1-A.
 Alpha  occ. eigenvalues --  -14.41282 -14.41219 -14.33525 -14.33494 -10.28742
 Alpha  occ. eigenvalues --  -10.28660 -10.27898 -10.27894 -10.26621 -10.26438
 Alpha  occ. eigenvalues --  -10.26319 -10.24725 -10.24705 -10.24182 -10.23278
 Alpha  occ. eigenvalues --  -10.22709 -10.22651 -10.21820 -10.21306 -10.20631
 Alpha  occ. eigenvalues --  -10.20363  -1.02440  -1.00093  -0.90955  -0.87827
 Alpha  occ. eigenvalues --   -0.84214  -0.82146  -0.80316  -0.76361  -0.73766
 Alpha  occ. eigenvalues --   -0.71612  -0.71137  -0.71042  -0.68386  -0.68301
 Alpha  occ. eigenvalues --   -0.64544  -0.62662  -0.62283  -0.59484  -0.56608
 Alpha  occ. eigenvalues --   -0.55378  -0.54664  -0.52759  -0.50343  -0.49702
 Alpha  occ. eigenvalues --   -0.48849  -0.48740  -0.46939  -0.46310  -0.45662
 Alpha  occ. eigenvalues --   -0.44918  -0.44250  -0.43601  -0.42605  -0.41981
 Alpha  occ. eigenvalues --   -0.41536  -0.40943  -0.40374  -0.39986  -0.39558
 Alpha  occ. eigenvalues --   -0.39210  -0.38458  -0.37992  -0.37607  -0.37364
 Alpha  occ. eigenvalues --   -0.36677  -0.36002  -0.35815  -0.35056  -0.33924
 Alpha  occ. eigenvalues --   -0.33823  -0.33575  -0.33051  -0.32509  -0.32388
 Alpha  occ. eigenvalues --   -0.31112  -0.26202  -0.23117  -0.21710  -0.19830
 Alpha virt. eigenvalues --   -0.01217   0.04120   0.06767   0.07081   0.08434
 Alpha virt. eigenvalues --    0.08995   0.09233   0.09373   0.09907   0.10712
 Alpha virt. eigenvalues --    0.11129   0.11244   0.12188   0.12783   0.13015
 Alpha virt. eigenvalues --    0.13518   0.13654   0.14280   0.14667   0.15278
 Alpha virt. eigenvalues --    0.15572   0.15881   0.16214   0.16647   0.17186
 Alpha virt. eigenvalues --    0.17280   0.17684   0.18298   0.18588   0.19026
 Alpha virt. eigenvalues --    0.19416   0.19645   0.19971   0.20585   0.21308
 Alpha virt. eigenvalues --    0.21442   0.22032   0.22797   0.22835   0.23147
 Alpha virt. eigenvalues --    0.23675   0.24752   0.25840   0.26381   0.26909
 Alpha virt. eigenvalues --    0.27104   0.28248   0.28445   0.31379   0.32150
 Alpha virt. eigenvalues --    0.32210   0.35938   0.37841   0.39352   0.40440
 Alpha virt. eigenvalues --    0.41112   0.41346   0.42514   0.43366   0.43916
 Alpha virt. eigenvalues --    0.44126   0.45233   0.45702   0.45997   0.46627
 Alpha virt. eigenvalues --    0.47395   0.48009   0.48459   0.51173   0.52361
 Alpha virt. eigenvalues --    0.53964   0.55047   0.55457   0.56606   0.57953
 Alpha virt. eigenvalues --    0.58512   0.59089   0.59269   0.60358   0.60677
 Alpha virt. eigenvalues --    0.61096   0.61402   0.61986   0.62665   0.62812
 Alpha virt. eigenvalues --    0.63282   0.64006   0.64203   0.64352   0.65102
 Alpha virt. eigenvalues --    0.65155   0.65771   0.66030   0.66570   0.66751
 Alpha virt. eigenvalues --    0.66952   0.67230   0.67655   0.67916   0.68375
 Alpha virt. eigenvalues --    0.68415   0.68892   0.69039   0.69489   0.69588
 Alpha virt. eigenvalues --    0.69626   0.70266   0.70673   0.71012   0.71234
 Alpha virt. eigenvalues --    0.71413   0.71760   0.71942   0.72503   0.72734
 Alpha virt. eigenvalues --    0.73146   0.73704   0.73753   0.73866   0.74455
 Alpha virt. eigenvalues --    0.74562   0.75176   0.75719   0.76036   0.76097
 Alpha virt. eigenvalues --    0.77309   0.77515   0.77844   0.77977   0.79980
 Alpha virt. eigenvalues --    0.80957   0.81548   0.82661   0.84088   0.86211
 Alpha virt. eigenvalues --    0.87073   0.89196   0.90803   0.91759   0.93556
 Alpha virt. eigenvalues --    0.94721   0.96229   0.97388   0.98921   0.99891
 Alpha virt. eigenvalues --    1.01763   1.03772   1.04490   1.06061   1.07428
 Alpha virt. eigenvalues --    1.09144   1.11032   1.11617   1.12253   1.13266
 Alpha virt. eigenvalues --    1.14483   1.15027   1.15916   1.16836   1.18397
 Alpha virt. eigenvalues --    1.18842   1.19933   1.23742   1.24702   1.25047
 Alpha virt. eigenvalues --    1.25440   1.26800   1.28349   1.29223   1.32115
 Alpha virt. eigenvalues --    1.33572   1.35095   1.35642   1.38622   1.40030
 Alpha virt. eigenvalues --    1.41697   1.43280   1.44430   1.46034   1.47619
 Alpha virt. eigenvalues --    1.49314   1.51719   1.52341   1.52785   1.53452
 Alpha virt. eigenvalues --    1.54820   1.55160   1.55887   1.56394   1.56996
 Alpha virt. eigenvalues --    1.57508   1.58461   1.59447   1.60193   1.60729
 Alpha virt. eigenvalues --    1.62404   1.63189   1.64809   1.66510   1.66751
 Alpha virt. eigenvalues --    1.67154   1.67868   1.68572   1.69799   1.71468
 Alpha virt. eigenvalues --    1.73628   1.74338   1.74597   1.75451   1.76029
 Alpha virt. eigenvalues --    1.76943   1.77446   1.78274   1.78559   1.79620
 Alpha virt. eigenvalues --    1.79675   1.79929   1.81771   1.82116   1.82390
 Alpha virt. eigenvalues --    1.83062   1.83938   1.84358   1.84540   1.84656
 Alpha virt. eigenvalues --    1.84866   1.85579   1.85907   1.85985   1.86638
 Alpha virt. eigenvalues --    1.86900   1.87389   1.87885   1.88906   1.89628
 Alpha virt. eigenvalues --    1.89890   1.90171   1.90878   1.91240   1.92099
 Alpha virt. eigenvalues --    1.92699   1.93382   1.94744   1.95156   1.95460
 Alpha virt. eigenvalues --    1.95874   1.96442   1.97386   1.97769   1.98171
 Alpha virt. eigenvalues --    1.98575   1.99196   1.99955   2.00990   2.01263
 Alpha virt. eigenvalues --    2.02025   2.03451   2.04242   2.04332   2.05226
 Alpha virt. eigenvalues --    2.05742   2.07082   2.09683   2.10538   2.11346
 Alpha virt. eigenvalues --    2.13368   2.13925   2.16066   2.16817   2.17437
 Alpha virt. eigenvalues --    2.18867   2.19351   2.21961   2.23429   2.25748
 Alpha virt. eigenvalues --    2.26248   2.27091   2.28723   2.29950   2.30659
 Alpha virt. eigenvalues --    2.31412   2.33056   2.33234   2.35723   2.35878
 Alpha virt. eigenvalues --    2.36729   2.39574   2.40004   2.41138   2.42571
 Alpha virt. eigenvalues --    2.42639   2.43801   2.44368   2.44840   2.45895
 Alpha virt. eigenvalues --    2.46356   2.48001   2.48728   2.50670   2.51052
 Alpha virt. eigenvalues --    2.53119   2.54408   2.55961   2.56790   2.58116
 Alpha virt. eigenvalues --    2.60061   2.60805   2.61079   2.62018   2.62586
 Alpha virt. eigenvalues --    2.62712   2.64321   2.64547   2.66146   2.67054
 Alpha virt. eigenvalues --    2.67662   2.68708   2.70297   2.71803   2.73498
 Alpha virt. eigenvalues --    2.75157   2.76264   2.79927   2.80302   2.82708
 Alpha virt. eigenvalues --    2.85451   2.86125   2.87336   2.87965   2.88977
 Alpha virt. eigenvalues --    2.90272   2.90496   2.91873   2.92063   2.92481
 Alpha virt. eigenvalues --    2.93199   2.93978   2.94174   2.94647   2.95570
 Alpha virt. eigenvalues --    2.96354   2.96794   2.98131   2.98784   3.00577
 Alpha virt. eigenvalues --    3.02069   3.02904   3.04366   3.05384   3.06194
 Alpha virt. eigenvalues --    3.08057   3.09674   3.10478   3.11743   3.12139
 Alpha virt. eigenvalues --    3.13657   3.14390   3.14747   3.19981   3.27133
 Alpha virt. eigenvalues --    3.27423   3.33842   3.51052   3.61557
     Molecular Orbital Coefficients:
                          76        77        78        79        80
                           O         O         O         O         O
     Eigenvalues --    -0.31112  -0.26202  -0.23117  -0.21710  -0.19830
   1 1   C  1S         -0.00210  -0.01969   0.02579   0.00208  -0.00785
   2        2S          0.00586   0.05012  -0.05999  -0.00703   0.02332
   3        3S         -0.02320   0.09803  -0.12671   0.01501  -0.01425
   4        4PX        -0.04993  -0.01309   0.02325  -0.01950   0.01037
   5        4PY        -0.04054  -0.12194   0.11668  -0.01974  -0.01674
   6        4PZ         0.05504  -0.02586   0.05741   0.05927  -0.05217
   7        5PX        -0.01428   0.00517   0.00562  -0.01152   0.01689
   8        5PY        -0.01702  -0.09056   0.10285  -0.01347  -0.01961
   9        5PZ         0.02435  -0.02787   0.04213   0.00940  -0.00117
  10        6D 0        0.00817   0.00163   0.00281   0.01349  -0.01106
  11        6D+1        0.00685   0.00118   0.00100   0.00610  -0.00447
  12        6D-1       -0.00510   0.00099  -0.00118  -0.00314   0.00216
  13        6D+2       -0.00738  -0.00019  -0.00008  -0.00540   0.00354
  14        6D-2       -0.00185  -0.00408   0.00567  -0.00208  -0.00027
  15 2   C  1S          0.01307   0.01959  -0.02230   0.00503   0.00300
  16        2S         -0.03771  -0.04491   0.05976  -0.01360  -0.01298
  17        3S          0.01717  -0.04036   0.03364  -0.01771   0.04352
  18        4PX        -0.05560   0.11255  -0.11428   0.04340  -0.00807
  19        4PY        -0.00572   0.07541  -0.07527   0.01190   0.00276
  20        4PZ         0.10838   0.02281  -0.05002  -0.06406   0.08185
  21        5PX        -0.01949   0.05304  -0.05057  -0.01275   0.05093
  22        5PY         0.01835  -0.00871   0.00874   0.00627   0.00965
  23        5PZ         0.03428  -0.00625  -0.00216  -0.02782  -0.00175
  24        6D 0        0.00353   0.00204  -0.00156  -0.00161   0.00429
  25        6D+1        0.00772  -0.00220   0.00036  -0.01085   0.01473
  26        6D-1       -0.00249   0.00838  -0.00806   0.00459  -0.00285
  27        6D+2       -0.00362  -0.00899   0.01065   0.00427  -0.00819
  28        6D-2       -0.00178   0.01123  -0.01301   0.00225  -0.00033
  29 3   H  1S          0.06747  -0.05718   0.04213  -0.07938   0.08546
  30        2S          0.04934  -0.02338   0.01732  -0.04656   0.07036
  31        3PX        -0.00121   0.00123  -0.00164   0.00039   0.00025
  32        3PY         0.00284   0.00040  -0.00086  -0.00180   0.00281
  33        3PZ         0.00054   0.00248  -0.00230   0.00067   0.00002
  34 4   N  1S          0.00218   0.06753  -0.08007   0.01481   0.00866
  35        2S          0.00535   0.13669  -0.16923   0.03594   0.01638
  36        3S         -0.00471   0.18323  -0.17068  -0.01586   0.04527
  37        4PX        -0.03723   0.17337  -0.17146   0.09812  -0.07030
  38        4PY        -0.01418   0.27555  -0.29523   0.07531  -0.01759
  39        4PZ         0.11890   0.08786  -0.13183  -0.19313   0.29585
  40        5PX         0.02178  -0.11742   0.06785  -0.06661   0.06856
  41        5PY         0.00498  -0.20445   0.21050  -0.06682   0.01496
  42        5PZ        -0.07102  -0.05597   0.08267   0.15830  -0.21969
  43        6D 0       -0.00113   0.00710  -0.00784   0.00365  -0.00374
  44        6D+1        0.00277  -0.00429   0.00457  -0.00313  -0.00082
  45        6D-1       -0.01029  -0.00441   0.00728   0.00889  -0.01386
  46        6D+2       -0.00207   0.00793  -0.00585   0.00270  -0.00202
  47        6D-2        0.00288  -0.00636   0.00975  -0.00508   0.00386
  48 5   C  1S          0.00406   0.04838  -0.01613   0.00568   0.00254
  49        2S         -0.01071  -0.12803   0.04586  -0.01490  -0.00966
  50        3S          0.00729  -0.05149  -0.28484   0.09871   0.00886
  51        4PX         0.03958   0.01645   0.07581  -0.04436   0.04399
  52        4PY         0.01759   0.07788  -0.07543  -0.01547   0.02456
  53        4PZ        -0.20379   0.03045   0.01372   0.07273  -0.08813
  54        5PX         0.03004  -0.01195   0.30541  -0.09294   0.01276
  55        5PY         0.01569  -0.04594   0.12530  -0.05833   0.00998
  56        5PZ        -0.14762  -0.00422   0.12376   0.03826  -0.09327
  57        6D 0       -0.00988  -0.00218  -0.00255  -0.01032   0.00414
  58        6D+1       -0.01378  -0.00275   0.00053  -0.00491  -0.00587
  59        6D-1       -0.00245   0.00603  -0.01098  -0.02384   0.02460
  60        6D+2        0.00649  -0.01628   0.01320  -0.00321   0.00333
  61        6D-2        0.00098   0.01683  -0.01266   0.01076  -0.00634
  62 6   N  1S          0.00777   0.02688  -0.01865   0.01452  -0.00458
  63        2S          0.01444   0.06084  -0.03947   0.02749  -0.00859
  64        3S          0.03653   0.11995  -0.19397   0.10591   0.00444
  65        4PX        -0.11751   0.03575  -0.03722  -0.12163   0.10117
  66        4PY        -0.05681   0.06869  -0.06579  -0.06345   0.05720
  67        4PZ         0.20959   0.06102   0.03146   0.28610  -0.23110
  68        5PX         0.08845  -0.04866   0.05411   0.09095  -0.08039
  69        5PY         0.03788  -0.03497   0.08184   0.06965  -0.06344
  70        5PZ        -0.15917  -0.05119  -0.01865  -0.26275   0.21365
  71        6D 0        0.00503  -0.00019   0.00019   0.00043   0.00023
  72        6D+1        0.00422  -0.00068   0.00014   0.00167  -0.00118
  73        6D-1        0.00717  -0.00182   0.00232  -0.00003   0.00085
  74        6D+2       -0.00064   0.00028  -0.00258  -0.00033   0.00028
  75        6D-2       -0.00534  -0.00173   0.00100  -0.00076  -0.00066
  76 7   C  1S          0.00279   0.00260  -0.00592   0.00841  -0.00334
  77        2S         -0.00968  -0.01266   0.01644  -0.01595   0.01202
  78        3S          0.04500   0.01869  -0.00186  -0.10527  -0.06976
  79        4PX        -0.03554   0.00587  -0.02048  -0.02028   0.02183
  80        4PY        -0.02597   0.04277  -0.04203   0.00214  -0.00097
  81        4PZ         0.09038   0.01569  -0.00962   0.04865  -0.03490
  82        5PX        -0.02206  -0.01374  -0.00417   0.02107   0.01860
  83        5PY        -0.00020   0.03641  -0.03007   0.03129  -0.03806
  84        5PZ         0.03449   0.00173  -0.00602   0.02647   0.02316
  85        6D 0        0.00539   0.00162   0.00164   0.00793  -0.00591
  86        6D+1       -0.00658  -0.00130  -0.00181  -0.01059   0.00646
  87        6D-1        0.00866   0.00175   0.00119   0.01169  -0.01000
  88        6D+2        0.00431   0.00028  -0.00012   0.00458  -0.00528
  89        6D-2       -0.00394   0.00363  -0.00382  -0.00384   0.00397
  90 8   C  1S          0.00094   0.00812   0.00398   0.02024  -0.00174
  91        2S         -0.00279  -0.01897  -0.01047  -0.05235   0.00342
  92        3S         -0.00129  -0.06476  -0.01591  -0.08783   0.01611
  93        4PX        -0.08878   0.00465   0.02255   0.00761   0.05387
  94        4PY         0.00753   0.00673   0.00953   0.05075  -0.01005
  95        4PZ        -0.04197  -0.01734   0.00150  -0.03858   0.02630
  96        5PX        -0.09205   0.01090   0.00866  -0.04222   0.12200
  97        5PY         0.01212  -0.00420  -0.00514  -0.02315  -0.02097
  98        5PZ        -0.04571  -0.03923   0.02117   0.06610   0.06959
  99        6D 0       -0.00027   0.00077   0.00034   0.00098   0.00004
 100        6D+1       -0.00010   0.00066  -0.00073  -0.00378  -0.00035
 101        6D-1        0.00080   0.00080  -0.00100  -0.00026  -0.00024
 102        6D+2        0.00050   0.00192  -0.00091  -0.00272   0.00055
 103        6D-2        0.00220  -0.00060  -0.00175   0.00087  -0.00000
 104 9   C  1S         -0.00085   0.00222   0.00831   0.00553   0.00352
 105        2S          0.00360  -0.01052  -0.02054  -0.00930  -0.01172
 106        3S         -0.04274   0.00830  -0.03368  -0.08495   0.05350
 107        4PX         0.05394  -0.00823  -0.02398  -0.01114  -0.01200
 108        4PY         0.02783   0.04380   0.04139  -0.00728   0.00889
 109        4PZ        -0.08460  -0.00412   0.00928   0.04859   0.04271
 110        5PX         0.01924   0.01008  -0.01446  -0.02314   0.02256
 111        5PY         0.00114   0.03440   0.03809   0.01602   0.03737
 112        5PZ        -0.03711   0.00790  -0.00039  -0.00098  -0.00735
 113        6D 0       -0.00662   0.00062   0.00297   0.00998   0.00801
 114        6D+1        0.00341  -0.00120  -0.00082  -0.00544  -0.00268
 115        6D-1       -0.00955  -0.00284   0.00093   0.01315   0.01121
 116        6D+2       -0.00073  -0.00071  -0.00004   0.00054   0.00272
 117        6D-2        0.00484  -0.00283  -0.00348  -0.00463  -0.00585
 118 10  N  1S         -0.00824   0.02613   0.02292   0.00786   0.00914
 119        2S         -0.01984   0.05962   0.04640   0.01404   0.01861
 120        3S          0.00271   0.11043   0.22371   0.01831   0.03326
 121        4PX         0.11416  -0.04426  -0.04227  -0.12304  -0.10423
 122        4PY         0.02872   0.07979   0.04496  -0.05051  -0.02456
 123        4PZ        -0.20377  -0.02356   0.05876   0.28206   0.24469
 124        5PX        -0.09027   0.05318   0.06042   0.12235   0.10141
 125        5PY        -0.02590  -0.04258  -0.06483   0.05968   0.03156
 126        5PZ         0.15459   0.02766  -0.03605  -0.24920  -0.21612
 127        6D 0        0.00380   0.00096   0.00020  -0.00225  -0.00149
 128        6D+1        0.00385   0.00012   0.00058  -0.00052  -0.00014
 129        6D-1       -0.00894  -0.00014   0.00013   0.00091  -0.00089
 130        6D+2       -0.00049   0.00026   0.00267   0.00015   0.00030
 131        6D-2        0.00364   0.00287   0.00187  -0.00022   0.00066
 132 11  C  1S         -0.00509   0.04792   0.01689  -0.00257   0.00444
 133        2S          0.01140  -0.12598  -0.04760   0.00889  -0.01420
 134        3S         -0.00453  -0.07100   0.27796  -0.10644  -0.00659
 135        4PX        -0.05483  -0.02139   0.07143  -0.03190  -0.04455
 136        4PY         0.01979   0.08135   0.05894  -0.02833  -0.01182
 137        4PZ         0.19577   0.00607   0.04926   0.06928   0.09426
 138        5PX        -0.04650  -0.00421   0.29600  -0.08373  -0.05179
 139        5PY         0.00181  -0.03194  -0.16293   0.04542  -0.01275
 140        5PZ         0.14122   0.01024   0.12412   0.03456   0.08079
 141        6D 0       -0.00983  -0.00309  -0.00113   0.00509  -0.00213
 142        6D+1       -0.01231  -0.00509  -0.00494   0.00507  -0.00603
 143        6D-1        0.00309  -0.00566  -0.01128  -0.02373  -0.02441
 144        6D+2        0.00808  -0.01843  -0.01474   0.00020   0.00051
 145        6D-2       -0.00167  -0.01409  -0.00942   0.01292   0.01121
 146 12  N  1S         -0.00014   0.06689   0.07726  -0.02152  -0.00192
 147        2S         -0.00160   0.13354   0.16200  -0.04938  -0.00624
 148        3S          0.00486   0.20328   0.17397  -0.00610   0.01128
 149        4PX         0.05871  -0.15957  -0.14595   0.11236   0.09936
 150        4PY         0.01615   0.29182   0.30469  -0.08921  -0.01739
 151        4PZ        -0.11609  -0.06970  -0.11923  -0.17835  -0.29311
 152        5PX        -0.03734   0.10574   0.04205  -0.08078  -0.09363
 153        5PY        -0.01028  -0.21243  -0.21426   0.07522   0.00784
 154        5PZ         0.06850   0.04325   0.07255   0.15093   0.21900
 155        6D 0        0.00194   0.00802   0.00906  -0.00153  -0.00036
 156        6D+1        0.00240  -0.00256  -0.00261   0.00280  -0.00061
 157        6D-1        0.01026   0.00263   0.00589   0.00864   0.01439
 158        6D+2       -0.00006   0.00851   0.00703  -0.00216  -0.00015
 159        6D-2       -0.00372   0.00612   0.00896  -0.00610  -0.00560
 160 13  C  1S          0.01273   0.02036   0.02191  -0.00884  -0.00103
 161        2S         -0.03606  -0.04563  -0.05838   0.02193  -0.00155
 162        3S          0.03473  -0.07854  -0.06693   0.00046   0.02445
 163        4PX         0.05603  -0.10366  -0.10146   0.05691   0.02727
 164        4PY        -0.01705   0.08527   0.08709  -0.00335   0.01033
 165        4PZ        -0.09473  -0.03119  -0.05328  -0.05418  -0.07619
 166        5PX         0.00571  -0.05215  -0.05203  -0.00146  -0.05105
 167        5PY         0.00576  -0.00899  -0.00547   0.00015   0.00776
 168        5PZ        -0.02098  -0.01582  -0.02143  -0.02772  -0.00056
 169        6D 0        0.00482  -0.00024   0.00030   0.00452   0.00782
 170        6D+1        0.00742  -0.00262  -0.00058   0.00981   0.01423
 171        6D-1        0.00229  -0.00507  -0.00414   0.00498   0.00407
 172        6D+2       -0.00099  -0.01275  -0.01375  -0.00090  -0.00594
 173        6D-2       -0.00016  -0.01068  -0.01210   0.00116  -0.00090
 174 14  H  1S          0.07753  -0.03493  -0.01707   0.07942   0.10005
 175        2S          0.04872  -0.00644   0.00123   0.04622   0.08052
 176        3PX         0.00150  -0.00086  -0.00131   0.00052   0.00021
 177        3PY         0.00226   0.00173   0.00204   0.00156   0.00279
 178        3PZ         0.00109  -0.00209  -0.00180   0.00137   0.00108
 179 15  C  1S         -0.00197  -0.02148  -0.02490   0.00816   0.00233
 180        2S          0.00498   0.05398   0.05718  -0.01841  -0.00330
 181        3S         -0.03342   0.11533   0.13630  -0.01480  -0.01893
 182        4PX         0.04958   0.00891   0.01886  -0.03600  -0.02175
 183        4PY         0.01763  -0.13389  -0.13058   0.01711  -0.01051
 184        4PZ        -0.05895   0.00979   0.03339   0.05339   0.04446
 185        5PX         0.00946  -0.00280   0.01014   0.00501   0.01121
 186        5PY         0.01778  -0.10467  -0.11707   0.00902  -0.00629
 187        5PZ        -0.03288   0.01000   0.02243   0.02201   0.00902
 188        6D 0        0.00778  -0.00093  -0.00405  -0.01009  -0.00867
 189        6D+1        0.00982   0.00142  -0.00142  -0.01118  -0.00849
 190        6D-1        0.00256  -0.00039   0.00092   0.00132   0.00186
 191        6D+2       -0.00278  -0.00015  -0.00017   0.00360   0.00292
 192        6D-2       -0.00049   0.00300   0.00504  -0.00119   0.00027
 193 16  C  1S          0.00627   0.00456   0.00999   0.01579   0.02308
 194        2S         -0.01105  -0.01490  -0.02624  -0.03779  -0.05489
 195        3S         -0.08146   0.00231  -0.04504  -0.06453  -0.14940
 196        4PX        -0.10362   0.01161  -0.01539  -0.05658  -0.07491
 197        4PY         0.01650  -0.03132  -0.03103  -0.03055  -0.04005
 198        4PZ         0.05630   0.02483   0.03536   0.04963   0.06415
 199        5PX        -0.06157   0.02063  -0.00314  -0.02934  -0.04862
 200        5PY        -0.03389   0.01022   0.01081  -0.02633  -0.05803
 201        5PZ         0.03101   0.04872   0.05163   0.03067   0.06246
 202        6D 0        0.00062   0.00008   0.00012  -0.00054  -0.00047
 203        6D+1        0.00461   0.00018   0.00126   0.00191   0.00261
 204        6D-1        0.00344  -0.00071  -0.00078   0.00150   0.00190
 205        6D+2        0.00280  -0.00437  -0.00359   0.00102   0.00095
 206        6D-2       -0.00474   0.00134   0.00016  -0.00186  -0.00243
 207 17  C  1S          0.00494  -0.00260  -0.00160  -0.00080   0.00031
 208        2S         -0.01158   0.00851   0.00263   0.00145  -0.00171
 209        3S         -0.02576  -0.00509   0.02115   0.00234  -0.00786
 210        4PX         0.04693  -0.03265  -0.02400   0.01077   0.00463
 211        4PY        -0.02586   0.03763   0.03283   0.01186   0.01611
 212        4PZ        -0.00667  -0.01982  -0.01689  -0.00437  -0.00566
 213        5PX         0.02584  -0.02990  -0.01385   0.00332   0.00323
 214        5PY        -0.01850   0.04079   0.04580   0.01010   0.01592
 215        5PZ        -0.00742  -0.02925  -0.02561   0.00036  -0.00897
 216        6D 0        0.00015   0.00014  -0.00014  -0.00006  -0.00004
 217        6D+1        0.00245  -0.00128  -0.00062   0.00092   0.00086
 218        6D-1        0.00167   0.00121   0.00148   0.00157   0.00197
 219        6D+2        0.00136  -0.00136  -0.00073   0.00005   0.00037
 220        6D-2       -0.00387   0.00136   0.00039  -0.00213  -0.00241
 221 18  C  1S         -0.00233   0.00005   0.00094   0.00271   0.00347
 222        2S          0.00180   0.00300  -0.00162  -0.00475  -0.01077
 223        3S          0.05032  -0.06530  -0.03941  -0.01273   0.01752
 224        4PX         0.01102  -0.01802  -0.01494  -0.00700  -0.01434
 225        4PY        -0.00053   0.01035   0.00673  -0.00488  -0.00133
 226        4PZ        -0.04948  -0.01185  -0.01391  -0.01660  -0.02149
 227        5PX         0.00825  -0.01218  -0.00421  -0.02082  -0.01360
 228        5PY         0.00417   0.01195   0.00660   0.00171   0.00371
 229        5PZ        -0.04930  -0.00086  -0.00706  -0.02640  -0.03896
 230        6D 0       -0.00006  -0.00092  -0.00142  -0.00144  -0.00213
 231        6D+1        0.00423  -0.00097   0.00008   0.00109   0.00130
 232        6D-1        0.00107   0.00085   0.00097   0.00074   0.00084
 233        6D+2        0.00109  -0.00178  -0.00116  -0.00019   0.00026
 234        6D-2        0.00024   0.00021   0.00004   0.00053   0.00064
 235 19  C  1S         -0.00002   0.00406  -0.00065  -0.00260   0.00154
 236        2S          0.00061  -0.01016   0.00205   0.00833  -0.00423
 237        3S         -0.00649   0.00929   0.00473   0.02625  -0.00114
 238        4PX         0.03657   0.00070   0.00920   0.00824  -0.01206
 239        4PY        -0.00314   0.00718  -0.00550  -0.02178   0.00658
 240        4PZ         0.02027   0.00285  -0.00005  -0.02057  -0.00617
 241        5PX         0.02642  -0.00039   0.00432   0.01373  -0.01556
 242        5PY         0.00039  -0.00970  -0.00427  -0.02089   0.00265
 243        5PZ         0.01295   0.00470  -0.00716  -0.04233  -0.00651
 244        6D 0       -0.00018   0.00007  -0.00007   0.00111  -0.00024
 245        6D+1       -0.00046   0.00025  -0.00057  -0.00109  -0.00023
 246        6D-1        0.00195   0.00005   0.00051   0.00160  -0.00095
 247        6D+2        0.00070   0.00049   0.00021   0.00015  -0.00000
 248        6D-2        0.00387   0.00005   0.00016  -0.00019  -0.00184
 249 20  C  1S          0.00203  -0.00111   0.00043   0.00205  -0.00061
 250        2S         -0.00475   0.00216  -0.00306  -0.01714   0.00307
 251        3S         -0.00381  -0.01217   0.01977   0.11137  -0.00831
 252        4PX         0.02738  -0.00388  -0.00450  -0.01228  -0.00040
 253        4PY         0.00826  -0.00126   0.00626   0.03142   0.00400
 254        4PZ         0.01232   0.00946   0.00455   0.02496   0.00187
 255        5PX         0.03587   0.00059  -0.01063  -0.03621  -0.04360
 256        5PY        -0.00083  -0.00307   0.00570   0.02229   0.01854
 257        5PZ         0.01736   0.00616   0.01507   0.08526  -0.01766
 258        6D 0       -0.00225  -0.00009   0.00060  -0.00023   0.00071
 259        6D+1       -0.00162   0.00002   0.00052  -0.00006   0.00023
 260        6D-1       -0.00019   0.00019  -0.00000   0.00045   0.00053
 261        6D+2        0.00165   0.00007  -0.00050  -0.00044   0.00009
 262        6D-2       -0.00015  -0.00017  -0.00039  -0.00073   0.00143
 263 21  C  1S          0.00709   0.00013  -0.00476  -0.01738   0.02285
 264        2S         -0.01363   0.00408   0.00608   0.04343  -0.05422
 265        3S         -0.06638  -0.06272   0.09963   0.07020  -0.16054
 266        4PX         0.08307  -0.02492   0.00098  -0.06227   0.07503
 267        4PY         0.01259  -0.01389   0.00933   0.00709  -0.01045
 268        4PZ        -0.08870  -0.00482   0.02135   0.06830  -0.07892
 269        5PX         0.02685  -0.01235  -0.00790  -0.02877   0.03488
 270        5PY        -0.02443   0.03807  -0.04736   0.00604  -0.00981
 271        5PZ        -0.06010  -0.01546   0.02068   0.06062  -0.09686
 272        6D 0       -0.00161   0.00130  -0.00126   0.00149  -0.00124
 273        6D+1        0.00560  -0.00062  -0.00050  -0.00248   0.00318
 274        6D-1       -0.00415   0.00327  -0.00262   0.00239  -0.00229
 275        6D+2       -0.00231  -0.00309   0.00325   0.00028  -0.00074
 276        6D-2        0.00195  -0.00140   0.00103  -0.00058   0.00055
 277 22  C  1S         -0.00501   0.00580  -0.00481   0.00052  -0.00085
 278        2S          0.01094  -0.01348   0.01250  -0.00141   0.00093
 279        3S          0.04305   0.00910  -0.01444  -0.00786   0.04238
 280        4PX        -0.05055   0.02988  -0.01769   0.02452  -0.02704
 281        4PY         0.01837  -0.00065   0.00348   0.00396  -0.00047
 282        4PZ         0.03261   0.00980  -0.00824   0.00362  -0.00464
 283        5PX        -0.03384   0.00871   0.00153   0.02977  -0.04485
 284        5PY         0.01811  -0.01145   0.01448  -0.00411   0.00457
 285        5PZ         0.01163   0.00747  -0.00685   0.00975  -0.01380
 286        6D 0        0.00059   0.00008  -0.00033  -0.00118   0.00140
 287        6D+1        0.00501  -0.00101   0.00018  -0.00263   0.00279
 288        6D-1       -0.00108   0.00120  -0.00075   0.00051  -0.00031
 289        6D+2       -0.00196  -0.00015   0.00040   0.00154  -0.00146
 290        6D-2       -0.00011   0.00069  -0.00043  -0.00028   0.00036
 291 23  C  1S          0.00047   0.00066  -0.00129  -0.00184   0.00316
 292        2S          0.00002  -0.00056   0.00623   0.00204  -0.00871
 293        3S         -0.01930   0.01188  -0.05226   0.03057  -0.00750
 294        4PX        -0.01415   0.04704  -0.03840  -0.00303   0.01279
 295        4PY        -0.01364   0.01694  -0.01578  -0.00033   0.00234
 296        4PZ         0.04569   0.02054  -0.02177  -0.01591   0.01877
 297        5PX        -0.00753   0.03431  -0.01841  -0.01519   0.00715
 298        5PY        -0.01182   0.02693  -0.03722  -0.00360   0.00967
 299        5PZ         0.01716   0.05184  -0.05186  -0.01855   0.02616
 300        6D 0       -0.00220   0.00025   0.00045   0.00159  -0.00195
 301        6D+1        0.00188  -0.00230   0.00160  -0.00057   0.00047
 302        6D-1       -0.00327   0.00130  -0.00073   0.00156  -0.00173
 303        6D+2       -0.00212  -0.00072   0.00022   0.00048   0.00020
 304        6D-2        0.00217  -0.00012  -0.00007  -0.00131   0.00126
 305 24  H  1S         -0.08637  -0.05106   0.03692  -0.08567   0.05397
 306        2S         -0.04374  -0.05049   0.04466  -0.06771   0.04432
 307        3PX         0.00159   0.00189  -0.00135   0.00063  -0.00020
 308        3PY         0.00171  -0.00224   0.00264   0.00160  -0.00176
 309        3PZ        -0.00045  -0.00180   0.00245   0.00038  -0.00092
 310 25  H  1S          0.07349  -0.00089   0.03940   0.10320  -0.08503
 311        2S          0.04796  -0.00404   0.03956   0.09060  -0.08311
 312        3PX        -0.00067  -0.00077   0.00123   0.00061  -0.00089
 313        3PY        -0.00219  -0.00321   0.00283  -0.00122   0.00012
 314        3PZ        -0.00220   0.00002  -0.00072  -0.00180   0.00119
 315 26  H  1S         -0.04642   0.02733  -0.04128  -0.04457   0.03432
 316        2S         -0.02936   0.01349  -0.02484  -0.04039   0.03594
 317        3PX         0.00093  -0.00194   0.00171   0.00078  -0.00094
 318        3PY         0.00025   0.00056  -0.00058  -0.00024   0.00078
 319        3PZ         0.00306   0.00023  -0.00002   0.00118  -0.00204
 320 27  H  1S          0.10694   0.01379   0.01813   0.10566  -0.07868
 321        2S          0.05649   0.00691   0.01884   0.11297  -0.07279
 322        3PX         0.00187   0.00102  -0.00071  -0.00064  -0.00101
 323        3PY         0.00009   0.00126  -0.00085   0.00093  -0.00090
 324        3PZ        -0.00256  -0.00003  -0.00060  -0.00153   0.00099
 325 28  H  1S          0.05168   0.03225   0.01741  -0.06559  -0.04203
 326        2S          0.03165   0.01847   0.00600  -0.05542  -0.04844
 327        3PX         0.00314   0.00129   0.00036  -0.00161  -0.00234
 328        3PY        -0.00048   0.00038   0.00043  -0.00018  -0.00019
 329        3PZ        -0.00089   0.00152   0.00129  -0.00063   0.00043
 330 29  H  1S         -0.10739   0.00422   0.02612   0.10170   0.08443
 331        2S         -0.05387   0.00027   0.02560   0.10887   0.08039
 332        3PX        -0.00081  -0.00043   0.00005   0.00223   0.00079
 333        3PY         0.00023   0.00100   0.00100   0.00050   0.00111
 334        3PZ         0.00310  -0.00065  -0.00055  -0.00014  -0.00147
 335 30  H  1S         -0.06972  -0.03646  -0.02173   0.09511   0.06980
 336        2S         -0.04012  -0.03990  -0.03046   0.09172   0.08163
 337        3PX        -0.00090  -0.00127  -0.00087   0.00050   0.00033
 338        3PY         0.00214  -0.00291  -0.00320  -0.00136  -0.00179
 339        3PZ         0.00075   0.00187   0.00197  -0.00093  -0.00028
 340 31  H  1S          0.07219  -0.02287  -0.05563  -0.09144  -0.08295
 341        2S          0.04106  -0.02367  -0.05008  -0.06531  -0.06318
 342        3PX         0.00089   0.00043   0.00075  -0.00018  -0.00000
 343        3PY        -0.00174  -0.00313  -0.00258   0.00207   0.00068
 344        3PZ         0.00143  -0.00157  -0.00190  -0.00112  -0.00117
 345 32  H  1S          0.07681  -0.03903  -0.02231   0.01786   0.02228
 346        2S          0.05125  -0.01900  -0.00440   0.03188   0.05079
 347        3PX         0.00135  -0.00101  -0.00092  -0.00152  -0.00166
 348        3PY         0.00020  -0.00093  -0.00095  -0.00052  -0.00053
 349        3PZ         0.00311  -0.00138  -0.00074   0.00184   0.00207
 350 33  H  1S          0.04473  -0.03788  -0.02719   0.00927   0.00588
 351        2S          0.02720   0.02970   0.02009   0.00396   0.01382
 352        3PX        -0.00049   0.00176   0.00237   0.00037   0.00119
 353        3PY         0.00048   0.00209   0.00225   0.00043   0.00136
 354        3PZ        -0.00122  -0.00100  -0.00092  -0.00022  -0.00026
 355 34  H  1S          0.01238   0.00853   0.00733   0.00575   0.00658
 356        2S          0.00958   0.00114   0.00268   0.01054   0.01152
 357        3PX         0.00176  -0.00079  -0.00080   0.00066   0.00036
 358        3PY        -0.00025   0.00050   0.00034   0.00052   0.00057
 359        3PZ         0.00007  -0.00003   0.00002  -0.00033  -0.00054
 360 35  H  1S         -0.03972   0.00471  -0.00119  -0.02060  -0.01976
 361        2S         -0.02136   0.00337  -0.00007  -0.01858  -0.01667
 362        3PX        -0.00024  -0.00070  -0.00083  -0.00048  -0.00066
 363        3PY        -0.00114   0.00069   0.00062   0.00028   0.00050
 364        3PZ         0.00101  -0.00046  -0.00055   0.00039   0.00035
 365 36  H  1S          0.00738  -0.01998  -0.01289  -0.00001  -0.00485
 366        2S          0.01043   0.01934   0.01036   0.04108   0.02139
 367        3PX         0.00172   0.00086   0.00180   0.00134   0.00309
 368        3PY         0.00022  -0.00020  -0.00061   0.00022  -0.00024
 369        3PZ        -0.00160  -0.00130  -0.00159  -0.00216  -0.00272
 370 37  H  1S         -0.03976   0.00277  -0.00245  -0.01118  -0.01134
 371        2S         -0.02484   0.00570   0.00092  -0.01058  -0.01000
 372        3PX        -0.00124  -0.00043  -0.00065  -0.00065  -0.00114
 373        3PY        -0.00077   0.00048   0.00040  -0.00058  -0.00026
 374        3PZ         0.00025  -0.00061  -0.00071  -0.00004  -0.00028
 375 38  H  1S         -0.00385   0.01527   0.01156   0.00212   0.00499
 376        2S         -0.00504   0.01523   0.01288  -0.00367  -0.00367
 377        3PX         0.00162  -0.00066  -0.00098  -0.00063  -0.00091
 378        3PY        -0.00021  -0.00041  -0.00020   0.00096   0.00068
 379        3PZ        -0.00098  -0.00004  -0.00005  -0.00036  -0.00039
 380 39  H  1S          0.00448   0.00049  -0.00061  -0.00625  -0.00221
 381        2S          0.00335   0.00139   0.00549   0.02836  -0.00115
 382        3PX         0.00207   0.00001   0.00004  -0.00044  -0.00136
 383        3PY        -0.00024   0.00022  -0.00031  -0.00149   0.00033
 384        3PZ         0.00076   0.00020   0.00022   0.00096  -0.00044
 385 40  H  1S         -0.03946  -0.00104  -0.00785  -0.00549   0.01668
 386        2S         -0.02003   0.00482  -0.00500  -0.02074   0.01098
 387        3PX        -0.00030  -0.00028  -0.00016   0.00025   0.00031
 388        3PY         0.00054   0.00019  -0.00016  -0.00034   0.00003
 389        3PZ        -0.00100  -0.00006  -0.00028  -0.00050   0.00061
 390 41  H  1S          0.03600   0.00103   0.00583  -0.00066  -0.01336
 391        2S          0.01851   0.00483  -0.00166  -0.01192  -0.00554
 392        3PX        -0.00081   0.00017  -0.00019   0.00020   0.00042
 393        3PY        -0.00057   0.00018  -0.00006  -0.00062   0.00026
 394        3PZ         0.00067   0.00022  -0.00006  -0.00038  -0.00034
 395 42  H  1S         -0.01059  -0.00052  -0.00443  -0.02505  -0.00060
 396        2S         -0.00661   0.00641   0.00631   0.02082   0.01911
 397        3PX         0.00316  -0.00019  -0.00052  -0.00113  -0.00227
 398        3PY        -0.00100  -0.00009  -0.00052  -0.00251   0.00035
 399        3PZ         0.00114   0.00084   0.00027   0.00198  -0.00066
 400 43  H  1S          0.02919  -0.00200  -0.00522  -0.00501   0.00324
 401        2S          0.01714  -0.00055  -0.00288   0.00151   0.00831
 402        3PX        -0.00092   0.00000  -0.00006  -0.00040   0.00009
 403        3PY        -0.00064   0.00010   0.00002   0.00048   0.00023
 404        3PZ         0.00022   0.00032  -0.00001  -0.00012   0.00010
 405 44  H  1S         -0.02113  -0.00278   0.00377   0.00076  -0.00176
 406        2S         -0.00755   0.00052   0.00270   0.00183  -0.01432
 407        3PX        -0.00025  -0.00035   0.00002   0.00074   0.00056
 408        3PY         0.00111   0.00013   0.00014   0.00072  -0.00002
 409        3PZ        -0.00043   0.00019   0.00005   0.00033  -0.00014
 410 45  H  1S          0.06101  -0.01241   0.00413  -0.01925   0.01760
 411        2S          0.06536  -0.02126   0.01155  -0.01569   0.02037
 412        3PX         0.00156  -0.00072   0.00025  -0.00170   0.00179
 413        3PY        -0.00169   0.00021   0.00037   0.00068  -0.00012
 414        3PZ         0.00092  -0.00099   0.00142   0.00154  -0.00185
 415 46  H  1S          0.01215  -0.00060  -0.00237  -0.00759   0.00463
 416        2S          0.01343  -0.01189   0.00912  -0.01847   0.01551
 417        3PX        -0.00159   0.00082  -0.00059   0.00095  -0.00102
 418        3PY         0.00087  -0.00006   0.00005  -0.00007   0.00009
 419        3PZ         0.00134   0.00018  -0.00021  -0.00012   0.00042
 420 47  H  1S          0.02229   0.00757  -0.00345   0.00057   0.00177
 421        2S          0.00036   0.01040  -0.00919  -0.01243   0.01194
 422        3PX        -0.00109   0.00069  -0.00038   0.00108  -0.00103
 423        3PY        -0.00133  -0.00031   0.00010  -0.00072   0.00053
 424        3PZ         0.00076   0.00011  -0.00026  -0.00057   0.00063
 425 48  H  1S         -0.06056   0.00857  -0.00144   0.01996  -0.02189
 426        2S         -0.04184   0.00874  -0.00442   0.01718  -0.02198
 427        3PX         0.00083   0.00066  -0.00051   0.00036  -0.00016
 428        3PY         0.00029   0.00016  -0.00010   0.00035  -0.00017
 429        3PZ        -0.00161   0.00043  -0.00017   0.00073  -0.00088
 430 49  H  1S          0.04440  -0.00784   0.00486  -0.01422   0.01280
 431        2S          0.02828  -0.00292  -0.00100  -0.01623   0.01707
 432        3PX        -0.00035   0.00078  -0.00076   0.00030   0.00024
 433        3PY         0.00148  -0.00011  -0.00011  -0.00029   0.00037
 434        3PZ         0.00017   0.00024  -0.00025  -0.00016   0.00037
 435 50  H  1S         -0.04529   0.02175  -0.01317   0.01650  -0.01236
 436        2S         -0.03002   0.02032  -0.01475   0.01456  -0.00981
 437        3PX         0.00141   0.00035  -0.00077  -0.00066   0.00111
 438        3PY        -0.00072   0.00038  -0.00015   0.00005   0.00004
 439        3PZ        -0.00027   0.00086  -0.00093   0.00027   0.00022
 440 51  H  1S         -0.00550  -0.04104   0.03347   0.00247  -0.00871
 441        2S          0.00106   0.03181  -0.00755  -0.03527   0.01500
[...]
 774,-0.00003611,0.00001245,0.00000767,-0.00001107,0.00001453,-0.000007
 86,0.00001151,0.00046591,0.00107089,0.00004596,-0.00072695,0.00352398,
 0.00616468,-0.00030271,0.00372554,0.00623740,-0.01283225,0.16379559,-0
 .00005249,0.00018776,0.00001353,0.00038687,0.00166799,-0.00035003,0.00
 024776,0.00017501,0.00035169,0.00001586,0.00057280,0.00059101,0.000230
 25,0.00013144,-0.00005346,-0.00009285,-0.00032283,0.00005698,-0.000068
 63,-0.00000570,0.00002868,0.00000982,0.00000737,-0.00002339,-0.0000006
 2,0.00000496,0.00000603,-0.00000909,-0.00001889,0.00001201,-0.00002283
 ,-0.00002024,-0.00006869,0.00000423,-0.00002547,0.00001328,0.00000899,
 0.00001082,-0.00000988,-0.00000242,-0.00000137,0.00000281,0.00000605,0
 .00001064,0.00000024,0.00000374,0.00000025,0.00000291,-0.00000011,0.00
 000257,-0.00000294,-0.00000235,0.00000271,-0.00000201,-0.00000184,-0.0
 0000976,0.00001169,-0.00000192,-0.00001185,0.00000519,-0.00039064,0.00
 848578,0.00848128,0.01481111,-0.13557943,-0.21666116,-0.00034666,0.000
 57902,0.00076714,-0.00015786,-0.00001627,-0.00008496,-0.00001523,0.000
 00639,0.00006748,-0.00000871,0.00000661,-0.00000356,0.00000928,-0.0000
 0147,-0.00000371,0.00000105,-0.00000594,0.00000431,0.00000044,0.000001
 65,-0.00000193,0.00000234,-0.00000364,-0.00000146,0.00000033,-0.000003
 80,0.00000401,-0.00000001,-0.00000512,0.00000025,0.00000253,0.00000086
 ,0.00000177,0.00000003,0.00000060,0.00000235,-0.00000098,-0.00000253,-
 0.00000222,0.00000156,-0.00000010,0.00000258,-0.00000148,-0.00000228,-
 0.00000175,-0.00000029,0.00000137,0.00000147,-0.00000169,0.00000203,-0
 .00000160,0.00000613,-0.00000481,0.00000318,-0.00000204,0.00000209,-0.
 00000218,0.00000320,0.00000849,-0.00000654,-0.00000466,0.00000142,-0.0
 0000527,0.00000559,-0.00000575,0.00000485,0.00001055,-0.00054942,0.000
 79991,0.00340131,-0.01097499,-0.01325790,-0.00082656,-0.00792053,-0.01
 022187,-0.01688445,0.14386121,0.22927445,0.00011844,-0.00041119,0.0001
 9750,0.00071940,-0.00051734,-0.00180527,0.00001456,0.00029891,0.001050
 25,0.00027231,0.00009620,0.00037187,-0.00010190,-0.00004561,-0.0001189
 3,0.00040895,0.00007259,0.00012864,0.00004192,-0.00004275,-0.00000841,
 0.00000288,-0.00001188,-0.00003028,-0.00003130,-0.00001553,0.00000100,
 0.00006811,-0.00001287,0.00003727,-0.00007228,-0.00002227,-0.00006000,
 0.00006305,0.00001358,0.00001031,0.00000564,0.00000149,-0.00000553,-0.
 00000202,0.00000558,-0.00000356,0.00000533,-0.00001359,0.00000238,-0.0
 0000878,-0.00000180,-0.00000537,-0.00000306,0.00000963,-0.00000254,0.0
 0000246,0.00000691,0.00000126,0.00000409,0.00000487,0.00001524,0.00000
 593,0.00000608,-0.00001327,-0.02231077,0.00187209,-0.01884983,0.000913
 64,0.00126108,-0.00078632,-0.20342160,0.00228340,-0.13576740,0.0002047
 3,0.00007096,-0.00009028,-0.00004035,0.00009501,0.00007661,0.00001454,
 -0.00000059,-0.00000944,-0.00000555,0.00000584,0.00000958,0.00000300,-
 0.00000225,-0.00000188,0.00000889,0.00000690,0.00000096,-0.00000074,0.
 00000134,0.00000003,0.00000120,-0.00000263,0.00000273,0.00000466,-0.00
 000032,0.00000378,-0.00000104,0.00000071,0.00000357,0.00000062,0.00000
 096,-0.00000079,0.00000364,-0.00000215,0.00000118,-0.00000451,-0.00000
 136,-0.00000146,0.00000020,0.00000182,0.00000217,0.00000442,-0.0000036
 1,-0.00000093,-0.00000580,0.00000278,0.00000635,0.00000158,-0.00000037
 ,-0.00000232,0.00000571,0.00000107,-0.00000289,-0.00001413,-0.00004580
 ,0.00000868,0.00003607,0.00000612,0.00000170,-0.00001277,0.00001548,0.
 00000563,-0.00441386,-0.00156288,0.00326282,0.00032888,-0.00081124,0.0
 0053161,0.00032455,0.00003920,0.00035301,-0.00000490,0.00001935,0.0000
 7343,0.22221886,0.00003826,0.00002290,0.00000530,0.00088629,0.00048675
 ,0.00034904,0.00006369,0.00013064,0.00005374,-0.00053399,0.00018397,-0
 .00009906,0.00005537,-0.00016149,0.00010751,-0.00022214,-0.00004826,-0
 .00001103,0.00001033,-0.00004307,-0.00001781,0.00000432,0.00000553,0.0
 0001870,0.00002761,0.00000844,-0.00000100,-0.00007302,0.00003956,-0.00
 004133,0.00008391,0.00000159,0.00003749,-0.00007515,0.00002388,-0.0000
 2805,-0.00000890,-0.00001632,0.00001185,0.00000726,0.00000304,0.000002
 59,-0.00001185,0.00000511,0.00000991,0.00001434,0.00000324,0.00000063,
 0.00000264,-0.00001454,0.00000886,-0.00000472,-0.00000834,-0.00000134,
 -0.00000158,-0.00000178,-0.00001250,-0.00001566,-0.00000226,0.00000063
 ,-0.00338045,-0.00119761,-0.00410103,-0.00056873,0.00051103,-0.0010637
 3,0.00181831,-0.04449296,0.00175070,-0.00003802,-0.00002327,-0.0000300
 1,0.00001474,-0.00000620,0.00000382,-0.00001517,-0.00000008,0.00000279
 ,-0.00000424,0.00000723,0.00000174,-0.00000463,0.00000409,-0.00000058,
 -0.00000724,-0.00000281,0.00000368,-0.00000103,0.00000377,-0.00000093,
 -0.00000515,0.00000676,-0.00000729,-0.00000828,0.00000572,-0.00000305,
 0.00000259,-0.00000244,-0.00001499,-0.00000076,-0.00000684,0.00000346,
 -0.00000457,0.00000918,0.00000079,0.00000492,0.00000063,-0.00000302,0.
 00000205,0.00000126,-0.00000092,-0.00000648,0.00000249,0.00000051,0.00
 000414,-0.00000091,-0.00000192,-0.00000294,0.00000281,0.00000001,-0.00
 000190,-0.00000165,0.00000108,-0.00000349,0.00000841,0.00001098,0.0000
 0024,-0.00000249,-0.00000017,0.00000082,0.00000157,-0.00000291,-0.0006
 7923,0.00051964,0.00043044,0.00003075,-0.00006136,0.00037549,0.0002871
 4,0.00001591,0.00015865,-0.00005457,0.00006048,-0.00002105,-0.00181496
 ,0.04218334,0.00000015,0.00023356,0.00004180,0.00068210,-0.00063870,0.
 00157165,-0.00054483,0.00036900,-0.00004710,-0.00005752,0.00020070,0.0
 0004424,0.00030204,0.00013875,-0.00003123,-0.00017047,-0.00013251,-0.0
 0000466,0.00006939,-0.00001094,-0.00004606,-0.00001710,-0.00000538,0.0
 0000501,0.00000401,-0.00000761,-0.00000969,0.00003404,0.00002019,0.000
 00813,-0.00001097,-0.00007995,0.00003254,0.00005369,0.00006979,0.00000
 225,-0.00000331,-0.00002717,0.00000013,-0.00000435,0.00001034,-0.00001
 099,-0.00000287,-0.00001049,-0.00000195,-0.00002018,-0.00000131,-0.000
 01161,-0.00000138,0.00000593,0.00000323,0.00000927,0.00000286,0.000006
 41,0.00000191,0.00000803,-0.00000141,0.00001476,0.00000511,0.00000802,
 0.01261036,-0.00006133,0.01074417,0.00027526,-0.00067414,0.00084926,-0
 .13658093,0.00204488,-0.16299168,-0.00007835,-0.00008672,-0.00004223,-
 0.00007801,-0.00006761,-0.00000879,-0.00000741,-0.00000087,0.00000123,
 -0.00000762,0.00001051,0.00001797,-0.00000093,0.00000157,-0.00000284,-
 0.00000033,0.00000090,0.00000516,-0.00000322,0.00000531,0.00000216,0.0
 0000325,-0.00000081,0.00000035,0.00000732,0.00000521,0.00000473,-0.000
 00857,-0.00000248,0.00000646,-0.00000077,0.00000549,-0.00000756,0.0000
 0582,0.00000052,0.00000265,-0.00000527,-0.00000210,-0.00000539,0.00000
 035,0.00000501,0.00000450,0.00000533,-0.00000328,-0.00000375,-0.000001
 19,0.00000053,0.00000375,-0.00000321,0.00000160,-0.00000231,0.00000146
 ,-0.00000089,-0.00000084,0.00000188,-0.00000198,-0.00000630,-0.0000042
 3,0.00000021,-0.00000067,-0.00000099,-0.00000189,-0.00000316,0.0033574
 8,0.00051029,-0.00058050,-0.00046213,-0.00017975,0.00002556,-0.0000878
 0,-0.00018797,0.00003917,-0.00001930,0.00008838,-0.00009931,0.14538818
 ,-0.00304280,0.17127689,0.00020245,0.00068404,0.00136044,-0.00481779,-
 0.00229806,0.00100768,0.00000745,0.00003372,0.00032675,0.00035698,-0.0
 0048692,-0.00023804,0.00005556,0.00005770,-0.00004270,-0.00018516,-0.0
 0002534,0.00001557,0.00014778,0.00003267,-0.00005215,-0.00001210,-0.00
 001089,0.00005345,-0.00000653,-0.00000831,-0.00001179,0.00004434,0.000
 03526,-0.00001126,-0.00004063,-0.00011376,0.00002121,0.00006783,0.0000
 9691,-0.00003666,0.00000313,-0.00001830,0.00000961,0.00000178,0.000020
 15,-0.00001166,-0.00000606,-0.00000701,0.00001260,-0.00001522,0.000004
 94,-0.00001180,-0.00000386,0.00000600,-0.00000012,0.00000660,0.0000001
 5,0.00000268,-0.00000006,0.00001539,-0.00002828,-0.00000393,0.00001054
 ,-0.00001138,-0.00457452,0.02008252,0.02125116,0.00116897,0.00136650,-
 0.00015091,-0.05166497,0.02834093,0.02770758,0.00001955,-0.00002091,-0
 .00004108,-0.00046212,0.00009674,0.00016603,0.00000561,-0.00000595,0.0
 0000737,-0.00002380,0.00001137,0.00001892,-0.00000087,0.00001081,-0.00
 000523,0.00000003,-0.00000613,-0.00000146,-0.00000127,0.00000649,-0.00
 000234,-0.00000100,0.00000710,-0.00000484,0.00000674,0.00000668,0.0000
 0459,-0.00000512,-0.00000011,0.00000389,0.00000159,0.00000265,-0.00000
 387,0.00000443,-0.00000104,0.00000154,-0.00000628,-0.00000123,-0.00000
 433,0.00000058,0.00000412,0.00000241,0.00000377,-0.00000374,-0.0000016
 0,0.00000555,-0.00000443,-0.00000096,-0.00001204,0.00000720,-0.0000033
 7,0.00000176,-0.00000201,0.00000388,0.00000658,0.00000532,0.00001984,-
 0.00000535,-0.00000325,0.00000985,-0.00000823,0.00000537,-0.00000949,0
 .00060316,0.00038391,-0.00054165,0.00000984,-0.00018984,-0.00007109,0.
 00002866,0.00017421,-0.00041797,0.00004495,-0.00073463,-0.00018278,0.0
 0490369,-0.01761951,-0.01524258,0.05552037,-0.00019893,0.00012664,0.00
 028090,-0.00133951,-0.00055866,0.00132611,0.00001184,-0.00005140,-0.00
 007358,0.00085340,-0.00078122,-0.00117202,-0.00071675,0.00029470,-0.00
 014960,0.00070316,0.00029153,0.00007779,-0.00016560,0.00015115,0.00005
 297,0.00001064,0.00000538,-0.00003785,-0.00006657,-0.00000348,0.000018
 18,0.00008118,-0.00011295,0.00007809,-0.00020485,0.00018354,-0.0001030
 5,0.00004143,-0.00016190,-0.00000806,0.00002213,0.00008628,-0.00002589
 ,-0.00000618,-0.00001729,0.00001408,0.00002828,0.00001300,-0.00002064,
 0.00001439,-0.00000054,0.00002054,0.00000074,0.00000515,-0.00001636,-0
 .00001000,0.00000250,-0.00000818,0.00000026,-0.00000700,0.00002307,-0.
 00000638,-0.00000203,0.00001157,-0.00189652,0.00329517,0.00625147,-0.0
 0063921,0.00097422,0.00124262,0.02935683,-0.17721379,-0.13512885,0.000
 05641,0.00005417,-0.00002627,-0.00007841,0.00000812,0.00003272,0.00004
 076,-0.00000070,-0.00001168,0.00003697,-0.00004639,-0.00002898,0.00001
 230,-0.00001125,0.00000519,0.00001691,0.00000549,-0.00001466,0.0000079
 9,-0.00001760,-0.00000053,0.00000309,-0.00001302,0.00001404,-0.0000018
 8,-0.00001855,-0.00000619,0.00000980,0.00000573,0.00001349,0.00000157,
 0.00000437,0.00000510,-0.00000361,-0.00001150,-0.00000567,0.00000381,0
 .00000299,0.00001447,-0.00000319,-0.00000955,-0.00000607,0.00000021,0.
 00000349,0.00000466,-0.00000547,0.00000233,-0.00000037,0.00000954,-0.0
 0000946,0.00000285,0.00000115,0.00000455,-0.00000294,-0.00001122,-0.00
 000554,-0.00003130,0.00000698,0.00000659,-0.00000971,0.00001363,-0.000
 01095,0.00000656,0.00046502,0.00002723,-0.00024451,0.00009232,-0.00000
 450,0.00000443,0.00017514,0.00017304,0.00006856,-0.00010377,0.00025126
 ,-0.00023943,-0.00017568,0.00085984,0.00313412,-0.03029177,0.18835708,
 -0.00025181,-0.00069457,-0.00065293,0.00331978,0.00153517,0.00031749,-
 0.00019593,0.00015039,0.00035022,-0.00003700,0.00026192,0.00052591,-0.
 00006569,0.00001567,0.00002710,0.00041347,-0.00001836,-0.00010610,-0.0
 0017627,-0.00002738,0.00004576,0.00001829,0.00001112,-0.00004982,-0.00
 000995,0.00000909,0.00001484,-0.00002054,-0.00006329,0.00001671,0.0000
 2096,0.00015131,-0.00001996,-0.00004466,-0.00011504,0.00004922,0.00000
 529,0.00003592,-0.00001057,-0.00000290,-0.00002112,0.00001247,0.000013
 82,0.00001192,-0.00001521,0.00001126,-0.00000379,0.00001331,0.00000246
 ,0.00000439,-0.00000811,-0.00000614,0.00000502,-0.00000485,-0.00000153
 ,-0.00001819,0.00002556,-0.00000054,-0.00001292,0.00000506,0.00109411,
 -0.00969239,-0.01166839,-0.00092119,-0.00113332,0.00045426,0.02845759,
 -0.13367825,-0.18211268,0.00002020,0.00005662,0.00006003,0.00028146,-0
 .00005906,-0.00010676,-0.00000066,0.00000715,-0.00000327,0.00003448,-0
 .00002179,-0.00002874,0.00000307,-0.00001095,0.00000697,0.00000260,0.0
 0000380,-0.00000512,0.00000315,-0.00001068,0.00000024,0.00000184,-0.00
 000729,0.00000795,-0.00000226,-0.00001189,-0.00000277,0.00000593,0.000
 00356,0.00000301,-0.00000041,-0.00000071,0.00000540,-0.00000358,-0.000
 00533,-0.00000341,0.00000334,0.00000148,0.00000817,-0.00000260,-0.0000
 0628,-0.00000382,-0.00000107,0.00000278,0.00000343,-0.00000437,0.00000
 279,-0.00000217,0.00001250,-0.00000761,0.00000496,-0.00000217,0.000003
 61,-0.00000242,0.00000139,0.00000635,-0.00001700,-0.00000404,0.0000027
 7,-0.00000715,0.00000928,-0.00000819,0.00000939,0.00021092,0.00023091,
 0.00053548,-0.00000852,-0.00002208,-0.00022151,-0.00018693,0.00013847,
 0.00042461,0.00036767,0.00083838,0.00015339,0.00532885,-0.01285827,-0.
 01212274,-0.03519119,0.14531634,0.19332671,-0.00003373,-0.00022535,-0.
 00012925,0.00077982,-0.00029014,-0.00050807,-0.00001640,0.00000762,0.0
 0000049,-0.00020366,0.00018897,-0.00023162,-0.00094395,0.00011508,0.00
 012745,0.00048037,0.00041124,0.00006283,-0.00014193,0.00006567,0.00003
 141,0.00003104,0.00002024,0.00001788,-0.00001576,0.00001257,0.00001348
 ,-0.00006117,-0.00003623,-0.00000025,-0.00002223,0.00019881,-0.0000828
 2,-0.00010967,-0.00010813,-0.00000709,0.00001727,0.00005058,-0.0000198
 3,0.00000544,-0.00002778,0.00002330,0.00000734,0.00002159,0.00000135,0
 .00002905,-0.00000197,0.00002327,0.00000774,-0.00000613,-0.00000919,-0
 .00001376,-0.00000367,-0.00000958,-0.00000663,-0.00001491,-0.00000807,
 -0.00004429,-0.00001685,0.00000408,0.00160683,-0.02669019,0.01138906,-
 0.00513737,0.00001000,0.00294875,-0.04624999,0.00418393,-0.00230170,0.
 00006751,-0.00003618,-0.00000668,0.00002621,-0.00000129,-0.00005125,0.
 00002482,-0.00000270,-0.00000117,0.00002842,-0.00003967,-0.00003418,0.
 00000371,-0.00000120,0.00000407,0.00000234,-0.00000300,-0.00001130,0.0
 0000335,-0.00000956,-0.00000299,-0.00000427,-0.00000041,0.00000090,-0.
 00001086,-0.00001027,-0.00000869,0.00001053,0.00000307,-0.00001135,-0.
 00000195,-0.00001201,0.00001227,-0.00001077,0.00000221,-0.00000110,0.0
 0000750,0.00000326,0.00000992,-0.00000112,-0.00000734,-0.00000557,-0.0
 0000759,0.00000466,0.00000606,0.00000465,-0.00000202,-0.00000761,0.000
 00374,-0.00000218,0.00000290,-0.00000146,0.00000262,0.00000282,0.00000
 512,0.00002427,-0.00000709,0.00000155,0.00000054,-0.00000309,0.0000168
 4,-0.00000549,-0.00000052,0.00106759,-0.00023317,-0.00059940,0.0000848
 3,0.00000995,0.00025903,-0.00016841,-0.00173442,0.00085340,-0.00008040
 ,0.00023829,-0.00016325,-0.00025656,0.02180862,-0.00940225,-0.00137282
 ,0.00384762,-0.00250179,0.05059313,0.00007561,-0.00012397,0.00023826,-
 0.00044755,-0.00027221,-0.00014401,0.00000073,-0.00002587,-0.00003969,
 0.00095768,-0.00080938,-0.00138983,0.00018766,0.00010903,-0.00013567,0
 .00002957,0.00003340,-0.00006838,0.00006027,-0.00000141,-0.00000214,0.
 00000433,0.00000855,0.00002669,0.00004442,0.00001008,-0.00001518,-0.00
 011361,0.00007369,-0.00008912,0.00016367,-0.00002383,-0.00000256,-0.00
 010282,0.00009897,0.00018539,-0.00004064,-0.00006829,0.00001908,0.0000
 0785,0.00000096,-0.00001097,-0.00002325,-0.00001039,0.00001869,-0.0000
 0411,-0.00000538,-0.00000694,0.00000062,0.00000131,0.00000794,0.000005
 13,0.00000168,0.00000390,-0.00000148,-0.00000314,-0.00001596,-0.000013
 76,-0.00000680,-0.00000817,0.00049466,-0.00295295,0.00039307,-0.001733
 42,0.00049141,0.00045581,0.00232507,-0.27176913,0.11204346,0.00005746,
 -0.00000795,0.00000918,-0.00005326,0.00000564,0.00005895,0.00000894,-0
 .00000503,0.00000277,-0.00000986,0.00000542,0.00000483,-0.00000920,0.0
 0000597,-0.00000055,-0.00001267,-0.00000423,0.00000996,-0.00000740,0.0
 0001124,-0.00000082,0.00000077,0.00000841,-0.00000714,0.00000138,0.000
 00740,0.00000306,-0.00000581,-0.00000120,-0.00000450,-0.00000105,-0.00
 000112,-0.00000299,0.00000200,0.00000473,0.00000274,-0.00000263,-0.000
 00070,-0.00000603,0.00000107,0.00000413,0.00000282,0.00000135,-0.00000
 197,-0.00000215,0.00000512,-0.00000221,-0.00000224,-0.00000386,0.00000
 420,-0.00000097,-0.00000165,-0.00000199,0.00000308,-0.00000283,0.00001
 809,0.00001899,-0.00000506,-0.00000360,0.00000524,-0.00000366,0.000005
 56,-0.00000323,-0.00019312,0.00045549,-0.00006664,0.00006438,0.0000876
 2,-0.00013861,0.00017865,-0.00026385,0.00022853,0.00016097,0.00030476,
 0.00002085,-0.00068124,0.00097585,-0.00165013,0.00034376,-0.01612626,0
 .00970183,-0.00170917,0.28975927,-0.00007992,0.00019461,0.00013859,-0.
 00053806,0.00144181,0.00003158,0.00007357,0.00001421,0.00012546,-0.000
 44327,0.00044768,0.00062438,0.00150132,-0.00042302,0.00000861,-0.00125
 471,-0.00069174,-0.00017848,0.00022979,-0.00019740,-0.00004222,-0.0000
 1151,-0.00000405,0.00004953,0.00010329,0.00001294,-0.00002535,-0.00014
 367,0.00015188,-0.00013038,0.00027176,-0.00025064,0.00027829,-0.000060
 06,0.00018422,0.00001058,-0.00004784,-0.00012247,0.00004737,0.00001266
 ,0.00003078,-0.00001852,-0.00004126,-0.00001144,0.00002350,-0.00001249
 ,0.00000181,-0.00002839,-0.00000088,-0.00000806,0.00002216,0.00000990,
 -0.00000327,0.00000911,-0.00000122,0.00000599,-0.00003111,0.00000434,0
 .00000311,-0.00000597,-0.00283686,0.01185099,-0.00668389,0.00289574,-0
 .00047642,-0.00103172,-0.00089785,0.10978691,-0.09915612,-0.00010314,-
 0.00004062,0.00002737,-0.00000348,-0.00004784,0.00007308,-0.00007338,0
 .00000765,0.00001502,-0.00005700,0.00007554,0.00004936,-0.00001923,0.0
 0001250,-0.00000471,-0.00002661,-0.00000859,0.00002229,-0.00001114,0.0
 0002194,-0.00000039,-0.00000471,0.00002067,-0.00001913,0.00000097,0.00
 002387,0.00000866,-0.00001127,-0.00000762,-0.00002229,-0.00000192,-0.0
 0000776,-0.00000302,0.00000336,0.00001743,0.00000628,-0.00000364,-0.00
 000495,-0.00002078,0.00000449,0.00001293,0.00000688,-0.00000234,-0.000
 00356,-0.00000508,0.00000880,-0.00000241,-0.00000105,-0.00001115,0.000
 01043,-0.00000211,-0.00000454,-0.00000645,0.00000236,0.00001350,0.0000
 1635,0.00003548,-0.00001564,-0.00000892,0.00000660,-0.00001233,0.00000
 697,-0.00000878,-0.00005120,-0.00059313,0.00080885,0.00004714,-0.00040
 140,0.00019749,0.00022974,0.00099851,0.00014993,0.00002436,0.00025366,
 0.00020135,0.00069009,0.01801441,-0.00866466,0.00032553,-0.02064752,0.
 01076782,0.00033197,-0.11965049,0.10233618\\-0.00467374,-0.00108644,0.
 00015671,-0.01067329,0.01445057,-0.00364824,-0.00108651,-0.00347283,0.
 00181616,0.00343353,-0.00482215,-0.00203782,0.03005725,-0.00438760,-0.
 00195381,-0.01724187,-0.00946364,0.00169970,0.00459694,-0.00292591,0.0
 0011403,-0.00008219,0.00054792,0.00093365,0.00504080,0.00191532,-0.001
 25019,-0.01605969,0.00927399,-0.00701434,0.03083154,0.00112903,0.00159
 451,0.00298827,0.00457579,0.00153075,-0.01169755,-0.01338727,0.0051361
 1,-0.00085995,0.00382135,-0.00170387,-0.00455909,0.00162451,0.00020010
 ,-0.00116974,0.00003810,-0.00205731,-0.00037502,-0.00254068,0.00195459
 ,0.00108285,0.00006113,0.00104058,0.00002541,-0.00025430,-0.00057472,0
 .00013121,-0.00008663,-0.00001009,-0.00046846,-0.00034967,0.00301337,-
 0.00000214,-0.00052066,-0.00178519,-0.00153126,0.00309143,-0.00244088,
 -0.00171252,-0.00080155,0.00080267,0.00008557,-0.00078657,0.00107414,-
 0.00098232,-0.00007358,0.00020973,-0.00133123,0.00129094,0.00083114,-0
 .00115600,0.00020968,0.00001560,-0.00164693,-0.00014746,0.00135010,-0.
 00118055,0.00141139,-0.00034832,-0.00037644,0.00104630,-0.00068410,0.0
 0054123,0.00094005,0.00078905,-0.00259117,-0.00057188,-0.00011953,0.00
 026681,0.00281117,-0.00154833,0.00127715,0.00045171,-0.00091506,-0.000
 52037,-0.00011910,-0.00125381,0.00004403,0.00083448,0.00036044,0.00060
 152,-0.00025970,-0.00058619,0.00016245,0.00001519,0.00005673,-0.000152
 19,0.00022764,-0.00009250,-0.00017766,-0.00021642,0.00007214,-0.000004
 20,0.00021959,0.00078337,-0.00016979,-0.00024791,0.00007623,-0.0002766
 3,0.00028468,-0.00013545,0.00086500,0.00017710,0.00026598,0.00014777,-
 0.00034589,0.00043002,0.00027999,0.00046053,-0.00004810,0.00011867,-0.
 00091199,-0.00006530,0.00053063,-0.00200284,0.00051832,0.00135024,-0.0
 0126915,0.00060903,-0.00170038,0.00014221,0.00283822\\\@

 Writing a WFNX file to "29_sub.wfx"


 We find comfort among those who agree with us -- growth among those who don't.
 -- Frank A. Clark
 Job cpu time:       0 days  3 hours 22 minutes 26.4 seconds.
 Elapsed time:       0 days  0 hours 25 minutes 22.5 seconds.
 File lengths (MBytes):  RWF=   1045 Int=      0 D2E=      0 Chk=     15 Scr=      1
 Normal termination of Gaussian 16 at Sun Jan 15 18:05:18 2023.
